<event>
 4    1  0.4510095E+000  0.2048055E+03  0.7546771E-02  0.1145747E+00
         21   -1    0    0  501  502  0.00000000000E+00  0.00000000000E+00  0.87492509574E+02  0.87492509574E+02  0.00000000000E+00 0. -1.
         21   -1    0    0  502  503 -0.00000000000E+00 -0.00000000000E+00 -0.50238756794E+03  0.50238756794E+03  0.00000000000E+00 0.  1.
          6    1    1    2  501    0  0.98049995923E+02  0.49015260710E+02 -0.14437926883E+03  0.25058066715E+03  0.17300000000E+03 0. -1.
         -6    1    1    2    0  503 -0.98049995923E+02 -0.49015260710E+02 -0.27051578953E+03  0.33929941036E+03  0.17300000000E+03 0.  1.
<mgrwt>
<rscale>  2 0.20480551E+03</rscale>
<asrwt>0</asrwt>
<pdfrwt beam="1">  1       21 0.13460386E-01 0.20480551E+03</pdfrwt>
<pdfrwt beam="2">  1       21 0.77290394E-01 0.20480551E+03</pdfrwt>
<totfact> 0.70565112E+04</totfact>
</mgrwt>
</event>
<event>
 4    1  0.4510095E+000  0.1984719E+03  0.7546771E-02  0.1151035E+00
         21   -1    0    0  503  502  0.00000000000E+00  0.00000000000E+00  0.49422449902E+02  0.49422449902E+02  0.00000000000E+00 0. -1.
         21   -1    0    0  501  503 -0.00000000000E+00 -0.00000000000E+00 -0.10358668073E+04  0.10358668073E+04  0.00000000000E+00 0. -1.
          6    1    1    2  501    0 -0.91667625971E+02  0.32544320074E+02 -0.23265733879E+03  0.30581125504E+03  0.17300000000E+03 0. -1.
         -6    1    1    2    0  502  0.91667625971E+02 -0.32544320074E+02 -0.75378701860E+03  0.77947800215E+03  0.17300000000E+03 0. -1.
<mgrwt>
<rscale>  2 0.19847188E+03</rscale>
<asrwt>0</asrwt>
<pdfrwt beam="1">  1       21 0.76034546E-02 0.19847188E+03</pdfrwt>
<pdfrwt beam="2">  1       21 0.15936411E+00 0.19847188E+03</pdfrwt>
<totfact> 0.33228256E+04</totfact>
</mgrwt>
</event>
<event>
 4    1  0.4510095E+000  0.2116190E+03  0.7546771E-02  0.1140290E+00
         21   -1    0    0  503  502  0.00000000000E+00  0.00000000000E+00  0.53823267271E+02  0.53823267271E+02  0.00000000000E+00 0.  1.
         21   -1    0    0  501  503 -0.00000000000E+00 -0.00000000000E+00 -0.12342938335E+04  0.12342938335E+04  0.00000000000E+00 0.  1.
          6    1    1    2  501    0 -0.51418186642E+02 -0.11049786868E+03 -0.95791629749E+03  0.98101286531E+03  0.17300000000E+03 0.  1.
         -6    1    1    2    0  502  0.51418186642E+02  0.11049786868E+03 -0.22255426871E+03  0.30710423544E+03  0.17300000000E+03 0.  1.
<mgrwt>
<rscale>  2 0.21161902E+03</rscale>
<asrwt>0</asrwt>
<pdfrwt beam="1">  1       21 0.82805027E-02 0.21161902E+03</pdfrwt>
<pdfrwt beam="2">  1       21 0.18989136E+00 0.21161902E+03</pdfrwt>
<totfact> 0.17408180E+04</totfact>
</mgrwt>
</event>
<event>
 4    1  0.4510095E+000  0.2084008E+03  0.7546771E-02  0.1142839E+00
         21   -1    0    0  503  502  0.00000000000E+00  0.00000000000E+00  0.35721863400E+02  0.35721863400E+02  0.00000000000E+00 0. -1.
         21   -1    0    0  501  503 -0.00000000000E+00 -0.00000000000E+00 -0.12470139255E+04  0.12470139255E+04  0.00000000000E+00 0. -1.
          6    1    1    2  501    0  0.46321119550E+02  0.10656569960E+03 -0.70710641402E+03  0.73717730242E+03  0.17300000000E+03 0. -1.
         -6    1    1    2    0  502 -0.46321119550E+02 -0.10656569960E+03 -0.50418564808E+03  0.54555848649E+03  0.17300000000E+03 0. -1.
<mgrwt>
<rscale>  2 0.20840080E+03</rscale>
<asrwt>0</asrwt>
<pdfrwt beam="1">  1       21 0.54956719E-02 0.20840080E+03</pdfrwt>
<pdfrwt beam="2">  1       21 0.19184828E+00 0.20840080E+03</pdfrwt>
<totfact> 0.34376425E+04</totfact>
</mgrwt>
</event>
<event>
 4    1  0.4510095E+000  0.2093373E+03  0.7546771E-02  0.1142092E+00
         21   -1    0    0  503  502  0.00000000000E+00  0.00000000000E+00  0.18798387009E+03  0.18798387009E+03  0.00000000000E+00 0.  1.
         21   -1    0    0  501  503 -0.00000000000E+00 -0.00000000000E+00 -0.23360334953E+03  0.23360334953E+03  0.00000000000E+00 0. -1.
          6    1    1    2  501    0 -0.97189065700E+02  0.66688750589E+02 -0.13184640722E+02  0.20975208866E+03  0.17300000000E+03 0.  1.
         -6    1    1    2    0  502  0.97189065700E+02 -0.66688750589E+02 -0.32434838715E+02  0.21183513096E+03  0.17300000000E+03 0.  1.
<mgrwt>
<rscale>  2 0.20933730E+03</rscale>
<asrwt>0</asrwt>
<pdfrwt beam="1">  1       21 0.28920596E-01 0.20933730E+03</pdfrwt>
<pdfrwt beam="2">  1       21 0.35938977E-01 0.20933730E+03</pdfrwt>
<totfact> 0.84839424E+04</totfact>
</mgrwt>
</event>
<event>
 4    1  0.4510095E+000  0.1730563E+03  0.7546771E-02  0.1174698E+00
         21   -1    0    0  503  502  0.00000000000E+00  0.00000000000E+00  0.65771480837E+03  0.65771480837E+03  0.00000000000E+00 0. -1.
         21   -1    0    0  501  503 -0.00000000000E+00 -0.00000000000E+00 -0.50699633594E+02  0.50699633594E+02  0.00000000000E+00 0. -1.
          6    1    1    2  501    0  0.13748733555E+01  0.41936903642E+01  0.19044707010E+03  0.25732967926E+03  0.17300000000E+03 0. -1.
         -6    1    1    2    0  502 -0.13748733555E+01 -0.41936903642E+01  0.41656810468E+03  0.45108476271E+03  0.17300000000E+03 0. -1.
<mgrwt>
<rscale>  2 0.17305628E+03</rscale>
<asrwt>0</asrwt>
<pdfrwt beam="1">  1       21 0.10118689E+00 0.17305628E+03</pdfrwt>
<pdfrwt beam="2">  1       21 0.77999441E-02 0.17305628E+03</pdfrwt>
<totfact> 0.10092420E+05</totfact>
</mgrwt>
</event>
<event>
 4    1  0.4510095E+000  0.1928571E+03  0.7546771E-02  0.1155909E+00
         21   -1    0    0  501  502  0.00000000000E+00  0.00000000000E+00  0.41234852667E+03  0.41234852667E+03  0.00000000000E+00 0. -1.
         21   -1    0    0  502  503 -0.00000000000E+00 -0.00000000000E+00 -0.17171658834E+03  0.17171658834E+03  0.00000000000E+00 0. -1.
          6    1    1    2  501    0 -0.11142083770E+02 -0.84502697514E+02  0.32152526819E+03  0.37492979343E+03  0.17300000000E+03 0. -1.
         -6    1    1    2    0  503  0.11142083770E+02  0.84502697514E+02 -0.80893329863E+02  0.20913532158E+03  0.17300000000E+03 0. -1.
<mgrwt>
<rscale>  2 0.19285708E+03</rscale>
<asrwt>0</asrwt>
<pdfrwt beam="1">  1       21 0.63438235E-01 0.19285708E+03</pdfrwt>
<pdfrwt beam="2">  1       21 0.26417937E-01 0.19285708E+03</pdfrwt>
<totfact> 0.31313028E+04</totfact>
</mgrwt>
</event>
<event>
 4    1  0.4510095E+000  0.1968784E+03  0.7546771E-02  0.1152400E+00
         21   -1    0    0  503  502  0.00000000000E+00  0.00000000000E+00  0.37506704916E+03  0.37506704916E+03  0.00000000000E+00 0. -1.
         21   -1    0    0  501  503 -0.00000000000E+00 -0.00000000000E+00 -0.10623953404E+03  0.10623953404E+03  0.00000000000E+00 0. -1.
          6    1    1    2  501    0 -0.56959981141E+01 -0.93806537520E+02  0.94687585222E+02  0.21846475613E+03  0.17300000000E+03 0. -1.
         -6    1    1    2    0  502  0.56959981141E+01  0.93806537520E+02  0.17413992990E+03  0.26284182708E+03  0.17300000000E+03 0. -1.
<mgrwt>
<rscale>  2 0.19687842E+03</rscale>
<asrwt>0</asrwt>
<pdfrwt beam="1">  1       21 0.57702622E-01 0.19687842E+03</pdfrwt>
<pdfrwt beam="2">  1       21 0.16344544E-01 0.19687842E+03</pdfrwt>
<totfact> 0.94301582E+04</totfact>
</mgrwt>
</event>
<event>
 4    1  0.4510095E+000  0.1806308E+03  0.7546771E-02  0.1167194E+00
         21   -1    0    0  501  502  0.00000000000E+00  0.00000000000E+00  0.17567478696E+04  0.17567478696E+04  0.00000000000E+00 0. -1.
         21   -1    0    0  502  503 -0.00000000000E+00 -0.00000000000E+00 -0.32536041841E+02  0.32536041841E+02  0.00000000000E+00 0. -1.
          6    1    1    2  501    0  0.43959331201E+02 -0.27677958728E+02  0.14481929422E+04  0.14594143654E+04  0.17300000000E+03 0. -1.
         -6    1    1    2    0  503 -0.43959331201E+02  0.27677958728E+02  0.27601888557E+03  0.32986954602E+03  0.17300000000E+03 0. -1.
<mgrwt>
<rscale>  2 0.18063082E+03</rscale>
<asrwt>0</asrwt>
<pdfrwt beam="1">  1       21 0.27026883E+00 0.18063082E+03</pdfrwt>
<pdfrwt beam="2">  1       21 0.50055463E-02 0.18063082E+03</pdfrwt>
<totfact> 0.13762721E+04</totfact>
</mgrwt>
</event>
<event>
 4    1  0.4510095E+000  0.1953322E+03  0.7546771E-02  0.1153738E+00
         21   -1    0    0  501  502  0.00000000000E+00  0.00000000000E+00  0.30843261077E+04  0.30843261077E+04  0.00000000000E+00 0.  1.
         21   -1    0    0  502  503 -0.00000000000E+00 -0.00000000000E+00 -0.26865138958E+02  0.26865138958E+02  0.00000000000E+00 0.  1.
          6    1    1    2  501    0  0.38551251649E+02  0.82094248640E+02  0.26713610215E+04  0.26784929292E+04  0.17300000000E+03 0.  1.
         -6    1    1    2    0  503 -0.38551251649E+02 -0.82094248640E+02  0.38609994730E+03  0.43269831750E+03  0.17300000000E+03 0.  1.
<mgrwt>
<rscale>  2 0.19533219E+03</rscale>
<asrwt>0</asrwt>
<pdfrwt beam="1">  1       21 0.47451143E+00 0.19533219E+03</pdfrwt>
<pdfrwt beam="2">  1       21 0.41331007E-02 0.19533219E+03</pdfrwt>
<totfact> 0.10508631E+03</totfact>
</mgrwt>
</event>
<event>
 4    1  0.4510095E+000  0.2040516E+03  0.7546771E-02  0.1146365E+00
         21   -1    0    0  503  502  0.00000000000E+00  0.00000000000E+00  0.17401771872E+03  0.17401771872E+03  0.00000000000E+00 0. -1.
         21   -1    0    0  501  503 -0.00000000000E+00 -0.00000000000E+00 -0.39234638524E+03  0.39234638524E+03  0.00000000000E+00 0.  1.
          6    1    1    2  501    0 -0.24395117702E+02 -0.10541785495E+03 -0.28604746185E+03  0.35136903157E+03  0.17300000000E+03 0.  1.
         -6    1    1    2    0  502  0.24395117702E+02  0.10541785495E+03  0.67718795332E+02  0.21499507239E+03  0.17300000000E+03 0. -1.
<mgrwt>
<rscale>  2 0.20405158E+03</rscale>
<asrwt>0</asrwt>
<pdfrwt beam="1">  1       21 0.26771957E-01 0.20405158E+03</pdfrwt>
<pdfrwt beam="2">  1       21 0.60360982E-01 0.20405158E+03</pdfrwt>
<totfact> 0.33773710E+04</totfact>
</mgrwt>
</event>
<event>
 4    1  0.4510095E+000  0.1815707E+03  0.7546771E-02  0.1166292E+00
         21   -1    0    0  501  502  0.00000000000E+00  0.00000000000E+00  0.47677250165E+03  0.47677250165E+03  0.00000000000E+00 0.  1.
         21   -1    0    0  502  503 -0.00000000000E+00 -0.00000000000E+00 -0.13894294795E+03  0.13894294795E+03  0.00000000000E+00 0.  1.
          6    1    1    2  501    0 -0.44714000529E+02  0.32242568386E+02  0.38710907753E+03  0.42757614873E+03  0.17300000000E+03 0.  1.
         -6    1    1    2    0  503  0.44714000529E+02 -0.32242568386E+02 -0.49279523835E+02  0.18813930086E+03  0.17300000000E+03 0.  1.
<mgrwt>
<rscale>  2 0.18157072E+03</rscale>
<asrwt>0</asrwt>
<pdfrwt beam="1">  1       21 0.73349615E-01 0.18157072E+03</pdfrwt>
<pdfrwt beam="2">  1       21 0.21375838E-01 0.18157072E+03</pdfrwt>
<totfact> 0.34245851E+04</totfact>
</mgrwt>
</event>
<event>
 4    1  0.4510095E+000  0.2042430E+03  0.7546771E-02  0.1146208E+00
         21   -1    0    0  501  502  0.00000000000E+00  0.00000000000E+00  0.76077807112E+03  0.76077807112E+03  0.00000000000E+00 0.  1.
         21   -1    0    0  502  503 -0.00000000000E+00 -0.00000000000E+00 -0.26017870385E+03  0.26017870385E+03  0.00000000000E+00 0.  1.
          6    1    1    2  501    0 -0.10101380642E+03 -0.39779733404E+02  0.70380776550E+03  0.73284417651E+03  0.17300000000E+03 0.  1.
         -6    1    1    2    0  503  0.10101380642E+03  0.39779733404E+02 -0.20320839823E+03  0.28811259846E+03  0.17300000000E+03 0.  1.
<mgrwt>
<rscale>  2 0.20424303E+03</rscale>
<asrwt>0</asrwt>
<pdfrwt beam="1">  1       21 0.11704278E+00 0.20424303E+03</pdfrwt>
<pdfrwt beam="2">  1       21 0.40027493E-01 0.20424303E+03</pdfrwt>
<totfact> 0.33449262E+03</totfact>
</mgrwt>
</event>
<event>
 4    1  0.4510095E+000  0.1762644E+03  0.7546771E-02  0.1171468E+00
         21   -1    0    0  503  502  0.00000000000E+00  0.00000000000E+00  0.60126220133E+03  0.60126220133E+03  0.00000000000E+00 0.  1.
         21   -1    0    0  501  503 -0.00000000000E+00 -0.00000000000E+00 -0.65629096592E+02  0.65629096592E+02  0.00000000000E+00 0.  1.
          6    1    1    2  501    0 -0.52858579099E+01  0.33349427976E+02  0.11405202348E+03  0.20994520404E+03  0.17300000000E+03 0.  1.
         -6    1    1    2    0  502  0.52858579099E+01 -0.33349427976E+02  0.42158108126E+03  0.45694609388E+03  0.17300000000E+03 0.  1.
<mgrwt>
<rscale>  2 0.17626436E+03</rscale>
<asrwt>0</asrwt>
<pdfrwt beam="1">  1       21 0.92501873E-01 0.17626436E+03</pdfrwt>
<pdfrwt beam="2">  1       21 0.10096785E-01 0.17626436E+03</pdfrwt>
<totfact> 0.79208321E+04</totfact>
</mgrwt>
</event>
<event>
 4    1  0.4510095E+000  0.2000626E+03  0.7546771E-02  0.1149686E+00
         21   -1    0    0  501  502  0.00000000000E+00  0.00000000000E+00  0.79917272816E+02  0.79917272816E+02  0.00000000000E+00 0. -1.
         21   -1    0    0  502  503 -0.00000000000E+00 -0.00000000000E+00 -0.65519047125E+03  0.65519047125E+03  0.00000000000E+00 0.  1.
          6    1    1    2  501    0  0.96075208362E+02  0.29421199235E+02 -0.10923293518E+03  0.22794053337E+03  0.17300000000E+03 0. -1.
         -6    1    1    2    0  503 -0.96075208362E+02 -0.29421199235E+02 -0.46604026325E+03  0.50716721069E+03  0.17300000000E+03 0.  1.
<mgrwt>
<rscale>  2 0.20006262E+03</rscale>
<asrwt>0</asrwt>
<pdfrwt beam="1">  1       21 0.12294965E-01 0.20006262E+03</pdfrwt>
<pdfrwt beam="2">  1       21 0.10079853E+00 0.20006262E+03</pdfrwt>
<totfact> 0.45085001E+04</totfact>
</mgrwt>
</event>
<event>
 4    1  0.4510095E+000  0.1840209E+03  0.7546771E-02  0.1163967E+00
         21   -1    0    0  503  502  0.00000000000E+00  0.00000000000E+00  0.10864412274E+03  0.10864412274E+03  0.00000000000E+00 0. -1.
         21   -1    0    0  501  503 -0.00000000000E+00 -0.00000000000E+00 -0.47146921868E+03  0.47146921868E+03  0.00000000000E+00 0. -1.
          6    1    1    2  501    0  0.53029515945E+02 -0.33504712845E+02 -0.12558599893E+02  0.18444894626E+03  0.17300000000E+03 0. -1.
         -6    1    1    2    0  502 -0.53029515945E+02  0.33504712845E+02 -0.35026649605E+03  0.39566439516E+03  0.17300000000E+03 0. -1.
<mgrwt>
<rscale>  2 0.18402091E+03</rscale>
<asrwt>0</asrwt>
<pdfrwt beam="1">  1       21 0.16714481E-01 0.18402091E+03</pdfrwt>
<pdfrwt beam="2">  1       21 0.72533726E-01 0.18402091E+03</pdfrwt>
<totfact> 0.55344412E+04</totfact>
</mgrwt>
</event>
<event>
 4    1  0.4510095E+000  0.2225547E+03  0.7546771E-02  0.1131993E+00
         21   -1    0    0  501  502  0.00000000000E+00  0.00000000000E+00  0.28635905235E+03  0.28635905235E+03  0.00000000000E+00 0.  1.
         21   -1    0    0  502  503 -0.00000000000E+00 -0.00000000000E+00 -0.17323870531E+03  0.17323870531E+03  0.00000000000E+00 0.  1.
          6    1    1    2  501    0 -0.11813724778E+02 -0.13950636902E+03  0.47455087651E+02  0.22755785294E+03  0.17300000000E+03 0. -1.
         -6    1    1    2    0  503  0.11813724778E+02  0.13950636902E+03  0.65665259385E+02  0.23203990472E+03  0.17300000000E+03 0. -1.
<mgrwt>
<rscale>  2 0.22255469E+03</rscale>
<asrwt>0</asrwt>
<pdfrwt beam="1">  1       21 0.44055239E-01 0.22255469E+03</pdfrwt>
<pdfrwt beam="2">  1       21 0.26652109E-01 0.22255469E+03</pdfrwt>
<totfact> 0.65452314E+04</totfact>
</mgrwt>
</event>
<event>
 4    1  0.4510095E+000  0.1875498E+03  0.7546771E-02  0.1160690E+00
         21   -1    0    0  501  502  0.00000000000E+00  0.00000000000E+00  0.17504105109E+03  0.17504105109E+03  0.00000000000E+00 0.  1.
         21   -1    0    0  502  503 -0.00000000000E+00 -0.00000000000E+00 -0.36551586042E+03  0.36551586042E+03  0.00000000000E+00 0.  1.
          6    1    1    2  501    0  0.38627153361E+02 -0.61268805506E+02  0.86115697795E+02  0.20637547556E+03  0.17300000000E+03 0.  1.
         -6    1    1    2    0  503 -0.38627153361E+02  0.61268805506E+02 -0.27659050713E+03  0.33418143596E+03  0.17300000000E+03 0.  1.
<mgrwt>
<rscale>  2 0.18754979E+03</rscale>
<asrwt>0</asrwt>
<pdfrwt beam="1">  1       21 0.26929393E-01 0.18754979E+03</pdfrwt>
<pdfrwt beam="2">  1       21 0.56233209E-01 0.18754979E+03</pdfrwt>
<totfact> 0.39190975E+04</totfact>
</mgrwt>
</event>
<event>
 4    1  0.4510095E+000  0.1806259E+03  0.7546771E-02  0.1167199E+00
         21   -1    0    0  501  502  0.00000000000E+00  0.00000000000E+00  0.21754080696E+04  0.21754080696E+04  0.00000000000E+00 0. -1.
         21   -1    0    0  502  503 -0.00000000000E+00 -0.00000000000E+00 -0.21328298942E+02  0.21328298942E+02  0.00000000000E+00 0. -1.
          6    1    1    2  501    0 -0.51887743982E+02  0.20946748527E+01  0.16754492972E+04  0.16851575811E+04  0.17300000000E+03 0. -1.
         -6    1    1    2    0  503  0.51887743982E+02 -0.20946748527E+01  0.47863047341E+03  0.51157878740E+03  0.17300000000E+03 0. -1.
<mgrwt>
<rscale>  2 0.18062593E+03</rscale>
<asrwt>0</asrwt>
<pdfrwt beam="1">  1       21 0.33467799E+00 0.18062593E+03</pdfrwt>
<pdfrwt beam="2">  1       21 0.32812785E-02 0.18062593E+03</pdfrwt>
<totfact> 0.11897007E+04</totfact>
</mgrwt>
</event>
<event>
 4    1  0.4510095E+000  0.3051241E+03  0.7546771E-02  0.1082707E+00
         21   -1    0    0  503  502  0.00000000000E+00  0.00000000000E+00  0.79992426458E+03  0.79992426458E+03  0.00000000000E+00 0.  1.
         21   -1    0    0  501  503 -0.00000000000E+00 -0.00000000000E+00 -0.21900468836E+03  0.21900468836E+03  0.00000000000E+00 0. -1.
          6    1    1    2  501    0  0.13487278151E+03 -0.21208743061E+03 -0.58277527693E+02  0.31063968782E+03  0.17300000000E+03 0. -1.
         -6    1    1    2    0  502 -0.13487278151E+03  0.21208743061E+03  0.63919710392E+03  0.70828926511E+03  0.17300000000E+03 0. -1.
<mgrwt>
<rscale>  2 0.30512415E+03</rscale>
<asrwt>0</asrwt>
<pdfrwt beam="1">  1       21 0.12306527E+00 0.30512415E+03</pdfrwt>
<pdfrwt beam="2">  1       21 0.33693029E-01 0.30512415E+03</pdfrwt>
<totfact> 0.39007900E+03</totfact>
</mgrwt>
</event>
<event>
 4    1  0.4510095E+000  0.1988242E+03  0.7546771E-02  0.1150735E+00
         21   -1    0    0  501  502  0.00000000000E+00  0.00000000000E+00  0.28924599777E+02  0.28924599777E+02  0.00000000000E+00 0. -1.
         21   -1    0    0  502  503 -0.00000000000E+00 -0.00000000000E+00 -0.13936261937E+04  0.13936261937E+04  0.00000000000E+00 0. -1.
          6    1    1    2  501    0 -0.72256510993E+02  0.66189447651E+02 -0.78123092785E+03  0.80613448568E+03  0.17300000000E+03 0. -1.
         -6    1    1    2    0  503  0.72256510993E+02 -0.66189447651E+02 -0.58347066611E+03  0.61641630784E+03  0.17300000000E+03 0. -1.
<mgrwt>
<rscale>  2 0.19882416E+03</rscale>
<asrwt>0</asrwt>
<pdfrwt beam="1">  1       21 0.44499373E-02 0.19882416E+03</pdfrwt>
<pdfrwt beam="2">  1       21 0.21440409E+00 0.19882416E+03</pdfrwt>
<totfact> 0.35521420E+04</totfact>
</mgrwt>
</event>
<event>
 4    1  0.4510095E+000  0.2781733E+03  0.7546771E-02  0.1096691E+00
         21   -1    0    0  501  502  0.00000000000E+00  0.00000000000E+00  0.13777894636E+04  0.13777894636E+04  0.00000000000E+00 0. -1.
         21   -1    0    0  502  503 -0.00000000000E+00 -0.00000000000E+00 -0.56198699066E+02  0.56198699066E+02  0.00000000000E+00 0. -1.
          6    1    1    2  501    0  0.85721945153E+02  0.20025762432E+03  0.67894362180E+03  0.73371984405E+03  0.17300000000E+03 0. -1.
         -6    1    1    2    0  503 -0.85721945153E+02 -0.20025762432E+03  0.64264714271E+03  0.70026831858E+03  0.17300000000E+03 0. -1.
<mgrwt>
<rscale>  2 0.27817327E+03</rscale>
<asrwt>0</asrwt>
<pdfrwt beam="1">  1       21 0.21196758E+00 0.27817327E+03</pdfrwt>
<pdfrwt beam="2">  1       21 0.86459547E-02 0.27817327E+03</pdfrwt>
<totfact> 0.11111258E+04</totfact>
</mgrwt>
</event>
<event>
 4    1  0.4510095E+000  0.1783854E+03  0.7546771E-02  0.1169375E+00
         21   -1    0    0  501  502  0.00000000000E+00  0.00000000000E+00  0.49669542028E+03  0.49669542028E+03  0.00000000000E+00 0.  1.
         21   -1    0    0  502  503 -0.00000000000E+00 -0.00000000000E+00 -0.12737802972E+03  0.12737802972E+03  0.00000000000E+00 0.  1.
          6    1    1    2  501    0 -0.33976254173E+02 -0.27165816019E+02  0.40464772447E+03  0.44222296223E+03  0.17300000000E+03 0.  1.
         -6    1    1    2    0  503  0.33976254173E+02  0.27165816019E+02 -0.35330333914E+02  0.18185048777E+03  0.17300000000E+03 0.  1.
<mgrwt>
<rscale>  2 0.17838545E+03</rscale>
<asrwt>0</asrwt>
<pdfrwt beam="1">  1       21 0.76414679E-01 0.17838545E+03</pdfrwt>
<pdfrwt beam="2">  1       21 0.19596620E-01 0.17838545E+03</pdfrwt>
<totfact> 0.36836449E+04</totfact>
</mgrwt>
</event>
<event>
 4    1  0.4510095E+000  0.1752215E+03  0.7546771E-02  0.1172509E+00
         21   -1    0    0  503  502  0.00000000000E+00  0.00000000000E+00  0.46465710186E+03  0.46465710186E+03  0.00000000000E+00 0. -1.
         21   -1    0    0  501  503 -0.00000000000E+00 -0.00000000000E+00 -0.17841268041E+03  0.17841268041E+03  0.00000000000E+00 0. -1.
          6    1    1    2  501    0  0.25510227627E+02 -0.11081863189E+02 -0.11201656699E+03  0.20796704231E+03  0.17300000000E+03 0. -1.
         -6    1    1    2    0  502 -0.25510227627E+02  0.11081863189E+02  0.39826098844E+03  0.43510273996E+03  0.17300000000E+03 0. -1.
<mgrwt>
<rscale>  2 0.17522152E+03</rscale>
<asrwt>0</asrwt>
<pdfrwt beam="1">  1       21 0.71485707E-01 0.17522152E+03</pdfrwt>
<pdfrwt beam="2">  1       21 0.27448105E-01 0.17522152E+03</pdfrwt>
<totfact> 0.22628456E+04</totfact>
</mgrwt>
</event>
<event>
 4    1  0.4510095E+000  0.1789322E+03  0.7546771E-02  0.1168840E+00
         21   -1    0    0  501  502  0.00000000000E+00  0.00000000000E+00  0.14115218758E+04  0.14115218758E+04  0.00000000000E+00 0. -1.
         21   -1    0    0  502  503 -0.00000000000E+00 -0.00000000000E+00 -0.50239009145E+02  0.50239009145E+02  0.00000000000E+00 0. -1.
          6    1    1    2  501    0  0.29929971175E+02  0.34524462944E+02  0.12219420037E+04  0.12349732799E+04  0.17300000000E+03 0. -1.
         -6    1    1    2    0  503 -0.29929971175E+02 -0.34524462944E+02  0.13934086303E+03  0.22678760510E+03  0.17300000000E+03 0. -1.
<mgrwt>
<rscale>  2 0.17893223E+03</rscale>
<asrwt>0</asrwt>
<pdfrwt beam="1">  1       21 0.21715718E+00 0.17893223E+03</pdfrwt>
<pdfrwt beam="2">  1       21 0.77290794E-02 0.17893223E+03</pdfrwt>
<totfact> 0.13503106E+04</totfact>
</mgrwt>
</event>
<event>
 4    1  0.4510095E+000  0.2553137E+03  0.7546771E-02  0.1109992E+00
         21   -1    0    0  501  502  0.00000000000E+00  0.00000000000E+00  0.28459062381E+03  0.28459062381E+03  0.00000000000E+00 0. -1.
         21   -1    0    0  502  503 -0.00000000000E+00 -0.00000000000E+00 -0.24391899336E+03  0.24391899336E+03  0.00000000000E+00 0.  1.
          6    1    1    2  501    0  0.41431603330E+02  0.18313793016E+03  0.85582967395E+02  0.26927592452E+03  0.17300000000E+03 0. -1.
         -6    1    1    2    0  503 -0.41431603330E+02 -0.18313793016E+03 -0.44911336943E+02  0.25923369265E+03  0.17300000000E+03 0.  1.
<mgrwt>
<rscale>  2 0.25531369E+03</rscale>
<asrwt>0</asrwt>
<pdfrwt beam="1">  1       21 0.43783173E-01 0.25531369E+03</pdfrwt>
<pdfrwt beam="2">  1       21 0.37525999E-01 0.25531369E+03</pdfrwt>
<totfact> 0.33306375E+04</totfact>
</mgrwt>
</event>
<event>
 4    1  0.4510095E+000  0.1996532E+03  0.7546771E-02  0.1150032E+00
         21   -1    0    0  501  502  0.00000000000E+00  0.00000000000E+00  0.51236273383E+03  0.51236273383E+03  0.00000000000E+00 0. -1.
         21   -1    0    0  502  503 -0.00000000000E+00 -0.00000000000E+00 -0.11732062599E+03  0.11732062599E+03  0.00000000000E+00 0. -1.
          6    1    1    2  501    0 -0.85703257228E+02 -0.50866200023E+02  0.38025585071E+03  0.42948332983E+03  0.17300000000E+03 0. -1.
         -6    1    1    2    0  503  0.85703257228E+02  0.50866200023E+02  0.14786257132E+02  0.20020002998E+03  0.17300000000E+03 0. -1.
<mgrwt>
<rscale>  2 0.19965325E+03</rscale>
<asrwt>0</asrwt>
<pdfrwt beam="1">  1       21 0.78825035E-01 0.19965325E+03</pdfrwt>
<pdfrwt beam="2">  1       21 0.18049327E-01 0.19965325E+03</pdfrwt>
<totfact> 0.39577370E+04</totfact>
</mgrwt>
</event>
<event>
 4    1  0.4510095E+000  0.2809983E+03  0.7546771E-02  0.1095145E+00
         21   -1    0    0  501  502  0.00000000000E+00  0.00000000000E+00  0.59041088578E+02  0.59041088578E+02  0.00000000000E+00 0. -1.
         21   -1    0    0  502  503 -0.00000000000E+00 -0.00000000000E+00 -0.27167725629E+04  0.27167725629E+04  0.00000000000E+00 0.  1.
          6    1    1    2  501    0 -0.32917080687E+02  0.21896924364E+03 -0.33990641302E+03  0.44101749792E+03  0.17300000000E+03 0. -1.
         -6    1    1    2    0  503  0.32917080687E+02 -0.21896924364E+03 -0.23178250613E+04  0.23347961536E+04  0.17300000000E+03 0.  1.
<mgrwt>
<rscale>  2 0.28099833E+03</rscale>
<asrwt>0</asrwt>
<pdfrwt beam="1">  1       21 0.90832457E-02 0.28099833E+03</pdfrwt>
<pdfrwt beam="2">  1       21 0.41796495E+00 0.28099833E+03</pdfrwt>
<totfact> 0.57376849E+02</totfact>
</mgrwt>
</event>
<event>
 4    1  0.4510095E+000  0.1948491E+03  0.7546771E-02  0.1154159E+00
         21   -1    0    0  501  502  0.00000000000E+00  0.00000000000E+00  0.45960400074E+03  0.45960400074E+03  0.00000000000E+00 0. -1.
         21   -1    0    0  502  503 -0.00000000000E+00 -0.00000000000E+00 -0.37341855306E+03  0.37341855306E+03  0.00000000000E+00 0. -1.
          6    1    1    2  501    0  0.73141756911E+02 -0.51840620522E+02  0.41065861240E+03  0.45454005597E+03  0.17300000000E+03 0. -1.
         -6    1    1    2    0  503 -0.73141756911E+02  0.51840620522E+02 -0.32447316473E+03  0.37848249783E+03  0.17300000000E+03 0. -1.
<mgrwt>
<rscale>  2 0.19484909E+03</rscale>
<asrwt>0</asrwt>
<pdfrwt beam="1">  1       21 0.70708307E-01 0.19484909E+03</pdfrwt>
<pdfrwt beam="2">  1       21 0.57449008E-01 0.19484909E+03</pdfrwt>
<totfact> 0.51446084E+03</totfact>
</mgrwt>
</event>
<event>
 4    1  0.4510095E+000  0.1891509E+03  0.7546771E-02  0.1159229E+00
         21   -1    0    0  503  502  0.00000000000E+00  0.00000000000E+00  0.50441486167E+03  0.50441486167E+03  0.00000000000E+00 0. -1.
         21   -1    0    0  501  503 -0.00000000000E+00 -0.00000000000E+00 -0.82740892971E+02  0.82740892971E+02  0.00000000000E+00 0. -1.
          6    1    1    2  501    0 -0.76012522728E+02  0.84357607528E+01  0.99917581166E+02  0.21391958465E+03  0.17300000000E+03 0. -1.
         -6    1    1    2    0  502  0.76012522728E+02 -0.84357607528E+01  0.32175638753E+03  0.37323616999E+03  0.17300000000E+03 0. -1.
<mgrwt>
<rscale>  2 0.18915091E+03</rscale>
<asrwt>0</asrwt>
<pdfrwt beam="1">  1       21 0.77602285E-01 0.18915091E+03</pdfrwt>
<pdfrwt beam="2">  1       21 0.12729368E-01 0.18915091E+03</pdfrwt>
<totfact> 0.77876644E+04</totfact>
</mgrwt>
</event>
<event>
 4    1  0.4510095E+000  0.1873519E+03  0.7546771E-02  0.1160872E+00
         21   -1    0    0  501  502  0.00000000000E+00  0.00000000000E+00  0.75334440263E+03  0.75334440263E+03  0.00000000000E+00 0.  1.
         21   -1    0    0  502  503 -0.00000000000E+00 -0.00000000000E+00 -0.47816417860E+02  0.47816417860E+02  0.00000000000E+00 0.  1.
          6    1    1    2  501    0  0.70565302454E+02 -0.13865977374E+02  0.41683372357E+03  0.45700227608E+03  0.17300000000E+03 0. -1.
         -6    1    1    2    0  503 -0.70565302454E+02  0.13865977374E+02  0.28869426121E+03  0.34415854441E+03  0.17300000000E+03 0. -1.
<mgrwt>
<rscale>  2 0.18735188E+03</rscale>
<asrwt>0</asrwt>
<pdfrwt beam="1">  1       21 0.11589913E+00 0.18735188E+03</pdfrwt>
<pdfrwt beam="2">  1       21 0.73563725E-02 0.18735188E+03</pdfrwt>
<totfact> 0.80043008E+04</totfact>
</mgrwt>
</event>
<event>
 4    1  0.4510095E+000  0.2031698E+03  0.7546771E-02  0.1147092E+00
         21   -1    0    0  503  502  0.00000000000E+00  0.00000000000E+00  0.57219434234E+03  0.57219434234E+03  0.00000000000E+00 0. -1.
         21   -1    0    0  501  503 -0.00000000000E+00 -0.00000000000E+00 -0.77763999360E+02  0.77763999360E+02  0.00000000000E+00 0. -1.
          6    1    1    2  501    0  0.28504616711E+02 -0.10264727272E+03  0.33461231462E+03  0.39146312325E+03  0.17300000000E+03 0. -1.
         -6    1    1    2    0  502 -0.28504616711E+02  0.10264727272E+03  0.15981802837E+03  0.25849521845E+03  0.17300000000E+03 0. -1.
<mgrwt>
<rscale>  2 0.20316982E+03</rscale>
<asrwt>0</asrwt>
<pdfrwt beam="1">  1       21 0.88029896E-01 0.20316982E+03</pdfrwt>
<pdfrwt beam="2">  1       21 0.11963693E-01 0.20316982E+03</pdfrwt>
<totfact> 0.64911444E+04</totfact>
</mgrwt>
</event>
<event>
 4    1  0.4510095E+000  0.2000107E+03  0.7546771E-02  0.1149730E+00
         21   -1    0    0  501  502  0.00000000000E+00  0.00000000000E+00  0.80947342167E+03  0.80947342167E+03  0.00000000000E+00 0. -1.
         21   -1    0    0  502  503 -0.00000000000E+00 -0.00000000000E+00 -0.53485235934E+02  0.53485235934E+02  0.00000000000E+00 0. -1.
          6    1    1    2  501    0 -0.76969091980E+02  0.64428602792E+02  0.25904019158E+03  0.32727069351E+03  0.17300000000E+03 0. -1.
         -6    1    1    2    0  503  0.76969091980E+02 -0.64428602792E+02  0.49694799416E+03  0.53568796410E+03  0.17300000000E+03 0. -1.
<mgrwt>
<rscale>  2 0.20001071E+03</rscale>
<asrwt>0</asrwt>
<pdfrwt beam="1">  1       21 0.12453436E+00 0.20001071E+03</pdfrwt>
<pdfrwt beam="2">  1       21 0.82284984E-02 0.20001071E+03</pdfrwt>
<totfact> 0.54801590E+04</totfact>
</mgrwt>
</event>
<event>
 4    1  0.4510095E+000  0.1730174E+03  0.7546771E-02  0.1174737E+00
         21   -1    0    0  503  502  0.00000000000E+00  0.00000000000E+00  0.60268567019E+03  0.60268567019E+03  0.00000000000E+00 0. -1.
         21   -1    0    0  501  503 -0.00000000000E+00 -0.00000000000E+00 -0.11948911398E+03  0.11948911398E+03  0.00000000000E+00 0. -1.
          6    1    1    2  501    0  0.22078543350E+01 -0.10765530955E+01 -0.34419590175E+02  0.17640788467E+03  0.17300000000E+03 0. -1.
         -6    1    1    2    0  502 -0.22078543350E+01  0.10765530955E+01  0.51761614638E+03  0.54576689949E+03  0.17300000000E+03 0. -1.
<mgrwt>
<rscale>  2 0.17301744E+03</rscale>
<asrwt>0</asrwt>
<pdfrwt beam="1">  1       21 0.92720870E-01 0.17301744E+03</pdfrwt>
<pdfrwt beam="2">  1       21 0.18382941E-01 0.17301744E+03</pdfrwt>
<totfact> 0.26778800E+04</totfact>
</mgrwt>
</event>
<event>
 4    1  0.4510095E+000  0.1980959E+03  0.7546771E-02  0.1151356E+00
         21   -1    0    0  503  502  0.00000000000E+00  0.00000000000E+00  0.31496031893E+03  0.31496031893E+03  0.00000000000E+00 0. -1.
         21   -1    0    0  501  503 -0.00000000000E+00 -0.00000000000E+00 -0.12783569512E+03  0.12783569512E+03  0.00000000000E+00 0.  1.
          6    1    1    2  501    0 -0.11427575040E+02  0.95824817012E+02  0.58303132271E+02  0.20649755509E+03  0.17300000000E+03 0.  1.
         -6    1    1    2    0  502  0.11427575040E+02 -0.95824817012E+02  0.12882149154E+03  0.23629845896E+03  0.17300000000E+03 0. -1.
<mgrwt>
<rscale>  2 0.19809590E+03</rscale>
<asrwt>0</asrwt>
<pdfrwt beam="1">  1       21 0.48455434E-01 0.19809590E+03</pdfrwt>
<pdfrwt beam="2">  1       21 0.19667030E-01 0.19809590E+03</pdfrwt>
<totfact> 0.96663851E+04</totfact>
</mgrwt>
</event>
<event>
 4    1  0.4510095E+000  0.3030079E+03  0.7546771E-02  0.1083747E+00
         21   -1    0    0  503  502  0.00000000000E+00  0.00000000000E+00  0.11222786321E+03  0.11222786321E+03  0.00000000000E+00 0.  1.
         21   -1    0    0  501  503 -0.00000000000E+00 -0.00000000000E+00 -0.86156494845E+03  0.86156494845E+03  0.00000000000E+00 0. -1.
          6    1    1    2  501    0 -0.15034437821E+03 -0.19819517535E+03 -0.48402783737E+03  0.57104877807E+03  0.17300000000E+03 0.  1.
         -6    1    1    2    0  502  0.15034437821E+03  0.19819517535E+03 -0.26530924787E+03  0.40274403359E+03  0.17300000000E+03 0. -1.
<mgrwt>
<rscale>  2 0.30300785E+03</rscale>
<asrwt>0</asrwt>
<pdfrwt beam="1">  1       21 0.17265825E-01 0.30300785E+03</pdfrwt>
<pdfrwt beam="2">  1       21 0.13254846E+00 0.30300785E+03</pdfrwt>
<totfact> 0.11701898E+04</totfact>
</mgrwt>
</event>
<event>
 4    1  0.4510095E+000  0.2029559E+03  0.7546771E-02  0.1147269E+00
         21   -1    0    0  501  502  0.00000000000E+00  0.00000000000E+00  0.42548632783E+03  0.42548632783E+03  0.00000000000E+00 0. -1.
         21   -1    0    0  502  503 -0.00000000000E+00 -0.00000000000E+00 -0.14551374247E+03  0.14551374247E+03  0.00000000000E+00 0.  1.
          6    1    1    2  501    0  0.94142042432E+02  0.48983216764E+02  0.30515887767E+03  0.36648740810E+03  0.17300000000E+03 0. -1.
         -6    1    1    2    0  503 -0.94142042432E+02 -0.48983216764E+02 -0.25186292312E+02  0.20451266220E+03  0.17300000000E+03 0.  1.
<mgrwt>
<rscale>  2 0.20295586E+03</rscale>
<asrwt>0</asrwt>
<pdfrwt beam="1">  1       21 0.65459435E-01 0.20295586E+03</pdfrwt>
<pdfrwt beam="2">  1       21 0.22386730E-01 0.20295586E+03</pdfrwt>
<totfact> 0.39876408E+04</totfact>
</mgrwt>
</event>
<event>
 4    1  0.4510095E+000  0.2174577E+03  0.7546771E-02  0.1135793E+00
         21   -1    0    0  501  502  0.00000000000E+00  0.00000000000E+00  0.62820854394E+03  0.62820854394E+03  0.00000000000E+00 0.  1.
         21   -1    0    0  502  503 -0.00000000000E+00 -0.00000000000E+00 -0.23340996451E+03  0.23340996451E+03  0.00000000000E+00 0. -1.
          6    1    1    2  501    0 -0.11422755113E+03  0.65657651037E+02  0.55200069739E+03  0.59328966828E+03  0.17300000000E+03 0.  1.
         -6    1    1    2    0  503  0.11422755113E+03 -0.65657651037E+02 -0.15720211795E+03  0.26832884017E+03  0.17300000000E+03 0. -1.
<mgrwt>
<rscale>  2 0.21745772E+03</rscale>
<asrwt>0</asrwt>
<pdfrwt beam="1">  1       21 0.96647468E-01 0.21745772E+03</pdfrwt>
<pdfrwt beam="2">  1       21 0.35909226E-01 0.21745772E+03</pdfrwt>
<totfact> 0.65335672E+03</totfact>
</mgrwt>
</event>
<event>
 4    1  0.4510095E+000  0.3364261E+03  0.7546771E-02  0.1068328E+00
         21   -1    0    0  501  502  0.00000000000E+00  0.00000000000E+00  0.79962883745E+03  0.79962883745E+03  0.00000000000E+00 0. -1.
         21   -1    0    0  502  503 -0.00000000000E+00 -0.00000000000E+00 -0.14232560577E+03  0.14232560577E+03  0.00000000000E+00 0.  1.
          6    1    1    2  501    0  0.16952716187E+03  0.23348240204E+03  0.29374461526E+03  0.44661884159E+03  0.17300000000E+03 0.  1.
         -6    1    1    2    0  503 -0.16952716187E+03 -0.23348240204E+03  0.36355861641E+03  0.49533560163E+03  0.17300000000E+03 0. -1.
<mgrwt>
<rscale>  2 0.33642606E+03</rscale>
<asrwt>0</asrwt>
<pdfrwt beam="1">  1       21 0.12301982E+00 0.33642606E+03</pdfrwt>
<pdfrwt beam="2">  1       21 0.21896248E-01 0.33642606E+03</pdfrwt>
<totfact> 0.89151076E+03</totfact>
</mgrwt>
</event>
<event>
 4    1  0.4510095E+000  0.2149163E+03  0.7546771E-02  0.1137731E+00
         21   -1    0    0  503  502  0.00000000000E+00  0.00000000000E+00  0.12507288852E+03  0.12507288852E+03  0.00000000000E+00 0. -1.
         21   -1    0    0  501  503 -0.00000000000E+00 -0.00000000000E+00 -0.38058323441E+03  0.38058323441E+03  0.00000000000E+00 0.  1.
          6    1    1    2  501    0 -0.10935652579E+03 -0.65583417075E+02 -0.17129395142E+03  0.27482840486E+03  0.17300000000E+03 0.  1.
         -6    1    1    2    0  502  0.10935652579E+03  0.65583417075E+02 -0.84216394476E+02  0.23082771806E+03  0.17300000000E+03 0. -1.
<mgrwt>
<rscale>  2 0.21491634E+03</rscale>
<asrwt>0</asrwt>
<pdfrwt beam="1">  1       21 0.19241983E-01 0.21491634E+03</pdfrwt>
<pdfrwt beam="2">  1       21 0.58551266E-01 0.21491634E+03</pdfrwt>
<totfact> 0.67066402E+04</totfact>
</mgrwt>
</event>
<event>
 4    1  0.4510095E+000  0.1835583E+03  0.7546771E-02  0.1164403E+00
         21   -1    0    0  503  502  0.00000000000E+00  0.00000000000E+00  0.22417735780E+03  0.22417735780E+03  0.00000000000E+00 0.  1.
         21   -1    0    0  501  503 -0.00000000000E+00 -0.00000000000E+00 -0.43672149813E+03  0.43672149813E+03  0.00000000000E+00 0.  1.
          6    1    1    2  501    0 -0.31245900025E+02 -0.52804746865E+02 -0.37388447007E+03  0.41651319849E+03  0.17300000000E+03 0.  1.
         -6    1    1    2    0  502  0.31245900025E+02  0.52804746865E+02  0.16134032974E+03  0.24438565744E+03  0.17300000000E+03 0.  1.
<mgrwt>
<rscale>  2 0.18355829E+03</rscale>
<asrwt>0</asrwt>
<pdfrwt beam="1">  1       21 0.34488825E-01 0.18355829E+03</pdfrwt>
<pdfrwt beam="2">  1       21 0.67187922E-01 0.18355829E+03</pdfrwt>
<totfact> 0.16521246E+04</totfact>
</mgrwt>
</event>
<event>
 4    1  0.4510095E+000  0.2490718E+03  0.7546771E-02  0.1113893E+00
         21   -1    0    0  501  502  0.00000000000E+00  0.00000000000E+00  0.10915058398E+03  0.10915058398E+03  0.00000000000E+00 0.  1.
         21   -1    0    0  502  503 -0.00000000000E+00 -0.00000000000E+00 -0.57881271372E+03  0.57881271372E+03  0.00000000000E+00 0. -1.
          6    1    1    2  501    0 -0.17185721654E+03  0.50723524187E+02 -0.18860470025E+03  0.31242360945E+03  0.17300000000E+03 0.  1.
         -6    1    1    2    0  503  0.17185721654E+03 -0.50723524187E+02 -0.28105742949E+03  0.37553968825E+03  0.17300000000E+03 0. -1.
<mgrwt>
<rscale>  2 0.24907183E+03</rscale>
<asrwt>0</asrwt>
<pdfrwt beam="1">  1       21 0.16792397E-01 0.24907183E+03</pdfrwt>
<pdfrwt beam="2">  1       21 0.89048111E-01 0.24907183E+03</pdfrwt>
<totfact> 0.33395666E+04</totfact>
</mgrwt>
</event>
<event>
 4    1  0.4510095E+000  0.1751501E+03  0.7546771E-02  0.1172581E+00
         21   -1    0    0  503  502  0.00000000000E+00  0.00000000000E+00  0.32482100877E+02  0.32482100877E+02  0.00000000000E+00 0. -1.
         21   -1    0    0  501  503 -0.00000000000E+00 -0.00000000000E+00 -0.11335273869E+04  0.11335273869E+04  0.00000000000E+00 0. -1.
          6    1    1    2  501    0  0.43439838669E+00  0.27356169764E+02 -0.78863500187E+03  0.80785067611E+03  0.17300000000E+03 0.  1.
         -6    1    1    2    0  502 -0.43439838669E+00 -0.27356169764E+02 -0.31241028415E+03  0.35815881166E+03  0.17300000000E+03 0.  1.
<mgrwt>
<rscale>  2 0.17515007E+03</rscale>
<asrwt>0</asrwt>
<pdfrwt beam="1">  1       21 0.49972457E-02 0.17515007E+03</pdfrwt>
<pdfrwt beam="2">  1       21 0.17438885E+00 0.17515007E+03</pdfrwt>
<totfact> 0.54106918E+04</totfact>
</mgrwt>
</event>
<event>
 4    1  0.4510095E+000  0.2041911E+03  0.7546771E-02  0.1146250E+00
         21   -1    0    0  501  502  0.00000000000E+00  0.00000000000E+00  0.35129440888E+03  0.35129440888E+03  0.00000000000E+00 0. -1.
         21   -1    0    0  502  503 -0.00000000000E+00 -0.00000000000E+00 -0.29013531661E+03  0.29013531661E+03  0.00000000000E+00 0. -1.
          6    1    1    2  501    0 -0.46635393595E+02 -0.97929327020E+02  0.27711855226E+03  0.34422188343E+03  0.17300000000E+03 0. -1.
         -6    1    1    2    0  503  0.46635393595E+02  0.97929327020E+02 -0.21595945999E+03  0.29720784207E+03  0.17300000000E+03 0. -1.
<mgrwt>
<rscale>  2 0.20419112E+03</rscale>
<asrwt>0</asrwt>
<pdfrwt beam="1">  1       21 0.54045294E-01 0.20419112E+03</pdfrwt>
<pdfrwt beam="2">  1       21 0.44636203E-01 0.20419112E+03</pdfrwt>
<totfact> 0.15482060E+04</totfact>
</mgrwt>
</event>
<event>
 4    1  0.4510095E+000  0.2407620E+03  0.7546771E-02  0.1119286E+00
         21   -1    0    0  503  502  0.00000000000E+00  0.00000000000E+00  0.30209017541E+03  0.30209017541E+03  0.00000000000E+00 0.  1.
         21   -1    0    0  501  503 -0.00000000000E+00 -0.00000000000E+00 -0.20427468049E+03  0.20427468049E+03  0.00000000000E+00 0.  1.
          6    1    1    2  501    0  0.16730040484E+03 -0.69206373200E+01 -0.13447211825E+02  0.24113719785E+03  0.17300000000E+03 0.  1.
         -6    1    1    2    0  502 -0.16730040484E+03  0.69206373200E+01  0.11126270675E+03  0.26522765805E+03  0.17300000000E+03 0.  1.
<mgrwt>
<rscale>  2 0.24076196E+03</rscale>
<asrwt>0</asrwt>
<pdfrwt beam="1">  1       21 0.46475412E-01 0.24076196E+03</pdfrwt>
<pdfrwt beam="2">  1       21 0.31426874E-01 0.24076196E+03</pdfrwt>
<totfact> 0.42181104E+04</totfact>
</mgrwt>
</event>
<event>
 4    1  0.4510095E+000  0.1859737E+03  0.7546771E-02  0.1162144E+00
         21   -1    0    0  503  502  0.00000000000E+00  0.00000000000E+00  0.80486050923E+03  0.80486050923E+03  0.00000000000E+00 0. -1.
         21   -1    0    0  501  503 -0.00000000000E+00 -0.00000000000E+00 -0.48179211284E+02  0.48179211284E+02  0.00000000000E+00 0. -1.
          6    1    1    2  501    0 -0.56711253211E+02 -0.37961355555E+02  0.23811605446E+03  0.30213488072E+03  0.17300000000E+03 0. -1.
         -6    1    1    2    0  502  0.56711253211E+02  0.37961355555E+02  0.51856524349E+03  0.55090483980E+03  0.17300000000E+03 0. -1.
<mgrwt>
<rscale>  2 0.18597374E+03</rscale>
<asrwt>0</asrwt>
<pdfrwt beam="1">  1       21 0.12382468E+00 0.18597374E+03</pdfrwt>
<pdfrwt beam="2">  1       21 0.74121869E-02 0.18597374E+03</pdfrwt>
<totfact> 0.67136155E+04</totfact>
</mgrwt>
</event>
<event>
 4    1  0.4510095E+000  0.1744751E+03  0.7546771E-02  0.1173260E+00
         21   -1    0    0  501  502  0.00000000000E+00  0.00000000000E+00  0.53263608361E+03  0.53263608361E+03  0.00000000000E+00 0. -1.
         21   -1    0    0  502  503 -0.00000000000E+00 -0.00000000000E+00 -0.10848287299E+03  0.10848287299E+03  0.00000000000E+00 0. -1.
          6    1    1    2  501    0  0.22574849452E+02 -0.17105542333E+01  0.43257971516E+03  0.46644052117E+03  0.17300000000E+03 0. -1.
         -6    1    1    2    0  503 -0.22574849452E+02  0.17105542333E+01 -0.84265045366E+01  0.17467843542E+03  0.17300000000E+03 0. -1.
<mgrwt>
<rscale>  2 0.17447507E+03</rscale>
<asrwt>0</asrwt>
<pdfrwt beam="1">  1       21 0.81944011E-01 0.17447507E+03</pdfrwt>
<pdfrwt beam="2">  1       21 0.16689673E-01 0.17447507E+03</pdfrwt>
<totfact> 0.42428981E+04</totfact>
</mgrwt>
</event>
<event>
 4    1  0.4510095E+000  0.2044740E+03  0.7546771E-02  0.1146018E+00
         21   -1    0    0  501  502  0.00000000000E+00  0.00000000000E+00  0.11405043151E+03  0.11405043151E+03  0.00000000000E+00 0.  1.
         21   -1    0    0  502  503 -0.00000000000E+00 -0.00000000000E+00 -0.37060303690E+03  0.37060303690E+03  0.00000000000E+00 0. -1.
          6    1    1    2  501    0 -0.98372792055E+02 -0.46940699682E+02 -0.15349581231E+03  0.25567674884E+03  0.17300000000E+03 0. -1.
         -6    1    1    2    0  503  0.98372792055E+02  0.46940699682E+02 -0.10305679308E+03  0.22897671957E+03  0.17300000000E+03 0. -1.
<mgrwt>
<rscale>  2 0.20447405E+03</rscale>
<asrwt>0</asrwt>
<pdfrwt beam="1">  1       21 0.17546221E-01 0.20447405E+03</pdfrwt>
<pdfrwt beam="2">  1       21 0.57015851E-01 0.20447405E+03</pdfrwt>
<totfact> 0.84623499E+04</totfact>
</mgrwt>
</event>
<event>
 4    1  0.4510095E+000  0.3124769E+03  0.7546771E-02  0.1079165E+00
         21   -1    0    0  503  502  0.00000000000E+00  0.00000000000E+00  0.19004345634E+03  0.19004345634E+03  0.00000000000E+00 0.  1.
         21   -1    0    0  501  503 -0.00000000000E+00 -0.00000000000E+00 -0.86048507071E+03  0.86048507071E+03  0.00000000000E+00 0. -1.
          6    1    1    2  501    0 -0.19871178674E+03 -0.16800717966E+03 -0.66863350071E+03  0.73804643816E+03  0.17300000000E+03 0. -1.
         -6    1    1    2    0  502  0.19871178674E+03  0.16800717966E+03 -0.18081136560E+01  0.31248208890E+03  0.17300000000E+03 0.  1.
<mgrwt>
<rscale>  2 0.31247686E+03</rscale>
<asrwt>0</asrwt>
<pdfrwt beam="1">  1       21 0.29237455E-01 0.31247686E+03</pdfrwt>
<pdfrwt beam="2">  1       21 0.13238232E+00 0.31247686E+03</pdfrwt>
<totfact> 0.42713939E+03</totfact>
</mgrwt>
</event>
<event>
 4    1  0.4510095E+000  0.1757744E+03  0.7546771E-02  0.1171956E+00
         21   -1    0    0  501  502  0.00000000000E+00  0.00000000000E+00  0.10334960922E+04  0.10334960922E+04  0.00000000000E+00 0. -1.
         21   -1    0    0  502  503 -0.00000000000E+00 -0.00000000000E+00 -0.81114909422E+02  0.81114909422E+02  0.00000000000E+00 0. -1.
          6    1    1    2  501    0 -0.75016777855E+00 -0.31097882938E+02  0.91904529253E+03  0.93570342032E+03  0.17300000000E+03 0. -1.
         -6    1    1    2    0  503  0.75016777855E+00  0.31097882938E+02  0.33335890268E+02  0.17890758132E+03  0.17300000000E+03 0. -1.
<mgrwt>
<rscale>  2 0.17577440E+03</rscale>
<asrwt>0</asrwt>
<pdfrwt beam="1">  1       21 0.15899939E+00 0.17577440E+03</pdfrwt>
<pdfrwt beam="2">  1       21 0.12479218E-01 0.17577440E+03</pdfrwt>
<totfact> 0.14180908E+04</totfact>
</mgrwt>
</event>
<event>
 4    1  0.4510095E+000  0.5048587E+03  0.7546771E-02  0.1012518E+00
         21   -1    0    0  503  502  0.00000000000E+00  0.00000000000E+00  0.15250045242E+03  0.15250045242E+03  0.00000000000E+00 0.  1.
         21   -1    0    0  501  503 -0.00000000000E+00 -0.00000000000E+00 -0.17687150124E+04  0.17687150124E+04  0.00000000000E+00 0. -1.
          6    1    1    2  501    0  0.47117222931E+03 -0.54313788199E+02 -0.58273035349E+03  0.77101032558E+03  0.17300000000E+03 0. -1.
         -6    1    1    2    0  502 -0.47117222931E+03  0.54313788199E+02 -0.10334842065E+04  0.11502051392E+04  0.17300000000E+03 0.  1.
<mgrwt>
<rscale>  2 0.50485865E+03</rscale>
<asrwt>0</asrwt>
<pdfrwt beam="1">  1       21 0.23461609E-01 0.50485865E+03</pdfrwt>
<pdfrwt beam="2">  1       21 0.27210999E+00 0.50485865E+03</pdfrwt>
<totfact> 0.66514567E+02</totfact>
</mgrwt>
</event>
<event>
 4    1  0.4510095E+000  0.1864141E+03  0.7546771E-02  0.1161736E+00
         21   -1    0    0  501  502  0.00000000000E+00  0.00000000000E+00  0.15530554755E+03  0.15530554755E+03  0.00000000000E+00 0.  1.
         21   -1    0    0  502  503 -0.00000000000E+00 -0.00000000000E+00 -0.30240745556E+03  0.30240745556E+03  0.00000000000E+00 0.  1.
          6    1    1    2  501    0 -0.11021949570E+02  0.68554492023E+02  0.43164011720E+02  0.19134610959E+03  0.17300000000E+03 0.  1.
         -6    1    1    2    0  503  0.11021949570E+02 -0.68554492023E+02 -0.19026591973E+03  0.26636689351E+03  0.17300000000E+03 0.  1.
<mgrwt>
<rscale>  2 0.18641406E+03</rscale>
<asrwt>0</asrwt>
<pdfrwt beam="1">  1       21 0.23893162E-01 0.18641406E+03</pdfrwt>
<pdfrwt beam="2">  1       21 0.46524223E-01 0.18641406E+03</pdfrwt>
<totfact> 0.73246133E+04</totfact>
</mgrwt>
</event>
<event>
 4    1  0.4510095E+000  0.1932143E+03  0.7546771E-02  0.1155594E+00
         21   -1    0    0  503  502  0.00000000000E+00  0.00000000000E+00  0.11159376456E+03  0.11159376456E+03  0.00000000000E+00 0. -1.
         21   -1    0    0  501  503 -0.00000000000E+00 -0.00000000000E+00 -0.47125320246E+03  0.47125320246E+03  0.00000000000E+00 0. -1.
          6    1    1    2  501    0 -0.84210150455E+02  0.17646751848E+02 -0.33679886559E+03  0.38828498961E+03  0.17300000000E+03 0. -1.
         -6    1    1    2    0  502  0.84210150455E+02 -0.17646751848E+02 -0.22860572308E+02  0.19456197742E+03  0.17300000000E+03 0. -1.
<mgrwt>
<rscale>  2 0.19321428E+03</rscale>
<asrwt>0</asrwt>
<pdfrwt beam="1">  1       21 0.17168271E-01 0.19321428E+03</pdfrwt>
<pdfrwt beam="2">  1       21 0.72500493E-01 0.19321428E+03</pdfrwt>
<totfact> 0.52516067E+04</totfact>
</mgrwt>
</event>
<event>
 4    1  0.4510095E+000  0.1797639E+03  0.7546771E-02  0.1168032E+00
         21   -1    0    0  501  502  0.00000000000E+00  0.00000000000E+00  0.23633311594E+03  0.23633311594E+03  0.00000000000E+00 0. -1.
         21   -1    0    0  502  503 -0.00000000000E+00 -0.00000000000E+00 -0.16684621362E+03  0.16684621362E+03  0.00000000000E+00 0. -1.
          6    1    1    2  501    0  0.47573982340E+02 -0.11081048784E+02  0.12038257921E+03  0.21634934438E+03  0.17300000000E+03 0. -1.
         -6    1    1    2    0  503 -0.47573982340E+02  0.11081048784E+02 -0.50895676890E+02  0.18682998518E+03  0.17300000000E+03 0. -1.
<mgrwt>
<rscale>  2 0.17976394E+03</rscale>
<asrwt>0</asrwt>
<pdfrwt beam="1">  1       21 0.36358941E-01 0.17976394E+03</pdfrwt>
<pdfrwt beam="2">  1       21 0.25668648E-01 0.17976394E+03</pdfrwt>
<totfact> 0.10555899E+05</totfact>
</mgrwt>
</event>
<event>
 4    1  0.4510095E+000  0.2080436E+03  0.7546771E-02  0.1143125E+00
         21   -1    0    0  501  502  0.00000000000E+00  0.00000000000E+00  0.27039105398E+03  0.27039105398E+03  0.00000000000E+00 0. -1.
         21   -1    0    0  502  503 -0.00000000000E+00 -0.00000000000E+00 -0.17038542356E+03  0.17038542356E+03  0.00000000000E+00 0.  1.
          6    1    1    2  501    0  0.11823443628E+02 -0.11494933788E+03 -0.42179030353E+01  0.20808636381E+03  0.17300000000E+03 0.  1.
         -6    1    1    2    0  503 -0.11823443628E+02  0.11494933788E+03  0.10422353345E+03  0.23269011372E+03  0.17300000000E+03 0. -1.
<mgrwt>
<rscale>  2 0.20804361E+03</rscale>
<asrwt>0</asrwt>
<pdfrwt beam="1">  1       21 0.41598624E-01 0.20804361E+03</pdfrwt>
<pdfrwt beam="2">  1       21 0.26213142E-01 0.20804361E+03</pdfrwt>
<totfact> 0.76455434E+04</totfact>
</mgrwt>
</event>
<event>
 4    1  0.4510095E+000  0.2730416E+03  0.7546771E-02  0.1099551E+00
         21   -1    0    0  503  502  0.00000000000E+00  0.00000000000E+00  0.11667291948E+03  0.11667291948E+03  0.00000000000E+00 0.  1.
         21   -1    0    0  501  503 -0.00000000000E+00 -0.00000000000E+00 -0.70930700747E+03  0.70930700747E+03  0.00000000000E+00 0.  1.
          6    1    1    2  501    0 -0.81808235940E+02 -0.19475657550E+03 -0.42635859552E+03  0.50629375182E+03  0.17300000000E+03 0.  1.
         -6    1    1    2    0  502  0.81808235940E+02  0.19475657550E+03 -0.16627549247E+03  0.31968617512E+03  0.17300000000E+03 0.  1.
<mgrwt>
<rscale>  2 0.27304159E+03</rscale>
<asrwt>0</asrwt>
<pdfrwt beam="1">  1       21 0.17949680E-01 0.27304159E+03</pdfrwt>
<pdfrwt beam="2">  1       21 0.10912415E+00 0.27304159E+03</pdfrwt>
<totfact> 0.17971718E+04</totfact>
</mgrwt>
</event>
<event>
 4    1  0.4510095E+000  0.1819112E+03  0.7546771E-02  0.1165966E+00
         21   -1    0    0  503  502  0.00000000000E+00  0.00000000000E+00  0.84855134813E+03  0.84855134813E+03  0.00000000000E+00 0.  1.
         21   -1    0    0  501  503 -0.00000000000E+00 -0.00000000000E+00 -0.86126120434E+02  0.86126120434E+02  0.00000000000E+00 0.  1.
          6    1    1    2  501    0 -0.32744333034E+02 -0.45722099173E+02  0.35508172644E+02  0.18534436065E+03  0.17300000000E+03 0.  1.
         -6    1    1    2    0  502  0.32744333034E+02  0.45722099173E+02  0.72691705506E+03  0.74933310792E+03  0.17300000000E+03 0.  1.
<mgrwt>
<rscale>  2 0.18191125E+03</rscale>
<asrwt>0</asrwt>
<pdfrwt beam="1">  1       21 0.13054636E+00 0.18191125E+03</pdfrwt>
<pdfrwt beam="2">  1       21 0.13250173E-01 0.18191125E+03</pdfrwt>
<totfact> 0.21151497E+04</totfact>
</mgrwt>
</event>
<event>
 4    1  0.4510095E+000  0.1847928E+03  0.7546771E-02  0.1163243E+00
         21   -1    0    0  503  502  0.00000000000E+00  0.00000000000E+00  0.57262668861E+03  0.57262668861E+03  0.00000000000E+00 0.  1.
         21   -1    0    0  501  503 -0.00000000000E+00 -0.00000000000E+00 -0.24458250089E+03  0.24458250089E+03  0.00000000000E+00 0.  1.
          6    1    1    2  501    0 -0.53760149726E+02  0.36458787424E+02 -0.19129425449E+03  0.26597347364E+03  0.17300000000E+03 0.  1.
         -6    1    1    2    0  502  0.53760149726E+02 -0.36458787424E+02  0.51933844221E+03  0.55123571586E+03  0.17300000000E+03 0.  1.
<mgrwt>
<rscale>  2 0.18479285E+03</rscale>
<asrwt>0</asrwt>
<pdfrwt beam="1">  1       21 0.88096413E-01 0.18479285E+03</pdfrwt>
<pdfrwt beam="2">  1       21 0.37628077E-01 0.18479285E+03</pdfrwt>
<totfact> 0.75618708E+03</totfact>
</mgrwt>
</event>
<event>
 4    1  0.4510095E+000  0.1915251E+03  0.7546771E-02  0.1157093E+00
         21   -1    0    0  503  502  0.00000000000E+00  0.00000000000E+00  0.14460625256E+03  0.14460625256E+03  0.00000000000E+00 0. -1.
         21   -1    0    0  501  503 -0.00000000000E+00 -0.00000000000E+00 -0.25409342238E+03  0.25409342238E+03  0.00000000000E+00 0.  1.
          6    1    1    2  501    0  0.72094184089E+02  0.39437104697E+02 -0.62908665905E+02  0.20159205553E+03  0.17300000000E+03 0.  1.
         -6    1    1    2    0  502 -0.72094184089E+02 -0.39437104697E+02 -0.46578503914E+02  0.19710761942E+03  0.17300000000E+03 0. -1.
<mgrwt>
<rscale>  2 0.19152508E+03</rscale>
<asrwt>0</asrwt>
<pdfrwt beam="1">  1       21 0.22247116E-01 0.19152508E+03</pdfrwt>
<pdfrwt beam="2">  1       21 0.39091296E-01 0.19152508E+03</pdfrwt>
<totfact> 0.11930302E+05</totfact>
</mgrwt>
</event>
<event>
 4    1  0.4510095E+000  0.2516922E+03  0.7546771E-02  0.1112240E+00
         21   -1    0    0  501  502  0.00000000000E+00  0.00000000000E+00  0.14997208550E+03  0.14997208550E+03  0.00000000000E+00 0. -1.
         21   -1    0    0  502  503 -0.00000000000E+00 -0.00000000000E+00 -0.46407627130E+03  0.46407627130E+03  0.00000000000E+00 0.  1.
          6    1    1    2  501    0 -0.54175898440E+02  0.17459936764E+03 -0.65050365763E+02  0.25996253045E+03  0.17300000000E+03 0. -1.
         -6    1    1    2    0  503  0.54175898440E+02 -0.17459936764E+03 -0.24905382004E+03  0.35408582635E+03  0.17300000000E+03 0. -1.
<mgrwt>
<rscale>  2 0.25169221E+03</rscale>
<asrwt>0</asrwt>
<pdfrwt beam="1">  1       21 0.23072629E-01 0.25169221E+03</pdfrwt>
<pdfrwt beam="2">  1       21 0.71396349E-01 0.25169221E+03</pdfrwt>
<totfact> 0.30380104E+04</totfact>
</mgrwt>
</event>
<event>
 4    1  0.4510095E+000  0.2035625E+03  0.7546771E-02  0.1146768E+00
         21   -1    0    0  503  502  0.00000000000E+00  0.00000000000E+00  0.48185870447E+03  0.48185870447E+03  0.00000000000E+00 0.  1.
         21   -1    0    0  501  503 -0.00000000000E+00 -0.00000000000E+00 -0.14987845328E+03  0.14987845328E+03  0.00000000000E+00 0. -1.
          6    1    1    2  501    0  0.78971361152E+02  0.72610012394E+02 -0.40229146857E+02  0.20749957600E+03  0.17300000000E+03 0. -1.
         -6    1    1    2    0  502 -0.78971361152E+02 -0.72610012394E+02  0.37220939805E+03  0.42423758176E+03  0.17300000000E+03 0.  1.
<mgrwt>
<rscale>  2 0.20356250E+03</rscale>
<asrwt>0</asrwt>
<pdfrwt beam="1">  1       21 0.74132108E-01 0.20356250E+03</pdfrwt>
<pdfrwt beam="2">  1       21 0.23058224E-01 0.20356250E+03</pdfrwt>
<totfact> 0.28645961E+04</totfact>
</mgrwt>
</event>
<event>
 4    1  0.4510095E+000  0.1733601E+03  0.7546771E-02  0.1174388E+00
         21   -1    0    0  501  502  0.00000000000E+00  0.00000000000E+00  0.18584787713E+03  0.18584787713E+03  0.00000000000E+00 0. -1.
         21   -1    0    0  502  503 -0.00000000000E+00 -0.00000000000E+00 -0.27764387455E+03  0.27764387455E+03  0.00000000000E+00 0. -1.
          6    1    1    2  501    0 -0.64979611559E+01  0.90829195190E+01  0.10385326412E+03  0.20208716781E+03  0.17300000000E+03 0.  1.
         -6    1    1    2    0  503  0.64979611559E+01 -0.90829195190E+01 -0.19564926154E+03  0.26140458386E+03  0.17300000000E+03 0.  1.
<mgrwt>
<rscale>  2 0.17336010E+03</rscale>
<asrwt>0</asrwt>
<pdfrwt beam="1">  1       21 0.28591981E-01 0.17336010E+03</pdfrwt>
<pdfrwt beam="2">  1       21 0.42714442E-01 0.17336010E+03</pdfrwt>
<totfact> 0.62215592E+04</totfact>
</mgrwt>
</event>
<event>
 4    1  0.4510095E+000  0.2013372E+03  0.7546771E-02  0.1148616E+00
         21   -1    0    0  503  502  0.00000000000E+00  0.00000000000E+00  0.64410034606E+02  0.64410034606E+02  0.00000000000E+00 0.  1.
         21   -1    0    0  501  503 -0.00000000000E+00 -0.00000000000E+00 -0.11622390117E+04  0.11622390117E+04  0.00000000000E+00 0.  1.
          6    1    1    2  501    0  0.47845293695E+01 -0.10288230897E+03 -0.96421234077E+03  0.98500867982E+03  0.17300000000E+03 0.  1.
         -6    1    1    2    0  502 -0.47845293695E+01  0.10288230897E+03 -0.13361663635E+03  0.24164036652E+03  0.17300000000E+03 0.  1.
<mgrwt>
<rscale>  2 0.20133718E+03</rscale>
<asrwt>0</asrwt>
<pdfrwt beam="1">  1       21 0.99092360E-02 0.20133718E+03</pdfrwt>
<pdfrwt beam="2">  1       21 0.17880600E+00 0.20133718E+03</pdfrwt>
<totfact> 0.15189318E+04</totfact>
</mgrwt>
</event>
<event>
 4    1  0.4510095E+000  0.2490917E+03  0.7546771E-02  0.1113880E+00
         21   -1    0    0  501  502  0.00000000000E+00  0.00000000000E+00  0.10699767532E+04  0.10699767532E+04  0.00000000000E+00 0. -1.
         21   -1    0    0  502  503 -0.00000000000E+00 -0.00000000000E+00 -0.16565639539E+03  0.16565639539E+03  0.00000000000E+00 0. -1.
          6    1    1    2  501    0  0.11861176633E+03  0.13434627335E+03  0.95023885642E+03  0.98234441849E+03  0.17300000000E+03 0. -1.
         -6    1    1    2    0  503 -0.11861176633E+03 -0.13434627335E+03 -0.45918498621E+02  0.25328873009E+03  0.17300000000E+03 0. -1.
<mgrwt>
<rscale>  2 0.24909169E+03</rscale>
<asrwt>0</asrwt>
<pdfrwt beam="1">  1       21 0.16461180E+00 0.24909169E+03</pdfrwt>
<pdfrwt beam="2">  1       21 0.25485600E-01 0.24909169E+03</pdfrwt>
<totfact> 0.32479567E+03</totfact>
</mgrwt>
</event>
<event>
 4    1  0.4510095E+000  0.2000321E+03  0.7546771E-02  0.1149712E+00
         21   -1    0    0  501  502  0.00000000000E+00  0.00000000000E+00  0.10829875619E+03  0.10829875619E+03  0.00000000000E+00 0. -1.
         21   -1    0    0  502  503 -0.00000000000E+00 -0.00000000000E+00 -0.38615029062E+03  0.38615029062E+03  0.00000000000E+00 0. -1.
          6    1    1    2  501    0 -0.10028331776E+03  0.52040835994E+01 -0.87538792461E+02  0.21834803982E+03  0.17300000000E+03 0. -1.
         -6    1    1    2    0  503  0.10028331776E+03 -0.52040835994E+01 -0.19031274196E+03  0.27610100699E+03  0.17300000000E+03 0. -1.
<mgrwt>
<rscale>  2 0.20003206E+03</rscale>
<asrwt>0</asrwt>
<pdfrwt beam="1">  1       21 0.16661347E-01 0.20003206E+03</pdfrwt>
<pdfrwt beam="2">  1       21 0.59407737E-01 0.20003206E+03</pdfrwt>
<totfact> 0.85418606E+04</totfact>
</mgrwt>
</event>
<event>
 4    1  0.4510095E+000  0.1922295E+03  0.7546771E-02  0.1156466E+00
         21   -1    0    0  503  502  0.00000000000E+00  0.00000000000E+00  0.19150573109E+03  0.19150573109E+03  0.00000000000E+00 0.  1.
         21   -1    0    0  501  503 -0.00000000000E+00 -0.00000000000E+00 -0.38661535527E+03  0.38661535527E+03  0.00000000000E+00 0.  1.
          6    1    1    2  501    0  0.75487368757E+02  0.36398175429E+02 -0.30213735070E+03  0.35810494091E+03  0.17300000000E+03 0.  1.
         -6    1    1    2    0  502 -0.75487368757E+02 -0.36398175429E+02  0.10702772652E+03  0.22001614545E+03  0.17300000000E+03 0.  1.
<mgrwt>
<rscale>  2 0.19222947E+03</rscale>
<asrwt>0</asrwt>
<pdfrwt beam="1">  1       21 0.29462421E-01 0.19222947E+03</pdfrwt>
<pdfrwt beam="2">  1       21 0.59479285E-01 0.19222947E+03</pdfrwt>
<totfact> 0.29150085E+04</totfact>
</mgrwt>
</event>
<event>
 4    1  0.4510095E+000  0.3256122E+03  0.7546771E-02  0.1073095E+00
         21   -1    0    0  503  502  0.00000000000E+00  0.00000000000E+00  0.20167605137E+04  0.20167605137E+04  0.00000000000E+00 0. -1.
         21   -1    0    0  501  503 -0.00000000000E+00 -0.00000000000E+00 -0.84989543250E+02  0.84989543250E+02  0.00000000000E+00 0. -1.
          6    1    1    2  501    0  0.11229298906E+03  0.25196153697E+03  0.31685610057E+03  0.45433591095E+03  0.17300000000E+03 0. -1.
         -6    1    1    2    0  502 -0.11229298906E+03 -0.25196153697E+03  0.16149148699E+04  0.16474141460E+04  0.17300000000E+03 0. -1.
<mgrwt>
<rscale>  2 0.32561224E+03</rscale>
<asrwt>0</asrwt>
<pdfrwt beam="1">  1       21 0.31027081E+00 0.32561224E+03</pdfrwt>
<pdfrwt beam="2">  1       21 0.13075316E-01 0.32561224E+03</pdfrwt>
<totfact> 0.13103219E+03</totfact>
</mgrwt>
</event>
<event>
 4    1  0.4510095E+000  0.1835784E+03  0.7546771E-02  0.1164384E+00
         21   -1    0    0  501  502  0.00000000000E+00  0.00000000000E+00  0.11345234926E+04  0.11345234926E+04  0.00000000000E+00 0.  1.
         21   -1    0    0  502  503 -0.00000000000E+00 -0.00000000000E+00 -0.42421487787E+02  0.42421487787E+02  0.00000000000E+00 0.  1.
          6    1    1    2  501    0 -0.59902332404E+02 -0.13555554735E+02  0.86824427895E+03  0.88743967142E+03  0.17300000000E+03 0.  1.
         -6    1    1    2    0  503  0.59902332404E+02  0.13555554735E+02  0.22385772589E+03  0.28950530899E+03  0.17300000000E+03 0.  1.
<mgrwt>
<rscale>  2 0.18357844E+03</rscale>
<asrwt>0</asrwt>
<pdfrwt beam="1">  1       21 0.17454205E+00 0.18357844E+03</pdfrwt>
<pdfrwt beam="2">  1       21 0.65263836E-02 0.18357844E+03</pdfrwt>
<totfact> 0.34057921E+04</totfact>
</mgrwt>
</event>
<event>
 4    1  0.4510095E+000  0.2203921E+03  0.7546771E-02  0.1133591E+00
         21   -1    0    0  501  502  0.00000000000E+00  0.00000000000E+00  0.11091872373E+03  0.11091872373E+03  0.00000000000E+00 0.  1.
         21   -1    0    0  502  503 -0.00000000000E+00 -0.00000000000E+00 -0.52385199090E+03  0.52385199090E+03  0.00000000000E+00 0. -1.
          6    1    1    2  501    0 -0.21585457128E+02 -0.13482481636E+03 -0.77914373400E+02  0.23375909105E+03  0.17300000000E+03 0.  1.
         -6    1    1    2    0  503  0.21585457128E+02  0.13482481636E+03 -0.33501889377E+03  0.40101162358E+03  0.17300000000E+03 0. -1.
<mgrwt>
<rscale>  2 0.22039207E+03</rscale>
<asrwt>0</asrwt>
<pdfrwt beam="1">  1       21 0.17064419E-01 0.22039207E+03</pdfrwt>
<pdfrwt beam="2">  1       21 0.80592615E-01 0.22039207E+03</pdfrwt>
<totfact> 0.41318940E+04</totfact>
</mgrwt>
</event>
<event>
 4    1  0.4510095E+000  0.1744059E+03  0.7546771E-02  0.1173330E+00
         21   -1    0    0  501  502  0.00000000000E+00  0.00000000000E+00  0.25716982999E+04  0.25716982999E+04  0.00000000000E+00 0.  1.
         21   -1    0    0  502  503 -0.00000000000E+00 -0.00000000000E+00 -0.21461038223E+02  0.21461038223E+02  0.00000000000E+00 0.  1.
          6    1    1    2  501    0 -0.22025097407E+02  0.18239565975E+01  0.21438007505E+04  0.21508833278E+04  0.17300000000E+03 0.  1.
         -6    1    1    2    0  503  0.22025097407E+02 -0.18239565975E+01  0.40643651114E+03  0.44227601034E+03  0.17300000000E+03 0.  1.
<mgrwt>
<rscale>  2 0.17440594E+03</rscale>
<asrwt>0</asrwt>
<pdfrwt beam="1">  1       21 0.39564565E+00 0.17440594E+03</pdfrwt>
<pdfrwt beam="2">  1       21 0.33017002E-02 0.17440594E+03</pdfrwt>
<totfact> 0.51366621E+03</totfact>
</mgrwt>
</event>
<event>
 4    1  0.4510095E+000  0.1943104E+03  0.7546771E-02  0.1154630E+00
         21   -1    0    0  503  502  0.00000000000E+00  0.00000000000E+00  0.42345968521E+02  0.42345968521E+02  0.00000000000E+00 0. -1.
         21   -1    0    0  501  503 -0.00000000000E+00 -0.00000000000E+00 -0.11188716367E+04  0.11188716367E+04  0.00000000000E+00 0.  1.
          6    1    1    2  501    0  0.41843051825E+01 -0.88374364550E+02 -0.79992832215E+03  0.82319004932E+03  0.17300000000E+03 0.  1.
         -6    1    1    2    0  502 -0.41843051825E+01  0.88374364550E+02 -0.27659734604E+03  0.33802755591E+03  0.17300000000E+03 0. -1.
<mgrwt>
<rscale>  2 0.19431041E+03</rscale>
<asrwt>0</asrwt>
<pdfrwt beam="1">  1       21 0.65147642E-02 0.19431041E+03</pdfrwt>
<pdfrwt beam="2">  1       21 0.17213410E+00 0.19431041E+03</pdfrwt>
<totfact> 0.35259775E+04</totfact>
</mgrwt>
</event>
<event>
 4    1  0.4510095E+000  0.1782433E+03  0.7546771E-02  0.1169514E+00
         21   -1    0    0  503  502  0.00000000000E+00  0.00000000000E+00  0.42675749610E+03  0.42675749610E+03  0.00000000000E+00 0. -1.
         21   -1    0    0  501  503 -0.00000000000E+00 -0.00000000000E+00 -0.11836785384E+03  0.11836785384E+03  0.00000000000E+00 0. -1.
          6    1    1    2  501    0  0.26881071557E+02 -0.33452611859E+02 -0.11835181764E+02  0.17863577686E+03  0.17300000000E+03 0. -1.
         -6    1    1    2    0  502 -0.26881071557E+02  0.33452611859E+02  0.32022482403E+03  0.36648957307E+03  0.17300000000E+03 0. -1.
<mgrwt>
<rscale>  2 0.17824329E+03</rscale>
<asrwt>0</asrwt>
<pdfrwt beam="1">  1       21 0.65654999E-01 0.17824329E+03</pdfrwt>
<pdfrwt beam="2">  1       21 0.18210439E-01 0.17824329E+03</pdfrwt>
<totfact> 0.58981816E+04</totfact>
</mgrwt>
</event>
<event>
 4    1  0.4510095E+000  0.1757129E+03  0.7546771E-02  0.1172018E+00
         21   -1    0    0  501  502  0.00000000000E+00  0.00000000000E+00  0.83327808275E+03  0.83327808275E+03  0.00000000000E+00 0. -1.
         21   -1    0    0  502  503 -0.00000000000E+00 -0.00000000000E+00 -0.51149114249E+02  0.51149114249E+02  0.00000000000E+00 0. -1.
          6    1    1    2  501    0 -0.25518325573E+02 -0.17171261312E+02  0.62321541227E+03  0.64751253830E+03  0.17300000000E+03 0.  1.
         -6    1    1    2    0  503  0.25518325573E+02  0.17171261312E+02  0.15891355623E+03  0.23691465870E+03  0.17300000000E+03 0.  1.
<mgrwt>
<rscale>  2 0.17571294E+03</rscale>
<asrwt>0</asrwt>
<pdfrwt beam="1">  1       21 0.12819662E+00 0.17571294E+03</pdfrwt>
<pdfrwt beam="2">  1       21 0.78690951E-02 0.17571294E+03</pdfrwt>
<totfact> 0.55784128E+04</totfact>
</mgrwt>
</event>
<event>
 4    1  0.4510095E+000  0.1823180E+03  0.7546771E-02  0.1165578E+00
         21   -1    0    0  501  502  0.00000000000E+00  0.00000000000E+00  0.15268215615E+03  0.15268215615E+03  0.00000000000E+00 0. -1.
         21   -1    0    0  502  503 -0.00000000000E+00 -0.00000000000E+00 -0.22100541499E+03  0.22100541499E+03  0.00000000000E+00 0.  1.
          6    1    1    2  501    0  0.54610123703E+02  0.18126820341E+02 -0.56990507920E+02  0.19101770918E+03  0.17300000000E+03 0.  1.
         -6    1    1    2    0  503 -0.54610123703E+02 -0.18126820341E+02 -0.11332750919E+02  0.18266986196E+03  0.17300000000E+03 0. -1.
<mgrwt>
<rscale>  2 0.18231798E+03</rscale>
<asrwt>0</asrwt>
<pdfrwt beam="1">  1       21 0.23489562E-01 0.18231798E+03</pdfrwt>
<pdfrwt beam="2">  1       21 0.34000833E-01 0.18231798E+03</pdfrwt>
<totfact> 0.14261215E+05</totfact>
</mgrwt>
</event>
<event>
 4    1  0.4510095E+000  0.2324820E+03  0.7546771E-02  0.1124905E+00
         21   -1    0    0  501  502  0.00000000000E+00  0.00000000000E+00  0.39421395378E+02  0.39421395378E+02  0.00000000000E+00 0.  1.
         21   -1    0    0  502  503 -0.00000000000E+00 -0.00000000000E+00 -0.17032225397E+04  0.17032225397E+04  0.00000000000E+00 0. -1.
          6    1    1    2  501    0 -0.92005633874E+02 -0.12511539592E+03 -0.12167033343E+04  0.12387150207E+04  0.17300000000E+03 0. -1.
         -6    1    1    2    0  503  0.92005633874E+02  0.12511539592E+03 -0.44709781004E+03  0.50392891433E+03  0.17300000000E+03 0.  1.
<mgrwt>
<rscale>  2 0.23248204E+03</rscale>
<asrwt>0</asrwt>
<pdfrwt beam="1">  1       21 0.60648284E-02 0.23248204E+03</pdfrwt>
<pdfrwt beam="2">  1       21 0.26203431E+00 0.23248204E+03</pdfrwt>
<totfact> 0.10556275E+04</totfact>
</mgrwt>
</event>
<event>
 4    1  0.4510095E+000  0.1763942E+03  0.7546771E-02  0.1171339E+00
         21   -1    0    0  503  502  0.00000000000E+00  0.00000000000E+00  0.16545733351E+03  0.16545733351E+03  0.00000000000E+00 0. -1.
         21   -1    0    0  501  503 -0.00000000000E+00 -0.00000000000E+00 -0.18854693975E+03  0.18854693975E+03  0.00000000000E+00 0. -1.
          6    1    1    2  501    0  0.86300765499E+01 -0.33338095473E+02 -0.24940824108E+01  0.17641181162E+03  0.17300000000E+03 0. -1.
         -6    1    1    2    0  502 -0.86300765499E+01  0.33338095473E+02 -0.20595523837E+02  0.17759246164E+03  0.17300000000E+03 0. -1.
<mgrwt>
<rscale>  2 0.17639418E+03</rscale>
<asrwt>0</asrwt>
<pdfrwt beam="1">  1       21 0.25454974E-01 0.17639418E+03</pdfrwt>
<pdfrwt beam="2">  1       21 0.29007222E-01 0.17639418E+03</pdfrwt>
<totfact> 0.16732370E+05</totfact>
</mgrwt>
</event>
<event>
 4    1  0.4510095E+000  0.2006507E+03  0.7546771E-02  0.1149191E+00
         21   -1    0    0  503  502  0.00000000000E+00  0.00000000000E+00  0.83805906344E+02  0.83805906344E+02  0.00000000000E+00 0.  1.
         21   -1    0    0  501  503 -0.00000000000E+00 -0.00000000000E+00 -0.48044486464E+03  0.48044486464E+03  0.00000000000E+00 0.  1.
          6    1    1    2  501    0 -0.93628984828E+02 -0.39564020864E+02 -0.19571980556E+03  0.28029795011E+03  0.17300000000E+03 0. -1.
         -6    1    1    2    0  502  0.93628984828E+02  0.39564020864E+02 -0.20091915274E+03  0.28395282087E+03  0.17300000000E+03 0. -1.
<mgrwt>
<rscale>  2 0.20065069E+03</rscale>
<asrwt>0</asrwt>
<pdfrwt beam="1">  1       21 0.12893216E-01 0.20065069E+03</pdfrwt>
<pdfrwt beam="2">  1       21 0.73914595E-01 0.20065069E+03</pdfrwt>
<totfact> 0.84441699E+04</totfact>
</mgrwt>
</event>
<event>
 4    1  0.4510095E+000  0.1977571E+03  0.7546771E-02  0.1151645E+00
         21   -1    0    0  503  502  0.00000000000E+00  0.00000000000E+00  0.62223692176E+03  0.62223692176E+03  0.00000000000E+00 0. -1.
         21   -1    0    0  501  503 -0.00000000000E+00 -0.00000000000E+00 -0.15735517412E+03  0.15735517412E+03  0.00000000000E+00 0. -1.
          6    1    1    2  501    0 -0.95194576048E+02  0.10810390769E+02 -0.69640308279E+02  0.20966078411E+03  0.17300000000E+03 0. -1.
         -6    1    1    2    0  502  0.95194576048E+02 -0.10810390769E+02  0.53452205593E+03  0.56993131177E+03  0.17300000000E+03 0. -1.
<mgrwt>
<rscale>  2 0.19775710E+03</rscale>
<asrwt>0</asrwt>
<pdfrwt beam="1">  1       21 0.95728756E-01 0.19775710E+03</pdfrwt>
<pdfrwt beam="2">  1       21 0.24208489E-01 0.19775710E+03</pdfrwt>
<totfact> 0.14604691E+04</totfact>
</mgrwt>
</event>
<event>
 4    1  0.4510095E+000  0.4350956E+03  0.7546771E-02  0.1032262E+00
         21   -1    0    0  501  502  0.00000000000E+00  0.00000000000E+00  0.18111719029E+04  0.18111719029E+04  0.00000000000E+00 0. -1.
         21   -1    0    0  502  503 -0.00000000000E+00 -0.00000000000E+00 -0.10500872209E+03  0.10500872209E+03  0.00000000000E+00 0.  1.
          6    1    1    2  501    0 -0.15192621664E+03 -0.36918504999E+03  0.78788563282E+03  0.90003996958E+03  0.17300000000E+03 0.  1.
         -6    1    1    2    0  503  0.15192621664E+03  0.36918504999E+03  0.91827754797E+03  0.10161406554E+04  0.17300000000E+03 0. -1.
<mgrwt>
<rscale>  2 0.43509559E+03</rscale>
<asrwt>0</asrwt>
<pdfrwt beam="1">  1       21 0.27864181E+00 0.43509559E+03</pdfrwt>
<pdfrwt beam="2">  1       21 0.16155189E-01 0.43509559E+03</pdfrwt>
<totfact> 0.12780045E+03</totfact>
</mgrwt>
</event>
<event>
 4    1  0.4510095E+000  0.4277695E+03  0.7546771E-02  0.1034567E+00
         21   -1    0    0  501  502  0.00000000000E+00  0.00000000000E+00  0.12285763917E+03  0.12285763917E+03  0.00000000000E+00 0. -1.
         21   -1    0    0  502  503 -0.00000000000E+00 -0.00000000000E+00 -0.14904030752E+04  0.14904030752E+04  0.00000000000E+00 0.  1.
          6    1    1    2  501    0 -0.38714595555E+03 -0.56354066601E+02 -0.70447661013E+03  0.82418084541E+03  0.17300000000E+03 0. -1.
         -6    1    1    2    0  503  0.38714595555E+03  0.56354066601E+02 -0.66306882592E+03  0.78907986898E+03  0.17300000000E+03 0.  1.
<mgrwt>
<rscale>  2 0.42776953E+03</rscale>
<asrwt>0</asrwt>
<pdfrwt beam="1">  1       21 0.18901176E-01 0.42776953E+03</pdfrwt>
<pdfrwt beam="2">  1       21 0.22929278E+00 0.42776953E+03</pdfrwt>
<totfact> 0.19155049E+03</totfact>
</mgrwt>
</event>
<event>
 4    1  0.4510095E+000  0.1759800E+03  0.7546771E-02  0.1171751E+00
         21   -1    0    0  503  502  0.00000000000E+00  0.00000000000E+00  0.98635800908E+03  0.98635800908E+03  0.00000000000E+00 0. -1.
         21   -1    0    0  501  503 -0.00000000000E+00 -0.00000000000E+00 -0.44580488377E+02  0.44580488377E+02  0.00000000000E+00 0. -1.
          6    1    1    2  501    0  0.17641135605E+02  0.26995610592E+02  0.19057741597E+03  0.25940070187E+03  0.17300000000E+03 0. -1.
         -6    1    1    2    0  502 -0.17641135605E+02 -0.26995610592E+02  0.75120010473E+03  0.77153779558E+03  0.17300000000E+03 0. -1.
<mgrwt>
<rscale>  2 0.17598003E+03</rscale>
<asrwt>0</asrwt>
<pdfrwt beam="1">  1       21 0.15174737E+00 0.17598003E+03</pdfrwt>
<pdfrwt beam="2">  1       21 0.68585374E-02 0.17598003E+03</pdfrwt>
<totfact> 0.45868774E+04</totfact>
</mgrwt>
</event>
<event>
 4    1  0.4510095E+000  0.2622741E+03  0.7546771E-02  0.1105785E+00
         21   -1    0    0  503  502  0.00000000000E+00  0.00000000000E+00  0.24944938472E+04  0.24944938472E+04  0.00000000000E+00 0. -1.
         21   -1    0    0  501  503 -0.00000000000E+00 -0.00000000000E+00 -0.31472496091E+02  0.31472496091E+02  0.00000000000E+00 0.  1.
          6    1    1    2  501    0 -0.84571103390E+02  0.17806300988E+03  0.78710534040E+03  0.82965204990E+03  0.17300000000E+03 0.  1.
         -6    1    1    2    0  502  0.84571103390E+02 -0.17806300988E+03  0.16759160108E+04  0.16963142934E+04  0.17300000000E+03 0. -1.
<mgrwt>
<rscale>  2 0.26227411E+03</rscale>
<asrwt>0</asrwt>
<pdfrwt beam="1">  1       21 0.38376813E+00 0.26227411E+03</pdfrwt>
<pdfrwt beam="2">  1       21 0.48419245E-02 0.26227411E+03</pdfrwt>
<totfact> 0.28676479E+03</totfact>
</mgrwt>
</event>
<event>
 4    1  0.4510095E+000  0.1770221E+03  0.7546771E-02  0.1170717E+00
         21   -1    0    0  501  502  0.00000000000E+00  0.00000000000E+00  0.16160401536E+03  0.16160401536E+03  0.00000000000E+00 0.  1.
         21   -1    0    0  502  503 -0.00000000000E+00 -0.00000000000E+00 -0.22088703247E+03  0.22088703247E+03  0.00000000000E+00 0.  1.
          6    1    1    2  501    0 -0.14193404631E+02 -0.34732696516E+02  0.37192017411E+02  0.18088686824E+03  0.17300000000E+03 0.  1.
         -6    1    1    2    0  503  0.14193404631E+02  0.34732696516E+02 -0.96475034527E+02  0.20160417959E+03  0.17300000000E+03 0.  1.
<mgrwt>
<rscale>  2 0.17702207E+03</rscale>
<asrwt>0</asrwt>
<pdfrwt beam="1">  1       21 0.24862156E-01 0.17702207E+03</pdfrwt>
<pdfrwt beam="2">  1       21 0.33982620E-01 0.17702207E+03</pdfrwt>
<totfact> 0.12839823E+05</totfact>
</mgrwt>
</event>
<event>
 4    1  0.4510095E+000  0.1963751E+03  0.7546771E-02  0.1152834E+00
         21   -1    0    0  503  502  0.00000000000E+00  0.00000000000E+00  0.39934016239E+02  0.39934016239E+02  0.00000000000E+00 0.  1.
         21   -1    0    0  501  503 -0.00000000000E+00 -0.00000000000E+00 -0.97486633106E+03  0.97486633106E+03  0.00000000000E+00 0.  1.
          6    1    1    2  501    0 -0.44449832096E+02  0.81598929575E+02 -0.41819062644E+03  0.46200278454E+03  0.17300000000E+03 0. -1.
         -6    1    1    2    0  502  0.44449832096E+02 -0.81598929575E+02 -0.51674168838E+03  0.55279756276E+03  0.17300000000E+03 0. -1.
<mgrwt>
<rscale>  2 0.19637508E+03</rscale>
<asrwt>0</asrwt>
<pdfrwt beam="1">  1       21 0.61436955E-02 0.19637508E+03</pdfrwt>
<pdfrwt beam="2">  1       21 0.14997942E+00 0.19637508E+03</pdfrwt>
<totfact> 0.56500000E+04</totfact>
</mgrwt>
</event>
<event>
 4    1  0.4510095E+000  0.1825134E+03  0.7546771E-02  0.1165393E+00
         21   -1    0    0  501  502  0.00000000000E+00  0.00000000000E+00  0.15241313904E+03  0.15241313904E+03  0.00000000000E+00 0. -1.
         21   -1    0    0  502  503 -0.00000000000E+00 -0.00000000000E+00 -0.23352279992E+03  0.23352279992E+03  0.00000000000E+00 0. -1.
          6    1    1    2  501    0  0.57515247338E+02 -0.86094154549E+01  0.82940510811E+01  0.18270171590E+03  0.17300000000E+03 0. -1.
         -6    1    1    2    0  503 -0.57515247338E+02  0.86094154549E+01 -0.89403711952E+02  0.20323422306E+03  0.17300000000E+03 0. -1.
<mgrwt>
<rscale>  2 0.18251336E+03</rscale>
<asrwt>0</asrwt>
<pdfrwt beam="1">  1       21 0.23448175E-01 0.18251336E+03</pdfrwt>
<pdfrwt beam="2">  1       21 0.35926584E-01 0.18251336E+03</pdfrwt>
<totfact> 0.12828075E+05</totfact>
</mgrwt>
</event>
<event>
 4    1  0.4510095E+000  0.1878841E+03  0.7546771E-02  0.1160384E+00
         21   -1    0    0  503  502  0.00000000000E+00  0.00000000000E+00  0.14176699492E+03  0.14176699492E+03  0.00000000000E+00 0.  1.
         21   -1    0    0  501  503 -0.00000000000E+00 -0.00000000000E+00 -0.32977659335E+03  0.32977659335E+03  0.00000000000E+00 0.  1.
          6    1    1    2  501    0 -0.73224415591E+02  0.31003364300E+01 -0.21069012834E+03  0.28229551414E+03  0.17300000000E+03 0.  1.
         -6    1    1    2    0  502  0.73224415591E+02 -0.31003364300E+01  0.22680529901E+02  0.18924807413E+03  0.17300000000E+03 0.  1.
<mgrwt>
<rscale>  2 0.18788408E+03</rscale>
<asrwt>0</asrwt>
<pdfrwt beam="1">  1       21 0.21810307E-01 0.18788408E+03</pdfrwt>
<pdfrwt beam="2">  1       21 0.50734860E-01 0.18788408E+03</pdfrwt>
<totfact> 0.72666165E+04</totfact>
</mgrwt>
</event>
<event>
 4    1  0.4510095E+000  0.2470299E+03  0.7546771E-02  0.1115196E+00
         21   -1    0    0  501  502  0.00000000000E+00  0.00000000000E+00  0.60672875739E+03  0.60672875739E+03  0.00000000000E+00 0. -1.
         21   -1    0    0  502  503 -0.00000000000E+00 -0.00000000000E+00 -0.11747840506E+03  0.11747840506E+03  0.00000000000E+00 0.  1.
          6    1    1    2  501    0 -0.17622708792E+03 -0.62279661829E+01  0.38196545586E+03  0.45488612151E+03  0.17300000000E+03 0. -1.
         -6    1    1    2    0  503  0.17622708792E+03  0.62279661829E+01  0.10728489648E+03  0.26932104094E+03  0.17300000000E+03 0.  1.
<mgrwt>
<rscale>  2 0.24702991E+03</rscale>
<asrwt>0</asrwt>
<pdfrwt beam="1">  1       21 0.93342884E-01 0.24702991E+03</pdfrwt>
<pdfrwt beam="2">  1       21 0.18073601E-01 0.24702991E+03</pdfrwt>
<totfact> 0.26125181E+04</totfact>
</mgrwt>
</event>
<event>
 4    1  0.4510095E+000  0.1836440E+03  0.7546771E-02  0.1164322E+00
         21   -1    0    0  503  502  0.00000000000E+00  0.00000000000E+00  0.44002867011E+03  0.44002867011E+03  0.00000000000E+00 0.  1.
         21   -1    0    0  501  503 -0.00000000000E+00 -0.00000000000E+00 -0.10606176476E+03  0.10606176476E+03  0.00000000000E+00 0. -1.
          6    1    1    2  501    0 -0.82517521726E+01  0.61057593604E+02  0.23180665786E+02  0.18510122749E+03  0.17300000000E+03 0. -1.
         -6    1    1    2    0  502  0.82517521726E+01 -0.61057593604E+02  0.31078623956E+03  0.36098920738E+03  0.17300000000E+03 0.  1.
<mgrwt>
<rscale>  2 0.18364401E+03</rscale>
<asrwt>0</asrwt>
<pdfrwt beam="1">  1       21 0.67696717E-01 0.18364401E+03</pdfrwt>
<pdfrwt beam="2">  1       21 0.16317195E-01 0.18364401E+03</pdfrwt>
<totfact> 0.67346285E+04</totfact>
</mgrwt>
</event>
<event>
 4    1  0.4510095E+000  0.2105163E+03  0.7546771E-02  0.1141158E+00
         21   -1    0    0  501  502  0.00000000000E+00  0.00000000000E+00  0.70458670295E+03  0.70458670295E+03  0.00000000000E+00 0.  1.
         21   -1    0    0  502  503 -0.00000000000E+00 -0.00000000000E+00 -0.68890598855E+02  0.68890598855E+02  0.00000000000E+00 0.  1.
          6    1    1    2  501    0  0.59067106250E+02  0.10439927592E+03  0.43191065479E+03  0.48048303359E+03  0.17300000000E+03 0.  1.
         -6    1    1    2    0  503 -0.59067106250E+02 -0.10439927592E+03  0.20378544931E+03  0.29299426821E+03  0.17300000000E+03 0.  1.
<mgrwt>
<rscale>  2 0.21051635E+03</rscale>
<asrwt>0</asrwt>
<pdfrwt beam="1">  1       21 0.10839795E+00 0.21051635E+03</pdfrwt>
<pdfrwt beam="2">  1       21 0.10598554E-01 0.21051635E+03</pdfrwt>
<totfact> 0.49084827E+04</totfact>
</mgrwt>
</event>
<event>
 4    1  0.4510095E+000  0.1767732E+03  0.7546771E-02  0.1170963E+00
         21   -1    0    0  501  502  0.00000000000E+00  0.00000000000E+00  0.17609405452E+04  0.17609405452E+04  0.00000000000E+00 0.  1.
         21   -1    0    0  502  503 -0.00000000000E+00 -0.00000000000E+00 -0.30152600260E+02  0.30152600260E+02  0.00000000000E+00 0.  1.
          6    1    1    2  501    0  0.36321252243E+02  0.73999208366E+00  0.14398553462E+04  0.14506661225E+04  0.17300000000E+03 0.  1.
         -6    1    1    2    0  503 -0.36321252243E+02 -0.73999208366E+00  0.29093259867E+03  0.34042702290E+03  0.17300000000E+03 0.  1.
<mgrwt>
<rscale>  2 0.17677325E+03</rscale>
<asrwt>0</asrwt>
<pdfrwt beam="1">  1       21 0.27091385E+00 0.17677325E+03</pdfrwt>
<pdfrwt beam="2">  1       21 0.46388630E-02 0.17677325E+03</pdfrwt>
<totfact> 0.15577905E+04</totfact>
</mgrwt>
</event>
<event>
 4    1  0.4510095E+000  0.1965200E+03  0.7546771E-02  0.1152709E+00
         21   -1    0    0  503  502  0.00000000000E+00  0.00000000000E+00  0.83279611199E+02  0.83279611199E+02  0.00000000000E+00 0. -1.
         21   -1    0    0  501  503 -0.00000000000E+00 -0.00000000000E+00 -0.51225701990E+03  0.51225701990E+03  0.00000000000E+00 0.  1.
          6    1    1    2  501    0  0.44607619948E+02 -0.81861239395E+02 -0.30612779206E+03  0.36377785439E+03  0.17300000000E+03 0.  1.
         -6    1    1    2    0  502 -0.44607619948E+02  0.81861239395E+02 -0.12284961664E+03  0.23175877671E+03  0.17300000000E+03 0. -1.
<mgrwt>
<rscale>  2 0.19651998E+03</rscale>
<asrwt>0</asrwt>
<pdfrwt beam="1">  1       21 0.12812248E-01 0.19651998E+03</pdfrwt>
<pdfrwt beam="2">  1       21 0.78808771E-01 0.19651998E+03</pdfrwt>
<totfact> 0.74107909E+04</totfact>
</mgrwt>
</event>
<event>
 4    1  0.4510095E+000  0.2333561E+03  0.7546771E-02  0.1124300E+00
         21   -1    0    0  503  502  0.00000000000E+00  0.00000000000E+00  0.39463982101E+02  0.39463982101E+02  0.00000000000E+00 0.  1.
         21   -1    0    0  501  503 -0.00000000000E+00 -0.00000000000E+00 -0.13927641334E+04  0.13927641334E+04  0.00000000000E+00 0. -1.
          6    1    1    2  501    0  0.13746379384E+03 -0.75031866512E+02 -0.60774080914E+03  0.65100227857E+03  0.17300000000E+03 0. -1.
         -6    1    1    2    0  502 -0.13746379384E+03  0.75031866512E+02 -0.74555934214E+03  0.78122583691E+03  0.17300000000E+03 0. -1.
<mgrwt>
<rscale>  2 0.23335611E+03</rscale>
<asrwt>0</asrwt>
<pdfrwt beam="1">  1       21 0.60713819E-02 0.23335611E+03</pdfrwt>
<pdfrwt beam="2">  1       21 0.21427141E+00 0.23335611E+03</pdfrwt>
<totfact> 0.20461948E+04</totfact>
</mgrwt>
</event>
<event>
 4    1  0.4510095E+000  0.2067240E+03  0.7546771E-02  0.1144187E+00
         21   -1    0    0  501  502  0.00000000000E+00  0.00000000000E+00  0.26921385164E+03  0.26921385164E+03  0.00000000000E+00 0.  1.
         21   -1    0    0  502  503 -0.00000000000E+00 -0.00000000000E+00 -0.79170793511E+03  0.79170793511E+03  0.00000000000E+00 0.  1.
          6    1    1    2  501    0 -0.25613953681E+02  0.11022588402E+03  0.21306261457E+03  0.29686781210E+03  0.17300000000E+03 0.  1.
         -6    1    1    2    0  503  0.25613953681E+02 -0.11022588402E+03 -0.73555669805E+03  0.76405397465E+03  0.17300000000E+03 0.  1.
<mgrwt>
<rscale>  2 0.20672402E+03</rscale>
<asrwt>0</asrwt>
<pdfrwt beam="1">  1       21 0.41417517E-01 0.20672402E+03</pdfrwt>
<pdfrwt beam="2">  1       21 0.12180122E+00 0.20672402E+03</pdfrwt>
<totfact> 0.28218552E+03</totfact>
</mgrwt>
</event>
<event>
 4    1  0.4510095E+000  0.2019005E+03  0.7546771E-02  0.1148145E+00
         21   -1    0    0  503  502  0.00000000000E+00  0.00000000000E+00  0.71489749238E+03  0.71489749238E+03  0.00000000000E+00 0. -1.
         21   -1    0    0  501  503 -0.00000000000E+00 -0.00000000000E+00 -0.57401600655E+02  0.57401600655E+02  0.00000000000E+00 0. -1.
          6    1    1    2  501    0 -0.94156732148E+02  0.44376957022E+02  0.36021236393E+03  0.41293674049E+03  0.17300000000E+03 0. -1.
         -6    1    1    2    0  502  0.94156732148E+02 -0.44376957022E+02  0.29728352779E+03  0.35936235254E+03  0.17300000000E+03 0. -1.
<mgrwt>
<rscale>  2 0.20190048E+03</rscale>
<asrwt>0</asrwt>
<pdfrwt beam="1">  1       21 0.10998422E+00 0.20190048E+03</pdfrwt>
<pdfrwt beam="2">  1       21 0.88310160E-02 0.20190048E+03</pdfrwt>
<totfact> 0.65676365E+04</totfact>
</mgrwt>
</event>
<event>
 4    1  0.4510095E+000  0.2053150E+03  0.7546771E-02  0.1145331E+00
         21   -1    0    0  503  502  0.00000000000E+00  0.00000000000E+00  0.66966360443E+02  0.66966360443E+02  0.00000000000E+00 0.  1.
         21   -1    0    0  501  503 -0.00000000000E+00 -0.00000000000E+00 -0.80076472162E+03  0.80076472162E+03  0.00000000000E+00 0.  1.
          6    1    1    2  501    0 -0.83649357501E+02 -0.72305183893E+02 -0.56755737184E+03  0.60355250389E+03  0.17300000000E+03 0.  1.
         -6    1    1    2    0  502  0.83649357501E+02  0.72305183893E+02 -0.16624098935E+03  0.26417857818E+03  0.17300000000E+03 0.  1.
<mgrwt>
<rscale>  2 0.20531501E+03</rscale>
<asrwt>0</asrwt>
<pdfrwt beam="1">  1       21 0.10302518E-01 0.20531501E+03</pdfrwt>
<pdfrwt beam="2">  1       21 0.12319457E+00 0.20531501E+03</pdfrwt>
<totfact> 0.37808845E+04</totfact>
</mgrwt>
</event>
<event>
 4    1  0.4510095E+000  0.5178630E+03  0.7546771E-02  0.1009219E+00
         21   -1    0    0  503  502  0.00000000000E+00  0.00000000000E+00  0.51231723650E+03  0.51231723650E+03  0.00000000000E+00 0. -1.
         21   -1    0    0  501  503 -0.00000000000E+00 -0.00000000000E+00 -0.52348424349E+03  0.52348424349E+03  0.00000000000E+00 0.  1.
          6    1    1    2  501    0 -0.25579911717E+03 -0.41571617266E+03 -0.83901624696E+01  0.51793099867E+03  0.17300000000E+03 0. -1.
         -6    1    1    2    0  502  0.25579911717E+03  0.41571617266E+03 -0.27768445225E+01  0.51787048132E+03  0.17300000000E+03 0.  1.
<mgrwt>
<rscale>  2 0.51786304E+03</rscale>
<asrwt>0</asrwt>
<pdfrwt beam="1">  1       21 0.78818036E-01 0.51786304E+03</pdfrwt>
<pdfrwt beam="2">  1       21 0.80536038E-01 0.51786304E+03</pdfrwt>
<totfact> 0.16174407E+03</totfact>
</mgrwt>
</event>
<event>
 4    1  0.4510095E+000  0.1734543E+03  0.7546771E-02  0.1174293E+00
         21   -1    0    0  501  502  0.00000000000E+00  0.00000000000E+00  0.94355551305E+02  0.94355551305E+02  0.00000000000E+00 0.  1.
         21   -1    0    0  502  503 -0.00000000000E+00 -0.00000000000E+00 -0.33297286034E+03  0.33297286034E+03  0.00000000000E+00 0.  1.
          6    1    1    2  501    0  0.60859393261E+01 -0.10970504249E+02 -0.75323553033E+02  0.18910322118E+03  0.17300000000E+03 0.  1.
         -6    1    1    2    0  503 -0.60859393261E+01  0.10970504249E+02 -0.16329375601E+03  0.23822519046E+03  0.17300000000E+03 0.  1.
<mgrwt>
<rscale>  2 0.17345429E+03</rscale>
<asrwt>0</asrwt>
<pdfrwt beam="1">  1       21 0.14516238E-01 0.17345429E+03</pdfrwt>
<pdfrwt beam="2">  1       21 0.51226595E-01 0.17345429E+03</pdfrwt>
<totfact> 0.15178096E+05</totfact>
</mgrwt>
</event>
<event>
 4    1  0.4510095E+000  0.2298639E+03  0.7546771E-02  0.1126736E+00
         21   -1    0    0  501  502  0.00000000000E+00  0.00000000000E+00  0.30788666254E+03  0.30788666254E+03  0.00000000000E+00 0. -1.
         21   -1    0    0  502  503 -0.00000000000E+00 -0.00000000000E+00 -0.18355743842E+03  0.18355743842E+03  0.00000000000E+00 0. -1.
          6    1    1    2  501    0  0.47495987608E+02  0.14370996503E+03  0.12484575777E+03  0.26157959806E+03  0.17300000000E+03 0. -1.
         -6    1    1    2    0  503 -0.47495987608E+02 -0.14370996503E+03 -0.51653365024E+00  0.22986450290E+03  0.17300000000E+03 0. -1.
<mgrwt>
<rscale>  2 0.22986392E+03</rscale>
<asrwt>0</asrwt>
<pdfrwt beam="1">  1       21 0.47367179E-01 0.22986392E+03</pdfrwt>
<pdfrwt beam="2">  1       21 0.28239606E-01 0.22986392E+03</pdfrwt>
<totfact> 0.50220612E+04</totfact>
</mgrwt>
</event>
<event>
 4    1  0.4510095E+000  0.3274606E+03  0.7546771E-02  0.1072266E+00
         21   -1    0    0  501  502  0.00000000000E+00  0.00000000000E+00  0.13201810179E+03  0.13201810179E+03  0.00000000000E+00 0. -1.
         21   -1    0    0  502  503 -0.00000000000E+00 -0.00000000000E+00 -0.20636787921E+04  0.20636787921E+04  0.00000000000E+00 0.  1.
          6    1    1    2  501    0 -0.19996074805E+03 -0.19317653111E+03 -0.11090925738E+03  0.34573304196E+03  0.17300000000E+03 0. -1.
         -6    1    1    2    0  503  0.19996074805E+03  0.19317653111E+03 -0.18207514329E+04  0.18499638519E+04  0.17300000000E+03 0.  1.
<mgrwt>
<rscale>  2 0.32746064E+03</rscale>
<asrwt>0</asrwt>
<pdfrwt beam="1">  1       21 0.20310477E-01 0.32746064E+03</pdfrwt>
<pdfrwt beam="2">  1       21 0.31748904E+00 0.32746064E+03</pdfrwt>
<totfact> 0.52340179E+02</totfact>
</mgrwt>
</event>
<event>
 4    1  0.4510095E+000  0.2095019E+03  0.7546771E-02  0.1141961E+00
         21   -1    0    0  501  502  0.00000000000E+00  0.00000000000E+00  0.45059996561E+02  0.45059996561E+02  0.00000000000E+00 0.  1.
         21   -1    0    0  502  503 -0.00000000000E+00 -0.00000000000E+00 -0.10272005115E+04  0.10272005115E+04  0.00000000000E+00 0.  1.
          6    1    1    2  501    0 -0.11470336718E+03 -0.28375403248E+02 -0.36912471442E+03  0.42443383554E+03  0.17300000000E+03 0.  1.
         -6    1    1    2    0  503  0.11470336718E+03  0.28375403248E+02 -0.61301580055E+03  0.64782667255E+03  0.17300000000E+03 0.  1.
<mgrwt>
<rscale>  2 0.20950185E+03</rscale>
<asrwt>0</asrwt>
<pdfrwt beam="1">  1       21 0.69323069E-02 0.20950185E+03</pdfrwt>
<pdfrwt beam="2">  1       21 0.15803085E+00 0.20950185E+03</pdfrwt>
<totfact> 0.39626539E+04</totfact>
</mgrwt>
</event>
<event>
 4    1  0.4510095E+000  0.1854402E+03  0.7546771E-02  0.1162639E+00
         21   -1    0    0  503  502  0.00000000000E+00  0.00000000000E+00  0.26851309184E+02  0.26851309184E+02  0.00000000000E+00 0. -1.
         21   -1    0    0  501  503 -0.00000000000E+00 -0.00000000000E+00 -0.12866364740E+04  0.12866364740E+04  0.00000000000E+00 0. -1.
          6    1    1    2  501    0  0.35128140709E+02 -0.56789907951E+02 -0.58522777971E+03  0.61390523215E+03  0.17300000000E+03 0. -1.
         -6    1    1    2    0  502 -0.35128140709E+02  0.56789907951E+02 -0.67455738514E+03  0.69958255107E+03  0.17300000000E+03 0. -1.
<mgrwt>
<rscale>  2 0.18544023E+03</rscale>
<asrwt>0</asrwt>
<pdfrwt beam="1">  1       21 0.41309696E-02 0.18544023E+03</pdfrwt>
<pdfrwt beam="2">  1       21 0.19794412E+00 0.18544023E+03</pdfrwt>
<totfact> 0.51627311E+04</totfact>
</mgrwt>
</event>
<event>
 4    1  0.4510095E+000  0.1778552E+03  0.7546771E-02  0.1169895E+00
         21   -1    0    0  503  502  0.00000000000E+00  0.00000000000E+00  0.23165112647E+03  0.23165112647E+03  0.00000000000E+00 0. -1.
         21   -1    0    0  501  503 -0.00000000000E+00 -0.00000000000E+00 -0.15230319600E+03  0.15230319600E+03  0.00000000000E+00 0.  1.
          6    1    1    2  501    0 -0.33488942843E+02 -0.24123592854E+02 -0.22063656641E+02  0.17921847552E+03  0.17300000000E+03 0.  1.
         -6    1    1    2    0  502  0.33488942843E+02  0.24123592854E+02  0.10141158711E+03  0.20473584695E+03  0.17300000000E+03 0. -1.
<mgrwt>
<rscale>  2 0.17785516E+03</rscale>
<asrwt>0</asrwt>
<pdfrwt beam="1">  1       21 0.35638635E-01 0.17785516E+03</pdfrwt>
<pdfrwt beam="2">  1       21 0.23431261E-01 0.17785516E+03</pdfrwt>
<totfact> 0.13073756E+05</totfact>
</mgrwt>
</event>
<event>
 4    1  0.4510095E+000  0.1962325E+03  0.7546771E-02  0.1152957E+00
         21   -1    0    0  501  502  0.00000000000E+00  0.00000000000E+00  0.68114376389E+03  0.68114376389E+03  0.00000000000E+00 0.  1.
         21   -1    0    0  502  503 -0.00000000000E+00 -0.00000000000E+00 -0.65054825591E+02  0.65054825591E+02  0.00000000000E+00 0.  1.
          6    1    1    2  501    0  0.22389719607E+02 -0.89871640222E+02  0.44307962293E+03  0.48458927301E+03  0.17300000000E+03 0.  1.
         -6    1    1    2    0  503 -0.22389719607E+02  0.89871640222E+02  0.17300931537E+03  0.26160931647E+03  0.17300000000E+03 0.  1.
<mgrwt>
<rscale>  2 0.19623254E+03</rscale>
<asrwt>0</asrwt>
<pdfrwt beam="1">  1       21 0.10479134E+00 0.19623254E+03</pdfrwt>
<pdfrwt beam="2">  1       21 0.10008435E-01 0.19623254E+03</pdfrwt>
<totfact> 0.59376106E+04</totfact>
</mgrwt>
</event>
<event>
 4    1  0.4510095E+000  0.1748284E+03  0.7546771E-02  0.1172904E+00
         21   -1    0    0  503  502  0.00000000000E+00  0.00000000000E+00  0.18823377343E+03  0.18823377343E+03  0.00000000000E+00 0. -1.
         21   -1    0    0  501  503 -0.00000000000E+00 -0.00000000000E+00 -0.90624729007E+03  0.90624729007E+03  0.00000000000E+00 0. -1.
          6    1    1    2  501    0  0.24541229798E+02  0.58055273898E+01 -0.85480306165E+03  0.87249828098E+03  0.17300000000E+03 0. -1.
         -6    1    1    2    0  502 -0.24541229798E+02 -0.58055273898E+01  0.13678954502E+03  0.22198278252E+03  0.17300000000E+03 0. -1.
<mgrwt>
<rscale>  2 0.17482842E+03</rscale>
<asrwt>0</asrwt>
<pdfrwt beam="1">  1       21 0.28959042E-01 0.17482842E+03</pdfrwt>
<pdfrwt beam="2">  1       21 0.13942266E+00 0.17482842E+03</pdfrwt>
<totfact> 0.41932765E+03</totfact>
</mgrwt>
</event>
<event>
 4    1  0.4510095E+000  0.1898096E+03  0.7546771E-02  0.1158633E+00
         21   -1    0    0  503  502  0.00000000000E+00  0.00000000000E+00  0.82821048714E+02  0.82821048714E+02  0.00000000000E+00 0.  1.
         21   -1    0    0  501  503 -0.00000000000E+00 -0.00000000000E+00 -0.62206684971E+03  0.62206684971E+03  0.00000000000E+00 0.  1.
          6    1    1    2  501    0 -0.69604262025E+02  0.35411127561E+02 -0.46289194816E+03  0.50029656897E+03  0.17300000000E+03 0.  1.
         -6    1    1    2    0  502  0.69604262025E+02 -0.35411127561E+02 -0.76353852839E+02  0.20459132946E+03  0.17300000000E+03 0.  1.
<mgrwt>
<rscale>  2 0.18980964E+03</rscale>
<asrwt>0</asrwt>
<pdfrwt beam="1">  1       21 0.12741700E-01 0.18980964E+03</pdfrwt>
<pdfrwt beam="2">  1       21 0.95702594E-01 0.18980964E+03</pdfrwt>
<totfact> 0.48051159E+04</totfact>
</mgrwt>
</event>
<event>
 4    1  0.4510095E+000  0.1902195E+03  0.7546771E-02  0.1158264E+00
         21   -1    0    0  503  502  0.00000000000E+00  0.00000000000E+00  0.39347155931E+03  0.39347155931E+03  0.00000000000E+00 0.  1.
         21   -1    0    0  501  503 -0.00000000000E+00 -0.00000000000E+00 -0.28208687634E+03  0.28208687634E+03  0.00000000000E+00 0. -1.
          6    1    1    2  501    0  0.76569312063E+02  0.19788462985E+02 -0.22161657060E+03  0.29205709576E+03  0.17300000000E+03 0. -1.
         -6    1    1    2    0  502 -0.76569312063E+02 -0.19788462985E+02  0.33300125357E+03  0.38350133989E+03  0.17300000000E+03 0.  1.
<mgrwt>
<rscale>  2 0.19021946E+03</rscale>
<asrwt>0</asrwt>
<pdfrwt beam="1">  1       21 0.60534086E-01 0.19021946E+03</pdfrwt>
<pdfrwt beam="2">  1       21 0.43397981E-01 0.19021946E+03</pdfrwt>
<totfact> 0.12996689E+04</totfact>
</mgrwt>
</event>
<event>
 4    1  0.4510095E+000  0.2084634E+03  0.7546771E-02  0.1142789E+00
         21   -1    0    0  503  502  0.00000000000E+00  0.00000000000E+00  0.10155428115E+03  0.10155428115E+03  0.00000000000E+00 0. -1.
         21   -1    0    0  501  503 -0.00000000000E+00 -0.00000000000E+00 -0.47028780444E+03  0.47028780444E+03  0.00000000000E+00 0.  1.
          6    1    1    2  501    0 -0.92916091627E+02 -0.69961414923E+02 -0.27018660297E+03  0.34125913920E+03  0.17300000000E+03 0.  1.
         -6    1    1    2    0  502  0.92916091627E+02  0.69961414923E+02 -0.98546920316E+02  0.23058294639E+03  0.17300000000E+03 0. -1.
<mgrwt>
<rscale>  2 0.20846343E+03</rscale>
<asrwt>0</asrwt>
<pdfrwt beam="1">  1       21 0.15623735E-01 0.20846343E+03</pdfrwt>
<pdfrwt beam="2">  1       21 0.72351970E-01 0.20846343E+03</pdfrwt>
<totfact> 0.62264246E+04</totfact>
</mgrwt>
</event>
<event>
 4    1  0.4510095E+000  0.2031041E+03  0.7546771E-02  0.1147146E+00
         21   -1    0    0  503  502  0.00000000000E+00  0.00000000000E+00  0.15893646807E+03  0.15893646807E+03  0.00000000000E+00 0.  1.
         21   -1    0    0  501  503 -0.00000000000E+00 -0.00000000000E+00 -0.25979903988E+03  0.25979903988E+03  0.00000000000E+00 0.  1.
          6    1    1    2  501    0 -0.19634493614E+02  0.10457888387E+03 -0.56970923824E+02  0.21094298389E+03  0.17300000000E+03 0.  1.
         -6    1    1    2    0  502  0.19634493614E+02 -0.10457888387E+03 -0.43891647987E+02  0.20779252406E+03  0.17300000000E+03 0.  1.
<mgrwt>
<rscale>  2 0.20310405E+03</rscale>
<asrwt>0</asrwt>
<pdfrwt beam="1">  1       21 0.24451764E-01 0.20310405E+03</pdfrwt>
<pdfrwt beam="2">  1       21 0.39969083E-01 0.20310405E+03</pdfrwt>
<totfact> 0.94919126E+04</totfact>
</mgrwt>
</event>
<event>
 4    1  0.4510095E+000  0.2606323E+03  0.7546771E-02  0.1106764E+00
         21   -1    0    0  501  502  0.00000000000E+00  0.00000000000E+00  0.12234258844E+03  0.12234258844E+03  0.00000000000E+00 0. -1.
         21   -1    0    0  502  503 -0.00000000000E+00 -0.00000000000E+00 -0.61444074323E+03  0.61444074323E+03  0.00000000000E+00 0. -1.
          6    1    1    2  501    0  0.10521420883E+02  0.19465225691E+03 -0.13169746597E+03  0.29201613647E+03  0.17300000000E+03 0. -1.
         -6    1    1    2    0  503 -0.10521420883E+02 -0.19465225691E+03 -0.36040068883E+03  0.44476719520E+03  0.17300000000E+03 0. -1.
<mgrwt>
<rscale>  2 0.26063231E+03</rscale>
<asrwt>0</asrwt>
<pdfrwt beam="1">  1       21 0.18821936E-01 0.26063231E+03</pdfrwt>
<pdfrwt beam="2">  1       21 0.94529347E-01 0.26063231E+03</pdfrwt>
<totfact> 0.23362980E+04</totfact>
</mgrwt>
</event>
<event>
 4    1  0.4510095E+000  0.1844509E+03  0.7546771E-02  0.1163564E+00
         21   -1    0    0  501  502  0.00000000000E+00  0.00000000000E+00  0.41666312317E+03  0.41666312317E+03  0.00000000000E+00 0. -1.
         21   -1    0    0  502  503 -0.00000000000E+00 -0.00000000000E+00 -0.10613445110E+03  0.10613445110E+03  0.00000000000E+00 0.  1.
          6    1    1    2  501    0  0.55335509581E+02 -0.32110933554E+02  0.28080568473E+03  0.33596720562E+03  0.17300000000E+03 0. -1.
         -6    1    1    2    0  503 -0.55335509581E+02  0.32110933554E+02  0.29722987340E+02  0.18683036865E+03  0.17300000000E+03 0.  1.
<mgrwt>
<rscale>  2 0.18445089E+03</rscale>
<asrwt>0</asrwt>
<pdfrwt beam="1">  1       21 0.64102018E-01 0.18445089E+03</pdfrwt>
<pdfrwt beam="2">  1       21 0.16328377E-01 0.18445089E+03</pdfrwt>
<totfact> 0.75726216E+04</totfact>
</mgrwt>
</event>
<event>
 4    1  0.4510095E+000  0.1750998E+03  0.7546771E-02  0.1172632E+00
         21   -1    0    0  501  502  0.00000000000E+00  0.00000000000E+00  0.17544283654E+03  0.17544283654E+03  0.00000000000E+00 0.  1.
         21   -1    0    0  502  503 -0.00000000000E+00 -0.00000000000E+00 -0.17757969122E+03  0.17757969122E+03  0.00000000000E+00 0.  1.
          6    1    1    2  501    0  0.77673468017E+00  0.27024910816E+02  0.21183623338E+02  0.17637657163E+03  0.17300000000E+03 0.  1.
         -6    1    1    2    0  503 -0.77673468017E+00 -0.27024910816E+02 -0.23320478020E+02  0.17664595613E+03  0.17300000000E+03 0.  1.
<mgrwt>
<rscale>  2 0.17509983E+03</rscale>
<asrwt>0</asrwt>
<pdfrwt beam="1">  1       21 0.26991206E-01 0.17509983E+03</pdfrwt>
<pdfrwt beam="2">  1       21 0.27319952E-01 0.17509983E+03</pdfrwt>
<totfact> 0.16798305E+05</totfact>
</mgrwt>
</event>
<event>
 4    1  0.4510095E+000  0.1946294E+03  0.7546771E-02  0.1154351E+00
         21   -1    0    0  503  502  0.00000000000E+00  0.00000000000E+00  0.71893162317E+02  0.71893162317E+02  0.00000000000E+00 0.  1.
         21   -1    0    0  501  503 -0.00000000000E+00 -0.00000000000E+00 -0.58099716009E+03  0.58099716009E+03  0.00000000000E+00 0.  1.
          6    1    1    2  501    0  0.44450703157E+02  0.77302850212E+02 -0.35416259209E+03  0.40411846939E+03  0.17300000000E+03 0.  1.
         -6    1    1    2    0  502 -0.44450703157E+02 -0.77302850212E+02 -0.15494140569E+03  0.24877185303E+03  0.17300000000E+03 0.  1.
<mgrwt>
<rscale>  2 0.19462938E+03</rscale>
<asrwt>0</asrwt>
<pdfrwt beam="1">  1       21 0.11060486E-01 0.19462938E+03</pdfrwt>
<pdfrwt beam="2">  1       21 0.89384182E-01 0.19462938E+03</pdfrwt>
<totfact> 0.72379725E+04</totfact>
</mgrwt>
</event>
<event>
 4    1  0.4510095E+000  0.1751965E+03  0.7546771E-02  0.1172535E+00
         21   -1    0    0  503  502  0.00000000000E+00  0.00000000000E+00  0.30252532155E+03  0.30252532155E+03  0.00000000000E+00 0.  1.
         21   -1    0    0  501  503 -0.00000000000E+00 -0.00000000000E+00 -0.13840397102E+03  0.13840397102E+03  0.00000000000E+00 0.  1.
          6    1    1    2  501    0  0.18839154472E+02 -0.20245878321E+02 -0.31844755203E+02  0.17806711590E+03  0.17300000000E+03 0.  1.
         -6    1    1    2    0  502 -0.18839154472E+02  0.20245878321E+02  0.19596610573E+03  0.26286217667E+03  0.17300000000E+03 0.  1.
<mgrwt>
<rscale>  2 0.17519649E+03</rscale>
<asrwt>0</asrwt>
<pdfrwt beam="1">  1       21 0.46542357E-01 0.17519649E+03</pdfrwt>
<pdfrwt beam="2">  1       21 0.21292919E-01 0.17519649E+03</pdfrwt>
<totfact> 0.91377151E+04</totfact>
</mgrwt>
</event>
<event>
 4    1  0.4510095E+000  0.2126165E+03  0.7546771E-02  0.1139511E+00
         21   -1    0    0  503  502  0.00000000000E+00  0.00000000000E+00  0.51187605912E+03  0.51187605912E+03  0.00000000000E+00 0. -1.
         21   -1    0    0  501  503 -0.00000000000E+00 -0.00000000000E+00 -0.15369709144E+03  0.15369709144E+03  0.00000000000E+00 0. -1.
          6    1    1    2  501    0  0.10917864460E+02 -0.12311609068E+03 -0.37963633987E+02  0.21597918662E+03  0.17300000000E+03 0. -1.
         -6    1    1    2    0  502 -0.10917864460E+02  0.12311609068E+03  0.39614260168E+03  0.44959396394E+03  0.17300000000E+03 0. -1.
<mgrwt>
<rscale>  2 0.21261649E+03</rscale>
<asrwt>0</asrwt>
<pdfrwt beam="1">  1       21 0.78750162E-01 0.21261649E+03</pdfrwt>
<pdfrwt beam="2">  1       21 0.23645707E-01 0.21261649E+03</pdfrwt>
<totfact> 0.23724404E+04</totfact>
</mgrwt>
</event>
<event>
 4    1  0.4510095E+000  0.1780277E+03  0.7546771E-02  0.1169726E+00
         21   -1    0    0  501  502  0.00000000000E+00  0.00000000000E+00  0.69335405338E+03  0.69335405338E+03  0.00000000000E+00 0.  1.
         21   -1    0    0  502  503 -0.00000000000E+00 -0.00000000000E+00 -0.46501487462E+02  0.46501487462E+02  0.00000000000E+00 0. -1.
          6    1    1    2  501    0 -0.21460637086E+02  0.36115330657E+02  0.27519338912E+03  0.32775795561E+03  0.17300000000E+03 0.  1.
         -6    1    1    2    0  503  0.21460637086E+02 -0.36115330657E+02  0.37165917679E+03  0.41209758522E+03  0.17300000000E+03 0.  1.
<mgrwt>
<rscale>  2 0.17802774E+03</rscale>
<asrwt>0</asrwt>
<pdfrwt beam="1">  1       21 0.10666985E+00 0.17802774E+03</pdfrwt>
<pdfrwt beam="2">  1       21 0.71540755E-02 0.17802774E+03</pdfrwt>
<totfact> 0.10309848E+05</totfact>
</mgrwt>
</event>
<event>
 4    1  0.4510095E+000  0.2087753E+03  0.7546771E-02  0.1142540E+00
         21   -1    0    0  503  502  0.00000000000E+00  0.00000000000E+00  0.33861832402E+02  0.33861832402E+02  0.00000000000E+00 0. -1.
         21   -1    0    0  501  503 -0.00000000000E+00 -0.00000000000E+00 -0.13483079379E+04  0.13483079379E+04  0.00000000000E+00 0.  1.
          6    1    1    2  501    0 -0.94008413970E+02  0.69430006189E+02 -0.51010390924E+03  0.55117429718E+03  0.17300000000E+03 0. -1.
         -6    1    1    2    0  502  0.94008413970E+02 -0.69430006189E+02 -0.80434219622E+03  0.83099547308E+03  0.17300000000E+03 0.  1.
<mgrwt>
<rscale>  2 0.20877526E+03</rscale>
<asrwt>0</asrwt>
<pdfrwt beam="1">  1       21 0.52095122E-02 0.20877526E+03</pdfrwt>
<pdfrwt beam="2">  1       21 0.20743201E+00 0.20877526E+03</pdfrwt>
<totfact> 0.29866178E+04</totfact>
</mgrwt>
</event>
<event>
 4    1  0.4510095E+000  0.2049145E+03  0.7546771E-02  0.1145658E+00
         21   -1    0    0  501  502  0.00000000000E+00  0.00000000000E+00  0.14739468795E+03  0.14739468795E+03  0.00000000000E+00 0.  1.
         21   -1    0    0  502  503 -0.00000000000E+00 -0.00000000000E+00 -0.55838016573E+03  0.55838016573E+03  0.00000000000E+00 0.  1.
          6    1    1    2  501    0 -0.38599108394E+02  0.10281556648E+03 -0.45246562272E+03  0.49670420939E+03  0.17300000000E+03 0.  1.
         -6    1    1    2    0  503  0.38599108394E+02 -0.10281556648E+03  0.41480144938E+02  0.20907064429E+03  0.17300000000E+03 0.  1.
<mgrwt>
<rscale>  2 0.20491445E+03</rscale>
<asrwt>0</asrwt>
<pdfrwt beam="1">  1       21 0.22676106E-01 0.20491445E+03</pdfrwt>
<pdfrwt beam="2">  1       21 0.85904641E-01 0.20491445E+03</pdfrwt>
<totfact> 0.21164877E+04</totfact>
</mgrwt>
</event>
<event>
 4    1  0.4510095E+000  0.1851547E+03  0.7546771E-02  0.1162906E+00
         21   -1    0    0  501  502  0.00000000000E+00  0.00000000000E+00  0.55512597103E+03  0.55512597103E+03  0.00000000000E+00 0.  1.
         21   -1    0    0  502  503 -0.00000000000E+00 -0.00000000000E+00 -0.90547513718E+02  0.90547513718E+02  0.00000000000E+00 0.  1.
          6    1    1    2  501    0  0.64465097325E+02 -0.14053541600E+02  0.41433408689E+03  0.45382263757E+03  0.17300000000E+03 0.  1.
         -6    1    1    2    0  503 -0.64465097325E+02  0.14053541600E+02  0.50244370414E+02  0.19185084718E+03  0.17300000000E+03 0.  1.
<mgrwt>
<rscale>  2 0.18515467E+03</rscale>
<asrwt>0</asrwt>
<pdfrwt beam="1">  1       21 0.85403993E-01 0.18515467E+03</pdfrwt>
<pdfrwt beam="2">  1       21 0.13930387E-01 0.18515467E+03</pdfrwt>
<totfact> 0.53372266E+04</totfact>
</mgrwt>
</event>
<event>
 4    1  0.4510095E+000  0.2954108E+03  0.7546771E-02  0.1087557E+00
         21   -1    0    0  503  502  0.00000000000E+00  0.00000000000E+00  0.22294180392E+03  0.22294180392E+03  0.00000000000E+00 0. -1.
         21   -1    0    0  501  503 -0.00000000000E+00 -0.00000000000E+00 -0.42601747726E+03  0.42601747726E+03  0.00000000000E+00 0.  1.
          6    1    1    2  501    0  0.18958056102E+03 -0.14627975423E+03 -0.19398476434E+03  0.35340860829E+03  0.17300000000E+03 0.  1.
         -6    1    1    2    0  502 -0.18958056102E+03  0.14627975423E+03 -0.90909089910E+01  0.29555067289E+03  0.17300000000E+03 0. -1.
<mgrwt>
<rscale>  2 0.29541083E+03</rscale>
<asrwt>0</asrwt>
<pdfrwt beam="1">  1       21 0.34298740E-01 0.29541083E+03</pdfrwt>
<pdfrwt beam="2">  1       21 0.65541149E-01 0.29541083E+03</pdfrwt>
<totfact> 0.16625671E+04</totfact>
</mgrwt>
</event>
<event>
 4    1  0.4510095E+000  0.2418500E+03  0.7546771E-02  0.1118567E+00
         21   -1    0    0  501  502  0.00000000000E+00  0.00000000000E+00  0.32828822356E+03  0.32828822356E+03  0.00000000000E+00 0.  1.
         21   -1    0    0  502  503 -0.00000000000E+00 -0.00000000000E+00 -0.19153711468E+03  0.19153711468E+03  0.00000000000E+00 0.  1.
          6    1    1    2  501    0 -0.44974178384E+02  0.16291020185E+03  0.13703575682E+03  0.27797519536E+03  0.17300000000E+03 0.  1.
         -6    1    1    2    0  503  0.44974178384E+02 -0.16291020185E+03 -0.28464794324E+00  0.24185014288E+03  0.17300000000E+03 0.  1.
<mgrwt>
<rscale>  2 0.24184998E+03</rscale>
<asrwt>0</asrwt>
<pdfrwt beam="1">  1       21 0.50505881E-01 0.24184998E+03</pdfrwt>
<pdfrwt beam="2">  1       21 0.29467248E-01 0.24184998E+03</pdfrwt>
<totfact> 0.40217401E+04</totfact>
</mgrwt>
</event>
<event>
 4    1  0.4510095E+000  0.1790978E+03  0.7546771E-02  0.1168679E+00
         21   -1    0    0  501  502  0.00000000000E+00  0.00000000000E+00  0.10215610301E+04  0.10215610301E+04  0.00000000000E+00 0.  1.
         21   -1    0    0  502  503 -0.00000000000E+00 -0.00000000000E+00 -0.33824089885E+02  0.33824089885E+02  0.00000000000E+00 0. -1.
          6    1    1    2  501    0  0.35282948668E+02  0.30035841973E+02  0.63516386890E+03  0.65993119234E+03  0.17300000000E+03 0.  1.
         -6    1    1    2    0  503 -0.35282948668E+02 -0.30035841973E+02  0.35257307128E+03  0.39545392761E+03  0.17300000000E+03 0. -1.
<mgrwt>
<rscale>  2 0.17909785E+03</rscale>
<asrwt>0</asrwt>
<pdfrwt beam="1">  1       21 0.15716321E+00 0.17909785E+03</pdfrwt>
<pdfrwt beam="2">  1       21 0.52037069E-02 0.17909785E+03</pdfrwt>
<totfact> 0.66872436E+04</totfact>
</mgrwt>
</event>
<event>
 4    1  0.4510095E+000  0.2564618E+03  0.7546771E-02  0.1109288E+00
         21   -1    0    0  501  502  0.00000000000E+00  0.00000000000E+00  0.11351352542E+03  0.11351352542E+03  0.00000000000E+00 0.  1.
         21   -1    0    0  502  503 -0.00000000000E+00 -0.00000000000E+00 -0.59425277700E+03  0.59425277700E+03  0.00000000000E+00 0. -1.
          6    1    1    2  501    0  0.14897647768E+03  0.11683177820E+03 -0.29626834674E+03  0.39185148791E+03  0.17300000000E+03 0. -1.
         -6    1    1    2    0  503 -0.14897647768E+03 -0.11683177820E+03 -0.18447090484E+03  0.31591481451E+03  0.17300000000E+03 0. -1.
<mgrwt>
<rscale>  2 0.25646180E+03</rscale>
<asrwt>0</asrwt>
<pdfrwt beam="1">  1       21 0.17463620E-01 0.25646180E+03</pdfrwt>
<pdfrwt beam="2">  1       21 0.91423503E-01 0.25646180E+03</pdfrwt>
<totfact> 0.29110152E+04</totfact>
</mgrwt>
</event>
<event>
 4    1  0.4510095E+000  0.1903690E+03  0.7546771E-02  0.1158129E+00
         21   -1    0    0  501  502  0.00000000000E+00  0.00000000000E+00  0.87985347550E+02  0.87985347550E+02  0.00000000000E+00 0. -1.
         21   -1    0    0  502  503 -0.00000000000E+00 -0.00000000000E+00 -0.77368466792E+03  0.77368466792E+03  0.00000000000E+00 0. -1.
          6    1    1    2  501    0  0.68022623850E+02 -0.41039986192E+02 -0.48231459711E+02  0.19638388816E+03  0.17300000000E+03 0. -1.
         -6    1    1    2    0  503 -0.68022623850E+02  0.41039986192E+02 -0.63746786066E+03  0.66528612731E+03  0.17300000000E+03 0. -1.
<mgrwt>
<rscale>  2 0.19036900E+03</rscale>
<asrwt>0</asrwt>
<pdfrwt beam="1">  1       21 0.13536208E-01 0.19036900E+03</pdfrwt>
<pdfrwt beam="2">  1       21 0.11902841E+00 0.19036900E+03</pdfrwt>
<totfact> 0.25500056E+04</totfact>
</mgrwt>
</event>
<event>
 4    1  0.4510095E+000  0.2853491E+03  0.7546771E-02  0.1092803E+00
         21   -1    0    0  503  502  0.00000000000E+00  0.00000000000E+00  0.21329728978E+03  0.21329728978E+03  0.00000000000E+00 0.  1.
         21   -1    0    0  501  503 -0.00000000000E+00 -0.00000000000E+00 -0.38185637512E+03  0.38185637512E+03  0.00000000000E+00 0.  1.
          6    1    1    2  501    0  0.21185339211E+03  0.81321714356E+02 -0.89477230756E+02  0.29904891874E+03  0.17300000000E+03 0.  1.
         -6    1    1    2    0  502 -0.21185339211E+03 -0.81321714356E+02 -0.79081854586E+02  0.29610474616E+03  0.17300000000E+03 0.  1.
<mgrwt>
<rscale>  2 0.28534905E+03</rscale>
<asrwt>0</asrwt>
<pdfrwt beam="1">  1       21 0.32814968E-01 0.28534905E+03</pdfrwt>
<pdfrwt beam="2">  1       21 0.58747134E-01 0.28534905E+03</pdfrwt>
<totfact> 0.23151491E+04</totfact>
</mgrwt>
</event>
<event>
 4    1  0.4510095E+000  0.1816109E+03  0.7546771E-02  0.1166253E+00
         21   -1    0    0  501  502  0.00000000000E+00  0.00000000000E+00  0.48511409642E+02  0.48511409642E+02  0.00000000000E+00 0.  1.
         21   -1    0    0  502  503 -0.00000000000E+00 -0.00000000000E+00 -0.70042089710E+03  0.70042089710E+03  0.00000000000E+00 0. -1.
          6    1    1    2  501    0  0.54559684521E+02  0.87622129739E+01 -0.26184673419E+03  0.31866321996E+03  0.17300000000E+03 0.  1.
         -6    1    1    2    0  503 -0.54559684521E+02 -0.87622129739E+01 -0.39006275327E+03  0.43026908678E+03  0.17300000000E+03 0.  1.
<mgrwt>
<rscale>  2 0.18161095E+03</rscale>
<asrwt>0</asrwt>
<pdfrwt beam="1">  1       21 0.74632935E-02 0.18161095E+03</pdfrwt>
<pdfrwt beam="2">  1       21 0.10775707E+00 0.18161095E+03</pdfrwt>
<totfact> 0.93374132E+04</totfact>
</mgrwt>
</event>
<event>
 4    1  0.4510095E+000  0.3094995E+03  0.7546771E-02  0.1080586E+00
         21   -1    0    0  501  502  0.00000000000E+00  0.00000000000E+00  0.56202305781E+03  0.56202305781E+03  0.00000000000E+00 0. -1.
         21   -1    0    0  502  503 -0.00000000000E+00 -0.00000000000E+00 -0.18434136115E+03  0.18434136115E+03  0.00000000000E+00 0. -1.
          6    1    1    2  501    0 -0.10755891228E+03 -0.23300646942E+03  0.29132899730E+03  0.42504413779E+03  0.17300000000E+03 0. -1.
         -6    1    1    2    0  503  0.10755891228E+03  0.23300646942E+03  0.86352699368E+02  0.32132028117E+03  0.17300000000E+03 0. -1.
<mgrwt>
<rscale>  2 0.30949949E+03</rscale>
<asrwt>0</asrwt>
<pdfrwt beam="1">  1       21 0.86465085E-01 0.30949949E+03</pdfrwt>
<pdfrwt beam="2">  1       21 0.28360210E-01 0.30949949E+03</pdfrwt>
<totfact> 0.12865145E+04</totfact>
</mgrwt>
</event>
<event>
 4    1  0.4510095E+000  0.1990266E+03  0.7546771E-02  0.1150563E+00
         21   -1    0    0  501  502  0.00000000000E+00  0.00000000000E+00  0.23436216793E+03  0.23436216793E+03  0.00000000000E+00 0.  1.
         21   -1    0    0  502  503 -0.00000000000E+00 -0.00000000000E+00 -0.16966709946E+03  0.16966709946E+03  0.00000000000E+00 0. -1.
          6    1    1    2  501    0 -0.40859876120E+02  0.89515637304E+02  0.19858759127E+02  0.20001487223E+03  0.17300000000E+03 0. -1.
         -6    1    1    2    0  503  0.40859876120E+02 -0.89515637304E+02  0.44836309344E+02  0.20401439516E+03  0.17300000000E+03 0.  1.
<mgrwt>
<rscale>  2 0.19902658E+03</rscale>
<asrwt>0</asrwt>
<pdfrwt beam="1">  1       21 0.36055718E-01 0.19902658E+03</pdfrwt>
<pdfrwt beam="2">  1       21 0.26102631E-01 0.19902658E+03</pdfrwt>
<totfact> 0.10318834E+05</totfact>
</mgrwt>
</event>
<event>
 4    1  0.4510095E+000  0.1976291E+03  0.7546771E-02  0.1151755E+00
         21   -1    0    0  501  502  0.00000000000E+00  0.00000000000E+00  0.35138472224E+03  0.35138472224E+03  0.00000000000E+00 0. -1.
         21   -1    0    0  502  503 -0.00000000000E+00 -0.00000000000E+00 -0.13264911600E+03  0.13264911600E+03  0.00000000000E+00 0. -1.
          6    1    1    2  501    0  0.62576841064E+02  0.72197046996E+02  0.20679474008E+03  0.28604429579E+03  0.17300000000E+03 0. -1.
         -6    1    1    2    0  503 -0.62576841064E+02 -0.72197046996E+02  0.11940866171E+02  0.19798954244E+03  0.17300000000E+03 0. -1.
<mgrwt>
<rscale>  2 0.19762913E+03</rscale>
<asrwt>0</asrwt>
<pdfrwt beam="1">  1       21 0.54059187E-01 0.19762913E+03</pdfrwt>
<pdfrwt beam="2">  1       21 0.20407557E-01 0.19762913E+03</pdfrwt>
<totfact> 0.71750949E+04</totfact>
</mgrwt>
</event>
<event>
 4    1  0.4510095E+000  0.2014671E+03  0.7546771E-02  0.1148507E+00
         21   -1    0    0  501  502  0.00000000000E+00  0.00000000000E+00  0.90005084954E+02  0.90005084954E+02  0.00000000000E+00 0. -1.
         21   -1    0    0  502  503 -0.00000000000E+00 -0.00000000000E+00 -0.11757677082E+04  0.11757677082E+04  0.00000000000E+00 0. -1.
          6    1    1    2  501    0 -0.91405665103E+02 -0.48010293675E+02 -0.45973950409E+02  0.20664604528E+03  0.17300000000E+03 0. -1.
         -6    1    1    2    0  503  0.91405665103E+02  0.48010293675E+02 -0.10397886728E+04  0.10591267479E+04  0.17300000000E+03 0. -1.
<mgrwt>
<rscale>  2 0.20146708E+03</rscale>
<asrwt>0</asrwt>
<pdfrwt beam="1">  1       21 0.13846936E-01 0.20146708E+03</pdfrwt>
<pdfrwt beam="2">  1       21 0.18088734E+00 0.20146708E+03</pdfrwt>
<totfact> 0.80802636E+03</totfact>
</mgrwt>
</event>
<event>
 4    1  0.4510095E+000  0.2017574E+03  0.7546771E-02  0.1148265E+00
         21   -1    0    0  501  502  0.00000000000E+00  0.00000000000E+00  0.27690310106E+03  0.27690310106E+03  0.00000000000E+00 0. -1.
         21   -1    0    0  502  503 -0.00000000000E+00 -0.00000000000E+00 -0.17999303040E+03  0.17999303040E+03  0.00000000000E+00 0. -1.
          6    1    1    2  501    0 -0.68080136866E+02 -0.78371839066E+02  0.14625528817E+03  0.24919201334E+03  0.17300000000E+03 0.  1.
         -6    1    1    2    0  503  0.68080136866E+02  0.78371839066E+02 -0.49345217511E+02  0.20770411812E+03  0.17300000000E+03 0.  1.
<mgrwt>
<rscale>  2 0.20175740E+03</rscale>
<asrwt>0</asrwt>
<pdfrwt beam="1">  1       21 0.42600477E-01 0.20175740E+03</pdfrwt>
<pdfrwt beam="2">  1       21 0.27691235E-01 0.20175740E+03</pdfrwt>
<totfact> 0.65708689E+04</totfact>
</mgrwt>
</event>
<event>
 4    1  0.4510095E+000  0.2901282E+03  0.7546771E-02  0.1090282E+00
         21   -1    0    0  501  502  0.00000000000E+00  0.00000000000E+00  0.56778914890E+02  0.56778914890E+02  0.00000000000E+00 0.  1.
         21   -1    0    0  502  503 -0.00000000000E+00 -0.00000000000E+00 -0.14861655250E+04  0.14861655250E+04  0.00000000000E+00 0. -1.
          6    1    1    2  501    0  0.21069419963E+03 -0.99263958724E+02 -0.75304037852E+03  0.80699702040E+03  0.17300000000E+03 0. -1.
         -6    1    1    2    0  503 -0.21069419963E+03  0.99263958724E+02 -0.67634623160E+03  0.73594741950E+03  0.17300000000E+03 0. -1.
<mgrwt>
<rscale>  2 0.29012821E+03</rscale>
<asrwt>0</asrwt>
<pdfrwt beam="1">  1       21 0.87352202E-02 0.29012821E+03</pdfrwt>
<pdfrwt beam="2">  1       21 0.22864078E+00 0.29012821E+03</pdfrwt>
<totfact> 0.85191365E+03</totfact>
</mgrwt>
</event>
<event>
 4    1  0.4510095E+000  0.3034189E+03  0.7546771E-02  0.1083544E+00
         21   -1    0    0  501  502  0.00000000000E+00  0.00000000000E+00  0.16384027330E+03  0.16384027330E+03  0.00000000000E+00 0. -1.
         21   -1    0    0  502  503 -0.00000000000E+00 -0.00000000000E+00 -0.17923724957E+04  0.17923724957E+04  0.00000000000E+00 0. -1.
          6    1    1    2  501    0  0.17311070310E+03  0.17935080674E+03 -0.38526524731E+01  0.30344335606E+03  0.17300000000E+03 0. -1.
         -6    1    1    2    0  503 -0.17311070310E+03 -0.17935080674E+03 -0.16246795700E+04  0.16527694130E+04  0.17300000000E+03 0. -1.
<mgrwt>
<rscale>  2 0.30341890E+03</rscale>
<asrwt>0</asrwt>
<pdfrwt beam="1">  1       21 0.25206196E-01 0.30341890E+03</pdfrwt>
<pdfrwt beam="2">  1       21 0.27574962E+00 0.30341890E+03</pdfrwt>
<totfact> 0.62413351E+02</totfact>
</mgrwt>
</event>
<event>
 4    1  0.4510095E+000  0.1816415E+03  0.7546771E-02  0.1166224E+00
         21   -1    0    0  501  502  0.00000000000E+00  0.00000000000E+00  0.33257032329E+03  0.33257032329E+03  0.00000000000E+00 0.  1.
         21   -1    0    0  502  503 -0.00000000000E+00 -0.00000000000E+00 -0.15473491604E+03  0.15473491604E+03  0.00000000000E+00 0.  1.
          6    1    1    2  501    0 -0.29517746983E+02  0.46833236048E+02  0.23487592084E+03  0.29691808227E+03  0.17300000000E+03 0.  1.
         -6    1    1    2    0  503  0.29517746983E+02 -0.46833236048E+02 -0.57040513596E+02  0.19038715707E+03  0.17300000000E+03 0.  1.
<mgrwt>
<rscale>  2 0.18164154E+03</rscale>
<asrwt>0</asrwt>
<pdfrwt beam="1">  1       21 0.51164665E-01 0.18164154E+03</pdfrwt>
<pdfrwt beam="2">  1       21 0.23805372E-01 0.18164154E+03</pdfrwt>
<totfact> 0.60677409E+04</totfact>
</mgrwt>
</event>
<event>
 4    1  0.4510095E+000  0.1910383E+03  0.7546771E-02  0.1157528E+00
         21   -1    0    0  501  502  0.00000000000E+00  0.00000000000E+00  0.41661068053E+03  0.41661068053E+03  0.00000000000E+00 0.  1.
         21   -1    0    0  502  503 -0.00000000000E+00 -0.00000000000E+00 -0.15869920572E+03  0.15869920572E+03  0.00000000000E+00 0.  1.
          6    1    1    2  501    0 -0.12601457611E+02  0.80048934748E+02  0.32149217474E+03  0.37396904566E+03  0.17300000000E+03 0.  1.
         -6    1    1    2    0  503  0.12601457611E+02 -0.80048934748E+02 -0.63580699925E+02  0.20134084059E+03  0.17300000000E+03 0.  1.
<mgrwt>
<rscale>  2 0.19103829E+03</rscale>
<asrwt>0</asrwt>
<pdfrwt beam="1">  1       21 0.64093950E-01 0.19103829E+03</pdfrwt>
<pdfrwt beam="2">  1       21 0.24415263E-01 0.19103829E+03</pdfrwt>
<totfact> 0.35637382E+04</totfact>
</mgrwt>
</event>
<event>
 4    1  0.4510095E+000  0.2401551E+03  0.7546771E-02  0.1119690E+00
         21   -1    0    0  503  502  0.00000000000E+00  0.00000000000E+00  0.53072581937E+03  0.53072581937E+03  0.00000000000E+00 0.  1.
         21   -1    0    0  501  503 -0.00000000000E+00 -0.00000000000E+00 -0.31921623325E+03  0.31921623325E+03  0.00000000000E+00 0.  1.
          6    1    1    2  501    0  0.64103074757E+02 -0.15374096272E+03 -0.23938066419E+03  0.33908345610E+03  0.17300000000E+03 0.  1.
         -6    1    1    2    0  502 -0.64103074757E+02  0.15374096272E+03  0.45089025031E+03  0.51085859652E+03  0.17300000000E+03 0.  1.
<mgrwt>
<rscale>  2 0.24015513E+03</rscale>
<asrwt>0</asrwt>
<pdfrwt beam="1">  1       21 0.81650126E-01 0.24015513E+03</pdfrwt>
<pdfrwt beam="2">  1       21 0.49110190E-01 0.24015513E+03</pdfrwt>
<totfact> 0.50196582E+03</totfact>
</mgrwt>
</event>
<event>
 4    1  0.4510095E+000  0.1749310E+03  0.7546771E-02  0.1172801E+00
         21   -1    0    0  503  502  0.00000000000E+00  0.00000000000E+00  0.86723561030E+02  0.86723561030E+02  0.00000000000E+00 0. -1.
         21   -1    0    0  501  503 -0.00000000000E+00 -0.00000000000E+00 -0.39979383604E+03  0.39979383604E+03  0.00000000000E+00 0. -1.
          6    1    1    2  501    0 -0.52766981679E+01  0.25377217735E+02 -0.73183095335E+02  0.18962228816E+03  0.17300000000E+03 0. -1.
         -6    1    1    2    0  502  0.52766981679E+01 -0.25377217735E+02 -0.23988717967E+03  0.29689510891E+03  0.17300000000E+03 0. -1.
<mgrwt>
<rscale>  2 0.17493098E+03</rscale>
<asrwt>0</asrwt>
<pdfrwt beam="1">  1       21 0.13342086E-01 0.17493098E+03</pdfrwt>
<pdfrwt beam="2">  1       21 0.61506745E-01 0.17493098E+03</pdfrwt>
<totfact> 0.11992698E+05</totfact>
</mgrwt>
</event>
<event>
 4    1  0.4510095E+000  0.1994049E+03  0.7546771E-02  0.1150242E+00
         21   -1    0    0  503  502  0.00000000000E+00  0.00000000000E+00  0.18083266411E+04  0.18083266411E+04  0.00000000000E+00 0.  1.
         21   -1    0    0  501  503 -0.00000000000E+00 -0.00000000000E+00 -0.31064585502E+02  0.31064585502E+02  0.00000000000E+00 0.  1.
          6    1    1    2  501    0 -0.47604654379E+02  0.86989100574E+02  0.39151046345E+03  0.43936630472E+03  0.17300000000E+03 0.  1.
         -6    1    1    2    0  502  0.47604654379E+02 -0.86989100574E+02  0.13857515922E+04  0.14000249219E+04  0.17300000000E+03 0.  1.
<mgrwt>
<rscale>  2 0.19940488E+03</rscale>
<asrwt>0</asrwt>
<pdfrwt beam="1">  1       21 0.27820402E+00 0.19940488E+03</pdfrwt>
<pdfrwt beam="2">  1       21 0.47791684E-02 0.19940488E+03</pdfrwt>
<totfact> 0.13146458E+04</totfact>
</mgrwt>
</event>
<event>
 4    1  0.4510095E+000  0.2059464E+03  0.7546771E-02  0.1144817E+00
         21   -1    0    0  503  502  0.00000000000E+00  0.00000000000E+00  0.29746584440E+03  0.29746584440E+03  0.00000000000E+00 0.  1.
         21   -1    0    0  501  503 -0.00000000000E+00 -0.00000000000E+00 -0.17795700121E+03  0.17795700121E+03  0.00000000000E+00 0. -1.
          6    1    1    2  501    0  0.92947711805E+02 -0.62013260429E+02 -0.46226429016E+02  0.21107061458E+03  0.17300000000E+03 0. -1.
         -6    1    1    2    0  502 -0.92947711805E+02  0.62013260429E+02  0.16573527220E+03  0.26435223103E+03  0.17300000000E+03 0.  1.
<mgrwt>
<rscale>  2 0.20594640E+03</rscale>
<asrwt>0</asrwt>
<pdfrwt beam="1">  1       21 0.45763976E-01 0.20594640E+03</pdfrwt>
<pdfrwt beam="2">  1       21 0.27378000E-01 0.20594640E+03</pdfrwt>
<totfact> 0.57880579E+04</totfact>
</mgrwt>
</event>
<event>
 4    1  0.4510095E+000  0.2071679E+03  0.7546771E-02  0.1143829E+00
         21   -1    0    0  503  502  0.00000000000E+00  0.00000000000E+00  0.11707688682E+03  0.11707688682E+03  0.00000000000E+00 0. -1.
         21   -1    0    0  501  503 -0.00000000000E+00 -0.00000000000E+00 -0.37177429460E+03  0.37177429460E+03  0.00000000000E+00 0. -1.
          6    1    1    2  501    0  0.97812131380E+02  0.58500737265E+02 -0.98469168920E+02  0.22937900195E+03  0.17300000000E+03 0. -1.
         -6    1    1    2    0  502 -0.97812131380E+02 -0.58500737265E+02 -0.15622823886E+03  0.25947217948E+03  0.17300000000E+03 0. -1.
<mgrwt>
<rscale>  2 0.20716793E+03</rscale>
<asrwt>0</asrwt>
<pdfrwt beam="1">  1       21 0.18011829E-01 0.20716793E+03</pdfrwt>
<pdfrwt beam="2">  1       21 0.57196045E-01 0.20716793E+03</pdfrwt>
<totfact> 0.79989885E+04</totfact>
</mgrwt>
</event>
<event>
 4    1  0.4510095E+000  0.2838027E+03  0.7546771E-02  0.1093630E+00
         21   -1    0    0  501  502  0.00000000000E+00  0.00000000000E+00  0.17681669189E+04  0.17681669189E+04  0.00000000000E+00 0.  1.
         21   -1    0    0  502  503 -0.00000000000E+00 -0.00000000000E+00 -0.48506815357E+02  0.48506815357E+02  0.00000000000E+00 0. -1.
          6    1    1    2  501    0 -0.19990409816E+03 -0.10321492298E+03  0.10840080003E+04  0.11205433118E+04  0.17300000000E+03 0.  1.
         -6    1    1    2    0  503  0.19990409816E+03  0.10321492298E+03  0.63565210324E+03  0.69613042251E+03  0.17300000000E+03 0. -1.
<mgrwt>
<rscale>  2 0.28380269E+03</rscale>
<asrwt>0</asrwt>
<pdfrwt beam="1">  1       21 0.27202563E+00 0.28380269E+03</pdfrwt>
<pdfrwt beam="2">  1       21 0.74625883E-02 0.28380269E+03</pdfrwt>
<totfact> 0.61833428E+03</totfact>
</mgrwt>
</event>
<event>
 4    1  0.4510095E+000  0.1953272E+03  0.7546771E-02  0.1153742E+00
         21   -1    0    0  503  502  0.00000000000E+00  0.00000000000E+00  0.23736068177E+04  0.23736068177E+04  0.00000000000E+00 0. -1.
         21   -1    0    0  501  503 -0.00000000000E+00 -0.00000000000E+00 -0.21279206801E+02  0.21279206801E+02  0.00000000000E+00 0. -1.
          6    1    1    2  501    0 -0.87236960063E+02 -0.24767264074E+02  0.58391038266E+03  0.61571425154E+03  0.17300000000E+03 0. -1.
         -6    1    1    2    0  502  0.87236960063E+02  0.24767264074E+02  0.17684172282E+04  0.17791717729E+04  0.17300000000E+03 0. -1.
<mgrwt>
<rscale>  2 0.19532717E+03</rscale>
<asrwt>0</asrwt>
<pdfrwt beam="1">  1       21 0.36517007E+00 0.19532717E+03</pdfrwt>
<pdfrwt beam="2">  1       21 0.32737260E-02 0.19532717E+03</pdfrwt>
<totfact> 0.77523847E+03</totfact>
</mgrwt>
</event>
<event>
 4    1  0.4510095E+000  0.1901349E+03  0.7546771E-02  0.1158340E+00
         21   -1    0    0  503  502  0.00000000000E+00  0.00000000000E+00  0.13662560969E+03  0.13662560969E+03  0.00000000000E+00 0.  1.
         21   -1    0    0  501  503 -0.00000000000E+00 -0.00000000000E+00 -0.76580471744E+03  0.76580471744E+03  0.00000000000E+00 0.  1.
          6    1    1    2  501    0  0.76060146965E+02  0.20907839463E+02 -0.67962225756E+03  0.70571785912E+03  0.17300000000E+03 0.  1.
         -6    1    1    2    0  502 -0.76060146965E+02 -0.20907839463E+02  0.50443149814E+02  0.19671246801E+03  0.17300000000E+03 0.  1.
<mgrwt>
<rscale>  2 0.19013491E+03</rscale>
<asrwt>0</asrwt>
<pdfrwt beam="1">  1       21 0.21019325E-01 0.19013491E+03</pdfrwt>
<pdfrwt beam="2">  1       21 0.11781611E+00 0.19013491E+03</pdfrwt>
<totfact> 0.11642987E+04</totfact>
</mgrwt>
</event>
<event>
 4    1  0.4510095E+000  0.2317092E+03  0.7546771E-02  0.1125443E+00
         21   -1    0    0  501  502  0.00000000000E+00  0.00000000000E+00  0.20540643612E+03  0.20540643612E+03  0.00000000000E+00 0.  1.
         21   -1    0    0  502  503 -0.00000000000E+00 -0.00000000000E+00 -0.26387751952E+03  0.26387751952E+03  0.00000000000E+00 0. -1.
          6    1    1    2  501    0  0.13521439793E+03  0.74008177814E+02 -0.64082215217E+01  0.23179777629E+03  0.17300000000E+03 0. -1.
         -6    1    1    2    0  503 -0.13521439793E+03 -0.74008177814E+02 -0.52062861881E+02  0.23748617934E+03  0.17300000000E+03 0. -1.
<mgrwt>
<rscale>  2 0.23170918E+03</rscale>
<asrwt>0</asrwt>
<pdfrwt beam="1">  1       21 0.31600990E-01 0.23170918E+03</pdfrwt>
<pdfrwt beam="2">  1       21 0.40596541E-01 0.23170918E+03</pdfrwt>
<totfact> 0.55293753E+04</totfact>
</mgrwt>
</event>
<event>
 4    1  0.4510095E+000  0.2279657E+03  0.7546771E-02  0.1128080E+00
         21   -1    0    0  501  502  0.00000000000E+00  0.00000000000E+00  0.20420207363E+03  0.20420207363E+03  0.00000000000E+00 0.  1.
         21   -1    0    0  502  503 -0.00000000000E+00 -0.00000000000E+00 -0.30567430835E+03  0.30567430835E+03  0.00000000000E+00 0.  1.
          6    1    1    2  501    0 -0.12095613457E+03 -0.86075312351E+02  0.53580597314E+02  0.23417776644E+03  0.17300000000E+03 0.  1.
         -6    1    1    2    0  503  0.12095613457E+03  0.86075312351E+02 -0.15505283204E+03  0.27569861554E+03  0.17300000000E+03 0.  1.
<mgrwt>
<rscale>  2 0.22796567E+03</rscale>
<asrwt>0</asrwt>
<pdfrwt beam="1">  1       21 0.31415704E-01 0.22796567E+03</pdfrwt>
<pdfrwt beam="2">  1       21 0.47026817E-01 0.22796567E+03</pdfrwt>
<totfact> 0.41421783E+04</totfact>
</mgrwt>
</event>
<event>
 4    1  0.4510095E+000  0.2196028E+03  0.7546771E-02  0.1134180E+00
         21   -1    0    0  503  502  0.00000000000E+00  0.00000000000E+00  0.76856007493E+02  0.76856007493E+02  0.00000000000E+00 0.  1.
         21   -1    0    0  501  503 -0.00000000000E+00 -0.00000000000E+00 -0.62751094057E+03  0.62751094057E+03  0.00000000000E+00 0.  1.
          6    1    1    2  501    0 -0.11227346166E+03  0.75439072577E+02 -0.27274076226E+03  0.35016125894E+03  0.17300000000E+03 0.  1.
         -6    1    1    2    0  502  0.11227346166E+03 -0.75439072577E+02 -0.27791417082E+03  0.35420568912E+03  0.17300000000E+03 0.  1.
<mgrwt>
<rscale>  2 0.21960279E+03</rscale>
<asrwt>0</asrwt>
<pdfrwt beam="1">  1       21 0.11824001E-01 0.21960279E+03</pdfrwt>
<pdfrwt beam="2">  1       21 0.96540144E-01 0.21960279E+03</pdfrwt>
<totfact> 0.53044569E+04</totfact>
</mgrwt>
</event>
<event>
 4    1  0.4510095E+000  0.2079287E+03  0.7546771E-02  0.1143217E+00
         21   -1    0    0  501  502  0.00000000000E+00  0.00000000000E+00  0.55669494043E+03  0.55669494043E+03  0.00000000000E+00 0. -1.
         21   -1    0    0  502  503 -0.00000000000E+00 -0.00000000000E+00 -0.12578983893E+03  0.12578983893E+03  0.00000000000E+00 0. -1.
          6    1    1    2  501    0  0.10689795336E+03  0.43337938307E+02  0.42652710828E+03  0.47450998243E+03  0.17300000000E+03 0. -1.
         -6    1    1    2    0  503 -0.10689795336E+03 -0.43337938307E+02  0.43779932187E+01  0.20797479692E+03  0.17300000000E+03 0. -1.
<mgrwt>
<rscale>  2 0.20792871E+03</rscale>
<asrwt>0</asrwt>
<pdfrwt beam="1">  1       21 0.85645374E-01 0.20792871E+03</pdfrwt>
<pdfrwt beam="2">  1       21 0.19352283E-01 0.20792871E+03</pdfrwt>
<totfact> 0.28657592E+04</totfact>
</mgrwt>
</event>
<event>
 4    1  0.4510095E+000  0.3092658E+03  0.7546771E-02  0.1080698E+00
         21   -1    0    0  501  502  0.00000000000E+00  0.00000000000E+00  0.22305219743E+03  0.22305219743E+03  0.00000000000E+00 0.  1.
         21   -1    0    0  502  503 -0.00000000000E+00 -0.00000000000E+00 -0.43789247562E+03  0.43789247562E+03  0.00000000000E+00 0. -1.
          6    1    1    2  501    0 -0.40220199432E+02 -0.25317713763E+03 -0.59806205721E+02  0.31499541219E+03  0.17300000000E+03 0.  1.
         -6    1    1    2    0  503  0.40220199432E+02  0.25317713763E+03 -0.15503407248E+03  0.34594926086E+03  0.17300000000E+03 0. -1.
<mgrwt>
<rscale>  2 0.30926579E+03</rscale>
<asrwt>0</asrwt>
<pdfrwt beam="1">  1       21 0.34315723E-01 0.30926579E+03</pdfrwt>
<pdfrwt beam="2">  1       21 0.67368073E-01 0.30926579E+03</pdfrwt>
<totfact> 0.15541164E+04</totfact>
</mgrwt>
</event>
<event>
 4    1  0.4510095E+000  0.1964562E+03  0.7546771E-02  0.1152764E+00
         21   -1    0    0  503  502  0.00000000000E+00  0.00000000000E+00  0.53287646891E+02  0.53287646891E+02  0.00000000000E+00 0. -1.
         21   -1    0    0  501  503 -0.00000000000E+00 -0.00000000000E+00 -0.81716450291E+03  0.81716450291E+03  0.00000000000E+00 0. -1.
          6    1    1    2  501    0 -0.83913083665E+02 -0.40306869109E+02 -0.52867466851E+03  0.56399641349E+03  0.17300000000E+03 0. -1.
         -6    1    1    2    0  502  0.83913083665E+02  0.40306869109E+02 -0.23520218751E+03  0.30645573631E+03  0.17300000000E+03 0. -1.
<mgrwt>
<rscale>  2 0.19645623E+03</rscale>
<asrwt>0</asrwt>
<pdfrwt beam="1">  1       21 0.81980996E-02 0.19645623E+03</pdfrwt>
<pdfrwt beam="2">  1       21 0.12571761E+00 0.19645623E+03</pdfrwt>
<totfact> 0.53967308E+04</totfact>
</mgrwt>
</event>
<event>
 4    1  0.4510095E+000  0.2275251E+03  0.7546771E-02  0.1128394E+00
         21   -1    0    0  501  502  0.00000000000E+00  0.00000000000E+00  0.13462232692E+03  0.13462232692E+03  0.00000000000E+00 0. -1.
         21   -1    0    0  502  503 -0.00000000000E+00 -0.00000000000E+00 -0.46921654711E+03  0.46921654711E+03  0.00000000000E+00 0.  1.
          6    1    1    2  501    0  0.51451360131E+02 -0.13853314365E+03 -0.29555553227E+03  0.37298893684E+03  0.17300000000E+03 0.  1.
         -6    1    1    2    0  503 -0.51451360131E+02  0.13853314365E+03 -0.39038687928E+02  0.23084993720E+03  0.17300000000E+03 0. -1.
<mgrwt>
<rscale>  2 0.22752511E+03</rscale>
<asrwt>0</asrwt>
<pdfrwt beam="1">  1       21 0.20711127E-01 0.22752511E+03</pdfrwt>
<pdfrwt beam="2">  1       21 0.72187160E-01 0.22752511E+03</pdfrwt>
<totfact> 0.36771447E+04</totfact>
</mgrwt>
</event>
<event>
 4    1  0.4510095E+000  0.1810558E+03  0.7546771E-02  0.1166785E+00
         21   -1    0    0  501  502  0.00000000000E+00  0.00000000000E+00  0.13404878991E+03  0.13404878991E+03  0.00000000000E+00 0. -1.
         21   -1    0    0  502  503 -0.00000000000E+00 -0.00000000000E+00 -0.14473958795E+04  0.14473958795E+04  0.00000000000E+00 0. -1.
          6    1    1    2  501    0 -0.48090786134E+02 -0.23226875047E+02  0.64161509511E+02  0.19208828891E+03  0.17300000000E+03 0. -1.
         -6    1    1    2    0  503  0.48090786134E+02  0.23226875047E+02 -0.13775085991E+04  0.13893563805E+04  0.17300000000E+03 0. -1.
<mgrwt>
<rscale>  2 0.18105582E+03</rscale>
<asrwt>0</asrwt>
<pdfrwt beam="1">  1       21 0.20622892E-01 0.18105582E+03</pdfrwt>
<pdfrwt beam="2">  1       21 0.22267628E+00 0.18105582E+03</pdfrwt>
<totfact> 0.21388104E+03</totfact>
</mgrwt>
</event>
<event>
 4    1  0.4510095E+000  0.2675457E+03  0.7546771E-02  0.1102693E+00
         21   -1    0    0  503  502  0.00000000000E+00  0.00000000000E+00  0.70943759582E+02  0.70943759582E+02  0.00000000000E+00 0.  1.
         21   -1    0    0  501  503 -0.00000000000E+00 -0.00000000000E+00 -0.12248307036E+04  0.12248307036E+04  0.00000000000E+00 0.  1.
          6    1    1    2  501    0  0.34661223158E+02 -0.20112256308E+03 -0.84892551572E+03  0.89008719629E+03  0.17300000000E+03 0.  1.
         -6    1    1    2    0  502 -0.34661223158E+02  0.20112256308E+03 -0.30496142833E+03  0.40568726692E+03  0.17300000000E+03 0.  1.
<mgrwt>
<rscale>  2 0.26754567E+03</rscale>
<asrwt>0</asrwt>
<pdfrwt beam="1">  1       21 0.10914426E-01 0.26754567E+03</pdfrwt>
<pdfrwt beam="2">  1       21 0.18843547E+00 0.26754567E+03</pdfrwt>
<totfact> 0.10528183E+04</totfact>
</mgrwt>
</event>
<event>
 4    1  0.4510095E+000  0.1978450E+03  0.7546771E-02  0.1151570E+00
         21   -1    0    0  503  502  0.00000000000E+00  0.00000000000E+00  0.19583719717E+02  0.19583719717E+02  0.00000000000E+00 0.  1.
         21   -1    0    0  501  503 -0.00000000000E+00 -0.00000000000E+00 -0.23087321996E+04  0.23087321996E+04  0.00000000000E+00 0.  1.
          6    1    1    2  501    0 -0.95985525800E+02 -0.65579947139E+00 -0.15711582242E+04  0.15835658549E+04  0.17300000000E+03 0.  1.
         -6    1    1    2    0  502  0.95985525800E+02  0.65579947139E+00 -0.71799025564E+03  0.74475006440E+03  0.17300000000E+03 0.  1.
<mgrwt>
<rscale>  2 0.19784502E+03</rscale>
<asrwt>0</asrwt>
<pdfrwt beam="1">  1       21 0.30128810E-02 0.19784502E+03</pdfrwt>
<pdfrwt beam="2">  1       21 0.35518945E+00 0.19784502E+03</pdfrwt>
<totfact> 0.10173795E+04</totfact>
</mgrwt>
</event>
<event>
 4    1  0.4510095E+000  0.1742351E+03  0.7546771E-02  0.1173502E+00
         21   -1    0    0  501  502  0.00000000000E+00  0.00000000000E+00  0.72481144857E+02  0.72481144857E+02  0.00000000000E+00 0. -1.
         21   -1    0    0  502  503 -0.00000000000E+00 -0.00000000000E+00 -0.45093324123E+03  0.45093324123E+03  0.00000000000E+00 0. -1.
          6    1    1    2  501    0  0.10268693610E+02  0.17983572135E+02 -0.11940600410E+03  0.21122416706E+03  0.17300000000E+03 0. -1.
         -6    1    1    2    0  503 -0.10268693610E+02 -0.17983572135E+02 -0.25904609227E+03  0.31219021903E+03  0.17300000000E+03 0. -1.
<mgrwt>
<rscale>  2 0.17423506E+03</rscale>
<asrwt>0</asrwt>
<pdfrwt beam="1">  1       21 0.11150946E-01 0.17423506E+03</pdfrwt>
<pdfrwt beam="2">  1       21 0.69374344E-01 0.17423506E+03</pdfrwt>
<totfact> 0.12726237E+05</totfact>
</mgrwt>
</event>
<event>
 4    1  0.4510095E+000  0.1908212E+03  0.7546771E-02  0.1157723E+00
         21   -1    0    0  501  502  0.00000000000E+00  0.00000000000E+00  0.40443490475E+02  0.40443490475E+02  0.00000000000E+00 0. -1.
         21   -1    0    0  502  503 -0.00000000000E+00 -0.00000000000E+00 -0.95913712392E+03  0.95913712392E+03  0.00000000000E+00 0. -1.
          6    1    1    2  501    0 -0.77005175015E+02  0.23535989482E+02 -0.58309517318E+03  0.61352483304E+03  0.17300000000E+03 0. -1.
         -6    1    1    2    0  503  0.77005175015E+02 -0.23535989482E+02 -0.33559846027E+03  0.38605578136E+03  0.17300000000E+03 0. -1.
<mgrwt>
<rscale>  2 0.19082122E+03</rscale>
<asrwt>0</asrwt>
<pdfrwt beam="1">  1       21 0.62220749E-02 0.19082122E+03</pdfrwt>
<pdfrwt beam="2">  1       21 0.14755957E+00 0.19082122E+03</pdfrwt>
<totfact> 0.57874344E+04</totfact>
</mgrwt>
</event>
<event>
 4    1  0.4510095E+000  0.2149615E+03  0.7546771E-02  0.1137696E+00
         21   -1    0    0  501  502  0.00000000000E+00  0.00000000000E+00  0.23847819703E+03  0.23847819703E+03  0.00000000000E+00 0.  1.
         21   -1    0    0  502  503 -0.00000000000E+00 -0.00000000000E+00 -0.35724161353E+03  0.35724161353E+03  0.00000000000E+00 0. -1.
          6    1    1    2  501    0  0.12691129280E+03  0.13151715240E+02  0.14211150563E+03  0.25768997630E+03  0.17300000000E+03 0.  1.
         -6    1    1    2    0  503 -0.12691129280E+03 -0.13151715240E+02 -0.26087492212E+03  0.33802983426E+03  0.17300000000E+03 0. -1.
<mgrwt>
<rscale>  2 0.21496149E+03</rscale>
<asrwt>0</asrwt>
<pdfrwt beam="1">  1       21 0.36688953E-01 0.21496149E+03</pdfrwt>
<pdfrwt beam="2">  1       21 0.54960248E-01 0.21496149E+03</pdfrwt>
<totfact> 0.22095875E+04</totfact>
</mgrwt>
</event>
<event>
 4    1  0.4510095E+000  0.1838716E+03  0.7546771E-02  0.1164108E+00
         21   -1    0    0  501  502  0.00000000000E+00  0.00000000000E+00  0.12592680450E+03  0.12592680450E+03  0.00000000000E+00 0.  1.
         21   -1    0    0  502  503 -0.00000000000E+00 -0.00000000000E+00 -0.32240912847E+03  0.32240912847E+03  0.00000000000E+00 0.  1.
          6    1    1    2  501    0 -0.59470439971E+02  0.18521272107E+02 -0.65592980849E+01  0.18398857340E+03  0.17300000000E+03 0.  1.
         -6    1    1    2    0  503  0.59470439971E+02 -0.18521272107E+02 -0.18992302588E+03  0.26434735957E+03  0.17300000000E+03 0.  1.
<mgrwt>
<rscale>  2 0.18387161E+03</rscale>
<asrwt>0</asrwt>
<pdfrwt beam="1">  1       21 0.19373355E-01 0.18387161E+03</pdfrwt>
<pdfrwt beam="2">  1       21 0.49601403E-01 0.18387161E+03</pdfrwt>
<totfact> 0.95226705E+04</totfact>
</mgrwt>
</event>
<event>
 4    1  0.4510095E+000  0.2872986E+03  0.7546771E-02  0.1091768E+00
         21   -1    0    0  501  502  0.00000000000E+00  0.00000000000E+00  0.14955783027E+03  0.14955783027E+03  0.00000000000E+00 0.  1.
         21   -1    0    0  502  503 -0.00000000000E+00 -0.00000000000E+00 -0.10540257379E+04  0.10540257379E+04  0.00000000000E+00 0. -1.
          6    1    1    2  501    0  0.47561023383E+02  0.22438677653E+03 -0.36870478067E+02  0.28965480935E+03  0.17300000000E+03 0.  1.
         -6    1    1    2    0  503 -0.47561023383E+02 -0.22438677653E+03 -0.86759742959E+03  0.91392875885E+03  0.17300000000E+03 0. -1.
<mgrwt>
<rscale>  2 0.28729858E+03</rscale>
<asrwt>0</asrwt>
<pdfrwt beam="1">  1       21 0.23008897E-01 0.28729858E+03</pdfrwt>
<pdfrwt beam="2">  1       21 0.16215781E+00 0.28729858E+03</pdfrwt>
<totfact> 0.40154459E+03</totfact>
</mgrwt>
</event>
<event>
 4    1  0.4510095E+000  0.2089080E+03  0.7546771E-02  0.1142434E+00
         21   -1    0    0  503  502  0.00000000000E+00  0.00000000000E+00  0.93418936685E+03  0.93418936685E+03  0.00000000000E+00 0. -1.
         21   -1    0    0  501  503 -0.00000000000E+00 -0.00000000000E+00 -0.14021521971E+03  0.14021521971E+03  0.00000000000E+00 0.  1.
          6    1    1    2  501    0 -0.54836277732E+02  0.10347230907E+03 -0.41686953846E+02  0.21302661388E+03  0.17300000000E+03 0.  1.
         -6    1    1    2    0  502  0.54836277732E+02 -0.10347230907E+03  0.83566110099E+03  0.86137797267E+03  0.17300000000E+03 0. -1.
<mgrwt>
<rscale>  2 0.20890796E+03</rscale>
<asrwt>0</asrwt>
<pdfrwt beam="1">  1       21 0.14372144E+00 0.20890796E+03</pdfrwt>
<pdfrwt beam="2">  1       21 0.21571573E-01 0.20890796E+03</pdfrwt>
<totfact> 0.66111213E+03</totfact>
</mgrwt>
</event>
<event>
 4    1  0.4510095E+000  0.3466585E+03  0.7546771E-02  0.1063995E+00
         21   -1    0    0  503  502  0.00000000000E+00  0.00000000000E+00  0.28513220897E+03  0.28513220897E+03  0.00000000000E+00 0.  1.
         21   -1    0    0  501  503 -0.00000000000E+00 -0.00000000000E+00 -0.99357908093E+03  0.99357908093E+03  0.00000000000E+00 0.  1.
          6    1    1    2  501    0 -0.45298193970E+02 -0.29697001829E+03 -0.83938244994E+03  0.90814922530E+03  0.17300000000E+03 0.  1.
         -6    1    1    2    0  502  0.45298193970E+02  0.29697001829E+03  0.13093557798E+03  0.37056206460E+03  0.17300000000E+03 0.  1.
<mgrwt>
<rscale>  2 0.34665850E+03</rscale>
<asrwt>0</asrwt>
<pdfrwt beam="1">  1       21 0.43866494E-01 0.34665850E+03</pdfrwt>
<pdfrwt beam="2">  1       21 0.15285832E+00 0.34665850E+03</pdfrwt>
<totfact> 0.12646351E+03</totfact>
</mgrwt>
</event>
<event>
 4    1  0.4510095E+000  0.1766265E+03  0.7546771E-02  0.1171108E+00
         21   -1    0    0  503  502  0.00000000000E+00  0.00000000000E+00  0.17022329826E+03  0.17022329826E+03  0.00000000000E+00 0. -1.
         21   -1    0    0  501  503 -0.00000000000E+00 -0.00000000000E+00 -0.18507080251E+03  0.18507080251E+03  0.00000000000E+00 0.  1.
          6    1    1    2  501    0  0.22268642675E+02  0.27785220095E+02 -0.24944814352E+02  0.17837924393E+03  0.17300000000E+03 0.  1.
         -6    1    1    2    0  502 -0.22268642675E+02 -0.27785220095E+02  0.10097310102E+02  0.17691485685E+03  0.17300000000E+03 0.  1.
<mgrwt>
<rscale>  2 0.17662647E+03</rscale>
<asrwt>0</asrwt>
<pdfrwt beam="1">  1       21 0.26188200E-01 0.17662647E+03</pdfrwt>
<pdfrwt beam="2">  1       21 0.28472431E-01 0.17662647E+03</pdfrwt>
<totfact> 0.16428285E+05</totfact>
</mgrwt>
</event>
<event>
 4    1  0.4510095E+000  0.1791402E+03  0.7546771E-02  0.1168638E+00
         21   -1    0    0  501  502  0.00000000000E+00  0.00000000000E+00  0.55418417321E+02  0.55418417321E+02  0.00000000000E+00 0. -1.
         21   -1    0    0  502  503 -0.00000000000E+00 -0.00000000000E+00 -0.61973555039E+03  0.61973555039E+03  0.00000000000E+00 0. -1.
          6    1    1    2  501    0 -0.34958540719E+02 -0.30660959805E+02 -0.19568606423E+03  0.26530026340E+03  0.17300000000E+03 0. -1.
         -6    1    1    2    0  503  0.34958540719E+02  0.30660959805E+02 -0.36863106885E+03  0.40985370432E+03  0.17300000000E+03 0. -1.
<mgrwt>
<rscale>  2 0.17914015E+03</rscale>
<asrwt>0</asrwt>
<pdfrwt beam="1">  1       21 0.85259100E-02 0.17914015E+03</pdfrwt>
<pdfrwt beam="2">  1       21 0.95343935E-01 0.17914015E+03</pdfrwt>
<totfact> 0.99187515E+04</totfact>
</mgrwt>
</event>
<event>
 4    1  0.4510095E+000  0.1816948E+03  0.7546771E-02  0.1166173E+00
         21   -1    0    0  501  502  0.00000000000E+00  0.00000000000E+00  0.67426771353E+03  0.67426771353E+03  0.00000000000E+00 0. -1.
         21   -1    0    0  502  503 -0.00000000000E+00 -0.00000000000E+00 -0.17767669025E+03  0.17767669025E+03  0.00000000000E+00 0. -1.
          6    1    1    2  501    0 -0.20014124122E+02 -0.51801912879E+02  0.61085670787E+03  0.63730598686E+03  0.17300000000E+03 0. -1.
         -6    1    1    2    0  503  0.20014124122E+02  0.51801912879E+02 -0.11426568459E+03  0.21463841692E+03  0.17300000000E+03 0. -1.
<mgrwt>
<rscale>  2 0.18169481E+03</rscale>
<asrwt>0</asrwt>
<pdfrwt beam="1">  1       21 0.10373349E+00 0.18169481E+03</pdfrwt>
<pdfrwt beam="2">  1       21 0.27334876E-01 0.18169481E+03</pdfrwt>
<totfact> 0.96755640E+03</totfact>
</mgrwt>
</event>
<event>
 4    1  0.4510095E+000  0.2718002E+03  0.7546771E-02  0.1100254E+00
         21   -1    0    0  501  502  0.00000000000E+00  0.00000000000E+00  0.65949783260E+03  0.65949783260E+03  0.00000000000E+00 0. -1.
         21   -1    0    0  502  503 -0.00000000000E+00 -0.00000000000E+00 -0.57350488448E+03  0.57350488448E+03  0.00000000000E+00 0.  1.
          6    1    1    2  501    0 -0.18695751119E+03 -0.94832787446E+02  0.59602221218E+03  0.65507087096E+03  0.17300000000E+03 0. -1.
         -6    1    1    2    0  503  0.18695751119E+03  0.94832787446E+02 -0.51002926406E+03  0.57793184612E+03  0.17300000000E+03 0.  1.
<mgrwt>
<rscale>  2 0.27180024E+03</rscale>
<asrwt>0</asrwt>
<pdfrwt beam="1">  1       21 0.10146120E+00 0.27180024E+03</pdfrwt>
<pdfrwt beam="2">  1       21 0.88231521E-01 0.27180024E+03</pdfrwt>
<totfact> 0.81348099E+02</totfact>
</mgrwt>
</event>
<event>
 4    1  0.4510095E+000  0.1999252E+03  0.7546771E-02  0.1149802E+00
         21   -1    0    0  503  502  0.00000000000E+00  0.00000000000E+00  0.41701035951E+03  0.41701035951E+03  0.00000000000E+00 0.  1.
         21   -1    0    0  501  503 -0.00000000000E+00 -0.00000000000E+00 -0.44140745163E+03  0.44140745163E+03  0.00000000000E+00 0.  1.
          6    1    1    2  501    0  0.92280128378E+02 -0.39057423156E+02 -0.39195882326E+03  0.44000207219E+03  0.17300000000E+03 0.  1.
         -6    1    1    2    0  502 -0.92280128378E+02  0.39057423156E+02  0.36756173115E+03  0.41841573895E+03  0.17300000000E+03 0.  1.
<mgrwt>
<rscale>  2 0.19992525E+03</rscale>
<asrwt>0</asrwt>
<pdfrwt beam="1">  1       21 0.64155440E-01 0.19992525E+03</pdfrwt>
<pdfrwt beam="2">  1       21 0.67908839E-01 0.19992525E+03</pdfrwt>
<totfact> 0.44157657E+03</totfact>
</mgrwt>
</event>
<event>
 4    1  0.4510095E+000  0.2186817E+03  0.7546771E-02  0.1134870E+00
         21   -1    0    0  501  502  0.00000000000E+00  0.00000000000E+00  0.39336942155E+03  0.39336942155E+03  0.00000000000E+00 0.  1.
         21   -1    0    0  502  503 -0.00000000000E+00 -0.00000000000E+00 -0.14733831917E+03  0.14733831917E+03  0.00000000000E+00 0.  1.
          6    1    1    2  501    0  0.12630738525E+03  0.44035431983E+02  0.23607921264E+03  0.32179973505E+03  0.17300000000E+03 0.  1.
         -6    1    1    2    0  503 -0.12630738525E+03 -0.44035431983E+02  0.99518897389E+01  0.21890800567E+03  0.17300000000E+03 0.  1.
<mgrwt>
<rscale>  2 0.21868167E+03</rscale>
<asrwt>0</asrwt>
<pdfrwt beam="1">  1       21 0.60518372E-01 0.21868167E+03</pdfrwt>
<pdfrwt beam="2">  1       21 0.22667434E-01 0.21868167E+03</pdfrwt>
<totfact> 0.45822368E+04</totfact>
</mgrwt>
</event>
<event>
 4    1  0.4510095E+000  0.2159620E+03  0.7546771E-02  0.1136930E+00
         21   -1    0    0  501  502  0.00000000000E+00  0.00000000000E+00  0.18135699543E+03  0.18135699543E+03  0.00000000000E+00 0.  1.
         21   -1    0    0  502  503 -0.00000000000E+00 -0.00000000000E+00 -0.27023411984E+03  0.27023411984E+03  0.00000000000E+00 0. -1.
          6    1    1    2  501    0  0.43531712218E+02 -0.12171931461E+03  0.52073244633E+01  0.21602480817E+03  0.17300000000E+03 0.  1.
         -6    1    1    2    0  503 -0.43531712218E+02  0.12171931461E+03 -0.94084448870E+02  0.23556630709E+03  0.17300000000E+03 0. -1.
<mgrwt>
<rscale>  2 0.21596204E+03</rscale>
<asrwt>0</asrwt>
<pdfrwt beam="1">  1       21 0.27901076E-01 0.21596204E+03</pdfrwt>
<pdfrwt beam="2">  1       21 0.41574480E-01 0.21596204E+03</pdfrwt>
<totfact> 0.67632962E+04</totfact>
</mgrwt>
</event>
<event>
 4    1  0.4510095E+000  0.2278271E+03  0.7546771E-02  0.1128179E+00
         21   -1    0    0  503  502  0.00000000000E+00  0.00000000000E+00  0.19719084712E+03  0.19719084712E+03  0.00000000000E+00 0. -1.
         21   -1    0    0  501  503 -0.00000000000E+00 -0.00000000000E+00 -0.26801722762E+03  0.26801722762E+03  0.00000000000E+00 0. -1.
          6    1    1    2  501    0  0.10599778654E+03 -0.10363703903E+03 -0.43035378069E+01  0.22786769637E+03  0.17300000000E+03 0. -1.
         -6    1    1    2    0  502 -0.10599778654E+03  0.10363703903E+03 -0.66522842693E+02  0.23734037838E+03  0.17300000000E+03 0. -1.
<mgrwt>
<rscale>  2 0.22782705E+03</rscale>
<asrwt>0</asrwt>
<pdfrwt beam="1">  1       21 0.30337054E-01 0.22782705E+03</pdfrwt>
<pdfrwt beam="2">  1       21 0.41233419E-01 0.22782705E+03</pdfrwt>
<totfact> 0.58135284E+04</totfact>
</mgrwt>
</event>
<event>
 4    1  0.4510095E+000  0.1837164E+03  0.7546771E-02  0.1164254E+00
         21   -1    0    0  501  502  0.00000000000E+00  0.00000000000E+00  0.62449936495E+03  0.62449936495E+03  0.00000000000E+00 0.  1.
         21   -1    0    0  502  503 -0.00000000000E+00 -0.00000000000E+00 -0.65223733199E+02  0.65223733199E+02  0.00000000000E+00 0.  1.
          6    1    1    2  501    0  0.61784977671E+02 -0.23061075839E+01  0.42240176090E+03  0.46062452085E+03  0.17300000000E+03 0. -1.
         -6    1    1    2    0  503 -0.61784977671E+02  0.23061075839E+01  0.13687387085E+03  0.22909857730E+03  0.17300000000E+03 0. -1.
<mgrwt>
<rscale>  2 0.18371636E+03</rscale>
<asrwt>0</asrwt>
<pdfrwt beam="1">  1       21 0.96076822E-01 0.18371636E+03</pdfrwt>
<pdfrwt beam="2">  1       21 0.10034421E-01 0.18371636E+03</pdfrwt>
<totfact> 0.73055447E+04</totfact>
</mgrwt>
</event>
<event>
 4    1  0.4510095E+000  0.1795815E+03  0.7546771E-02  0.1168209E+00
         21   -1    0    0  501  502  0.00000000000E+00  0.00000000000E+00  0.24717205518E+04  0.24717205518E+04  0.00000000000E+00 0.  1.
         21   -1    0    0  502  503 -0.00000000000E+00 -0.00000000000E+00 -0.18513252027E+02  0.18513252027E+02  0.00000000000E+00 0.  1.
          6    1    1    2  501    0 -0.45488583177E+02  0.15852151036E+02  0.19031508578E+04  0.19116047420E+04  0.17300000000E+03 0.  1.
         -6    1    1    2    0  503  0.45488583177E+02 -0.15852151036E+02  0.55005644192E+03  0.57862906183E+03  0.17300000000E+03 0.  1.
<mgrwt>
<rscale>  2 0.17958146E+03</rscale>
<asrwt>0</asrwt>
<pdfrwt beam="1">  1       21 0.38026444E+00 0.17958146E+03</pdfrwt>
<pdfrwt beam="2">  1       21 0.28481946E-02 0.17958146E+03</pdfrwt>
<totfact> 0.80829882E+03</totfact>
</mgrwt>
</event>
<event>
 4    1  0.4510095E+000  0.2186390E+03  0.7546771E-02  0.1134902E+00
         21   -1    0    0  501  502  0.00000000000E+00  0.00000000000E+00  0.31709695486E+03  0.31709695486E+03  0.00000000000E+00 0.  1.
         21   -1    0    0  502  503 -0.00000000000E+00 -0.00000000000E+00 -0.15308287289E+03  0.15308287289E+03  0.00000000000E+00 0.  1.
          6    1    1    2  501    0 -0.38791321690E+02  0.12794240212E+03  0.11101537025E+03  0.24520896666E+03  0.17300000000E+03 0.  1.
         -6    1    1    2    0  503  0.38791321690E+02 -0.12794240212E+03  0.52998711716E+02  0.22497086110E+03  0.17300000000E+03 0.  1.
<mgrwt>
<rscale>  2 0.21863903E+03</rscale>
<asrwt>0</asrwt>
<pdfrwt beam="1">  1       21 0.48784147E-01 0.21863903E+03</pdfrwt>
<pdfrwt beam="2">  1       21 0.23551211E-01 0.21863903E+03</pdfrwt>
<totfact> 0.67284388E+04</totfact>
</mgrwt>
</event>
<event>
 4    1  0.4510095E+000  0.1999912E+03  0.7546771E-02  0.1149746E+00
         21   -1    0    0  503  502  0.00000000000E+00  0.00000000000E+00  0.18904978144E+03  0.18904978144E+03  0.00000000000E+00 0. -1.
         21   -1    0    0  501  503 -0.00000000000E+00 -0.00000000000E+00 -0.24800197770E+03  0.24800197770E+03  0.00000000000E+00 0. -1.
          6    1    1    2  501    0  0.97179759655E+02 -0.24971506751E+02 -0.11323698796E+03  0.22982405722E+03  0.17300000000E+03 0. -1.
         -6    1    1    2    0  502 -0.97179759655E+02  0.24971506751E+02  0.54284791694E+02  0.20722770193E+03  0.17300000000E+03 0. -1.
<mgrwt>
<rscale>  2 0.19999120E+03</rscale>
<asrwt>0</asrwt>
<pdfrwt beam="1">  1       21 0.29084582E-01 0.19999120E+03</pdfrwt>
<pdfrwt beam="2">  1       21 0.38154150E-01 0.19999120E+03</pdfrwt>
<totfact> 0.74739296E+04</totfact>
</mgrwt>
</event>
<event>
 4    1  0.4510095E+000  0.2058684E+03  0.7546771E-02  0.1144880E+00
         21   -1    0    0  501  502  0.00000000000E+00  0.00000000000E+00  0.66633913532E+03  0.66633913532E+03  0.00000000000E+00 0. -1.
         21   -1    0    0  502  503 -0.00000000000E+00 -0.00000000000E+00 -0.69354849804E+02  0.69354849804E+02  0.00000000000E+00 0.  1.
          6    1    1    2  501    0  0.61962494930E+02 -0.92808740759E+02  0.40441654141E+03  0.45380012352E+03  0.17300000000E+03 0. -1.
         -6    1    1    2    0  503 -0.61962494930E+02  0.92808740759E+02  0.19256774410E+03  0.28189386160E+03  0.17300000000E+03 0.  1.
<mgrwt>
<rscale>  2 0.20586844E+03</rscale>
<asrwt>0</asrwt>
<pdfrwt beam="1">  1       21 0.10251371E+00 0.20586844E+03</pdfrwt>
<pdfrwt beam="2">  1       21 0.10669977E-01 0.20586844E+03</pdfrwt>
<totfact> 0.55608548E+04</totfact>
</mgrwt>
</event>
<event>
 4    1  0.4510095E+000  0.2537287E+03  0.7546771E-02  0.1110971E+00
         21   -1    0    0  503  502  0.00000000000E+00  0.00000000000E+00  0.33558967071E+03  0.33558967071E+03  0.00000000000E+00 0.  1.
         21   -1    0    0  501  503 -0.00000000000E+00 -0.00000000000E+00 -0.31155221923E+03  0.31155221923E+03  0.00000000000E+00 0.  1.
          6    1    1    2  501    0  0.31817970994E+02 -0.18285744869E+03 -0.18855789965E+03  0.31612072273E+03  0.17300000000E+03 0.  1.
         -6    1    1    2    0  502 -0.31817970994E+02  0.18285744869E+03  0.21259535112E+03  0.33102116721E+03  0.17300000000E+03 0.  1.
<mgrwt>
<rscale>  2 0.25372865E+03</rscale>
<asrwt>0</asrwt>
<pdfrwt beam="1">  1       21 0.51629180E-01 0.25372865E+03</pdfrwt>
<pdfrwt beam="2">  1       21 0.47931111E-01 0.25372865E+03</pdfrwt>
<totfact> 0.14311077E+04</totfact>
</mgrwt>
</event>
<event>
 4    1  0.4510095E+000  0.1957974E+03  0.7546771E-02  0.1153334E+00
         21   -1    0    0  501  502  0.00000000000E+00  0.00000000000E+00  0.47394341941E+02  0.47394341941E+02  0.00000000000E+00 0.  1.
         21   -1    0    0  502  503 -0.00000000000E+00 -0.00000000000E+00 -0.85974253507E+03  0.85974253507E+03  0.00000000000E+00 0. -1.
          6    1    1    2  501    0 -0.27333938789E+02 -0.87524119667E+02 -0.29585965805E+03  0.35478099300E+03  0.17300000000E+03 0.  1.
         -6    1    1    2    0  503  0.27333938789E+02  0.87524119667E+02 -0.51648853508E+03  0.55235588401E+03  0.17300000000E+03 0. -1.
<mgrwt>
<rscale>  2 0.19579738E+03</rscale>
<asrwt>0</asrwt>
<pdfrwt beam="1">  1       21 0.72914370E-02 0.19579738E+03</pdfrwt>
<pdfrwt beam="2">  1       21 0.13226809E+00 0.19579738E+03</pdfrwt>
<totfact> 0.58229842E+04</totfact>
</mgrwt>
</event>
<event>
 4    1  0.4510095E+000  0.1899567E+03  0.7546771E-02  0.1158500E+00
         21   -1    0    0  503  502  0.00000000000E+00  0.00000000000E+00  0.15102225234E+03  0.15102225234E+03  0.00000000000E+00 0. -1.
         21   -1    0    0  501  503 -0.00000000000E+00 -0.00000000000E+00 -0.24096465698E+03  0.24096465698E+03  0.00000000000E+00 0. -1.
          6    1    1    2  501    0 -0.78413076623E+02  0.24368413343E+01 -0.26955535044E+02  0.19185971346E+03  0.17300000000E+03 0. -1.
         -6    1    1    2    0  502  0.78413076623E+02 -0.24368413343E+01 -0.62986869597E+02  0.20012719586E+03  0.17300000000E+03 0. -1.
<mgrwt>
<rscale>  2 0.18995670E+03</rscale>
<asrwt>0</asrwt>
<pdfrwt beam="1">  1       21 0.23234193E-01 0.18995670E+03</pdfrwt>
<pdfrwt beam="2">  1       21 0.37071486E-01 0.18995670E+03</pdfrwt>
<totfact> 0.12230505E+05</totfact>
</mgrwt>
</event>
<event>
 4    1  0.4510095E+000  0.2568765E+03  0.7546771E-02  0.1109035E+00
         21   -1    0    0  503  502  0.00000000000E+00  0.00000000000E+00  0.97399735869E+02  0.97399735869E+02  0.00000000000E+00 0.  1.
         21   -1    0    0  501  503 -0.00000000000E+00 -0.00000000000E+00 -0.68485913068E+03  0.68485913068E+03  0.00000000000E+00 0.  1.
          6    1    1    2  501    0 -0.17774998909E+03  0.66794147060E+02 -0.25310585032E+03  0.36062180767E+03  0.17300000000E+03 0.  1.
         -6    1    1    2    0  502  0.17774998909E+03 -0.66794147060E+02 -0.33435354450E+03  0.42163705888E+03  0.17300000000E+03 0.  1.
<mgrwt>
<rscale>  2 0.25687646E+03</rscale>
<asrwt>0</asrwt>
<pdfrwt beam="1">  1       21 0.14984575E-01 0.25687646E+03</pdfrwt>
<pdfrwt beam="2">  1       21 0.10536294E+00 0.25687646E+03</pdfrwt>
<totfact> 0.27530971E+04</totfact>
</mgrwt>
</event>
<event>
 4    1  0.4510095E+000  0.1809555E+03  0.7546771E-02  0.1166882E+00
         21   -1    0    0  503  502  0.00000000000E+00  0.00000000000E+00  0.17999417403E+03  0.17999417403E+03  0.00000000000E+00 0. -1.
         21   -1    0    0  501  503 -0.00000000000E+00 -0.00000000000E+00 -0.18282004466E+03  0.18282004466E+03  0.00000000000E+00 0. -1.
          6    1    1    2  501    0 -0.50023483800E+02  0.17706809902E+02 -0.14127993092E+02  0.18150614380E+03  0.17300000000E+03 0. -1.
         -6    1    1    2    0  502  0.50023483800E+02 -0.17706809902E+02  0.11302122466E+02  0.18130807489E+03  0.17300000000E+03 0. -1.
<mgrwt>
<rscale>  2 0.18095546E+03</rscale>
<asrwt>0</asrwt>
<pdfrwt beam="1">  1       21 0.27691412E-01 0.18095546E+03</pdfrwt>
<pdfrwt beam="2">  1       21 0.28126161E-01 0.18095546E+03</pdfrwt>
<totfact> 0.15090093E+05</totfact>
</mgrwt>
</event>
<event>
 4    1  0.4510095E+000  0.2056260E+03  0.7546771E-02  0.1145077E+00
         21   -1    0    0  503  502  0.00000000000E+00  0.00000000000E+00  0.12331387939E+03  0.12331387939E+03  0.00000000000E+00 0. -1.
         21   -1    0    0  501  503 -0.00000000000E+00 -0.00000000000E+00 -0.45984530197E+03  0.45984530197E+03  0.00000000000E+00 0. -1.
          6    1    1    2  501    0 -0.11109500118E+03  0.33065839692E+01 -0.31531983636E+03  0.37644206989E+03  0.17300000000E+03 0. -1.
         -6    1    1    2    0  502  0.11109500118E+03 -0.33065839692E+01 -0.21211586225E+02  0.20671711147E+03  0.17300000000E+03 0. -1.
<mgrwt>
<rscale>  2 0.20562595E+03</rscale>
<asrwt>0</asrwt>
<pdfrwt beam="1">  1       21 0.18971366E-01 0.20562595E+03</pdfrwt>
<pdfrwt beam="2">  1       21 0.70745431E-01 0.20562595E+03</pdfrwt>
<totfact> 0.45801859E+04</totfact>
</mgrwt>
</event>
<event>
 4    1  0.4510095E+000  0.2511370E+03  0.7546771E-02  0.1112588E+00
         21   -1    0    0  503  502  0.00000000000E+00  0.00000000000E+00  0.19301809259E+03  0.19301809259E+03  0.00000000000E+00 0. -1.
         21   -1    0    0  501  503 -0.00000000000E+00 -0.00000000000E+00 -0.33104662644E+03  0.33104662644E+03  0.00000000000E+00 0.  1.
          6    1    1    2  501    0  0.14064377335E+03 -0.11558608276E+03 -0.98845579446E+02  0.26988935156E+03  0.17300000000E+03 0. -1.
         -6    1    1    2    0  502 -0.14064377335E+03  0.11558608276E+03 -0.39182954407E+02  0.25417536747E+03  0.17300000000E+03 0.  1.
<mgrwt>
<rscale>  2 0.25113704E+03</rscale>
<asrwt>0</asrwt>
<pdfrwt beam="1">  1       21 0.29695091E-01 0.25113704E+03</pdfrwt>
<pdfrwt beam="2">  1       21 0.50930250E-01 0.25113704E+03</pdfrwt>
<totfact> 0.38772703E+04</totfact>
</mgrwt>
</event>
<event>
 4    1  0.4510095E+000  0.1858031E+03  0.7546771E-02  0.1162302E+00
         21   -1    0    0  503  502  0.00000000000E+00  0.00000000000E+00  0.19150647328E+04  0.19150647328E+04  0.00000000000E+00 0. -1.
         21   -1    0    0  501  503 -0.00000000000E+00 -0.00000000000E+00 -0.34421209017E+02  0.34421209017E+02  0.00000000000E+00 0.  1.
          6    1    1    2  501    0 -0.66231856302E+02 -0.14391701828E+02  0.26761944649E+03  0.32579586862E+03  0.17300000000E+03 0.  1.
         -6    1    1    2    0  502  0.66231856302E+02  0.14391701828E+02  0.16130240773E+04  0.16236900732E+04  0.17300000000E+03 0. -1.
<mgrwt>
<rscale>  2 0.18580307E+03</rscale>
<asrwt>0</asrwt>
<pdfrwt beam="1">  1       21 0.29462526E+00 0.18580307E+03</pdfrwt>
<pdfrwt beam="2">  1       21 0.52955721E-02 0.18580307E+03</pdfrwt>
<totfact> 0.90112816E+03</totfact>
</mgrwt>
</event>
<event>
 4    1  0.4510095E+000  0.1954132E+03  0.7546771E-02  0.1153668E+00
         21   -1    0    0  503  502  0.00000000000E+00  0.00000000000E+00  0.28929682092E+03  0.28929682092E+03  0.00000000000E+00 0. -1.
         21   -1    0    0  501  503 -0.00000000000E+00 -0.00000000000E+00 -0.21396902755E+03  0.21396902755E+03  0.00000000000E+00 0.  1.
          6    1    1    2  501    0  0.73982637395E+01 -0.90568060303E+02 -0.11808496781E+03  0.22832075569E+03  0.17300000000E+03 0.  1.
         -6    1    1    2    0  502 -0.73982637395E+01  0.90568060303E+02  0.19341276118E+03  0.27494509278E+03  0.17300000000E+03 0. -1.
<mgrwt>
<rscale>  2 0.19541317E+03</rscale>
<asrwt>0</asrwt>
<pdfrwt beam="1">  1       21 0.44507203E-01 0.19541317E+03</pdfrwt>
<pdfrwt beam="2">  1       21 0.32918312E-01 0.19541317E+03</pdfrwt>
<totfact> 0.43001179E+04</totfact>
</mgrwt>
</event>
<event>
 4    1  0.4510095E+000  0.1863302E+03  0.7546771E-02  0.1161813E+00
         21   -1    0    0  503  502  0.00000000000E+00  0.00000000000E+00  0.49693110743E+03  0.49693110743E+03  0.00000000000E+00 0.  1.
         21   -1    0    0  501  503 -0.00000000000E+00 -0.00000000000E+00 -0.77442199416E+02  0.77442199416E+02  0.00000000000E+00 0.  1.
          6    1    1    2  501    0  0.63106408292E+02 -0.28417057486E+02  0.11992293506E+03  0.22158623215E+03  0.17300000000E+03 0.  1.
         -6    1    1    2    0  502 -0.63106408292E+02  0.28417057486E+02  0.29956597295E+03  0.35278707469E+03  0.17300000000E+03 0.  1.
<mgrwt>
<rscale>  2 0.18633021E+03</rscale>
<asrwt>0</asrwt>
<pdfrwt beam="1">  1       21 0.76450938E-01 0.18633021E+03</pdfrwt>
<pdfrwt beam="2">  1       21 0.11914185E-01 0.18633021E+03</pdfrwt>
<totfact> 0.90771222E+04</totfact>
</mgrwt>
</event>
<event>
 4    1  0.4510095E+000  0.2239806E+03  0.7546771E-02  0.1130950E+00
         21   -1    0    0  501  502  0.00000000000E+00  0.00000000000E+00  0.17121077449E+03  0.17121077449E+03  0.00000000000E+00 0.  1.
         21   -1    0    0  502  503 -0.00000000000E+00 -0.00000000000E+00 -0.32346342064E+03  0.32346342064E+03  0.00000000000E+00 0.  1.
          6    1    1    2  501    0 -0.61900937637E+02  0.12808821179E+03 -0.24071242525E+00  0.22398074476E+03  0.17300000000E+03 0.  1.
         -6    1    1    2    0  503  0.61900937637E+02 -0.12808821179E+03 -0.15201193372E+03  0.27069345037E+03  0.17300000000E+03 0.  1.
<mgrwt>
<rscale>  2 0.22398062E+03</rscale>
<asrwt>0</asrwt>
<pdfrwt beam="1">  1       21 0.26340119E-01 0.22398062E+03</pdfrwt>
<pdfrwt beam="2">  1       21 0.49763603E-01 0.22398062E+03</pdfrwt>
<totfact> 0.51979237E+04</totfact>
</mgrwt>
</event>
<event>
 4    1  0.4510095E+000  0.2488689E+03  0.7546771E-02  0.1114022E+00
         21   -1    0    0  501  502  0.00000000000E+00  0.00000000000E+00  0.10545221695E+03  0.10545221695E+03  0.00000000000E+00 0. -1.
         21   -1    0    0  502  503 -0.00000000000E+00 -0.00000000000E+00 -0.11431632447E+04  0.11431632447E+04  0.00000000000E+00 0.  1.
          6    1    1    2  501    0  0.21162769992E+02 -0.17764819266E+03 -0.83529098269E+02  0.26251257770E+03  0.17300000000E+03 0. -1.
         -6    1    1    2    0  503 -0.21162769992E+02  0.17764819266E+03 -0.95418192952E+03  0.98610288399E+03  0.17300000000E+03 0.  1.
<mgrwt>
<rscale>  2 0.24886893E+03</rscale>
<asrwt>0</asrwt>
<pdfrwt beam="1">  1       21 0.16223418E-01 0.24886893E+03</pdfrwt>
<pdfrwt beam="2">  1       21 0.17587127E+00 0.24886893E+03</pdfrwt>
<totfact> 0.63229357E+03</totfact>
</mgrwt>
</event>
<event>
 4    1  0.4510095E+000  0.1852784E+03  0.7546771E-02  0.1162790E+00
         21   -1    0    0  501  502  0.00000000000E+00  0.00000000000E+00  0.33935414991E+03  0.33935414991E+03  0.00000000000E+00 0. -1.
         21   -1    0    0  502  503 -0.00000000000E+00 -0.00000000000E+00 -0.11353112085E+03  0.11353112085E+03  0.00000000000E+00 0.  1.
          6    1    1    2  501    0 -0.47113436426E+02 -0.46684314946E+02  0.18766908046E+03  0.26371914021E+03  0.17300000000E+03 0.  1.
         -6    1    1    2    0  503  0.47113436426E+02  0.46684314946E+02  0.38153948595E+02  0.18916613055E+03  0.17300000000E+03 0.  1.
<mgrwt>
<rscale>  2 0.18527844E+03</rscale>
<asrwt>0</asrwt>
<pdfrwt beam="1">  1       21 0.52208330E-01 0.18527844E+03</pdfrwt>
<pdfrwt beam="2">  1       21 0.17466326E-01 0.18527844E+03</pdfrwt>
<totfact> 0.10360250E+05</totfact>
</mgrwt>
</event>
<event>
 4    1  0.4510095E+000  0.1931615E+03  0.7546771E-02  0.1155640E+00
         21   -1    0    0  501  502  0.00000000000E+00  0.00000000000E+00  0.27722959372E+03  0.27722959372E+03  0.00000000000E+00 0. -1.
         21   -1    0    0  502  503 -0.00000000000E+00 -0.00000000000E+00 -0.14093991137E+03  0.14093991137E+03  0.00000000000E+00 0.  1.
          6    1    1    2  501    0  0.83758069294E+02  0.19156225710E+02  0.11253708261E+03  0.22355305884E+03  0.17300000000E+03 0.  1.
         -6    1    1    2    0  503 -0.83758069294E+02 -0.19156225710E+02  0.23752599748E+02  0.19461644625E+03  0.17300000000E+03 0.  1.
<mgrwt>
<rscale>  2 0.19316153E+03</rscale>
<asrwt>0</asrwt>
<pdfrwt beam="1">  1       21 0.42650707E-01 0.19316153E+03</pdfrwt>
<pdfrwt beam="2">  1       21 0.21683063E-01 0.19316153E+03</pdfrwt>
<totfact> 0.10489207E+05</totfact>
</mgrwt>
</event>
<event>
 4    1  0.4510095E+000  0.2378782E+03  0.7546771E-02  0.1121214E+00
         21   -1    0    0  503  502  0.00000000000E+00  0.00000000000E+00  0.33471881345E+03  0.33471881345E+03  0.00000000000E+00 0.  1.
         21   -1    0    0  501  503 -0.00000000000E+00 -0.00000000000E+00 -0.32729352720E+03  0.32729352720E+03  0.00000000000E+00 0. -1.
          6    1    1    2  501    0 -0.62685269239E+02  0.15075677477E+03 -0.22644364515E+03  0.32842468322E+03  0.17300000000E+03 0. -1.
         -6    1    1    2    0  502  0.62685269239E+02 -0.15075677477E+03  0.23386893140E+03  0.33358765743E+03  0.17300000000E+03 0.  1.
<mgrwt>
<rscale>  2 0.23787822E+03</rscale>
<asrwt>0</asrwt>
<pdfrwt beam="1">  1       21 0.51495202E-01 0.23787822E+03</pdfrwt>
<pdfrwt beam="2">  1       21 0.50352850E-01 0.23787822E+03</pdfrwt>
<totfact> 0.13087998E+04</totfact>
</mgrwt>
</event>
<event>
 4    1  0.4510095E+000  0.2395151E+03  0.7546771E-02  0.1120116E+00
         21   -1    0    0  501  502  0.00000000000E+00  0.00000000000E+00  0.76685549130E+03  0.76685549130E+03  0.00000000000E+00 0.  1.
         21   -1    0    0  502  503 -0.00000000000E+00 -0.00000000000E+00 -0.24080328189E+03  0.24080328189E+03  0.00000000000E+00 0. -1.
          6    1    1    2  501    0 -0.13491519107E+03 -0.96105950879E+02  0.68133707100E+03  0.72221026502E+03  0.17300000000E+03 0.  1.
         -6    1    1    2    0  503  0.13491519107E+03  0.96105950879E+02 -0.15528486160E+03  0.28544850817E+03  0.17300000000E+03 0. -1.
<mgrwt>
<rscale>  2 0.23951506E+03</rscale>
<asrwt>0</asrwt>
<pdfrwt beam="1">  1       21 0.11797777E+00 0.23951506E+03</pdfrwt>
<pdfrwt beam="2">  1       21 0.37046659E-01 0.23951506E+03</pdfrwt>
<totfact> 0.37319662E+03</totfact>
</mgrwt>
</event>
<event>
 4    1  0.4510095E+000  0.2968878E+03  0.7546771E-02  0.1086807E+00
         21   -1    0    0  501  502  0.00000000000E+00  0.00000000000E+00  0.26104058723E+03  0.26104058723E+03  0.00000000000E+00 0. -1.
         21   -1    0    0  502  503 -0.00000000000E+00 -0.00000000000E+00 -0.47540794639E+03  0.47540794639E+03  0.00000000000E+00 0. -1.
          6    1    1    2  501    0 -0.16229130878E+03 -0.17853550073E+03  0.91026155862E+02  0.31052883115E+03  0.17300000000E+03 0. -1.
         -6    1    1    2    0  503  0.16229130878E+03  0.17853550073E+03 -0.30539351503E+03  0.42591970247E+03  0.17300000000E+03 0. -1.
<mgrwt>
<rscale>  2 0.29688785E+03</rscale>
<asrwt>0</asrwt>
<pdfrwt beam="1">  1       21 0.40160090E-01 0.29688785E+03</pdfrwt>
<pdfrwt beam="2">  1       21 0.73139684E-01 0.29688785E+03</pdfrwt>
<totfact> 0.94637050E+03</totfact>
</mgrwt>
</event>
<event>
 4    1  0.4510095E+000  0.1838375E+03  0.7546771E-02  0.1164140E+00
         21   -1    0    0  501  502  0.00000000000E+00  0.00000000000E+00  0.25334809536E+03  0.25334809536E+03  0.00000000000E+00 0.  1.
         21   -1    0    0  502  503 -0.00000000000E+00 -0.00000000000E+00 -0.15596340774E+03  0.15596340774E+03  0.00000000000E+00 0.  1.
          6    1    1    2  501    0 -0.52963282216E+02 -0.32590363201E+02  0.12653720384E+03  0.22317684690E+03  0.17300000000E+03 0.  1.
         -6    1    1    2    0  503  0.52963282216E+02  0.32590363201E+02 -0.29152516215E+02  0.18613465620E+03  0.17300000000E+03 0.  1.
<mgrwt>
<rscale>  2 0.18383754E+03</rscale>
<asrwt>0</asrwt>
<pdfrwt beam="1">  1       21 0.38976630E-01 0.18383754E+03</pdfrwt>
<pdfrwt beam="2">  1       21 0.23994370E-01 0.18383754E+03</pdfrwt>
<totfact> 0.10429118E+05</totfact>
</mgrwt>
</event>
<event>
 4    1  0.4510095E+000  0.2368462E+03  0.7546771E-02  0.1121912E+00
         21   -1    0    0  501  502  0.00000000000E+00  0.00000000000E+00  0.13019447406E+03  0.13019447406E+03  0.00000000000E+00 0.  1.
         21   -1    0    0  502  503 -0.00000000000E+00 -0.00000000000E+00 -0.51687419384E+03  0.51687419384E+03  0.00000000000E+00 0.  1.
          6    1    1    2  501    0 -0.88831526296E+02 -0.13518914916E+03 -0.32531807477E+03  0.40240277818E+03  0.17300000000E+03 0.  1.
         -6    1    1    2    0  503  0.88831526296E+02  0.13518914916E+03 -0.61361645007E+02  0.24466588972E+03  0.17300000000E+03 0.  1.
<mgrwt>
<rscale>  2 0.23684625E+03</rscale>
<asrwt>0</asrwt>
<pdfrwt beam="1">  1       21 0.20029919E-01 0.23684625E+03</pdfrwt>
<pdfrwt beam="2">  1       21 0.79519106E-01 0.23684625E+03</pdfrwt>
<totfact> 0.31364913E+04</totfact>
</mgrwt>
</event>
<event>
 4    1  0.4510095E+000  0.1815254E+03  0.7546771E-02  0.1166335E+00
         21   -1    0    0  503  502  0.00000000000E+00  0.00000000000E+00  0.23455271738E+03  0.23455271738E+03  0.00000000000E+00 0. -1.
         21   -1    0    0  501  503 -0.00000000000E+00 -0.00000000000E+00 -0.19008732013E+03  0.19008732013E+03  0.00000000000E+00 0. -1.
          6    1    1    2  501    0 -0.47005392573E+02  0.28512641333E+02 -0.86224662973E+02  0.20096310644E+03  0.17300000000E+03 0. -1.
         -6    1    1    2    0  502  0.47005392573E+02 -0.28512641333E+02  0.13069006023E+03  0.22367693106E+03  0.17300000000E+03 0. -1.
<mgrwt>
<rscale>  2 0.18152542E+03</rscale>
<asrwt>0</asrwt>
<pdfrwt beam="1">  1       21 0.36085033E-01 0.18152542E+03</pdfrwt>
<pdfrwt beam="2">  1       21 0.29244203E-01 0.18152542E+03</pdfrwt>
<totfact> 0.83305091E+04</totfact>
</mgrwt>
</event>
<event>
 4    1  0.4510095E+000  0.1886015E+03  0.7546771E-02  0.1159729E+00
         21   -1    0    0  501  502  0.00000000000E+00  0.00000000000E+00  0.21017739450E+03  0.21017739450E+03  0.00000000000E+00 0.  1.
         21   -1    0    0  502  503 -0.00000000000E+00 -0.00000000000E+00 -0.40312738464E+03  0.40312738464E+03  0.00000000000E+00 0.  1.
          6    1    1    2  501    0  0.31894108329E+02  0.68002271145E+02  0.13710092487E+03  0.23316776498E+03  0.17300000000E+03 0.  1.
         -6    1    1    2    0  503 -0.31894108329E+02 -0.68002271145E+02 -0.33005091501E+03  0.38013701415E+03  0.17300000000E+03 0.  1.
<mgrwt>
<rscale>  2 0.18860155E+03</rscale>
<asrwt>0</asrwt>
<pdfrwt beam="1">  1       21 0.32334984E-01 0.18860155E+03</pdfrwt>
<pdfrwt beam="2">  1       21 0.62019597E-01 0.18860155E+03</pdfrwt>
<totfact> 0.22256226E+04</totfact>
</mgrwt>
</event>
<event>
 4    1  0.4510095E+000  0.1852520E+03  0.7546771E-02  0.1162815E+00
         21   -1    0    0  503  502  0.00000000000E+00  0.00000000000E+00  0.90265127587E+03  0.90265127587E+03  0.00000000000E+00 0. -1.
         21   -1    0    0  501  503 -0.00000000000E+00 -0.00000000000E+00 -0.57073170631E+02  0.57073170631E+02  0.00000000000E+00 0. -1.
          6    1    1    2  501    0 -0.53407814135E+02 -0.39203250506E+02  0.14552685877E+03  0.23557664588E+03  0.17300000000E+03 0. -1.
         -6    1    1    2    0  502  0.53407814135E+02  0.39203250506E+02  0.70005124647E+03  0.72414780062E+03  0.17300000000E+03 0. -1.
<mgrwt>
<rscale>  2 0.18525196E+03</rscale>
<asrwt>0</asrwt>
<pdfrwt beam="1">  1       21 0.13886942E+00 0.18525196E+03</pdfrwt>
<pdfrwt beam="2">  1       21 0.87804885E-02 0.18525196E+03</pdfrwt>
<totfact> 0.37431077E+04</totfact>
</mgrwt>
</event>
<event>
 4    1  0.4510095E+000  0.3433631E+03  0.7546771E-02  0.1065373E+00
         21   -1    0    0  501  502  0.00000000000E+00  0.00000000000E+00  0.15996979838E+04  0.15996979838E+04  0.00000000000E+00 0. -1.
         21   -1    0    0  502  503 -0.00000000000E+00 -0.00000000000E+00 -0.10581513192E+03  0.10581513192E+03  0.00000000000E+00 0.  1.
          6    1    1    2  501    0 -0.29650161487E+03 -0.74831617491E+01  0.12167317561E+04  0.12642524952E+04  0.17300000000E+03 0. -1.
         -6    1    1    2    0  503  0.29650161487E+03  0.74831617491E+01  0.27715109581E+03  0.44126062054E+03  0.17300000000E+03 0.  1.
<mgrwt>
<rscale>  2 0.34336308E+03</rscale>
<asrwt>0</asrwt>
<pdfrwt beam="1">  1       21 0.24610736E+00 0.34336308E+03</pdfrwt>
<pdfrwt beam="2">  1       21 0.16279252E-01 0.34336308E+03</pdfrwt>
<totfact> 0.20879332E+03</totfact>
</mgrwt>
</event>
<event>
 4    1  0.4510095E+000  0.2038645E+03  0.7546771E-02  0.1146519E+00
         21   -1    0    0  503  502  0.00000000000E+00  0.00000000000E+00  0.19606766755E+03  0.19606766755E+03  0.00000000000E+00 0.  1.
         21   -1    0    0  501  503 -0.00000000000E+00 -0.00000000000E+00 -0.21307784421E+03  0.21307784421E+03  0.00000000000E+00 0.  1.
          6    1    1    2  501    0 -0.60432452129E+02 -0.89328900548E+02  0.62366146218E+01  0.20395987131E+03  0.17300000000E+03 0.  1.
         -6    1    1    2    0  502  0.60432452129E+02  0.89328900548E+02 -0.23246791283E+02  0.20518564045E+03  0.17300000000E+03 0.  1.
<mgrwt>
<rscale>  2 0.20386450E+03</rscale>
<asrwt>0</asrwt>
<pdfrwt beam="1">  1       21 0.30164257E-01 0.20386450E+03</pdfrwt>
<pdfrwt beam="2">  1       21 0.32781207E-01 0.20386450E+03</pdfrwt>
<totfact> 0.94006179E+04</totfact>
</mgrwt>
</event>
<event>
 4    1  0.4510095E+000  0.3613658E+03  0.7546771E-02  0.1058044E+00
         21   -1    0    0  503  502  0.00000000000E+00  0.00000000000E+00  0.13006516426E+04  0.13006516426E+04  0.00000000000E+00 0. -1.
         21   -1    0    0  501  503 -0.00000000000E+00 -0.00000000000E+00 -0.20701920923E+03  0.20701920923E+03  0.00000000000E+00 0.  1.
          6    1    1    2  501    0 -0.15535257067E+03  0.27662573757E+03  0.58261762571E+01  0.36141273391E+03  0.17300000000E+03 0.  1.
         -6    1    1    2    0  502  0.15535257067E+03 -0.27662573757E+03  0.10878062571E+04  0.11462581179E+04  0.17300000000E+03 0. -1.
<mgrwt>
<rscale>  2 0.36136577E+03</rscale>
<asrwt>0</asrwt>
<pdfrwt beam="1">  1       21 0.20010025E+00 0.36136577E+03</pdfrwt>
<pdfrwt beam="2">  1       21 0.31849110E-01 0.36136577E+03</pdfrwt>
<totfact> 0.11111839E+03</totfact>
</mgrwt>
</event>
<event>
 4    1  0.4510095E+000  0.1742064E+03  0.7546771E-02  0.1173531E+00
         21   -1    0    0  501  502  0.00000000000E+00  0.00000000000E+00  0.75646996240E+02  0.75646996240E+02  0.00000000000E+00 0.  1.
         21   -1    0    0  502  503 -0.00000000000E+00 -0.00000000000E+00 -0.18746985837E+04  0.18746985837E+04  0.00000000000E+00 0.  1.
          6    1    1    2  501    0 -0.19410323242E+02  0.64882805344E+01 -0.34967951971E+02  0.17768122044E+03  0.17300000000E+03 0.  1.
         -6    1    1    2    0  503  0.19410323242E+02 -0.64882805344E+01 -0.17640836355E+04  0.17726643595E+04  0.17300000000E+03 0.  1.
<mgrwt>
<rscale>  2 0.17420637E+03</rscale>
<asrwt>0</asrwt>
<pdfrwt beam="1">  1       21 0.11638000E-01 0.17420637E+03</pdfrwt>
<pdfrwt beam="2">  1       21 0.28841515E+00 0.17420637E+03</pdfrwt>
<totfact> 0.25255254E+03</totfact>
</mgrwt>
</event>
<event>
 4    1  0.4510095E+000  0.2034353E+03  0.7546771E-02  0.1146873E+00
         21   -1    0    0  501  502  0.00000000000E+00  0.00000000000E+00  0.81968723213E+03  0.81968723213E+03  0.00000000000E+00 0.  1.
         21   -1    0    0  502  503 -0.00000000000E+00 -0.00000000000E+00 -0.16085676523E+03  0.16085676523E+03  0.00000000000E+00 0. -1.
          6    1    1    2  501    0  0.10702726721E+03  0.14426559207E+01  0.73551879662E+03  0.76313420665E+03  0.17300000000E+03 0.  1.
         -6    1    1    2    0  503 -0.10702726721E+03 -0.14426559207E+01 -0.76688329716E+02  0.21740979071E+03  0.17300000000E+03 0. -1.
<mgrwt>
<rscale>  2 0.20343529E+03</rscale>
<asrwt>0</asrwt>
<pdfrwt beam="1">  1       21 0.12610573E+00 0.20343529E+03</pdfrwt>
<pdfrwt beam="2">  1       21 0.24747195E-01 0.20343529E+03</pdfrwt>
<totfact> 0.71467897E+03</totfact>
</mgrwt>
</event>
<event>
 4    1  0.4510095E+000  0.2030555E+03  0.7546771E-02  0.1147186E+00
         21   -1    0    0  503  502  0.00000000000E+00  0.00000000000E+00  0.37385548819E+03  0.37385548819E+03  0.00000000000E+00 0. -1.
         21   -1    0    0  501  503 -0.00000000000E+00 -0.00000000000E+00 -0.17763053621E+03  0.17763053621E+03  0.00000000000E+00 0. -1.
          6    1    1    2  501    0 -0.10604102412E+03 -0.76063898708E+01 -0.71669786883E+02  0.21533256678E+03  0.17300000000E+03 0. -1.
         -6    1    1    2    0  502  0.10604102412E+03  0.76063898708E+01  0.26789473885E+03  0.33615345762E+03  0.17300000000E+03 0. -1.
<mgrwt>
<rscale>  2 0.20305555E+03</rscale>
<asrwt>0</asrwt>
<pdfrwt beam="1">  1       21 0.57516229E-01 0.20305555E+03</pdfrwt>
<pdfrwt beam="2">  1       21 0.27327775E-01 0.20305555E+03</pdfrwt>
<totfact> 0.36020497E+04</totfact>
</mgrwt>
</event>
<event>
 4    1  0.4510095E+000  0.1862338E+03  0.7546771E-02  0.1161903E+00
         21   -1    0    0  501  502  0.00000000000E+00  0.00000000000E+00  0.14574060221E+03  0.14574060221E+03  0.00000000000E+00 0. -1.
         21   -1    0    0  502  503 -0.00000000000E+00 -0.00000000000E+00 -0.32133420508E+03  0.32133420508E+03  0.00000000000E+00 0. -1.
          6    1    1    2  501    0 -0.68115108416E+02 -0.10694459037E+02  0.31148488825E+02  0.18882072928E+03  0.17300000000E+03 0. -1.
         -6    1    1    2    0  503  0.68115108416E+02  0.10694459037E+02 -0.20674209170E+03  0.27825407801E+03  0.17300000000E+03 0. -1.
<mgrwt>
<rscale>  2 0.18623383E+03</rscale>
<asrwt>0</asrwt>
<pdfrwt beam="1">  1       21 0.22421632E-01 0.18623383E+03</pdfrwt>
<pdfrwt beam="2">  1       21 0.49436031E-01 0.18623383E+03</pdfrwt>
<totfact> 0.72858044E+04</totfact>
</mgrwt>
</event>
<event>
 4    1  0.4510095E+000  0.1861858E+03  0.7546771E-02  0.1161947E+00
         21   -1    0    0  503  502  0.00000000000E+00  0.00000000000E+00  0.25353263975E+03  0.25353263975E+03  0.00000000000E+00 0. -1.
         21   -1    0    0  501  503 -0.00000000000E+00 -0.00000000000E+00 -0.18720441802E+03  0.18720441802E+03  0.00000000000E+00 0.  1.
          6    1    1    2  501    0  0.48922144886E+02  0.48402300974E+02 -0.81264143951E+02  0.20314777895E+03  0.17300000000E+03 0.  1.
         -6    1    1    2    0  502 -0.48922144886E+02 -0.48402300974E+02  0.14759236569E+03  0.23758927882E+03  0.17300000000E+03 0. -1.
<mgrwt>
<rscale>  2 0.18618582E+03</rscale>
<asrwt>0</asrwt>
<pdfrwt beam="1">  1       21 0.39005022E-01 0.18618582E+03</pdfrwt>
<pdfrwt beam="2">  1       21 0.28800680E-01 0.18618582E+03</pdfrwt>
<totfact> 0.73305015E+04</totfact>
</mgrwt>
</event>
<event>
 4    1  0.4510095E+000  0.1826204E+03  0.7546771E-02  0.1165291E+00
         21   -1    0    0  503  502  0.00000000000E+00  0.00000000000E+00  0.23285319972E+03  0.23285319972E+03  0.00000000000E+00 0.  1.
         21   -1    0    0  501  503 -0.00000000000E+00 -0.00000000000E+00 -0.14322432881E+03  0.14322432881E+03  0.00000000000E+00 0. -1.
          6    1    1    2  501    0  0.62645422787E+01 -0.58154529368E+02  0.45043439751E+02  0.18809334183E+03  0.17300000000E+03 0. -1.
         -6    1    1    2    0  502 -0.62645422787E+01  0.58154529368E+02  0.44585431158E+02  0.18798418670E+03  0.17300000000E+03 0.  1.
<mgrwt>
<rscale>  2 0.18262035E+03</rscale>
<asrwt>0</asrwt>
<pdfrwt beam="1">  1       21 0.35823569E-01 0.18262035E+03</pdfrwt>
<pdfrwt beam="2">  1       21 0.22034512E-01 0.18262035E+03</pdfrwt>
<totfact> 0.14508507E+05</totfact>
</mgrwt>
</event>
<event>
 4    1  0.4510095E+000  0.3022940E+03  0.7546771E-02  0.1084099E+00
         21   -1    0    0  503  502  0.00000000000E+00  0.00000000000E+00  0.20835451314E+03  0.20835451314E+03  0.00000000000E+00 0.  1.
         21   -1    0    0  501  503 -0.00000000000E+00 -0.00000000000E+00 -0.58556391155E+03  0.58556391155E+03  0.00000000000E+00 0.  1.
          6    1    1    2  501    0  0.22602886076E+03 -0.10180170537E+03 -0.38748094891E+03  0.49145001666E+03  0.17300000000E+03 0.  1.
         -6    1    1    2    0  502 -0.22602886076E+03  0.10180170537E+03  0.10271550498E+02  0.30246840804E+03  0.17300000000E+03 0.  1.
<mgrwt>
<rscale>  2 0.30229395E+03</rscale>
<asrwt>0</asrwt>
<pdfrwt beam="1">  1       21 0.32054541E-01 0.30229395E+03</pdfrwt>
<pdfrwt beam="2">  1       21 0.90086754E-01 0.30229395E+03</pdfrwt>
<totfact> 0.92117395E+03</totfact>
</mgrwt>
</event>
<event>
 4    1  0.4510095E+000  0.2225979E+03  0.7546771E-02  0.1131961E+00
         21   -1    0    0  503  502  0.00000000000E+00  0.00000000000E+00  0.78228050932E+03  0.78228050932E+03  0.00000000000E+00 0. -1.
         21   -1    0    0  501  503 -0.00000000000E+00 -0.00000000000E+00 -0.63645458095E+02  0.63645458095E+02  0.00000000000E+00 0. -1.
          6    1    1    2  501    0  0.13396003927E+03  0.40933483406E+02  0.33002765557E+03  0.39808051400E+03  0.17300000000E+03 0. -1.
         -6    1    1    2    0  502 -0.13396003927E+03 -0.40933483406E+02  0.38860739566E+03  0.44784545341E+03  0.17300000000E+03 0. -1.
<mgrwt>
<rscale>  2 0.22259794E+03</rscale>
<asrwt>0</asrwt>
<pdfrwt beam="1">  1       21 0.12035084E+00 0.22259794E+03</pdfrwt>
<pdfrwt beam="2">  1       21 0.97916095E-02 0.22259794E+03</pdfrwt>
<totfact> 0.43460466E+04</totfact>
</mgrwt>
</event>
<event>
 4    1  0.4510095E+000  0.2185643E+03  0.7546771E-02  0.1134958E+00
         21   -1    0    0  503  502  0.00000000000E+00  0.00000000000E+00  0.11743594957E+04  0.11743594957E+04  0.00000000000E+00 0.  1.
         21   -1    0    0  501  503 -0.00000000000E+00 -0.00000000000E+00 -0.40678754807E+02  0.40678754807E+02  0.00000000000E+00 0.  1.
          6    1    1    2  501    0 -0.71373235885E+02 -0.11290354406E+03  0.56388185060E+03  0.60475870436E+03  0.17300000000E+03 0.  1.
         -6    1    1    2    0  502  0.71373235885E+02  0.11290354406E+03  0.56979889026E+03  0.61027954611E+03  0.17300000000E+03 0.  1.
<mgrwt>
<rscale>  2 0.21856429E+03</rscale>
<asrwt>0</asrwt>
<pdfrwt beam="1">  1       21 0.18067067E+00 0.21856429E+03</pdfrwt>
<pdfrwt beam="2">  1       21 0.62582709E-02 0.21856429E+03</pdfrwt>
<totfact> 0.32479963E+04</totfact>
</mgrwt>
</event>
<event>
 4    1  0.4510095E+000  0.3060320E+03  0.7546771E-02  0.1082264E+00
         21   -1    0    0  503  502  0.00000000000E+00  0.00000000000E+00  0.18725945964E+04  0.18725945964E+04  0.00000000000E+00 0.  1.
         21   -1    0    0  501  503 -0.00000000000E+00 -0.00000000000E+00 -0.58007856648E+02  0.58007856648E+02  0.00000000000E+00 0. -1.
          6    1    1    2  501    0 -0.12420191384E+03 -0.21977362859E+03  0.54894685823E+03  0.62848883553E+03  0.17300000000E+03 0. -1.
         -6    1    1    2    0  502  0.12420191384E+03  0.21977362859E+03  0.12656398816E+04  0.13021136176E+04  0.17300000000E+03 0.  1.
<mgrwt>
<rscale>  2 0.30603196E+03</rscale>
<asrwt>0</asrwt>
<pdfrwt beam="1">  1       21 0.28809143E+00 0.30603196E+03</pdfrwt>
<pdfrwt beam="2">  1       21 0.89242871E-02 0.30603196E+03</pdfrwt>
<totfact> 0.35712016E+03</totfact>
</mgrwt>
</event>
<event>
 4    1  0.4510095E+000  0.2282863E+03  0.7546771E-02  0.1127852E+00
         21   -1    0    0  501  502  0.00000000000E+00  0.00000000000E+00  0.66071926837E+02  0.66071926837E+02  0.00000000000E+00 0. -1.
         21   -1    0    0  502  503 -0.00000000000E+00 -0.00000000000E+00 -0.88116043942E+03  0.88116043942E+03  0.00000000000E+00 0. -1.
          6    1    1    2  501    0  0.61120375866E+02 -0.13583051191E+03 -0.56091604096E+03  0.60559180420E+03  0.17300000000E+03 0. -1.
         -6    1    1    2    0  503 -0.61120375866E+02  0.13583051191E+03 -0.25417247163E+03  0.34164056206E+03  0.17300000000E+03 0. -1.
<mgrwt>
<rscale>  2 0.22828629E+03</rscale>
<asrwt>0</asrwt>
<pdfrwt beam="1">  1       21 0.10164913E-01 0.22828629E+03</pdfrwt>
<pdfrwt beam="2">  1       21 0.13556313E+00 0.22828629E+03</pdfrwt>
<totfact> 0.30015083E+04</totfact>
</mgrwt>
</event>
<event>
 4    1  0.4510095E+000  0.1902737E+03  0.7546771E-02  0.1158215E+00
         21   -1    0    0  503  502  0.00000000000E+00  0.00000000000E+00  0.21312275857E+02  0.21312275857E+02  0.00000000000E+00 0. -1.
         21   -1    0    0  501  503 -0.00000000000E+00 -0.00000000000E+00 -0.17091125364E+04  0.17091125364E+04  0.00000000000E+00 0. -1.
          6    1    1    2  501    0 -0.78289158179E+02 -0.12077661336E+02 -0.77650414730E+03  0.79947654935E+03  0.17300000000E+03 0. -1.
         -6    1    1    2    0  502  0.78289158179E+02  0.12077661336E+02 -0.91129611324E+03  0.93094826290E+03  0.17300000000E+03 0. -1.
<mgrwt>
<rscale>  2 0.19027365E+03</rscale>
<asrwt>0</asrwt>
<pdfrwt beam="1">  1       21 0.32788112E-02 0.19027365E+03</pdfrwt>
<pdfrwt beam="2">  1       21 0.26294043E+00 0.19027365E+03</pdfrwt>
<totfact> 0.30565989E+04</totfact>
</mgrwt>
</event>
<event>
 4    1  0.4510095E+000  0.1924234E+03  0.7546771E-02  0.1156294E+00
         21   -1    0    0  501  502  0.00000000000E+00  0.00000000000E+00  0.55339042767E+03  0.55339042767E+03  0.00000000000E+00 0. -1.
         21   -1    0    0  502  503 -0.00000000000E+00 -0.00000000000E+00 -0.68520339683E+02  0.68520339683E+02  0.00000000000E+00 0. -1.
          6    1    1    2  501    0  0.61793081217E+02  0.57265899369E+02  0.29012090982E+03  0.34813346640E+03  0.17300000000E+03 0. -1.
         -6    1    1    2    0  503 -0.61793081217E+02 -0.57265899369E+02  0.19474917817E+03  0.27377730095E+03  0.17300000000E+03 0. -1.
<mgrwt>
<rscale>  2 0.19242341E+03</rscale>
<asrwt>0</asrwt>
<pdfrwt beam="1">  1       21 0.85136986E-01 0.19242341E+03</pdfrwt>
<pdfrwt beam="2">  1       21 0.10541591E-01 0.19242341E+03</pdfrwt>
<totfact> 0.88254610E+04</totfact>
</mgrwt>
</event>
<event>
 4    1  0.4510095E+000  0.2265678E+03  0.7546771E-02  0.1129079E+00
         21   -1    0    0  501  502  0.00000000000E+00  0.00000000000E+00  0.56549153224E+03  0.56549153224E+03  0.00000000000E+00 0. -1.
         21   -1    0    0  502  503 -0.00000000000E+00 -0.00000000000E+00 -0.90776793350E+02  0.90776793350E+02  0.00000000000E+00 0.  1.
          6    1    1    2  501    0  0.14270370299E+03 -0.32242883237E+02  0.23627590758E+03  0.32735188233E+03  0.17300000000E+03 0. -1.
         -6    1    1    2    0  503 -0.14270370299E+03  0.32242883237E+02  0.23843883131E+03  0.32891644326E+03  0.17300000000E+03 0. -1.
<mgrwt>
<rscale>  2 0.22656776E+03</rscale>
<asrwt>0</asrwt>
<pdfrwt beam="1">  1       21 0.86998695E-01 0.22656776E+03</pdfrwt>
<pdfrwt beam="2">  1       21 0.13965661E-01 0.22656776E+03</pdfrwt>
<totfact> 0.49914766E+04</totfact>
</mgrwt>
</event>
<event>
 4    1  0.4510095E+000  0.1862253E+03  0.7546771E-02  0.1161911E+00
         21   -1    0    0  501  502  0.00000000000E+00  0.00000000000E+00  0.19607393545E+03  0.19607393545E+03  0.00000000000E+00 0. -1.
         21   -1    0    0  502  503 -0.00000000000E+00 -0.00000000000E+00 -0.17800184795E+03  0.17800184795E+03  0.00000000000E+00 0.  1.
          6    1    1    2  501    0  0.58963480600E+02  0.35695761406E+02  0.23941141560E+02  0.18775797636E+03  0.17300000000E+03 0. -1.
         -6    1    1    2    0  503 -0.58963480600E+02 -0.35695761406E+02 -0.58690540613E+01  0.18631780705E+03  0.17300000000E+03 0.  1.
<mgrwt>
<rscale>  2 0.18622535E+03</rscale>
<asrwt>0</asrwt>
<pdfrwt beam="1">  1       21 0.30165221E-01 0.18622535E+03</pdfrwt>
<pdfrwt beam="2">  1       21 0.27384900E-01 0.18622535E+03</pdfrwt>
<totfact> 0.13436675E+05</totfact>
</mgrwt>
</event>
<event>
 4    1  0.4510095E+000  0.2801712E+03  0.7546771E-02  0.1095595E+00
         21   -1    0    0  501  502  0.00000000000E+00  0.00000000000E+00  0.54898981660E+03  0.54898981660E+03  0.00000000000E+00 0. -1.
         21   -1    0    0  502  503 -0.00000000000E+00 -0.00000000000E+00 -0.14826624017E+03  0.14826624017E+03  0.00000000000E+00 0. -1.
          6    1    1    2  501    0  0.12212119502E+03 -0.18344833510E+03  0.13454809379E+03  0.31080390517E+03  0.17300000000E+03 0. -1.
         -6    1    1    2    0  503 -0.12212119502E+03  0.18344833510E+03  0.26617548264E+03  0.38645215161E+03  0.17300000000E+03 0. -1.
<mgrwt>
<rscale>  2 0.28017116E+03</rscale>
<asrwt>0</asrwt>
<pdfrwt beam="1">  1       21 0.84459971E-01 0.28017116E+03</pdfrwt>
<pdfrwt beam="2">  1       21 0.22810191E-01 0.28017116E+03</pdfrwt>
<totfact> 0.20950624E+04</totfact>
</mgrwt>
</event>
<event>
 4    1  0.4510095E+000  0.1742963E+03  0.7546771E-02  0.1173440E+00
         21   -1    0    0  503  502  0.00000000000E+00  0.00000000000E+00  0.11272587153E+03  0.11272587153E+03  0.00000000000E+00 0.  1.
         21   -1    0    0  501  503 -0.00000000000E+00 -0.00000000000E+00 -0.37496531374E+03  0.37496531374E+03  0.00000000000E+00 0.  1.
          6    1    1    2  501    0  0.17695894249E+02  0.11706343141E+02 -0.26044463853E+03  0.31338569349E+03  0.17300000000E+03 0.  1.
         -6    1    1    2    0  502 -0.17695894249E+02 -0.11706343141E+02 -0.17948036782E+01  0.17430549178E+03  0.17300000000E+03 0.  1.
<mgrwt>
<rscale>  2 0.17429625E+03</rscale>
<asrwt>0</asrwt>
<pdfrwt beam="1">  1       21 0.17342442E-01 0.17429625E+03</pdfrwt>
<pdfrwt beam="2">  1       21 0.57686971E-01 0.17429625E+03</pdfrwt>
<totfact> 0.85399334E+04</totfact>
</mgrwt>
</event>
<event>
 4    1  0.4510095E+000  0.1916004E+03  0.7546771E-02  0.1157026E+00
         21   -1    0    0  503  502  0.00000000000E+00  0.00000000000E+00  0.30840289013E+03  0.30840289013E+03  0.00000000000E+00 0.  1.
         21   -1    0    0  501  503 -0.00000000000E+00 -0.00000000000E+00 -0.12521721279E+03  0.12521721279E+03  0.00000000000E+00 0. -1.
          6    1    1    2  501    0  0.13123652156E+02 -0.81298614323E+02  0.13976812209E+03  0.23716201822E+03  0.17300000000E+03 0.  1.
         -6    1    1    2    0  502 -0.13123652156E+02  0.81298614323E+02  0.43417555250E+02  0.19645808469E+03  0.17300000000E+03 0.  1.
<mgrwt>
<rscale>  2 0.19160035E+03</rscale>
<asrwt>0</asrwt>
<pdfrwt beam="1">  1       21 0.47446598E-01 0.19160035E+03</pdfrwt>
<pdfrwt beam="2">  1       21 0.19264187E-01 0.19160035E+03</pdfrwt>
<totfact> 0.10521980E+05</totfact>
</mgrwt>
</event>
<event>
 4    1  0.4510095E+000  0.1800946E+03  0.7546771E-02  0.1167712E+00
         21   -1    0    0  503  502  0.00000000000E+00  0.00000000000E+00  0.87787906980E+02  0.87787906980E+02  0.00000000000E+00 0.  1.
         21   -1    0    0  501  503 -0.00000000000E+00 -0.00000000000E+00 -0.38313846964E+03  0.38313846964E+03  0.00000000000E+00 0.  1.
          6    1    1    2  501    0  0.46352100430E+02  0.18882274560E+02 -0.19216659374E+03  0.26336677326E+03  0.17300000000E+03 0.  1.
         -6    1    1    2    0  502 -0.46352100430E+02 -0.18882274560E+02 -0.10318396893E+03  0.20755960337E+03  0.17300000000E+03 0.  1.
<mgrwt>
<rscale>  2 0.18009458E+03</rscale>
<asrwt>0</asrwt>
<pdfrwt beam="1">  1       21 0.13505832E-01 0.18009458E+03</pdfrwt>
<pdfrwt beam="2">  1       21 0.58944380E-01 0.18009458E+03</pdfrwt>
<totfact> 0.12828350E+05</totfact>
</mgrwt>
</event>
<event>
 4    1  0.4510095E+000  0.1970107E+03  0.7546771E-02  0.1152286E+00
         21   -1    0    0  501  502  0.00000000000E+00  0.00000000000E+00  0.32691524954E+03  0.32691524954E+03  0.00000000000E+00 0. -1.
         21   -1    0    0  502  503 -0.00000000000E+00 -0.00000000000E+00 -0.12386132764E+03  0.12386132764E+03  0.00000000000E+00 0.  1.
          6    1    1    2  501    0  0.60261683533E+02  0.72475778713E+02  0.14742186770E+03  0.24606181353E+03  0.17300000000E+03 0. -1.
         -6    1    1    2    0  503 -0.60261683533E+02 -0.72475778713E+02  0.55632054199E+02  0.20471476365E+03  0.17300000000E+03 0.  1.
<mgrwt>
<rscale>  2 0.19701068E+03</rscale>
<asrwt>0</asrwt>
<pdfrwt beam="1">  1       21 0.50294653E-01 0.19701068E+03</pdfrwt>
<pdfrwt beam="2">  1       21 0.19055589E-01 0.19701068E+03</pdfrwt>
<totfact> 0.94913307E+04</totfact>
</mgrwt>
</event>
<event>
 4    1  0.4510095E+000  0.1839878E+03  0.7546771E-02  0.1163998E+00
         21   -1    0    0  503  502  0.00000000000E+00  0.00000000000E+00  0.42394184227E+02  0.42394184227E+02  0.00000000000E+00 0. -1.
         21   -1    0    0  501  503 -0.00000000000E+00 -0.00000000000E+00 -0.11310170376E+04  0.11310170376E+04  0.00000000000E+00 0. -1.
          6    1    1    2  501    0  0.20134073112E+01  0.62597674978E+02 -0.86243526545E+03  0.88184245181E+03  0.17300000000E+03 0. -1.
         -6    1    1    2    0  502 -0.20134073112E+01 -0.62597674978E+02 -0.22618758794E+03  0.29156877003E+03  0.17300000000E+03 0. -1.
<mgrwt>
<rscale>  2 0.18398783E+03</rscale>
<asrwt>0</asrwt>
<pdfrwt beam="1">  1       21 0.65221822E-02 0.18398783E+03</pdfrwt>
<pdfrwt beam="2">  1       21 0.17400262E+00 0.18398783E+03</pdfrwt>
<totfact> 0.34381035E+04</totfact>
</mgrwt>
</event>
<event>
 4    1  0.4510095E+000  0.2378434E+03  0.7546771E-02  0.1121238E+00
         21   -1    0    0  503  502  0.00000000000E+00  0.00000000000E+00  0.10494385090E+04  0.10494385090E+04  0.00000000000E+00 0.  1.
         21   -1    0    0  501  503 -0.00000000000E+00 -0.00000000000E+00 -0.54572757945E+02  0.54572757945E+02  0.00000000000E+00 0.  1.
          6    1    1    2  501    0 -0.64592075754E+00 -0.16321788221E+03  0.43635042918E+03  0.49696196165E+03  0.17300000000E+03 0.  1.
         -6    1    1    2    0  502  0.64592075754E+00  0.16321788221E+03  0.55851532190E+03  0.60704930531E+03  0.17300000000E+03 0.  1.
<mgrwt>
<rscale>  2 0.23784342E+03</rscale>
<asrwt>0</asrwt>
<pdfrwt beam="1">  1       21 0.16145206E+00 0.23784342E+03</pdfrwt>
<pdfrwt beam="2">  1       21 0.83958097E-02 0.23784342E+03</pdfrwt>
<totfact> 0.26352976E+04</totfact>
</mgrwt>
</event>
<event>
 4    1  0.4510095E+000  0.1767994E+03  0.7546771E-02  0.1170937E+00
         21   -1    0    0  501  502  0.00000000000E+00  0.00000000000E+00  0.53752218866E+03  0.53752218866E+03  0.00000000000E+00 0. -1.
         21   -1    0    0  502  503 -0.00000000000E+00 -0.00000000000E+00 -0.63735095061E+02  0.63735095061E+02  0.00000000000E+00 0. -1.
          6    1    1    2  501    0  0.18150425679E+02 -0.31616532743E+02  0.32586992589E+03  0.37074148904E+03  0.17300000000E+03 0. -1.
         -6    1    1    2    0  503 -0.18150425679E+02  0.31616532743E+02  0.14791716771E+03  0.23051579468E+03  0.17300000000E+03 0. -1.
<mgrwt>
<rscale>  2 0.17679944E+03</rscale>
<asrwt>0</asrwt>
<pdfrwt beam="1">  1       21 0.82695718E-01 0.17679944E+03</pdfrwt>
<pdfrwt beam="2">  1       21 0.98053996E-02 0.17679944E+03</pdfrwt>
<totfact> 0.10784131E+05</totfact>
</mgrwt>
</event>
<event>
 4    1  0.4510095E+000  0.1962321E+03  0.7546771E-02  0.1152957E+00
         21   -1    0    0  501  502  0.00000000000E+00  0.00000000000E+00  0.11980687279E+03  0.11980687279E+03  0.00000000000E+00 0.  1.
         21   -1    0    0  502  503 -0.00000000000E+00 -0.00000000000E+00 -0.35228914032E+03  0.35228914032E+03  0.00000000000E+00 0.  1.
          6    1    1    2  501    0 -0.92408787134E+02  0.62171034943E+01 -0.46355383579E+02  0.20163297821E+03  0.17300000000E+03 0.  1.
         -6    1    1    2    0  503  0.92408787134E+02 -0.62171034943E+01 -0.18612688396E+03  0.27046303490E+03  0.17300000000E+03 0.  1.
<mgrwt>
<rscale>  2 0.19623210E+03</rscale>
<asrwt>0</asrwt>
<pdfrwt beam="1">  1       21 0.18431827E-01 0.19623210E+03</pdfrwt>
<pdfrwt beam="2">  1       21 0.54198329E-01 0.19623210E+03</pdfrwt>
<totfact> 0.86326672E+04</totfact>
</mgrwt>
</event>
<event>
 4    1  0.4510095E+000  0.2541040E+03  0.7546771E-02  0.1110738E+00
         21   -1    0    0  503  502  0.00000000000E+00  0.00000000000E+00  0.58266085588E+02  0.58266085588E+02  0.00000000000E+00 0.  1.
         21   -1    0    0  501  503 -0.00000000000E+00 -0.00000000000E+00 -0.18966440362E+04  0.18966440362E+04  0.00000000000E+00 0. -1.
          6    1    1    2  501    0 -0.16813559090E+03  0.79813922578E+02 -0.15494160521E+04  0.15701143085E+04  0.17300000000E+03 0. -1.
         -6    1    1    2    0  502  0.16813559090E+03 -0.79813922578E+02 -0.28896189856E+03  0.38479581336E+03  0.17300000000E+03 0.  1.
<mgrwt>
<rscale>  2 0.25410399E+03</rscale>
<asrwt>0</asrwt>
<pdfrwt beam="1">  1       21 0.89640133E-02 0.25410399E+03</pdfrwt>
<pdfrwt beam="2">  1       21 0.29179139E+00 0.25410399E+03</pdfrwt>
<totfact> 0.35138821E+03</totfact>
</mgrwt>
</event>
<event>
 4    1  0.4510095E+000  0.1894122E+03  0.7546771E-02  0.1158993E+00
         21   -1    0    0  501  502  0.00000000000E+00  0.00000000000E+00  0.12017969796E+04  0.12017969796E+04  0.00000000000E+00 0.  1.
         21   -1    0    0  502  503 -0.00000000000E+00 -0.00000000000E+00 -0.45142500844E+02  0.45142500844E+02  0.00000000000E+00 0. -1.
          6    1    1    2  501    0 -0.93320878855E+01 -0.76556578513E+02  0.94117308328E+03  0.96004362936E+03  0.17300000000E+03 0.  1.
         -6    1    1    2    0  503  0.93320878855E+01  0.76556578513E+02  0.21548139550E+03  0.28689585111E+03  0.17300000000E+03 0. -1.
<mgrwt>
<rscale>  2 0.18941224E+03</rscale>
<asrwt>0</asrwt>
<pdfrwt beam="1">  1       21 0.18489182E+00 0.18941224E+03</pdfrwt>
<pdfrwt beam="2">  1       21 0.69450010E-02 0.18941224E+03</pdfrwt>
<totfact> 0.25918096E+04</totfact>
</mgrwt>
</event>
<event>
 4    1  0.4510095E+000  0.3374942E+03  0.7546771E-02  0.1067868E+00
         21   -1    0    0  501  502  0.00000000000E+00  0.00000000000E+00  0.23270903308E+04  0.23270903308E+04  0.00000000000E+00 0. -1.
         21   -1    0    0  502  503 -0.00000000000E+00 -0.00000000000E+00 -0.49882739053E+02  0.49882739053E+02  0.00000000000E+00 0.  1.
          6    1    1    2  501    0 -0.26895613241E+03  0.10787004454E+03  0.97576037518E+03  0.10324779210E+04  0.17300000000E+03 0. -1.
         -6    1    1    2    0  503  0.26895613241E+03 -0.10787004454E+03  0.13014472166E+04  0.13444951488E+04  0.17300000000E+03 0.  1.
<mgrwt>
<rscale>  2 0.33749422E+03</rscale>
<asrwt>0</asrwt>
<pdfrwt beam="1">  1       21 0.35801381E+00 0.33749422E+03</pdfrwt>
<pdfrwt beam="2">  1       21 0.76742694E-02 0.33749422E+03</pdfrwt>
<totfact> 0.17407120E+03</totfact>
</mgrwt>
</event>
<event>
 4    1  0.4510095E+000  0.1902142E+03  0.7546771E-02  0.1158268E+00
         21   -1    0    0  503  502  0.00000000000E+00  0.00000000000E+00  0.13241908299E+04  0.13241908299E+04  0.00000000000E+00 0.  1.
         21   -1    0    0  501  503 -0.00000000000E+00 -0.00000000000E+00 -0.31756814152E+03  0.31756814152E+03  0.00000000000E+00 0.  1.
          6    1    1    2  501    0  0.75111522670E+02  0.24712030984E+02 -0.28145993802E+03  0.33970740649E+03  0.17300000000E+03 0.  1.
         -6    1    1    2    0  502 -0.75111522670E+02 -0.24712030984E+02  0.12880826264E+04  0.13020515649E+04  0.17300000000E+03 0.  1.
<mgrwt>
<rscale>  2 0.19021416E+03</rscale>
<asrwt>0</asrwt>
<pdfrwt beam="1">  1       21 0.20372166E+00 0.19021416E+03</pdfrwt>
<pdfrwt beam="2">  1       21 0.48856638E-01 0.19021416E+03</pdfrwt>
<totfact> 0.50981138E+02</totfact>
</mgrwt>
</event>
<event>
 4    1  0.4510095E+000  0.2059668E+03  0.7546771E-02  0.1144800E+00
         21   -1    0    0  501  502  0.00000000000E+00  0.00000000000E+00  0.46185171138E+03  0.46185171138E+03  0.00000000000E+00 0.  1.
         21   -1    0    0  502  503 -0.00000000000E+00 -0.00000000000E+00 -0.10187508268E+03  0.10187508268E+03  0.00000000000E+00 0.  1.
          6    1    1    2  501    0  0.65163566862E+02 -0.90813249948E+02  0.26839593662E+03  0.33831747754E+03  0.17300000000E+03 0.  1.
         -6    1    1    2    0  503 -0.65163566862E+02  0.90813249948E+02  0.91580692077E+02  0.22540931652E+03  0.17300000000E+03 0.  1.
<mgrwt>
<rscale>  2 0.20596683E+03</rscale>
<asrwt>0</asrwt>
<pdfrwt beam="1">  1       21 0.71054109E-01 0.20596683E+03</pdfrwt>
<pdfrwt beam="2">  1       21 0.15673090E-01 0.20596683E+03</pdfrwt>
<totfact> 0.64515943E+04</totfact>
</mgrwt>
</event>
<event>
 4    1  0.4510095E+000  0.1761414E+03  0.7546771E-02  0.1171590E+00
         21   -1    0    0  501  502  0.00000000000E+00  0.00000000000E+00  0.24290013286E+03  0.24290013286E+03  0.00000000000E+00 0. -1.
         21   -1    0    0  502  503 -0.00000000000E+00 -0.00000000000E+00 -0.72521869154E+03  0.72521869154E+03  0.00000000000E+00 0. -1.
          6    1    1    2  501    0 -0.26117592075E+02  0.20363736797E+02  0.19820905694E+03  0.26516530815E+03  0.17300000000E+03 0. -1.
         -6    1    1    2    0  503  0.26117592075E+02 -0.20363736797E+02 -0.68052761561E+03  0.70295351625E+03  0.17300000000E+03 0. -1.
<mgrwt>
<rscale>  2 0.17614145E+03</rscale>
<asrwt>0</asrwt>
<pdfrwt beam="1">  1       21 0.37369251E-01 0.17614145E+03</pdfrwt>
<pdfrwt beam="2">  1       21 0.11157211E+00 0.17614145E+03</pdfrwt>
<totfact> 0.44189552E+03</totfact>
</mgrwt>
</event>
<event>
 4    1  0.4510095E+000  0.1957979E+03  0.7546771E-02  0.1153334E+00
         21   -1    0    0  503  502  0.00000000000E+00  0.00000000000E+00  0.27074437944E+03  0.27074437944E+03  0.00000000000E+00 0.  1.
         21   -1    0    0  501  503 -0.00000000000E+00 -0.00000000000E+00 -0.19758779978E+03  0.19758779978E+03  0.00000000000E+00 0.  1.
          6    1    1    2  501    0 -0.82604896399E+02  0.39802684127E+02 -0.88073630143E+02  0.21469463640E+03  0.17300000000E+03 0.  1.
         -6    1    1    2    0  502  0.82604896399E+02 -0.39802684127E+02  0.16123020980E+03  0.25363754282E+03  0.17300000000E+03 0.  1.
<mgrwt>
<rscale>  2 0.19579791E+03</rscale>
<asrwt>0</asrwt>
<pdfrwt beam="1">  1       21 0.41652982E-01 0.19579791E+03</pdfrwt>
<pdfrwt beam="2">  1       21 0.30398123E-01 0.19579791E+03</pdfrwt>
<totfact> 0.57547410E+04</totfact>
</mgrwt>
</event>
<event>
 4    1  0.4510095E+000  0.1831418E+03  0.7546771E-02  0.1164797E+00
         21   -1    0    0  501  502  0.00000000000E+00  0.00000000000E+00  0.59976165727E+02  0.59976165727E+02  0.00000000000E+00 0.  1.
         21   -1    0    0  502  503 -0.00000000000E+00 -0.00000000000E+00 -0.60347887751E+03  0.60347887751E+03  0.00000000000E+00 0.  1.
          6    1    1    2  501    0  0.42229644333E+02 -0.42761638925E+02 -0.18193272032E+03  0.25814804928E+03  0.17300000000E+03 0. -1.
         -6    1    1    2    0  503 -0.42229644333E+02  0.42761638925E+02 -0.36156999146E+03  0.40530699395E+03  0.17300000000E+03 0. -1.
<mgrwt>
<rscale>  2 0.18314175E+03</rscale>
<asrwt>0</asrwt>
<pdfrwt beam="1">  1       21 0.92271022E-02 0.18314175E+03</pdfrwt>
<pdfrwt beam="2">  1       21 0.92842906E-01 0.18314175E+03</pdfrwt>
<totfact> 0.91746900E+04</totfact>
</mgrwt>
</event>
<event>
 4    1  0.4510095E+000  0.2025307E+03  0.7546771E-02  0.1147621E+00
         21   -1    0    0  503  502  0.00000000000E+00  0.00000000000E+00  0.17152984598E+04  0.17152984598E+04  0.00000000000E+00 0.  1.
         21   -1    0    0  501  503 -0.00000000000E+00 -0.00000000000E+00 -0.25399573069E+02  0.25399573069E+02  0.00000000000E+00 0.  1.
          6    1    1    2  501    0  0.10147756179E+03  0.28142604403E+02  0.63442243852E+03  0.66596586416E+03  0.17300000000E+03 0.  1.
         -6    1    1    2    0  502 -0.10147756179E+03 -0.28142604403E+02  0.10554764482E+04  0.10747321687E+04  0.17300000000E+03 0.  1.
<mgrwt>
<rscale>  2 0.20253074E+03</rscale>
<asrwt>0</asrwt>
<pdfrwt beam="1">  1       21 0.26389198E+00 0.20253074E+03</pdfrwt>
<pdfrwt beam="2">  1       21 0.39076280E-02 0.20253074E+03</pdfrwt>
<totfact> 0.22280744E+04</totfact>
</mgrwt>
</event>
<event>
 4    1  0.4510095E+000  0.3103798E+03  0.7546771E-02  0.1080164E+00
         21   -1    0    0  501  502  0.00000000000E+00  0.00000000000E+00  0.11323913097E+03  0.11323913097E+03  0.00000000000E+00 0. -1.
         21   -1    0    0  502  503 -0.00000000000E+00 -0.00000000000E+00 -0.87568478258E+03  0.87568478258E+03  0.00000000000E+00 0. -1.
          6    1    1    2  501    0  0.24657157308E+03 -0.74893857820E+02 -0.46469823706E+03  0.55882025923E+03  0.17300000000E+03 0. -1.
         -6    1    1    2    0  503 -0.24657157308E+03  0.74893857820E+02 -0.29774741455E+03  0.43010365432E+03  0.17300000000E+03 0. -1.
<mgrwt>
<rscale>  2 0.31037982E+03</rscale>
<asrwt>0</asrwt>
<pdfrwt beam="1">  1       21 0.17421405E-01 0.31037982E+03</pdfrwt>
<pdfrwt beam="2">  1       21 0.13472074E+00 0.31037982E+03</pdfrwt>
<totfact> 0.10997952E+04</totfact>
</mgrwt>
</event>
<event>
 4    1  0.4510095E+000  0.2526643E+03  0.7546771E-02  0.1111633E+00
         21   -1    0    0  503  502  0.00000000000E+00  0.00000000000E+00  0.32594571665E+03  0.32594571665E+03  0.00000000000E+00 0. -1.
         21   -1    0    0  501  503 -0.00000000000E+00 -0.00000000000E+00 -0.24922019032E+03  0.24922019032E+03  0.00000000000E+00 0.  1.
          6    1    1    2  501    0  0.16523174928E+03 -0.81294001241E+02  0.17143462595E+03  0.30533436849E+03  0.17300000000E+03 0. -1.
         -6    1    1    2    0  502 -0.16523174928E+03  0.81294001241E+02 -0.94709099621E+02  0.26983153848E+03  0.17300000000E+03 0.  1.
<mgrwt>
<rscale>  2 0.25266429E+03</rscale>
<asrwt>0</asrwt>
<pdfrwt beam="1">  1       21 0.50145495E-01 0.25266429E+03</pdfrwt>
<pdfrwt beam="2">  1       21 0.38341568E-01 0.25266429E+03</pdfrwt>
<totfact> 0.24079067E+04</totfact>
</mgrwt>
</event>
<event>
 4    1  0.4510095E+000  0.1803705E+03  0.7546771E-02  0.1167445E+00
         21   -1    0    0  503  502  0.00000000000E+00  0.00000000000E+00  0.74294952303E+02  0.74294952303E+02  0.00000000000E+00 0. -1.
         21   -1    0    0  501  503 -0.00000000000E+00 -0.00000000000E+00 -0.61579258776E+03  0.61579258776E+03  0.00000000000E+00 0. -1.
          6    1    1    2  501    0 -0.45477599401E+00  0.51032482626E+02 -0.45620435586E+03  0.49056695303E+03  0.17300000000E+03 0. -1.
         -6    1    1    2    0  502  0.45477599401E+00 -0.51032482626E+02 -0.85293279600E+02  0.19952058703E+03  0.17300000000E+03 0. -1.
<mgrwt>
<rscale>  2 0.18037051E+03</rscale>
<asrwt>0</asrwt>
<pdfrwt beam="1">  1       21 0.11429992E-01 0.18037051E+03</pdfrwt>
<pdfrwt beam="2">  1       21 0.94737323E-01 0.18037051E+03</pdfrwt>
<totfact> 0.60027732E+04</totfact>
</mgrwt>
</event>
<event>
 4    1  0.4510095E+000  0.2140166E+03  0.7546771E-02  0.1138424E+00
         21   -1    0    0  503  502  0.00000000000E+00  0.00000000000E+00  0.49629361891E+03  0.49629361891E+03  0.00000000000E+00 0. -1.
         21   -1    0    0  501  503 -0.00000000000E+00 -0.00000000000E+00 -0.98398104015E+02  0.98398104015E+02  0.00000000000E+00 0. -1.
          6    1    1    2  501    0  0.11364154635E+03 -0.54403011966E+02  0.12486605548E+03  0.24777937884E+03  0.17300000000E+03 0. -1.
         -6    1    1    2    0  502 -0.11364154635E+03  0.54403011966E+02  0.27302945941E+03  0.34691234408E+03  0.17300000000E+03 0. -1.
<mgrwt>
<rscale>  2 0.21401656E+03</rscale>
<asrwt>0</asrwt>
<pdfrwt beam="1">  1       21 0.76352863E-01 0.21401656E+03</pdfrwt>
<pdfrwt beam="2">  1       21 0.15138170E-01 0.21401656E+03</pdfrwt>
<totfact> 0.58342265E+04</totfact>
</mgrwt>
</event>
<event>
 4    1  0.4510095E+000  0.2634170E+03  0.7546771E-02  0.1105107E+00
         21   -1    0    0  503  502  0.00000000000E+00  0.00000000000E+00  0.20772995111E+03  0.20772995111E+03  0.00000000000E+00 0.  1.
         21   -1    0    0  501  503 -0.00000000000E+00 -0.00000000000E+00 -0.43014657175E+03  0.43014657175E+03  0.00000000000E+00 0. -1.
          6    1    1    2  501    0 -0.19650310530E+03 -0.29086672419E+02 -0.26197049468E+03  0.37150645350E+03  0.17300000000E+03 0. -1.
         -6    1    1    2    0  502  0.19650310530E+03  0.29086672419E+02  0.39553874040E+02  0.26637006937E+03  0.17300000000E+03 0.  1.
<mgrwt>
<rscale>  2 0.26341698E+03</rscale>
<asrwt>0</asrwt>
<pdfrwt beam="1">  1       21 0.31958454E-01 0.26341698E+03</pdfrwt>
<pdfrwt beam="2">  1       21 0.66176396E-01 0.26341698E+03</pdfrwt>
<totfact> 0.18998730E+04</totfact>
</mgrwt>
</event>
<event>
 4    1  0.4510095E+000  0.2711273E+03  0.7546771E-02  0.1100636E+00
         21   -1    0    0  501  502  0.00000000000E+00  0.00000000000E+00  0.18698333606E+03  0.18698333606E+03  0.00000000000E+00 0.  1.
         21   -1    0    0  502  503 -0.00000000000E+00 -0.00000000000E+00 -0.57369283425E+03  0.57369283425E+03  0.00000000000E+00 0. -1.
          6    1    1    2  501    0  0.54014101142E+02 -0.20165186142E+03  0.20016709319E+02  0.27186515957E+03  0.17300000000E+03 0.  1.
         -6    1    1    2    0  503 -0.54014101142E+02  0.20165186142E+03 -0.40672620751E+03  0.48881101073E+03  0.17300000000E+03 0.  1.
<mgrwt>
<rscale>  2 0.27112727E+03</rscale>
<asrwt>0</asrwt>
<pdfrwt beam="1">  1       21 0.28766668E-01 0.27112727E+03</pdfrwt>
<pdfrwt beam="2">  1       21 0.88260435E-01 0.27112727E+03</pdfrwt>
<totfact> 0.12138438E+04</totfact>
</mgrwt>
</event>
<event>
 4    1  0.4510095E+000  0.2117194E+03  0.7546771E-02  0.1140212E+00
         21   -1    0    0  503  502  0.00000000000E+00  0.00000000000E+00  0.98529138862E+02  0.98529138862E+02  0.00000000000E+00 0.  1.
         21   -1    0    0  501  503 -0.00000000000E+00 -0.00000000000E+00 -0.56920175414E+03  0.56920175414E+03  0.00000000000E+00 0.  1.
          6    1    1    2  501    0  0.11394318153E+03  0.43738487830E+02 -0.38491985760E+03  0.43930445104E+03  0.17300000000E+03 0.  1.
         -6    1    1    2    0  502 -0.11394318153E+03 -0.43738487830E+02 -0.85752757681E+02  0.22842644196E+03  0.17300000000E+03 0.  1.
<mgrwt>
<rscale>  2 0.21171940E+03</rscale>
<asrwt>0</asrwt>
<pdfrwt beam="1">  1       21 0.15158329E-01 0.21171940E+03</pdfrwt>
<pdfrwt beam="2">  1       21 0.87569501E-01 0.21171940E+03</pdfrwt>
<totfact> 0.42647219E+04</totfact>
</mgrwt>
</event>
<event>
 4    1  0.4510095E+000  0.1817497E+03  0.7546771E-02  0.1166120E+00
         21   -1    0    0  501  502  0.00000000000E+00  0.00000000000E+00  0.31652118752E+03  0.31652118752E+03  0.00000000000E+00 0. -1.
         21   -1    0    0  502  503 -0.00000000000E+00 -0.00000000000E+00 -0.12344826684E+03  0.12344826684E+03  0.00000000000E+00 0. -1.
          6    1    1    2  501    0 -0.48262221262E+02  0.27833395745E+02  0.18303423392E+03  0.25794276634E+03  0.17300000000E+03 0. -1.
         -6    1    1    2    0  503  0.48262221262E+02 -0.27833395745E+02  0.10038686756E+02  0.18202668802E+03  0.17300000000E+03 0. -1.
<mgrwt>
<rscale>  2 0.18174966E+03</rscale>
<asrwt>0</asrwt>
<pdfrwt beam="1">  1       21 0.48695567E-01 0.18174966E+03</pdfrwt>
<pdfrwt beam="2">  1       21 0.18992041E-01 0.18174966E+03</pdfrwt>
<totfact> 0.10274927E+05</totfact>
</mgrwt>
</event>
<event>
 4    1  0.4510095E+000  0.2019472E+03  0.7546771E-02  0.1148106E+00
         21   -1    0    0  503  502  0.00000000000E+00  0.00000000000E+00  0.14719996060E+04  0.14719996060E+04  0.00000000000E+00 0.  1.
         21   -1    0    0  501  503 -0.00000000000E+00 -0.00000000000E+00 -0.39066079824E+02  0.39066079824E+02  0.00000000000E+00 0. -1.
          6    1    1    2  501    0  0.85345937808E+02  0.59747388065E+02  0.30903849696E+03  0.36917133161E+03  0.17300000000E+03 0. -1.
         -6    1    1    2    0  502 -0.85345937808E+02 -0.59747388065E+02  0.11238950292E+04  0.11418943542E+04  0.17300000000E+03 0.  1.
<mgrwt>
<rscale>  2 0.20194722E+03</rscale>
<asrwt>0</asrwt>
<pdfrwt beam="1">  1       21 0.22646144E+00 0.20194722E+03</pdfrwt>
<pdfrwt beam="2">  1       21 0.60101673E-02 0.20194722E+03</pdfrwt>
<totfact> 0.17924826E+04</totfact>
</mgrwt>
</event>
<event>
 4    1  0.4510095E+000  0.2247266E+03  0.7546771E-02  0.1130407E+00
         21   -1    0    0  503  502  0.00000000000E+00  0.00000000000E+00  0.49380399448E+03  0.49380399448E+03  0.00000000000E+00 0. -1.
         21   -1    0    0  501  503 -0.00000000000E+00 -0.00000000000E+00 -0.33308737057E+03  0.33308737057E+03  0.00000000000E+00 0. -1.
          6    1    1    2  501    0  0.14233757214E+03 -0.17693624732E+02 -0.26381109369E+03  0.34655207682E+03  0.17300000000E+03 0. -1.
         -6    1    1    2    0  502 -0.14233757214E+03  0.17693624732E+02  0.42452771760E+03  0.48033928822E+03  0.17300000000E+03 0. -1.
<mgrwt>
<rscale>  2 0.22472661E+03</rscale>
<asrwt>0</asrwt>
<pdfrwt beam="1">  1       21 0.75969846E-01 0.22472661E+03</pdfrwt>
<pdfrwt beam="2">  1       21 0.51244211E-01 0.22472661E+03</pdfrwt>
<totfact> 0.54617989E+03</totfact>
</mgrwt>
</event>
<event>
 4    1  0.4510095E+000  0.2261414E+03  0.7546771E-02  0.1129385E+00
         21   -1    0    0  501  502  0.00000000000E+00  0.00000000000E+00  0.14186068760E+04  0.14186068760E+04  0.00000000000E+00 0. -1.
         21   -1    0    0  502  503 -0.00000000000E+00 -0.00000000000E+00 -0.64158514956E+02  0.64158514956E+02  0.00000000000E+00 0. -1.
          6    1    1    2  501    0  0.28318857407E+02 -0.14285996608E+03  0.11679499611E+04  0.11896415591E+04  0.17300000000E+03 0. -1.
         -6    1    1    2    0  503 -0.28318857407E+02  0.14285996608E+03  0.18649839991E+03  0.29312383179E+03  0.17300000000E+03 0. -1.
<mgrwt>
<rscale>  2 0.22614139E+03</rscale>
<asrwt>0</asrwt>
<pdfrwt beam="1">  1       21 0.21824719E+00 0.22614139E+03</pdfrwt>
<pdfrwt beam="2">  1       21 0.98705418E-02 0.22614139E+03</pdfrwt>
<totfact> 0.83212658E+03</totfact>
</mgrwt>
</event>
<event>
 4    1  0.4510095E+000  0.2109320E+03  0.7546771E-02  0.1140830E+00
         21   -1    0    0  501  502  0.00000000000E+00  0.00000000000E+00  0.84559569191E+02  0.84559569191E+02  0.00000000000E+00 0.  1.
         21   -1    0    0  502  503 -0.00000000000E+00 -0.00000000000E+00 -0.60049085067E+03  0.60049085067E+03  0.00000000000E+00 0. -1.
          6    1    1    2  501    0 -0.11893608300E+03 -0.20433404153E+02 -0.13745975829E+03  0.25176874507E+03  0.17300000000E+03 0.  1.
         -6    1    1    2    0  503  0.11893608300E+03  0.20433404153E+02 -0.37847152319E+03  0.43328167479E+03  0.17300000000E+03 0. -1.
<mgrwt>
<rscale>  2 0.21093202E+03</rscale>
<asrwt>0</asrwt>
<pdfrwt beam="1">  1       21 0.13009165E-01 0.21093202E+03</pdfrwt>
<pdfrwt beam="2">  1       21 0.92383206E-01 0.21093202E+03</pdfrwt>
<totfact> 0.49736845E+04</totfact>
</mgrwt>
</event>
<event>
 4    1  0.4510095E+000  0.2904832E+03  0.7546771E-02  0.1090097E+00
         21   -1    0    0  503  502  0.00000000000E+00  0.00000000000E+00  0.15929241558E+03  0.15929241558E+03  0.00000000000E+00 0.  1.
         21   -1    0    0  501  503 -0.00000000000E+00 -0.00000000000E+00 -0.10723913986E+04  0.10723913986E+04  0.00000000000E+00 0. -1.
          6    1    1    2  501    0  0.21613739560E+03  0.87955239215E+02 -0.89463687275E+03  0.94061449700E+03  0.17300000000E+03 0. -1.
         -6    1    1    2    0  502 -0.21613739560E+03 -0.87955239215E+02 -0.18462110262E+02  0.29106931717E+03  0.17300000000E+03 0.  1.
<mgrwt>
<rscale>  2 0.29048321E+03</rscale>
<asrwt>0</asrwt>
<pdfrwt beam="1">  1       21 0.24506526E-01 0.29048321E+03</pdfrwt>
<pdfrwt beam="2">  1       21 0.16498329E+00 0.29048321E+03</pdfrwt>
<totfact> 0.33859718E+03</totfact>
</mgrwt>
</event>
<event>
 4    1  0.4510095E+000  0.2143009E+03  0.7546771E-02  0.1138205E+00
         21   -1    0    0  503  502  0.00000000000E+00  0.00000000000E+00  0.12581616327E+03  0.12581616327E+03  0.00000000000E+00 0. -1.
         21   -1    0    0  501  503 -0.00000000000E+00 -0.00000000000E+00 -0.37391439555E+03  0.37391439555E+03  0.00000000000E+00 0. -1.
          6    1    1    2  501    0  0.69489114861E+02 -0.10567472629E+03 -0.16259527113E+03  0.26900205771E+03  0.17300000000E+03 0. -1.
         -6    1    1    2    0  502 -0.69489114861E+02  0.10567472629E+03 -0.85502961155E+02  0.23072850111E+03  0.17300000000E+03 0. -1.
<mgrwt>
<rscale>  2 0.21430092E+03</rscale>
<asrwt>0</asrwt>
<pdfrwt beam="1">  1       21 0.19356333E-01 0.21430092E+03</pdfrwt>
<pdfrwt beam="2">  1       21 0.57525291E-01 0.21430092E+03</pdfrwt>
<totfact> 0.68906005E+04</totfact>
</mgrwt>
</event>
<event>
 4    1  0.4510095E+000  0.2005950E+03  0.7546771E-02  0.1149238E+00
         21   -1    0    0  501  502  0.00000000000E+00  0.00000000000E+00  0.19522378281E+03  0.19522378281E+03  0.00000000000E+00 0.  1.
         21   -1    0    0  502  503 -0.00000000000E+00 -0.00000000000E+00 -0.23160789533E+03  0.23160789533E+03  0.00000000000E+00 0.  1.
          6    1    1    2  501    0 -0.79566065099E+02  0.63075989242E+02  0.52613729986E+02  0.20738019124E+03  0.17300000000E+03 0.  1.
         -6    1    1    2    0  503  0.79566065099E+02 -0.63075989242E+02 -0.88997842509E+02  0.21945148691E+03  0.17300000000E+03 0.  1.
<mgrwt>
<rscale>  2 0.20059496E+03</rscale>
<asrwt>0</asrwt>
<pdfrwt beam="1">  1       21 0.30034428E-01 0.20059496E+03</pdfrwt>
<pdfrwt beam="2">  1       21 0.35631984E-01 0.20059496E+03</pdfrwt>
<totfact> 0.80472811E+04</totfact>
</mgrwt>
</event>
<event>
 4    1  0.4510095E+000  0.1803781E+03  0.7546771E-02  0.1167438E+00
         21   -1    0    0  501  502  0.00000000000E+00  0.00000000000E+00  0.18021385904E+03  0.18021385904E+03  0.00000000000E+00 0. -1.
         21   -1    0    0  502  503 -0.00000000000E+00 -0.00000000000E+00 -0.18132493719E+03  0.18132493719E+03  0.00000000000E+00 0. -1.
          6    1    1    2  501    0  0.31854051966E+01 -0.50961718207E+02  0.11319833556E+02  0.18073290282E+03  0.17300000000E+03 0. -1.
         -6    1    1    2    0  503 -0.31854051966E+01  0.50961718207E+02 -0.12430911706E+02  0.18080589342E+03  0.17300000000E+03 0. -1.
<mgrwt>
<rscale>  2 0.18037806E+03</rscale>
<asrwt>0</asrwt>
<pdfrwt beam="1">  1       21 0.27725209E-01 0.18037806E+03</pdfrwt>
<pdfrwt beam="2">  1       21 0.27896144E-01 0.18037806E+03</pdfrwt>
<totfact> 0.15298090E+05</totfact>
</mgrwt>
</event>
<event>
 4    1  0.4510095E+000  0.2244874E+03  0.7546771E-02  0.1130581E+00
         21   -1    0    0  503  502  0.00000000000E+00  0.00000000000E+00  0.20250529751E+04  0.20250529751E+04  0.00000000000E+00 0. -1.
         21   -1    0    0  501  503 -0.00000000000E+00 -0.00000000000E+00 -0.35891353762E+02  0.35891353762E+02  0.00000000000E+00 0. -1.
          6    1    1    2  501    0 -0.11184849557E+03  0.89193666239E+02  0.15652071940E+04  0.15812236263E+04  0.17300000000E+03 0. -1.
         -6    1    1    2    0  502  0.11184849557E+03 -0.89193666239E+02  0.42395442736E+03  0.47972070263E+03  0.17300000000E+03 0. -1.
<mgrwt>
<rscale>  2 0.22448741E+03</rscale>
<asrwt>0</asrwt>
<pdfrwt beam="1">  1       21 0.31154652E+00 0.22448741E+03</pdfrwt>
<pdfrwt beam="2">  1       21 0.55217483E-02 0.22448741E+03</pdfrwt>
<totfact> 0.64290983E+03</totfact>
</mgrwt>
</event>
<event>
 4    1  0.4510095E+000  0.1903379E+03  0.7546771E-02  0.1158157E+00
         21   -1    0    0  501  502  0.00000000000E+00  0.00000000000E+00  0.11145044835E+03  0.11145044835E+03  0.00000000000E+00 0.  1.
         21   -1    0    0  502  503 -0.00000000000E+00 -0.00000000000E+00 -0.33370656547E+03  0.33370656547E+03  0.00000000000E+00 0. -1.
          6    1    1    2  501    0  0.24776622233E+02  0.75403171174E+02 -0.75308165336E+02  0.20469450163E+03  0.17300000000E+03 0.  1.
         -6    1    1    2    0  503 -0.24776622233E+02 -0.75403171174E+02 -0.14694795179E+03  0.24046251219E+03  0.17300000000E+03 0.  1.
<mgrwt>
<rscale>  2 0.19033791E+03</rscale>
<asrwt>0</asrwt>
<pdfrwt beam="1">  1       21 0.17146223E-01 0.19033791E+03</pdfrwt>
<pdfrwt beam="2">  1       21 0.51339472E-01 0.19033791E+03</pdfrwt>
<totfact> 0.11082386E+05</totfact>
</mgrwt>
</event>
<event>
 4    1  0.4510095E+000  0.2213202E+03  0.7546771E-02  0.1132903E+00
         21   -1    0    0  503  502  0.00000000000E+00  0.00000000000E+00  0.18967358677E+03  0.18967358677E+03  0.00000000000E+00 0.  1.
         21   -1    0    0  501  503 -0.00000000000E+00 -0.00000000000E+00 -0.27186798196E+03  0.27186798196E+03  0.00000000000E+00 0. -1.
          6    1    1    2  501    0  0.64924757432E+01 -0.13788209711E+03 -0.92751538968E+02  0.23996973335E+03  0.17300000000E+03 0. -1.
         -6    1    1    2    0  502 -0.64924757432E+01  0.13788209711E+03  0.10557143783E+02  0.22157183537E+03  0.17300000000E+03 0. -1.
<mgrwt>
<rscale>  2 0.22132019E+03</rscale>
<asrwt>0</asrwt>
<pdfrwt beam="1">  1       21 0.29180552E-01 0.22132019E+03</pdfrwt>
<pdfrwt beam="2">  1       21 0.41825843E-01 0.22132019E+03</pdfrwt>
<totfact> 0.61092235E+04</totfact>
</mgrwt>
</event>
<event>
 4    1  0.4510095E+000  0.2171158E+03  0.7546771E-02  0.1136052E+00
         21   -1    0    0  501  502  0.00000000000E+00  0.00000000000E+00  0.36092597458E+03  0.36092597458E+03  0.00000000000E+00 0.  1.
         21   -1    0    0  502  503 -0.00000000000E+00 -0.00000000000E+00 -0.13258437123E+03  0.13258437123E+03  0.00000000000E+00 0.  1.
          6    1    1    2  501    0 -0.12249900675E+03 -0.46949445609E+02  0.84032029548E+02  0.23281030709E+03  0.17300000000E+03 0.  1.
         -6    1    1    2    0  503  0.12249900675E+03  0.46949445609E+02  0.14430957379E+03  0.26070003872E+03  0.17300000000E+03 0.  1.
<mgrwt>
<rscale>  2 0.21711577E+03</rscale>
<asrwt>0</asrwt>
<pdfrwt beam="1">  1       21 0.55527073E-01 0.21711577E+03</pdfrwt>
<pdfrwt beam="2">  1       21 0.20397596E-01 0.21711577E+03</pdfrwt>
<totfact> 0.67276514E+04</totfact>
</mgrwt>
</event>
<event>
 4    1  0.4510095E+000  0.2181194E+03  0.7546771E-02  0.1135293E+00
         21   -1    0    0  501  502  0.00000000000E+00  0.00000000000E+00  0.32738312060E+03  0.32738312060E+03  0.00000000000E+00 0. -1.
         21   -1    0    0  502  503 -0.00000000000E+00 -0.00000000000E+00 -0.18333274924E+03  0.18333274924E+03  0.00000000000E+00 0. -1.
          6    1    1    2  501    0 -0.11941491941E+03  0.58199076684E+02  0.18829876784E+03  0.28815357273E+03  0.17300000000E+03 0. -1.
         -6    1    1    2    0  503  0.11941491941E+03 -0.58199076684E+02 -0.44248396481E+02  0.22256229711E+03  0.17300000000E+03 0. -1.
<mgrwt>
<rscale>  2 0.21811936E+03</rscale>
<asrwt>0</asrwt>
<pdfrwt beam="1">  1       21 0.50366634E-01 0.21811936E+03</pdfrwt>
<pdfrwt beam="2">  1       21 0.28205038E-01 0.21811936E+03</pdfrwt>
<totfact> 0.44522281E+04</totfact>
</mgrwt>
</event>
<event>
 4    1  0.4510095E+000  0.2533396E+03  0.7546771E-02  0.1111212E+00
         21   -1    0    0  503  502  0.00000000000E+00  0.00000000000E+00  0.25867286842E+03  0.25867286842E+03  0.00000000000E+00 0. -1.
         21   -1    0    0  501  503 -0.00000000000E+00 -0.00000000000E+00 -0.79018685390E+03  0.79018685390E+03  0.00000000000E+00 0.  1.
          6    1    1    2  501    0 -0.16409238589E+03 -0.85589865234E+02 -0.70011761828E+03  0.74454389767E+03  0.17300000000E+03 0.  1.
         -6    1    1    2    0  502  0.16409238589E+03  0.85589865234E+02  0.16860363281E+03  0.30431582465E+03  0.17300000000E+03 0. -1.
<mgrwt>
<rscale>  2 0.25333957E+03</rscale>
<asrwt>0</asrwt>
<pdfrwt beam="1">  1       21 0.39795826E-01 0.25333957E+03</pdfrwt>
<pdfrwt beam="2">  1       21 0.12156721E+00 0.25333957E+03</pdfrwt>
<totfact> 0.29683765E+03</totfact>
</mgrwt>
</event>
<event>
 4    1  0.4510095E+000  0.2113356E+03  0.7546771E-02  0.1140513E+00
         21   -1    0    0  503  502  0.00000000000E+00  0.00000000000E+00  0.17183057550E+03  0.17183057550E+03  0.00000000000E+00 0.  1.
         21   -1    0    0  501  503 -0.00000000000E+00 -0.00000000000E+00 -0.67309838780E+03  0.67309838780E+03  0.00000000000E+00 0.  1.
          6    1    1    2  501    0  0.40398095432E+02  0.11446276804E+03 -0.58162637291E+03  0.61883113128E+03  0.17300000000E+03 0.  1.
         -6    1    1    2    0  502 -0.40398095432E+02 -0.11446276804E+03  0.80358560610E+02  0.22609783202E+03  0.17300000000E+03 0.  1.
<mgrwt>
<rscale>  2 0.21133559E+03</rscale>
<asrwt>0</asrwt>
<pdfrwt beam="1">  1       21 0.26435474E-01 0.21133559E+03</pdfrwt>
<pdfrwt beam="2">  1       21 0.10355360E+00 0.21133559E+03</pdfrwt>
<totfact> 0.10148076E+04</totfact>
</mgrwt>
</event>
<event>
 4    1  0.4510095E+000  0.1817481E+03  0.7546771E-02  0.1166122E+00
         21   -1    0    0  501  502  0.00000000000E+00  0.00000000000E+00  0.65294373730E+03  0.65294373730E+03  0.00000000000E+00 0. -1.
         21   -1    0    0  502  503 -0.00000000000E+00 -0.00000000000E+00 -0.52684941179E+02  0.52684941179E+02  0.00000000000E+00 0. -1.
          6    1    1    2  501    0  0.55502059595E+02 -0.47850329780E+01  0.22977413433E+03  0.29296506271E+03  0.17300000000E+03 0. -1.
         -6    1    1    2    0  503 -0.55502059595E+02  0.47850329780E+01  0.37048466179E+03  0.41266361577E+03  0.17300000000E+03 0. -1.
<mgrwt>
<rscale>  2 0.18174811E+03</rscale>
<asrwt>0</asrwt>
<pdfrwt beam="1">  1       21 0.10045288E+00 0.18174811E+03</pdfrwt>
<pdfrwt beam="2">  1       21 0.81053760E-02 0.18174811E+03</pdfrwt>
<totfact> 0.95702246E+04</totfact>
</mgrwt>
</event>
<event>
 4    1  0.4510095E+000  0.1909197E+03  0.7546771E-02  0.1157634E+00
         21   -1    0    0  501  502  0.00000000000E+00  0.00000000000E+00  0.64105695116E+03  0.64105695116E+03  0.00000000000E+00 0.  1.
         21   -1    0    0  502  503 -0.00000000000E+00 -0.00000000000E+00 -0.70273776624E+02  0.70273776624E+02  0.00000000000E+00 0. -1.
          6    1    1    2  501    0  0.79396495776E+02  0.14748485576E+02  0.44078225340E+03  0.48035332442E+03  0.17300000000E+03 0.  1.
         -6    1    1    2    0  503 -0.79396495776E+02 -0.14748485576E+02  0.13000092113E+03  0.23097740336E+03  0.17300000000E+03 0. -1.
<mgrwt>
<rscale>  2 0.19091967E+03</rscale>
<asrwt>0</asrwt>
<pdfrwt beam="1">  1       21 0.98624142E-01 0.19091967E+03</pdfrwt>
<pdfrwt beam="2">  1       21 0.10811351E-01 0.19091967E+03</pdfrwt>
<totfact> 0.60003017E+04</totfact>
</mgrwt>
</event>
<event>
 4    1  0.4510095E+000  0.2617909E+03  0.7546771E-02  0.1106072E+00
         21   -1    0    0  501  502  0.00000000000E+00  0.00000000000E+00  0.57658268389E+03  0.57658268389E+03  0.00000000000E+00 0.  1.
         21   -1    0    0  502  503 -0.00000000000E+00 -0.00000000000E+00 -0.18365372152E+03  0.18365372152E+03  0.00000000000E+00 0. -1.
          6    1    1    2  501    0 -0.19565297323E+03  0.18039097007E+02  0.42223870188E+03  0.49680983919E+03  0.17300000000E+03 0.  1.
         -6    1    1    2    0  503  0.19565297323E+03 -0.18039097007E+02 -0.29309739504E+02  0.26342656621E+03  0.17300000000E+03 0. -1.
<mgrwt>
<rscale>  2 0.26179094E+03</rscale>
<asrwt>0</asrwt>
<pdfrwt beam="1">  1       21 0.88705027E-01 0.26179094E+03</pdfrwt>
<pdfrwt beam="2">  1       21 0.28254419E-01 0.26179094E+03</pdfrwt>
<totfact> 0.12484295E+04</totfact>
</mgrwt>
</event>
<event>
 4    1  0.4510095E+000  0.1809986E+03  0.7546771E-02  0.1166840E+00
         21   -1    0    0  501  502  0.00000000000E+00  0.00000000000E+00  0.61058379222E+03  0.61058379222E+03  0.00000000000E+00 0.  1.
         21   -1    0    0  502  503 -0.00000000000E+00 -0.00000000000E+00 -0.70370605344E+02  0.70370605344E+02  0.00000000000E+00 0. -1.
          6    1    1    2  501    0 -0.37991601857E+02 -0.37257723617E+02  0.43605053160E+03  0.47212346467E+03  0.17300000000E+03 0.  1.
         -6    1    1    2    0  503  0.37991601857E+02  0.37257723617E+02  0.10416265528E+03  0.20883093290E+03  0.17300000000E+03 0. -1.
<mgrwt>
<rscale>  2 0.18099862E+03</rscale>
<asrwt>0</asrwt>
<pdfrwt beam="1">  1       21 0.93935964E-01 0.18099862E+03</pdfrwt>
<pdfrwt beam="2">  1       21 0.10826247E-01 0.18099862E+03</pdfrwt>
<totfact> 0.67406977E+04</totfact>
</mgrwt>
</event>
<event>
 4    1  0.4510095E+000  0.1775966E+03  0.7546771E-02  0.1170150E+00
         21   -1    0    0  503  502  0.00000000000E+00  0.00000000000E+00  0.27609254042E+03  0.27609254042E+03  0.00000000000E+00 0.  1.
         21   -1    0    0  501  503 -0.00000000000E+00 -0.00000000000E+00 -0.15558453484E+03  0.15558453484E+03  0.00000000000E+00 0.  1.
          6    1    1    2  501    0 -0.36952721561E+02  0.15686238875E+02 -0.51011257843E+02  0.18477746115E+03  0.17300000000E+03 0.  1.
         -6    1    1    2    0  502  0.36952721561E+02 -0.15686238875E+02  0.17151926343E+03  0.24689961411E+03  0.17300000000E+03 0.  1.
<mgrwt>
<rscale>  2 0.17759663E+03</rscale>
<asrwt>0</asrwt>
<pdfrwt beam="1">  1       21 0.42475776E-01 0.17759663E+03</pdfrwt>
<pdfrwt beam="2">  1       21 0.23936082E-01 0.17759663E+03</pdfrwt>
<totfact> 0.88270450E+04</totfact>
</mgrwt>
</event>
<event>
 4    1  0.4510095E+000  0.1743813E+03  0.7546771E-02  0.1173354E+00
         21   -1    0    0  503  502  0.00000000000E+00  0.00000000000E+00  0.30617619747E+03  0.30617619747E+03  0.00000000000E+00 0.  1.
         21   -1    0    0  501  503 -0.00000000000E+00 -0.00000000000E+00 -0.10099627113E+03  0.10099627113E+03  0.00000000000E+00 0.  1.
          6    1    1    2  501    0  0.91415226797E+00  0.21886121707E+02  0.76346935008E+02  0.19036200378E+03  0.17300000000E+03 0.  1.
         -6    1    1    2    0  502 -0.91415226797E+00 -0.21886121707E+02  0.12883299134E+03  0.21681046482E+03  0.17300000000E+03 0.  1.
<mgrwt>
<rscale>  2 0.17438130E+03</rscale>
<asrwt>0</asrwt>
<pdfrwt beam="1">  1       21 0.47104030E-01 0.17438130E+03</pdfrwt>
<pdfrwt beam="2">  1       21 0.15537888E-01 0.17438130E+03</pdfrwt>
<totfact> 0.15958928E+05</totfact>
</mgrwt>
</event>
<event>
 4    1  0.4510095E+000  0.1978165E+03  0.7546771E-02  0.1151594E+00
         21   -1    0    0  501  502  0.00000000000E+00  0.00000000000E+00  0.30745548138E+04  0.30745548138E+04  0.00000000000E+00 0. -1.
         21   -1    0    0  502  503 -0.00000000000E+00 -0.00000000000E+00 -0.12734224141E+02  0.12734224141E+02  0.00000000000E+00 0. -1.
          6    1    1    2  501    0  0.23462727728E+02  0.93015514363E+02  0.15663911263E+04  0.15788326530E+04  0.17300000000E+03 0.  1.
         -6    1    1    2    0  503 -0.23462727728E+02 -0.93015514363E+02  0.14954294633E+04  0.15084563849E+04  0.17300000000E+03 0.  1.
<mgrwt>
<rscale>  2 0.19781655E+03</rscale>
<asrwt>0</asrwt>
<pdfrwt beam="1">  1       21 0.47300784E+00 0.19781655E+03</pdfrwt>
<pdfrwt beam="2">  1       21 0.19591139E-02 0.19781655E+03</pdfrwt>
<totfact> 0.36813933E+03</totfact>
</mgrwt>
</event>
<event>
 4    1  0.4510095E+000  0.1862669E+03  0.7546771E-02  0.1161872E+00
         21   -1    0    0  503  502  0.00000000000E+00  0.00000000000E+00  0.10697717519E+04  0.10697717519E+04  0.00000000000E+00 0.  1.
         21   -1    0    0  501  503 -0.00000000000E+00 -0.00000000000E+00 -0.74034176523E+02  0.74034176523E+02  0.00000000000E+00 0.  1.
          6    1    1    2  501    0 -0.39259760752E+02 -0.56789317894E+02  0.69160655903E+02  0.19869210293E+03  0.17300000000E+03 0.  1.
         -6    1    1    2    0  502  0.39259760752E+02  0.56789317894E+02  0.92657691950E+03  0.94511382553E+03  0.17300000000E+03 0.  1.
<mgrwt>
<rscale>  2 0.18626689E+03</rscale>
<asrwt>0</asrwt>
<pdfrwt beam="1">  1       21 0.16458026E+00 0.18626689E+03</pdfrwt>
<pdfrwt beam="2">  1       21 0.11389874E-01 0.18626689E+03</pdfrwt>
<totfact> 0.15089012E+04</totfact>
</mgrwt>
</event>
<event>
 4    1  0.4510095E+000  0.1787324E+03  0.7546771E-02  0.1169036E+00
         21   -1    0    0  503  502  0.00000000000E+00  0.00000000000E+00  0.37031789352E+02  0.37031789352E+02  0.00000000000E+00 0. -1.
         21   -1    0    0  501  503 -0.00000000000E+00 -0.00000000000E+00 -0.96758746275E+03  0.96758746275E+03  0.00000000000E+00 0. -1.
          6    1    1    2  501    0  0.58347265307E+01 -0.44522108271E+02 -0.29985195796E+03  0.34907944490E+03  0.17300000000E+03 0. -1.
         -6    1    1    2    0  502 -0.58347265307E+01  0.44522108271E+02 -0.63070371544E+03  0.65553980720E+03  0.17300000000E+03 0. -1.
<mgrwt>
<rscale>  2 0.17873238E+03</rscale>
<asrwt>0</asrwt>
<pdfrwt beam="1">  1       21 0.56971986E-02 0.17873238E+03</pdfrwt>
<pdfrwt beam="2">  1       21 0.14885960E+00 0.17873238E+03</pdfrwt>
<totfact> 0.66180139E+04</totfact>
</mgrwt>
</event>
<event>
 4    1  0.4510095E+000  0.2069836E+03  0.7546771E-02  0.1143977E+00
         21   -1    0    0  503  502  0.00000000000E+00  0.00000000000E+00  0.54961476518E+03  0.54961476518E+03  0.00000000000E+00 0.  1.
         21   -1    0    0  501  503 -0.00000000000E+00 -0.00000000000E+00 -0.22339350237E+03  0.22339350237E+03  0.00000000000E+00 0.  1.
          6    1    1    2  501    0 -0.10527064755E+03 -0.42793755860E+02 -0.14875443688E+03  0.25489232485E+03  0.17300000000E+03 0.  1.
         -6    1    1    2    0  502  0.10527064755E+03  0.42793755860E+02  0.47497569969E+03  0.51811594270E+03  0.17300000000E+03 0.  1.
<mgrwt>
<rscale>  2 0.20698361E+03</rscale>
<asrwt>0</asrwt>
<pdfrwt beam="1">  1       21 0.84556117E-01 0.20698361E+03</pdfrwt>
<pdfrwt beam="2">  1       21 0.34368231E-01 0.20698361E+03</pdfrwt>
<totfact> 0.97961360E+03</totfact>
</mgrwt>
</event>
<event>
 4    1  0.4510095E+000  0.2058352E+03  0.7546771E-02  0.1144907E+00
         21   -1    0    0  501  502  0.00000000000E+00  0.00000000000E+00  0.18383924524E+03  0.18383924524E+03  0.00000000000E+00 0.  1.
         21   -1    0    0  502  503 -0.00000000000E+00 -0.00000000000E+00 -0.23461981545E+03  0.23461981545E+03  0.00000000000E+00 0.  1.
          6    1    1    2  501    0  0.44769661577E+02 -0.10215081236E+03 -0.53240616003E+02  0.21260920548E+03  0.17300000000E+03 0.  1.
         -6    1    1    2    0  503 -0.44769661577E+02  0.10215081236E+03  0.24600457886E+01  0.20584985520E+03  0.17300000000E+03 0.  1.
<mgrwt>
<rscale>  2 0.20583516E+03</rscale>
<asrwt>0</asrwt>
<pdfrwt beam="1">  1       21 0.28282961E-01 0.20583516E+03</pdfrwt>
<pdfrwt beam="2">  1       21 0.36095356E-01 0.20583516E+03</pdfrwt>
<totfact> 0.87955060E+04</totfact>
</mgrwt>
</event>
<event>
 4    1  0.4510095E+000  0.1881210E+03  0.7546771E-02  0.1160167E+00
         21   -1    0    0  501  502  0.00000000000E+00  0.00000000000E+00  0.22925600004E+03  0.22925600004E+03  0.00000000000E+00 0.  1.
         21   -1    0    0  502  503 -0.00000000000E+00 -0.00000000000E+00 -0.23152901222E+03  0.23152901222E+03  0.00000000000E+00 0. -1.
          6    1    1    2  501    0  0.10278562072E+02 -0.73176842127E+02  0.13186855638E+03  0.22973640379E+03  0.17300000000E+03 0.  1.
         -6    1    1    2    0  503 -0.10278562072E+02  0.73176842127E+02 -0.13414156856E+03  0.23104860848E+03  0.17300000000E+03 0. -1.
<mgrwt>
<rscale>  2 0.18812097E+03</rscale>
<asrwt>0</asrwt>
<pdfrwt beam="1">  1       21 0.35270154E-01 0.18812097E+03</pdfrwt>
<pdfrwt beam="2">  1       21 0.35619848E-01 0.18812097E+03</pdfrwt>
<totfact> 0.59017477E+04</totfact>
</mgrwt>
</event>
<event>
 4    1  0.4510095E+000  0.2067275E+03  0.7546771E-02  0.1144184E+00
         21   -1    0    0  503  502  0.00000000000E+00  0.00000000000E+00  0.65841911361E+03  0.65841911361E+03  0.00000000000E+00 0. -1.
         21   -1    0    0  501  503 -0.00000000000E+00 -0.00000000000E+00 -0.10346570225E+03  0.10346570225E+03  0.00000000000E+00 0.  1.
          6    1    1    2  501    0 -0.43805104395E+02 -0.10434726877E+03  0.44924559127E+02  0.21155248919E+03  0.17300000000E+03 0.  1.
         -6    1    1    2    0  502  0.43805104395E+02  0.10434726877E+03  0.51002885223E+03  0.55033232667E+03  0.17300000000E+03 0. -1.
<mgrwt>
<rscale>  2 0.20672745E+03</rscale>
<asrwt>0</asrwt>
<pdfrwt beam="1">  1       21 0.10129525E+00 0.20672745E+03</pdfrwt>
<pdfrwt beam="2">  1       21 0.15917801E-01 0.20672745E+03</pdfrwt>
<totfact> 0.27796707E+04</totfact>
</mgrwt>
</event>
<event>
 4    1  0.4510095E+000  0.1939076E+03  0.7546771E-02  0.1154983E+00
         21   -1    0    0  501  502  0.00000000000E+00  0.00000000000E+00  0.14278441783E+04  0.14278441783E+04  0.00000000000E+00 0.  1.
         21   -1    0    0  502  503 -0.00000000000E+00 -0.00000000000E+00 -0.29426971978E+02  0.29426971978E+02  0.00000000000E+00 0.  1.
          6    1    1    2  501    0 -0.34322808903E+01  0.87517847067E+02  0.93545202325E+03  0.95533797261E+03  0.17300000000E+03 0. -1.
         -6    1    1    2    0  503  0.34322808903E+01 -0.87517847067E+02  0.46296518308E+03  0.50193317768E+03  0.17300000000E+03 0. -1.
<mgrwt>
<rscale>  2 0.19390759E+03</rscale>
<asrwt>0</asrwt>
<pdfrwt beam="1">  1       21 0.21966828E+00 0.19390759E+03</pdfrwt>
<pdfrwt beam="2">  1       21 0.45272276E-02 0.19390759E+03</pdfrwt>
<totfact> 0.32130108E+04</totfact>
</mgrwt>
</event>
<event>
 4    1  0.4510095E+000  0.1827277E+03  0.7546771E-02  0.1165189E+00
         21   -1    0    0  501  502  0.00000000000E+00  0.00000000000E+00  0.45434374468E+03  0.45434374468E+03  0.00000000000E+00 0. -1.
         21   -1    0    0  502  503 -0.00000000000E+00 -0.00000000000E+00 -0.77514670948E+02  0.77514670948E+02  0.00000000000E+00 0.  1.
          6    1    1    2  501    0  0.47079908040E+02 -0.35268640813E+02  0.24901530197E+03  0.30886569149E+03  0.17300000000E+03 0. -1.
         -6    1    1    2    0  503 -0.47079908040E+02  0.35268640813E+02  0.12781377176E+03  0.22299272414E+03  0.17300000000E+03 0.  1.
<mgrwt>
<rscale>  2 0.18272765E+03</rscale>
<asrwt>0</asrwt>
<pdfrwt beam="1">  1       21 0.69899036E-01 0.18272765E+03</pdfrwt>
<pdfrwt beam="2">  1       21 0.11925334E-01 0.18272765E+03</pdfrwt>
<totfact> 0.11071314E+05</totfact>
</mgrwt>
</event>
<event>
 4    1  0.4510095E+000  0.2071851E+03  0.7546771E-02  0.1143815E+00
         21   -1    0    0  503  502  0.00000000000E+00  0.00000000000E+00  0.34079943272E+03  0.34079943272E+03  0.00000000000E+00 0. -1.
         21   -1    0    0  501  503 -0.00000000000E+00 -0.00000000000E+00 -0.37714226025E+03  0.37714226025E+03  0.00000000000E+00 0. -1.
          6    1    1    2  501    0  0.10372677954E+03  0.47301347202E+02 -0.31112896701E+03  0.37380061042E+03  0.17300000000E+03 0. -1.
         -6    1    1    2    0  502 -0.10372677954E+03 -0.47301347202E+02  0.27478613949E+03  0.34414108255E+03  0.17300000000E+03 0. -1.
<mgrwt>
<rscale>  2 0.20718509E+03</rscale>
<asrwt>0</asrwt>
<pdfrwt beam="1">  1       21 0.52430682E-01 0.20718509E+03</pdfrwt>
<pdfrwt beam="2">  1       21 0.58021886E-01 0.20718509E+03</pdfrwt>
<totfact> 0.95094702E+03</totfact>
</mgrwt>
</event>
<event>
 4    1  0.4510095E+000  0.1917119E+03  0.7546771E-02  0.1156926E+00
         21   -1    0    0  501  502  0.00000000000E+00  0.00000000000E+00  0.29952695061E+03  0.29952695061E+03  0.00000000000E+00 0. -1.
         21   -1    0    0  502  503 -0.00000000000E+00 -0.00000000000E+00 -0.13423160954E+03  0.13423160954E+03  0.00000000000E+00 0. -1.
          6    1    1    2  501    0  0.30089490510E+02 -0.76935516388E+02  0.14620149144E+03  0.24109816926E+03  0.17300000000E+03 0.  1.
         -6    1    1    2    0  503 -0.30089490510E+02  0.76935516388E+02  0.19093849629E+02  0.19266039088E+03  0.17300000000E+03 0.  1.
<mgrwt>
<rscale>  2 0.19171190E+03</rscale>
<asrwt>0</asrwt>
<pdfrwt beam="1">  1       21 0.46081069E-01 0.19171190E+03</pdfrwt>
<pdfrwt beam="2">  1       21 0.20651017E-01 0.19171190E+03</pdfrwt>
<totfact> 0.98150404E+04</totfact>
</mgrwt>
</event>
<event>
 4    1  0.4510095E+000  0.1993063E+03  0.7546771E-02  0.1150326E+00
         21   -1    0    0  501  502  0.00000000000E+00  0.00000000000E+00  0.60593489080E+03  0.60593489080E+03  0.00000000000E+00 0.  1.
         21   -1    0    0  502  503 -0.00000000000E+00 -0.00000000000E+00 -0.10725331467E+03  0.10725331467E+03  0.00000000000E+00 0.  1.
          6    1    1    2  501    0  0.30054112807E+02  0.94290882870E+02  0.47168191798E+03  0.51206137526E+03  0.17300000000E+03 0.  1.
         -6    1    1    2    0  503 -0.30054112807E+02 -0.94290882870E+02  0.26999658157E+02  0.20112683021E+03  0.17300000000E+03 0.  1.
<mgrwt>
<rscale>  2 0.19930635E+03</rscale>
<asrwt>0</asrwt>
<pdfrwt beam="1">  1       21 0.93220751E-01 0.19930635E+03</pdfrwt>
<pdfrwt beam="2">  1       21 0.16500510E-01 0.19930635E+03</pdfrwt>
<totfact> 0.31786573E+04</totfact>
</mgrwt>
</event>
<event>
 4    1  0.4510095E+000  0.2236068E+03  0.7546771E-02  0.1131222E+00
         21   -1    0    0  503  502  0.00000000000E+00  0.00000000000E+00  0.15031657202E+03  0.15031657202E+03  0.00000000000E+00 0.  1.
         21   -1    0    0  501  503 -0.00000000000E+00 -0.00000000000E+00 -0.34030104103E+03  0.34030104103E+03  0.00000000000E+00 0.  1.
          6    1    1    2  501    0  0.77254946242E+02  0.11875472244E+03 -0.13181947714E+03  0.25956961566E+03  0.17300000000E+03 0.  1.
         -6    1    1    2    0  502 -0.77254946242E+02 -0.11875472244E+03 -0.58164991877E+02  0.23104799740E+03  0.17300000000E+03 0.  1.
<mgrwt>
<rscale>  2 0.22360682E+03</rscale>
<asrwt>0</asrwt>
<pdfrwt beam="1">  1       21 0.23125627E-01 0.22360682E+03</pdfrwt>
<pdfrwt beam="2">  1       21 0.52354006E-01 0.22360682E+03</pdfrwt>
<totfact> 0.59950443E+04</totfact>
</mgrwt>
</event>
<event>
 4    1  0.4510095E+000  0.1888007E+03  0.7546771E-02  0.1159547E+00
         21   -1    0    0  501  502  0.00000000000E+00  0.00000000000E+00  0.65047335113E+02  0.65047335113E+02  0.00000000000E+00 0. -1.
         21   -1    0    0  502  503 -0.00000000000E+00 -0.00000000000E+00 -0.10147370911E+04  0.10147370911E+04  0.00000000000E+00 0. -1.
          6    1    1    2  501    0 -0.66686624564E+02 -0.35631669398E+02 -0.10868731238E+03  0.21785007145E+03  0.17300000000E+03 0. -1.
         -6    1    1    2    0  503  0.66686624564E+02  0.35631669398E+02 -0.84100244359E+03  0.86193435474E+03  0.17300000000E+03 0. -1.
<mgrwt>
<rscale>  2 0.18880075E+03</rscale>
<asrwt>0</asrwt>
<pdfrwt beam="1">  1       21 0.10007283E-01 0.18880075E+03</pdfrwt>
<pdfrwt beam="2">  1       21 0.15611339E+00 0.18880075E+03</pdfrwt>
<totfact> 0.21847002E+04</totfact>
</mgrwt>
</event>
<event>
 4    1  0.4510095E+000  0.2145992E+03  0.7546771E-02  0.1137975E+00
         21   -1    0    0  501  502  0.00000000000E+00  0.00000000000E+00  0.90571892569E+03  0.90571892569E+03  0.00000000000E+00 0. -1.
         21   -1    0    0  502  503 -0.00000000000E+00 -0.00000000000E+00 -0.51827453198E+02  0.51827453198E+02  0.00000000000E+00 0. -1.
          6    1    1    2  501    0  0.79256350712E+02 -0.99208066366E+02  0.36108418735E+03  0.42004118836E+03  0.17300000000E+03 0. -1.
         -6    1    1    2    0  503 -0.79256350712E+02  0.99208066366E+02  0.49280728514E+03  0.53750519053E+03  0.17300000000E+03 0. -1.
<mgrwt>
<rscale>  2 0.21459918E+03</rscale>
<asrwt>0</asrwt>
<pdfrwt beam="1">  1       21 0.13934136E+00 0.21459918E+03</pdfrwt>
<pdfrwt beam="2">  1       21 0.79734550E-02 0.21459918E+03</pdfrwt>
<totfact> 0.43184999E+04</totfact>
</mgrwt>
</event>
<event>
 4    1  0.4510095E+000  0.2220490E+03  0.7546771E-02  0.1132365E+00
         21   -1    0    0  503  502  0.00000000000E+00  0.00000000000E+00  0.68966432430E+03  0.68966432430E+03  0.00000000000E+00 0. -1.
         21   -1    0    0  501  503 -0.00000000000E+00 -0.00000000000E+00 -0.11826952663E+03  0.11826952663E+03  0.00000000000E+00 0. -1.
          6    1    1    2  501    0  0.42455252710E+02 -0.13256810199E+03  0.31643302822E+02  0.22429232881E+03  0.17300000000E+03 0. -1.
         -6    1    1    2    0  502 -0.42455252710E+02  0.13256810199E+03  0.53975149485E+03  0.58364152212E+03  0.17300000000E+03 0. -1.
<mgrwt>
<rscale>  2 0.22204898E+03</rscale>
<asrwt>0</asrwt>
<pdfrwt beam="1">  1       21 0.10610220E+00 0.22204898E+03</pdfrwt>
<pdfrwt beam="2">  1       21 0.18195312E-01 0.22204898E+03</pdfrwt>
<totfact> 0.19260930E+04</totfact>
</mgrwt>
</event>
<event>
 4    1  0.4510095E+000  0.1845851E+03  0.7546771E-02  0.1163438E+00
         21   -1    0    0  501  502  0.00000000000E+00  0.00000000000E+00  0.49256662548E+03  0.49256662548E+03  0.00000000000E+00 0. -1.
         21   -1    0    0  502  503 -0.00000000000E+00 -0.00000000000E+00 -0.86484712018E+02  0.86484712018E+02  0.00000000000E+00 0. -1.
          6    1    1    2  501    0 -0.41575323237E+02  0.49133865666E+02  0.33258110624E+03  0.38037065671E+03  0.17300000000E+03 0. -1.
         -6    1    1    2    0  503  0.41575323237E+02 -0.49133865666E+02  0.73500807227E+02  0.19868068079E+03  0.17300000000E+03 0. -1.
<mgrwt>
<rscale>  2 0.18458506E+03</rscale>
<asrwt>0</asrwt>
<pdfrwt beam="1">  1       21 0.75779479E-01 0.18458506E+03</pdfrwt>
<pdfrwt beam="2">  1       21 0.13305341E-01 0.18458506E+03</pdfrwt>
<totfact> 0.75995030E+04</totfact>
</mgrwt>
</event>
<event>
 4    1  0.4510095E+000  0.1814109E+03  0.7546771E-02  0.1166445E+00
         21   -1    0    0  503  502  0.00000000000E+00  0.00000000000E+00  0.68506466104E+03  0.68506466104E+03  0.00000000000E+00 0. -1.
         21   -1    0    0  501  503 -0.00000000000E+00 -0.00000000000E+00 -0.14370908208E+03  0.14370908208E+03  0.00000000000E+00 0. -1.
          6    1    1    2  501    0 -0.54242284074E+02 -0.62194971876E+01 -0.67427268332E+02  0.19353641529E+03  0.17300000000E+03 0. -1.
         -6    1    1    2    0  502  0.54242284074E+02  0.62194971876E+01  0.60878284729E+03  0.63523732784E+03  0.17300000000E+03 0. -1.
<mgrwt>
<rscale>  2 0.18141088E+03</rscale>
<asrwt>0</asrwt>
<pdfrwt beam="1">  1       21 0.10539456E+00 0.18141088E+03</pdfrwt>
<pdfrwt beam="2">  1       21 0.22109090E-01 0.18141088E+03</pdfrwt>
<totfact> 0.13951571E+04</totfact>
</mgrwt>
</event>
<event>
 4    1  0.4510095E+000  0.1756548E+03  0.7546771E-02  0.1172076E+00
         21   -1    0    0  503  502  0.00000000000E+00  0.00000000000E+00  0.10747325342E+04  0.10747325342E+04  0.00000000000E+00 0. -1.
         21   -1    0    0  501  503 -0.00000000000E+00 -0.00000000000E+00 -0.10913039623E+03  0.10913039623E+03  0.00000000000E+00 0.  1.
          6    1    1    2  501    0 -0.29826571468E+02  0.59972728932E+01 -0.25339799135E+02  0.17747308829E+03  0.17300000000E+03 0.  1.
         -6    1    1    2    0  502  0.29826571468E+02 -0.59972728932E+01  0.99094193707E+03  0.10063898421E+04  0.17300000000E+03 0. -1.
<mgrwt>
<rscale>  2 0.17565475E+03</rscale>
<asrwt>0</asrwt>
<pdfrwt beam="1">  1       21 0.16534346E+00 0.17565475E+03</pdfrwt>
<pdfrwt beam="2">  1       21 0.16789292E-01 0.17565475E+03</pdfrwt>
<totfact> 0.74551870E+03</totfact>
</mgrwt>
</event>
<event>
 4    1  0.4510095E+000  0.2533846E+03  0.7546771E-02  0.1111184E+00
         21   -1    0    0  503  502  0.00000000000E+00  0.00000000000E+00  0.32811425330E+03  0.32811425330E+03  0.00000000000E+00 0. -1.
         21   -1    0    0  501  503 -0.00000000000E+00 -0.00000000000E+00 -0.33742617764E+03  0.33742617764E+03  0.00000000000E+00 0. -1.
          6    1    1    2  501    0 -0.13120252154E+03  0.13061642168E+03 -0.22034020793E+03  0.33578796659E+03  0.17300000000E+03 0. -1.
         -6    1    1    2    0  502  0.13120252154E+03 -0.13061642168E+03  0.21102828359E+03  0.32975246436E+03  0.17300000000E+03 0. -1.
<mgrwt>
<rscale>  2 0.25338459E+03</rscale>
<asrwt>0</asrwt>
<pdfrwt beam="1">  1       21 0.50479116E-01 0.25338459E+03</pdfrwt>
<pdfrwt beam="2">  1       21 0.51911719E-01 0.25338459E+03</pdfrwt>
<totfact> 0.12695139E+04</totfact>
</mgrwt>
</event>
<event>
 4    1  0.4510095E+000  0.2246325E+03  0.7546771E-02  0.1130476E+00
         21   -1    0    0  503  502  0.00000000000E+00  0.00000000000E+00  0.63829273282E+03  0.63829273282E+03  0.00000000000E+00 0. -1.
         21   -1    0    0  501  503 -0.00000000000E+00 -0.00000000000E+00 -0.81167594991E+02  0.81167594991E+02  0.00000000000E+00 0.  1.
          6    1    1    2  501    0 -0.49387372783E+02  0.13450516644E+03  0.22051676129E+03  0.31478150263E+03  0.17300000000E+03 0.  1.
         -6    1    1    2    0  502  0.49387372783E+02 -0.13450516644E+03  0.33660837654E+03  0.40467882517E+03  0.17300000000E+03 0. -1.
<mgrwt>
<rscale>  2 0.22463248E+03</rscale>
<asrwt>0</asrwt>
<pdfrwt beam="1">  1       21 0.98198879E-01 0.22463248E+03</pdfrwt>
<pdfrwt beam="2">  1       21 0.12487323E-01 0.22463248E+03</pdfrwt>
<totfact> 0.46083329E+04</totfact>
</mgrwt>
</event>
<event>
 4    1  0.4510095E+000  0.1842555E+03  0.7546771E-02  0.1163747E+00
         21   -1    0    0  501  502  0.00000000000E+00  0.00000000000E+00  0.12712241693E+04  0.12712241693E+04  0.00000000000E+00 0. -1.
         21   -1    0    0  502  503 -0.00000000000E+00 -0.00000000000E+00 -0.32062811887E+02  0.32062811887E+02  0.00000000000E+00 0. -1.
          6    1    1    2  501    0 -0.39553784232E+02 -0.49564001783E+02  0.88592141691E+03  0.90487946660E+03  0.17300000000E+03 0. -1.
         -6    1    1    2    0  503  0.39553784232E+02  0.49564001783E+02  0.35323994050E+03  0.39840751460E+03  0.17300000000E+03 0. -1.
<mgrwt>
<rscale>  2 0.18425551E+03</rscale>
<asrwt>0</asrwt>
<pdfrwt beam="1">  1       21 0.19557291E+00 0.18425551E+03</pdfrwt>
<pdfrwt beam="2">  1       21 0.49327413E-02 0.18425551E+03</pdfrwt>
<totfact> 0.39694035E+04</totfact>
</mgrwt>
</event>
<event>
 4    1  0.4510095E+000  0.3234181E+03  0.7546771E-02  0.1074087E+00
         21   -1    0    0  503  502  0.00000000000E+00  0.00000000000E+00  0.41316238526E+03  0.41316238526E+03  0.00000000000E+00 0.  1.
         21   -1    0    0  501  503 -0.00000000000E+00 -0.00000000000E+00 -0.30912461878E+03  0.30912461878E+03  0.00000000000E+00 0. -1.
          6    1    1    2  501    0 -0.61084307801E+02 -0.26634370369E+03 -0.10163407792E+03  0.33901142598E+03  0.17300000000E+03 0. -1.
         -6    1    1    2    0  502  0.61084307801E+02  0.26634370369E+03  0.20567184440E+03  0.38327557805E+03  0.17300000000E+03 0.  1.
<mgrwt>
<rscale>  2 0.32341809E+03</rscale>
<asrwt>0</asrwt>
<pdfrwt beam="1">  1       21 0.63563444E-01 0.32341809E+03</pdfrwt>
<pdfrwt beam="2">  1       21 0.47557634E-01 0.32341809E+03</pdfrwt>
<totfact> 0.90039365E+03</totfact>
</mgrwt>
</event>
<event>
 4    1  0.4510095E+000  0.1792815E+03  0.7546771E-02  0.1168500E+00
         21   -1    0    0  501  502  0.00000000000E+00  0.00000000000E+00  0.21292969761E+03  0.21292969761E+03  0.00000000000E+00 0.  1.
         21   -1    0    0  502  503 -0.00000000000E+00 -0.00000000000E+00 -0.38976631822E+03  0.38976631822E+03  0.00000000000E+00 0.  1.
          6    1    1    2  501    0  0.34672640443E+02 -0.31791016471E+02  0.14746523478E+03  0.23213758031E+03  0.17300000000E+03 0.  1.
         -6    1    1    2    0  503 -0.34672640443E+02  0.31791016471E+02 -0.32430185540E+03  0.37055843552E+03  0.17300000000E+03 0.  1.
<mgrwt>
<rscale>  2 0.17928151E+03</rscale>
<asrwt>0</asrwt>
<pdfrwt beam="1">  1       21 0.32758415E-01 0.17928151E+03</pdfrwt>
<pdfrwt beam="2">  1       21 0.59964049E-01 0.17928151E+03</pdfrwt>
<totfact> 0.23451914E+04</totfact>
</mgrwt>
</event>
<event>
 4    1  0.4510095E+000  0.2821957E+03  0.7546771E-02  0.1094496E+00
         21   -1    0    0  501  502  0.00000000000E+00  0.00000000000E+00  0.61271961271E+02  0.61271961271E+02  0.00000000000E+00 0.  1.
         21   -1    0    0  502  503 -0.00000000000E+00 -0.00000000000E+00 -0.13098262740E+04  0.13098262740E+04  0.00000000000E+00 0.  1.
          6    1    1    2  501    0  0.22150561877E+03  0.25311578443E+02 -0.56396290944E+03  0.63062554529E+03  0.17300000000E+03 0.  1.
         -6    1    1    2    0  503 -0.22150561877E+03 -0.25311578443E+02 -0.68459140331E+03  0.74047269000E+03  0.17300000000E+03 0.  1.
<mgrwt>
<rscale>  2 0.28219570E+03</rscale>
<asrwt>0</asrwt>
<pdfrwt beam="1">  1       21 0.94264557E-02 0.28219570E+03</pdfrwt>
<pdfrwt beam="2">  1       21 0.20151173E+00 0.28219570E+03</pdfrwt>
<totfact> 0.11105002E+04</totfact>
</mgrwt>
</event>
<event>
 4    1  0.4510095E+000  0.3131349E+03  0.7546771E-02  0.1078853E+00
         21   -1    0    0  501  502  0.00000000000E+00  0.00000000000E+00  0.60356478368E+02  0.60356478368E+02  0.00000000000E+00 0.  1.
         21   -1    0    0  502  503 -0.00000000000E+00 -0.00000000000E+00 -0.16338191937E+04  0.16338191937E+04  0.00000000000E+00 0. -1.
          6    1    1    2  501    0  0.28236090377E+02 -0.25947479274E+03 -0.72300319608E+03  0.78790041656E+03  0.17300000000E+03 0.  1.
         -6    1    1    2    0  503 -0.28236090377E+02  0.25947479274E+03 -0.85045951927E+03  0.90627525553E+03  0.17300000000E+03 0.  1.
<mgrwt>
<rscale>  2 0.31313487E+03</rscale>
<asrwt>0</asrwt>
<pdfrwt beam="1">  1       21 0.92856123E-02 0.31313487E+03</pdfrwt>
<pdfrwt beam="2">  1       21 0.25135679E+00 0.31313487E+03</pdfrwt>
<totfact> 0.54796574E+03</totfact>
</mgrwt>
</event>
<event>
 4    1  0.4510095E+000  0.1807083E+03  0.7546771E-02  0.1167119E+00
         21   -1    0    0  503  502  0.00000000000E+00  0.00000000000E+00  0.30980451057E+02  0.30980451057E+02  0.00000000000E+00 0.  1.
         21   -1    0    0  501  503 -0.00000000000E+00 -0.00000000000E+00 -0.10577127120E+04  0.10577127120E+04  0.00000000000E+00 0.  1.
          6    1    1    2  501    0 -0.47063602787E+02 -0.22616620524E+02 -0.54532109553E+03  0.57448289049E+03  0.17300000000E+03 0.  1.
         -6    1    1    2    0  502  0.47063602787E+02  0.22616620524E+02 -0.48141116539E+03  0.51421027255E+03  0.17300000000E+03 0.  1.
<mgrwt>
<rscale>  2 0.18070831E+03</rscale>
<asrwt>0</asrwt>
<pdfrwt beam="1">  1       21 0.47662239E-02 0.18070831E+03</pdfrwt>
<pdfrwt beam="2">  1       21 0.16272501E+00 0.18070831E+03</pdfrwt>
<totfact> 0.70598528E+04</totfact>
</mgrwt>
</event>
<event>
 4    1  0.4510095E+000  0.2484905E+03  0.7546771E-02  0.1114263E+00
         21   -1    0    0  503  502  0.00000000000E+00  0.00000000000E+00  0.62017868436E+03  0.62017868436E+03  0.00000000000E+00 0.  1.
         21   -1    0    0  501  503 -0.00000000000E+00 -0.00000000000E+00 -0.10325161688E+03  0.10325161688E+03  0.00000000000E+00 0.  1.
          6    1    1    2  501    0  0.11796451883E+03  0.13380166501E+03  0.19010588615E+03  0.31287019866E+03  0.17300000000E+03 0.  1.
         -6    1    1    2    0  502 -0.11796451883E+03 -0.13380166501E+03  0.32682118133E+03  0.41056010257E+03  0.17300000000E+03 0.  1.
<mgrwt>
<rscale>  2 0.24849047E+03</rscale>
<asrwt>0</asrwt>
<pdfrwt beam="1">  1       21 0.95412104E-01 0.24849047E+03</pdfrwt>
<pdfrwt beam="2">  1       21 0.15884864E-01 0.24849047E+03</pdfrwt>
<totfact> 0.31481926E+04</totfact>
</mgrwt>
</event>
<event>
 4    1  0.4510095E+000  0.1817857E+03  0.7546771E-02  0.1166086E+00
         21   -1    0    0  501  502  0.00000000000E+00  0.00000000000E+00  0.54361769508E+02  0.54361769508E+02  0.00000000000E+00 0.  1.
         21   -1    0    0  502  503 -0.00000000000E+00 -0.00000000000E+00 -0.14626966554E+04  0.14626966554E+04  0.00000000000E+00 0.  1.
          6    1    1    2  501    0 -0.13755120297E+02  0.54109494884E+02 -0.12429987155E+03  0.22021920633E+03  0.17300000000E+03 0.  1.
         -6    1    1    2    0  503  0.13755120297E+02 -0.54109494884E+02 -0.12840350143E+04  0.12968392186E+04  0.17300000000E+03 0.  1.
<mgrwt>
<rscale>  2 0.18178570E+03</rscale>
<asrwt>0</asrwt>
<pdfrwt beam="1">  1       21 0.83633494E-02 0.18178570E+03</pdfrwt>
<pdfrwt beam="2">  1       21 0.22503025E+00 0.18178570E+03</pdfrwt>
<totfact> 0.10512757E+04</totfact>
</mgrwt>
</event>
<event>
 4    1  0.4510095E+000  0.2306901E+03  0.7546771E-02  0.1126155E+00
         21   -1    0    0  503  502  0.00000000000E+00  0.00000000000E+00  0.15873460624E+03  0.15873460624E+03  0.00000000000E+00 0.  1.
         21   -1    0    0  501  503 -0.00000000000E+00 -0.00000000000E+00 -0.38458371164E+03  0.38458371164E+03  0.00000000000E+00 0.  1.
          6    1    1    2  501    0  0.70900048931E+02 -0.13513732982E+03 -0.21020857255E+03  0.31209863637E+03  0.17300000000E+03 0.  1.
         -6    1    1    2    0  502 -0.70900048931E+02  0.13513732982E+03 -0.15640532858E+02  0.23121968151E+03  0.17300000000E+03 0.  1.
<mgrwt>
<rscale>  2 0.23069008E+03</rscale>
<asrwt>0</asrwt>
<pdfrwt beam="1">  1       21 0.24420709E-01 0.23069008E+03</pdfrwt>
<pdfrwt beam="2">  1       21 0.59166725E-01 0.23069008E+03</pdfrwt>
<totfact> 0.41515838E+04</totfact>
</mgrwt>
</event>
<event>
 4    1  0.4510095E+000  0.2755172E+03  0.7546771E-02  0.1098163E+00
         21   -1    0    0  501  502  0.00000000000E+00  0.00000000000E+00  0.24047227351E+03  0.24047227351E+03  0.00000000000E+00 0.  1.
         21   -1    0    0  502  503 -0.00000000000E+00 -0.00000000000E+00 -0.33865680476E+03  0.33865680476E+03  0.00000000000E+00 0. -1.
          6    1    1    2  501    0 -0.89229106317E+02 -0.19498433393E+03  0.26349355119E+02  0.27677429868E+03  0.17300000000E+03 0. -1.
         -6    1    1    2    0  503  0.89229106317E+02  0.19498433393E+03 -0.12453388636E+03  0.30235477960E+03  0.17300000000E+03 0.  1.
<mgrwt>
<rscale>  2 0.27551719E+03</rscale>
<asrwt>0</asrwt>
<pdfrwt beam="1">  1       21 0.36995734E-01 0.27551719E+03</pdfrwt>
<pdfrwt beam="2">  1       21 0.52101047E-01 0.27551719E+03</pdfrwt>
<totfact> 0.23635857E+04</totfact>
</mgrwt>
</event>
<event>
 4    1  0.4510095E+000  0.2172765E+03  0.7546771E-02  0.1135930E+00
         21   -1    0    0  501  502  0.00000000000E+00  0.00000000000E+00  0.27781432825E+04  0.27781432825E+04  0.00000000000E+00 0.  1.
         21   -1    0    0  502  503 -0.00000000000E+00 -0.00000000000E+00 -0.17098966028E+02  0.17098966028E+02  0.00000000000E+00 0.  1.
          6    1    1    2  501    0  0.28269929923E+02  0.12837783022E+03  0.12705106506E+04  0.12889555344E+04  0.17300000000E+03 0.  1.
         -6    1    1    2    0  503 -0.28269929923E+02 -0.12837783022E+03  0.14905336659E+04  0.15062867142E+04  0.17300000000E+03 0.  1.
<mgrwt>
<rscale>  2 0.21727645E+03</rscale>
<asrwt>0</asrwt>
<pdfrwt beam="1">  1       21 0.42740630E+00 0.21727645E+03</pdfrwt>
<pdfrwt beam="2">  1       21 0.26306124E-02 0.21727645E+03</pdfrwt>
<totfact> 0.44457251E+03</totfact>
</mgrwt>
</event>
<event>
 4    1  0.4510095E+000  0.2184203E+03  0.7546771E-02  0.1135066E+00
         21   -1    0    0  503  502  0.00000000000E+00  0.00000000000E+00  0.41211315051E+02  0.41211315051E+02  0.00000000000E+00 0. -1.
         21   -1    0    0  501  503 -0.00000000000E+00 -0.00000000000E+00 -0.11589059107E+04  0.11589059107E+04  0.00000000000E+00 0.  1.
          6    1    1    2  501    0  0.11196433576E+03 -0.72404482493E+02 -0.57876394666E+03  0.61860740985E+03  0.17300000000E+03 0.  1.
         -6    1    1    2    0  502 -0.11196433576E+03  0.72404482493E+02 -0.53893064897E+03  0.58150981588E+03  0.17300000000E+03 0. -1.
<mgrwt>
<rscale>  2 0.21842029E+03</rscale>
<asrwt>0</asrwt>
<pdfrwt beam="1">  1       21 0.63402036E-02 0.21842029E+03</pdfrwt>
<pdfrwt beam="2">  1       21 0.17829318E+00 0.21842029E+03</pdfrwt>
<totfact> 0.32978223E+04</totfact>
</mgrwt>
</event>
<event>
 4    1  0.4510095E+000  0.1737883E+03  0.7546771E-02  0.1173954E+00
         21   -1    0    0  501  502  0.00000000000E+00  0.00000000000E+00  0.72233075593E+03  0.72233075593E+03  0.00000000000E+00 0.  1.
         21   -1    0    0  502  503 -0.00000000000E+00 -0.00000000000E+00 -0.42388442573E+02  0.42388442573E+02  0.00000000000E+00 0.  1.
          6    1    1    2  501    0  0.10227911436E+02  0.12991424252E+02  0.29539803351E+03  0.34272785921E+03  0.17300000000E+03 0. -1.
         -6    1    1    2    0  503 -0.10227911436E+02 -0.12991424252E+02  0.38454427985E+03  0.42199133930E+03  0.17300000000E+03 0. -1.
<mgrwt>
<rscale>  2 0.17378834E+03</rscale>
<asrwt>0</asrwt>
<pdfrwt beam="1">  1       21 0.11112780E+00 0.17378834E+03</pdfrwt>
<pdfrwt beam="2">  1       21 0.65212994E-02 0.17378834E+03</pdfrwt>
<totfact> 0.10975677E+05</totfact>
</mgrwt>
</event>
<event>
 4    1  0.4510095E+000  0.1746640E+03  0.7546771E-02  0.1173070E+00
         21   -1    0    0  501  502  0.00000000000E+00  0.00000000000E+00  0.83495578991E+02  0.83495578991E+02  0.00000000000E+00 0.  1.
         21   -1    0    0  502  503 -0.00000000000E+00 -0.00000000000E+00 -0.39029690219E+03  0.39029690219E+03  0.00000000000E+00 0.  1.
          6    1    1    2  501    0  0.23918314635E+02  0.25344135503E+01 -0.93543149137E+02  0.19813588715E+03  0.17300000000E+03 0. -1.
         -6    1    1    2    0  503 -0.23918314635E+02 -0.25344135503E+01 -0.21325817406E+03  0.27565659403E+03  0.17300000000E+03 0. -1.
<mgrwt>
<rscale>  2 0.17466399E+03</rscale>
<asrwt>0</asrwt>
<pdfrwt beam="1">  1       21 0.12845474E-01 0.17466399E+03</pdfrwt>
<pdfrwt beam="2">  1       21 0.60045678E-01 0.17466399E+03</pdfrwt>
<totfact> 0.13519958E+05</totfact>
</mgrwt>
</event>
<event>
 4    1  0.4510095E+000  0.1841062E+03  0.7546771E-02  0.1163887E+00
         21   -1    0    0  501  502  0.00000000000E+00  0.00000000000E+00  0.16595353328E+03  0.16595353328E+03  0.00000000000E+00 0. -1.
         21   -1    0    0  502  503 -0.00000000000E+00 -0.00000000000E+00 -0.21827110247E+03  0.21827110247E+03  0.00000000000E+00 0. -1.
          6    1    1    2  501    0 -0.54199042586E+02  0.32071072672E+02  0.22541773961E+02  0.18548105427E+03  0.17300000000E+03 0. -1.
         -6    1    1    2    0  503  0.54199042586E+02 -0.32071072672E+02 -0.74859343149E+02  0.19874358147E+03  0.17300000000E+03 0. -1.
<mgrwt>
<rscale>  2 0.18410619E+03</rscale>
<asrwt>0</asrwt>
<pdfrwt beam="1">  1       21 0.25531313E-01 0.18410619E+03</pdfrwt>
<pdfrwt beam="2">  1       21 0.33580169E-01 0.18410619E+03</pdfrwt>
<totfact> 0.12464977E+05</totfact>
</mgrwt>
</event>
<event>
 4    1  0.4510095E+000  0.2712462E+03  0.7546771E-02  0.1100568E+00
         21   -1    0    0  503  502  0.00000000000E+00  0.00000000000E+00  0.96561789003E+02  0.96561789003E+02  0.00000000000E+00 0. -1.
         21   -1    0    0  501  503 -0.00000000000E+00 -0.00000000000E+00 -0.80301723265E+03  0.80301723265E+03  0.00000000000E+00 0.  1.
          6    1    1    2  501    0  0.67102377404E+02  0.19784530400E+03 -0.45495474106E+03  0.52967755265E+03  0.17300000000E+03 0.  1.
         -6    1    1    2    0  502 -0.67102377404E+02 -0.19784530400E+03 -0.25150070259E+03  0.36990146901E+03  0.17300000000E+03 0. -1.
<mgrwt>
<rscale>  2 0.27124619E+03</rscale>
<asrwt>0</asrwt>
<pdfrwt beam="1">  1       21 0.14855660E-01 0.27124619E+03</pdfrwt>
<pdfrwt beam="2">  1       21 0.12354111E+00 0.27124619E+03</pdfrwt>
<totfact> 0.18762202E+04</totfact>
</mgrwt>
</event>
<event>
 4    1  0.4510095E+000  0.2004920E+03  0.7546771E-02  0.1149325E+00
         21   -1    0    0  501  502  0.00000000000E+00  0.00000000000E+00  0.26077069524E+03  0.26077069524E+03  0.00000000000E+00 0. -1.
         21   -1    0    0  502  503 -0.00000000000E+00 -0.00000000000E+00 -0.15546574820E+03  0.15546574820E+03  0.00000000000E+00 0.  1.
          6    1    1    2  501    0 -0.76990224560E+02 -0.65882683710E+02  0.33484675957E+02  0.20326890125E+03  0.17300000000E+03 0.  1.
         -6    1    1    2    0  503  0.76990224560E+02  0.65882683710E+02  0.71820271082E+02  0.21296754220E+03  0.17300000000E+03 0. -1.
<mgrwt>
<rscale>  2 0.20049195E+03</rscale>
<asrwt>0</asrwt>
<pdfrwt beam="1">  1       21 0.40118569E-01 0.20049195E+03</pdfrwt>
<pdfrwt beam="2">  1       21 0.23917807E-01 0.20049195E+03</pdfrwt>
<totfact> 0.98356054E+04</totfact>
</mgrwt>
</event>
<event>
 4    1  0.4510095E+000  0.2312630E+03  0.7546771E-02  0.1125754E+00
         21   -1    0    0  503  502  0.00000000000E+00  0.00000000000E+00  0.77240776168E+02  0.77240776168E+02  0.00000000000E+00 0.  1.
         21   -1    0    0  501  503 -0.00000000000E+00 -0.00000000000E+00 -0.78935840413E+03  0.78935840413E+03  0.00000000000E+00 0.  1.
          6    1    1    2  501    0 -0.14812929891E+03  0.40140864274E+02 -0.50790819085E+03  0.55808001981E+03  0.17300000000E+03 0.  1.
         -6    1    1    2    0  502  0.14812929891E+03 -0.40140864274E+02 -0.20420943712E+03  0.30851916049E+03  0.17300000000E+03 0.  1.
<mgrwt>
<rscale>  2 0.23126301E+03</rscale>
<asrwt>0</asrwt>
<pdfrwt beam="1">  1       21 0.11883196E-01 0.23126301E+03</pdfrwt>
<pdfrwt beam="2">  1       21 0.12143976E+00 0.23126301E+03</pdfrwt>
<totfact> 0.29959346E+04</totfact>
</mgrwt>
</event>
<event>
 4    1  0.4510095E+000  0.1899793E+03  0.7546771E-02  0.1158480E+00
         21   -1    0    0  501  502  0.00000000000E+00  0.00000000000E+00  0.20993772856E+03  0.20993772856E+03  0.00000000000E+00 0.  1.
         21   -1    0    0  502  503 -0.00000000000E+00 -0.00000000000E+00 -0.18681249744E+03  0.18681249744E+03  0.00000000000E+00 0.  1.
          6    1    1    2  501    0 -0.77631428408E+02  0.11682708301E+02  0.67576241055E+02  0.20163995811E+03  0.17300000000E+03 0.  1.
         -6    1    1    2    0  503  0.77631428408E+02 -0.11682708301E+02 -0.44451009934E+02  0.19511026788E+03  0.17300000000E+03 0.  1.
<mgrwt>
<rscale>  2 0.18997927E+03</rscale>
<asrwt>0</asrwt>
<pdfrwt beam="1">  1       21 0.32298112E-01 0.18997927E+03</pdfrwt>
<pdfrwt beam="2">  1       21 0.28740384E-01 0.18997927E+03</pdfrwt>
<totfact> 0.10693408E+05</totfact>
</mgrwt>
</event>
<event>
 4    1  0.4510095E+000  0.1898149E+03  0.7546771E-02  0.1158628E+00
         21   -1    0    0  501  502  0.00000000000E+00  0.00000000000E+00  0.32598843726E+02  0.32598843726E+02  0.00000000000E+00 0.  1.
         21   -1    0    0  502  503 -0.00000000000E+00 -0.00000000000E+00 -0.11957174838E+04  0.11957174838E+04  0.00000000000E+00 0. -1.
          6    1    1    2  501    0 -0.34767025296E+02 -0.69942450746E+02 -0.41262207175E+03  0.45418791987E+03  0.17300000000E+03 0.  1.
         -6    1    1    2    0  503  0.34767025296E+02  0.69942450746E+02 -0.75049656828E+03  0.77412840760E+03  0.17300000000E+03 0. -1.
<mgrwt>
<rscale>  2 0.18981489E+03</rscale>
<asrwt>0</asrwt>
<pdfrwt beam="1">  1       21 0.50152069E-02 0.18981489E+03</pdfrwt>
<pdfrwt beam="2">  1       21 0.18395653E+00 0.18981489E+03</pdfrwt>
<totfact> 0.45867817E+04</totfact>
</mgrwt>
</event>
<event>
 4    1  0.4510095E+000  0.1943374E+03  0.7546771E-02  0.1154606E+00
         21   -1    0    0  501  502  0.00000000000E+00  0.00000000000E+00  0.11961956417E+03  0.11961956417E+03  0.00000000000E+00 0.  1.
         21   -1    0    0  502  503 -0.00000000000E+00 -0.00000000000E+00 -0.35190546427E+03  0.35190546427E+03  0.00000000000E+00 0.  1.
          6    1    1    2  501    0 -0.69473082588E+01  0.88259521125E+02 -0.19173789104E+03  0.27300261358E+03  0.17300000000E+03 0.  1.
         -6    1    1    2    0  503  0.69473082588E+01 -0.88259521125E+02 -0.40548009065E+02  0.19852241486E+03  0.17300000000E+03 0.  1.
<mgrwt>
<rscale>  2 0.19433736E+03</rscale>
<asrwt>0</asrwt>
<pdfrwt beam="1">  1       21 0.18403010E-01 0.19433736E+03</pdfrwt>
<pdfrwt beam="2">  1       21 0.54139302E-01 0.19433736E+03</pdfrwt>
<totfact> 0.86848834E+04</totfact>
</mgrwt>
</event>
<event>
 4    1  0.4510095E+000  0.2810115E+03  0.7546771E-02  0.1095138E+00
         21   -1    0    0  501  502  0.00000000000E+00  0.00000000000E+00  0.20412538279E+03  0.20412538279E+03  0.00000000000E+00 0. -1.
         21   -1    0    0  502  503 -0.00000000000E+00 -0.00000000000E+00 -0.47411802734E+03  0.47411802734E+03  0.00000000000E+00 0. -1.
          6    1    1    2  501    0 -0.16773721698E+03 -0.14457769423E+03  0.10489502301E+02  0.28120724260E+03  0.17300000000E+03 0. -1.
         -6    1    1    2    0  503  0.16773721698E+03  0.14457769423E+03 -0.28048214685E+03  0.39703616753E+03  0.17300000000E+03 0. -1.
<mgrwt>
<rscale>  2 0.28101154E+03</rscale>
<asrwt>0</asrwt>
<pdfrwt beam="1">  1       21 0.31403906E-01 0.28101154E+03</pdfrwt>
<pdfrwt beam="2">  1       21 0.72941233E-01 0.28101154E+03</pdfrwt>
<totfact> 0.15715965E+04</totfact>
</mgrwt>
</event>
<event>
 4    1  0.4510095E+000  0.1886423E+03  0.7546771E-02  0.1159692E+00
         21   -1    0    0  503  502  0.00000000000E+00  0.00000000000E+00  0.35172001354E+03  0.35172001354E+03  0.00000000000E+00 0. -1.
         21   -1    0    0  501  503 -0.00000000000E+00 -0.00000000000E+00 -0.10118713065E+03  0.10118713065E+03  0.00000000000E+00 0. -1.
          6    1    1    2  501    0 -0.70137889964E+02 -0.27158454880E+02  0.12755462854E+03  0.22771931965E+03  0.17300000000E+03 0.  1.
         -6    1    1    2    0  502  0.70137889964E+02  0.27158454880E+02  0.12297825435E+03  0.22518782454E+03  0.17300000000E+03 0.  1.
<mgrwt>
<rscale>  2 0.18864227E+03</rscale>
<asrwt>0</asrwt>
<pdfrwt beam="1">  1       21 0.54110771E-01 0.18864227E+03</pdfrwt>
<pdfrwt beam="2">  1       21 0.15567251E-01 0.18864227E+03</pdfrwt>
<totfact> 0.11852980E+05</totfact>
</mgrwt>
</event>
<event>
 4    1  0.4510095E+000  0.1874873E+03  0.7546771E-02  0.1160747E+00
         21   -1    0    0  503  502  0.00000000000E+00  0.00000000000E+00  0.23436520607E+03  0.23436520607E+03  0.00000000000E+00 0.  1.
         21   -1    0    0  501  503 -0.00000000000E+00 -0.00000000000E+00 -0.21081844212E+03  0.21081844212E+03  0.00000000000E+00 0.  1.
          6    1    1    2  501    0  0.66381554238E+02 -0.28565133830E+02 -0.10779679506E+03  0.21626748863E+03  0.17300000000E+03 0.  1.
         -6    1    1    2    0  502 -0.66381554238E+02  0.28565133830E+02  0.13134355901E+03  0.22891615956E+03  0.17300000000E+03 0.  1.
<mgrwt>
<rscale>  2 0.18748727E+03</rscale>
<asrwt>0</asrwt>
<pdfrwt beam="1">  1       21 0.36056185E-01 0.18748727E+03</pdfrwt>
<pdfrwt beam="2">  1       21 0.32433607E-01 0.18748727E+03</pdfrwt>
<totfact> 0.67999681E+04</totfact>
</mgrwt>
</event>
<event>
 4    1  0.4510095E+000  0.2830843E+03  0.7546771E-02  0.1094016E+00
         21   -1    0    0  503  502  0.00000000000E+00  0.00000000000E+00  0.68034582037E+02  0.68034582037E+02  0.00000000000E+00 0.  1.
         21   -1    0    0  501  503 -0.00000000000E+00 -0.00000000000E+00 -0.12426177606E+04  0.12426177606E+04  0.00000000000E+00 0. -1.
          6    1    1    2  501    0 -0.46261721688E+02 -0.21924322283E+03 -0.43771642908E+03  0.52127958903E+03  0.17300000000E+03 0.  1.
         -6    1    1    2    0  502  0.46261721688E+02  0.21924322283E+03 -0.73686674949E+03  0.78937275362E+03  0.17300000000E+03 0. -1.
<mgrwt>
<rscale>  2 0.28308433E+03</rscale>
<asrwt>0</asrwt>
<pdfrwt beam="1">  1       21 0.10466859E-01 0.28308433E+03</pdfrwt>
<pdfrwt beam="2">  1       21 0.19117196E+00 0.28308433E+03</pdfrwt>
<totfact> 0.10779019E+04</totfact>
</mgrwt>
</event>
<event>
 4    1  0.4510095E+000  0.2198266E+03  0.7546771E-02  0.1134012E+00
         21   -1    0    0  503  502  0.00000000000E+00  0.00000000000E+00  0.21811390916E+03  0.21811390916E+03  0.00000000000E+00 0. -1.
         21   -1    0    0  501  503 -0.00000000000E+00 -0.00000000000E+00 -0.26379358023E+03  0.26379358023E+03  0.00000000000E+00 0. -1.
          6    1    1    2  501    0  0.13391009572E+03  0.21513563014E+02 -0.11925992689E+03  0.25009333716E+03  0.17300000000E+03 0. -1.
         -6    1    1    2    0  502 -0.13391009572E+03 -0.21513563014E+02  0.73580255813E+02  0.23181415223E+03  0.17300000000E+03 0. -1.
<mgrwt>
<rscale>  2 0.21982663E+03</rscale>
<asrwt>0</asrwt>
<pdfrwt beam="1">  1       21 0.33555986E-01 0.21982663E+03</pdfrwt>
<pdfrwt beam="2">  1       21 0.40583628E-01 0.21982663E+03</pdfrwt>
<totfact> 0.49395971E+04</totfact>
</mgrwt>
</event>
<event>
 4    1  0.4510095E+000  0.2119971E+03  0.7546771E-02  0.1139994E+00
         21   -1    0    0  501  502  0.00000000000E+00  0.00000000000E+00  0.22067070795E+03  0.22067070795E+03  0.00000000000E+00 0.  1.
         21   -1    0    0  502  503 -0.00000000000E+00 -0.00000000000E+00 -0.21552355601E+03  0.21552355601E+03  0.00000000000E+00 0. -1.
          6    1    1    2  501    0  0.93730784418E+02 -0.78919526644E+02 -0.48586452369E+02  0.21749343665E+03  0.17300000000E+03 0. -1.
         -6    1    1    2    0  503 -0.93730784418E+02  0.78919526644E+02  0.53733604315E+02  0.21870082731E+03  0.17300000000E+03 0.  1.
<mgrwt>
<rscale>  2 0.21199706E+03</rscale>
<asrwt>0</asrwt>
<pdfrwt beam="1">  1       21 0.33949340E-01 0.21199706E+03</pdfrwt>
<pdfrwt beam="2">  1       21 0.33157470E-01 0.21199706E+03</pdfrwt>
<totfact> 0.72595328E+04</totfact>
</mgrwt>
</event>
<event>
 4    1  0.4510095E+000  0.1907322E+03  0.7546771E-02  0.1157803E+00
         21   -1    0    0  501  502  0.00000000000E+00  0.00000000000E+00  0.89332007865E+02  0.89332007865E+02  0.00000000000E+00 0.  1.
         21   -1    0    0  502  503 -0.00000000000E+00 -0.00000000000E+00 -0.44533896664E+03  0.44533896664E+03  0.00000000000E+00 0. -1.
          6    1    1    2  501    0  0.20739456949E+02  0.77586281166E+02 -0.99801168662E+02  0.21526502123E+03  0.17300000000E+03 0.  1.
         -6    1    1    2    0  503 -0.20739456949E+02 -0.77586281166E+02 -0.25620579012E+03  0.31940595328E+03  0.17300000000E+03 0. -1.
<mgrwt>
<rscale>  2 0.19073216E+03</rscale>
<asrwt>0</asrwt>
<pdfrwt beam="1">  1       21 0.13743386E-01 0.19073216E+03</pdfrwt>
<pdfrwt beam="2">  1       21 0.68513688E-01 0.19073216E+03</pdfrwt>
<totfact> 0.89384759E+04</totfact>
</mgrwt>
</event>
<event>
 4    1  0.4510095E+000  0.2020447E+03  0.7546771E-02  0.1148025E+00
         21   -1    0    0  501  502  0.00000000000E+00  0.00000000000E+00  0.24858364866E+03  0.24858364866E+03  0.00000000000E+00 0.  1.
         21   -1    0    0  502  503 -0.00000000000E+00 -0.00000000000E+00 -0.27492541566E+03  0.27492541566E+03  0.00000000000E+00 0.  1.
          6    1    1    2  501    0 -0.30205654121E+02 -0.99903323113E+02  0.15293077546E+03  0.25339668031E+03  0.17300000000E+03 0.  1.
         -6    1    1    2    0  503  0.30205654121E+02  0.99903323113E+02 -0.17927254247E+03  0.27011238400E+03  0.17300000000E+03 0.  1.
<mgrwt>
<rscale>  2 0.20204469E+03</rscale>
<asrwt>0</asrwt>
<pdfrwt beam="1">  1       21 0.38243638E-01 0.20204469E+03</pdfrwt>
<pdfrwt beam="2">  1       21 0.42296218E-01 0.20204469E+03</pdfrwt>
<totfact> 0.35288505E+04</totfact>
</mgrwt>
</event>
<event>
 4    1  0.4510095E+000  0.4014030E+03  0.7546771E-02  0.1043295E+00
         21   -1    0    0  503  502  0.00000000000E+00  0.00000000000E+00  0.14875666291E+03  0.14875666291E+03  0.00000000000E+00 0.  1.
         21   -1    0    0  501  503 -0.00000000000E+00 -0.00000000000E+00 -0.11493336785E+04  0.11493336785E+04  0.00000000000E+00 0.  1.
          6    1    1    2  501    0 -0.35485427258E+03 -0.72621266182E+02 -0.65604912599E+03  0.76910653279E+03  0.17300000000E+03 0.  1.
         -6    1    1    2    0  502  0.35485427258E+03  0.72621266182E+02 -0.34452788963E+03  0.52898380864E+03  0.17300000000E+03 0.  1.
<mgrwt>
<rscale>  2 0.40140304E+03</rscale>
<asrwt>0</asrwt>
<pdfrwt beam="1">  1       21 0.22885640E-01 0.40140304E+03</pdfrwt>
<pdfrwt beam="2">  1       21 0.17682057E+00 0.40140304E+03</pdfrwt>
<totfact> 0.29979025E+03</totfact>
</mgrwt>
</event>
<event>
 4    1  0.4510095E+000  0.1848179E+03  0.7546771E-02  0.1163220E+00
         21   -1    0    0  501  502  0.00000000000E+00  0.00000000000E+00  0.36527515359E+03  0.36527515359E+03  0.00000000000E+00 0. -1.
         21   -1    0    0  502  503 -0.00000000000E+00 -0.00000000000E+00 -0.10205150284E+03  0.10205150284E+03  0.00000000000E+00 0. -1.
          6    1    1    2  501    0 -0.39216323619E+02  0.51872457000E+02  0.19920344550E+03  0.27173458472E+03  0.17300000000E+03 0. -1.
         -6    1    1    2    0  503  0.39216323619E+02 -0.51872457000E+02  0.64020205247E+02  0.19559207170E+03  0.17300000000E+03 0. -1.
<mgrwt>
<rscale>  2 0.18481794E+03</rscale>
<asrwt>0</asrwt>
<pdfrwt beam="1">  1       21 0.56196177E-01 0.18481794E+03</pdfrwt>
<pdfrwt beam="2">  1       21 0.15700231E-01 0.18481794E+03</pdfrwt>
<totfact> 0.10788188E+05</totfact>
</mgrwt>
</event>
<event>
 4    1  0.4510095E+000  0.1872905E+03  0.7546771E-02  0.1160928E+00
         21   -1    0    0  503  502  0.00000000000E+00  0.00000000000E+00  0.12892279483E+04  0.12892279483E+04  0.00000000000E+00 0. -1.
         21   -1    0    0  501  503 -0.00000000000E+00 -0.00000000000E+00 -0.35584214181E+02  0.35584214181E+02  0.00000000000E+00 0. -1.
          6    1    1    2  501    0 -0.39955321648E+02  0.59601321412E+02  0.30544779435E+03  0.35829610704E+03  0.17300000000E+03 0. -1.
         -6    1    1    2    0  502  0.39955321648E+02 -0.59601321412E+02  0.94819593974E+03  0.96651605542E+03  0.17300000000E+03 0. -1.
<mgrwt>
<rscale>  2 0.18729054E+03</rscale>
<asrwt>0</asrwt>
<pdfrwt beam="1">  1       21 0.19834272E+00 0.18729054E+03</pdfrwt>
<pdfrwt beam="2">  1       21 0.54744955E-02 0.18729054E+03</pdfrwt>
<totfact> 0.31849379E+04</totfact>
</mgrwt>
</event>
<event>
 4    1  0.4510095E+000  0.2372530E+03  0.7546771E-02  0.1121636E+00
         21   -1    0    0  503  502  0.00000000000E+00  0.00000000000E+00  0.38320860061E+03  0.38320860061E+03  0.00000000000E+00 0. -1.
         21   -1    0    0  501  503 -0.00000000000E+00 -0.00000000000E+00 -0.18218788389E+03  0.18218788389E+03  0.00000000000E+00 0. -1.
          6    1    1    2  501    0  0.11593776040E+03  0.11365915513E+03 -0.23925750635E+02  0.23845630496E+03  0.17300000000E+03 0. -1.
         -6    1    1    2    0  502 -0.11593776040E+03 -0.11365915513E+03  0.22494646736E+03  0.32694017955E+03  0.17300000000E+03 0. -1.
<mgrwt>
<rscale>  2 0.23725296E+03</rscale>
<asrwt>0</asrwt>
<pdfrwt beam="1">  1       21 0.58955169E-01 0.23725296E+03</pdfrwt>
<pdfrwt beam="2">  1       21 0.28028905E-01 0.23725296E+03</pdfrwt>
<totfact> 0.31981840E+04</totfact>
</mgrwt>
</event>
<event>
 4    1  0.4510095E+000  0.2059314E+03  0.7546771E-02  0.1144829E+00
         21   -1    0    0  501  502  0.00000000000E+00  0.00000000000E+00  0.51557785132E+03  0.51557785132E+03  0.00000000000E+00 0.  1.
         21   -1    0    0  502  503 -0.00000000000E+00 -0.00000000000E+00 -0.30117890111E+03  0.30117890111E+03  0.00000000000E+00 0.  1.
          6    1    1    2  501    0 -0.43406439345E+02  0.10293021738E+03  0.45537575898E+03  0.49977477977E+03  0.17300000000E+03 0.  1.
         -6    1    1    2    0  503  0.43406439345E+02 -0.10293021738E+03 -0.24097680877E+03  0.31698197266E+03  0.17300000000E+03 0.  1.
<mgrwt>
<rscale>  2 0.20593142E+03</rscale>
<asrwt>0</asrwt>
<pdfrwt beam="1">  1       21 0.79319669E-01 0.20593142E+03</pdfrwt>
<pdfrwt beam="2">  1       21 0.46335216E-01 0.20593142E+03</pdfrwt>
<totfact> 0.61942892E+03</totfact>
</mgrwt>
</event>
<event>
 4    1  0.4510095E+000  0.1865032E+03  0.7546771E-02  0.1161654E+00
         21   -1    0    0  501  502  0.00000000000E+00  0.00000000000E+00  0.19921600612E+03  0.19921600612E+03  0.00000000000E+00 0. -1.
         21   -1    0    0  502  503 -0.00000000000E+00 -0.00000000000E+00 -0.17964339275E+03  0.17964339275E+03  0.00000000000E+00 0. -1.
          6    1    1    2  501    0  0.29547306709E+02 -0.63098422309E+02 -0.21948104160E+02  0.18779023805E+03  0.17300000000E+03 0. -1.
         -6    1    1    2    0  503 -0.29547306709E+02  0.63098422309E+02  0.41520717535E+02  0.19106916082E+03  0.17300000000E+03 0. -1.
<mgrwt>
<rscale>  2 0.18650323E+03</rscale>
<asrwt>0</asrwt>
<pdfrwt beam="1">  1       21 0.30648617E-01 0.18650323E+03</pdfrwt>
<pdfrwt beam="2">  1       21 0.27637445E-01 0.18650323E+03</pdfrwt>
<totfact> 0.12796678E+05</totfact>
</mgrwt>
</event>
<event>
 4    1  0.4510095E+000  0.1824573E+03  0.7546771E-02  0.1165446E+00
         21   -1    0    0  503  502  0.00000000000E+00  0.00000000000E+00  0.92138058908E+02  0.92138058908E+02  0.00000000000E+00 0. -1.
         21   -1    0    0  501  503 -0.00000000000E+00 -0.00000000000E+00 -0.11094225814E+04  0.11094225814E+04  0.00000000000E+00 0. -1.
          6    1    1    2  501    0  0.41977112979E+02 -0.39994730706E+02 -0.10019862889E+04  0.10184631459E+04  0.17300000000E+03 0. -1.
         -6    1    1    2    0  502 -0.41977112979E+02  0.39994730706E+02 -0.15298233610E+02  0.18309749438E+03  0.17300000000E+03 0. -1.
<mgrwt>
<rscale>  2 0.18245727E+03</rscale>
<asrwt>0</asrwt>
<pdfrwt beam="1">  1       21 0.14175086E-01 0.18245727E+03</pdfrwt>
<pdfrwt beam="2">  1       21 0.17068040E+00 0.18245727E+03</pdfrwt>
<totfact> 0.92509697E+03</totfact>
</mgrwt>
</event>
<event>
 4    1  0.4510095E+000  0.2072934E+03  0.7546771E-02  0.1143727E+00
         21   -1    0    0  503  502  0.00000000000E+00  0.00000000000E+00  0.10475477484E+03  0.10475477484E+03  0.00000000000E+00 0. -1.
         21   -1    0    0  501  503 -0.00000000000E+00 -0.00000000000E+00 -0.42663854580E+03  0.42663854580E+03  0.00000000000E+00 0. -1.
          6    1    1    2  501    0 -0.10260486517E+02 -0.11373783625E+03 -0.21309341189E+03  0.29728668852E+03  0.17300000000E+03 0.  1.
         -6    1    1    2    0  502  0.10260486517E+02  0.11373783625E+03 -0.10879035907E+03  0.23410663212E+03  0.17300000000E+03 0.  1.
<mgrwt>
<rscale>  2 0.20729345E+03</rscale>
<asrwt>0</asrwt>
<pdfrwt beam="1">  1       21 0.16116119E-01 0.20729345E+03</pdfrwt>
<pdfrwt beam="2">  1       21 0.65636700E-01 0.20729345E+03</pdfrwt>
<totfact> 0.72941648E+04</totfact>
</mgrwt>
</event>
<event>
 4    1  0.4510095E+000  0.2230190E+03  0.7546771E-02  0.1131652E+00
         21   -1    0    0  501  502  0.00000000000E+00  0.00000000000E+00  0.20095449085E+03  0.20095449085E+03  0.00000000000E+00 0.  1.
         21   -1    0    0  502  503 -0.00000000000E+00 -0.00000000000E+00 -0.57808639203E+03  0.57808639203E+03  0.00000000000E+00 0. -1.
          6    1    1    2  501    0  0.12014370691E+03 -0.73307314883E+02  0.10599306923E+03  0.24692509684E+03  0.17300000000E+03 0.  1.
         -6    1    1    2    0  503 -0.12014370691E+03  0.73307314883E+02 -0.48312497040E+03  0.53211578604E+03  0.17300000000E+03 0. -1.
<mgrwt>
<rscale>  2 0.22301900E+03</rscale>
<asrwt>0</asrwt>
<pdfrwt beam="1">  1       21 0.30916075E-01 0.22301900E+03</pdfrwt>
<pdfrwt beam="2">  1       21 0.88936369E-01 0.22301900E+03</pdfrwt>
<totfact> 0.10634159E+04</totfact>
</mgrwt>
</event>
<event>
 4    1  0.4510095E+000  0.1790813E+03  0.7546771E-02  0.1168695E+00
         21   -1    0    0  501  502  0.00000000000E+00  0.00000000000E+00  0.36259361124E+03  0.36259361124E+03  0.00000000000E+00 0.  1.
         21   -1    0    0  502  503 -0.00000000000E+00 -0.00000000000E+00 -0.14445746757E+03  0.14445746757E+03  0.00000000000E+00 0. -1.
          6    1    1    2  501    0 -0.31472100404E+02  0.33920922522E+02 -0.48797854132E+02  0.18561075577E+03  0.17300000000E+03 0. -1.
         -6    1    1    2    0  503  0.31472100404E+02 -0.33920922522E+02  0.26693399780E+03  0.32144032303E+03  0.17300000000E+03 0.  1.
<mgrwt>
<rscale>  2 0.17908133E+03</rscale>
<asrwt>0</asrwt>
<pdfrwt beam="1">  1       21 0.55783632E-01 0.17908133E+03</pdfrwt>
<pdfrwt beam="2">  1       21 0.22224226E-01 0.17908133E+03</pdfrwt>
<totfact> 0.57680548E+04</totfact>
</mgrwt>
</event>
<event>
 4    1  0.4510095E+000  0.2159755E+03  0.7546771E-02  0.1136920E+00
         21   -1    0    0  503  502  0.00000000000E+00  0.00000000000E+00  0.19513394553E+03  0.19513394553E+03  0.00000000000E+00 0.  1.
         21   -1    0    0  501  503 -0.00000000000E+00 -0.00000000000E+00 -0.56311766297E+03  0.56311766297E+03  0.00000000000E+00 0.  1.
          6    1    1    2  501    0 -0.76314571575E+02  0.10436720241E+03 -0.47160334715E+03  0.51870525717E+03  0.17300000000E+03 0.  1.
         -6    1    1    2    0  502  0.76314571575E+02 -0.10436720241E+03  0.10361962971E+03  0.23954635133E+03  0.17300000000E+03 0.  1.
<mgrwt>
<rscale>  2 0.21597552E+03</rscale>
<asrwt>0</asrwt>
<pdfrwt beam="1">  1       21 0.30020607E-01 0.21597552E+03</pdfrwt>
<pdfrwt beam="2">  1       21 0.86633486E-01 0.21597552E+03</pdfrwt>
<totfact> 0.12021330E+04</totfact>
</mgrwt>
</event>
<event>
 4    1  0.4510095E+000  0.2221391E+03  0.7546771E-02  0.1132298E+00
         21   -1    0    0  503  502  0.00000000000E+00  0.00000000000E+00  0.81292628085E+03  0.81292628085E+03  0.00000000000E+00 0. -1.
         21   -1    0    0  501  503 -0.00000000000E+00 -0.00000000000E+00 -0.60973249611E+02  0.60973249611E+02  0.00000000000E+00 0. -1.
          6    1    1    2  501    0 -0.12689315654E+03 -0.57575246133E+02  0.34680172652E+03  0.41184611163E+03  0.17300000000E+03 0. -1.
         -6    1    1    2    0  502  0.12689315654E+03  0.57575246133E+02  0.40515130472E+03  0.46205341884E+03  0.17300000000E+03 0. -1.
<mgrwt>
<rscale>  2 0.22213911E+03</rscale>
<asrwt>0</asrwt>
<pdfrwt beam="1">  1       21 0.12506557E+00 0.22213911E+03</pdfrwt>
<pdfrwt beam="2">  1       21 0.93805005E-02 0.22213911E+03</pdfrwt>
<totfact> 0.42591141E+04</totfact>
</mgrwt>
</event>
<event>
 4    1  0.4510095E+000  0.3858843E+03  0.7546771E-02  0.1048780E+00
         21   -1    0    0  503  502  0.00000000000E+00  0.00000000000E+00  0.20253075586E+03  0.20253075586E+03  0.00000000000E+00 0.  1.
         21   -1    0    0  501  503 -0.00000000000E+00 -0.00000000000E+00 -0.74420310740E+03  0.74420310740E+03  0.00000000000E+00 0. -1.
          6    1    1    2  501    0  0.24946457747E+03 -0.23821238293E+03 -0.32281427135E+03  0.50310612060E+03  0.17300000000E+03 0.  1.
         -6    1    1    2    0  502 -0.24946457747E+03  0.23821238293E+03 -0.21885808019E+03  0.44362774266E+03  0.17300000000E+03 0. -1.
<mgrwt>
<rscale>  2 0.38588433E+03</rscale>
<asrwt>0</asrwt>
<pdfrwt beam="1">  1       21 0.31158578E-01 0.38588433E+03</pdfrwt>
<pdfrwt beam="2">  1       21 0.11449278E+00 0.38588433E+03</pdfrwt>
<totfact> 0.52654238E+03</totfact>
</mgrwt>
</event>
<event>
 4    1  0.4510095E+000  0.1966677E+03  0.7546771E-02  0.1152581E+00
         21   -1    0    0  503  502  0.00000000000E+00  0.00000000000E+00  0.76047399179E+03  0.76047399179E+03  0.00000000000E+00 0. -1.
         21   -1    0    0  501  503 -0.00000000000E+00 -0.00000000000E+00 -0.13728691208E+03  0.13728691208E+03  0.00000000000E+00 0. -1.
          6    1    1    2  501    0  0.91084688395E+02 -0.21278444076E+02 -0.44561438278E+02  0.20165295541E+03  0.17300000000E+03 0. -1.
         -6    1    1    2    0  502 -0.91084688395E+02  0.21278444076E+02  0.66774851798E+03  0.69610794846E+03  0.17300000000E+03 0. -1.
<mgrwt>
<rscale>  2 0.19666772E+03</rscale>
<asrwt>0</asrwt>
<pdfrwt beam="1">  1       21 0.11699600E+00 0.19666772E+03</pdfrwt>
<pdfrwt beam="2">  1       21 0.21121064E-01 0.19666772E+03</pdfrwt>
<totfact> 0.11683178E+04</totfact>
</mgrwt>
</event>
<event>
 4    1  0.4510095E+000  0.1913677E+03  0.7546771E-02  0.1157233E+00
         21   -1    0    0  503  502  0.00000000000E+00  0.00000000000E+00  0.44524967106E+03  0.44524967106E+03  0.00000000000E+00 0. -1.
         21   -1    0    0  501  503 -0.00000000000E+00 -0.00000000000E+00 -0.83440492907E+02  0.83440492907E+02  0.00000000000E+00 0. -1.
          6    1    1    2  501    0 -0.61414255568E+02  0.54045397061E+02  0.14932432737E+03  0.24273312603E+03  0.17300000000E+03 0. -1.
         -6    1    1    2    0  502  0.61414255568E+02 -0.54045397061E+02  0.21248485078E+03  0.28595703793E+03  0.17300000000E+03 0. -1.
<mgrwt>
<rscale>  2 0.19136775E+03</rscale>
<asrwt>0</asrwt>
<pdfrwt beam="1">  1       21 0.68499948E-01 0.19136775E+03</pdfrwt>
<pdfrwt beam="2">  1       21 0.12836999E-01 0.19136775E+03</pdfrwt>
<totfact> 0.10110628E+05</totfact>
</mgrwt>
</event>
<event>
 4    1  0.4510095E+000  0.1762482E+03  0.7546771E-02  0.1171484E+00
         21   -1    0    0  501  502  0.00000000000E+00  0.00000000000E+00  0.44646400331E+03  0.44646400331E+03  0.00000000000E+00 0. -1.
         21   -1    0    0  502  503 -0.00000000000E+00 -0.00000000000E+00 -0.93994074977E+02  0.93994074977E+02  0.00000000000E+00 0. -1.
          6    1    1    2  501    0  0.13167476572E+02  0.31000531609E+02  0.31396630976E+03  0.36005313367E+03  0.17300000000E+03 0. -1.
         -6    1    1    2    0  503 -0.13167476572E+02 -0.31000531609E+02  0.38503618572E+02  0.18040494462E+03  0.17300000000E+03 0. -1.
<mgrwt>
<rscale>  2 0.17624816E+03</rscale>
<asrwt>0</asrwt>
<pdfrwt beam="1">  1       21 0.68686768E-01 0.17624816E+03</pdfrwt>
<pdfrwt beam="2">  1       21 0.14460627E-01 0.17624816E+03</pdfrwt>
<totfact> 0.81553901E+04</totfact>
</mgrwt>
</event>
<event>
 4    1  0.4510095E+000  0.2542554E+03  0.7546771E-02  0.1110645E+00
         21   -1    0    0  503  502  0.00000000000E+00  0.00000000000E+00  0.34237653187E+03  0.34237653187E+03  0.00000000000E+00 0.  1.
         21   -1    0    0  501  503 -0.00000000000E+00 -0.00000000000E+00 -0.20135259642E+03  0.20135259642E+03  0.00000000000E+00 0. -1.
          6    1    1    2  501    0 -0.13725709595E+03 -0.12600523560E+03  0.26727422984E+01  0.25426948960E+03  0.17300000000E+03 0. -1.
         -6    1    1    2    0  502  0.13725709595E+03  0.12600523560E+03  0.13835119315E+03  0.28945963870E+03  0.17300000000E+03 0.  1.
<mgrwt>
<rscale>  2 0.25425544E+03</rscale>
<asrwt>0</asrwt>
<pdfrwt beam="1">  1       21 0.52673313E-01 0.25425544E+03</pdfrwt>
<pdfrwt beam="2">  1       21 0.30977323E-01 0.25425544E+03</pdfrwt>
<totfact> 0.33193590E+04</totfact>
</mgrwt>
</event>
<event>
 4    1  0.4510095E+000  0.1861591E+03  0.7546771E-02  0.1161972E+00
         21   -1    0    0  503  502  0.00000000000E+00  0.00000000000E+00  0.19145599520E+03  0.19145599520E+03  0.00000000000E+00 0. -1.
         21   -1    0    0  501  503 -0.00000000000E+00 -0.00000000000E+00 -0.20526342478E+03  0.20526342478E+03  0.00000000000E+00 0. -1.
          6    1    1    2  501    0 -0.59946866174E+02  0.33653684002E+02 -0.75089841719E+02  0.20073286114E+03  0.17300000000E+03 0.  1.
         -6    1    1    2    0  502  0.59946866174E+02 -0.33653684002E+02  0.61282412140E+02  0.19598655885E+03  0.17300000000E+03 0.  1.
<mgrwt>
<rscale>  2 0.18615906E+03</rscale>
<asrwt>0</asrwt>
<pdfrwt beam="1">  1       21 0.29454769E-01 0.18615906E+03</pdfrwt>
<pdfrwt beam="2">  1       21 0.31578988E-01 0.18615906E+03</pdfrwt>
<totfact> 0.10670817E+05</totfact>
</mgrwt>
</event>
<event>
 4    1  0.4510095E+000  0.2183836E+03  0.7546771E-02  0.1135094E+00
         21   -1    0    0  503  502  0.00000000000E+00  0.00000000000E+00  0.34547405583E+03  0.34547405583E+03  0.00000000000E+00 0. -1.
         21   -1    0    0  501  503 -0.00000000000E+00 -0.00000000000E+00 -0.13938424516E+03  0.13938424516E+03  0.00000000000E+00 0. -1.
          6    1    1    2  501    0 -0.10560917737E+03  0.81296300888E+02  0.12679746584E+03  0.25252521503E+03  0.17300000000E+03 0. -1.
         -6    1    1    2    0  502  0.10560917737E+03 -0.81296300888E+02  0.79292344825E+02  0.23233308596E+03  0.17300000000E+03 0. -1.
<mgrwt>
<rscale>  2 0.21838358E+03</rscale>
<asrwt>0</asrwt>
<pdfrwt beam="1">  1       21 0.53149855E-01 0.21838358E+03</pdfrwt>
<pdfrwt beam="2">  1       21 0.21443730E-01 0.21838358E+03</pdfrwt>
<totfact> 0.67145518E+04</totfact>
</mgrwt>
</event>
<event>
 4    1  0.4510095E+000  0.2589598E+03  0.7546771E-02  0.1107770E+00
         21   -1    0    0  501  502  0.00000000000E+00  0.00000000000E+00  0.21587510687E+04  0.21587510687E+04  0.00000000000E+00 0. -1.
         21   -1    0    0  502  503 -0.00000000000E+00 -0.00000000000E+00 -0.32021791572E+02  0.32021791572E+02  0.00000000000E+00 0.  1.
          6    1    1    2  501    0  0.18057503578E+03  0.67259369543E+02  0.12527751558E+04  0.12792598475E+04  0.17300000000E+03 0. -1.
         -6    1    1    2    0  503 -0.18057503578E+03 -0.67259369543E+02  0.87395412134E+03  0.91151301282E+03  0.17300000000E+03 0.  1.
<mgrwt>
<rscale>  2 0.25895978E+03</rscale>
<asrwt>0</asrwt>
<pdfrwt beam="1">  1       21 0.33211544E+00 0.25895978E+03</pdfrwt>
<pdfrwt beam="2">  1       21 0.49264311E-02 0.25895978E+03</pdfrwt>
<totfact> 0.57273527E+03</totfact>
</mgrwt>
</event>
<event>
 4    1  0.4510095E+000  0.2014084E+03  0.7546771E-02  0.1148556E+00
         21   -1    0    0  503  502  0.00000000000E+00  0.00000000000E+00  0.16309173388E+03  0.16309173388E+03  0.00000000000E+00 0.  1.
         21   -1    0    0  501  503 -0.00000000000E+00 -0.00000000000E+00 -0.25301603438E+03  0.25301603438E+03  0.00000000000E+00 0.  1.
          6    1    1    2  501    0  0.62275440433E+02  0.82207829579E+02 -0.72049663817E+02  0.21390771791E+03  0.17300000000E+03 0.  1.
         -6    1    1    2    0  502 -0.62275440433E+02 -0.82207829579E+02 -0.17874636689E+02  0.20220005035E+03  0.17300000000E+03 0.  1.
<mgrwt>
<rscale>  2 0.20140844E+03</rscale>
<asrwt>0</asrwt>
<pdfrwt beam="1">  1       21 0.25091036E-01 0.20140844E+03</pdfrwt>
<pdfrwt beam="2">  1       21 0.38925543E-01 0.20140844E+03</pdfrwt>
<totfact> 0.95377053E+04</totfact>
</mgrwt>
</event>
<event>
 4    1  0.4510095E+000  0.2347222E+03  0.7546771E-02  0.1123359E+00
         21   -1    0    0  503  502  0.00000000000E+00  0.00000000000E+00  0.53592664422E+02  0.53592664422E+02  0.00000000000E+00 0.  1.
         21   -1    0    0  501  503 -0.00000000000E+00 -0.00000000000E+00 -0.15746923681E+04  0.15746923681E+04  0.00000000000E+00 0.  1.
          6    1    1    2  501    0  0.71329535040E+02  0.14169554844E+03 -0.12402442555E+04  0.12622600145E+04  0.17300000000E+03 0.  1.
         -6    1    1    2    0  502 -0.71329535040E+02 -0.14169554844E+03 -0.28085544820E+03  0.36602501800E+03  0.17300000000E+03 0.  1.
<mgrwt>
<rscale>  2 0.23472224E+03</rscale>
<asrwt>0</asrwt>
<pdfrwt beam="1">  1       21 0.82450263E-02 0.23472224E+03</pdfrwt>
<pdfrwt beam="2">  1       21 0.24226033E+00 0.23472224E+03</pdfrwt>
<totfact> 0.81011802E+03</totfact>
</mgrwt>
</event>
<event>
 4    1  0.4510095E+000  0.2337312E+03  0.7546771E-02  0.1124041E+00
         21   -1    0    0  503  502  0.00000000000E+00  0.00000000000E+00  0.37053389292E+03  0.37053389292E+03  0.00000000000E+00 0.  1.
         21   -1    0    0  501  503 -0.00000000000E+00 -0.00000000000E+00 -0.28680335749E+03  0.28680335749E+03  0.00000000000E+00 0.  1.
          6    1    1    2  501    0  0.13498058388E+03 -0.80507941515E+02 -0.18724555629E+03  0.29948486610E+03  0.17300000000E+03 0.  1.
         -6    1    1    2    0  502 -0.13498058388E+03  0.80507941515E+02  0.27097609172E+03  0.35785238431E+03  0.17300000000E+03 0.  1.
<mgrwt>
<rscale>  2 0.23373123E+03</rscale>
<asrwt>0</asrwt>
<pdfrwt beam="1">  1       21 0.57005215E-01 0.23373123E+03</pdfrwt>
<pdfrwt beam="2">  1       21 0.44123593E-01 0.23373123E+03</pdfrwt>
<totfact> 0.13911253E+04</totfact>
</mgrwt>
</event>
<event>
 4    1  0.4510095E+000  0.2000253E+03  0.7546771E-02  0.1149718E+00
         21   -1    0    0  501  502  0.00000000000E+00  0.00000000000E+00  0.18592466851E+03  0.18592466851E+03  0.00000000000E+00 0.  1.
         21   -1    0    0  502  503 -0.00000000000E+00 -0.00000000000E+00 -0.24771211929E+03  0.24771211929E+03  0.00000000000E+00 0. -1.
          6    1    1    2  501    0 -0.98971346617E+02 -0.16905143384E+02  0.47661784109E+02  0.20562528295E+03  0.17300000000E+03 0.  1.
         -6    1    1    2    0  503  0.98971346617E+02  0.16905143384E+02 -0.10944923489E+03  0.22801150485E+03  0.17300000000E+03 0. -1.
<mgrwt>
<rscale>  2 0.20002528E+03</rscale>
<asrwt>0</asrwt>
<pdfrwt beam="1">  1       21 0.28603795E-01 0.20002528E+03</pdfrwt>
<pdfrwt beam="2">  1       21 0.38109557E-01 0.20002528E+03</pdfrwt>
<totfact> 0.77378695E+04</totfact>
</mgrwt>
</event>
<event>
 4    1  0.4510095E+000  0.2239415E+03  0.7546771E-02  0.1130978E+00
         21   -1    0    0  503  502  0.00000000000E+00  0.00000000000E+00  0.55841651494E+03  0.55841651494E+03  0.00000000000E+00 0.  1.
         21   -1    0    0  501  503 -0.00000000000E+00 -0.00000000000E+00 -0.14806717034E+03  0.14806717034E+03  0.00000000000E+00 0.  1.
          6    1    1    2  501    0 -0.86342512726E+02  0.11298562172E+03 -0.16404110607E+02  0.22454147738E+03  0.17300000000E+03 0.  1.
         -6    1    1    2    0  502  0.86342512726E+02 -0.11298562172E+03  0.42675345521E+03  0.48194220789E+03  0.17300000000E+03 0.  1.
<mgrwt>
<rscale>  2 0.22394147E+03</rscale>
<asrwt>0</asrwt>
<pdfrwt beam="1">  1       21 0.85910232E-01 0.22394147E+03</pdfrwt>
<pdfrwt beam="2">  1       21 0.22779565E-01 0.22394147E+03</pdfrwt>
<totfact> 0.20753393E+04</totfact>
</mgrwt>
</event>
<event>
 4    1  0.4510095E+000  0.1972002E+03  0.7546771E-02  0.1152123E+00
         21   -1    0    0  501  502  0.00000000000E+00  0.00000000000E+00  0.13429029254E+03  0.13429029254E+03  0.00000000000E+00 0.  1.
         21   -1    0    0  502  503 -0.00000000000E+00 -0.00000000000E+00 -0.29021187098E+03  0.29021187098E+03  0.00000000000E+00 0.  1.
          6    1    1    2  501    0  0.61540688926E+02 -0.71914178921E+02 -0.87857537846E+02  0.21588620262E+03  0.17300000000E+03 0.  1.
         -6    1    1    2    0  503 -0.61540688926E+02  0.71914178921E+02 -0.68064040593E+02  0.20861596091E+03  0.17300000000E+03 0.  1.
<mgrwt>
<rscale>  2 0.19720017E+03</rscale>
<asrwt>0</asrwt>
<pdfrwt beam="1">  1       21 0.20660045E-01 0.19720017E+03</pdfrwt>
<pdfrwt beam="2">  1       21 0.44647979E-01 0.19720017E+03</pdfrwt>
<totfact> 0.10442185E+05</totfact>
</mgrwt>
</event>
<event>
 4    1  0.4510095E+000  0.1800315E+03  0.7546771E-02  0.1167773E+00
         21   -1    0    0  503  502  0.00000000000E+00  0.00000000000E+00  0.14559816718E+03  0.14559816718E+03  0.00000000000E+00 0. -1.
         21   -1    0    0  501  503 -0.00000000000E+00 -0.00000000000E+00 -0.50927031698E+03  0.50927031698E+03  0.00000000000E+00 0. -1.
          6    1    1    2  501    0  0.18322259770E+02 -0.46331949953E+02 -0.42749639785E+03  0.46385830268E+03  0.17300000000E+03 0. -1.
         -6    1    1    2    0  502 -0.18322259770E+02  0.46331949953E+02  0.63824248046E+02  0.19101018148E+03  0.17300000000E+03 0. -1.
<mgrwt>
<rscale>  2 0.18003154E+03</rscale>
<asrwt>0</asrwt>
<pdfrwt beam="1">  1       21 0.22399718E-01 0.18003154E+03</pdfrwt>
<pdfrwt beam="2">  1       21 0.78349280E-01 0.18003154E+03</pdfrwt>
<totfact> 0.27089845E+04</totfact>
</mgrwt>
</event>
<event>
 4    1  0.4510095E+000  0.2237662E+03  0.7546771E-02  0.1131106E+00
         21   -1    0    0  503  502  0.00000000000E+00  0.00000000000E+00  0.68344435209E+03  0.68344435209E+03  0.00000000000E+00 0.  1.
         21   -1    0    0  501  503 -0.00000000000E+00 -0.00000000000E+00 -0.12953983600E+03  0.12953983600E+03  0.00000000000E+00 0.  1.
          6    1    1    2  501    0 -0.12263213228E+03  0.71439884365E+02  0.90264013603E+01  0.22394814772E+03  0.17300000000E+03 0.  1.
         -6    1    1    2    0  502  0.12263213228E+03 -0.71439884365E+02  0.54487811473E+03  0.58903604037E+03  0.17300000000E+03 0.  1.
<mgrwt>
<rscale>  2 0.22376617E+03</rscale>
<asrwt>0</asrwt>
<pdfrwt beam="1">  1       21 0.10514528E+00 0.22376617E+03</pdfrwt>
<pdfrwt beam="2">  1       21 0.19929206E-01 0.22376617E+03</pdfrwt>
<totfact> 0.16595855E+04</totfact>
</mgrwt>
</event>
<event>
 4    1  0.4510095E+000  0.1943055E+03  0.7546771E-02  0.1154634E+00
         21   -1    0    0  501  502  0.00000000000E+00  0.00000000000E+00  0.27086202636E+03  0.27086202636E+03  0.00000000000E+00 0. -1.
         21   -1    0    0  502  503 -0.00000000000E+00 -0.00000000000E+00 -0.14996768639E+03  0.14996768639E+03  0.00000000000E+00 0. -1.
          6    1    1    2  501    0 -0.83336665401E+02  0.29675142970E+02  0.11633752281E+03  0.22647082180E+03  0.17300000000E+03 0. -1.
         -6    1    1    2    0  503  0.83336665401E+02 -0.29675142970E+02  0.45568171510E+01  0.19435889095E+03  0.17300000000E+03 0. -1.
<mgrwt>
<rscale>  2 0.19430547E+03</rscale>
<asrwt>0</asrwt>
<pdfrwt beam="1">  1       21 0.41671081E-01 0.19430547E+03</pdfrwt>
<pdfrwt beam="2">  1       21 0.23071952E-01 0.19430547E+03</pdfrwt>
<totfact> 0.97760133E+04</totfact>
</mgrwt>
</event>
<event>
 4    1  0.4510095E+000  0.2412569E+03  0.7546771E-02  0.1118958E+00
         21   -1    0    0  501  502  0.00000000000E+00  0.00000000000E+00  0.23792434123E+03  0.23792434123E+03  0.00000000000E+00 0. -1.
         21   -1    0    0  502  503 -0.00000000000E+00 -0.00000000000E+00 -0.28927792914E+03  0.28927792914E+03  0.00000000000E+00 0. -1.
          6    1    1    2  501    0 -0.12299228388E+03  0.11466817746E+03  0.77875664676E+02  0.25351432299E+03  0.17300000000E+03 0. -1.
         -6    1    1    2    0  503  0.12299228388E+03 -0.11466817746E+03 -0.12922925259E+03  0.27368794738E+03  0.17300000000E+03 0. -1.
<mgrwt>
<rscale>  2 0.24125690E+03</rscale>
<asrwt>0</asrwt>
<pdfrwt beam="1">  1       21 0.36603745E-01 0.24125690E+03</pdfrwt>
<pdfrwt beam="2">  1       21 0.44504297E-01 0.24125690E+03</pdfrwt>
<totfact> 0.34063209E+04</totfact>
</mgrwt>
</event>
<event>
 4    1  0.4510095E+000  0.1741173E+03  0.7546771E-02  0.1173621E+00
         21   -1    0    0  503  502  0.00000000000E+00  0.00000000000E+00  0.73012161585E+02  0.73012161585E+02  0.00000000000E+00 0.  1.
         21   -1    0    0  501  503 -0.00000000000E+00 -0.00000000000E+00 -0.59358777812E+03  0.59358777812E+03  0.00000000000E+00 0.  1.
          6    1    1    2  501    0 -0.16507845056E+00  0.19692897563E+02 -0.44298794224E+03  0.47597810290E+03  0.17300000000E+03 0.  1.
         -6    1    1    2    0  502  0.16507845056E+00 -0.19692897563E+02 -0.77587674291E+02  0.19062183681E+03  0.17300000000E+03 0.  1.
<mgrwt>
<rscale>  2 0.17411731E+03</rscale>
<asrwt>0</asrwt>
<pdfrwt beam="1">  1       21 0.11232640E-01 0.17411731E+03</pdfrwt>
<pdfrwt beam="2">  1       21 0.91321196E-01 0.17411731E+03</pdfrwt>
<totfact> 0.67636380E+04</totfact>
</mgrwt>
</event>
<event>
 4    1  0.4510095E+000  0.2695961E+03  0.7546771E-02  0.1101511E+00
         21   -1    0    0  503  502  0.00000000000E+00  0.00000000000E+00  0.31683086444E+03  0.31683086444E+03  0.00000000000E+00 0. -1.
         21   -1    0    0  501  503 -0.00000000000E+00 -0.00000000000E+00 -0.53132323629E+03  0.53132323629E+03  0.00000000000E+00 0. -1.
          6    1    1    2  501    0  0.17933950920E+03  0.10290968585E+03 -0.42692306196E+03  0.50492114615E+03  0.17300000000E+03 0. -1.
         -6    1    1    2    0  502 -0.17933950920E+03 -0.10290968585E+03  0.21243069011E+03  0.34323295457E+03  0.17300000000E+03 0. -1.
<mgrwt>
<rscale>  2 0.26959611E+03</rscale>
<asrwt>0</asrwt>
<pdfrwt beam="1">  1       21 0.48743210E-01 0.26959611E+03</pdfrwt>
<pdfrwt beam="2">  1       21 0.81742035E-01 0.26959611E+03</pdfrwt>
<totfact> 0.49959437E+03</totfact>
</mgrwt>
</event>
<event>
 4    1  0.4510095E+000  0.1922620E+03  0.7546771E-02  0.1156437E+00
         21   -1    0    0  501  502  0.00000000000E+00  0.00000000000E+00  0.87468545750E+03  0.87468545750E+03  0.00000000000E+00 0. -1.
         21   -1    0    0  502  503 -0.00000000000E+00 -0.00000000000E+00 -0.49236707921E+02  0.49236707921E+02  0.00000000000E+00 0.  1.
          6    1    1    2  501    0  0.42671584149E+02 -0.72213707545E+02  0.23883653532E+03  0.30660654633E+03  0.17300000000E+03 0.  1.
         -6    1    1    2    0  503 -0.42671584149E+02  0.72213707545E+02  0.58661221426E+03  0.61731561908E+03  0.17300000000E+03 0. -1.
<mgrwt>
<rscale>  2 0.19226202E+03</rscale>
<asrwt>0</asrwt>
<pdfrwt beam="1">  1       21 0.13456698E+00 0.19226202E+03</pdfrwt>
<pdfrwt beam="2">  1       21 0.75748788E-02 0.19226202E+03</pdfrwt>
<totfact> 0.52272264E+04</totfact>
</mgrwt>
</event>
<event>
 4    1  0.4510095E+000  0.1915988E+03  0.7546771E-02  0.1157027E+00
         21   -1    0    0  501  502  0.00000000000E+00  0.00000000000E+00  0.11458648972E+03  0.11458648972E+03  0.00000000000E+00 0. -1.
         21   -1    0    0  502  503 -0.00000000000E+00 -0.00000000000E+00 -0.34579104480E+03  0.34579104480E+03  0.00000000000E+00 0. -1.
          6    1    1    2  501    0  0.42819827980E+02  0.70339022176E+02 -0.53189886121E+02  0.19884486338E+03  0.17300000000E+03 0. -1.
         -6    1    1    2    0  503 -0.42819827980E+02 -0.70339022176E+02 -0.17801466896E+03  0.26153267114E+03  0.17300000000E+03 0. -1.
<mgrwt>
<rscale>  2 0.19159884E+03</rscale>
<asrwt>0</asrwt>
<pdfrwt beam="1">  1       21 0.17628691E-01 0.19159884E+03</pdfrwt>
<pdfrwt beam="2">  1       21 0.53198622E-01 0.19159884E+03</pdfrwt>
<totfact> 0.97679951E+04</totfact>
</mgrwt>
</event>
<event>
 4    1  0.4510095E+000  0.3531013E+03  0.7546771E-02  0.1061349E+00
         21   -1    0    0  503  502  0.00000000000E+00  0.00000000000E+00  0.15710975575E+04  0.15710975575E+04  0.00000000000E+00 0. -1.
         21   -1    0    0  501  503 -0.00000000000E+00 -0.00000000000E+00 -0.90810438612E+02  0.90810438612E+02  0.00000000000E+00 0.  1.
          6    1    1    2  501    0  0.29869700797E+03  0.74375056437E+02  0.44506253272E+03  0.56812077028E+03  0.17300000000E+03 0.  1.
         -6    1    1    2    0  502 -0.29869700797E+03 -0.74375056437E+02  0.10352245861E+04  0.10937872258E+04  0.17300000000E+03 0. -1.
<mgrwt>
<rscale>  2 0.35310133E+03</rscale>
<asrwt>0</asrwt>
<pdfrwt beam="1">  1       21 0.24170730E+00 0.35310133E+03</pdfrwt>
<pdfrwt beam="2">  1       21 0.13970838E-01 0.35310133E+03</pdfrwt>
<totfact> 0.29287689E+03</totfact>
</mgrwt>
</event>
<event>
 4    1  0.4510095E+000  0.1746802E+03  0.7546771E-02  0.1173053E+00
         21   -1    0    0  501  502  0.00000000000E+00  0.00000000000E+00  0.22036222314E+02  0.22036222314E+02  0.00000000000E+00 0.  1.
         21   -1    0    0  502  503 -0.00000000000E+00 -0.00000000000E+00 -0.37128133423E+04  0.37128133423E+04  0.00000000000E+00 0.  1.
          6    1    1    2  501    0 -0.85603669447E+01  0.22602712758E+02 -0.36663674830E+03  0.40612272493E+03  0.17300000000E+03 0.  1.
         -6    1    1    2    0  503  0.85603669447E+01 -0.22602712758E+02 -0.33241403717E+04  0.33287268397E+04  0.17300000000E+03 0.  1.
<mgrwt>
<rscale>  2 0.17468017E+03</rscale>
<asrwt>0</asrwt>
<pdfrwt beam="1">  1       21 0.33901851E-02 0.17468017E+03</pdfrwt>
<pdfrwt beam="2">  1       21 0.57120254E+00 0.17468017E+03</pdfrwt>
<totfact> 0.30332644E+02</totfact>
</mgrwt>
</event>
<event>
 4    1  0.4510095E+000  0.1844775E+03  0.7546771E-02  0.1163539E+00
         21   -1    0    0  501  502  0.00000000000E+00  0.00000000000E+00  0.53846742572E+02  0.53846742572E+02  0.00000000000E+00 0. -1.
         21   -1    0    0  502  503 -0.00000000000E+00 -0.00000000000E+00 -0.78542411637E+03  0.78542411637E+03  0.00000000000E+00 0. -1.
          6    1    1    2  501    0 -0.60361956318E+02 -0.21433206595E+02 -0.18033065795E+03  0.25797498776E+03  0.17300000000E+03 0.  1.
         -6    1    1    2    0  503  0.60361956318E+02  0.21433206595E+02 -0.55124671585E+03  0.58129587118E+03  0.17300000000E+03 0.  1.
<mgrwt>
<rscale>  2 0.18447750E+03</rscale>
<asrwt>0</asrwt>
<pdfrwt beam="1">  1       21 0.82841138E-02 0.18447750E+03</pdfrwt>
<pdfrwt beam="2">  1       21 0.12083449E+00 0.18447750E+03</pdfrwt>
<totfact> 0.58855589E+04</totfact>
</mgrwt>
</event>
<event>
 4    1  0.4510095E+000  0.2226795E+03  0.7546771E-02  0.1131901E+00
         21   -1    0    0  501  502  0.00000000000E+00  0.00000000000E+00  0.14663588206E+03  0.14663588206E+03  0.00000000000E+00 0. -1.
         21   -1    0    0  502  503 -0.00000000000E+00 -0.00000000000E+00 -0.57138178401E+03  0.57138178401E+03  0.00000000000E+00 0. -1.
          6    1    1    2  501    0 -0.93634013533E+02 -0.10435427271E+03  0.16992533455E+02  0.22332686564E+03  0.17300000000E+03 0. -1.
         -6    1    1    2    0  503  0.93634013533E+02  0.10435427271E+03 -0.44173843540E+03  0.49469080043E+03  0.17300000000E+03 0. -1.
<mgrwt>
<rscale>  2 0.22267946E+03</rscale>
<asrwt>0</asrwt>
<pdfrwt beam="1">  1       21 0.22559366E-01 0.22267946E+03</pdfrwt>
<pdfrwt beam="2">  1       21 0.87904891E-01 0.22267946E+03</pdfrwt>
<totfact> 0.20062858E+04</totfact>
</mgrwt>
</event>
<event>
 4    1  0.4510095E+000  0.1957550E+03  0.7546771E-02  0.1153371E+00
         21   -1    0    0  503  502  0.00000000000E+00  0.00000000000E+00  0.28102362143E+02  0.28102362143E+02  0.00000000000E+00 0.  1.
         21   -1    0    0  501  503 -0.00000000000E+00 -0.00000000000E+00 -0.14807893579E+04  0.14807893579E+04  0.00000000000E+00 0. -1.
          6    1    1    2  501    0  0.66046766436E+02  0.63473167914E+02 -0.51409265044E+03  0.55010114673E+03  0.17300000000E+03 0.  1.
         -6    1    1    2    0  502 -0.66046766436E+02 -0.63473167914E+02 -0.93859434529E+03  0.95879057328E+03  0.17300000000E+03 0. -1.
<mgrwt>
<rscale>  2 0.19575500E+03</rscale>
<asrwt>0</asrwt>
<pdfrwt beam="1">  1       21 0.43234401E-02 0.19575500E+03</pdfrwt>
<pdfrwt beam="2">  1       21 0.22781376E+00 0.19575500E+03</pdfrwt>
<totfact> 0.30928229E+04</totfact>
</mgrwt>
</event>
<event>
 4    1  0.4510095E+000  0.2379619E+03  0.7546771E-02  0.1121158E+00
         21   -1    0    0  503  502  0.00000000000E+00  0.00000000000E+00  0.33311955554E+03  0.33311955554E+03  0.00000000000E+00 0. -1.
         21   -1    0    0  501  503 -0.00000000000E+00 -0.00000000000E+00 -0.21133617958E+03  0.21133617958E+03  0.00000000000E+00 0. -1.
          6    1    1    2  501    0  0.35924288988E+02  0.15939364407E+03 -0.59523361365E+02  0.24529353611E+03  0.17300000000E+03 0. -1.
         -6    1    1    2    0  502 -0.35924288988E+02 -0.15939364407E+03  0.18130673732E+03  0.29916219900E+03  0.17300000000E+03 0. -1.
<mgrwt>
<rscale>  2 0.23796195E+03</rscale>
<asrwt>0</asrwt>
<pdfrwt beam="1">  1       21 0.51249162E-01 0.23796195E+03</pdfrwt>
<pdfrwt beam="2">  1       21 0.32513258E-01 0.23796195E+03</pdfrwt>
<totfact> 0.32197017E+04</totfact>
</mgrwt>
</event>
<event>
 4    1  0.4510095E+000  0.1975575E+03  0.7546771E-02  0.1151816E+00
         21   -1    0    0  501  502  0.00000000000E+00  0.00000000000E+00  0.47241516155E+03  0.47241516155E+03  0.00000000000E+00 0.  1.
         21   -1    0    0  502  503 -0.00000000000E+00 -0.00000000000E+00 -0.13440409083E+03  0.13440409083E+03  0.00000000000E+00 0.  1.
          6    1    1    2  501    0 -0.46233083011E+02  0.83441491686E+02  0.35734385348E+03  0.40831802571E+03  0.17300000000E+03 0.  1.
         -6    1    1    2    0  503  0.46233083011E+02 -0.83441491686E+02 -0.19332782758E+02  0.19850122667E+03  0.17300000000E+03 0.  1.
<mgrwt>
<rscale>  2 0.19755754E+03</rscale>
<asrwt>0</asrwt>
<pdfrwt beam="1">  1       21 0.72679255E-01 0.19755754E+03</pdfrwt>
<pdfrwt beam="2">  1       21 0.20677553E-01 0.19755754E+03</pdfrwt>
<totfact> 0.36885921E+04</totfact>
</mgrwt>
</event>
<event>
 4    1  0.4510095E+000  0.3014805E+03  0.7546771E-02  0.1084503E+00
         21   -1    0    0  501  502  0.00000000000E+00  0.00000000000E+00  0.20860796616E+04  0.20860796616E+04  0.00000000000E+00 0.  1.
         21   -1    0    0  502  503 -0.00000000000E+00 -0.00000000000E+00 -0.53532483559E+02  0.53532483559E+02  0.00000000000E+00 0. -1.
          6    1    1    2  501    0 -0.10668507675E+03  0.22266523096E+03  0.14777823655E+04  0.15082212140E+04  0.17300000000E+03 0.  1.
         -6    1    1    2    0  503  0.10668507675E+03 -0.22266523096E+03  0.55476481258E+03  0.63139093116E+03  0.17300000000E+03 0. -1.
<mgrwt>
<rscale>  2 0.30148053E+03</rscale>
<asrwt>0</asrwt>
<pdfrwt beam="1">  1       21 0.32093527E+00 0.30148053E+03</pdfrwt>
<pdfrwt beam="2">  1       21 0.82357683E-02 0.30148053E+03</pdfrwt>
<totfact> 0.26417904E+03</totfact>
</mgrwt>
</event>
<event>
 4    1  0.4510095E+000  0.2711279E+03  0.7546771E-02  0.1100636E+00
         21   -1    0    0  501  502  0.00000000000E+00  0.00000000000E+00  0.20140293077E+03  0.20140293077E+03  0.00000000000E+00 0.  1.
         21   -1    0    0  502  503 -0.00000000000E+00 -0.00000000000E+00 -0.39361317789E+03  0.39361317789E+03  0.00000000000E+00 0.  1.
          6    1    1    2  501    0 -0.18412939190E+03 -0.98375264148E+02 -0.15879579214E+02  0.27159250099E+03  0.17300000000E+03 0.  1.
         -6    1    1    2    0  503  0.18412939190E+03  0.98375264148E+02 -0.17633066791E+03  0.32342360768E+03  0.17300000000E+03 0.  1.
<mgrwt>
<rscale>  2 0.27112788E+03</rscale>
<asrwt>0</asrwt>
<pdfrwt beam="1">  1       21 0.30985066E-01 0.27112788E+03</pdfrwt>
<pdfrwt beam="2">  1       21 0.60555873E-01 0.27112788E+03</pdfrwt>
<totfact> 0.24433523E+04</totfact>
</mgrwt>
</event>
<event>
 4    1  0.4510095E+000  0.1986971E+03  0.7546771E-02  0.1150843E+00
         21   -1    0    0  501  502  0.00000000000E+00  0.00000000000E+00  0.20054508146E+03  0.20054508146E+03  0.00000000000E+00 0.  1.
         21   -1    0    0  502  503 -0.00000000000E+00 -0.00000000000E+00 -0.19736175111E+03  0.19736175111E+03  0.00000000000E+00 0. -1.
          6    1    1    2  501    0  0.36134609761E+02  0.90806630653E+02  0.11560648099E+02  0.19903317004E+03  0.17300000000E+03 0. -1.
         -6    1    1    2    0  503 -0.36134609761E+02 -0.90806630653E+02 -0.83773177488E+01  0.19887366252E+03  0.17300000000E+03 0.  1.
<mgrwt>
<rscale>  2 0.19869714E+03</rscale>
<asrwt>0</asrwt>
<pdfrwt beam="1">  1       21 0.30853089E-01 0.19869714E+03</pdfrwt>
<pdfrwt beam="2">  1       21 0.30363346E-01 0.19869714E+03</pdfrwt>
<totfact> 0.10476090E+05</totfact>
</mgrwt>
</event>
<event>
 4    1  0.4510095E+000  0.2108128E+03  0.7546771E-02  0.1140924E+00
         21   -1    0    0  501  502  0.00000000000E+00  0.00000000000E+00  0.36371025058E+03  0.36371025058E+03  0.00000000000E+00 0. -1.
         21   -1    0    0  502  503 -0.00000000000E+00 -0.00000000000E+00 -0.17711639413E+03  0.17711639413E+03  0.00000000000E+00 0. -1.
          6    1    1    2  501    0  0.12044437922E+03  0.24881810381E+01  0.24388347019E+03  0.32236809173E+03  0.17300000000E+03 0. -1.
         -6    1    1    2    0  503 -0.12044437922E+03 -0.24881810381E+01 -0.57289613735E+02  0.21845855299E+03  0.17300000000E+03 0. -1.
<mgrwt>
<rscale>  2 0.21081281E+03</rscale>
<asrwt>0</asrwt>
<pdfrwt beam="1">  1       21 0.55955423E-01 0.21081281E+03</pdfrwt>
<pdfrwt beam="2">  1       21 0.27248676E-01 0.21081281E+03</pdfrwt>
<totfact> 0.38256611E+04</totfact>
</mgrwt>
</event>
<event>
 4    1  0.4510095E+000  0.2125394E+03  0.7546771E-02  0.1139571E+00
         21   -1    0    0  501  502  0.00000000000E+00  0.00000000000E+00  0.20706580089E+03  0.20706580089E+03  0.00000000000E+00 0.  1.
         21   -1    0    0  502  503 -0.00000000000E+00 -0.00000000000E+00 -0.31692750090E+03  0.31692750090E+03  0.00000000000E+00 0. -1.
          6    1    1    2  501    0  0.32768458266E+02 -0.11903866755E+03  0.91330004468E+02  0.23133124723E+03  0.17300000000E+03 0.  1.
         -6    1    1    2    0  503 -0.32768458266E+02  0.11903866755E+03 -0.20119170447E+03  0.29266205456E+03  0.17300000000E+03 0. -1.
<mgrwt>
<rscale>  2 0.21253935E+03</rscale>
<asrwt>0</asrwt>
<pdfrwt beam="1">  1       21 0.31856277E-01 0.21253935E+03</pdfrwt>
<pdfrwt beam="2">  1       21 0.48758077E-01 0.21253935E+03</pdfrwt>
<totfact> 0.37658866E+04</totfact>
</mgrwt>
</event>
<event>
 4    1  0.4510095E+000  0.2502873E+03  0.7546771E-02  0.1113123E+00
         21   -1    0    0  503  502  0.00000000000E+00  0.00000000000E+00  0.41587567859E+03  0.41587567859E+03  0.00000000000E+00 0. -1.
         21   -1    0    0  501  503 -0.00000000000E+00 -0.00000000000E+00 -0.38205808463E+03  0.38205808463E+03  0.00000000000E+00 0.  1.
          6    1    1    2  501    0  0.18087214056E+03 -0.14458627076E+00 -0.29360384056E+03  0.38580690420E+03  0.17300000000E+03 0.  1.
         -6    1    1    2    0  502 -0.18087214056E+03  0.14458627076E+00  0.32742143452E+03  0.41212685901E+03  0.17300000000E+03 0. -1.
<mgrwt>
<rscale>  2 0.25028734E+03</rscale>
<asrwt>0</asrwt>
<pdfrwt beam="1">  1       21 0.63980874E-01 0.25028734E+03</pdfrwt>
<pdfrwt beam="2">  1       21 0.58778167E-01 0.25028734E+03</pdfrwt>
<totfact> 0.58726600E+03</totfact>
</mgrwt>
</event>
<event>
 4    1  0.4510095E+000  0.2010847E+03  0.7546771E-02  0.1148827E+00
         21   -1    0    0  501  502  0.00000000000E+00  0.00000000000E+00  0.65882008207E+02  0.65882008207E+02  0.00000000000E+00 0. -1.
         21   -1    0    0  502  503 -0.00000000000E+00 -0.00000000000E+00 -0.61876347829E+03  0.61876347829E+03  0.00000000000E+00 0.  1.
          6    1    1    2  501    0  0.37013527623E+02 -0.95582771330E+02 -0.24562639032E+03  0.31743879886E+03  0.17300000000E+03 0.  1.
         -6    1    1    2    0  503 -0.37013527623E+02  0.95582771330E+02 -0.30725507976E+03  0.36720668763E+03  0.17300000000E+03 0.  1.
<mgrwt>
<rscale>  2 0.20108473E+03</rscale>
<asrwt>0</asrwt>
<pdfrwt beam="1">  1       21 0.10135694E-01 0.20108473E+03</pdfrwt>
<pdfrwt beam="2">  1       21 0.95194379E-01 0.20108473E+03</pdfrwt>
<totfact> 0.72761817E+04</totfact>
</mgrwt>
</event>
<event>
 4    1  0.4510095E+000  0.1946756E+03  0.7546771E-02  0.1154311E+00
         21   -1    0    0  503  502  0.00000000000E+00  0.00000000000E+00  0.44929392166E+03  0.44929392166E+03  0.00000000000E+00 0. -1.
         21   -1    0    0  501  503 -0.00000000000E+00 -0.00000000000E+00 -0.10801921025E+03  0.10801921025E+03  0.00000000000E+00 0. -1.
          6    1    1    2  501    0  0.63351735743E+02 -0.62897829174E+02  0.40201300113E+02  0.19878310760E+03  0.17300000000E+03 0.  1.
         -6    1    1    2    0  502 -0.63351735743E+02  0.62897829174E+02  0.30107341130E+03  0.35853002430E+03  0.17300000000E+03 0.  1.
<mgrwt>
<rscale>  2 0.19467557E+03</rscale>
<asrwt>0</asrwt>
<pdfrwt beam="1">  1       21 0.69122141E-01 0.19467557E+03</pdfrwt>
<pdfrwt beam="2">  1       21 0.16618340E-01 0.19467557E+03</pdfrwt>
<totfact> 0.61911674E+04</totfact>
</mgrwt>
</event>
<event>
 4    1  0.4510095E+000  0.1811373E+03  0.7546771E-02  0.1166707E+00
         21   -1    0    0  503  502  0.00000000000E+00  0.00000000000E+00  0.19468338878E+03  0.19468338878E+03  0.00000000000E+00 0.  1.
         21   -1    0    0  501  503 -0.00000000000E+00 -0.00000000000E+00 -0.16858052455E+03  0.16858052455E+03  0.00000000000E+00 0.  1.
          6    1    1    2  501    0 -0.53252330340E+02 -0.67757089974E+01  0.16077014422E+02  0.18184936434E+03  0.17300000000E+03 0. -1.
         -6    1    1    2    0  502  0.53252330340E+02  0.67757089974E+01  0.10025849815E+02  0.18141454899E+03  0.17300000000E+03 0. -1.
<mgrwt>
<rscale>  2 0.18113730E+03</rscale>
<asrwt>0</asrwt>
<pdfrwt beam="1">  1       21 0.29951291E-01 0.18113730E+03</pdfrwt>
<pdfrwt beam="2">  1       21 0.25935465E-01 0.18113730E+03</pdfrwt>
<totfact> 0.15148670E+05</totfact>
</mgrwt>
</event>
<event>
 4    1  0.4510095E+000  0.1738095E+03  0.7546771E-02  0.1173932E+00
         21   -1    0    0  501  502  0.00000000000E+00  0.00000000000E+00  0.97959131558E+03  0.97959131558E+03  0.00000000000E+00 0. -1.
         21   -1    0    0  502  503 -0.00000000000E+00 -0.00000000000E+00 -0.30843785840E+02  0.30843785840E+02  0.00000000000E+00 0. -1.
          6    1    1    2  501    0  0.52853717767E+01  0.15900359206E+02  0.48057232059E+03  0.51103768148E+03  0.17300000000E+03 0.  1.
         -6    1    1    2    0  503 -0.52853717767E+01 -0.15900359206E+02  0.46817520915E+03  0.49939741994E+03  0.17300000000E+03 0.  1.
<mgrwt>
<rscale>  2 0.17380954E+03</rscale>
<asrwt>0</asrwt>
<pdfrwt beam="1">  1       21 0.15070633E+00 0.17380954E+03</pdfrwt>
<pdfrwt beam="2">  1       21 0.47451986E-02 0.17380954E+03</pdfrwt>
<totfact> 0.87588264E+04</totfact>
</mgrwt>
</event>
<event>
 4    1  0.4510095E+000  0.2560508E+03  0.7546771E-02  0.1109539E+00
         21   -1    0    0  503  502  0.00000000000E+00  0.00000000000E+00  0.42863613885E+03  0.42863613885E+03  0.00000000000E+00 0. -1.
         21   -1    0    0  501  503 -0.00000000000E+00 -0.00000000000E+00 -0.18707911433E+03  0.18707911433E+03  0.00000000000E+00 0.  1.
          6    1    1    2  501    0  0.70242784942E+01 -0.18863635724E+03 -0.10704101070E+02  0.25627444965E+03  0.17300000000E+03 0.  1.
         -6    1    1    2    0  502 -0.70242784942E+01  0.18863635724E+03  0.25226112559E+03  0.35944080354E+03  0.17300000000E+03 0. -1.
<mgrwt>
<rscale>  2 0.25605081E+03</rscale>
<asrwt>0</asrwt>
<pdfrwt beam="1">  1       21 0.65944021E-01 0.25605081E+03</pdfrwt>
<pdfrwt beam="2">  1       21 0.28781402E-01 0.25605081E+03</pdfrwt>
<totfact> 0.23601061E+04</totfact>
</mgrwt>
</event>
<event>
 4    1  0.4510095E+000  0.2681251E+03  0.7546771E-02  0.1102357E+00
         21   -1    0    0  503  502  0.00000000000E+00  0.00000000000E+00  0.63980105996E+02  0.63980105996E+02  0.00000000000E+00 0. -1.
         21   -1    0    0  501  503 -0.00000000000E+00 -0.00000000000E+00 -0.11244928600E+04  0.11244928600E+04  0.00000000000E+00 0. -1.
          6    1    1    2  501    0  0.34625798991E+02  0.20189884859E+03 -0.51396408196E+03  0.57969834273E+03  0.17300000000E+03 0. -1.
         -6    1    1    2    0  502 -0.34625798991E+02 -0.20189884859E+03 -0.54654867200E+03  0.60877462322E+03  0.17300000000E+03 0. -1.
<mgrwt>
<rscale>  2 0.26812514E+03</rscale>
<asrwt>0</asrwt>
<pdfrwt beam="1">  1       21 0.98430926E-02 0.26812514E+03</pdfrwt>
<pdfrwt beam="2">  1       21 0.17299891E+00 0.26812514E+03</pdfrwt>
<totfact> 0.16166422E+04</totfact>
</mgrwt>
</event>
<event>
 4    1  0.4510095E+000  0.1801204E+03  0.7546771E-02  0.1167687E+00
         21   -1    0    0  501  502  0.00000000000E+00  0.00000000000E+00  0.51985512013E+03  0.51985512013E+03  0.00000000000E+00 0. -1.
         21   -1    0    0  502  503 -0.00000000000E+00 -0.00000000000E+00 -0.62960929169E+02  0.62960929169E+02  0.00000000000E+00 0. -1.
          6    1    1    2  501    0  0.47100408563E+02  0.17201629222E+02  0.25574502740E+03  0.31280802991E+03  0.17300000000E+03 0. -1.
         -6    1    1    2    0  503 -0.47100408563E+02 -0.17201629222E+02  0.20114916357E+03  0.27000801940E+03  0.17300000000E+03 0. -1.
<mgrwt>
<rscale>  2 0.18012036E+03</rscale>
<asrwt>0</asrwt>
<pdfrwt beam="1">  1       21 0.79977708E-01 0.18012036E+03</pdfrwt>
<pdfrwt beam="2">  1       21 0.96862971E-02 0.18012036E+03</pdfrwt>
<totfact> 0.11868724E+05</totfact>
</mgrwt>
</event>
<event>
 4    1  0.4510095E+000  0.2267117E+03  0.7546771E-02  0.1128976E+00
         21   -1    0    0  501  502  0.00000000000E+00  0.00000000000E+00  0.12151730847E+03  0.12151730847E+03  0.00000000000E+00 0.  1.
         21   -1    0    0  502  503 -0.00000000000E+00 -0.00000000000E+00 -0.45738762012E+03  0.45738762012E+03  0.00000000000E+00 0.  1.
          6    1    1    2  501    0 -0.10883333838E+03  0.98104513599E+02 -0.88534392178E+02  0.24338555777E+03  0.17300000000E+03 0.  1.
         -6    1    1    2    0  503  0.10883333838E+03 -0.98104513599E+02 -0.24733591948E+03  0.33551937082E+03  0.17300000000E+03 0.  1.
<mgrwt>
<rscale>  2 0.22671169E+03</rscale>
<asrwt>0</asrwt>
<pdfrwt beam="1">  1       21 0.18694971E-01 0.22671169E+03</pdfrwt>
<pdfrwt beam="2">  1       21 0.70367326E-01 0.22671169E+03</pdfrwt>
<totfact> 0.47161845E+04</totfact>
</mgrwt>
</event>
<event>
 4    1  0.4510095E+000  0.1951458E+03  0.7546771E-02  0.1153900E+00
         21   -1    0    0  503  502  0.00000000000E+00  0.00000000000E+00  0.20769065366E+03  0.20769065366E+03  0.00000000000E+00 0. -1.
         21   -1    0    0  501  503 -0.00000000000E+00 -0.00000000000E+00 -0.18345020805E+03  0.18345020805E+03  0.00000000000E+00 0.  1.
          6    1    1    2  501    0 -0.37709104993E+02 -0.82042091756E+02  0.77515265009E+01  0.19529968659E+03  0.17300000000E+03 0.  1.
         -6    1    1    2    0  502  0.37709104993E+02  0.82042091756E+02  0.16488919100E+02  0.19584117512E+03  0.17300000000E+03 0.  1.
<mgrwt>
<rscale>  2 0.19514580E+03</rscale>
<asrwt>0</asrwt>
<pdfrwt beam="1">  1       21 0.31952408E-01 0.19514580E+03</pdfrwt>
<pdfrwt beam="2">  1       21 0.28223109E-01 0.19514580E+03</pdfrwt>
<totfact> 0.11291355E+05</totfact>
</mgrwt>
</event>
<event>
 4    1  0.4510095E+000  0.2484581E+03  0.7546771E-02  0.1114283E+00
         21   -1    0    0  501  502  0.00000000000E+00  0.00000000000E+00  0.96463146995E+03  0.96463146995E+03  0.00000000000E+00 0.  1.
         21   -1    0    0  502  503 -0.00000000000E+00 -0.00000000000E+00 -0.80447331306E+02  0.80447331306E+02  0.00000000000E+00 0.  1.
          6    1    1    2  501    0  0.17301993395E+03 -0.43203151285E+02  0.67840061258E+03  0.72246716256E+03  0.17300000000E+03 0.  1.
         -6    1    1    2    0  503 -0.17301993395E+03  0.43203151285E+02  0.20578352606E+03  0.32261163870E+03  0.17300000000E+03 0.  1.
<mgrwt>
<rscale>  2 0.24845806E+03</rscale>
<asrwt>0</asrwt>
<pdfrwt beam="1">  1       21 0.14840483E+00 0.24845806E+03</pdfrwt>
<pdfrwt beam="2">  1       21 0.12376513E-01 0.24845806E+03</pdfrwt>
<totfact> 0.16477908E+04</totfact>
</mgrwt>
</event>
<event>
 4    1  0.4510095E+000  0.1828843E+03  0.7546771E-02  0.1165040E+00
         21   -1    0    0  503  502  0.00000000000E+00  0.00000000000E+00  0.13945628902E+03  0.13945628902E+03  0.00000000000E+00 0. -1.
         21   -1    0    0  501  503 -0.00000000000E+00 -0.00000000000E+00 -0.63874799595E+03  0.63874799595E+03  0.00000000000E+00 0. -1.
          6    1    1    2  501    0  0.35914074277E+02  0.47199910790E+02 -0.55714034577E+03  0.58638896408E+03  0.17300000000E+03 0. -1.
         -6    1    1    2    0  502 -0.35914074277E+02 -0.47199910790E+02  0.57848638841E+02  0.19181532088E+03  0.17300000000E+03 0. -1.
<mgrwt>
<rscale>  2 0.18288426E+03</rscale>
<asrwt>0</asrwt>
<pdfrwt beam="1">  1       21 0.21454814E-01 0.18288426E+03</pdfrwt>
<pdfrwt beam="2">  1       21 0.98268923E-01 0.18288426E+03</pdfrwt>
<totfact> 0.17421229E+04</totfact>
</mgrwt>
</event>
<event>
 4    1  0.4510095E+000  0.2022805E+03  0.7546771E-02  0.1147829E+00
         21   -1    0    0  503  502  0.00000000000E+00  0.00000000000E+00  0.20307881124E+03  0.20307881124E+03  0.00000000000E+00 0. -1.
         21   -1    0    0  501  503 -0.00000000000E+00 -0.00000000000E+00 -0.20547983840E+03  0.20547983840E+03  0.00000000000E+00 0.  1.
          6    1    1    2  501    0 -0.10249178146E+03  0.21995911396E+02 -0.29682858097E+02  0.20444671054E+03  0.17300000000E+03 0.  1.
         -6    1    1    2    0  502  0.10249178146E+03 -0.21995911396E+02  0.27281830928E+02  0.20411193910E+03  0.17300000000E+03 0. -1.
<mgrwt>
<rscale>  2 0.20228046E+03</rscale>
<asrwt>0</asrwt>
<pdfrwt beam="1">  1       21 0.31242894E-01 0.20228046E+03</pdfrwt>
<pdfrwt beam="2">  1       21 0.31612283E-01 0.20228046E+03</pdfrwt>
<totfact> 0.94320790E+04</totfact>
</mgrwt>
</event>
<event>
 4    1  0.4510095E+000  0.1856598E+03  0.7546771E-02  0.1162435E+00
         21   -1    0    0  501  502  0.00000000000E+00  0.00000000000E+00  0.76490701436E+02  0.76490701436E+02  0.00000000000E+00 0. -1.
         21   -1    0    0  502  503 -0.00000000000E+00 -0.00000000000E+00 -0.45077732526E+03  0.45077732526E+03  0.00000000000E+00 0.  1.
          6    1    1    2  501    0  0.63506733179E+02 -0.22527126170E+02 -0.19178687891E+03  0.26693029707E+03  0.17300000000E+03 0. -1.
         -6    1    1    2    0  503 -0.63506733179E+02  0.22527126170E+02 -0.18249974492E+03  0.26033772963E+03  0.17300000000E+03 0.  1.
<mgrwt>
<rscale>  2 0.18565984E+03</rscale>
<asrwt>0</asrwt>
<pdfrwt beam="1">  1       21 0.11767800E-01 0.18565984E+03</pdfrwt>
<pdfrwt beam="2">  1       21 0.69350357E-01 0.18565984E+03</pdfrwt>
<totfact> 0.11523065E+05</totfact>
</mgrwt>
</event>
<event>
 4    1  0.4510095E+000  0.2193219E+03  0.7546771E-02  0.1134390E+00
         21   -1    0    0  501  502  0.00000000000E+00  0.00000000000E+00  0.17325912704E+03  0.17325912704E+03  0.00000000000E+00 0.  1.
         21   -1    0    0  502  503 -0.00000000000E+00 -0.00000000000E+00 -0.82129203080E+03  0.82129203080E+03  0.00000000000E+00 0. -1.
          6    1    1    2  501    0 -0.10365859497E+03 -0.86185802232E+02  0.80571035763E+02  0.23365313741E+03  0.17300000000E+03 0.  1.
         -6    1    1    2    0  503  0.10365859497E+03  0.86185802232E+02 -0.72860393952E+03  0.76089802043E+03  0.17300000000E+03 0. -1.
<mgrwt>
<rscale>  2 0.21932190E+03</rscale>
<asrwt>0</asrwt>
<pdfrwt beam="1">  1       21 0.26655251E-01 0.21932190E+03</pdfrwt>
<pdfrwt beam="2">  1       21 0.12635262E+00 0.21932190E+03</pdfrwt>
<totfact> 0.60951873E+03</totfact>
</mgrwt>
</event>
<event>
 4    1  0.4510095E+000  0.2627977E+03  0.7546771E-02  0.1105474E+00
         21   -1    0    0  501  502  0.00000000000E+00  0.00000000000E+00  0.20563269905E+03  0.20563269905E+03  0.00000000000E+00 0.  1.
         21   -1    0    0  502  503 -0.00000000000E+00 -0.00000000000E+00 -0.43128024904E+03  0.43128024904E+03  0.00000000000E+00 0. -1.
          6    1    1    2  501    0  0.11525651247E+03 -0.16077805762E+03 -0.26262084057E+03  0.37152705605E+03  0.17300000000E+03 0. -1.
         -6    1    1    2    0  503 -0.11525651247E+03  0.16077805762E+03  0.36973290577E+02  0.26538589204E+03  0.17300000000E+03 0.  1.
<mgrwt>
<rscale>  2 0.26279773E+03</rscale>
<asrwt>0</asrwt>
<pdfrwt beam="1">  1       21 0.31635800E-01 0.26279773E+03</pdfrwt>
<pdfrwt beam="2">  1       21 0.66350806E-01 0.26279773E+03</pdfrwt>
<totfact> 0.19277229E+04</totfact>
</mgrwt>
</event>
<event>
 4    1  0.4510095E+000  0.1817683E+03  0.7546771E-02  0.1166103E+00
         21   -1    0    0  501  502  0.00000000000E+00  0.00000000000E+00  0.12388375234E+03  0.12388375234E+03  0.00000000000E+00 0.  1.
         21   -1    0    0  502  503 -0.00000000000E+00 -0.00000000000E+00 -0.26674957990E+03  0.26674957990E+03  0.00000000000E+00 0.  1.
          6    1    1    2  501    0 -0.39460205043E+02  0.39415679124E+02 -0.74115852160E+02  0.19629789373E+03  0.17300000000E+03 0.  1.
         -6    1    1    2    0  503  0.39460205043E+02 -0.39415679124E+02 -0.68749975394E+02  0.19433543851E+03  0.17300000000E+03 0.  1.
<mgrwt>
<rscale>  2 0.18176827E+03</rscale>
<asrwt>0</asrwt>
<pdfrwt beam="1">  1       21 0.19059039E-01 0.18176827E+03</pdfrwt>
<pdfrwt beam="2">  1       21 0.41038396E-01 0.18176827E+03</pdfrwt>
<totfact> 0.14493151E+05</totfact>
</mgrwt>
</event>
<event>
 4    1  0.4510095E+000  0.1928002E+03  0.7546771E-02  0.1155960E+00
         21   -1    0    0  501  502  0.00000000000E+00  0.00000000000E+00  0.10303999324E+03  0.10303999324E+03  0.00000000000E+00 0.  1.
         21   -1    0    0  502  503 -0.00000000000E+00 -0.00000000000E+00 -0.61482158033E+03  0.61482158033E+03  0.00000000000E+00 0.  1.
          6    1    1    2  501    0 -0.40170462471E+02 -0.75028442475E+02 -0.25156534188E+02  0.19443452483E+03  0.17300000000E+03 0.  1.
         -6    1    1    2    0  503  0.40170462471E+02  0.75028442475E+02 -0.48662505290E+03  0.52342704874E+03  0.17300000000E+03 0.  1.
<mgrwt>
<rscale>  2 0.19280024E+03</rscale>
<asrwt>0</asrwt>
<pdfrwt beam="1">  1       21 0.15852306E-01 0.19280024E+03</pdfrwt>
<pdfrwt beam="2">  1       21 0.94587937E-01 0.19280024E+03</pdfrwt>
<totfact> 0.33188059E+04</totfact>
</mgrwt>
</event>
<event>
 4    1  0.4510095E+000  0.1741746E+03  0.7546771E-02  0.1173563E+00
         21   -1    0    0  503  502  0.00000000000E+00  0.00000000000E+00  0.59924222807E+02  0.59924222807E+02  0.00000000000E+00 0.  1.
         21   -1    0    0  501  503 -0.00000000000E+00 -0.00000000000E+00 -0.51391001324E+03  0.51391001324E+03  0.00000000000E+00 0.  1.
          6    1    1    2  501    0 -0.18653620727E+02  0.77342775348E+01 -0.26201659323E+03  0.31462592351E+03  0.17300000000E+03 0.  1.
         -6    1    1    2    0  502  0.18653620727E+02 -0.77342775348E+01 -0.19196919721E+03  0.25920831255E+03  0.17300000000E+03 0.  1.
<mgrwt>
<rscale>  2 0.17417456E+03</rscale>
<asrwt>0</asrwt>
<pdfrwt beam="1">  1       21 0.92191115E-02 0.17417456E+03</pdfrwt>
<pdfrwt beam="2">  1       21 0.79063076E-01 0.17417456E+03</pdfrwt>
<totfact> 0.13314862E+05</totfact>
</mgrwt>
</event>
<event>
 4    1  0.4510095E+000  0.3375876E+03  0.7546771E-02  0.1067828E+00
         21   -1    0    0  503  502  0.00000000000E+00  0.00000000000E+00  0.16803332180E+03  0.16803332180E+03  0.00000000000E+00 0.  1.
         21   -1    0    0  501  503 -0.00000000000E+00 -0.00000000000E+00 -0.68530562431E+03  0.68530562431E+03  0.00000000000E+00 0. -1.
          6    1    1    2  501    0  0.28801789810E+03  0.32894621382E+02 -0.30198811857E+03  0.45294832984E+03  0.17300000000E+03 0. -1.
         -6    1    1    2    0  502 -0.28801789810E+03 -0.32894621382E+02 -0.21528418394E+03  0.40039061627E+03  0.17300000000E+03 0.  1.
<mgrwt>
<rscale>  2 0.33758757E+03</rscale>
<asrwt>0</asrwt>
<pdfrwt beam="1">  1       21 0.25851280E-01 0.33758757E+03</pdfrwt>
<pdfrwt beam="2">  1       21 0.10543164E+00 0.33758757E+03</pdfrwt>
<totfact> 0.94959218E+03</totfact>
</mgrwt>
</event>
<event>
 4    1  0.4510095E+000  0.1957053E+03  0.7546771E-02  0.1153414E+00
         21   -1    0    0  501  502  0.00000000000E+00  0.00000000000E+00  0.23809933841E+03  0.23809933841E+03  0.00000000000E+00 0. -1.
         21   -1    0    0  502  503 -0.00000000000E+00 -0.00000000000E+00 -0.18007508681E+04  0.18007508681E+04  0.00000000000E+00 0.  1.
          6    1    1    2  501    0 -0.42726072956E+02  0.80907616728E+02  0.19150217846E+03  0.27381315547E+03  0.17300000000E+03 0. -1.
         -6    1    1    2    0  503  0.42726072956E+02 -0.80907616728E+02 -0.17541537081E+04  0.17650370510E+04  0.17300000000E+03 0.  1.
<mgrwt>
<rscale>  2 0.19570529E+03</rscale>
<asrwt>0</asrwt>
<pdfrwt beam="1">  1       21 0.36630667E-01 0.19570529E+03</pdfrwt>
<pdfrwt beam="2">  1       21 0.27703860E+00 0.19570529E+03</pdfrwt>
<totfact> 0.33123622E+02</totfact>
</mgrwt>
</event>
<event>
 4    1  0.4510095E+000  0.1730634E+03  0.7546771E-02  0.1174690E+00
         21   -1    0    0  501  502  0.00000000000E+00  0.00000000000E+00  0.53047630165E+02  0.53047630165E+02  0.00000000000E+00 0.  1.
         21   -1    0    0  502  503 -0.00000000000E+00 -0.00000000000E+00 -0.67737771583E+03  0.67737771583E+03  0.00000000000E+00 0.  1.
          6    1    1    2  501    0  0.45524533370E+01  0.10979625781E+01 -0.16314887802E+03  0.23784130581E+03  0.17300000000E+03 0.  1.
         -6    1    1    2    0  503 -0.45524533370E+01 -0.10979625781E+01 -0.46118120765E+03  0.49258404018E+03  0.17300000000E+03 0.  1.
<mgrwt>
<rscale>  2 0.17306337E+03</rscale>
<asrwt>0</asrwt>
<pdfrwt beam="1">  1       21 0.81611741E-02 0.17306337E+03</pdfrwt>
<pdfrwt beam="2">  1       21 0.10421195E+00 0.17306337E+03</pdfrwt>
<totfact> 0.86970871E+04</totfact>
</mgrwt>
</event>
<event>
 4    1  0.4510095E+000  0.2017313E+03  0.7546771E-02  0.1148286E+00
         21   -1    0    0  501  502  0.00000000000E+00  0.00000000000E+00  0.10501088334E+04  0.10501088334E+04  0.00000000000E+00 0.  1.
         21   -1    0    0  502  503 -0.00000000000E+00 -0.00000000000E+00 -0.77380970807E+02  0.77380970807E+02  0.00000000000E+00 0.  1.
          6    1    1    2  501    0 -0.84481752866E+02 -0.60244090260E+02  0.88466641234E+03  0.90737543393E+03  0.17300000000E+03 0.  1.
         -6    1    1    2    0  503  0.84481752866E+02  0.60244090260E+02  0.88061450243E+02  0.22011437027E+03  0.17300000000E+03 0.  1.
<mgrwt>
<rscale>  2 0.20173130E+03</rscale>
<asrwt>0</asrwt>
<pdfrwt beam="1">  1       21 0.16155519E+00 0.20173130E+03</pdfrwt>
<pdfrwt beam="2">  1       21 0.11904766E-01 0.20173130E+03</pdfrwt>
<totfact> 0.14499217E+04</totfact>
</mgrwt>
</event>
<event>
 4    1  0.4510095E+000  0.2093092E+03  0.7546771E-02  0.1142114E+00
         21   -1    0    0  501  502  0.00000000000E+00  0.00000000000E+00  0.32605698384E+03  0.32605698384E+03  0.00000000000E+00 0. -1.
         21   -1    0    0  502  503 -0.00000000000E+00 -0.00000000000E+00 -0.15759155517E+03  0.15759155517E+03  0.00000000000E+00 0. -1.
          6    1    1    2  501    0  0.11562430189E+03  0.22635368582E+02  0.17707260770E+03  0.27416244728E+03  0.17300000000E+03 0. -1.
         -6    1    1    2    0  503 -0.11562430189E+03 -0.22635368582E+02 -0.86071790303E+01  0.20948609173E+03  0.17300000000E+03 0. -1.
<mgrwt>
<rscale>  2 0.20930919E+03</rscale>
<asrwt>0</asrwt>
<pdfrwt beam="1">  1       21 0.50162613E-01 0.20930919E+03</pdfrwt>
<pdfrwt beam="2">  1       21 0.24244855E-01 0.20930919E+03</pdfrwt>
<totfact> 0.60311192E+04</totfact>
</mgrwt>
</event>
<event>
 4    1  0.4510095E+000  0.1865659E+03  0.7546771E-02  0.1161596E+00
         21   -1    0    0  501  502  0.00000000000E+00  0.00000000000E+00  0.70960467966E+03  0.70960467966E+03  0.00000000000E+00 0. -1.
         21   -1    0    0  502  503 -0.00000000000E+00 -0.00000000000E+00 -0.51285692279E+02  0.51285692279E+02  0.00000000000E+00 0. -1.
          6    1    1    2  501    0  0.51431610355E+02  0.47250709161E+02  0.40857402584E+03  0.44915428825E+03  0.17300000000E+03 0. -1.
         -6    1    1    2    0  503 -0.51431610355E+02 -0.47250709161E+02  0.24974496153E+03  0.31173608369E+03  0.17300000000E+03 0. -1.
<mgrwt>
<rscale>  2 0.18656591E+03</rscale>
<asrwt>0</asrwt>
<pdfrwt beam="1">  1       21 0.10916994E+00 0.18656591E+03</pdfrwt>
<pdfrwt beam="2">  1       21 0.78901070E-02 0.18656591E+03</pdfrwt>
<totfact> 0.81988423E+04</totfact>
</mgrwt>
</event>
<event>
 4    1  0.4510095E+000  0.1886219E+03  0.7546771E-02  0.1159710E+00
         21   -1    0    0  503  502  0.00000000000E+00  0.00000000000E+00  0.63558413967E+02  0.63558413967E+02  0.00000000000E+00 0.  1.
         21   -1    0    0  501  503 -0.00000000000E+00 -0.00000000000E+00 -0.56019497886E+03  0.56019497886E+03  0.00000000000E+00 0.  1.
          6    1    1    2  501    0 -0.61074678131E+02  0.43807576215E+02 -0.23974837030E+03  0.30505327585E+03  0.17300000000E+03 0.  1.
         -6    1    1    2    0  502  0.61074678131E+02 -0.43807576215E+02 -0.25688819459E+03  0.31870011698E+03  0.17300000000E+03 0.  1.
<mgrwt>
<rscale>  2 0.18862190E+03</rscale>
<asrwt>0</asrwt>
<pdfrwt beam="1">  1       21 0.97782180E-02 0.18862190E+03</pdfrwt>
<pdfrwt beam="2">  1       21 0.86183839E-01 0.18862190E+03</pdfrwt>
<totfact> 0.98163240E+04</totfact>
</mgrwt>
</event>
<event>
 4    1  0.4510095E+000  0.1946776E+03  0.7546771E-02  0.1154309E+00
         21   -1    0    0  503  502  0.00000000000E+00  0.00000000000E+00  0.52531819726E+02  0.52531819726E+02  0.00000000000E+00 0. -1.
         21   -1    0    0  501  503 -0.00000000000E+00 -0.00000000000E+00 -0.18282148441E+04  0.18282148441E+04  0.00000000000E+00 0. -1.
          6    1    1    2  501    0 -0.88893313972E+02  0.82680011942E+01 -0.16195081406E+04  0.16311670664E+04  0.17300000000E+03 0. -1.
         -6    1    1    2    0  502  0.88893313972E+02 -0.82680011942E+01 -0.15617488374E+03  0.24957959737E+03  0.17300000000E+03 0. -1.
<mgrwt>
<rscale>  2 0.19467763E+03</rscale>
<asrwt>0</asrwt>
<pdfrwt beam="1">  1       21 0.80818191E-02 0.19467763E+03</pdfrwt>
<pdfrwt beam="2">  1       21 0.28126380E+00 0.19467763E+03</pdfrwt>
<totfact> 0.51475881E+03</totfact>
</mgrwt>
</event>
<event>
 4    1  0.4510095E+000  0.1782530E+03  0.7546771E-02  0.1169505E+00
         21   -1    0    0  501  502  0.00000000000E+00  0.00000000000E+00  0.39323800419E+02  0.39323800419E+02  0.00000000000E+00 0. -1.
         21   -1    0    0  502  503 -0.00000000000E+00 -0.00000000000E+00 -0.11552401724E+04  0.11552401724E+04  0.00000000000E+00 0. -1.
          6    1    1    2  501    0 -0.26309722275E+02  0.33954981538E+02 -0.23050431972E+03  0.29138699982E+03  0.17300000000E+03 0. -1.
         -6    1    1    2    0  503  0.26309722275E+02 -0.33954981538E+02 -0.88541205229E+03  0.90317697303E+03  0.17300000000E+03 0. -1.
<mgrwt>
<rscale>  2 0.17825303E+03</rscale>
<asrwt>0</asrwt>
<pdfrwt beam="1">  1       21 0.60498155E-02 0.17825303E+03</pdfrwt>
<pdfrwt beam="2">  1       21 0.17772926E+00 0.17825303E+03</pdfrwt>
<totfact> 0.37006541E+04</totfact>
</mgrwt>
</event>
<event>
 4    1  0.4510095E+000  0.2025611E+03  0.7546771E-02  0.1147596E+00
         21   -1    0    0  501  502  0.00000000000E+00  0.00000000000E+00  0.27520753918E+03  0.27520753918E+03  0.00000000000E+00 0.  1.
         21   -1    0    0  502  503 -0.00000000000E+00 -0.00000000000E+00 -0.30706369636E+03  0.30706369636E+03  0.00000000000E+00 0. -1.
          6    1    1    2  501    0 -0.10452264208E+03 -0.13305026173E+02  0.19289184068E+03  0.27971104488E+03  0.17300000000E+03 0.  1.
         -6    1    1    2    0  503  0.10452264208E+03  0.13305026173E+02 -0.22474799786E+03  0.30256019066E+03  0.17300000000E+03 0. -1.
<mgrwt>
<rscale>  2 0.20256112E+03</rscale>
<asrwt>0</asrwt>
<pdfrwt beam="1">  1       21 0.42339621E-01 0.20256112E+03</pdfrwt>
<pdfrwt beam="2">  1       21 0.47240569E-01 0.20256112E+03</pdfrwt>
<totfact> 0.22878480E+04</totfact>
</mgrwt>
</event>
<event>
 4    1  0.4510095E+000  0.1892842E+03  0.7546771E-02  0.1159109E+00
         21   -1    0    0  501  502  0.00000000000E+00  0.00000000000E+00  0.76247858743E+03  0.76247858743E+03  0.00000000000E+00 0. -1.
         21   -1    0    0  502  503 -0.00000000000E+00 -0.00000000000E+00 -0.49611982186E+02  0.49611982186E+02  0.00000000000E+00 0. -1.
          6    1    1    2  501    0 -0.26784031384E+02 -0.71986869130E+02  0.44978813322E+03  0.48799370739E+03  0.17300000000E+03 0. -1.
         -6    1    1    2    0  503  0.26784031384E+02  0.71986869130E+02  0.26307847203E+03  0.32409686223E+03  0.17300000000E+03 0. -1.
<mgrwt>
<rscale>  2 0.18928416E+03</rscale>
<asrwt>0</asrwt>
<pdfrwt beam="1">  1       21 0.11730439E+00 0.18928416E+03</pdfrwt>
<pdfrwt beam="2">  1       21 0.76326132E-02 0.18928416E+03</pdfrwt>
<totfact> 0.72847191E+04</totfact>
</mgrwt>
</event>
<event>
 4    1  0.4510095E+000  0.1951759E+03  0.7546771E-02  0.1153874E+00
         21   -1    0    0  501  502  0.00000000000E+00  0.00000000000E+00  0.10530373996E+03  0.10530373996E+03  0.00000000000E+00 0. -1.
         21   -1    0    0  502  503 -0.00000000000E+00 -0.00000000000E+00 -0.43131151886E+03  0.43131151886E+03  0.00000000000E+00 0. -1.
          6    1    1    2  501    0 -0.37398296279E+02 -0.82255810079E+02 -0.55252881324E+02  0.20284607896E+03  0.17300000000E+03 0. -1.
         -6    1    1    2    0  503  0.37398296279E+02  0.82255810079E+02 -0.27075489758E+03  0.33376917985E+03  0.17300000000E+03 0. -1.
<mgrwt>
<rscale>  2 0.19517595E+03</rscale>
<asrwt>0</asrwt>
<pdfrwt beam="1">  1       21 0.16200575E-01 0.19517595E+03</pdfrwt>
<pdfrwt beam="2">  1       21 0.66355618E-01 0.19517595E+03</pdfrwt>
<totfact> 0.70933947E+04</totfact>
</mgrwt>
</event>
<event>
 4    1  0.4510095E+000  0.1940581E+03  0.7546771E-02  0.1154851E+00
         21   -1    0    0  503  502  0.00000000000E+00  0.00000000000E+00  0.59380287938E+03  0.59380287938E+03  0.00000000000E+00 0.  1.
         21   -1    0    0  501  503 -0.00000000000E+00 -0.00000000000E+00 -0.88943329697E+02  0.88943329697E+02  0.00000000000E+00 0.  1.
          6    1    1    2  501    0  0.20993239508E+02 -0.85374546678E+02  0.69557565310E+02  0.20614748171E+03  0.17300000000E+03 0.  1.
         -6    1    1    2    0  502 -0.20993239508E+02  0.85374546678E+02  0.43530198438E+03  0.47659872737E+03  0.17300000000E+03 0.  1.
<mgrwt>
<rscale>  2 0.19405806E+03</rscale>
<asrwt>0</asrwt>
<pdfrwt beam="1">  1       21 0.91354287E-01 0.19405806E+03</pdfrwt>
<pdfrwt beam="2">  1       21 0.13683590E-01 0.19405806E+03</pdfrwt>
<totfact> 0.46997807E+04</totfact>
</mgrwt>
</event>
<event>
 4    1  0.4510095E+000  0.2219626E+03  0.7546771E-02  0.1132428E+00
         21   -1    0    0  503  502  0.00000000000E+00  0.00000000000E+00  0.19705764427E+03  0.19705764427E+03  0.00000000000E+00 0. -1.
         21   -1    0    0  501  503 -0.00000000000E+00 -0.00000000000E+00 -0.10951928451E+04  0.10951928451E+04  0.00000000000E+00 0. -1.
          6    1    1    2  501    0  0.11658630108E+02 -0.13857301979E+03 -0.10166715550E+04  0.10406192657E+04  0.17300000000E+03 0. -1.
         -6    1    1    2    0  502 -0.11658630108E+02  0.13857301979E+03  0.11853635414E+03  0.25163122367E+03  0.17300000000E+03 0. -1.
<mgrwt>
<rscale>  2 0.22196262E+03</rscale>
<asrwt>0</asrwt>
<pdfrwt beam="1">  1       21 0.30316560E-01 0.22196262E+03</pdfrwt>
<pdfrwt beam="2">  1       21 0.16849121E+00 0.22196262E+03</pdfrwt>
<totfact> 0.22218512E+03</totfact>
</mgrwt>
</event>
<event>
 4    1  0.4510095E+000  0.1912274E+03  0.7546771E-02  0.1157359E+00
         21   -1    0    0  503  502  0.00000000000E+00  0.00000000000E+00  0.62371007445E+03  0.62371007445E+03  0.00000000000E+00 0. -1.
         21   -1    0    0  501  503 -0.00000000000E+00 -0.00000000000E+00 -0.21394615503E+03  0.21394615503E+03  0.00000000000E+00 0. -1.
          6    1    1    2  501    0  0.13430420499E+02  0.80365079267E+02 -0.15197350075E+03  0.24426188219E+03  0.17300000000E+03 0. -1.
         -6    1    1    2    0  502 -0.13430420499E+02 -0.80365079267E+02  0.56173742018E+03  0.59339434729E+03  0.17300000000E+03 0. -1.
<mgrwt>
<rscale>  2 0.19122741E+03</rscale>
<asrwt>0</asrwt>
<pdfrwt beam="1">  1       21 0.95955395E-01 0.19122741E+03</pdfrwt>
<pdfrwt beam="2">  1       21 0.32914793E-01 0.19122741E+03</pdfrwt>
<totfact> 0.80491619E+03</totfact>
</mgrwt>
</event>
<event>
 4    1  0.4510095E+000  0.2168667E+03  0.7546771E-02  0.1136241E+00
         21   -1    0    0  503  502  0.00000000000E+00  0.00000000000E+00  0.54719651796E+03  0.54719651796E+03  0.00000000000E+00 0. -1.
         21   -1    0    0  501  503 -0.00000000000E+00 -0.00000000000E+00 -0.96587268348E+02  0.96587268348E+02  0.00000000000E+00 0. -1.
          6    1    1    2  501    0  0.30965142587E+02  0.12705644335E+03  0.11847821889E+03  0.24711994700E+03  0.17300000000E+03 0. -1.
         -6    1    1    2    0  502 -0.30965142587E+02 -0.12705644335E+03  0.33213103071E+03  0.39666383931E+03  0.17300000000E+03 0. -1.
<mgrwt>
<rscale>  2 0.21686673E+03</rscale>
<asrwt>0</asrwt>
<pdfrwt beam="1">  1       21 0.84184078E-01 0.21686673E+03</pdfrwt>
<pdfrwt beam="2">  1       21 0.14859580E-01 0.21686673E+03</pdfrwt>
<totfact> 0.48300949E+04</totfact>
</mgrwt>
</event>
<event>
 4    1  0.4510095E+000  0.2456522E+03  0.7546771E-02  0.1116084E+00
         21   -1    0    0  501  502  0.00000000000E+00  0.00000000000E+00  0.16938834375E+04  0.16938834375E+04  0.00000000000E+00 0.  1.
         21   -1    0    0  502  503 -0.00000000000E+00 -0.00000000000E+00 -0.68196461520E+02  0.68196461520E+02  0.00000000000E+00 0.  1.
          6    1    1    2  501    0  0.11478531871E+02 -0.17402374952E+03  0.14217233810E+04  0.14427897955E+04  0.17300000000E+03 0.  1.
         -6    1    1    2    0  503 -0.11478531871E+02  0.17402374952E+03  0.20396359498E+03  0.31929010346E+03  0.17300000000E+03 0.  1.
<mgrwt>
<rscale>  2 0.24565224E+03</rscale>
<asrwt>0</asrwt>
<pdfrwt beam="1">  1       21 0.26059742E+00 0.24565224E+03</pdfrwt>
<pdfrwt beam="2">  1       21 0.10491765E-01 0.24565224E+03</pdfrwt>
<totfact> 0.40805735E+03</totfact>
</mgrwt>
</event>
<event>
 4    1  0.4510095E+000  0.2087781E+03  0.7546771E-02  0.1142537E+00
         21   -1    0    0  501  502  0.00000000000E+00  0.00000000000E+00  0.55989368700E+03  0.55989368700E+03  0.00000000000E+00 0. -1.
         21   -1    0    0  502  503 -0.00000000000E+00 -0.00000000000E+00 -0.78169542377E+02  0.78169542377E+02  0.00000000000E+00 0.  1.
          6    1    1    2  501    0  0.58952709590E+02  0.10091517040E+03  0.26122715502E+03  0.33440681827E+03  0.17300000000E+03 0.  1.
         -6    1    1    2    0  503 -0.58952709590E+02 -0.10091517040E+03  0.22049698960E+03  0.30365641111E+03  0.17300000000E+03 0. -1.
<mgrwt>
<rscale>  2 0.20877810E+03</rscale>
<asrwt>0</asrwt>
<pdfrwt beam="1">  1       21 0.86137488E-01 0.20877810E+03</pdfrwt>
<pdfrwt beam="2">  1       21 0.12026084E-01 0.20877810E+03</pdfrwt>
<totfact> 0.67435157E+04</totfact>
</mgrwt>
</event>
<event>
 4    1  0.4510095E+000  0.1871535E+03  0.7546771E-02  0.1161054E+00
         21   -1    0    0  503  502  0.00000000000E+00  0.00000000000E+00  0.15255956400E+03  0.15255956400E+03  0.00000000000E+00 0.  1.
         21   -1    0    0  501  503 -0.00000000000E+00 -0.00000000000E+00 -0.94936343223E+03  0.94936343223E+03  0.00000000000E+00 0. -1.
          6    1    1    2  501    0 -0.10176508290E+02  0.70667306409E+02 -0.87813798427E+03  0.89786009430E+03  0.17300000000E+03 0. -1.
         -6    1    1    2    0  502  0.10176508290E+02 -0.70667306409E+02  0.81334116037E+02  0.20406290194E+03  0.17300000000E+03 0.  1.
<mgrwt>
<rscale>  2 0.18715349E+03</rscale>
<asrwt>0</asrwt>
<pdfrwt beam="1">  1       21 0.23470702E-01 0.18715349E+03</pdfrwt>
<pdfrwt beam="2">  1       21 0.14605592E+00 0.18715349E+03</pdfrwt>
<totfact> 0.54998753E+03</totfact>
</mgrwt>
</event>
<event>
 4    1  0.4510095E+000  0.1993326E+03  0.7546771E-02  0.1150303E+00
         21   -1    0    0  503  502  0.00000000000E+00  0.00000000000E+00  0.17252279990E+03  0.17252279990E+03  0.00000000000E+00 0.  1.
         21   -1    0    0  501  503 -0.00000000000E+00 -0.00000000000E+00 -0.37091267460E+03  0.37091267460E+03  0.00000000000E+00 0.  1.
          6    1    1    2  501    0  0.98377116798E+02  0.11244858784E+02 -0.26648915544E+03  0.33279118667E+03  0.17300000000E+03 0.  1.
         -6    1    1    2    0  502 -0.98377116798E+02 -0.11244858784E+02  0.68099280745E+02  0.21064428783E+03  0.17300000000E+03 0.  1.
<mgrwt>
<rscale>  2 0.19933265E+03</rscale>
<asrwt>0</asrwt>
<pdfrwt beam="1">  1       21 0.26541969E-01 0.19933265E+03</pdfrwt>
<pdfrwt beam="2">  1       21 0.57063488E-01 0.19933265E+03</pdfrwt>
<totfact> 0.38826647E+04</totfact>
</mgrwt>
</event>
<event>
 4    1  0.4510095E+000  0.2001677E+03  0.7546771E-02  0.1149598E+00
         21   -1    0    0  503  502  0.00000000000E+00  0.00000000000E+00  0.46142421273E+03  0.46142421273E+03  0.00000000000E+00 0.  1.
         21   -1    0    0  501  503 -0.00000000000E+00 -0.00000000000E+00 -0.95259614220E+02  0.95259614220E+02  0.00000000000E+00 0. -1.
          6    1    1    2  501    0 -0.70014044242E+02 -0.72361095933E+02  0.10030008852E+03  0.22389105019E+03  0.17300000000E+03 0. -1.
         -6    1    1    2    0  502  0.70014044242E+02  0.72361095933E+02  0.26586450998E+03  0.33279277676E+03  0.17300000000E+03 0.  1.
<mgrwt>
<rscale>  2 0.20016767E+03</rscale>
<asrwt>0</asrwt>
<pdfrwt beam="1">  1       21 0.70988339E-01 0.20016767E+03</pdfrwt>
<pdfrwt beam="2">  1       21 0.14655326E-01 0.20016767E+03</pdfrwt>
<totfact> 0.73266983E+04</totfact>
</mgrwt>
</event>
<event>
 4    1  0.4510095E+000  0.2106727E+03  0.7546771E-02  0.1141034E+00
         21   -1    0    0  503  502  0.00000000000E+00  0.00000000000E+00  0.16618463590E+03  0.16618463590E+03  0.00000000000E+00 0. -1.
         21   -1    0    0  501  503 -0.00000000000E+00 -0.00000000000E+00 -0.27352193562E+03  0.27352193562E+03  0.00000000000E+00 0. -1.
          6    1    1    2  501    0 -0.11698603024E+03  0.27717566392E+02 -0.19903481374E+02  0.21161082990E+03  0.17300000000E+03 0. -1.
         -6    1    1    2    0  502  0.11698603024E+03 -0.27717566392E+02 -0.87433818341E+02  0.22809574163E+03  0.17300000000E+03 0. -1.
<mgrwt>
<rscale>  2 0.21067272E+03</rscale>
<asrwt>0</asrwt>
<pdfrwt beam="1">  1       21 0.25566867E-01 0.21067272E+03</pdfrwt>
<pdfrwt beam="2">  1       21 0.42080297E-01 0.21067272E+03</pdfrwt>
<totfact> 0.78263354E+04</totfact>
</mgrwt>
</event>
<event>
 4    1  0.4510095E+000  0.4786786E+03  0.7546771E-02  0.1019499E+00
         21   -1    0    0  503  502  0.00000000000E+00  0.00000000000E+00  0.49256473511E+03  0.49256473511E+03  0.00000000000E+00 0.  1.
         21   -1    0    0  501  503 -0.00000000000E+00 -0.00000000000E+00 -0.60391918679E+03  0.60391918679E+03  0.00000000000E+00 0. -1.
          6    1    1    2  501    0 -0.29199427479E+03 -0.33755522176E+03 -0.31844755634E+03  0.57492784798E+03  0.17300000000E+03 0. -1.
         -6    1    1    2    0  502  0.29199427479E+03  0.33755522176E+03  0.20709310466E+03  0.52155607392E+03  0.17300000000E+03 0.  1.
<mgrwt>
<rscale>  2 0.47867858E+03</rscale>
<asrwt>0</asrwt>
<pdfrwt beam="1">  1       21 0.75779190E-01 0.47867858E+03</pdfrwt>
<pdfrwt beam="2">  1       21 0.92910644E-01 0.47867858E+03</pdfrwt>
<totfact> 0.12820704E+03</totfact>
</mgrwt>
</event>
<event>
 4    1  0.4510095E+000  0.1750611E+03  0.7546771E-02  0.1172670E+00
         21   -1    0    0  501  502  0.00000000000E+00  0.00000000000E+00  0.28773055202E+04  0.28773055202E+04  0.00000000000E+00 0.  1.
         21   -1    0    0  502  503 -0.00000000000E+00 -0.00000000000E+00 -0.16003632383E+02  0.16003632383E+02  0.00000000000E+00 0.  1.
          6    1    1    2  501    0  0.65538259318E+01 -0.25969760185E+02  0.22672867565E+04  0.22740350958E+04  0.17300000000E+03 0.  1.
         -6    1    1    2    0  503 -0.65538259318E+01  0.25969760185E+02  0.59401513137E+03  0.61927405675E+03  0.17300000000E+03 0.  1.
<mgrwt>
<rscale>  2 0.17506108E+03</rscale>
<asrwt>0</asrwt>
<pdfrwt beam="1">  1       21 0.44266198E+00 0.17506108E+03</pdfrwt>
<pdfrwt beam="2">  1       21 0.24620996E-02 0.17506108E+03</pdfrwt>
<totfact> 0.41859527E+03</totfact>
</mgrwt>
</event>
<event>
 4    1  0.4510095E+000  0.2791704E+03  0.7546771E-02  0.1096143E+00
         21   -1    0    0  501  502  0.00000000000E+00  0.00000000000E+00  0.49189948283E+03  0.49189948283E+03  0.00000000000E+00 0.  1.
         21   -1    0    0  502  503 -0.00000000000E+00 -0.00000000000E+00 -0.35708475769E+03  0.35708475769E+03  0.00000000000E+00 0. -1.
          6    1    1    2  501    0 -0.14446250021E+03  0.16473522248E+03  0.38401655736E+03  0.47476817903E+03  0.17300000000E+03 0.  1.
         -6    1    1    2    0  503  0.14446250021E+03 -0.16473522248E+03 -0.24920183223E+03  0.37421606149E+03  0.17300000000E+03 0. -1.
<mgrwt>
<rscale>  2 0.27917039E+03</rscale>
<asrwt>0</asrwt>
<pdfrwt beam="1">  1       21 0.75676843E-01 0.27917039E+03</pdfrwt>
<pdfrwt beam="2">  1       21 0.54936117E-01 0.27917039E+03</pdfrwt>
<totfact> 0.45980377E+03</totfact>
</mgrwt>
</event>
<event>
 4    1  0.4510095E+000  0.2140735E+03  0.7546771E-02  0.1138380E+00
         21   -1    0    0  503  502  0.00000000000E+00  0.00000000000E+00  0.21345597370E+04  0.21345597370E+04  0.00000000000E+00 0.  1.
         21   -1    0    0  501  503 -0.00000000000E+00 -0.00000000000E+00 -0.35039216709E+02  0.35039216709E+02  0.00000000000E+00 0.  1.
          6    1    1    2  501    0  0.11454461178E+02  0.12556775212E+03  0.37467107494E+03  0.43151579282E+03  0.17300000000E+03 0.  1.
         -6    1    1    2    0  502 -0.11454461178E+02 -0.12556775212E+03  0.17248494453E+04  0.17380831609E+04  0.17300000000E+03 0.  1.
<mgrwt>
<rscale>  2 0.21407350E+03</rscale>
<asrwt>0</asrwt>
<pdfrwt beam="1">  1       21 0.32839370E+00 0.21407350E+03</pdfrwt>
<pdfrwt beam="2">  1       21 0.53906504E-02 0.21407350E+03</pdfrwt>
<totfact> 0.54028893E+03</totfact>
</mgrwt>
</event>
<event>
 4    1  0.4510095E+000  0.2257154E+03  0.7546771E-02  0.1129692E+00
         21   -1    0    0  503  502  0.00000000000E+00  0.00000000000E+00  0.10602937511E+03  0.10602937511E+03  0.00000000000E+00 0. -1.
         21   -1    0    0  501  503 -0.00000000000E+00 -0.00000000000E+00 -0.50623287779E+03  0.50623287779E+03  0.00000000000E+00 0. -1.
          6    1    1    2  501    0  0.28805248839E+02 -0.14208698755E+03 -0.13108580279E+03  0.26101904545E+03  0.17300000000E+03 0. -1.
         -6    1    1    2    0  502 -0.28805248839E+02  0.14208698755E+03 -0.26911769989E+03  0.35124320746E+03  0.17300000000E+03 0. -1.
<mgrwt>
<rscale>  2 0.22571543E+03</rscale>
<asrwt>0</asrwt>
<pdfrwt beam="1">  1       21 0.16312211E-01 0.22571543E+03</pdfrwt>
<pdfrwt beam="2">  1       21 0.77881982E-01 0.22571543E+03</pdfrwt>
<totfact> 0.48396443E+04</totfact>
</mgrwt>
</event>
<event>
 4    1  0.4510095E+000  0.1770517E+03  0.7546771E-02  0.1170687E+00
         21   -1    0    0  501  502  0.00000000000E+00  0.00000000000E+00  0.21137813345E+02  0.21137813345E+02  0.00000000000E+00 0. -1.
         21   -1    0    0  502  503 -0.00000000000E+00 -0.00000000000E+00 -0.16627708880E+04  0.16627708880E+04  0.00000000000E+00 0. -1.
          6    1    1    2  501    0  0.27673891430E+02 -0.25543261342E+02 -0.54397178793E+03  0.57205996935E+03  0.17300000000E+03 0. -1.
         -6    1    1    2    0  503 -0.27673891430E+02  0.25543261342E+02 -0.10976612867E+04  0.11118487320E+04  0.17300000000E+03 0. -1.
<mgrwt>
<rscale>  2 0.17705169E+03</rscale>
<asrwt>0</asrwt>
<pdfrwt beam="1">  1       21 0.32519710E-02 0.17705169E+03</pdfrwt>
<pdfrwt beam="2">  1       21 0.25581093E+00 0.17705169E+03</pdfrwt>
<totfact> 0.34483271E+04</totfact>
</mgrwt>
</event>
<event>
 4    1  0.4510095E+000  0.2304202E+03  0.7546771E-02  0.1126344E+00
         21   -1    0    0  501  502  0.00000000000E+00  0.00000000000E+00  0.21164448482E+03  0.21164448482E+03  0.00000000000E+00 0. -1.
         21   -1    0    0  502  503 -0.00000000000E+00 -0.00000000000E+00 -0.30816005724E+03  0.30816005724E+03  0.00000000000E+00 0.  1.
          6    1    1    2  501    0 -0.14520040007E+03 -0.45621414379E+02  0.63813265014E+02  0.23909329230E+03  0.17300000000E+03 0. -1.
         -6    1    1    2    0  503  0.14520040007E+03  0.45621414379E+02 -0.16032883743E+03  0.28071124976E+03  0.17300000000E+03 0.  1.
<mgrwt>
<rscale>  2 0.23042020E+03</rscale>
<asrwt>0</asrwt>
<pdfrwt beam="1">  1       21 0.32560690E-01 0.23042020E+03</pdfrwt>
<pdfrwt beam="2">  1       21 0.47409239E-01 0.23042020E+03</pdfrwt>
<totfact> 0.37912583E+04</totfact>
</mgrwt>
</event>
<event>
 4    1  0.4510095E+000  0.2027472E+03  0.7546771E-02  0.1147442E+00
         21   -1    0    0  501  502  0.00000000000E+00  0.00000000000E+00  0.11613860228E+04  0.11613860228E+04  0.00000000000E+00 0.  1.
         21   -1    0    0  502  503 -0.00000000000E+00 -0.00000000000E+00 -0.36391305703E+02  0.36391305703E+02  0.00000000000E+00 0. -1.
          6    1    1    2  501    0 -0.34526823325E+02 -0.99926505666E+02  0.46336782121E+03  0.50578270611E+03  0.17300000000E+03 0. -1.
         -6    1    1    2    0  503  0.34526823325E+02  0.99926505666E+02  0.66162689586E+03  0.69199462237E+03  0.17300000000E+03 0.  1.
<mgrwt>
<rscale>  2 0.20274715E+03</rscale>
<asrwt>0</asrwt>
<pdfrwt beam="1">  1       21 0.17867474E+00 0.20274715E+03</pdfrwt>
<pdfrwt beam="2">  1       21 0.55986633E-02 0.20274715E+03</pdfrwt>
<totfact> 0.40968518E+04</totfact>
</mgrwt>
</event>
<event>
 4    1  0.4510095E+000  0.1799447E+03  0.7546771E-02  0.1167857E+00
         21   -1    0    0  501  502  0.00000000000E+00  0.00000000000E+00  0.11553749465E+03  0.11553749465E+03  0.00000000000E+00 0. -1.
         21   -1    0    0  502  503 -0.00000000000E+00 -0.00000000000E+00 -0.37817678092E+03  0.37817678092E+03  0.00000000000E+00 0. -1.
          6    1    1    2  501    0  0.28455143687E+02  0.40514188011E+02 -0.57064264023E+01  0.18003515750E+03  0.17300000000E+03 0. -1.
         -6    1    1    2    0  503 -0.28455143687E+02 -0.40514188011E+02 -0.25693285988E+03  0.31367911807E+03  0.17300000000E+03 0. -1.
<mgrwt>
<rscale>  2 0.17994470E+03</rscale>
<asrwt>0</asrwt>
<pdfrwt beam="1">  1       21 0.17774999E-01 0.17994470E+03</pdfrwt>
<pdfrwt beam="2">  1       21 0.58181043E-01 0.17994470E+03</pdfrwt>
<totfact> 0.79952552E+04</totfact>
</mgrwt>
</event>
<event>
 4    1  0.4510095E+000  0.3161347E+03  0.7546771E-02  0.1077442E+00
         21   -1    0    0  501  502  0.00000000000E+00  0.00000000000E+00  0.21493512409E+03  0.21493512409E+03  0.00000000000E+00 0.  1.
         21   -1    0    0  502  503 -0.00000000000E+00 -0.00000000000E+00 -0.49755326439E+03  0.49755326439E+03  0.00000000000E+00 0. -1.
          6    1    1    2  501    0  0.21788929351E+03 -0.15012131025E+03 -0.50162678916E+02  0.32008974737E+03  0.17300000000E+03 0.  1.
         -6    1    1    2    0  503 -0.21788929351E+03  0.15012131025E+03 -0.23245546138E+03  0.39239864111E+03  0.17300000000E+03 0.  1.
<mgrwt>
<rscale>  2 0.31613471E+03</rscale>
<asrwt>0</asrwt>
<pdfrwt beam="1">  1       21 0.33066942E-01 0.31613471E+03</pdfrwt>
<pdfrwt beam="2">  1       21 0.76546656E-01 0.31613471E+03</pdfrwt>
<totfact> 0.12531537E+04</totfact>
</mgrwt>
</event>
<event>
 4    1  0.4510095E+000  0.1736655E+03  0.7546771E-02  0.1174078E+00
         21   -1    0    0  503  502  0.00000000000E+00  0.00000000000E+00  0.51870043972E+03  0.51870043972E+03  0.00000000000E+00 0. -1.
         21   -1    0    0  501  503 -0.00000000000E+00 -0.00000000000E+00 -0.15424924875E+03  0.15424924875E+03  0.00000000000E+00 0. -1.
          6    1    1    2  501    0  0.14689221297E+02 -0.38651169170E+01 -0.83365132498E+02  0.19263815216E+03  0.17300000000E+03 0. -1.
         -6    1    1    2    0  502 -0.14689221297E+02  0.38651169170E+01  0.44781632346E+03  0.48031153631E+03  0.17300000000E+03 0. -1.
<mgrwt>
<rscale>  2 0.17366552E+03</rscale>
<asrwt>0</asrwt>
<pdfrwt beam="1">  1       21 0.79800067E-01 0.17366552E+03</pdfrwt>
<pdfrwt beam="2">  1       21 0.23730654E-01 0.17366552E+03</pdfrwt>
<totfact> 0.23397410E+04</totfact>
</mgrwt>
</event>
<event>
 4    1  0.4510095E+000  0.3205305E+03  0.7546771E-02  0.1075405E+00
         21   -1    0    0  503  502  0.00000000000E+00  0.00000000000E+00  0.33226211602E+03  0.33226211602E+03  0.00000000000E+00 0. -1.
         21   -1    0    0  501  503 -0.00000000000E+00 -0.00000000000E+00 -0.30921319230E+03  0.30921319230E+03  0.00000000000E+00 0.  1.
          6    1    1    2  501    0 -0.14279254751E+03 -0.22895655813E+03  0.11412853684E+02  0.32073364396E+03  0.17300000000E+03 0. -1.
         -6    1    1    2    0  502  0.14279254751E+03  0.22895655813E+03  0.11636070038E+02  0.32074166437E+03  0.17300000000E+03 0.  1.
<mgrwt>
<rscale>  2 0.32053052E+03</rscale>
<asrwt>0</asrwt>
<pdfrwt beam="1">  1       21 0.51117249E-01 0.32053052E+03</pdfrwt>
<pdfrwt beam="2">  1       21 0.47571260E-01 0.32053052E+03</pdfrwt>
<totfact> 0.14412719E+04</totfact>
</mgrwt>
</event>
<event>
 4    1  0.4510095E+000  0.1936809E+03  0.7546771E-02  0.1155183E+00
         21   -1    0    0  503  502  0.00000000000E+00  0.00000000000E+00  0.17048489152E+03  0.17048489152E+03  0.00000000000E+00 0.  1.
         21   -1    0    0  501  503 -0.00000000000E+00 -0.00000000000E+00 -0.37085883911E+03  0.37085883911E+03  0.00000000000E+00 0. -1.
          6    1    1    2  501    0 -0.64842372475E+01 -0.86840426596E+02 -0.27280122526E+03  0.33456361656E+03  0.17300000000E+03 0. -1.
         -6    1    1    2    0  502  0.64842372475E+01  0.86840426596E+02  0.72427277670E+02  0.20678011407E+03  0.17300000000E+03 0.  1.
<mgrwt>
<rscale>  2 0.19368094E+03</rscale>
<asrwt>0</asrwt>
<pdfrwt beam="1">  1       21 0.26228445E-01 0.19368094E+03</pdfrwt>
<pdfrwt beam="2">  1       21 0.57055205E-01 0.19368094E+03</pdfrwt>
<totfact> 0.39854907E+04</totfact>
</mgrwt>
</event>
<event>
 4    1  0.4510095E+000  0.1922299E+03  0.7546771E-02  0.1156465E+00
         21   -1    0    0  503  502  0.00000000000E+00  0.00000000000E+00  0.27714017367E+03  0.27714017367E+03  0.00000000000E+00 0.  1.
         21   -1    0    0  501  503 -0.00000000000E+00 -0.00000000000E+00 -0.20884405168E+03  0.20884405168E+03  0.00000000000E+00 0.  1.
          6    1    1    2  501    0  0.67874297925E+02 -0.49156972590E+02 -0.11196271819E+03  0.22245893674E+03  0.17300000000E+03 0.  1.
         -6    1    1    2    0  502 -0.67874297925E+02  0.49156972590E+02  0.18025884018E+03  0.26352528861E+03  0.17300000000E+03 0.  1.
<mgrwt>
<rscale>  2 0.19222988E+03</rscale>
<asrwt>0</asrwt>
<pdfrwt beam="1">  1       21 0.42636950E-01 0.19222988E+03</pdfrwt>
<pdfrwt beam="2">  1       21 0.32129854E-01 0.19222988E+03</pdfrwt>
<totfact> 0.49318611E+04</totfact>
</mgrwt>
</event>
<event>
 4    1  0.4510095E+000  0.2016039E+03  0.7546771E-02  0.1148393E+00
         21   -1    0    0  501  502  0.00000000000E+00  0.00000000000E+00  0.26650700787E+03  0.26650700787E+03  0.00000000000E+00 0. -1.
         21   -1    0    0  502  503 -0.00000000000E+00 -0.00000000000E+00 -0.38705147128E+03  0.38705147128E+03  0.00000000000E+00 0. -1.
          6    1    1    2  501    0 -0.63141414080E+02 -0.82026163055E+02  0.19410772345E+03  0.27986056868E+03  0.17300000000E+03 0. -1.
         -6    1    1    2    0  503  0.63141414080E+02  0.82026163055E+02 -0.31465218686E+03  0.37369791048E+03  0.17300000000E+03 0. -1.
<mgrwt>
<rscale>  2 0.20160389E+03</rscale>
<asrwt>0</asrwt>
<pdfrwt beam="1">  1       21 0.41001078E-01 0.20160389E+03</pdfrwt>
<pdfrwt beam="2">  1       21 0.59546380E-01 0.20160389E+03</pdfrwt>
<totfact> 0.15004194E+04</totfact>
</mgrwt>
</event>
<event>
 4    1  0.4510095E+000  0.2178270E+03  0.7546771E-02  0.1135514E+00
         21   -1    0    0  503  502  0.00000000000E+00  0.00000000000E+00  0.95870034243E+02  0.95870034243E+02  0.00000000000E+00 0. -1.
         21   -1    0    0  501  503 -0.00000000000E+00 -0.00000000000E+00 -0.60555526667E+03  0.60555526667E+03  0.00000000000E+00 0. -1.
          6    1    1    2  501    0 -0.72797154308E+01  0.13216122780E+03 -0.40474526724E+03  0.45963824443E+03  0.17300000000E+03 0. -1.
         -6    1    1    2    0  502  0.72797154308E+01 -0.13216122780E+03 -0.10493996518E+03  0.24178705648E+03  0.17300000000E+03 0. -1.
<mgrwt>
<rscale>  2 0.21782696E+03</rscale>
<asrwt>0</asrwt>
<pdfrwt beam="1">  1       21 0.14749236E-01 0.21782696E+03</pdfrwt>
<pdfrwt beam="2">  1       21 0.93162347E-01 0.21782696E+03</pdfrwt>
<totfact> 0.38706025E+04</totfact>
</mgrwt>
</event>
<event>
 4    1  0.4510095E+000  0.2006676E+03  0.7546771E-02  0.1149177E+00
         21   -1    0    0  503  502  0.00000000000E+00  0.00000000000E+00  0.31767325819E+03  0.31767325819E+03  0.00000000000E+00 0. -1.
         21   -1    0    0  501  503 -0.00000000000E+00 -0.00000000000E+00 -0.29724773127E+03  0.29724773127E+03  0.00000000000E+00 0. -1.
          6    1    1    2  501    0 -0.10046422894E+03  0.15666369943E+02 -0.22263908152E+03  0.29972596995E+03  0.17300000000E+03 0. -1.
         -6    1    1    2    0  502  0.10046422894E+03 -0.15666369943E+02  0.24306460844E+03  0.31519501950E+03  0.17300000000E+03 0. -1.
<mgrwt>
<rscale>  2 0.20066763E+03</rscale>
<asrwt>0</asrwt>
<pdfrwt beam="1">  1       21 0.48872809E-01 0.20066763E+03</pdfrwt>
<pdfrwt beam="2">  1       21 0.45730420E-01 0.20066763E+03</pdfrwt>
<totfact> 0.18227552E+04</totfact>
</mgrwt>
</event>
<event>
 4    1  0.4510095E+000  0.1766963E+03  0.7546771E-02  0.1171039E+00
         21   -1    0    0  501  502  0.00000000000E+00  0.00000000000E+00  0.47084457690E+02  0.47084457690E+02  0.00000000000E+00 0. -1.
         21   -1    0    0  502  503 -0.00000000000E+00 -0.00000000000E+00 -0.69007515263E+03  0.69007515263E+03  0.00000000000E+00 0. -1.
          6    1    1    2  501    0 -0.32241707352E+02  0.15908077660E+02 -0.39437125507E+03  0.43214613437E+03  0.17300000000E+03 0.  1.
         -6    1    1    2    0  503  0.32241707352E+02 -0.15908077660E+02 -0.24861943987E+03  0.30501347595E+03  0.17300000000E+03 0.  1.
<mgrwt>
<rscale>  2 0.17669633E+03</rscale>
<asrwt>0</asrwt>
<pdfrwt beam="1">  1       21 0.72437624E-02 0.17669633E+03</pdfrwt>
<pdfrwt beam="2">  1       21 0.10616541E+00 0.17669633E+03</pdfrwt>
<totfact> 0.10211720E+05</totfact>
</mgrwt>
</event>
<event>
 4    1  0.4510095E+000  0.2012473E+03  0.7546771E-02  0.1148691E+00
         21   -1    0    0  503  502  0.00000000000E+00  0.00000000000E+00  0.72817289275E+02  0.72817289275E+02  0.00000000000E+00 0. -1.
         21   -1    0    0  501  503 -0.00000000000E+00 -0.00000000000E+00 -0.56267636955E+03  0.56267636955E+03  0.00000000000E+00 0. -1.
          6    1    1    2  501    0  0.44522123565E+02  0.92678304660E+02 -0.27903646665E+03  0.34403755225E+03  0.17300000000E+03 0. -1.
         -6    1    1    2    0  502 -0.44522123565E+02 -0.92678304660E+02 -0.21082261363E+03  0.29145610657E+03  0.17300000000E+03 0. -1.
<mgrwt>
<rscale>  2 0.20124733E+03</rscale>
<asrwt>0</asrwt>
<pdfrwt beam="1">  1       21 0.11202660E-01 0.20124733E+03</pdfrwt>
<pdfrwt beam="2">  1       21 0.86565592E-01 0.20124733E+03</pdfrwt>
<totfact> 0.75941486E+04</totfact>
</mgrwt>
</event>
<event>
 4    1  0.4510095E+000  0.1767885E+03  0.7546771E-02  0.1170948E+00
         21   -1    0    0  503  502  0.00000000000E+00  0.00000000000E+00  0.35630138909E+02  0.35630138909E+02  0.00000000000E+00 0. -1.
         21   -1    0    0  501  503 -0.00000000000E+00 -0.00000000000E+00 -0.17716961849E+04  0.17716961849E+04  0.00000000000E+00 0. -1.
          6    1    1    2  501    0 -0.16747295194E+01  0.36364419161E+02 -0.15101367137E+04  0.15204496275E+04  0.17300000000E+03 0. -1.
         -6    1    1    2    0  502  0.16747295194E+01 -0.36364419161E+02 -0.22592933233E+03  0.28687669634E+03  0.17300000000E+03 0. -1.
<mgrwt>
<rscale>  2 0.17678851E+03</rscale>
<asrwt>0</asrwt>
<pdfrwt beam="1">  1       21 0.54815617E-02 0.17678851E+03</pdfrwt>
<pdfrwt beam="2">  1       21 0.27256855E+00 0.17678851E+03</pdfrwt>
<totfact> 0.11488281E+04</totfact>
</mgrwt>
</event>
<event>
 4    1  0.4510095E+000  0.2443935E+03  0.7546771E-02  0.1116900E+00
         21   -1    0    0  501  502  0.00000000000E+00  0.00000000000E+00  0.54215584770E+03  0.54215584770E+03  0.00000000000E+00 0.  1.
         21   -1    0    0  502  503 -0.00000000000E+00 -0.00000000000E+00 -0.34360663737E+03  0.34360663737E+03  0.00000000000E+00 0.  1.
          6    1    1    2  501    0  0.59058657508E+02 -0.16220747177E+03  0.46431669919E+03  0.52470771490E+03  0.17300000000E+03 0.  1.
         -6    1    1    2    0  503 -0.59058657508E+02  0.16220747177E+03 -0.26576748886E+03  0.36105477017E+03  0.17300000000E+03 0.  1.
<mgrwt>
<rscale>  2 0.24439351E+03</rscale>
<asrwt>0</asrwt>
<pdfrwt beam="1">  1       21 0.83408592E-01 0.24439351E+03</pdfrwt>
<pdfrwt beam="2">  1       21 0.52862560E-01 0.24439351E+03</pdfrwt>
<totfact> 0.40837762E+03</totfact>
</mgrwt>
</event>
<event>
 4    1  0.4510095E+000  0.1950833E+03  0.7546771E-02  0.1153955E+00
         21   -1    0    0  501  502  0.00000000000E+00  0.00000000000E+00  0.64203155937E+03  0.64203155937E+03  0.00000000000E+00 0. -1.
         21   -1    0    0  502  503 -0.00000000000E+00 -0.00000000000E+00 -0.61434821026E+02  0.61434821026E+02  0.00000000000E+00 0. -1.
          6    1    1    2  501    0 -0.24956852371E+02  0.86635164255E+02  0.35622280975E+03  0.40614306144E+03  0.17300000000E+03 0. -1.
         -6    1    1    2    0  503  0.24956852371E+02 -0.86635164255E+02  0.22437392860E+03  0.29732331896E+03  0.17300000000E+03 0. -1.
<mgrwt>
<rscale>  2 0.19508331E+03</rscale>
<asrwt>0</asrwt>
<pdfrwt beam="1">  1       21 0.98774081E-01 0.19508331E+03</pdfrwt>
<pdfrwt beam="2">  1       21 0.94515114E-02 0.19508331E+03</pdfrwt>
<totfact> 0.75680176E+04</totfact>
</mgrwt>
</event>
<event>
 4    1  0.4510095E+000  0.2071407E+03  0.7546771E-02  0.1143850E+00
         21   -1    0    0  503  502  0.00000000000E+00  0.00000000000E+00  0.79732877076E+02  0.79732877076E+02  0.00000000000E+00 0.  1.
         21   -1    0    0  501  503 -0.00000000000E+00 -0.00000000000E+00 -0.62625928870E+03  0.62625928870E+03  0.00000000000E+00 0.  1.
          6    1    1    2  501    0 -0.74792732765E+01 -0.11367640679E+03 -0.40567724079E+03  0.45550114016E+03  0.17300000000E+03 0.  1.
         -6    1    1    2    0  502  0.74792732765E+01  0.11367640679E+03 -0.14084917083E+03  0.25049102562E+03  0.17300000000E+03 0.  1.
<mgrwt>
<rscale>  2 0.20714069E+03</rscale>
<asrwt>0</asrwt>
<pdfrwt beam="1">  1       21 0.12266596E-01 0.20714069E+03</pdfrwt>
<pdfrwt beam="2">  1       21 0.96347585E-01 0.20714069E+03</pdfrwt>
<totfact> 0.50194600E+04</totfact>
</mgrwt>
</event>
<event>
 4    1  0.4510095E+000  0.1756609E+03  0.7546771E-02  0.1172070E+00
         21   -1    0    0  501  502  0.00000000000E+00  0.00000000000E+00  0.62226220106E+02  0.62226220106E+02  0.00000000000E+00 0. -1.
         21   -1    0    0  502  503 -0.00000000000E+00 -0.00000000000E+00 -0.49593434125E+03  0.49593434125E+03  0.00000000000E+00 0. -1.
          6    1    1    2  501    0 -0.29761863756E+02  0.64796949628E+01 -0.21394005515E+03  0.27681600781E+03  0.17300000000E+03 0. -1.
         -6    1    1    2    0  503  0.29761863756E+02 -0.64796949628E+01 -0.21976806599E+03  0.28134455355E+03  0.17300000000E+03 0. -1.
<mgrwt>
<rscale>  2 0.17566091E+03</rscale>
<asrwt>0</asrwt>
<pdfrwt beam="1">  1       21 0.95732649E-02 0.17566091E+03</pdfrwt>
<pdfrwt beam="2">  1       21 0.76297589E-01 0.17566091E+03</pdfrwt>
<totfact> 0.13490201E+05</totfact>
</mgrwt>
</event>
<event>
 4    1  0.4510095E+000  0.1883946E+03  0.7546771E-02  0.1159917E+00
         21   -1    0    0  503  502  0.00000000000E+00  0.00000000000E+00  0.94359879408E+03  0.94359879408E+03  0.00000000000E+00 0.  1.
         21   -1    0    0  501  503 -0.00000000000E+00 -0.00000000000E+00 -0.56087890261E+02  0.56087890261E+02  0.00000000000E+00 0.  1.
          6    1    1    2  501    0 -0.65418394465E+02  0.35832401188E+02  0.15688982623E+03  0.24516717742E+03  0.17300000000E+03 0.  1.
         -6    1    1    2    0  502  0.65418394465E+02 -0.35832401188E+02  0.73062107759E+03  0.75451950692E+03  0.17300000000E+03 0.  1.
<mgrwt>
<rscale>  2 0.18839461E+03</rscale>
<asrwt>0</asrwt>
<pdfrwt beam="1">  1       21 0.14516903E+00 0.18839461E+03</pdfrwt>
<pdfrwt beam="2">  1       21 0.86289069E-02 0.18839461E+03</pdfrwt>
<totfact> 0.34334801E+04</totfact>
</mgrwt>
</event>
<event>
 4    1  0.4510095E+000  0.2054917E+03  0.7546771E-02  0.1145187E+00
         21   -1    0    0  503  502  0.00000000000E+00  0.00000000000E+00  0.24417425979E+03  0.24417425979E+03  0.00000000000E+00 0.  1.
         21   -1    0    0  501  503 -0.00000000000E+00 -0.00000000000E+00 -0.40319315258E+03  0.40319315258E+03  0.00000000000E+00 0.  1.
          6    1    1    2  501    0  0.68832487723E+02  0.86947872022E+02 -0.32411683861E+03  0.38376890037E+03  0.17300000000E+03 0.  1.
         -6    1    1    2    0  502 -0.68832487723E+02 -0.86947872022E+02  0.16509794582E+03  0.26359851200E+03  0.17300000000E+03 0.  1.
<mgrwt>
<rscale>  2 0.20549171E+03</rscale>
<asrwt>0</asrwt>
<pdfrwt beam="1">  1       21 0.37565271E-01 0.20549171E+03</pdfrwt>
<pdfrwt beam="2">  1       21 0.62029715E-01 0.20549171E+03</pdfrwt>
<totfact> 0.16353177E+04</totfact>
</mgrwt>
</event>
<event>
 4    1  0.4510095E+000  0.2598791E+03  0.7546771E-02  0.1107216E+00
         21   -1    0    0  501  502  0.00000000000E+00  0.00000000000E+00  0.62403617956E+02  0.62403617956E+02  0.00000000000E+00 0.  1.
         21   -1    0    0  502  503 -0.00000000000E+00 -0.00000000000E+00 -0.12433523851E+04  0.12433523851E+04  0.00000000000E+00 0. -1.
          6    1    1    2  501    0 -0.19356836814E+03  0.11809016559E+02 -0.35547456125E+03  0.44034001603E+03  0.17300000000E+03 0.  1.
         -6    1    1    2    0  503  0.19356836814E+03 -0.11809016559E+02 -0.82547420592E+03  0.86541598705E+03  0.17300000000E+03 0. -1.
<mgrwt>
<rscale>  2 0.25987914E+03</rscale>
<asrwt>0</asrwt>
<pdfrwt beam="1">  1       21 0.96005567E-02 0.25987914E+03</pdfrwt>
<pdfrwt beam="2">  1       21 0.19128498E+00 0.25987914E+03</pdfrwt>
<totfact> 0.12722979E+04</totfact>
</mgrwt>
</event>
<event>
 4    1  0.4510095E+000  0.2205516E+03  0.7546771E-02  0.1133472E+00
         21   -1    0    0  503  502  0.00000000000E+00  0.00000000000E+00  0.30074386864E+02  0.30074386864E+02  0.00000000000E+00 0.  1.
         21   -1    0    0  501  503 -0.00000000000E+00 -0.00000000000E+00 -0.16213508142E+04  0.16213508142E+04  0.00000000000E+00 0. -1.
          6    1    1    2  501    0  0.37380539445E+02 -0.13159299635E+03 -0.75499989379E+03  0.78655442345E+03  0.17300000000E+03 0. -1.
         -6    1    1    2    0  502 -0.37380539445E+02  0.13159299635E+03 -0.83627653356E+03  0.86487077763E+03  0.17300000000E+03 0.  1.
<mgrwt>
<rscale>  2 0.22055163E+03</rscale>
<asrwt>0</asrwt>
<pdfrwt beam="1">  1       21 0.46268284E-02 0.22055163E+03</pdfrwt>
<pdfrwt beam="2">  1       21 0.24943860E+00 0.22055163E+03</pdfrwt>
<totfact> 0.20077749E+04</totfact>
</mgrwt>
</event>
<event>
 4    1  0.4510095E+000  0.1751165E+03  0.7546771E-02  0.1172615E+00
         21   -1    0    0  503  502  0.00000000000E+00  0.00000000000E+00  0.49501799279E+02  0.49501799279E+02  0.00000000000E+00 0. -1.
         21   -1    0    0  501  503 -0.00000000000E+00 -0.00000000000E+00 -0.85579519714E+03  0.85579519714E+03  0.00000000000E+00 0. -1.
          6    1    1    2  501    0  0.15915115292E+02  0.21988445832E+02 -0.64100286420E+03  0.66449262943E+03  0.17300000000E+03 0. -1.
         -6    1    1    2    0  502 -0.15915115292E+02 -0.21988445832E+02 -0.16529053365E+03  0.24080436699E+03  0.17300000000E+03 0. -1.
<mgrwt>
<rscale>  2 0.17511648E+03</rscale>
<asrwt>0</asrwt>
<pdfrwt beam="1">  1       21 0.76156610E-02 0.17511648E+03</pdfrwt>
<pdfrwt beam="2">  1       21 0.13166081E+00 0.17511648E+03</pdfrwt>
<totfact> 0.55230726E+04</totfact>
</mgrwt>
</event>
<event>
 4    1  0.4510095E+000  0.1917599E+03  0.7546771E-02  0.1156884E+00
         21   -1    0    0  501  502  0.00000000000E+00  0.00000000000E+00  0.10274548480E+03  0.10274548480E+03  0.00000000000E+00 0. -1.
         21   -1    0    0  502  503 -0.00000000000E+00 -0.00000000000E+00 -0.43807069283E+03  0.43807069283E+03  0.00000000000E+00 0. -1.
          6    1    1    2  501    0  0.79171133029E+02  0.23974457774E+02 -0.51977992734E+02  0.19867952753E+03  0.17300000000E+03 0. -1.
         -6    1    1    2    0  503 -0.79171133029E+02 -0.23974457774E+02 -0.28334721529E+03  0.34213665011E+03  0.17300000000E+03 0. -1.
<mgrwt>
<rscale>  2 0.19175986E+03</rscale>
<asrwt>0</asrwt>
<pdfrwt beam="1">  1       21 0.15806998E-01 0.19175986E+03</pdfrwt>
<pdfrwt beam="2">  1       21 0.67395492E-01 0.19175986E+03</pdfrwt>
<totfact> 0.71828808E+04</totfact>
</mgrwt>
</event>
<event>
 4    1  0.4510095E+000  0.3545519E+03  0.7546771E-02  0.1060762E+00
         21   -1    0    0  501  502  0.00000000000E+00  0.00000000000E+00  0.26474188871E+03  0.26474188871E+03  0.00000000000E+00 0.  1.
         21   -1    0    0  502  503 -0.00000000000E+00 -0.00000000000E+00 -0.98106836846E+03  0.98106836846E+03  0.00000000000E+00 0.  1.
          6    1    1    2  501    0 -0.28423922610E+03  0.12241788690E+03  0.89292731362E+02  0.36562312367E+03  0.17300000000E+03 0.  1.
         -6    1    1    2    0  503  0.28423922610E+03 -0.12241788690E+03 -0.80561921111E+03  0.88018713351E+03  0.17300000000E+03 0.  1.
<mgrwt>
<rscale>  2 0.35455194E+03</rscale>
<asrwt>0</asrwt>
<pdfrwt beam="1">  1       21 0.40729522E-01 0.35455194E+03</pdfrwt>
<pdfrwt beam="2">  1       21 0.15093359E+00 0.35455194E+03</pdfrwt>
<totfact> 0.15189057E+03</totfact>
</mgrwt>
</event>
<event>
 4    1  0.4510095E+000  0.2380785E+03  0.7546771E-02  0.1121080E+00
         21   -1    0    0  501  502  0.00000000000E+00  0.00000000000E+00  0.16919663760E+04  0.16919663760E+04  0.00000000000E+00 0.  1.
         21   -1    0    0  502  503 -0.00000000000E+00 -0.00000000000E+00 -0.63456772093E+02  0.63456772093E+02  0.00000000000E+00 0. -1.
          6    1    1    2  501    0  0.14614986318E+03  0.73434217568E+02  0.14173116195E+04  0.14371686030E+04  0.17300000000E+03 0.  1.
         -6    1    1    2    0  503 -0.14614986318E+03 -0.73434217568E+02  0.21119798437E+03  0.31825454501E+03  0.17300000000E+03 0. -1.
<mgrwt>
<rscale>  2 0.23807849E+03</rscale>
<asrwt>0</asrwt>
<pdfrwt beam="1">  1       21 0.26030249E+00 0.23807849E+03</pdfrwt>
<pdfrwt beam="2">  1       21 0.97625816E-02 0.23807849E+03</pdfrwt>
<totfact> 0.46867308E+03</totfact>
</mgrwt>
</event>
<event>
 4    1  0.4510095E+000  0.1811610E+03  0.7546771E-02  0.1166684E+00
         21   -1    0    0  503  502  0.00000000000E+00  0.00000000000E+00  0.18678282238E+03  0.18678282238E+03  0.00000000000E+00 0.  1.
         21   -1    0    0  501  503 -0.00000000000E+00 -0.00000000000E+00 -0.19439259568E+03  0.19439259568E+03  0.00000000000E+00 0. -1.
          6    1    1    2  501    0 -0.50586059978E+02 -0.18203411398E+02 -0.62891903020E+02  0.19176732025E+03  0.17300000000E+03 0. -1.
         -6    1    1    2    0  502  0.50586059978E+02  0.18203411398E+02  0.55282129716E+02  0.18940809781E+03  0.17300000000E+03 0. -1.
<mgrwt>
<rscale>  2 0.18116102E+03</rscale>
<asrwt>0</asrwt>
<pdfrwt beam="1">  1       21 0.28735819E-01 0.18116102E+03</pdfrwt>
<pdfrwt beam="2">  1       21 0.29906553E-01 0.18116102E+03</pdfrwt>
<totfact> 0.12471481E+05</totfact>
</mgrwt>
</event>
<event>
 4    1  0.4510095E+000  0.1871700E+03  0.7546771E-02  0.1161039E+00
         21   -1    0    0  503  502  0.00000000000E+00  0.00000000000E+00  0.21907196127E+03  0.21907196127E+03  0.00000000000E+00 0. -1.
         21   -1    0    0  501  503 -0.00000000000E+00 -0.00000000000E+00 -0.16247395351E+03  0.16247395351E+03  0.00000000000E+00 0. -1.
          6    1    1    2  501    0 -0.41201722457E+02  0.58361228447E+02  0.52246698020E+02  0.19432532612E+03  0.17300000000E+03 0. -1.
         -6    1    1    2    0  502  0.41201722457E+02 -0.58361228447E+02  0.43513097417E+01  0.18722058865E+03  0.17300000000E+03 0. -1.
<mgrwt>
<rscale>  2 0.18717002E+03</rscale>
<asrwt>0</asrwt>
<pdfrwt beam="1">  1       21 0.33703379E-01 0.18717002E+03</pdfrwt>
<pdfrwt beam="2">  1       21 0.24995993E-01 0.18717002E+03</pdfrwt>
<totfact> 0.12872801E+05</totfact>
</mgrwt>
</event>
<event>
 4    1  0.4510095E+000  0.2150635E+03  0.7546771E-02  0.1137618E+00
         21   -1    0    0  503  502  0.00000000000E+00  0.00000000000E+00  0.14615556057E+04  0.14615556057E+04  0.00000000000E+00 0. -1.
         21   -1    0    0  501  503 -0.00000000000E+00 -0.00000000000E+00 -0.31769948177E+02  0.31769948177E+02  0.00000000000E+00 0.  1.
          6    1    1    2  501    0 -0.62215424936E+02 -0.11159099469E+03  0.76154067496E+03  0.79132579183E+03  0.17300000000E+03 0. -1.
         -6    1    1    2    0  502  0.62215424936E+02  0.11159099469E+03  0.66824498259E+03  0.70199976208E+03  0.17300000000E+03 0.  1.
<mgrwt>
<rscale>  2 0.21506350E+03</rscale>
<asrwt>0</asrwt>
<pdfrwt beam="1">  1       21 0.22485466E+00 0.21506350E+03</pdfrwt>
<pdfrwt beam="2">  1       21 0.48876855E-02 0.21506350E+03</pdfrwt>
<totfact> 0.25821113E+04</totfact>
</mgrwt>
</event>
<event>
 4    1  0.4510095E+000  0.2023173E+03  0.7546771E-02  0.1147798E+00
         21   -1    0    0  501  502  0.00000000000E+00  0.00000000000E+00  0.32086635212E+03  0.32086635212E+03  0.00000000000E+00 0. -1.
         21   -1    0    0  502  503 -0.00000000000E+00 -0.00000000000E+00 -0.22351915508E+03  0.22351915508E+03  0.00000000000E+00 0. -1.
          6    1    1    2  501    0  0.10095020817E+02  0.10440974162E+03  0.22701168988E+03  0.30408323027E+03  0.17300000000E+03 0. -1.
         -6    1    1    2    0  503 -0.10095020817E+02 -0.10440974162E+03 -0.12966449284E+03  0.24030227692E+03  0.17300000000E+03 0. -1.
<mgrwt>
<rscale>  2 0.20231733E+03</rscale>
<asrwt>0</asrwt>
<pdfrwt beam="1">  1       21 0.49364054E-01 0.20231733E+03</pdfrwt>
<pdfrwt beam="2">  1       21 0.34387562E-01 0.20231733E+03</pdfrwt>
<totfact> 0.31725627E+04</totfact>
</mgrwt>
</event>
<event>
 4    1  0.4510095E+000  0.1888610E+03  0.7546771E-02  0.1159493E+00
         21   -1    0    0  501  502  0.00000000000E+00  0.00000000000E+00  0.17023877221E+03  0.17023877221E+03  0.00000000000E+00 0.  1.
         21   -1    0    0  502  503 -0.00000000000E+00 -0.00000000000E+00 -0.21051939631E+03  0.21051939631E+03  0.00000000000E+00 0.  1.
          6    1    1    2  501    0 -0.11222975710E+02 -0.74923530240E+02 -0.33255110057E+02  0.19176650623E+03  0.17300000000E+03 0.  1.
         -6    1    1    2    0  503  0.11222975710E+02  0.74923530240E+02 -0.70255140478E+01  0.18899166229E+03  0.17300000000E+03 0.  1.
<mgrwt>
<rscale>  2 0.18886104E+03</rscale>
<asrwt>0</asrwt>
<pdfrwt beam="1">  1       21 0.26190580E-01 0.18886104E+03</pdfrwt>
<pdfrwt beam="2">  1       21 0.32387600E-01 0.18886104E+03</pdfrwt>
<totfact> 0.12726796E+05</totfact>
</mgrwt>
</event>
<event>
 4    1  0.4510095E+000  0.2255069E+03  0.7546771E-02  0.1129843E+00
         21   -1    0    0  501  502  0.00000000000E+00  0.00000000000E+00  0.35475424944E+02  0.35475424944E+02  0.00000000000E+00 0. -1.
         21   -1    0    0  502  503 -0.00000000000E+00 -0.00000000000E+00 -0.24397099897E+04  0.24397099897E+04  0.00000000000E+00 0.  1.
          6    1    1    2  501    0 -0.14012090086E+03 -0.35923630713E+02 -0.40731905305E+03  0.46557726005E+03  0.17300000000E+03 0. -1.
         -6    1    1    2    0  503  0.14012090086E+03  0.35923630713E+02 -0.19969155117E+04  0.20096081546E+04  0.17300000000E+03 0.  1.
<mgrwt>
<rscale>  2 0.22550693E+03</rscale>
<asrwt>0</asrwt>
<pdfrwt beam="1">  1       21 0.54577581E-02 0.22550693E+03</pdfrwt>
<pdfrwt beam="2">  1       21 0.37533997E+00 0.22550693E+03</pdfrwt>
<totfact> 0.27415817E+03</totfact>
</mgrwt>
</event>
<event>
 4    1  0.4510095E+000  0.1817495E+03  0.7546771E-02  0.1166121E+00
         21   -1    0    0  503  502  0.00000000000E+00  0.00000000000E+00  0.21098449468E+04  0.21098449468E+04  0.00000000000E+00 0.  1.
         21   -1    0    0  501  503 -0.00000000000E+00 -0.00000000000E+00 -0.10987981075E+03  0.10987981075E+03  0.00000000000E+00 0.  1.
          6    1    1    2  501    0 -0.22891818357E+02 -0.50792028861E+02 -0.27771663616E+02  0.18385899718E+03  0.17300000000E+03 0.  1.
         -6    1    1    2    0  502  0.22891818357E+02  0.50792028861E+02  0.20277367996E+04  0.20358657603E+04  0.17300000000E+03 0.  1.
<mgrwt>
<rscale>  2 0.18174946E+03</rscale>
<asrwt>0</asrwt>
<pdfrwt beam="1">  1       21 0.32459150E+00 0.18174946E+03</pdfrwt>
<pdfrwt beam="2">  1       21 0.16904588E-01 0.18174946E+03</pdfrwt>
<totfact> 0.78871486E+02</totfact>
</mgrwt>
</event>
<event>
 4    1  0.4510095E+000  0.2168845E+03  0.7546771E-02  0.1136227E+00
         21   -1    0    0  503  502  0.00000000000E+00  0.00000000000E+00  0.23966397827E+03  0.23966397827E+03  0.00000000000E+00 0. -1.
         21   -1    0    0  501  503 -0.00000000000E+00 -0.00000000000E+00 -0.27732706047E+03  0.27732706047E+03  0.00000000000E+00 0. -1.
          6    1    1    2  501    0 -0.12025677371E+03 -0.51460707410E+02 -0.15858153414E+03  0.26867638341E+03  0.17300000000E+03 0. -1.
         -6    1    1    2    0  502  0.12025677371E+03  0.51460707410E+02  0.12091845194E+03  0.24831465533E+03  0.17300000000E+03 0. -1.
<mgrwt>
<rscale>  2 0.21688452E+03</rscale>
<asrwt>0</asrwt>
<pdfrwt beam="1">  1       21 0.36871381E-01 0.21688452E+03</pdfrwt>
<pdfrwt beam="2">  1       21 0.42665701E-01 0.21688452E+03</pdfrwt>
<totfact> 0.37024877E+04</totfact>
</mgrwt>
</event>
<event>
 4    1  0.4510095E+000  0.1782060E+03  0.7546771E-02  0.1169551E+00
         21   -1    0    0  501  502  0.00000000000E+00  0.00000000000E+00  0.24328224567E+02  0.24328224567E+02  0.00000000000E+00 0.  1.
         21   -1    0    0  502  503 -0.00000000000E+00 -0.00000000000E+00 -0.13087170238E+04  0.13087170238E+04  0.00000000000E+00 0.  1.
          6    1    1    2  501    0 -0.42831786714E+01  0.42544450565E+02 -0.60849586516E+03  0.63405409376E+03  0.17300000000E+03 0.  1.
         -6    1    1    2    0  503  0.42831786714E+01 -0.42544450565E+02 -0.67589293407E+03  0.69899115461E+03  0.17300000000E+03 0.  1.
<mgrwt>
<rscale>  2 0.17820599E+03</rscale>
<asrwt>0</asrwt>
<pdfrwt beam="1">  1       21 0.37428020E-02 0.17820599E+03</pdfrwt>
<pdfrwt beam="2">  1       21 0.20134118E+00 0.17820599E+03</pdfrwt>
<totfact> 0.58193766E+04</totfact>
</mgrwt>
</event>
<event>
 4    1  0.4510095E+000  0.2112649E+03  0.7546771E-02  0.1140568E+00
         21   -1    0    0  501  502  0.00000000000E+00  0.00000000000E+00  0.92978098851E+02  0.92978098851E+02  0.00000000000E+00 0. -1.
         21   -1    0    0  502  503 -0.00000000000E+00 -0.00000000000E+00 -0.49235680288E+03  0.49235680288E+03  0.00000000000E+00 0.  1.
          6    1    1    2  501    0 -0.64658750504E+02 -0.10258223993E+03 -0.15339294733E+03  0.26107904216E+03  0.17300000000E+03 0. -1.
         -6    1    1    2    0  503  0.64658750504E+02  0.10258223993E+03 -0.24598575669E+03  0.32425585956E+03  0.17300000000E+03 0.  1.
<mgrwt>
<rscale>  2 0.21126493E+03</rscale>
<asrwt>0</asrwt>
<pdfrwt beam="1">  1       21 0.14304323E-01 0.21126493E+03</pdfrwt>
<pdfrwt beam="2">  1       21 0.75747201E-01 0.21126493E+03</pdfrwt>
<totfact> 0.65936022E+04</totfact>
</mgrwt>
</event>
<event>
 4    1  0.4510095E+000  0.2159170E+03  0.7546771E-02  0.1136964E+00
         21   -1    0    0  501  502  0.00000000000E+00  0.00000000000E+00  0.12258789313E+03  0.12258789313E+03  0.00000000000E+00 0.  1.
         21   -1    0    0  502  503 -0.00000000000E+00 -0.00000000000E+00 -0.56234629736E+03  0.56234629736E+03  0.00000000000E+00 0. -1.
          6    1    1    2  501    0  0.68978772846E+02  0.10923857125E+03 -0.25025690589E+02  0.21736242026E+03  0.17300000000E+03 0.  1.
         -6    1    1    2    0  503 -0.68978772846E+02 -0.10923857125E+03 -0.41473271364E+03  0.46757177023E+03  0.17300000000E+03 0. -1.
<mgrwt>
<rscale>  2 0.21591697E+03</rscale>
<asrwt>0</asrwt>
<pdfrwt beam="1">  1       21 0.18859676E-01 0.21591697E+03</pdfrwt>
<pdfrwt beam="2">  1       21 0.86514814E-01 0.21591697E+03</pdfrwt>
<totfact> 0.29251821E+04</totfact>
</mgrwt>
</event>
<event>
 4    1  0.4510095E+000  0.1785333E+03  0.7546771E-02  0.1169230E+00
         21   -1    0    0  503  502  0.00000000000E+00  0.00000000000E+00  0.34456688288E+03  0.34456688288E+03  0.00000000000E+00 0.  1.
         21   -1    0    0  501  503 -0.00000000000E+00 -0.00000000000E+00 -0.21493704660E+03  0.21493704660E+03  0.00000000000E+00 0.  1.
          6    1    1    2  501    0  0.26342553295E+02 -0.35372638838E+02 -0.14632244400E+03  0.23083416409E+03  0.17300000000E+03 0.  1.
         -6    1    1    2    0  502 -0.26342553295E+02  0.35372638838E+02  0.27595228028E+03  0.32866976540E+03  0.17300000000E+03 0.  1.
<mgrwt>
<rscale>  2 0.17853334E+03</rscale>
<asrwt>0</asrwt>
<pdfrwt beam="1">  1       21 0.53010290E-01 0.17853334E+03</pdfrwt>
<pdfrwt beam="2">  1       21 0.33067238E-01 0.17853334E+03</pdfrwt>
<totfact> 0.29913572E+04</totfact>
</mgrwt>
</event>
<event>
 4    1  0.4510095E+000  0.2133357E+03  0.7546771E-02  0.1138951E+00
         21   -1    0    0  501  502  0.00000000000E+00  0.00000000000E+00  0.41655418011E+03  0.41655418011E+03  0.00000000000E+00 0. -1.
         21   -1    0    0  502  503 -0.00000000000E+00 -0.00000000000E+00 -0.11571592464E+03  0.11571592464E+03  0.00000000000E+00 0. -1.
          6    1    1    2  501    0 -0.10091620496E+03 -0.73478052048E+02  0.21328770021E+03  0.30166827413E+03  0.17300000000E+03 0. -1.
         -6    1    1    2    0  503  0.10091620496E+03  0.73478052048E+02  0.87550555262E+02  0.23060183062E+03  0.17300000000E+03 0. -1.
<mgrwt>
<rscale>  2 0.21333566E+03</rscale>
<asrwt>0</asrwt>
<pdfrwt beam="1">  1       21 0.64085258E-01 0.21333566E+03</pdfrwt>
<pdfrwt beam="2">  1       21 0.17802450E-01 0.21333566E+03</pdfrwt>
<totfact> 0.63800392E+04</totfact>
</mgrwt>
</event>
<event>
 4    1  0.4510095E+000  0.2203548E+03  0.7546771E-02  0.1133619E+00
         21   -1    0    0  501  502  0.00000000000E+00  0.00000000000E+00  0.61615584975E+03  0.61615584975E+03  0.00000000000E+00 0. -1.
         21   -1    0    0  502  503 -0.00000000000E+00 -0.00000000000E+00 -0.85718709739E+02  0.85718709739E+02  0.00000000000E+00 0.  1.
          6    1    1    2  501    0 -0.10043505794E+03 -0.92412394602E+02  0.16555356648E+03  0.27561610061E+03  0.17300000000E+03 0.  1.
         -6    1    1    2    0  503  0.10043505794E+03  0.92412394602E+02  0.36488357353E+03  0.42625845889E+03  0.17300000000E+03 0.  1.
<mgrwt>
<rscale>  2 0.22035483E+03</rscale>
<asrwt>0</asrwt>
<pdfrwt beam="1">  1       21 0.94793205E-01 0.22035483E+03</pdfrwt>
<pdfrwt beam="2">  1       21 0.13187494E-01 0.22035483E+03</pdfrwt>
<totfact> 0.45481870E+04</totfact>
</mgrwt>
</event>
<event>
 4    1  0.4510095E+000  0.1813547E+03  0.7546771E-02  0.1166498E+00
         21   -1    0    0  503  502  0.00000000000E+00  0.00000000000E+00  0.43537832408E+03  0.43537832408E+03  0.00000000000E+00 0.  1.
         21   -1    0    0  501  503 -0.00000000000E+00 -0.00000000000E+00 -0.78260221040E+02  0.78260221040E+02  0.00000000000E+00 0.  1.
          6    1    1    2  501    0 -0.39052554075E+02 -0.37887106931E+02  0.13069985280E+03  0.22354414860E+03  0.17300000000E+03 0. -1.
         -6    1    1    2    0  502  0.39052554075E+02  0.37887106931E+02  0.22641825024E+03  0.29009439652E+03  0.17300000000E+03 0. -1.
<mgrwt>
<rscale>  2 0.18135472E+03</rscale>
<asrwt>0</asrwt>
<pdfrwt beam="1">  1       21 0.66981279E-01 0.18135472E+03</pdfrwt>
<pdfrwt beam="2">  1       21 0.12040034E-01 0.18135472E+03</pdfrwt>
<totfact> 0.11956282E+05</totfact>
</mgrwt>
</event>
<event>
 4    1  0.4510095E+000  0.2077042E+03  0.7546771E-02  0.1143397E+00
         21   -1    0    0  503  502  0.00000000000E+00  0.00000000000E+00  0.24081902559E+03  0.24081902559E+03  0.00000000000E+00 0.  1.
         21   -1    0    0  501  503 -0.00000000000E+00 -0.00000000000E+00 -0.25110450661E+03  0.25110450661E+03  0.00000000000E+00 0.  1.
          6    1    1    2  501    0  0.11357517090E+03  0.17683726359E+02 -0.13681387777E+03  0.24871483827E+03  0.17300000000E+03 0.  1.
         -6    1    1    2    0  502 -0.11357517090E+03 -0.17683726359E+02  0.12652839675E+03  0.24320869394E+03  0.17300000000E+03 0.  1.
<mgrwt>
<rscale>  2 0.20770420E+03</rscale>
<asrwt>0</asrwt>
<pdfrwt beam="1">  1       21 0.37049081E-01 0.20770420E+03</pdfrwt>
<pdfrwt beam="2">  1       21 0.38631463E-01 0.20770420E+03</pdfrwt>
<totfact> 0.45059803E+04</totfact>
</mgrwt>
</event>
<event>
 4    1  0.4510095E+000  0.1824624E+03  0.7546771E-02  0.1165441E+00
         21   -1    0    0  503  502  0.00000000000E+00  0.00000000000E+00  0.67328336989E+03  0.67328336989E+03  0.00000000000E+00 0. -1.
         21   -1    0    0  501  503 -0.00000000000E+00 -0.00000000000E+00 -0.15844748995E+03  0.15844748995E+03  0.00000000000E+00 0.  1.
          6    1    1    2  501    0 -0.56202934116E+02  0.14309594629E+02 -0.87505188794E+02  0.20236030334E+03  0.17300000000E+03 0.  1.
         -6    1    1    2    0  502  0.56202934116E+02 -0.14309594629E+02  0.60234106874E+03  0.62937055650E+03  0.17300000000E+03 0. -1.
<mgrwt>
<rscale>  2 0.18246242E+03</rscale>
<asrwt>0</asrwt>
<pdfrwt beam="1">  1       21 0.10358206E+00 0.18246242E+03</pdfrwt>
<pdfrwt beam="2">  1       21 0.24376537E-01 0.18246242E+03</pdfrwt>
<totfact> 0.12081354E+04</totfact>
</mgrwt>
</event>
<event>
 4    1  0.4510095E+000  0.1751570E+03  0.7546771E-02  0.1172574E+00
         21   -1    0    0  503  502  0.00000000000E+00  0.00000000000E+00  0.50566258553E+02  0.50566258553E+02  0.00000000000E+00 0. -1.
         21   -1    0    0  501  503 -0.00000000000E+00 -0.00000000000E+00 -0.60765403210E+03  0.60765403210E+03  0.00000000000E+00 0. -1.
          6    1    1    2  501    0  0.27091384126E+02 -0.41288488297E+01 -0.26569967362E+03  0.31823938639E+03  0.17300000000E+03 0. -1.
         -6    1    1    2    0  502 -0.27091384126E+02  0.41288488297E+01 -0.29138809993E+03  0.33998090427E+03  0.17300000000E+03 0. -1.
<mgrwt>
<rscale>  2 0.17515705E+03</rscale>
<asrwt>0</asrwt>
<pdfrwt beam="1">  1       21 0.77794245E-02 0.17515705E+03</pdfrwt>
<pdfrwt beam="2">  1       21 0.93485235E-01 0.17515705E+03</pdfrwt>
<totfact> 0.12198617E+05</totfact>
</mgrwt>
</event>
<event>
 4    1  0.4510095E+000  0.2067411E+03  0.7546771E-02  0.1144173E+00
         21   -1    0    0  501  502  0.00000000000E+00  0.00000000000E+00  0.10606614191E+03  0.10606614191E+03  0.00000000000E+00 0.  1.
         21   -1    0    0  502  503 -0.00000000000E+00 -0.00000000000E+00 -0.40881097270E+03  0.40881097270E+03  0.00000000000E+00 0. -1.
          6    1    1    2  501    0 -0.10967047585E+03  0.28022807075E+02 -0.12061085053E+03  0.23935093118E+03  0.17300000000E+03 0.  1.
         -6    1    1    2    0  503  0.10967047585E+03 -0.28022807075E+02 -0.18213398026E+03  0.27552618343E+03  0.17300000000E+03 0.  1.
<mgrwt>
<rscale>  2 0.20674112E+03</rscale>
<asrwt>0</asrwt>
<pdfrwt beam="1">  1       21 0.16317868E-01 0.20674112E+03</pdfrwt>
<pdfrwt beam="2">  1       21 0.62893996E-01 0.20674112E+03</pdfrwt>
<totfact> 0.78253270E+04</totfact>
</mgrwt>
</event>
<event>
 4    1  0.4510095E+000  0.1772674E+03  0.7546771E-02  0.1170474E+00
         21   -1    0    0  503  502  0.00000000000E+00  0.00000000000E+00  0.14044371865E+03  0.14044371865E+03  0.00000000000E+00 0. -1.
         21   -1    0    0  501  503 -0.00000000000E+00 -0.00000000000E+00 -0.13206947124E+04  0.13206947124E+04  0.00000000000E+00 0. -1.
          6    1    1    2  501    0 -0.23506107982E+02  0.30695108148E+02 -0.12559400764E+04  0.12683884272E+04  0.17300000000E+03 0. -1.
         -6    1    1    2    0  502  0.23506107982E+02 -0.30695108148E+02  0.75689082589E+02  0.19275000389E+03  0.17300000000E+03 0. -1.
<mgrwt>
<rscale>  2 0.17726739E+03</rscale>
<asrwt>0</asrwt>
<pdfrwt beam="1">  1       21 0.21606727E-01 0.17726739E+03</pdfrwt>
<pdfrwt beam="2">  1       21 0.20318380E+00 0.17726739E+03</pdfrwt>
<totfact> 0.26002627E+03</totfact>
</mgrwt>
</event>
<event>
 4    1  0.4510095E+000  0.2054593E+03  0.7546771E-02  0.1145213E+00
         21   -1    0    0  501  502  0.00000000000E+00  0.00000000000E+00  0.12180548187E+03  0.12180548187E+03  0.00000000000E+00 0.  1.
         21   -1    0    0  502  503 -0.00000000000E+00 -0.00000000000E+00 -0.54620160275E+03  0.54620160275E+03  0.00000000000E+00 0.  1.
          6    1    1    2  501    0 -0.10085332415E+03 -0.45968894134E+02 -0.10270994158E+02  0.20571588548E+03  0.17300000000E+03 0.  1.
         -6    1    1    2    0  503  0.10085332415E+03  0.45968894134E+02 -0.41412512672E+03  0.46229119914E+03  0.17300000000E+03 0.  1.
<mgrwt>
<rscale>  2 0.20545932E+03</rscale>
<asrwt>0</asrwt>
<pdfrwt beam="1">  1       21 0.18739305E-01 0.20545932E+03</pdfrwt>
<pdfrwt beam="2">  1       21 0.84031014E-01 0.20545932E+03</pdfrwt>
<totfact> 0.31827244E+04</totfact>
</mgrwt>
</event>
<event>
 4    1  0.4510095E+000  0.2822012E+03  0.7546771E-02  0.1094493E+00
         21   -1    0    0  503  502  0.00000000000E+00  0.00000000000E+00  0.11728740077E+03  0.11728740077E+03  0.00000000000E+00 0.  1.
         21   -1    0    0  501  503 -0.00000000000E+00 -0.00000000000E+00 -0.78527049560E+03  0.78527049560E+03  0.00000000000E+00 0. -1.
          6    1    1    2  501    0  0.20843998789E+03 -0.79128349596E+02 -0.50000856341E+03  0.57414814094E+03  0.17300000000E+03 0. -1.
         -6    1    1    2    0  502 -0.20843998789E+03  0.79128349596E+02 -0.16797453142E+03  0.32840975543E+03  0.17300000000E+03 0.  1.
<mgrwt>
<rscale>  2 0.28220121E+03</rscale>
<asrwt>0</asrwt>
<pdfrwt beam="1">  1       21 0.18044216E-01 0.28220121E+03</pdfrwt>
<pdfrwt beam="2">  1       21 0.12081084E+00 0.28220121E+03</pdfrwt>
<totfact> 0.13780599E+04</totfact>
</mgrwt>
</event>
<event>
 4    1  0.4510095E+000  0.1942266E+03  0.7546771E-02  0.1154704E+00
         21   -1    0    0  503  502  0.00000000000E+00  0.00000000000E+00  0.52206522957E+03  0.52206522957E+03  0.00000000000E+00 0. -1.
         21   -1    0    0  501  503 -0.00000000000E+00 -0.00000000000E+00 -0.21070047495E+03  0.21070047495E+03  0.00000000000E+00 0. -1.
          6    1    1    2  501    0  0.35718603920E+02 -0.80741207061E+02 -0.14130318794E+03  0.24018857613E+03  0.17300000000E+03 0. -1.
         -6    1    1    2    0  502 -0.35718603920E+02  0.80741207061E+02  0.45266794256E+03  0.49257712838E+03  0.17300000000E+03 0. -1.
<mgrwt>
<rscale>  2 0.19422657E+03</rscale>
<asrwt>0</asrwt>
<pdfrwt beam="1">  1       21 0.80317727E-01 0.19422657E+03</pdfrwt>
<pdfrwt beam="2">  1       21 0.32415458E-01 0.19422657E+03</pdfrwt>
<totfact> 0.12469519E+04</totfact>
</mgrwt>
</event>
<event>
 4    1  0.4510095E+000  0.2042881E+03  0.7546771E-02  0.1146171E+00
         21   -1    0    0  501  502  0.00000000000E+00  0.00000000000E+00  0.24125863808E+03  0.24125863808E+03  0.00000000000E+00 0.  1.
         21   -1    0    0  502  503 -0.00000000000E+00 -0.00000000000E+00 -0.17299083871E+03  0.17299083871E+03  0.00000000000E+00 0.  1.
          6    1    1    2  501    0 -0.65517572705E+02 -0.86672153736E+02  0.32729203820E+02  0.20689324626E+03  0.17300000000E+03 0.  1.
         -6    1    1    2    0  503  0.65517572705E+02  0.86672153736E+02  0.35538595550E+02  0.20735623053E+03  0.17300000000E+03 0.  1.
<mgrwt>
<rscale>  2 0.20428807E+03</rscale>
<asrwt>0</asrwt>
<pdfrwt beam="1">  1       21 0.37116714E-01 0.20428807E+03</pdfrwt>
<pdfrwt beam="2">  1       21 0.26613975E-01 0.20428807E+03</pdfrwt>
<totfact> 0.93614720E+04</totfact>
</mgrwt>
</event>
<event>
 4    1  0.4510095E+000  0.1912256E+03  0.7546771E-02  0.1157361E+00
         21   -1    0    0  503  502  0.00000000000E+00  0.00000000000E+00  0.46509489406E+03  0.46509489406E+03  0.00000000000E+00 0. -1.
         21   -1    0    0  501  503 -0.00000000000E+00 -0.00000000000E+00 -0.40266167999E+03  0.40266167999E+03  0.00000000000E+00 0. -1.
          6    1    1    2  501    0 -0.79310790766E+02 -0.18655263592E+02 -0.35800424631E+03  0.40587468604E+03  0.17300000000E+03 0. -1.
         -6    1    1    2    0  502  0.79310790766E+02  0.18655263592E+02  0.42043746037E+03  0.46188188801E+03  0.17300000000E+03 0. -1.
<mgrwt>
<rscale>  2 0.19122557E+03</rscale>
<asrwt>0</asrwt>
<pdfrwt beam="1">  1       21 0.71553061E-01 0.19122557E+03</pdfrwt>
<pdfrwt beam="2">  1       21 0.61947951E-01 0.19122557E+03</pdfrwt>
<totfact> 0.42750708E+03</totfact>
</mgrwt>
</event>
<event>
 4    1  0.4510095E+000  0.1997985E+03  0.7546771E-02  0.1149909E+00
         21   -1    0    0  503  502  0.00000000000E+00  0.00000000000E+00  0.39911506856E+02  0.39911506856E+02  0.00000000000E+00 0. -1.
         21   -1    0    0  501  503 -0.00000000000E+00 -0.00000000000E+00 -0.15867084064E+04  0.15867084064E+04  0.00000000000E+00 0. -1.
          6    1    1    2  501    0  0.60186006122E+02  0.79800311633E+02 -0.12678742674E+04  0.12835203945E+04  0.17300000000E+03 0. -1.
         -6    1    1    2    0  502 -0.60186006122E+02 -0.79800311633E+02 -0.27892263211E+03  0.34309951876E+03  0.17300000000E+03 0. -1.
<mgrwt>
<rscale>  2 0.19979851E+03</rscale>
<asrwt>0</asrwt>
<pdfrwt beam="1">  1       21 0.61402317E-02 0.19979851E+03</pdfrwt>
<pdfrwt beam="2">  1       21 0.24410899E+00 0.19979851E+03</pdfrwt>
<totfact> 0.13564680E+04</totfact>
</mgrwt>
</event>
<event>
 4    1  0.4510095E+000  0.2017372E+03  0.7546771E-02  0.1148282E+00
         21   -1    0    0  501  502  0.00000000000E+00  0.00000000000E+00  0.12440190512E+03  0.12440190512E+03  0.00000000000E+00 0.  1.
         21   -1    0    0  502  503 -0.00000000000E+00 -0.00000000000E+00 -0.58908939804E+03  0.58908939804E+03  0.00000000000E+00 0. -1.
          6    1    1    2  501    0 -0.86817270161E+01  0.10340943521E+03  0.55427703697E+01  0.20181329485E+03  0.17300000000E+03 0.  1.
         -6    1    1    2    0  503  0.86817270161E+01 -0.10340943521E+03 -0.47023026329E+03  0.51167800831E+03  0.17300000000E+03 0. -1.
<mgrwt>
<rscale>  2 0.20173716E+03</rscale>
<asrwt>0</asrwt>
<pdfrwt beam="1">  1       21 0.19138755E-01 0.20173716E+03</pdfrwt>
<pdfrwt beam="2">  1       21 0.90629137E-01 0.20173716E+03</pdfrwt>
<totfact> 0.25765676E+04</totfact>
</mgrwt>
</event>
<event>
 4    1  0.4510095E+000  0.1955450E+03  0.7546771E-02  0.1153553E+00
         21   -1    0    0  503  502  0.00000000000E+00  0.00000000000E+00  0.39323042345E+02  0.39323042345E+02  0.00000000000E+00 0.  1.
         21   -1    0    0  501  503 -0.00000000000E+00 -0.00000000000E+00 -0.10729021578E+04  0.10729021578E+04  0.00000000000E+00 0.  1.
          6    1    1    2  501    0 -0.88353802393E+02  0.22415774162E+02 -0.68699088938E+03  0.71427889750E+03  0.17300000000E+03 0.  1.
         -6    1    1    2    0  502  0.88353802393E+02 -0.22415774162E+02 -0.34658822604E+03  0.39794630260E+03  0.17300000000E+03 0.  1.
<mgrwt>
<rscale>  2 0.19554504E+03</rscale>
<asrwt>0</asrwt>
<pdfrwt beam="1">  1       21 0.60496997E-02 0.19554504E+03</pdfrwt>
<pdfrwt beam="2">  1       21 0.16506185E+00 0.19554504E+03</pdfrwt>
<totfact> 0.44893058E+04</totfact>
</mgrwt>
</event>
<event>
 4    1  0.4510095E+000  0.2218839E+03  0.7546771E-02  0.1132486E+00
         21   -1    0    0  503  502  0.00000000000E+00  0.00000000000E+00  0.11088551821E+04  0.11088551821E+04  0.00000000000E+00 0.  1.
         21   -1    0    0  501  503 -0.00000000000E+00 -0.00000000000E+00 -0.44440435500E+02  0.44440435500E+02  0.00000000000E+00 0. -1.
          6    1    1    2  501    0 -0.11515559094E+03  0.77734461691E+02  0.54973934819E+03  0.59282864945E+03  0.17300000000E+03 0.  1.
         -6    1    1    2    0  502  0.11515559094E+03 -0.77734461691E+02  0.51467539840E+03  0.56046696814E+03  0.17300000000E+03 0. -1.
<mgrwt>
<rscale>  2 0.22188388E+03</rscale>
<asrwt>0</asrwt>
<pdfrwt beam="1">  1       21 0.17059308E+00 0.22188388E+03</pdfrwt>
<pdfrwt beam="2">  1       21 0.68369909E-02 0.22188388E+03</pdfrwt>
<totfact> 0.32691602E+04</totfact>
</mgrwt>
</event>
<event>
 4    1  0.4510095E+000  0.2008336E+03  0.7546771E-02  0.1149038E+00
         21   -1    0    0  503  502  0.00000000000E+00  0.00000000000E+00  0.21699403179E+03  0.21699403179E+03  0.00000000000E+00 0. -1.
         21   -1    0    0  501  503 -0.00000000000E+00 -0.00000000000E+00 -0.18936937619E+03  0.18936937619E+03  0.00000000000E+00 0. -1.
          6    1    1    2  501    0 -0.80864173301E+02  0.62178058833E+02  0.41406125214E+02  0.20505753517E+03  0.17300000000E+03 0. -1.
         -6    1    1    2    0  502  0.80864173301E+02 -0.62178058833E+02 -0.13781469613E+02  0.20130587281E+03  0.17300000000E+03 0. -1.
<mgrwt>
<rscale>  2 0.20083358E+03</rscale>
<asrwt>0</asrwt>
<pdfrwt beam="1">  1       21 0.33383697E-01 0.20083358E+03</pdfrwt>
<pdfrwt beam="2">  1       21 0.29133750E-01 0.20083358E+03</pdfrwt>
<totfact> 0.97162719E+04</totfact>
</mgrwt>
</event>
<event>
 4    1  0.4510095E+000  0.2779645E+03  0.7546771E-02  0.1096806E+00
         21   -1    0    0  503  502  0.00000000000E+00  0.00000000000E+00  0.17617127374E+03  0.17617127374E+03  0.00000000000E+00 0.  1.
         21   -1    0    0  501  503 -0.00000000000E+00 -0.00000000000E+00 -0.87574952979E+03  0.87574952979E+03  0.00000000000E+00 0. -1.
          6    1    1    2  501    0  0.33072584156E+02  0.21503831475E+03 -0.72140190797E+03  0.77310088958E+03  0.17300000000E+03 0. -1.
         -6    1    1    2    0  502 -0.33072584156E+02 -0.21503831475E+03  0.21823651923E+02  0.27881991395E+03  0.17300000000E+03 0.  1.
<mgrwt>
<rscale>  2 0.27796452E+03</rscale>
<asrwt>0</asrwt>
<pdfrwt beam="1">  1       21 0.27103273E-01 0.27796452E+03</pdfrwt>
<pdfrwt beam="2">  1       21 0.13473070E+00 0.27796452E+03</pdfrwt>
<totfact> 0.48246974E+03</totfact>
</mgrwt>
</event>
<event>
 4    1  0.4510095E+000  0.2295357E+03  0.7546771E-02  0.1126967E+00
         21   -1    0    0  503  502  0.00000000000E+00  0.00000000000E+00  0.11739236746E+04  0.11739236746E+04  0.00000000000E+00 0.  1.
         21   -1    0    0  501  503 -0.00000000000E+00 -0.00000000000E+00 -0.75149246276E+02  0.75149246276E+02  0.00000000000E+00 0.  1.
          6    1    1    2  501    0 -0.98532294634E+02  0.11423223054E+03  0.15302644936E+03  0.27586900838E+03  0.17300000000E+03 0.  1.
         -6    1    1    2    0  502  0.98532294634E+02 -0.11423223054E+03  0.94574797893E+03  0.97320391246E+03  0.17300000000E+03 0.  1.
<mgrwt>
<rscale>  2 0.22953565E+03</rscale>
<asrwt>0</asrwt>
<pdfrwt beam="1">  1       21 0.18060363E+00 0.22953565E+03</pdfrwt>
<pdfrwt beam="2">  1       21 0.11561423E-01 0.22953565E+03</pdfrwt>
<totfact> 0.10995997E+04</totfact>
</mgrwt>
</event>
<event>
 4    1  0.4510095E+000  0.3064872E+03  0.7546771E-02  0.1082042E+00
         21   -1    0    0  503  502  0.00000000000E+00  0.00000000000E+00  0.25472196522E+03  0.25472196522E+03  0.00000000000E+00 0. -1.
         21   -1    0    0  501  503 -0.00000000000E+00 -0.00000000000E+00 -0.57685872548E+03  0.57685872548E+03  0.00000000000E+00 0.  1.
          6    1    1    2  501    0  0.13734191665E+03 -0.21246790466E+03 -0.41079308674E+03  0.51252841159E+03  0.17300000000E+03 0.  1.
         -6    1    1    2    0  502 -0.13734191665E+03  0.21246790466E+03  0.88656326473E+02  0.31905227911E+03  0.17300000000E+03 0. -1.
<mgrwt>
<rscale>  2 0.30648721E+03</rscale>
<asrwt>0</asrwt>
<pdfrwt beam="1">  1       21 0.39187994E-01 0.30648721E+03</pdfrwt>
<pdfrwt beam="2">  1       21 0.88747497E-01 0.30648721E+03</pdfrwt>
<totfact> 0.63580669E+03</totfact>
</mgrwt>
</event>
<event>
 4    1  0.4510095E+000  0.1887541E+03  0.7546771E-02  0.1159590E+00
         21   -1    0    0  501  502  0.00000000000E+00  0.00000000000E+00  0.20431026171E+03  0.20431026171E+03  0.00000000000E+00 0. -1.
         21   -1    0    0  502  503 -0.00000000000E+00 -0.00000000000E+00 -0.22877981219E+03  0.22877981219E+03  0.00000000000E+00 0.  1.
          6    1    1    2  501    0  0.73138664415E+02 -0.18704323356E+02  0.93356603969E+02  0.21057913346E+03  0.17300000000E+03 0. -1.
         -6    1    1    2    0  503 -0.73138664415E+02  0.18704323356E+02 -0.11782615444E+03  0.22251094044E+03  0.17300000000E+03 0.  1.
<mgrwt>
<rscale>  2 0.18875412E+03</rscale>
<asrwt>0</asrwt>
<pdfrwt beam="1">  1       21 0.31432348E-01 0.18875412E+03</pdfrwt>
<pdfrwt beam="2">  1       21 0.35196894E-01 0.18875412E+03</pdfrwt>
<totfact> 0.75827109E+04</totfact>
</mgrwt>
</event>
<event>
 4    1  0.4510095E+000  0.2422969E+03  0.7546771E-02  0.1118272E+00
         21   -1    0    0  503  502  0.00000000000E+00  0.00000000000E+00  0.13214138827E+04  0.13214138827E+04  0.00000000000E+00 0.  1.
         21   -1    0    0  501  503 -0.00000000000E+00 -0.00000000000E+00 -0.10161726176E+03  0.10161726176E+03  0.00000000000E+00 0. -1.
          6    1    1    2  501    0 -0.15962420916E+03 -0.57435893706E+02  0.76123680950E+02  0.25397359082E+03  0.17300000000E+03 0. -1.
         -6    1    1    2    0  502  0.15962420916E+03  0.57435893706E+02  0.11436729400E+04  0.11690575536E+04  0.17300000000E+03 0.  1.
<mgrwt>
<rscale>  2 0.24229686E+03</rscale>
<asrwt>0</asrwt>
<pdfrwt beam="1">  1       21 0.20329443E+00 0.24229686E+03</pdfrwt>
<pdfrwt beam="2">  1       21 0.15633426E-01 0.24229686E+03</pdfrwt>
<totfact> 0.44583710E+03</totfact>
</mgrwt>
</event>
<event>
 4    1  0.4510095E+000  0.1825382E+03  0.7546771E-02  0.1165369E+00
         21   -1    0    0  501  502  0.00000000000E+00  0.00000000000E+00  0.38563481066E+02  0.38563481066E+02  0.00000000000E+00 0. -1.
         21   -1    0    0  502  503 -0.00000000000E+00 -0.00000000000E+00 -0.99716912780E+03  0.99716912780E+03  0.00000000000E+00 0. -1.
          6    1    1    2  501    0 -0.16510678256E+02 -0.55844210286E+02 -0.29007772221E+03  0.34273205751E+03  0.17300000000E+03 0. -1.
         -6    1    1    2    0  503  0.16510678256E+02  0.55844210286E+02 -0.66852792452E+03  0.69300055136E+03  0.17300000000E+03 0. -1.
<mgrwt>
<rscale>  2 0.18253816E+03</rscale>
<asrwt>0</asrwt>
<pdfrwt beam="1">  1       21 0.59328439E-02 0.18253816E+03</pdfrwt>
<pdfrwt beam="2">  1       21 0.15341062E+00 0.18253816E+03</pdfrwt>
<totfact> 0.56935672E+04</totfact>
</mgrwt>
</event>
<event>
 4    1  0.4510095E+000  0.2059189E+03  0.7546771E-02  0.1144839E+00
         21   -1    0    0  503  502  0.00000000000E+00  0.00000000000E+00  0.69532574007E+02  0.69532574007E+02  0.00000000000E+00 0.  1.
         21   -1    0    0  501  503 -0.00000000000E+00 -0.00000000000E+00 -0.65732412063E+03  0.65732412063E+03  0.00000000000E+00 0. -1.
          6    1    1    2  501    0  0.42538457210E+02  0.10326708146E+03 -0.39159200542E+03  0.44243294313E+03  0.17300000000E+03 0. -1.
         -6    1    1    2    0  502 -0.42538457210E+02 -0.10326708146E+03 -0.19619954120E+03  0.28442375151E+03  0.17300000000E+03 0. -1.
<mgrwt>
<rscale>  2 0.20591894E+03</rscale>
<asrwt>0</asrwt>
<pdfrwt beam="1">  1       21 0.10697319E-01 0.20591894E+03</pdfrwt>
<pdfrwt beam="2">  1       21 0.10112679E+00 0.20591894E+03</pdfrwt>
<totfact> 0.57188053E+04</totfact>
</mgrwt>
</event>
<event>
 4    1  0.4510095E+000  0.3083075E+03  0.7546771E-02  0.1081160E+00
         21   -1    0    0  503  502  0.00000000000E+00  0.00000000000E+00  0.23773505388E+04  0.23773505388E+04  0.00000000000E+00 0. -1.
         21   -1    0    0  501  503 -0.00000000000E+00 -0.00000000000E+00 -0.63093238030E+02  0.63093238030E+02  0.00000000000E+00 0.  1.
          6    1    1    2  501    0 -0.24177153596E+03 -0.81676307857E+02  0.41862940862E+03  0.51990775780E+03  0.17300000000E+03 0.  1.
         -6    1    1    2    0  502  0.24177153596E+03  0.81676307857E+02  0.18956278921E+04  0.19205360190E+04  0.17300000000E+03 0. -1.
<mgrwt>
<rscale>  2 0.30830747E+03</rscale>
<asrwt>0</asrwt>
<pdfrwt beam="1">  1       21 0.36574617E+00 0.30830747E+03</pdfrwt>
<pdfrwt beam="2">  1       21 0.97066538E-02 0.30830747E+03</pdfrwt>
<totfact> 0.10559243E+03</totfact>
</mgrwt>
</event>
<event>
 4    1  0.4510095E+000  0.1864559E+03  0.7546771E-02  0.1161697E+00
         21   -1    0    0  501  502  0.00000000000E+00  0.00000000000E+00  0.33228149990E+03  0.33228149990E+03  0.00000000000E+00 0. -1.
         21   -1    0    0  502  503 -0.00000000000E+00 -0.00000000000E+00 -0.35880881957E+03  0.35880881957E+03  0.00000000000E+00 0. -1.
          6    1    1    2  501    0 -0.69544012338E+02 -0.65095069071E+00  0.27757025315E+03  0.33438157668E+03  0.17300000000E+03 0. -1.
         -6    1    1    2    0  503  0.69544012338E+02  0.65095069071E+00 -0.30409757281E+03  0.35670874279E+03  0.17300000000E+03 0. -1.
<mgrwt>
<rscale>  2 0.18645588E+03</rscale>
<asrwt>0</asrwt>
<pdfrwt beam="1">  1       21 0.51120231E-01 0.18645588E+03</pdfrwt>
<pdfrwt beam="2">  1       21 0.55201357E-01 0.18645588E+03</pdfrwt>
<totfact> 0.11307327E+04</totfact>
</mgrwt>
</event>
<event>
 4    1  0.4510095E+000  0.1938267E+03  0.7546771E-02  0.1155054E+00
         21   -1    0    0  501  502  0.00000000000E+00  0.00000000000E+00  0.22831070676E+03  0.22831070676E+03  0.00000000000E+00 0.  1.
         21   -1    0    0  502  503 -0.00000000000E+00 -0.00000000000E+00 -0.21037946212E+03  0.21037946212E+03  0.00000000000E+00 0. -1.
          6    1    1    2  501    0 -0.85789235309E+02  0.16733079178E+02  0.11134044864E+03  0.22352960506E+03  0.17300000000E+03 0.  1.
         -6    1    1    2    0  503  0.85789235309E+02 -0.16733079178E+02 -0.93409204000E+02  0.21516056383E+03  0.17300000000E+03 0. -1.
<mgrwt>
<rscale>  2 0.19382670E+03</rscale>
<asrwt>0</asrwt>
<pdfrwt beam="1">  1       21 0.35124724E-01 0.19382670E+03</pdfrwt>
<pdfrwt beam="2">  1       21 0.32366071E-01 0.19382670E+03</pdfrwt>
<totfact> 0.71736808E+04</totfact>
</mgrwt>
</event>
<event>
 4    1  0.4510095E+000  0.2927974E+03  0.7546771E-02  0.1088898E+00
         21   -1    0    0  503  502  0.00000000000E+00  0.00000000000E+00  0.15446642671E+03  0.15446642671E+03  0.00000000000E+00 0.  1.
         21   -1    0    0  501  503 -0.00000000000E+00 -0.00000000000E+00 -0.60216431028E+03  0.60216431028E+03  0.00000000000E+00 0. -1.
          6    1    1    2  501    0  0.23605069504E+03 -0.90202954105E+01 -0.32971594242E+03  0.44095679953E+03  0.17300000000E+03 0.  1.
         -6    1    1    2    0  502 -0.23605069504E+03  0.90202954105E+01 -0.11798194114E+03  0.31567393746E+03  0.17300000000E+03 0. -1.
<mgrwt>
<rscale>  2 0.29279736E+03</rscale>
<asrwt>0</asrwt>
<pdfrwt beam="1">  1       21 0.23764065E-01 0.29279736E+03</pdfrwt>
<pdfrwt beam="2">  1       21 0.92640664E-01 0.29279736E+03</pdfrwt>
<totfact> 0.15529405E+04</totfact>
</mgrwt>
</event>
<event>
 4    1  0.4510095E+000  0.1756927E+03  0.7546771E-02  0.1172038E+00
         21   -1    0    0  501  502  0.00000000000E+00  0.00000000000E+00  0.42242116033E+03  0.42242116033E+03  0.00000000000E+00 0.  1.
         21   -1    0    0  502  503 -0.00000000000E+00 -0.00000000000E+00 -0.19416038378E+03  0.19416038378E+03  0.00000000000E+00 0.  1.
          6    1    1    2  501    0  0.11851023768E+02 -0.28257495365E+02  0.35759069835E+03  0.39842068264E+03  0.17300000000E+03 0.  1.
         -6    1    1    2    0  503 -0.11851023768E+02  0.28257495365E+02 -0.12932992179E+03  0.21816086148E+03  0.17300000000E+03 0.  1.
<mgrwt>
<rscale>  2 0.17569272E+03</rscale>
<asrwt>0</asrwt>
<pdfrwt beam="1">  1       21 0.64987870E-01 0.17569272E+03</pdfrwt>
<pdfrwt beam="2">  1       21 0.29870829E-01 0.17569272E+03</pdfrwt>
<totfact> 0.23663138E+04</totfact>
</mgrwt>
</event>
<event>
 4    1  0.4510095E+000  0.2029995E+03  0.7546771E-02  0.1147233E+00
         21   -1    0    0  503  502  0.00000000000E+00  0.00000000000E+00  0.19161965623E+03  0.19161965623E+03  0.00000000000E+00 0. -1.
         21   -1    0    0  501  503 -0.00000000000E+00 -0.00000000000E+00 -0.23746141359E+03  0.23746141359E+03  0.00000000000E+00 0. -1.
          6    1    1    2  501    0 -0.60799911260E+02 -0.87081284935E+02 -0.88822832331E+02  0.22158130548E+03  0.17300000000E+03 0. -1.
         -6    1    1    2    0  502  0.60799911260E+02  0.87081284935E+02  0.42981074972E+02  0.20749976434E+03  0.17300000000E+03 0. -1.
<mgrwt>
<rscale>  2 0.20299946E+03</rscale>
<asrwt>0</asrwt>
<pdfrwt beam="1">  1       21 0.29479947E-01 0.20299946E+03</pdfrwt>
<pdfrwt beam="2">  1       21 0.36532525E-01 0.20299946E+03</pdfrwt>
<totfact> 0.79314781E+04</totfact>
</mgrwt>
</event>
<event>
 4    1  0.4510095E+000  0.1919391E+03  0.7546771E-02  0.1156724E+00
         21   -1    0    0  503  502  0.00000000000E+00  0.00000000000E+00  0.20218473909E+03  0.20218473909E+03  0.00000000000E+00 0. -1.
         21   -1    0    0  501  503 -0.00000000000E+00 -0.00000000000E+00 -0.25189804152E+03  0.25189804152E+03  0.00000000000E+00 0.  1.
          6    1    1    2  501    0 -0.80964779528E+02 -0.18876559801E+02 -0.14427291223E+03  0.24011516661E+03  0.17300000000E+03 0.  1.
         -6    1    1    2    0  502  0.80964779528E+02  0.18876559801E+02  0.94559609805E+02  0.21396761400E+03  0.17300000000E+03 0. -1.
<mgrwt>
<rscale>  2 0.19193911E+03</rscale>
<asrwt>0</asrwt>
<pdfrwt beam="1">  1       21 0.31105345E-01 0.19193911E+03</pdfrwt>
<pdfrwt beam="2">  1       21 0.38753545E-01 0.19193911E+03</pdfrwt>
<totfact> 0.63772245E+04</totfact>
</mgrwt>
</event>
<event>
 4    1  0.4510095E+000  0.2342108E+03  0.7546771E-02  0.1123711E+00
         21   -1    0    0  503  502  0.00000000000E+00  0.00000000000E+00  0.60403862918E+03  0.60403862918E+03  0.00000000000E+00 0.  1.
         21   -1    0    0  501  503 -0.00000000000E+00 -0.00000000000E+00 -0.12429973574E+03  0.12429973574E+03  0.00000000000E+00 0.  1.
          6    1    1    2  501    0  0.56846484553E+02  0.14728943166E+03  0.50851518406E+02  0.23966763739E+03  0.17300000000E+03 0.  1.
         -6    1    1    2    0  502 -0.56846484553E+02 -0.14728943166E+03  0.42888737503E+03  0.48867072753E+03  0.17300000000E+03 0.  1.
<mgrwt>
<rscale>  2 0.23421080E+03</rscale>
<asrwt>0</asrwt>
<pdfrwt beam="1">  1       21 0.92929019E-01 0.23421080E+03</pdfrwt>
<pdfrwt beam="2">  1       21 0.19123036E-01 0.23421080E+03</pdfrwt>
<totfact> 0.23911831E+04</totfact>
</mgrwt>
</event>
<event>
 4    1  0.4510095E+000  0.1844290E+03  0.7546771E-02  0.1163584E+00
         21   -1    0    0  503  502  0.00000000000E+00  0.00000000000E+00  0.13493046536E+03  0.13493046536E+03  0.00000000000E+00 0.  1.
         21   -1    0    0  501  503 -0.00000000000E+00 -0.00000000000E+00 -0.43499273906E+03  0.43499273906E+03  0.00000000000E+00 0.  1.
          6    1    1    2  501    0 -0.45561753849E+02  0.44823835273E+02 -0.33481348099E+03  0.38224876282E+03  0.17300000000E+03 0.  1.
         -6    1    1    2    0  502  0.45561753849E+02 -0.44823835273E+02  0.34751207292E+02  0.18767444160E+03  0.17300000000E+03 0.  1.
<mgrwt>
<rscale>  2 0.18442898E+03</rscale>
<asrwt>0</asrwt>
<pdfrwt beam="1">  1       21 0.20758533E-01 0.18442898E+03</pdfrwt>
<pdfrwt beam="2">  1       21 0.66921960E-01 0.18442898E+03</pdfrwt>
<totfact> 0.44211741E+04</totfact>
</mgrwt>
</event>
<event>
 4    1  0.4510095E+000  0.1779383E+03  0.7546771E-02  0.1169813E+00
         21   -1    0    0  503  502  0.00000000000E+00  0.00000000000E+00  0.21454939566E+03  0.21454939566E+03  0.00000000000E+00 0. -1.
         21   -1    0    0  501  503 -0.00000000000E+00 -0.00000000000E+00 -0.15859962978E+03  0.15859962978E+03  0.00000000000E+00 0. -1.
          6    1    1    2  501    0  0.39010659130E+02 -0.14532808164E+02 -0.21216811059E+02  0.17919873635E+03  0.17300000000E+03 0. -1.
         -6    1    1    2    0  502 -0.39010659130E+02  0.14532808164E+02  0.77166576942E+02  0.19395028908E+03  0.17300000000E+03 0. -1.
<mgrwt>
<rscale>  2 0.17793829E+03</rscale>
<asrwt>0</asrwt>
<pdfrwt beam="1">  1       21 0.33007599E-01 0.17793829E+03</pdfrwt>
<pdfrwt beam="2">  1       21 0.24399943E-01 0.17793829E+03</pdfrwt>
<totfact> 0.14087502E+05</totfact>
</mgrwt>
</event>
<event>
 4    1  0.4510095E+000  0.1762196E+03  0.7546771E-02  0.1171513E+00
         21   -1    0    0  501  502  0.00000000000E+00  0.00000000000E+00  0.46639720658E+03  0.46639720658E+03  0.00000000000E+00 0. -1.
         21   -1    0    0  502  503 -0.00000000000E+00 -0.00000000000E+00 -0.68010938923E+02  0.68010938923E+02  0.00000000000E+00 0. -1.
          6    1    1    2  501    0 -0.29133757121E+02 -0.16600758725E+02  0.23793294817E+03  0.29608351663E+03  0.17300000000E+03 0. -1.
         -6    1    1    2    0  503  0.29133757121E+02  0.16600758725E+02  0.16045331949E+03  0.23832462888E+03  0.17300000000E+03 0. -1.
<mgrwt>
<rscale>  2 0.17621964E+03</rscale>
<asrwt>0</asrwt>
<pdfrwt beam="1">  1       21 0.71753414E-01 0.17621964E+03</pdfrwt>
<pdfrwt beam="2">  1       21 0.10463222E-01 0.17621964E+03</pdfrwt>
<totfact> 0.13216516E+05</totfact>
</mgrwt>
</event>
<event>
 4    1  0.4510095E+000  0.1876945E+03  0.7546771E-02  0.1160557E+00
         21   -1    0    0  501  502  0.00000000000E+00  0.00000000000E+00  0.71457583061E+02  0.71457583061E+02  0.00000000000E+00 0. -1.
         21   -1    0    0  502  503 -0.00000000000E+00 -0.00000000000E+00 -0.62783000454E+03  0.62783000454E+03  0.00000000000E+00 0. -1.
          6    1    1    2  501    0  0.13512519243E+01  0.72790137542E+02 -0.11616062324E+03  0.22073178384E+03  0.17300000000E+03 0. -1.
         -6    1    1    2    0  503 -0.13512519243E+01 -0.72790137542E+02 -0.44021179824E+03  0.47855580377E+03  0.17300000000E+03 0. -1.
<mgrwt>
<rscale>  2 0.18769451E+03</rscale>
<asrwt>0</asrwt>
<pdfrwt beam="1">  1       21 0.10993474E-01 0.18769451E+03</pdfrwt>
<pdfrwt beam="2">  1       21 0.96589233E-01 0.18769451E+03</pdfrwt>
<totfact> 0.61269408E+04</totfact>
</mgrwt>
</event>
<event>
 4    1  0.4510095E+000  0.2297226E+03  0.7546771E-02  0.1126835E+00
         21   -1    0    0  501  502  0.00000000000E+00  0.00000000000E+00  0.41035317035E+03  0.41035317035E+03  0.00000000000E+00 0. -1.
         21   -1    0    0  502  503 -0.00000000000E+00 -0.00000000000E+00 -0.17743729007E+03  0.17743729007E+03  0.00000000000E+00 0. -1.
          6    1    1    2  501    0 -0.14779285508E+03  0.31634506220E+02  0.27064022104E+03  0.35499098473E+03  0.17300000000E+03 0. -1.
         -6    1    1    2    0  503  0.14779285508E+03 -0.31634506220E+02 -0.37724340759E+02  0.23279947569E+03  0.17300000000E+03 0. -1.
<mgrwt>
<rscale>  2 0.22972259E+03</rscale>
<asrwt>0</asrwt>
<pdfrwt beam="1">  1       21 0.63131257E-01 0.22972259E+03</pdfrwt>
<pdfrwt beam="2">  1       21 0.27298045E-01 0.22972259E+03</pdfrwt>
<totfact> 0.29134073E+04</totfact>
</mgrwt>
</event>
<event>
 4    1  0.4510095E+000  0.1871983E+03  0.7546771E-02  0.1161013E+00
         21   -1    0    0  501  502  0.00000000000E+00  0.00000000000E+00  0.97722492623E+02  0.97722492623E+02  0.00000000000E+00 0. -1.
         21   -1    0    0  502  503 -0.00000000000E+00 -0.00000000000E+00 -0.42045059464E+03  0.42045059464E+03  0.00000000000E+00 0. -1.
          6    1    1    2  501    0  0.54056498643E+02 -0.46819822171E+02 -0.61992431594E+02  0.19719599988E+03  0.17300000000E+03 0. -1.
         -6    1    1    2    0  503 -0.54056498643E+02  0.46819822171E+02 -0.26073567042E+03  0.32097708738E+03  0.17300000000E+03 0. -1.
<mgrwt>
<rscale>  2 0.18719829E+03</rscale>
<asrwt>0</asrwt>
<pdfrwt beam="1">  1       21 0.15034230E-01 0.18719829E+03</pdfrwt>
<pdfrwt beam="2">  1       21 0.64684706E-01 0.18719829E+03</pdfrwt>
<totfact> 0.86238626E+04</totfact>
</mgrwt>
</event>
<event>
 4    1  0.4510095E+000  0.1992847E+03  0.7546771E-02  0.1150344E+00
         21   -1    0    0  503  502  0.00000000000E+00  0.00000000000E+00  0.23747616607E+03  0.23747616607E+03  0.00000000000E+00 0. -1.
         21   -1    0    0  501  503 -0.00000000000E+00 -0.00000000000E+00 -0.28975078155E+03  0.28975078155E+03  0.00000000000E+00 0. -1.
          6    1    1    2  501    0  0.70180981303E+02  0.69713875238E+02 -0.19755309070E+03  0.28060936938E+03  0.17300000000E+03 0. -1.
         -6    1    1    2    0  502 -0.70180981303E+02 -0.69713875238E+02  0.14527847522E+03  0.24661757824E+03  0.17300000000E+03 0. -1.
<mgrwt>
<rscale>  2 0.19928471E+03</rscale>
<asrwt>0</asrwt>
<pdfrwt beam="1">  1       21 0.36534795E-01 0.19928471E+03</pdfrwt>
<pdfrwt beam="2">  1       21 0.44577043E-01 0.19928471E+03</pdfrwt>
<totfact> 0.34784450E+04</totfact>
</mgrwt>
</event>
<event>
 4    1  0.4510095E+000  0.2778900E+03  0.7546771E-02  0.1096847E+00
         21   -1    0    0  503  502  0.00000000000E+00  0.00000000000E+00  0.53880980290E+02  0.53880980290E+02  0.00000000000E+00 0. -1.
         21   -1    0    0  501  503 -0.00000000000E+00 -0.00000000000E+00 -0.14459712300E+04  0.14459712300E+04  0.00000000000E+00 0.  1.
          6    1    1    2  501    0  0.48462613215E+02  0.21200289786E+03 -0.76649095385E+03  0.81531051503E+03  0.17300000000E+03 0. -1.
         -6    1    1    2    0  502 -0.48462613215E+02 -0.21200289786E+03 -0.62559929591E+03  0.68454169531E+03  0.17300000000E+03 0. -1.
<mgrwt>
<rscale>  2 0.27789000E+03</rscale>
<asrwt>0</asrwt>
<pdfrwt beam="1">  1       21 0.82893819E-02 0.27789000E+03</pdfrwt>
<pdfrwt beam="2">  1       21 0.22245710E+00 0.27789000E+03</pdfrwt>
<totfact> 0.10281966E+04</totfact>
</mgrwt>
</event>
<event>
 4    1  0.4510095E+000  0.2002582E+03  0.7546771E-02  0.1149521E+00
         21   -1    0    0  503  502  0.00000000000E+00  0.00000000000E+00  0.40884482705E+03  0.40884482705E+03  0.00000000000E+00 0. -1.
         21   -1    0    0  501  503 -0.00000000000E+00 -0.00000000000E+00 -0.11009790239E+03  0.11009790239E+03  0.00000000000E+00 0. -1.
          6    1    1    2  501    0 -0.47362043059E+02  0.89057192857E+02  0.63680687130E+02  0.21013942190E+03  0.17300000000E+03 0. -1.
         -6    1    1    2    0  502  0.47362043059E+02 -0.89057192857E+02  0.23506623753E+03  0.30880330754E+03  0.17300000000E+03 0. -1.
<mgrwt>
<rscale>  2 0.20025820E+03</rscale>
<asrwt>0</asrwt>
<pdfrwt beam="1">  1       21 0.62899203E-01 0.20025820E+03</pdfrwt>
<pdfrwt beam="2">  1       21 0.16938139E-01 0.20025820E+03</pdfrwt>
<totfact> 0.73260764E+04</totfact>
</mgrwt>
</event>
<event>
 4    1  0.4510095E+000  0.2694169E+03  0.7546771E-02  0.1101614E+00
         21   -1    0    0  503  502  0.00000000000E+00  0.00000000000E+00  0.35986795653E+03  0.35986795653E+03  0.00000000000E+00 0.  1.
         21   -1    0    0  501  503 -0.00000000000E+00 -0.00000000000E+00 -0.30030404433E+03  0.30030404433E+03  0.00000000000E+00 0.  1.
          6    1    1    2  501    0 -0.16191509684E+03 -0.12821853604E+03 -0.15936228192E+03  0.31302049209E+03  0.17300000000E+03 0.  1.
         -6    1    1    2    0  502  0.16191509684E+03  0.12821853604E+03  0.21892619412E+03  0.34715150877E+03  0.17300000000E+03 0.  1.
<mgrwt>
<rscale>  2 0.26941695E+03</rscale>
<asrwt>0</asrwt>
<pdfrwt beam="1">  1       21 0.55364301E-01 0.26941695E+03</pdfrwt>
<pdfrwt beam="2">  1       21 0.46200622E-01 0.26941695E+03</pdfrwt>
<totfact> 0.13218415E+04</totfact>
</mgrwt>
</event>
<event>
 4    1  0.4510095E+000  0.1989090E+03  0.7546771E-02  0.1150663E+00
         21   -1    0    0  503  502  0.00000000000E+00  0.00000000000E+00  0.24752223832E+03  0.24752223832E+03  0.00000000000E+00 0. -1.
         21   -1    0    0  501  503 -0.00000000000E+00 -0.00000000000E+00 -0.24633240545E+03  0.24633240545E+03  0.00000000000E+00 0. -1.
          6    1    1    2  501    0 -0.56212018253E+02 -0.80473712874E+02  0.14690986158E+03  0.24727983519E+03  0.17300000000E+03 0. -1.
         -6    1    1    2    0  502  0.56212018253E+02  0.80473712874E+02 -0.14572002871E+03  0.24657480858E+03  0.17300000000E+03 0. -1.
<mgrwt>
<rscale>  2 0.19890905E+03</rscale>
<asrwt>0</asrwt>
<pdfrwt beam="1">  1       21 0.38080344E-01 0.19890905E+03</pdfrwt>
<pdfrwt beam="2">  1       21 0.37897293E-01 0.19890905E+03</pdfrwt>
<totfact> 0.44517032E+04</totfact>
</mgrwt>
</event>
<event>
 4    1  0.4510095E+000  0.1730714E+03  0.7546771E-02  0.1174682E+00
         21   -1    0    0  503  502  0.00000000000E+00  0.00000000000E+00  0.44262990403E+02  0.44262990403E+02  0.00000000000E+00 0.  1.
         21   -1    0    0  501  503 -0.00000000000E+00 -0.00000000000E+00 -0.67979254136E+03  0.67979254136E+03  0.00000000000E+00 0.  1.
          6    1    1    2  501    0 -0.72946843774E+00  0.49161833906E+01 -0.34209928042E+03  0.38338703506E+03  0.17300000000E+03 0. -1.
         -6    1    1    2    0  502  0.72946843774E+00 -0.49161833906E+01 -0.29343027053E+03  0.34066849671E+03  0.17300000000E+03 0. -1.
<mgrwt>
<rscale>  2 0.17307138E+03</rscale>
<asrwt>0</asrwt>
<pdfrwt beam="1">  1       21 0.68096909E-02 0.17307138E+03</pdfrwt>
<pdfrwt beam="2">  1       21 0.10458347E+00 0.17307138E+03</pdfrwt>
<totfact> 0.11793356E+05</totfact>
</mgrwt>
</event>
<event>
 4    1  0.4510095E+000  0.2027903E+03  0.7546771E-02  0.1147406E+00
         21   -1    0    0  503  502  0.00000000000E+00  0.00000000000E+00  0.64492195952E+03  0.64492195952E+03  0.00000000000E+00 0. -1.
         21   -1    0    0  501  503 -0.00000000000E+00 -0.00000000000E+00 -0.15442876330E+03  0.15442876330E+03  0.00000000000E+00 0. -1.
          6    1    1    2  501    0 -0.74859295174E+02 -0.74772814068E+02 -0.60991007183E+02  0.21176352555E+03  0.17300000000E+03 0. -1.
         -6    1    1    2    0  502  0.74859295174E+02  0.74772814068E+02  0.55148420340E+03  0.58758719727E+03  0.17300000000E+03 0. -1.
<mgrwt>
<rscale>  2 0.20279026E+03</rscale>
<asrwt>0</asrwt>
<pdfrwt beam="1">  1       21 0.99218761E-01 0.20279026E+03</pdfrwt>
<pdfrwt beam="2">  1       21 0.23758272E-01 0.20279026E+03</pdfrwt>
<totfact> 0.13864596E+04</totfact>
</mgrwt>
</event>
<event>
 4    1  0.4510095E+000  0.3156392E+03  0.7546771E-02  0.1077674E+00
         21   -1    0    0  503  502  0.00000000000E+00  0.00000000000E+00  0.95978923814E+03  0.95978923814E+03  0.00000000000E+00 0.  1.
         21   -1    0    0  501  503 -0.00000000000E+00 -0.00000000000E+00 -0.11175048570E+03  0.11175048570E+03  0.00000000000E+00 0. -1.
          6    1    1    2  501    0  0.79047155019E+02  0.25189412805E+03  0.28113195274E+03  0.42268579266E+03  0.17300000000E+03 0. -1.
         -6    1    1    2    0  502 -0.79047155019E+02 -0.25189412805E+03  0.56690679970E+03  0.64885393118E+03  0.17300000000E+03 0.  1.
<mgrwt>
<rscale>  2 0.31563920E+03</rscale>
<asrwt>0</asrwt>
<pdfrwt beam="1">  1       21 0.14765988E+00 0.31563920E+03</pdfrwt>
<pdfrwt beam="2">  1       21 0.17192383E-01 0.31563920E+03</pdfrwt>
<totfact> 0.88326965E+03</totfact>
</mgrwt>
</event>
<event>
 4    1  0.4510095E+000  0.3122717E+03  0.7546771E-02  0.1079262E+00
         21   -1    0    0  501  502  0.00000000000E+00  0.00000000000E+00  0.26237894676E+03  0.26237894676E+03  0.00000000000E+00 0. -1.
         21   -1    0    0  502  503 -0.00000000000E+00 -0.00000000000E+00 -0.45493933452E+03  0.45493933452E+03  0.00000000000E+00 0. -1.
          6    1    1    2  501    0  0.25866552713E+03 -0.26014586671E+02  0.57179774746E+02  0.31746360467E+03  0.17300000000E+03 0. -1.
         -6    1    1    2    0  503 -0.25866552713E+03  0.26014586671E+02 -0.24974016251E+03  0.39985467662E+03  0.17300000000E+03 0. -1.
<mgrwt>
<rscale>  2 0.31227170E+03</rscale>
<asrwt>0</asrwt>
<pdfrwt beam="1">  1       21 0.40365992E-01 0.31227170E+03</pdfrwt>
<pdfrwt beam="2">  1       21 0.69990666E-01 0.31227170E+03</pdfrwt>
<totfact> 0.10264720E+04</totfact>
</mgrwt>
</event>
<event>
 4    1  0.4510095E+000  0.1830646E+03  0.7546771E-02  0.1164870E+00
         21   -1    0    0  501  502  0.00000000000E+00  0.00000000000E+00  0.17409594036E+03  0.17409594036E+03  0.00000000000E+00 0.  1.
         21   -1    0    0  502  503 -0.00000000000E+00 -0.00000000000E+00 -0.28842522263E+03  0.28842522263E+03  0.00000000000E+00 0.  1.
          6    1    1    2  501    0  0.59728515542E+02 -0.40202925587E+01  0.76206521617E+02  0.19829294556E+03  0.17300000000E+03 0.  1.
         -6    1    1    2    0  503 -0.59728515542E+02  0.40202925587E+01 -0.19053580389E+03  0.26422821743E+03  0.17300000000E+03 0.  1.
<mgrwt>
<rscale>  2 0.18306463E+03</rscale>
<asrwt>0</asrwt>
<pdfrwt beam="1">  1       21 0.26783991E-01 0.18306463E+03</pdfrwt>
<pdfrwt beam="2">  1       21 0.44373111E-01 0.18306463E+03</pdfrwt>
<totfact> 0.65000913E+04</totfact>
</mgrwt>
</event>
<event>
 4    1  0.4510095E+000  0.1820956E+03  0.7546771E-02  0.1165790E+00
         21   -1    0    0  503  502  0.00000000000E+00  0.00000000000E+00  0.35364512006E+03  0.35364512006E+03  0.00000000000E+00 0. -1.
         21   -1    0    0  501  503 -0.00000000000E+00 -0.00000000000E+00 -0.12786815772E+03  0.12786815772E+03  0.00000000000E+00 0.  1.
          6    1    1    2  501    0 -0.53877663272E+02  0.18083135477E+02 -0.11450569992E+02  0.18245524915E+03  0.17300000000E+03 0.  1.
         -6    1    1    2    0  502  0.53877663272E+02 -0.18083135477E+02  0.23722753233E+03  0.29905802862E+03  0.17300000000E+03 0. -1.
<mgrwt>
<rscale>  2 0.18209559E+03</rscale>
<asrwt>0</asrwt>
<pdfrwt beam="1">  1       21 0.54406941E-01 0.18209559E+03</pdfrwt>
<pdfrwt beam="2">  1       21 0.19672024E-01 0.18209559E+03</pdfrwt>
<totfact> 0.76311751E+04</totfact>
</mgrwt>
</event>
<event>
 4    1  0.4510095E+000  0.2269350E+03  0.7546771E-02  0.1128816E+00
         21   -1    0    0  503  502  0.00000000000E+00  0.00000000000E+00  0.33095752199E+02  0.33095752199E+02  0.00000000000E+00 0.  1.
         21   -1    0    0  501  503 -0.00000000000E+00 -0.00000000000E+00 -0.22888217346E+04  0.22888217346E+04  0.00000000000E+00 0.  1.
          6    1    1    2  501    0  0.21023975067E+01 -0.14685388096E+03 -0.17847454429E+04  0.17991152766E+04  0.17300000000E+03 0.  1.
         -6    1    1    2    0  502 -0.21023975067E+01  0.14685388096E+03 -0.47098053945E+03  0.52280221018E+03  0.17300000000E+03 0.  1.
<mgrwt>
<rscale>  2 0.22693497E+03</rscale>
<asrwt>0</asrwt>
<pdfrwt beam="1">  1       21 0.50916545E-02 0.22693497E+03</pdfrwt>
<pdfrwt beam="2">  1       21 0.35212640E+00 0.22693497E+03</pdfrwt>
<totfact> 0.42517218E+03</totfact>
</mgrwt>
</event>
<event>
 4    1  0.4510095E+000  0.2950258E+03  0.7546771E-02  0.1087754E+00
         21   -1    0    0  501  502  0.00000000000E+00  0.00000000000E+00  0.20937593096E+03  0.20937593096E+03  0.00000000000E+00 0.  1.
         21   -1    0    0  502  503 -0.00000000000E+00 -0.00000000000E+00 -0.58793603981E+03  0.58793603981E+03  0.00000000000E+00 0.  1.
          6    1    1    2  501    0  0.95835713219E+02 -0.21892176952E+03 -0.40504421205E+03  0.50109982919E+03  0.17300000000E+03 0.  1.
         -6    1    1    2    0  503 -0.95835713219E+02  0.21892176952E+03  0.26484103201E+02  0.29621214158E+03  0.17300000000E+03 0.  1.
<mgrwt>
<rscale>  2 0.29502580E+03</rscale>
<asrwt>0</asrwt>
<pdfrwt beam="1">  1       21 0.32211682E-01 0.29502580E+03</pdfrwt>
<pdfrwt beam="2">  1       21 0.90451698E-01 0.29502580E+03</pdfrwt>
<totfact> 0.90673415E+03</totfact>
</mgrwt>
</event>
<event>
 4    1  0.4510095E+000  0.1894436E+03  0.7546771E-02  0.1158964E+00
         21   -1    0    0  501  502  0.00000000000E+00  0.00000000000E+00  0.90512630491E+02  0.90512630491E+02  0.00000000000E+00 0. -1.
         21   -1    0    0  502  503 -0.00000000000E+00 -0.00000000000E+00 -0.51375689278E+03  0.51375689278E+03  0.00000000000E+00 0.  1.
          6    1    1    2  501    0  0.36955379851E+02 -0.67780259133E+02 -0.67284802435E+02  0.20103757924E+03  0.17300000000E+03 0. -1.
         -6    1    1    2    0  503 -0.36955379851E+02  0.67780259133E+02 -0.35595945986E+03  0.40323194403E+03  0.17300000000E+03 0.  1.
<mgrwt>
<rscale>  2 0.18944356E+03</rscale>
<asrwt>0</asrwt>
<pdfrwt beam="1">  1       21 0.13925020E-01 0.18944356E+03</pdfrwt>
<pdfrwt beam="2">  1       21 0.79039524E-01 0.18944356E+03</pdfrwt>
<totfact> 0.63551234E+04</totfact>
</mgrwt>
</event>
<event>
 4    1  0.4510095E+000  0.1745863E+03  0.7546771E-02  0.1173148E+00
         21   -1    0    0  501  502  0.00000000000E+00  0.00000000000E+00  0.45949423036E+03  0.45949423036E+03  0.00000000000E+00 0.  1.
         21   -1    0    0  502  503 -0.00000000000E+00 -0.00000000000E+00 -0.78443386707E+02  0.78443386707E+02  0.00000000000E+00 0.  1.
          6    1    1    2  501    0 -0.16769867843E+02  0.16436267822E+02  0.29620073493E+03  0.34382445338E+03  0.17300000000E+03 0.  1.
         -6    1    1    2    0  503  0.16769867843E+02 -0.16436267822E+02  0.84850108722E+02  0.19411316369E+03  0.17300000000E+03 0.  1.
<mgrwt>
<rscale>  2 0.17458631E+03</rscale>
<asrwt>0</asrwt>
<pdfrwt beam="1">  1       21 0.70691419E-01 0.17458631E+03</pdfrwt>
<pdfrwt beam="2">  1       21 0.12068214E-01 0.17458631E+03</pdfrwt>
<totfact> 0.10606039E+05</totfact>
</mgrwt>
</event>
<event>
 4    1  0.4510095E+000  0.2209521E+03  0.7546771E-02  0.1133175E+00
         21   -1    0    0  501  502  0.00000000000E+00  0.00000000000E+00  0.42158072188E+02  0.42158072188E+02  0.00000000000E+00 0.  1.
         21   -1    0    0  502  503 -0.00000000000E+00 -0.00000000000E+00 -0.17955032692E+04  0.17955032692E+04  0.00000000000E+00 0.  1.
          6    1    1    2  501    0  0.13210135038E+03  0.37947986575E+02 -0.32918110053E+03  0.39645934647E+03  0.17300000000E+03 0.  1.
         -6    1    1    2    0  503 -0.13210135038E+03 -0.37947986575E+02 -0.14241640965E+04  0.14412019950E+04  0.17300000000E+03 0.  1.
<mgrwt>
<rscale>  2 0.22095207E+03</rscale>
<asrwt>0</asrwt>
<pdfrwt beam="1">  1       21 0.64858576E-02 0.22095207E+03</pdfrwt>
<pdfrwt beam="2">  1       21 0.27623126E+00 0.22095207E+03</pdfrwt>
<totfact> 0.78478422E+03</totfact>
</mgrwt>
</event>
<event>
 4    1  0.4510095E+000  0.2056178E+03  0.7546771E-02  0.1145084E+00
         21   -1    0    0  501  502  0.00000000000E+00  0.00000000000E+00  0.12081014997E+03  0.12081014997E+03  0.00000000000E+00 0.  1.
         21   -1    0    0  502  503 -0.00000000000E+00 -0.00000000000E+00 -0.44892698948E+03  0.44892698948E+03  0.00000000000E+00 0. -1.
          6    1    1    2  501    0  0.69136651057E+02 -0.87004631752E+02 -0.30305725193E+02  0.20783916725E+03  0.17300000000E+03 0.  1.
         -6    1    1    2    0  503 -0.69136651057E+02  0.87004631752E+02 -0.29781111432E+03  0.36189797220E+03  0.17300000000E+03 0. -1.
<mgrwt>
<rscale>  2 0.20561781E+03</rscale>
<asrwt>0</asrwt>
<pdfrwt beam="1">  1       21 0.18586177E-01 0.20561781E+03</pdfrwt>
<pdfrwt beam="2">  1       21 0.69065691E-01 0.20561781E+03</pdfrwt>
<totfact> 0.50175690E+04</totfact>
</mgrwt>
</event>
<event>
 4    1  0.4510095E+000  0.3453869E+03  0.7546771E-02  0.1064525E+00
         21   -1    0    0  503  502  0.00000000000E+00  0.00000000000E+00  0.75055701500E+02  0.75055701500E+02  0.00000000000E+00 0. -1.
         21   -1    0    0  501  503 -0.00000000000E+00 -0.00000000000E+00 -0.18453766536E+04  0.18453766536E+04  0.00000000000E+00 0.  1.
          6    1    1    2  501    0 -0.29811028549E+03 -0.22212317862E+02 -0.52752339782E+03  0.63053395200E+03  0.17300000000E+03 0. -1.
         -6    1    1    2    0  502  0.29811028549E+03  0.22212317862E+02 -0.12427975543E+04  0.12898984031E+04  0.17300000000E+03 0.  1.
<mgrwt>
<rscale>  2 0.34538693E+03</rscale>
<asrwt>0</asrwt>
<pdfrwt beam="1">  1       21 0.11547031E-01 0.34538693E+03</pdfrwt>
<pdfrwt beam="2">  1       21 0.28390409E+00 0.34538693E+03</pdfrwt>
<totfact> 0.23205839E+03</totfact>
</mgrwt>
</event>
<event>
 4    1  0.4510095E+000  0.1753860E+03  0.7546771E-02  0.1172345E+00
         21   -1    0    0  503  502  0.00000000000E+00  0.00000000000E+00  0.85692516610E+02  0.85692516610E+02  0.00000000000E+00 0. -1.
         21   -1    0    0  501  503 -0.00000000000E+00 -0.00000000000E+00 -0.52026379698E+03  0.52026379698E+03  0.00000000000E+00 0. -1.
          6    1    1    2  501    0 -0.57943623825E+01 -0.28242982308E+02 -0.38598791880E+03  0.42396569925E+03  0.17300000000E+03 0. -1.
         -6    1    1    2    0  502  0.57943623825E+01  0.28242982308E+02 -0.48583361573E+02  0.18199061434E+03  0.17300000000E+03 0. -1.
<mgrwt>
<rscale>  2 0.17538598E+03</rscale>
<asrwt>0</asrwt>
<pdfrwt beam="1">  1       21 0.13183464E-01 0.17538598E+03</pdfrwt>
<pdfrwt beam="2">  1       21 0.80040584E-01 0.17538598E+03</pdfrwt>
<totfact> 0.68616977E+04</totfact>
</mgrwt>
</event>
<event>
 4    1  0.4510095E+000  0.1871854E+03  0.7546771E-02  0.1161025E+00
         21   -1    0    0  501  502  0.00000000000E+00  0.00000000000E+00  0.72970361077E+03  0.72970361077E+03  0.00000000000E+00 0. -1.
         21   -1    0    0  502  503 -0.00000000000E+00 -0.00000000000E+00 -0.51137924021E+02  0.51137924021E+02  0.00000000000E+00 0.  1.
          6    1    1    2  501    0  0.36296756363E+02 -0.61578590447E+02  0.43572879041E+03  0.47423407313E+03  0.17300000000E+03 0. -1.
         -6    1    1    2    0  503 -0.36296756363E+02  0.61578590447E+02  0.24283689634E+03  0.30660746166E+03  0.17300000000E+03 0.  1.
<mgrwt>
<rscale>  2 0.18718541E+03</rscale>
<asrwt>0</asrwt>
<pdfrwt beam="1">  1       21 0.11226209E+00 0.18718541E+03</pdfrwt>
<pdfrwt beam="2">  1       21 0.78673735E-02 0.18718541E+03</pdfrwt>
<totfact> 0.76993292E+04</totfact>
</mgrwt>
</event>
<event>
 4    1  0.4510095E+000  0.2062223E+03  0.7546771E-02  0.1144593E+00
         21   -1    0    0  503  502  0.00000000000E+00  0.00000000000E+00  0.43108862815E+03  0.43108862815E+03  0.00000000000E+00 0. -1.
         21   -1    0    0  501  503 -0.00000000000E+00 -0.00000000000E+00 -0.11774931071E+03  0.11774931071E+03  0.00000000000E+00 0. -1.
          6    1    1    2  501    0  0.99472646284E+02 -0.51998223668E+02  0.46153813381E+02  0.21132391515E+03  0.17300000000E+03 0. -1.
         -6    1    1    2    0  502 -0.99472646284E+02  0.51998223668E+02  0.26718550406E+03  0.33751402371E+03  0.17300000000E+03 0. -1.
<mgrwt>
<rscale>  2 0.20622227E+03</rscale>
<asrwt>0</asrwt>
<pdfrwt beam="1">  1       21 0.66321327E-01 0.20622227E+03</pdfrwt>
<pdfrwt beam="2">  1       21 0.18115279E-01 0.20622227E+03</pdfrwt>
<totfact> 0.57504760E+04</totfact>
</mgrwt>
</event>
<event>
 4    1  0.4510095E+000  0.1788990E+03  0.7546771E-02  0.1168873E+00
         21   -1    0    0  501  502  0.00000000000E+00  0.00000000000E+00  0.10814548397E+04  0.10814548397E+04  0.00000000000E+00 0. -1.
         21   -1    0    0  502  503 -0.00000000000E+00 -0.00000000000E+00 -0.29965730898E+02  0.29965730898E+02  0.00000000000E+00 0. -1.
          6    1    1    2  501    0  0.45148453950E+02 -0.61200434221E+01  0.58761853531E+03  0.61424781714E+03  0.17300000000E+03 0.  1.
         -6    1    1    2    0  503 -0.45148453950E+02  0.61200434221E+01  0.46387057348E+03  0.49717275344E+03  0.17300000000E+03 0.  1.
<mgrwt>
<rscale>  2 0.17889896E+03</rscale>
<asrwt>0</asrwt>
<pdfrwt beam="1">  1       21 0.16637764E+00 0.17889896E+03</pdfrwt>
<pdfrwt beam="2">  1       21 0.46101133E-02 0.17889896E+03</pdfrwt>
<totfact> 0.70384367E+04</totfact>
</mgrwt>
</event>
<event>
 4    1  0.4510095E+000  0.1785438E+03  0.7546771E-02  0.1169220E+00
         21   -1    0    0  501  502  0.00000000000E+00  0.00000000000E+00  0.30107332424E+04  0.30107332424E+04  0.00000000000E+00 0.  1.
         21   -1    0    0  502  503 -0.00000000000E+00 -0.00000000000E+00 -0.11867641653E+02  0.11867641653E+02  0.00000000000E+00 0.  1.
          6    1    1    2  501    0  0.39545987813E+02  0.19621697208E+02  0.19956805435E+04  0.20036513488E+04  0.17300000000E+03 0.  1.
         -6    1    1    2    0  503 -0.39545987813E+02 -0.19621697208E+02  0.10031850573E+04  0.10189495352E+04  0.17300000000E+03 0.  1.
<mgrwt>
<rscale>  2 0.17854382E+03</rscale>
<asrwt>0</asrwt>
<pdfrwt beam="1">  1       21 0.46318912E+00 0.17854382E+03</pdfrwt>
<pdfrwt beam="2">  1       21 0.18257934E-02 0.17854382E+03</pdfrwt>
<totfact> 0.49515359E+03</totfact>
</mgrwt>
</event>
<event>
 4    1  0.4510095E+000  0.2153968E+03  0.7546771E-02  0.1137362E+00
         21   -1    0    0  503  502  0.00000000000E+00  0.00000000000E+00  0.11479829452E+04  0.11479829452E+04  0.00000000000E+00 0.  1.
         21   -1    0    0  501  503 -0.00000000000E+00 -0.00000000000E+00 -0.40592946194E+02  0.40592946194E+02  0.00000000000E+00 0.  1.
          6    1    1    2  501    0 -0.36667867466E+02 -0.12297247571E+03  0.59303935542E+03  0.63094487822E+03  0.17300000000E+03 0.  1.
         -6    1    1    2    0  502  0.36667867466E+02  0.12297247571E+03  0.51435064359E+03  0.55763101317E+03  0.17300000000E+03 0.  1.
<mgrwt>
<rscale>  2 0.21539676E+03</rscale>
<asrwt>0</asrwt>
<pdfrwt beam="1">  1       21 0.17661274E+00 0.21539676E+03</pdfrwt>
<pdfrwt beam="2">  1       21 0.62450695E-02 0.21539676E+03</pdfrwt>
<totfact> 0.34828207E+04</totfact>
</mgrwt>
</event>
<event>
 4    1  0.4510095E+000  0.3003066E+03  0.7546771E-02  0.1085087E+00
         21   -1    0    0  501  502  0.00000000000E+00  0.00000000000E+00  0.42192400234E+02  0.42192400234E+02  0.00000000000E+00 0.  1.
         21   -1    0    0  502  503 -0.00000000000E+00 -0.00000000000E+00 -0.21840303109E+04  0.21840303109E+04  0.00000000000E+00 0. -1.
          6    1    1    2  501    0 -0.16145737411E+03 -0.18489613276E+03 -0.90835675491E+03  0.95671106284E+03  0.17300000000E+03 0.  1.
         -6    1    1    2    0  503  0.16145737411E+03  0.18489613276E+03 -0.12334811558E+04  0.12695116483E+04  0.17300000000E+03 0.  1.
<mgrwt>
<rscale>  2 0.30030662E+03</rscale>
<asrwt>0</asrwt>
<pdfrwt beam="1">  1       21 0.64911374E-02 0.30030662E+03</pdfrwt>
<pdfrwt beam="2">  1       21 0.33600472E+00 0.30030662E+03</pdfrwt>
<totfact> 0.32617731E+03</totfact>
</mgrwt>
</event>
<event>
 4    1  0.4510095E+000  0.1997853E+03  0.7546771E-02  0.1149920E+00
         21   -1    0    0  501  502  0.00000000000E+00  0.00000000000E+00  0.12142988281E+03  0.12142988281E+03  0.00000000000E+00 0.  1.
         21   -1    0    0  502  503 -0.00000000000E+00 -0.00000000000E+00 -0.33011285523E+03  0.33011285523E+03  0.00000000000E+00 0. -1.
          6    1    1    2  501    0 -0.41527354650E+02 -0.90887998059E+02 -0.11910536505E+03  0.23259457723E+03  0.17300000000E+03 0. -1.
         -6    1    1    2    0  503  0.41527354650E+02  0.90887998059E+02 -0.89577607374E+02  0.21894816080E+03  0.17300000000E+03 0. -1.
<mgrwt>
<rscale>  2 0.19978526E+03</rscale>
<asrwt>0</asrwt>
<pdfrwt beam="1">  1       21 0.18681520E-01 0.19978526E+03</pdfrwt>
<pdfrwt beam="2">  1       21 0.50786593E-01 0.19978526E+03</pdfrwt>
<totfact> 0.96381534E+04</totfact>
</mgrwt>
</event>
<event>
 4    1  0.4510095E+000  0.2538025E+03  0.7546771E-02  0.1110925E+00
         21   -1    0    0  501  502  0.00000000000E+00  0.00000000000E+00  0.62483761799E+03  0.62483761799E+03  0.00000000000E+00 0. -1.
         21   -1    0    0  502  503 -0.00000000000E+00 -0.00000000000E+00 -0.16365411676E+03  0.16365411676E+03  0.00000000000E+00 0.  1.
          6    1    1    2  501    0  0.58590386941E+02 -0.17622106409E+03  0.47042233518E+03  0.53452115983E+03  0.17300000000E+03 0. -1.
         -6    1    1    2    0  503 -0.58590386941E+02  0.17622106409E+03 -0.92388339510E+01  0.25397057492E+03  0.17300000000E+03 0.  1.
<mgrwt>
<rscale>  2 0.25380248E+03</rscale>
<asrwt>0</asrwt>
<pdfrwt beam="1">  1       21 0.96128863E-01 0.25380248E+03</pdfrwt>
<pdfrwt beam="2">  1       21 0.25177557E-01 0.25380248E+03</pdfrwt>
<totfact> 0.12977715E+04</totfact>
</mgrwt>
</event>
<event>
 4    1  0.4510095E+000  0.1859044E+03  0.7546771E-02  0.1162208E+00
         21   -1    0    0  503  502  0.00000000000E+00  0.00000000000E+00  0.31735057993E+03  0.31735057993E+03  0.00000000000E+00 0.  1.
         21   -1    0    0  501  503 -0.00000000000E+00 -0.00000000000E+00 -0.16248963308E+03  0.16248963308E+03  0.00000000000E+00 0.  1.
          6    1    1    2  501    0  0.57617214123E+02 -0.36217359168E+02  0.21520912208E+03  0.28438601705E+03  0.17300000000E+03 0.  1.
         -6    1    1    2    0  502 -0.57617214123E+02  0.36217359168E+02 -0.60348175225E+02  0.19545419597E+03  0.17300000000E+03 0.  1.
<mgrwt>
<rscale>  2 0.18590439E+03</rscale>
<asrwt>0</asrwt>
<pdfrwt beam="1">  1       21 0.48823166E-01 0.18590439E+03</pdfrwt>
<pdfrwt beam="2">  1       21 0.24998405E-01 0.18590439E+03</pdfrwt>
<totfact> 0.60837667E+04</totfact>
</mgrwt>
</event>
<event>
 4    1  0.4510095E+000  0.1994521E+03  0.7546771E-02  0.1150202E+00
         21   -1    0    0  503  502  0.00000000000E+00  0.00000000000E+00  0.13244265638E+03  0.13244265638E+03  0.00000000000E+00 0. -1.
         21   -1    0    0  501  503 -0.00000000000E+00 -0.00000000000E+00 -0.74119748002E+03  0.74119748002E+03  0.00000000000E+00 0. -1.
          6    1    1    2  501    0  0.93839390303E+02  0.32346449248E+02 -0.64125526593E+03  0.67155747337E+03  0.17300000000E+03 0. -1.
         -6    1    1    2    0  502 -0.93839390303E+02 -0.32346449248E+02  0.32500442287E+02  0.20208266304E+03  0.17300000000E+03 0. -1.
<mgrwt>
<rscale>  2 0.19945206E+03</rscale>
<asrwt>0</asrwt>
<pdfrwt beam="1">  1       21 0.20375793E-01 0.19945206E+03</pdfrwt>
<pdfrwt beam="2">  1       21 0.11403038E+00 0.19945206E+03</pdfrwt>
<totfact> 0.13280369E+04</totfact>
</mgrwt>
</event>
<event>
 4    1  0.4510095E+000  0.7158840E+03  0.7546771E-02  0.9690448E-01
         21   -1    0    0  503  502  0.00000000000E+00  0.00000000000E+00  0.11587527725E+04  0.11587527725E+04  0.00000000000E+00 0. -1.
         21   -1    0    0  501  503 -0.00000000000E+00 -0.00000000000E+00 -0.44656843602E+03  0.44656843602E+03  0.00000000000E+00 0.  1.
          6    1    1    2  501    0  0.54076330643E+03 -0.43604573545E+03  0.27740874005E+03  0.76775350604E+03  0.17300000000E+03 0.  1.
         -6    1    1    2    0  502 -0.54076330643E+03  0.43604573545E+03  0.43477559643E+03  0.83756770248E+03  0.17300000000E+03 0. -1.
<mgrwt>
<rscale>  2 0.71588395E+03</rscale>
<asrwt>0</asrwt>
<pdfrwt beam="1">  1       21 0.17826966E+00 0.71588395E+03</pdfrwt>
<pdfrwt beam="2">  1       21 0.68702837E-01 0.71588395E+03</pdfrwt>
<totfact> 0.26658648E+02</totfact>
</mgrwt>
</event>
<event>
 4    1  0.4510095E+000  0.1761928E+03  0.7546771E-02  0.1171539E+00
         21   -1    0    0  503  502  0.00000000000E+00  0.00000000000E+00  0.42885596559E+02  0.42885596559E+02  0.00000000000E+00 0.  1.
         21   -1    0    0  501  503 -0.00000000000E+00 -0.00000000000E+00 -0.84280958989E+03  0.84280958989E+03  0.00000000000E+00 0.  1.
          6    1    1    2  501    0 -0.32548772003E+02 -0.74495549814E+01 -0.56631823038E+03  0.59309380075E+03  0.17300000000E+03 0. -1.
         -6    1    1    2    0  502  0.32548772003E+02  0.74495549814E+01 -0.23360576295E+03  0.29260138569E+03  0.17300000000E+03 0. -1.
<mgrwt>
<rscale>  2 0.17619284E+03</rscale>
<asrwt>0</asrwt>
<pdfrwt beam="1">  1       21 0.65977839E-02 0.17619284E+03</pdfrwt>
<pdfrwt beam="2">  1       21 0.12966302E+00 0.17619284E+03</pdfrwt>
<totfact> 0.73471684E+04</totfact>
</mgrwt>
</event>
<event>
 4    1  0.4510095E+000  0.2142379E+03  0.7546771E-02  0.1138253E+00
         21   -1    0    0  501  502  0.00000000000E+00  0.00000000000E+00  0.78061607672E+02  0.78061607672E+02  0.00000000000E+00 0. -1.
         21   -1    0    0  502  503 -0.00000000000E+00 -0.00000000000E+00 -0.96041350585E+03  0.96041350585E+03  0.00000000000E+00 0. -1.
          6    1    1    2  501    0  0.72424885784E+02 -0.10355442850E+03 -0.11783018996E+03  0.24450324621E+03  0.17300000000E+03 0. -1.
         -6    1    1    2    0  503 -0.72424885784E+02  0.10355442850E+03 -0.76452170821E+03  0.79397186730E+03  0.17300000000E+03 0. -1.
<mgrwt>
<rscale>  2 0.21423791E+03</rscale>
<asrwt>0</asrwt>
<pdfrwt beam="1">  1       21 0.12009478E-01 0.21423791E+03</pdfrwt>
<pdfrwt beam="2">  1       21 0.14775593E+00 0.21423791E+03</pdfrwt>
<totfact> 0.17961296E+04</totfact>
</mgrwt>
</event>
<event>
 4    1  0.4510095E+000  0.1744070E+03  0.7546771E-02  0.1173328E+00
         21   -1    0    0  501  502  0.00000000000E+00  0.00000000000E+00  0.31573733456E+03  0.31573733456E+03  0.00000000000E+00 0. -1.
         21   -1    0    0  502  503 -0.00000000000E+00 -0.00000000000E+00 -0.79933475367E+03  0.79933475367E+03  0.00000000000E+00 0. -1.
          6    1    1    2  501    0  0.32681692375E+01 -0.21865825423E+02  0.28106075716E+03  0.33077627555E+03  0.17300000000E+03 0. -1.
         -6    1    1    2    0  503 -0.32681692375E+01  0.21865825423E+02 -0.76465817627E+03  0.78429581268E+03  0.17300000000E+03 0. -1.
<mgrwt>
<rscale>  2 0.17440698E+03</rscale>
<asrwt>0</asrwt>
<pdfrwt beam="1">  1       21 0.48574975E-01 0.17440698E+03</pdfrwt>
<pdfrwt beam="2">  1       21 0.12297458E+00 0.17440698E+03</pdfrwt>
<totfact> 0.20463783E+03</totfact>
</mgrwt>
</event>
<event>
 4    1  0.4510095E+000  0.1914505E+03  0.7546771E-02  0.1157160E+00
         21   -1    0    0  503  502  0.00000000000E+00  0.00000000000E+00  0.16329664218E+03  0.16329664218E+03  0.00000000000E+00 0. -1.
         21   -1    0    0  501  503 -0.00000000000E+00 -0.00000000000E+00 -0.49646766039E+03  0.49646766039E+03  0.00000000000E+00 0. -1.
          6    1    1    2  501    0 -0.81455315456E+02 -0.94506448347E+01 -0.41076280409E+03  0.45318800108E+03  0.17300000000E+03 0. -1.
         -6    1    1    2    0  502  0.81455315456E+02  0.94506448347E+01  0.77591785877E+02  0.20657630149E+03  0.17300000000E+03 0. -1.
<mgrwt>
<rscale>  2 0.19145047E+03</rscale>
<asrwt>0</asrwt>
<pdfrwt beam="1">  1       21 0.25122561E-01 0.19145047E+03</pdfrwt>
<pdfrwt beam="2">  1       21 0.76379637E-01 0.19145047E+03</pdfrwt>
<totfact> 0.22922211E+04</totfact>
</mgrwt>
</event>
<event>
 4    1  0.4510095E+000  0.2015788E+03  0.7546771E-02  0.1148414E+00
         21   -1    0    0  501  502  0.00000000000E+00  0.00000000000E+00  0.16081784280E+02  0.16081784280E+02  0.00000000000E+00 0. -1.
         21   -1    0    0  502  503 -0.00000000000E+00 -0.00000000000E+00 -0.25297253738E+04  0.25297253738E+04  0.00000000000E+00 0. -1.
          6    1    1    2  501    0 -0.10007651413E+03 -0.26262298565E+02 -0.12128801474E+04  0.12295170877E+04  0.17300000000E+03 0. -1.
         -6    1    1    2    0  503  0.10007651413E+03  0.26262298565E+02 -0.13007634421E+04  0.13162900704E+04  0.17300000000E+03 0. -1.
<mgrwt>
<rscale>  2 0.20157881E+03</rscale>
<asrwt>0</asrwt>
<pdfrwt beam="1">  1       21 0.24741218E-02 0.20157881E+03</pdfrwt>
<pdfrwt beam="2">  1       21 0.38918833E+00 0.20157881E+03</pdfrwt>
<totfact> 0.87355168E+03</totfact>
</mgrwt>
</event>
<event>
 4    1  0.4510095E+000  0.2100346E+03  0.7546771E-02  0.1141539E+00
         21   -1    0    0  503  502  0.00000000000E+00  0.00000000000E+00  0.93220677937E+03  0.93220677937E+03  0.00000000000E+00 0.  1.
         21   -1    0    0  501  503 -0.00000000000E+00 -0.00000000000E+00 -0.76392130082E+03  0.76392130082E+03  0.00000000000E+00 0.  1.
          6    1    1    2  501    0 -0.84246982413E+02  0.84190099785E+02 -0.73723385150E+03  0.76656916110E+03  0.17300000000E+03 0.  1.
         -6    1    1    2    0  502  0.84246982413E+02 -0.84190099785E+02  0.90551933006E+03  0.92955891909E+03  0.17300000000E+03 0.  1.
<mgrwt>
<rscale>  2 0.21003459E+03</rscale>
<asrwt>0</asrwt>
<pdfrwt beam="1">  1       21 0.14341643E+00 0.21003459E+03</pdfrwt>
<pdfrwt beam="2">  1       21 0.11752635E+00 0.21003459E+03</pdfrwt>
<totfact> 0.18286473E+02</totfact>
</mgrwt>
</event>
<event>
 4    1  0.4510095E+000  0.2867154E+03  0.7546771E-02  0.1092077E+00
         21   -1    0    0  503  502  0.00000000000E+00  0.00000000000E+00  0.37334220676E+03  0.37334220676E+03  0.00000000000E+00 0. -1.
         21   -1    0    0  501  503 -0.00000000000E+00 -0.00000000000E+00 -0.24092246397E+03  0.24092246397E+03  0.00000000000E+00 0.  1.
          6    1    1    2  501    0  0.11122515306E+03 -0.19976400522E+03 -0.23890621564E+02  0.28770897493E+03  0.17300000000E+03 0.  1.
         -6    1    1    2    0  502 -0.11122515306E+03  0.19976400522E+03  0.15631036436E+03  0.32655569580E+03  0.17300000000E+03 0. -1.
<mgrwt>
<rscale>  2 0.28671535E+03</rscale>
<asrwt>0</asrwt>
<pdfrwt beam="1">  1       21 0.57437263E-01 0.28671535E+03</pdfrwt>
<pdfrwt beam="2">  1       21 0.37064994E-01 0.28671535E+03</pdfrwt>
<totfact> 0.19033711E+04</totfact>
</mgrwt>
</event>
<event>
 4    1  0.4510095E+000  0.1876762E+03  0.7546771E-02  0.1160574E+00
         21   -1    0    0  501  502  0.00000000000E+00  0.00000000000E+00  0.76406203581E+02  0.76406203581E+02  0.00000000000E+00 0. -1.
         21   -1    0    0  502  503 -0.00000000000E+00 -0.00000000000E+00 -0.46421580494E+03  0.46421580494E+03  0.00000000000E+00 0. -1.
          6    1    1    2  501    0 -0.45093514940E+02 -0.57095950817E+02 -0.17136597719E+03  0.25414301255E+03  0.17300000000E+03 0. -1.
         -6    1    1    2    0  503  0.45093514940E+02  0.57095950817E+02 -0.21644362416E+03  0.28647899597E+03  0.17300000000E+03 0. -1.
<mgrwt>
<rscale>  2 0.18767624E+03</rscale>
<asrwt>0</asrwt>
<pdfrwt beam="1">  1       21 0.11754800E-01 0.18767624E+03</pdfrwt>
<pdfrwt beam="2">  1       21 0.71417817E-01 0.18767624E+03</pdfrwt>
<totfact> 0.10813606E+05</totfact>
</mgrwt>
</event>
<event>
 4    1  0.4510095E+000  0.1902114E+03  0.7546771E-02  0.1158271E+00
         21   -1    0    0  501  502  0.00000000000E+00  0.00000000000E+00  0.16130490334E+03  0.16130490334E+03  0.00000000000E+00 0.  1.
         21   -1    0    0  502  503 -0.00000000000E+00 -0.00000000000E+00 -0.22507922585E+03  0.22507922585E+03  0.00000000000E+00 0. -1.
          6    1    1    2  501    0 -0.76552544517E+02  0.19776312573E+02 -0.20506626874E+02  0.19131365962E+03  0.17300000000E+03 0.  1.
         -6    1    1    2    0  503  0.76552544517E+02 -0.19776312573E+02 -0.43267695636E+02  0.19507046957E+03  0.17300000000E+03 0. -1.
<mgrwt>
<rscale>  2 0.19021145E+03</rscale>
<asrwt>0</asrwt>
<pdfrwt beam="1">  1       21 0.24816139E-01 0.19021145E+03</pdfrwt>
<pdfrwt beam="2">  1       21 0.34627573E-01 0.19021145E+03</pdfrwt>
<totfact> 0.12358757E+05</totfact>
</mgrwt>
</event>
<event>
 4    1  0.4510095E+000  0.2727800E+03  0.7546771E-02  0.1099699E+00
         21   -1    0    0  501  502  0.00000000000E+00  0.00000000000E+00  0.12395972545E+03  0.12395972545E+03  0.00000000000E+00 0.  1.
         21   -1    0    0  502  503 -0.00000000000E+00 -0.00000000000E+00 -0.65871989905E+03  0.65871989905E+03  0.00000000000E+00 0.  1.
          6    1    1    2  501    0  0.18803547103E+03  0.95512234514E+02 -0.15080469480E+03  0.31169052164E+03  0.17300000000E+03 0.  1.
         -6    1    1    2    0  503 -0.18803547103E+03 -0.95512234514E+02 -0.38395547880E+03  0.47098910286E+03  0.17300000000E+03 0.  1.
<mgrwt>
<rscale>  2 0.27277999E+03</rscale>
<asrwt>0</asrwt>
<pdfrwt beam="1">  1       21 0.19070727E-01 0.27277999E+03</pdfrwt>
<pdfrwt beam="2">  1       21 0.10134152E+00 0.27277999E+03</pdfrwt>
<totfact> 0.19206929E+04</totfact>
</mgrwt>
</event>
<event>
 4    1  0.4510095E+000  0.2066203E+03  0.7546771E-02  0.1144271E+00
         21   -1    0    0  503  502  0.00000000000E+00  0.00000000000E+00  0.96697818192E+02  0.96697818192E+02  0.00000000000E+00 0. -1.
         21   -1    0    0  501  503 -0.00000000000E+00 -0.00000000000E+00 -0.94328436941E+03  0.94328436941E+03  0.00000000000E+00 0.  1.
          6    1    1    2  501    0  0.28917710326E+02  0.10920940568E+03 -0.80255049789E+03  0.82872144290E+03  0.17300000000E+03 0.  1.
         -6    1    1    2    0  502 -0.28917710326E+02 -0.10920940568E+03 -0.44036053330E+02  0.21126074470E+03  0.17300000000E+03 0. -1.
<mgrwt>
<rscale>  2 0.20662025E+03</rscale>
<asrwt>0</asrwt>
<pdfrwt beam="1">  1       21 0.14876587E-01 0.20662025E+03</pdfrwt>
<pdfrwt beam="2">  1       21 0.14512067E+00 0.20662025E+03</pdfrwt>
<totfact> 0.12851609E+04</totfact>
</mgrwt>
</event>
<event>
 4    1  0.4510095E+000  0.1858551E+03  0.7546771E-02  0.1162254E+00
         21   -1    0    0  503  502  0.00000000000E+00  0.00000000000E+00  0.16729963634E+03  0.16729963634E+03  0.00000000000E+00 0. -1.
         21   -1    0    0  501  503 -0.00000000000E+00 -0.00000000000E+00 -0.21739674010E+03  0.21739674010E+03  0.00000000000E+00 0. -1.
          6    1    1    2  501    0  0.56439182350E+02  0.37785261638E+02 -0.68174278220E+02  0.19796423796E+03  0.17300000000E+03 0.  1.
         -6    1    1    2    0  502 -0.56439182350E+02 -0.37785261638E+02  0.18077174459E+02  0.18673213847E+03  0.17300000000E+03 0.  1.
<mgrwt>
<rscale>  2 0.18585507E+03</rscale>
<asrwt>0</asrwt>
<pdfrwt beam="1">  1       21 0.25738406E-01 0.18585507E+03</pdfrwt>
<pdfrwt beam="2">  1       21 0.33445652E-01 0.18585507E+03</pdfrwt>
<totfact> 0.12364038E+05</totfact>
</mgrwt>
</event>
<event>
 4    1  0.4510095E+000  0.2260455E+03  0.7546771E-02  0.1129454E+00
         21   -1    0    0  503  502  0.00000000000E+00  0.00000000000E+00  0.19045095567E+04  0.19045095567E+04  0.00000000000E+00 0. -1.
         21   -1    0    0  501  503 -0.00000000000E+00 -0.00000000000E+00 -0.84144112950E+02  0.84144112950E+02  0.00000000000E+00 0.  1.
          6    1    1    2  501    0  0.43672084683E+02  0.13878160189E+03  0.89546127403E+02  0.24313595566E+03  0.17300000000E+03 0.  1.
         -6    1    1    2    0  502 -0.43672084683E+02 -0.13878160189E+03  0.17308193163E+04  0.17455177140E+04  0.17300000000E+03 0. -1.
<mgrwt>
<rscale>  2 0.22604554E+03</rscale>
<asrwt>0</asrwt>
<pdfrwt beam="1">  1       21 0.29300144E+00 0.22604554E+03</pdfrwt>
<pdfrwt beam="2">  1       21 0.12945250E-01 0.22604554E+03</pdfrwt>
<totfact> 0.18442950E+03</totfact>
</mgrwt>
</event>
<event>
 4    1  0.4510095E+000  0.2151953E+03  0.7546771E-02  0.1137517E+00
         21   -1    0    0  503  502  0.00000000000E+00  0.00000000000E+00  0.83864998885E+03  0.83864998885E+03  0.00000000000E+00 0. -1.
         21   -1    0    0  501  503 -0.00000000000E+00 -0.00000000000E+00 -0.15898923808E+03  0.15898923808E+03  0.00000000000E+00 0. -1.
          6    1    1    2  501    0 -0.68366160205E+01  0.12780166850E+03 -0.63162234337E+02  0.22427321203E+03  0.17300000000E+03 0. -1.
         -6    1    1    2    0  502  0.68366160205E+01 -0.12780166850E+03  0.74282298510E+03  0.77336601489E+03  0.17300000000E+03 0. -1.
<mgrwt>
<rscale>  2 0.21519527E+03</rscale>
<asrwt>0</asrwt>
<pdfrwt beam="1">  1       21 0.12902307E+00 0.21519527E+03</pdfrwt>
<pdfrwt beam="2">  1       21 0.24459883E-01 0.21519527E+03</pdfrwt>
<totfact> 0.68388819E+03</totfact>
</mgrwt>
</event>
<event>
 4    1  0.4510095E+000  0.1997862E+03  0.7546771E-02  0.1149920E+00
         21   -1    0    0  503  502  0.00000000000E+00  0.00000000000E+00  0.19449617136E+02  0.19449617136E+02  0.00000000000E+00 0.  1.
         21   -1    0    0  501  503 -0.00000000000E+00 -0.00000000000E+00 -0.23105172516E+04  0.23105172516E+04  0.00000000000E+00 0.  1.
          6    1    1    2  501    0 -0.67659625916E+00  0.99925265685E+02 -0.15350641840E+04  0.15480105185E+04  0.17300000000E+03 0.  1.
         -6    1    1    2    0  502  0.67659625916E+00 -0.99925265685E+02 -0.75600345053E+03  0.78195635026E+03  0.17300000000E+03 0.  1.
<mgrwt>
<rscale>  2 0.19978618E+03</rscale>
<asrwt>0</asrwt>
<pdfrwt beam="1">  1       21 0.29922493E-02 0.19978618E+03</pdfrwt>
<pdfrwt beam="2">  1       21 0.35546413E+00 0.19978618E+03</pdfrwt>
<totfact> 0.10228656E+04</totfact>
</mgrwt>
</event>
<event>
 4    1  0.4510095E+000  0.1791699E+03  0.7546771E-02  0.1168609E+00
         21   -1    0    0  501  502  0.00000000000E+00  0.00000000000E+00  0.60255218344E+03  0.60255218344E+03  0.00000000000E+00 0.  1.
         21   -1    0    0  502  503 -0.00000000000E+00 -0.00000000000E+00 -0.91188736627E+02  0.91188736627E+02  0.00000000000E+00 0.  1.
          6    1    1    2  501    0 -0.33236012218E+02  0.32683630443E+02  0.47934083861E+03  0.51173185534E+03  0.17300000000E+03 0.  1.
         -6    1    1    2    0  503  0.33236012218E+02 -0.32683630443E+02  0.32022608200E+02  0.18200906473E+03  0.17300000000E+03 0.  1.
<mgrwt>
<rscale>  2 0.17916990E+03</rscale>
<asrwt>0</asrwt>
<pdfrwt beam="1">  1       21 0.92700334E-01 0.17916990E+03</pdfrwt>
<pdfrwt beam="2">  1       21 0.14029037E-01 0.17916990E+03</pdfrwt>
<totfact> 0.43752023E+04</totfact>
</mgrwt>
</event>
<event>
 4    1  0.4510095E+000  0.1966078E+03  0.7546771E-02  0.1152633E+00
         21   -1    0    0  501  502  0.00000000000E+00  0.00000000000E+00  0.17954590623E+02  0.17954590623E+02  0.00000000000E+00 0. -1.
         21   -1    0    0  502  503 -0.00000000000E+00 -0.00000000000E+00 -0.21642565194E+04  0.21642565194E+04  0.00000000000E+00 0. -1.
          6    1    1    2  501    0 -0.56987248469E+02  0.74014139718E+02 -0.99415213947E+03  0.10134066882E+04  0.17300000000E+03 0. -1.
         -6    1    1    2    0  503  0.56987248469E+02 -0.74014139718E+02 -0.11521497893E+04  0.11688044218E+04  0.17300000000E+03 0. -1.
<mgrwt>
<rscale>  2 0.19660783E+03</rscale>
<asrwt>0</asrwt>
<pdfrwt beam="1">  1       21 0.27622453E-02 0.19660783E+03</pdfrwt>
<pdfrwt beam="2">  1       21 0.33296247E+00 0.19660783E+03</pdfrwt>
<totfact> 0.15891664E+04</totfact>
</mgrwt>
</event>
<event>
 4    1  0.4510095E+000  0.2161870E+03  0.7546771E-02  0.1136758E+00
         21   -1    0    0  501  502  0.00000000000E+00  0.00000000000E+00  0.67848376610E+02  0.67848376610E+02  0.00000000000E+00 0. -1.
         21   -1    0    0  502  503 -0.00000000000E+00 -0.00000000000E+00 -0.72796411354E+03  0.72796411354E+03  0.00000000000E+00 0. -1.
          6    1    1    2  501    0 -0.95526714984E+02  0.87649686242E+02 -0.23781428601E+03  0.32139143642E+03  0.17300000000E+03 0. -1.
         -6    1    1    2    0  503  0.95526714984E+02 -0.87649686242E+02 -0.42230145092E+03  0.47442105373E+03  0.17300000000E+03 0. -1.
<mgrwt>
<rscale>  2 0.21618700E+03</rscale>
<asrwt>0</asrwt>
<pdfrwt beam="1">  1       21 0.10438213E-01 0.21618700E+03</pdfrwt>
<pdfrwt beam="2">  1       21 0.11199447E+00 0.21618700E+03</pdfrwt>
<totfact> 0.46457439E+04</totfact>
</mgrwt>
</event>
<event>
 4    1  0.4510095E+000  0.1852178E+03  0.7546771E-02  0.1162847E+00
         21   -1    0    0  503  502  0.00000000000E+00  0.00000000000E+00  0.15553318582E+03  0.15553318582E+03  0.00000000000E+00 0.  1.
         21   -1    0    0  501  503 -0.00000000000E+00 -0.00000000000E+00 -0.30739620027E+03  0.30739620027E+03  0.00000000000E+00 0.  1.
          6    1    1    2  501    0  0.65083224139E+02 -0.11866828958E+02 -0.19894870865E+03  0.27182022803E+03  0.17300000000E+03 0.  1.
         -6    1    1    2    0  502 -0.65083224139E+02  0.11866828958E+02  0.47085694197E+02  0.19110915805E+03  0.17300000000E+03 0.  1.
<mgrwt>
<rscale>  2 0.18521784E+03</rscale>
<asrwt>0</asrwt>
<pdfrwt beam="1">  1       21 0.23928183E-01 0.18521784E+03</pdfrwt>
<pdfrwt beam="2">  1       21 0.47291723E-01 0.18521784E+03</pdfrwt>
<totfact> 0.70652578E+04</totfact>
</mgrwt>
</event>
<event>
 4    1  0.4510095E+000  0.2190576E+03  0.7546771E-02  0.1134588E+00
         21   -1    0    0  501  502  0.00000000000E+00  0.00000000000E+00  0.23191643963E+03  0.23191643963E+03  0.00000000000E+00 0.  1.
         21   -1    0    0  502  503 -0.00000000000E+00 -0.00000000000E+00 -0.59803995381E+03  0.59803995381E+03  0.00000000000E+00 0.  1.
          6    1    1    2  501    0 -0.86130854282E+02 -0.10314415193E+03  0.15253653138E+03  0.26693376246E+03  0.17300000000E+03 0.  1.
         -6    1    1    2    0  503  0.86130854282E+02  0.10314415193E+03 -0.51866004556E+03  0.56302263098E+03  0.17300000000E+03 0.  1.
<mgrwt>
<rscale>  2 0.21905762E+03</rscale>
<asrwt>0</asrwt>
<pdfrwt beam="1">  1       21 0.35679452E-01 0.21905762E+03</pdfrwt>
<pdfrwt beam="2">  1       21 0.92006146E-01 0.21905762E+03</pdfrwt>
<totfact> 0.74195907E+03</totfact>
</mgrwt>
</event>
<event>
 4    1  0.4510095E+000  0.1809095E+03  0.7546771E-02  0.1166926E+00
         21   -1    0    0  501  502  0.00000000000E+00  0.00000000000E+00  0.37628124154E+03  0.37628124154E+03  0.00000000000E+00 0. -1.
         21   -1    0    0  502  503 -0.00000000000E+00 -0.00000000000E+00 -0.21360877838E+03  0.21360877838E+03  0.00000000000E+00 0. -1.
          6    1    1    2  501    0 -0.46123351999E+02 -0.25920871055E+02  0.30842771397E+03  0.35756944766E+03  0.17300000000E+03 0. -1.
         -6    1    1    2    0  503  0.46123351999E+02  0.25920871055E+02 -0.14575525081E+03  0.23232057226E+03  0.17300000000E+03 0. -1.
<mgrwt>
<rscale>  2 0.18090952E+03</rscale>
<asrwt>0</asrwt>
<pdfrwt beam="1">  1       21 0.57889422E-01 0.18090952E+03</pdfrwt>
<pdfrwt beam="2">  1       21 0.32862889E-01 0.18090952E+03</pdfrwt>
<totfact> 0.25102932E+04</totfact>
</mgrwt>
</event>
<event>
 4    1  0.4510095E+000  0.2466243E+03  0.7546771E-02  0.1115457E+00
         21   -1    0    0  501  502  0.00000000000E+00  0.00000000000E+00  0.12268699855E+04  0.12268699855E+04  0.00000000000E+00 0. -1.
         21   -1    0    0  502  503 -0.00000000000E+00 -0.00000000000E+00 -0.53411373371E+02  0.53411373371E+02  0.00000000000E+00 0. -1.
          6    1    1    2  501    0  0.17680066904E+02 -0.17487702507E+03  0.75826351210E+03  0.79736259785E+03  0.17300000000E+03 0. -1.
         -6    1    1    2    0  503 -0.17680066904E+02  0.17487702507E+03  0.41519510003E+03  0.48291876103E+03  0.17300000000E+03 0. -1.
<mgrwt>
<rscale>  2 0.24662433E+03</rscale>
<asrwt>0</asrwt>
<pdfrwt beam="1">  1       21 0.18874921E+00 0.24662433E+03</pdfrwt>
<pdfrwt beam="2">  1       21 0.82171353E-02 0.24662433E+03</pdfrwt>
<totfact> 0.17544922E+04</totfact>
</mgrwt>
</event>
<event>
 4    1  0.4510095E+000  0.2997825E+03  0.7546771E-02  0.1085349E+00
         21   -1    0    0  501  502  0.00000000000E+00  0.00000000000E+00  0.57388222820E+02  0.57388222820E+02  0.00000000000E+00 0.  1.
         21   -1    0    0  502  503 -0.00000000000E+00 -0.00000000000E+00 -0.25148807985E+04  0.25148807985E+04  0.00000000000E+00 0. -1.
          6    1    1    2  501    0  0.11936574676E+03 -0.21375779620E+03 -0.43873184005E+03  0.53137106095E+03  0.17300000000E+03 0.  1.
         -6    1    1    2    0  503 -0.11936574676E+03  0.21375779620E+03 -0.20187607356E+04  0.20408979604E+04  0.17300000000E+03 0. -1.
<mgrwt>
<rscale>  2 0.29978255E+03</rscale>
<asrwt>0</asrwt>
<pdfrwt beam="1">  1       21 0.88289550E-02 0.29978255E+03</pdfrwt>
<pdfrwt beam="2">  1       21 0.38690484E+00 0.29978255E+03</pdfrwt>
<totfact> 0.93194769E+02</totfact>
</mgrwt>
</event>
<event>
 4    1  0.4510095E+000  0.2828980E+03  0.7546771E-02  0.1094117E+00
         21   -1    0    0  501  502  0.00000000000E+00  0.00000000000E+00  0.55906140127E+03  0.55906140127E+03  0.00000000000E+00 0. -1.
         21   -1    0    0  502  503 -0.00000000000E+00 -0.00000000000E+00 -0.20993944632E+03  0.20993944632E+03  0.00000000000E+00 0.  1.
          6    1    1    2  501    0  0.21924354683E+03  0.45105997303E+02  0.39142832039E+03  0.48295694821E+03  0.17300000000E+03 0.  1.
         -6    1    1    2    0  503 -0.21924354683E+03 -0.45105997303E+02 -0.42306365440E+02  0.28604389939E+03  0.17300000000E+03 0.  1.
<mgrwt>
<rscale>  2 0.28289801E+03</rscale>
<asrwt>0</asrwt>
<pdfrwt beam="1">  1       21 0.86009446E-01 0.28289801E+03</pdfrwt>
<pdfrwt beam="2">  1       21 0.32298377E-01 0.28289801E+03</pdfrwt>
<totfact> 0.10201294E+04</totfact>
</mgrwt>
</event>
<event>
 4    1  0.4510095E+000  0.1974771E+03  0.7546771E-02  0.1151885E+00
         21   -1    0    0  501  502  0.00000000000E+00  0.00000000000E+00  0.10500167471E+03  0.10500167471E+03  0.00000000000E+00 0.  1.
         21   -1    0    0  502  503 -0.00000000000E+00 -0.00000000000E+00 -0.49520756759E+03  0.49520756759E+03  0.00000000000E+00 0. -1.
          6    1    1    2  501    0  0.20698199863E+02  0.92950416507E+02 -0.45044734399E+02  0.20254931129E+03  0.17300000000E+03 0.  1.
         -6    1    1    2    0  503 -0.20698199863E+02 -0.92950416507E+02 -0.34516115848E+03  0.39765993101E+03  0.17300000000E+03 0. -1.
<mgrwt>
<rscale>  2 0.19747708E+03</rscale>
<asrwt>0</asrwt>
<pdfrwt beam="1">  1       21 0.16154104E-01 0.19747708E+03</pdfrwt>
<pdfrwt beam="2">  1       21 0.76185779E-01 0.19747708E+03</pdfrwt>
<totfact> 0.52471485E+04</totfact>
</mgrwt>
</event>
<event>
 4    1  0.4510095E+000  0.2021415E+03  0.7546771E-02  0.1147945E+00
         21   -1    0    0  503  502  0.00000000000E+00  0.00000000000E+00  0.34559519712E+02  0.34559519712E+02  0.00000000000E+00 0. -1.
         21   -1    0    0  501  503 -0.00000000000E+00 -0.00000000000E+00 -0.12078323271E+04  0.12078323271E+04  0.00000000000E+00 0. -1.
          6    1    1    2  501    0 -0.21837213294E+02 -0.10225132736E+03 -0.67687794923E+03  0.70641698449E+03  0.17300000000E+03 0. -1.
         -6    1    1    2    0  502  0.21837213294E+02  0.10225132736E+03 -0.49639485818E+03  0.53597486234E+03  0.17300000000E+03 0. -1.
<mgrwt>
<rscale>  2 0.20214153E+03</rscale>
<asrwt>0</asrwt>
<pdfrwt beam="1">  1       21 0.53168491E-02 0.20214153E+03</pdfrwt>
<pdfrwt beam="2">  1       21 0.18582036E+00 0.20214153E+03</pdfrwt>
<totfact> 0.40039430E+04</totfact>
</mgrwt>
</event>
<event>
 4    1  0.4510095E+000  0.2421386E+03  0.7546771E-02  0.1118376E+00
         21   -1    0    0  503  502  0.00000000000E+00  0.00000000000E+00  0.10546306063E+04  0.10546306063E+04  0.00000000000E+00 0.  1.
         21   -1    0    0  501  503 -0.00000000000E+00 -0.00000000000E+00 -0.58016496924E+02  0.58016496924E+02  0.00000000000E+00 0.  1.
          6    1    1    2  501    0  0.87677560337E+02  0.14496471877E+03  0.38462703705E+03  0.45449871497E+03  0.17300000000E+03 0.  1.
         -6    1    1    2    0  502 -0.87677560337E+02 -0.14496471877E+03  0.61198707235E+03  0.65814838828E+03  0.17300000000E+03 0.  1.
<mgrwt>
<rscale>  2 0.24213865E+03</rscale>
<asrwt>0</asrwt>
<pdfrwt beam="1">  1       21 0.16225085E+00 0.24213865E+03</pdfrwt>
<pdfrwt beam="2">  1       21 0.89256157E-02 0.24213865E+03</pdfrwt>
<totfact> 0.23293134E+04</totfact>
</mgrwt>
</event>
<event>
 4    1  0.4510095E+000  0.2386908E+03  0.7546771E-02  0.1120668E+00
         21   -1    0    0  503  502  0.00000000000E+00  0.00000000000E+00  0.20998946793E+03  0.20998946793E+03  0.00000000000E+00 0. -1.
         21   -1    0    0  501  503 -0.00000000000E+00 -0.00000000000E+00 -0.27684394610E+03  0.27684394610E+03  0.00000000000E+00 0. -1.
          6    1    1    2  501    0 -0.16237154941E+03 -0.26072423756E+02 -0.67826907900E+02  0.24814064716E+03  0.17300000000E+03 0. -1.
         -6    1    1    2    0  502  0.16237154941E+03  0.26072423756E+02  0.97242973417E+00  0.23869276687E+03  0.17300000000E+03 0. -1.
<mgrwt>
<rscale>  2 0.23869079E+03</rscale>
<asrwt>0</asrwt>
<pdfrwt beam="1">  1       21 0.32306072E-01 0.23869079E+03</pdfrwt>
<pdfrwt beam="2">  1       21 0.42591376E-01 0.23869079E+03</pdfrwt>
<totfact> 0.47861601E+04</totfact>
</mgrwt>
</event>
<event>
 4    1  0.4510095E+000  0.1802598E+03  0.7546771E-02  0.1167552E+00
         21   -1    0    0  501  502  0.00000000000E+00  0.00000000000E+00  0.19116181053E+03  0.19116181053E+03  0.00000000000E+00 0.  1.
         21   -1    0    0  502  503 -0.00000000000E+00 -0.00000000000E+00 -0.17751947645E+03  0.17751947645E+03  0.00000000000E+00 0.  1.
          6    1    1    2  501    0  0.46231400145E+02  0.20670351353E+02  0.44812152308E+02  0.18574642602E+03  0.17300000000E+03 0.  1.
         -6    1    1    2    0  503 -0.46231400145E+02 -0.20670351353E+02 -0.31169818229E+02  0.18293486096E+03  0.17300000000E+03 0.  1.
<mgrwt>
<rscale>  2 0.18025983E+03</rscale>
<asrwt>0</asrwt>
<pdfrwt beam="1">  1       21 0.29409509E-01 0.18025983E+03</pdfrwt>
<pdfrwt beam="2">  1       21 0.27310689E-01 0.18025983E+03</pdfrwt>
<totfact> 0.14218419E+05</totfact>
</mgrwt>
</event>
<event>
 4    1  0.4510095E+000  0.1731484E+03  0.7546771E-02  0.1174604E+00
         21   -1    0    0  503  502  0.00000000000E+00  0.00000000000E+00  0.14540773446E+03  0.14540773446E+03  0.00000000000E+00 0. -1.
         21   -1    0    0  501  503 -0.00000000000E+00 -0.00000000000E+00 -0.25303393980E+03  0.25303393980E+03  0.00000000000E+00 0. -1.
          6    1    1    2  501    0  0.18790839613E+01 -0.69176309287E+01  0.31912685111E+02  0.17606477230E+03  0.17300000000E+03 0.  1.
         -6    1    1    2    0  502 -0.18790839613E+01  0.69176309287E+01 -0.13953889046E+03  0.22237690196E+03  0.17300000000E+03 0.  1.
<mgrwt>
<rscale>  2 0.17314845E+03</rscale>
<asrwt>0</asrwt>
<pdfrwt beam="1">  1       21 0.22370421E-01 0.17314845E+03</pdfrwt>
<pdfrwt beam="2">  1       21 0.38928298E-01 0.17314845E+03</pdfrwt>
<totfact> 0.11983989E+05</totfact>
</mgrwt>
</event>
<event>
 4    1  0.4510095E+000  0.2774326E+03  0.7546771E-02  0.1097100E+00
         21   -1    0    0  503  502  0.00000000000E+00  0.00000000000E+00  0.11318662905E+03  0.11318662905E+03  0.00000000000E+00 0. -1.
         21   -1    0    0  501  503 -0.00000000000E+00 -0.00000000000E+00 -0.76007745276E+03  0.76007745276E+03  0.00000000000E+00 0.  1.
          6    1    1    2  501    0 -0.20553867738E+03 -0.69236508215E+02 -0.18173705659E+03  0.33165825741E+03  0.17300000000E+03 0. -1.
         -6    1    1    2    0  502  0.20553867738E+03  0.69236508215E+02 -0.46515376712E+03  0.54160582441E+03  0.17300000000E+03 0. -1.
<mgrwt>
<rscale>  2 0.27743259E+03</rscale>
<asrwt>0</asrwt>
<pdfrwt beam="1">  1       21 0.17413329E-01 0.27743259E+03</pdfrwt>
<pdfrwt beam="2">  1       21 0.11693499E+00 0.27743259E+03</pdfrwt>
<totfact> 0.16010710E+04</totfact>
</mgrwt>
</event>
<event>
 4    1  0.4510095E+000  0.1922123E+03  0.7546771E-02  0.1156481E+00
         21   -1    0    0  503  502  0.00000000000E+00  0.00000000000E+00  0.25183504125E+03  0.25183504125E+03  0.00000000000E+00 0.  1.
         21   -1    0    0  501  503 -0.00000000000E+00 -0.00000000000E+00 -0.14769279543E+03  0.14769279543E+03  0.00000000000E+00 0.  1.
          6    1    1    2  501    0 -0.41212982844E+02 -0.72924946923E+02  0.68404847908E+02  0.20402152106E+03  0.17300000000E+03 0.  1.
         -6    1    1    2    0  502  0.41212982844E+02  0.72924946923E+02  0.35737397912E+02  0.19550631562E+03  0.17300000000E+03 0.  1.
<mgrwt>
<rscale>  2 0.19221227E+03</rscale>
<asrwt>0</asrwt>
<pdfrwt beam="1">  1       21 0.38743853E-01 0.19221227E+03</pdfrwt>
<pdfrwt beam="2">  1       21 0.22721968E-01 0.19221227E+03</pdfrwt>
<totfact> 0.11668797E+05</totfact>
</mgrwt>
</event>
<event>
 4    1  0.4510095E+000  0.2926981E+03  0.7546771E-02  0.1088949E+00
         21   -1    0    0  501  502  0.00000000000E+00  0.00000000000E+00  0.21352052448E+04  0.21352052448E+04  0.00000000000E+00 0. -1.
         21   -1    0    0  502  503 -0.00000000000E+00 -0.00000000000E+00 -0.40442565106E+02  0.40442565106E+02  0.00000000000E+00 0.  1.
          6    1    1    2  501    0  0.36294022638E+02 -0.23329361994E+03  0.11439854327E+04  0.11808364999E+04  0.17300000000E+03 0.  1.
         -6    1    1    2    0  503 -0.36294022638E+02  0.23329361994E+03  0.95077724692E+03  0.99481130997E+03  0.17300000000E+03 0.  1.
<mgrwt>
<rscale>  2 0.29269809E+03</rscale>
<asrwt>0</asrwt>
<pdfrwt beam="1">  1       21 0.32849302E+00 0.29269809E+03</pdfrwt>
<pdfrwt beam="2">  1       21 0.62219348E-02 0.29269809E+03</pdfrwt>
<totfact> 0.39147467E+03</totfact>
</mgrwt>
</event>
<event>
 4    1  0.4510095E+000  0.2398684E+03  0.7546771E-02  0.1119881E+00
         21   -1    0    0  503  502  0.00000000000E+00  0.00000000000E+00  0.61100558287E+03  0.61100558287E+03  0.00000000000E+00 0.  1.
         21   -1    0    0  501  503 -0.00000000000E+00 -0.00000000000E+00 -0.99426381410E+02  0.99426381410E+02  0.00000000000E+00 0.  1.
          6    1    1    2  501    0 -0.15671225603E+03  0.55218772335E+02  0.17409562988E+03  0.29638848215E+03  0.17300000000E+03 0.  1.
         -6    1    1    2    0  502  0.15671225603E+03 -0.55218772335E+02  0.33748357159E+03  0.41404348214E+03  0.17300000000E+03 0.  1.
<mgrwt>
<rscale>  2 0.23986839E+03</rscale>
<asrwt>0</asrwt>
<pdfrwt beam="1">  1       21 0.94000857E-01 0.23986839E+03</pdfrwt>
<pdfrwt beam="2">  1       21 0.15296367E-01 0.23986839E+03</pdfrwt>
<totfact> 0.35085716E+04</totfact>
</mgrwt>
</event>
<event>
 4    1  0.4510095E+000  0.3789193E+03  0.7546771E-02  0.1051334E+00
         21   -1    0    0  503  502  0.00000000000E+00  0.00000000000E+00  0.86498154268E+03  0.86498154268E+03  0.00000000000E+00 0.  1.
         21   -1    0    0  501  503 -0.00000000000E+00 -0.00000000000E+00 -0.21643625099E+03  0.21643625099E+03  0.00000000000E+00 0. -1.
          6    1    1    2  501    0 -0.13297824787E+03 -0.30978636137E+03  0.63233638777E+02  0.38415920811E+03  0.17300000000E+03 0. -1.
         -6    1    1    2    0  502  0.13297824787E+03  0.30978636137E+03  0.58531165291E+03  0.69725858556E+03  0.17300000000E+03 0.  1.
<mgrwt>
<rscale>  2 0.37891926E+03</rscale>
<asrwt>0</asrwt>
<pdfrwt beam="1">  1       21 0.13307408E+00 0.37891926E+03</pdfrwt>
<pdfrwt beam="2">  1       21 0.33297885E-01 0.37891926E+03</pdfrwt>
<totfact> 0.31535059E+03</totfact>
</mgrwt>
</event>
<event>
 4    1  0.4510095E+000  0.1777468E+03  0.7546771E-02  0.1170002E+00
         21   -1    0    0  501  502  0.00000000000E+00  0.00000000000E+00  0.23018229063E+03  0.23018229063E+03  0.00000000000E+00 0. -1.
         21   -1    0    0  502  503 -0.00000000000E+00 -0.00000000000E+00 -0.14673721907E+03  0.14673721907E+03  0.00000000000E+00 0. -1.
          6    1    1    2  501    0 -0.86020442853E+01 -0.39886504470E+02  0.89627199089E+02  0.19906522354E+03  0.17300000000E+03 0. -1.
         -6    1    1    2    0  503  0.86020442853E+01  0.39886504470E+02 -0.61821275343E+01  0.17785428616E+03  0.17300000000E+03 0. -1.
<mgrwt>
<rscale>  2 0.17774681E+03</rscale>
<asrwt>0</asrwt>
<pdfrwt beam="1">  1       21 0.35412660E-01 0.17774681E+03</pdfrwt>
<pdfrwt beam="2">  1       21 0.22574957E-01 0.17774681E+03</pdfrwt>
<totfact> 0.14205186E+05</totfact>
</mgrwt>
</event>
<event>
 4    1  0.4510095E+000  0.1810703E+03  0.7546771E-02  0.1166771E+00
         21   -1    0    0  503  502  0.00000000000E+00  0.00000000000E+00  0.24821613343E+03  0.24821613343E+03  0.00000000000E+00 0. -1.
         21   -1    0    0  501  503 -0.00000000000E+00 -0.00000000000E+00 -0.17615194007E+03  0.17615194007E+03  0.00000000000E+00 0. -1.
          6    1    1    2  501    0  0.36134531344E+02 -0.39392209310E+02 -0.70090803474E+02  0.19416274422E+03  0.17300000000E+03 0. -1.
         -6    1    1    2    0  502 -0.36134531344E+02  0.39392209310E+02  0.14215499683E+03  0.23020532929E+03  0.17300000000E+03 0. -1.
<mgrwt>
<rscale>  2 0.18107029E+03</rscale>
<asrwt>0</asrwt>
<pdfrwt beam="1">  1       21 0.38187097E-01 0.18107029E+03</pdfrwt>
<pdfrwt beam="2">  1       21 0.27100298E-01 0.18107029E+03</pdfrwt>
<totfact> 0.86207392E+04</totfact>
</mgrwt>
</event>
<event>
 4    1  0.4510095E+000  0.1805351E+03  0.7546771E-02  0.1167286E+00
         21   -1    0    0  501  502  0.00000000000E+00  0.00000000000E+00  0.10820924171E+03  0.10820924171E+03  0.00000000000E+00 0.  1.
         21   -1    0    0  502  503 -0.00000000000E+00 -0.00000000000E+00 -0.30121892089E+03  0.30121892089E+03  0.00000000000E+00 0.  1.
          6    1    1    2  501    0  0.24562547412E+02 -0.45393675877E+02 -0.94997788891E+02  0.20400363830E+03  0.17300000000E+03 0. -1.
         -6    1    1    2    0  503 -0.24562547412E+02  0.45393675877E+02 -0.98011890295E+02  0.20542452430E+03  0.17300000000E+03 0. -1.
<mgrwt>
<rscale>  2 0.18053505E+03</rscale>
<asrwt>0</asrwt>
<pdfrwt beam="1">  1       21 0.16647576E-01 0.18053505E+03</pdfrwt>
<pdfrwt beam="2">  1       21 0.46341372E-01 0.18053505E+03</pdfrwt>
<totfact> 0.14520019E+05</totfact>
</mgrwt>
</event>
<event>
 4    1  0.4510095E+000  0.1820395E+03  0.7546771E-02  0.1165844E+00
         21   -1    0    0  503  502  0.00000000000E+00  0.00000000000E+00  0.10945360015E+03  0.10945360015E+03  0.00000000000E+00 0. -1.
         21   -1    0    0  501  503 -0.00000000000E+00 -0.00000000000E+00 -0.32287561235E+03  0.32287561235E+03  0.00000000000E+00 0. -1.
          6    1    1    2  501    0  0.50128400738E+02 -0.26391470630E+02 -0.16066386092E+03  0.24279876954E+03  0.17300000000E+03 0.  1.
         -6    1    1    2    0  502 -0.50128400738E+02  0.26391470630E+02 -0.52758151289E+02  0.18953044296E+03  0.17300000000E+03 0.  1.
<mgrwt>
<rscale>  2 0.18203946E+03</rscale>
<asrwt>0</asrwt>
<pdfrwt beam="1">  1       21 0.16839016E-01 0.18203946E+03</pdfrwt>
<pdfrwt beam="2">  1       21 0.49673171E-01 0.18203946E+03</pdfrwt>
<totfact> 0.12309391E+05</totfact>
</mgrwt>
</event>
<event>
 4    1  0.4510095E+000  0.1742230E+03  0.7546771E-02  0.1173514E+00
         21   -1    0    0  501  502  0.00000000000E+00  0.00000000000E+00  0.16734972811E+03  0.16734972811E+03  0.00000000000E+00 0.  1.
         21   -1    0    0  502  503 -0.00000000000E+00 -0.00000000000E+00 -0.18670935218E+03  0.18670935218E+03  0.00000000000E+00 0.  1.
          6    1    1    2  501    0  0.17140579309E+02  0.11439067098E+02  0.20233108759E+02  0.17539392921E+03  0.17300000000E+03 0.  1.
         -6    1    1    2    0  503 -0.17140579309E+02 -0.11439067098E+02 -0.39592732836E+02  0.17866515107E+03  0.17300000000E+03 0.  1.
<mgrwt>
<rscale>  2 0.17422299E+03</rscale>
<asrwt>0</asrwt>
<pdfrwt beam="1">  1       21 0.25746112E-01 0.17422299E+03</pdfrwt>
<pdfrwt beam="2">  1       21 0.28724516E-01 0.17422299E+03</pdfrwt>
<totfact> 0.16697918E+05</totfact>
</mgrwt>
</event>
<event>
 4    1  0.4510095E+000  0.2197091E+03  0.7546771E-02  0.1134100E+00
         21   -1    0    0  501  502  0.00000000000E+00  0.00000000000E+00  0.39868811631E+03  0.39868811631E+03  0.00000000000E+00 0.  1.
         21   -1    0    0  502  503 -0.00000000000E+00 -0.00000000000E+00 -0.12107764251E+03  0.12107764251E+03  0.00000000000E+00 0.  1.
          6    1    1    2  501    0  0.13149108150E+03  0.32452580916E+02  0.13925206055E+03  0.26012153100E+03  0.17300000000E+03 0.  1.
         -6    1    1    2    0  503 -0.13149108150E+03 -0.32452580916E+02  0.13835841325E+03  0.25964422782E+03  0.17300000000E+03 0.  1.
<mgrwt>
<rscale>  2 0.21970907E+03</rscale>
<asrwt>0</asrwt>
<pdfrwt beam="1">  1       21 0.61336633E-01 0.21970907E+03</pdfrwt>
<pdfrwt beam="2">  1       21 0.18627330E-01 0.21970907E+03</pdfrwt>
<totfact> 0.64331811E+04</totfact>
</mgrwt>
</event>
<event>
 4    1  0.4510095E+000  0.1832977E+03  0.7546771E-02  0.1164649E+00
         21   -1    0    0  503  502  0.00000000000E+00  0.00000000000E+00  0.99624736458E+02  0.99624736458E+02  0.00000000000E+00 0.  1.
         21   -1    0    0  501  503 -0.00000000000E+00 -0.00000000000E+00 -0.53652286144E+03  0.53652286144E+03  0.00000000000E+00 0.  1.
          6    1    1    2  501    0  0.58358653234E+02  0.16226798976E+02 -0.41229747290E+03  0.45120643565E+03  0.17300000000E+03 0.  1.
         -6    1    1    2    0  502 -0.58358653234E+02 -0.16226798976E+02 -0.24600652088E+02  0.18494116225E+03  0.17300000000E+03 0.  1.
<mgrwt>
<rscale>  2 0.18329769E+03</rscale>
<asrwt>0</asrwt>
<pdfrwt beam="1">  1       21 0.15326882E-01 0.18329769E+03</pdfrwt>
<pdfrwt beam="2">  1       21 0.82541979E-01 0.18329769E+03</pdfrwt>
<totfact> 0.48543656E+04</totfact>
</mgrwt>
</event>
<event>
 4    1  0.4510095E+000  0.1836254E+03  0.7546771E-02  0.1164340E+00
         21   -1    0    0  501  502  0.00000000000E+00  0.00000000000E+00  0.44770614116E+03  0.44770614116E+03  0.00000000000E+00 0. -1.
         21   -1    0    0  502  503 -0.00000000000E+00 -0.00000000000E+00 -0.83621186634E+02  0.83621186634E+02  0.00000000000E+00 0.  1.
          6    1    1    2  501    0 -0.45491566821E+02  0.41470618239E+02  0.26577907496E+03  0.32304304902E+03  0.17300000000E+03 0. -1.
         -6    1    1    2    0  503  0.45491566821E+02 -0.41470618239E+02  0.98305879561E+02  0.20828427878E+03  0.17300000000E+03 0.  1.
<mgrwt>
<rscale>  2 0.18362542E+03</rscale>
<asrwt>0</asrwt>
<pdfrwt beam="1">  1       21 0.68877867E-01 0.18362542E+03</pdfrwt>
<pdfrwt beam="2">  1       21 0.12864798E-01 0.18362542E+03</pdfrwt>
<totfact> 0.99797183E+04</totfact>
</mgrwt>
</event>
<event>
 4    1  0.4510095E+000  0.2230481E+03  0.7546771E-02  0.1131631E+00
         21   -1    0    0  501  502  0.00000000000E+00  0.00000000000E+00  0.10062419792E+04  0.10062419792E+04  0.00000000000E+00 0.  1.
         21   -1    0    0  502  503 -0.00000000000E+00 -0.00000000000E+00 -0.70462993527E+02  0.70462993527E+02  0.00000000000E+00 0.  1.
          6    1    1    2  501    0  0.63389937451E+02 -0.12571057574E+03  0.76193508623E+03  0.79391152445E+03  0.17300000000E+03 0.  1.
         -6    1    1    2    0  503 -0.63389937451E+02  0.12571057574E+03  0.17384389947E+03  0.28279344831E+03  0.17300000000E+03 0.  1.
<mgrwt>
<rscale>  2 0.22304805E+03</rscale>
<asrwt>0</asrwt>
<pdfrwt beam="1">  1       21 0.15480645E+00 0.22304805E+03</pdfrwt>
<pdfrwt beam="2">  1       21 0.10840461E-01 0.22304805E+03</pdfrwt>
<totfact> 0.18956528E+04</totfact>
</mgrwt>
</event>
<event>
 4    1  0.4510095E+000  0.2016633E+03  0.7546771E-02  0.1148343E+00
         21   -1    0    0  503  502  0.00000000000E+00  0.00000000000E+00  0.79724592176E+02  0.79724592176E+02  0.00000000000E+00 0. -1.
         21   -1    0    0  501  503 -0.00000000000E+00 -0.00000000000E+00 -0.51550613557E+03  0.51550613557E+03  0.00000000000E+00 0.  1.
          6    1    1    2  501    0 -0.17873109588E+02 -0.10207655961E+03 -0.24834872964E+03  0.31991430662E+03  0.17300000000E+03 0.  1.
         -6    1    1    2    0  502  0.17873109588E+02  0.10207655961E+03 -0.18743281376E+03  0.27531642113E+03  0.17300000000E+03 0.  1.
<mgrwt>
<rscale>  2 0.20166326E+03</rscale>
<asrwt>0</asrwt>
<pdfrwt beam="1">  1       21 0.12265322E-01 0.20166326E+03</pdfrwt>
<pdfrwt beam="2">  1       21 0.79308638E-01 0.20166326E+03</pdfrwt>
<totfact> 0.78828051E+04</totfact>
</mgrwt>
</event>
<event>
 4    1  0.4510095E+000  0.2454852E+03  0.7546771E-02  0.1116192E+00
         21   -1    0    0  501  502  0.00000000000E+00  0.00000000000E+00  0.67965763011E+02  0.67965763011E+02  0.00000000000E+00 0.  1.
         21   -1    0    0  502  503 -0.00000000000E+00 -0.00000000000E+00 -0.92067276188E+03  0.92067276188E+03  0.00000000000E+00 0. -1.
          6    1    1    2  501    0 -0.74907268630E+02 -0.15723505753E+03 -0.33135109087E+03  0.41237908243E+03  0.17300000000E+03 0.  1.
         -6    1    1    2    0  503  0.74907268630E+02  0.15723505753E+03 -0.52135590800E+03  0.57625944246E+03  0.17300000000E+03 0. -1.
<mgrwt>
<rscale>  2 0.24548516E+03</rscale>
<asrwt>0</asrwt>
<pdfrwt beam="1">  1       21 0.10456272E-01 0.24548516E+03</pdfrwt>
<pdfrwt beam="2">  1       21 0.14164196E+00 0.24548516E+03</pdfrwt>
<totfact> 0.25244835E+04</totfact>
</mgrwt>
</event>
<event>
 4    1  0.4510095E+000  0.2177281E+03  0.7546771E-02  0.1135588E+00
         21   -1    0    0  501  502  0.00000000000E+00  0.00000000000E+00  0.98962811674E+03  0.98962811674E+03  0.00000000000E+00 0. -1.
         21   -1    0    0  502  503 -0.00000000000E+00 -0.00000000000E+00 -0.52453835087E+02  0.52453835087E+02  0.00000000000E+00 0.  1.
          6    1    1    2  501    0  0.36997935619E+02 -0.12691604843E+03  0.62206966796E+03  0.65907222850E+03  0.17300000000E+03 0. -1.
         -6    1    1    2    0  503 -0.36997935619E+02  0.12691604843E+03  0.31510461369E+03  0.38300972332E+03  0.17300000000E+03 0.  1.
<mgrwt>
<rscale>  2 0.21772811E+03</rscale>
<asrwt>0</asrwt>
<pdfrwt beam="1">  1       21 0.15225047E+00 0.21772811E+03</pdfrwt>
<pdfrwt beam="2">  1       21 0.80698215E-02 0.21772811E+03</pdfrwt>
<totfact> 0.33460720E+04</totfact>
</mgrwt>
</event>
<event>
 4    1  0.4510095E+000  0.1757292E+03  0.7546771E-02  0.1172002E+00
         21   -1    0    0  501  502  0.00000000000E+00  0.00000000000E+00  0.72155245341E+03  0.72155245341E+03  0.00000000000E+00 0.  1.
         21   -1    0    0  502  503 -0.00000000000E+00 -0.00000000000E+00 -0.44358136929E+02  0.44358136929E+02  0.00000000000E+00 0.  1.
          6    1    1    2  501    0  0.21274893538E+02  0.22341136639E+02  0.41042484167E+03  0.44646309830E+03  0.17300000000E+03 0. -1.
         -6    1    1    2    0  503 -0.21274893538E+02 -0.22341136639E+02  0.26676947481E+03  0.31944749204E+03  0.17300000000E+03 0. -1.
<mgrwt>
<rscale>  2 0.17572919E+03</rscale>
<asrwt>0</asrwt>
<pdfrwt beam="1">  1       21 0.11100806E+00 0.17572919E+03</pdfrwt>
<pdfrwt beam="2">  1       21 0.68243293E-02 0.17572919E+03</pdfrwt>
<totfact> 0.10169428E+05</totfact>
</mgrwt>
</event>
<event>
 4    1  0.4510095E+000  0.2205803E+03  0.7546771E-02  0.1133451E+00
         21   -1    0    0  503  502  0.00000000000E+00  0.00000000000E+00  0.79802279395E+02  0.79802279395E+02  0.00000000000E+00 0. -1.
         21   -1    0    0  501  503 -0.00000000000E+00 -0.00000000000E+00 -0.93090885765E+03  0.93090885765E+03  0.00000000000E+00 0. -1.
          6    1    1    2  501    0 -0.49552751110E+02  0.12755862294E+03 -0.72240209202E+03  0.75532804793E+03  0.17300000000E+03 0. -1.
         -6    1    1    2    0  502  0.49552751110E+02 -0.12755862294E+03 -0.12870448623E+03  0.25538308912E+03  0.17300000000E+03 0. -1.
<mgrwt>
<rscale>  2 0.22058032E+03</rscale>
<asrwt>0</asrwt>
<pdfrwt beam="1">  1       21 0.12277274E-01 0.22058032E+03</pdfrwt>
<pdfrwt beam="2">  1       21 0.14321674E+00 0.22058032E+03</pdfrwt>
<totfact> 0.18661432E+04</totfact>
</mgrwt>
</event>
<event>
 4    1  0.4510095E+000  0.2026115E+03  0.7546771E-02  0.1147554E+00
         21   -1    0    0  501  502  0.00000000000E+00  0.00000000000E+00  0.57939735903E+02  0.57939735903E+02  0.00000000000E+00 0. -1.
         21   -1    0    0  502  503 -0.00000000000E+00 -0.00000000000E+00 -0.93198391910E+03  0.93198391910E+03  0.00000000000E+00 0.  1.
          6    1    1    2  501    0 -0.71283678821E+02  0.77724313076E+02 -0.19465608602E+03  0.28096694385E+03  0.17300000000E+03 0. -1.
         -6    1    1    2    0  503  0.71283678821E+02 -0.77724313076E+02 -0.67938809717E+03  0.70895671115E+03  0.17300000000E+03 0.  1.
<mgrwt>
<rscale>  2 0.20261153E+03</rscale>
<asrwt>0</asrwt>
<pdfrwt beam="1">  1       21 0.89138061E-02 0.20261153E+03</pdfrwt>
<pdfrwt beam="2">  1       21 0.14338213E+00 0.20261153E+03</pdfrwt>
<totfact> 0.33214090E+04</totfact>
</mgrwt>
</event>
<event>
 4    1  0.4510095E+000  0.2136271E+03  0.7546771E-02  0.1138725E+00
         21   -1    0    0  503  502  0.00000000000E+00  0.00000000000E+00  0.17255202889E+04  0.17255202889E+04  0.00000000000E+00 0.  1.
         21   -1    0    0  501  503 -0.00000000000E+00 -0.00000000000E+00 -0.29289925004E+02  0.29289925004E+02  0.00000000000E+00 0.  1.
          6    1    1    2  501    0 -0.12289115627E+03  0.24602780672E+02  0.57480956832E+03  0.61322310209E+03  0.17300000000E+03 0.  1.
         -6    1    1    2    0  502  0.12289115627E+03 -0.24602780672E+02  0.11214207956E+04  0.11415871118E+04  0.17300000000E+03 0.  1.
<mgrwt>
<rscale>  2 0.21362709E+03</rscale>
<asrwt>0</asrwt>
<pdfrwt beam="1">  1       21 0.26546458E+00 0.21362709E+03</pdfrwt>
<pdfrwt beam="2">  1       21 0.45061436E-02 0.21362709E+03</pdfrwt>
<totfact> 0.16997826E+04</totfact>
</mgrwt>
</event>
<event>
 4    1  0.4510095E+000  0.1754400E+03  0.7546771E-02  0.1172291E+00
         21   -1    0    0  501  502  0.00000000000E+00  0.00000000000E+00  0.14024721255E+03  0.14024721255E+03  0.00000000000E+00 0.  1.
         21   -1    0    0  502  503 -0.00000000000E+00 -0.00000000000E+00 -0.41406039163E+03  0.41406039163E+03  0.00000000000E+00 0.  1.
          6    1    1    2  501    0  0.28076006726E+02 -0.78692651913E+01  0.53094722923E+02  0.18329821901E+03  0.17300000000E+03 0.  1.
         -6    1    1    2    0  503 -0.28076006726E+02  0.78692651913E+01 -0.32690790200E+03  0.37100938516E+03  0.17300000000E+03 0.  1.
<mgrwt>
<rscale>  2 0.17543998E+03</rscale>
<asrwt>0</asrwt>
<pdfrwt beam="1">  1       21 0.21576494E-01 0.17543998E+03</pdfrwt>
<pdfrwt beam="2">  1       21 0.63701599E-01 0.17543998E+03</pdfrwt>
<totfact> 0.45982679E+04</totfact>
</mgrwt>
</event>
<event>
 4    1  0.4510095E+000  0.2402829E+03  0.7546771E-02  0.1119604E+00
         21   -1    0    0  503  502  0.00000000000E+00  0.00000000000E+00  0.92114603124E+03  0.92114603124E+03  0.00000000000E+00 0. -1.
         21   -1    0    0  501  503 -0.00000000000E+00 -0.00000000000E+00 -0.20068072231E+03  0.20068072231E+03  0.00000000000E+00 0.  1.
          6    1    1    2  501    0  0.15753459206E+03  0.54678568482E+02 -0.10491012044E+03  0.26218700753E+03  0.17300000000E+03 0.  1.
         -6    1    1    2    0  502 -0.15753459206E+03 -0.54678568482E+02  0.82537542936E+03  0.85963974602E+03  0.17300000000E+03 0. -1.
<mgrwt>
<rscale>  2 0.24028294E+03</rscale>
<asrwt>0</asrwt>
<pdfrwt beam="1">  1       21 0.14171477E+00 0.24028294E+03</pdfrwt>
<pdfrwt beam="2">  1       21 0.30873958E-01 0.24028294E+03</pdfrwt>
<totfact> 0.33613472E+03</totfact>
</mgrwt>
</event>
<event>
 4    1  0.4510095E+000  0.1869993E+03  0.7546771E-02  0.1161196E+00
         21   -1    0    0  501  502  0.00000000000E+00  0.00000000000E+00  0.10216867120E+03  0.10216867120E+03  0.00000000000E+00 0. -1.
         21   -1    0    0  502  503 -0.00000000000E+00 -0.00000000000E+00 -0.38355233500E+03  0.38355233500E+03  0.00000000000E+00 0. -1.
          6    1    1    2  501    0 -0.49581546940E+02 -0.50807402576E+02 -0.61010795977E+02  0.19670037920E+03  0.17300000000E+03 0. -1.
         -6    1    1    2    0  503  0.49581546940E+02  0.50807402576E+02 -0.22037286782E+03  0.28902062699E+03  0.17300000000E+03 0. -1.
<mgrwt>
<rscale>  2 0.18699926E+03</rscale>
<asrwt>0</asrwt>
<pdfrwt beam="1">  1       21 0.15718257E-01 0.18699926E+03</pdfrwt>
<pdfrwt beam="2">  1       21 0.59008050E-01 0.18699926E+03</pdfrwt>
<totfact> 0.96942439E+04</totfact>
</mgrwt>
</event>
<event>
 4    1  0.4510095E+000  0.2012778E+03  0.7546771E-02  0.1148665E+00
         21   -1    0    0  501  502  0.00000000000E+00  0.00000000000E+00  0.30604603320E+03  0.30604603320E+03  0.00000000000E+00 0. -1.
         21   -1    0    0  502  503 -0.00000000000E+00 -0.00000000000E+00 -0.16376606430E+03  0.16376606430E+03  0.00000000000E+00 0. -1.
          6    1    1    2  501    0 -0.93880308887E+02 -0.42074194027E+02  0.17398597757E+03  0.26605238317E+03  0.17300000000E+03 0. -1.
         -6    1    1    2    0  503  0.93880308887E+02  0.42074194027E+02 -0.31706008673E+02  0.20375971433E+03  0.17300000000E+03 0. -1.
<mgrwt>
<rscale>  2 0.20127779E+03</rscale>
<asrwt>0</asrwt>
<pdfrwt beam="1">  1       21 0.47084005E-01 0.20127779E+03</pdfrwt>
<pdfrwt beam="2">  1       21 0.25194779E-01 0.20127779E+03</pdfrwt>
<totfact> 0.64167334E+04</totfact>
</mgrwt>
</event>
<event>
 4    1  0.4510095E+000  0.1843725E+03  0.7546771E-02  0.1163637E+00
         21   -1    0    0  503  502  0.00000000000E+00  0.00000000000E+00  0.10077382559E+04  0.10077382559E+04  0.00000000000E+00 0.  1.
         21   -1    0    0  501  503 -0.00000000000E+00 -0.00000000000E+00 -0.47517413265E+02  0.47517413265E+02  0.00000000000E+00 0.  1.
          6    1    1    2  501    0 -0.28524707221E+02  0.57013580698E+02  0.19592069270E+03  0.26903182922E+03  0.17300000000E+03 0.  1.
         -6    1    1    2    0  502  0.28524707221E+02 -0.57013580698E+02  0.76430014989E+03  0.78622383990E+03  0.17300000000E+03 0.  1.
<mgrwt>
<rscale>  2 0.18437247E+03</rscale>
<asrwt>0</asrwt>
<pdfrwt beam="1">  1       21 0.15503664E+00 0.18437247E+03</pdfrwt>
<pdfrwt beam="2">  1       21 0.73103720E-02 0.18437247E+03</pdfrwt>
<totfact> 0.38628587E+04</totfact>
</mgrwt>
</event>
<event>
 4    1  0.4510095E+000  0.1792179E+03  0.7546771E-02  0.1168562E+00
         21   -1    0    0  503  502  0.00000000000E+00  0.00000000000E+00  0.66843171755E+02  0.66843171755E+02  0.00000000000E+00 0.  1.
         21   -1    0    0  501  503 -0.00000000000E+00 -0.00000000000E+00 -0.55774847123E+03  0.55774847123E+03  0.00000000000E+00 0. -1.
          6    1    1    2  501    0 -0.14582941227E+02  0.44467695944E+02 -0.36166554494E+03  0.40363474151E+03  0.17300000000E+03 0. -1.
         -6    1    1    2    0  502  0.14582941227E+02 -0.44467695944E+02 -0.12923975454E+03  0.22095690148E+03  0.17300000000E+03 0.  1.
<mgrwt>
<rscale>  2 0.17921785E+03</rscale>
<asrwt>0</asrwt>
<pdfrwt beam="1">  1       21 0.10283565E-01 0.17921785E+03</pdfrwt>
<pdfrwt beam="2">  1       21 0.85807456E-01 0.17921785E+03</pdfrwt>
<totfact> 0.91061334E+04</totfact>
</mgrwt>
</event>
<event>
 4    1  0.4510095E+000  0.1780064E+03  0.7546771E-02  0.1169746E+00
         21   -1    0    0  503  502  0.00000000000E+00  0.00000000000E+00  0.16469969583E+03  0.16469969583E+03  0.00000000000E+00 0.  1.
         21   -1    0    0  501  503 -0.00000000000E+00 -0.00000000000E+00 -0.22242141493E+03  0.22242141493E+03  0.00000000000E+00 0.  1.
          6    1    1    2  501    0  0.41917412908E+02 -0.47489768716E+00 -0.99986915207E+02  0.20416581067E+03  0.17300000000E+03 0. -1.
         -6    1    1    2    0  502 -0.41917412908E+02  0.47489768716E+00  0.42265196107E+02  0.18295530010E+03  0.17300000000E+03 0. -1.
<mgrwt>
<rscale>  2 0.17800645E+03</rscale>
<asrwt>0</asrwt>
<pdfrwt beam="1">  1       21 0.25338415E-01 0.17800645E+03</pdfrwt>
<pdfrwt beam="2">  1       21 0.34218679E-01 0.17800645E+03</pdfrwt>
<totfact> 0.12211354E+05</totfact>
</mgrwt>
</event>
<event>
 4    1  0.4510095E+000  0.1852860E+03  0.7546771E-02  0.1162783E+00
         21   -1    0    0  501  502  0.00000000000E+00  0.00000000000E+00  0.16424537995E+03  0.16424537995E+03  0.00000000000E+00 0.  1.
         21   -1    0    0  502  503 -0.00000000000E+00 -0.00000000000E+00 -0.25855319642E+03  0.25855319642E+03  0.00000000000E+00 0. -1.
          6    1    1    2  501    0 -0.49728205143E+02  0.43920656046E+02  0.45372866552E+02  0.19076062338E+03  0.17300000000E+03 0.  1.
         -6    1    1    2    0  503  0.49728205143E+02 -0.43920656046E+02 -0.13968068302E+03  0.23203795298E+03  0.17300000000E+03 0. -1.
<mgrwt>
<rscale>  2 0.18528604E+03</rscale>
<asrwt>0</asrwt>
<pdfrwt beam="1">  1       21 0.25268520E-01 0.18528604E+03</pdfrwt>
<pdfrwt beam="2">  1       21 0.39777415E-01 0.18528604E+03</pdfrwt>
<totfact> 0.90665437E+04</totfact>
</mgrwt>
</event>
<event>
 4    1  0.4510095E+000  0.3708115E+03  0.7546771E-02  0.1054383E+00
         21   -1    0    0  501  502  0.00000000000E+00  0.00000000000E+00  0.82939239292E+03  0.82939239292E+03  0.00000000000E+00 0. -1.
         21   -1    0    0  502  503 -0.00000000000E+00 -0.00000000000E+00 -0.31631818325E+03  0.31631818325E+03  0.00000000000E+00 0.  1.
          6    1    1    2  501    0 -0.32241826128E+03  0.60155144327E+02  0.65172018915E+03  0.74982690105E+03  0.17300000000E+03 0. -1.
         -6    1    1    2    0  503  0.32241826128E+03 -0.60155144327E+02 -0.13864597949E+03  0.39588367512E+03  0.17300000000E+03 0.  1.
<mgrwt>
<rscale>  2 0.37081151E+03</rscale>
<asrwt>0</asrwt>
<pdfrwt beam="1">  1       21 0.12759883E+00 0.37081151E+03</pdfrwt>
<pdfrwt beam="2">  1       21 0.48664336E-01 0.37081151E+03</pdfrwt>
<totfact> 0.16178227E+03</totfact>
</mgrwt>
</event>
<event>
 4    1  0.4510095E+000  0.2321476E+03  0.7546771E-02  0.1125137E+00
         21   -1    0    0  503  502  0.00000000000E+00  0.00000000000E+00  0.15112975043E+03  0.15112975043E+03  0.00000000000E+00 0.  1.
         21   -1    0    0  501  503 -0.00000000000E+00 -0.00000000000E+00 -0.38560070572E+03  0.38560070572E+03  0.00000000000E+00 0.  1.
          6    1    1    2  501    0 -0.13419125333E+03  0.77176524331E+02 -0.43635194790E+02  0.23621290947E+03  0.17300000000E+03 0.  1.
         -6    1    1    2    0  502  0.13419125333E+03 -0.77176524331E+02 -0.19083576049E+03  0.30051754668E+03  0.17300000000E+03 0.  1.
<mgrwt>
<rscale>  2 0.23214760E+03</rscale>
<asrwt>0</asrwt>
<pdfrwt beam="1">  1       21 0.23250731E-01 0.23214760E+03</pdfrwt>
<pdfrwt beam="2">  1       21 0.59323185E-01 0.23214760E+03</pdfrwt>
<totfact> 0.45305200E+04</totfact>
</mgrwt>
</event>
<event>
 4    1  0.4510095E+000  0.2627632E+03  0.7546771E-02  0.1105494E+00
         21   -1    0    0  501  502  0.00000000000E+00  0.00000000000E+00  0.22567268989E+03  0.22567268989E+03  0.00000000000E+00 0.  1.
         21   -1    0    0  502  503 -0.00000000000E+00 -0.00000000000E+00 -0.43141097946E+03  0.43141097946E+03  0.00000000000E+00 0. -1.
          6    1    1    2  501    0  0.17267938569E+03 -0.96422525970E+02  0.74304889970E+02  0.27306719032E+03  0.17300000000E+03 0.  1.
         -6    1    1    2    0  503 -0.17267938569E+03  0.96422525970E+02 -0.28004317955E+03  0.38401647903E+03  0.17300000000E+03 0. -1.
<mgrwt>
<rscale>  2 0.26276315E+03</rscale>
<asrwt>0</asrwt>
<pdfrwt beam="1">  1       21 0.34718876E-01 0.26276315E+03</pdfrwt>
<pdfrwt beam="2">  1       21 0.66370918E-01 0.26276315E+03</pdfrwt>
<totfact> 0.16015170E+04</totfact>
</mgrwt>
</event>
<event>
 4    1  0.4510095E+000  0.1976376E+03  0.7546771E-02  0.1151748E+00
         21   -1    0    0  503  502  0.00000000000E+00  0.00000000000E+00  0.19076472042E+03  0.19076472042E+03  0.00000000000E+00 0. -1.
         21   -1    0    0  501  503 -0.00000000000E+00 -0.00000000000E+00 -0.42669688414E+03  0.42669688414E+03  0.00000000000E+00 0. -1.
          6    1    1    2  501    0  0.30205012201E+01 -0.95511865641E+02 -0.34062327687E+03  0.39380814701E+03  0.17300000000E+03 0. -1.
         -6    1    1    2    0  502 -0.30205012201E+01  0.95511865641E+02  0.10469111315E+03  0.22365345756E+03  0.17300000000E+03 0. -1.
<mgrwt>
<rscale>  2 0.19763765E+03</rscale>
<asrwt>0</asrwt>
<pdfrwt beam="1">  1       21 0.29348419E-01 0.19763765E+03</pdfrwt>
<pdfrwt beam="2">  1       21 0.65645674E-01 0.19763765E+03</pdfrwt>
<totfact> 0.23654271E+04</totfact>
</mgrwt>
</event>
<event>
 4    1  0.4510095E+000  0.2542216E+03  0.7546771E-02  0.1110666E+00
         21   -1    0    0  501  502  0.00000000000E+00  0.00000000000E+00  0.24465389815E+03  0.24465389815E+03  0.00000000000E+00 0. -1.
         21   -1    0    0  502  503 -0.00000000000E+00 -0.00000000000E+00 -0.27942563883E+03  0.27942563883E+03  0.00000000000E+00 0. -1.
          6    1    1    2  501    0  0.18377810806E+03 -0.30417963574E+02  0.43854933124E+02  0.25797655062E+03  0.17300000000E+03 0. -1.
         -6    1    1    2    0  503 -0.18377810806E+03  0.30417963574E+02 -0.78626673809E+02  0.26610298635E+03  0.17300000000E+03 0. -1.
<mgrwt>
<rscale>  2 0.25422165E+03</rscale>
<asrwt>0</asrwt>
<pdfrwt beam="1">  1       21 0.37639061E-01 0.25422165E+03</pdfrwt>
<pdfrwt beam="2">  1       21 0.42988560E-01 0.25422165E+03</pdfrwt>
<totfact> 0.34391948E+04</totfact>
</mgrwt>
</event>
<event>
 4    1  0.4510095E+000  0.2231476E+03  0.7546771E-02  0.1131558E+00
         21   -1    0    0  501  502  0.00000000000E+00  0.00000000000E+00  0.68046272568E+02  0.68046272568E+02  0.00000000000E+00 0. -1.
         21   -1    0    0  502  503 -0.00000000000E+00 -0.00000000000E+00 -0.74436768110E+03  0.74436768110E+03  0.00000000000E+00 0.  1.
          6    1    1    2  501    0 -0.56813371227E+02  0.12898873525E+03 -0.39098561252E+03  0.45018285415E+03  0.17300000000E+03 0.  1.
         -6    1    1    2    0  503  0.56813371227E+02 -0.12898873525E+03 -0.28533579601E+03  0.36223109952E+03  0.17300000000E+03 0. -1.
<mgrwt>
<rscale>  2 0.22314760E+03</rscale>
<asrwt>0</asrwt>
<pdfrwt beam="1">  1       21 0.10468657E-01 0.22314760E+03</pdfrwt>
<pdfrwt beam="2">  1       21 0.11451810E+00 0.22314760E+03</pdfrwt>
<totfact> 0.43619284E+04</totfact>
</mgrwt>
</event>
<event>
 4    1  0.4510095E+000  0.2862797E+03  0.7546771E-02  0.1092308E+00
         21   -1    0    0  501  502  0.00000000000E+00  0.00000000000E+00  0.13100540389E+03  0.13100540389E+03  0.00000000000E+00 0.  1.
         21   -1    0    0  502  503 -0.00000000000E+00 -0.00000000000E+00 -0.94968693992E+03  0.94968693992E+03  0.00000000000E+00 0. -1.
          6    1    1    2  501    0  0.21847922260E+03  0.65527976889E+02 -0.93682488789E+02  0.30121835132E+03  0.17300000000E+03 0.  1.
         -6    1    1    2    0  503 -0.21847922260E+03 -0.65527976889E+02 -0.72499904724E+03  0.77947399249E+03  0.17300000000E+03 0. -1.
<mgrwt>
<rscale>  2 0.28627973E+03</rscale>
<asrwt>0</asrwt>
<pdfrwt beam="1">  1       21 0.20154678E-01 0.28627973E+03</pdfrwt>
<pdfrwt beam="2">  1       21 0.14610568E+00 0.28627973E+03</pdfrwt>
<totfact> 0.68455764E+03</totfact>
</mgrwt>
</event>
<event>
 4    1  0.4510095E+000  0.1974881E+03  0.7546771E-02  0.1151876E+00
         21   -1    0    0  503  502  0.00000000000E+00  0.00000000000E+00  0.93196978642E+03  0.93196978642E+03  0.00000000000E+00 0. -1.
         21   -1    0    0  501  503 -0.00000000000E+00 -0.00000000000E+00 -0.41856719489E+02  0.41856719489E+02  0.00000000000E+00 0. -1.
          6    1    1    2  501    0 -0.95247059641E+02  0.73470881570E+00  0.43823531261E+03  0.48067840745E+03  0.17300000000E+03 0. -1.
         -6    1    1    2    0  502  0.95247059641E+02 -0.73470881570E+00  0.45187775432E+03  0.49314809846E+03  0.17300000000E+03 0. -1.
<mgrwt>
<rscale>  2 0.19748808E+03</rscale>
<asrwt>0</asrwt>
<pdfrwt beam="1">  1       21 0.14337995E+00 0.19748808E+03</pdfrwt>
<pdfrwt beam="2">  1       21 0.64394960E-02 0.19748808E+03</pdfrwt>
<totfact> 0.58596992E+04</totfact>
</mgrwt>
</event>
<event>
 4    1  0.4510095E+000  0.1737679E+03  0.7546771E-02  0.1173975E+00
         21   -1    0    0  503  502  0.00000000000E+00  0.00000000000E+00  0.67328307346E+02  0.67328307346E+02  0.00000000000E+00 0. -1.
         21   -1    0    0  501  503 -0.00000000000E+00 -0.00000000000E+00 -0.68844568283E+03  0.68844568283E+03  0.00000000000E+00 0. -1.
          6    1    1    2  501    0  0.11727698744E+02  0.11346207881E+02 -0.53366062444E+03  0.56123875261E+03  0.17300000000E+03 0. -1.
         -6    1    1    2    0  502 -0.11727698744E+02 -0.11346207881E+02 -0.87456751038E+02  0.19453523756E+03  0.17300000000E+03 0. -1.
<mgrwt>
<rscale>  2 0.17376788E+03</rscale>
<asrwt>0</asrwt>
<pdfrwt beam="1">  1       21 0.10358201E-01 0.17376788E+03</pdfrwt>
<pdfrwt beam="2">  1       21 0.10591473E+00 0.17376788E+03</pdfrwt>
<totfact> 0.55075563E+04</totfact>
</mgrwt>
</event>
<event>
 4    1  0.4510095E+000  0.2380082E+03  0.7546771E-02  0.1121127E+00
         21   -1    0    0  501  502  0.00000000000E+00  0.00000000000E+00  0.10494134137E+04  0.10494134137E+04  0.00000000000E+00 0. -1.
         21   -1    0    0  502  503 -0.00000000000E+00 -0.00000000000E+00 -0.12209175943E+03  0.12209175943E+03  0.00000000000E+00 0. -1.
          6    1    1    2  501    0 -0.16263781974E+03 -0.16366468161E+02  0.90116309567E+03  0.93206375677E+03  0.17300000000E+03 0. -1.
         -6    1    1    2    0  503  0.16263781974E+03  0.16366468161E+02  0.26158558620E+02  0.23944141638E+03  0.17300000000E+03 0. -1.
<mgrwt>
<rscale>  2 0.23800824E+03</rscale>
<asrwt>0</asrwt>
<pdfrwt beam="1">  1       21 0.16144821E+00 0.23800824E+03</pdfrwt>
<pdfrwt beam="2">  1       21 0.18783348E-01 0.23800824E+03</pdfrwt>
<totfact> 0.61542920E+03</totfact>
</mgrwt>
</event>
<event>
 4    1  0.4510095E+000  0.2057223E+03  0.7546771E-02  0.1144999E+00
         21   -1    0    0  501  502  0.00000000000E+00  0.00000000000E+00  0.72003606452E+02  0.72003606452E+02  0.00000000000E+00 0. -1.
         21   -1    0    0  502  503 -0.00000000000E+00 -0.00000000000E+00 -0.87829067022E+03  0.87829067022E+03  0.00000000000E+00 0. -1.
          6    1    1    2  501    0 -0.86128522196E+02 -0.70530515957E+02 -0.12987080203E+03  0.24328604817E+03  0.17300000000E+03 0. -1.
         -6    1    1    2    0  503  0.86128522196E+02  0.70530515957E+02 -0.67641626174E+03  0.70700822850E+03  0.17300000000E+03 0. -1.
<mgrwt>
<rscale>  2 0.20572233E+03</rscale>
<asrwt>0</asrwt>
<pdfrwt beam="1">  1       21 0.11077478E-01 0.20572233E+03</pdfrwt>
<pdfrwt beam="2">  1       21 0.13512164E+00 0.20572233E+03</pdfrwt>
<totfact> 0.26313397E+04</totfact>
</mgrwt>
</event>
<event>
 4    1  0.4510095E+000  0.2819966E+03  0.7546771E-02  0.1094603E+00
         21   -1    0    0  501  502  0.00000000000E+00  0.00000000000E+00  0.20609671650E+03  0.20609671650E+03  0.00000000000E+00 0. -1.
         21   -1    0    0  502  503 -0.00000000000E+00 -0.00000000000E+00 -0.39406910101E+03  0.39406910101E+03  0.00000000000E+00 0. -1.
          6    1    1    2  501    0  0.12676846922E+03 -0.18309245047E+03 -0.50644161864E+02  0.28650815230E+03  0.17300000000E+03 0. -1.
         -6    1    1    2    0  503 -0.12676846922E+03  0.18309245047E+03 -0.13732822265E+03  0.31365766520E+03  0.17300000000E+03 0. -1.
<mgrwt>
<rscale>  2 0.28199661E+03</rscale>
<asrwt>0</asrwt>
<pdfrwt beam="1">  1       21 0.31707187E-01 0.28199661E+03</pdfrwt>
<pdfrwt beam="2">  1       21 0.60626015E-01 0.28199661E+03</pdfrwt>
<totfact> 0.23181284E+04</totfact>
</mgrwt>
</event>
<event>
 4    1  0.4510095E+000  0.1762776E+03  0.7546771E-02  0.1171455E+00
         21   -1    0    0  501  502  0.00000000000E+00  0.00000000000E+00  0.38037866791E+02  0.38037866791E+02  0.00000000000E+00 0. -1.
         21   -1    0    0  502  503 -0.00000000000E+00 -0.00000000000E+00 -0.84483832681E+03  0.84483832681E+03  0.00000000000E+00 0. -1.
          6    1    1    2  501    0  0.33796518240E+02  0.16121754894E+01 -0.48365044068E+03  0.51477330207E+03  0.17300000000E+03 0. -1.
         -6    1    1    2    0  503 -0.33796518240E+02 -0.16121754894E+01 -0.32315001934E+03  0.36810289154E+03  0.17300000000E+03 0. -1.
<mgrwt>
<rscale>  2 0.17627763E+03</rscale>
<asrwt>0</asrwt>
<pdfrwt beam="1">  1       21 0.58519795E-02 0.17627763E+03</pdfrwt>
<pdfrwt beam="2">  1       21 0.12997513E+00 0.17627763E+03</pdfrwt>
<totfact> 0.89671422E+04</totfact>
</mgrwt>
</event>
<event>
 4    1  0.4510095E+000  0.2425177E+03  0.7546771E-02  0.1118127E+00
         21   -1    0    0  503  502  0.00000000000E+00  0.00000000000E+00  0.30231167272E+03  0.30231167272E+03  0.00000000000E+00 0. -1.
         21   -1    0    0  501  503 -0.00000000000E+00 -0.00000000000E+00 -0.23631288790E+03  0.23631288790E+03  0.00000000000E+00 0. -1.
          6    1    1    2  501    0 -0.16995626634E+03  0.82614554644E+00 -0.80216229054E+02  0.25543973534E+03  0.17300000000E+03 0. -1.
         -6    1    1    2    0  502  0.16995626634E+03 -0.82614554644E+00  0.14621501388E+03  0.28318482528E+03  0.17300000000E+03 0. -1.
<mgrwt>
<rscale>  2 0.24251766E+03</rscale>
<asrwt>0</asrwt>
<pdfrwt beam="1">  1       21 0.46509488E-01 0.24251766E+03</pdfrwt>
<pdfrwt beam="2">  1       21 0.36355829E-01 0.24251766E+03</pdfrwt>
<totfact> 0.31504544E+04</totfact>
</mgrwt>
</event>
<event>
 4    1  0.4510095E+000  0.1758152E+03  0.7546771E-02  0.1171916E+00
         21   -1    0    0  501  502  0.00000000000E+00  0.00000000000E+00  0.20419369223E+03  0.20419369223E+03  0.00000000000E+00 0.  1.
         21   -1    0    0  502  503 -0.00000000000E+00 -0.00000000000E+00 -0.20413164331E+03  0.20413164331E+03  0.00000000000E+00 0.  1.
          6    1    1    2  501    0  0.63085959466E+01  0.30695303122E+02  0.10381635185E+03  0.20417843894E+03  0.17300000000E+03 0. -1.
         -6    1    1    2    0  503 -0.63085959466E+01 -0.30695303122E+02 -0.10375430293E+03  0.20414689660E+03  0.17300000000E+03 0. -1.
<mgrwt>
<rscale>  2 0.17581524E+03</rscale>
<asrwt>0</asrwt>
<pdfrwt beam="1">  1       21 0.31414414E-01 0.17581524E+03</pdfrwt>
<pdfrwt beam="2">  1       21 0.31404868E-01 0.17581524E+03</pdfrwt>
<totfact> 0.95516810E+04</totfact>
</mgrwt>
</event>
<event>
 4    1  0.4510095E+000  0.1875972E+03  0.7546771E-02  0.1160646E+00
         21   -1    0    0  501  502  0.00000000000E+00  0.00000000000E+00  0.90941573829E+03  0.90941573829E+03  0.00000000000E+00 0. -1.
         21   -1    0    0  502  503 -0.00000000000E+00 -0.00000000000E+00 -0.66687915225E+02  0.66687915225E+02  0.00000000000E+00 0. -1.
          6    1    1    2  501    0 -0.44067395358E+02  0.57634964853E+02  0.73754933732E+03  0.76103334322E+03  0.17300000000E+03 0. -1.
         -6    1    1    2    0  503  0.44067395358E+02 -0.57634964853E+02  0.10517848574E+03  0.21507031030E+03  0.17300000000E+03 0. -1.
<mgrwt>
<rscale>  2 0.18759724E+03</rscale>
<asrwt>0</asrwt>
<pdfrwt beam="1">  1       21 0.13991010E+00 0.18759724E+03</pdfrwt>
<pdfrwt beam="2">  1       21 0.10259680E-01 0.18759724E+03</pdfrwt>
<totfact> 0.27881939E+04</totfact>
</mgrwt>
</event>
<event>
 4    1  0.4510095E+000  0.1772409E+03  0.7546771E-02  0.1170500E+00
         21   -1    0    0  501  502  0.00000000000E+00  0.00000000000E+00  0.23211846728E+04  0.23211846728E+04  0.00000000000E+00 0.  1.
         21   -1    0    0  502  503 -0.00000000000E+00 -0.00000000000E+00 -0.15660843896E+02  0.15660843896E+02  0.00000000000E+00 0. -1.
          6    1    1    2  501    0  0.97054159507E+01 -0.37297970901E+02  0.15833735181E+04  0.15932627001E+04  0.17300000000E+03 0.  1.
         -6    1    1    2    0  503 -0.97054159507E+01  0.37297970901E+02  0.72215031078E+03  0.74358281656E+03  0.17300000000E+03 0. -1.
<mgrwt>
<rscale>  2 0.17724089E+03</rscale>
<asrwt>0</asrwt>
<pdfrwt beam="1">  1       21 0.35710506E+00 0.17724089E+03</pdfrwt>
<pdfrwt beam="2">  1       21 0.24093624E-02 0.17724089E+03</pdfrwt>
<totfact> 0.14685188E+04</totfact>
</mgrwt>
</event>
<event>
 4    1  0.4510095E+000  0.1840705E+03  0.7546771E-02  0.1163921E+00
         21   -1    0    0  501  502  0.00000000000E+00  0.00000000000E+00  0.12500525082E+03  0.12500525082E+03  0.00000000000E+00 0. -1.
         21   -1    0    0  502  503 -0.00000000000E+00 -0.00000000000E+00 -0.50429276527E+03  0.50429276527E+03  0.00000000000E+00 0. -1.
          6    1    1    2  501    0 -0.13043337132E+02 -0.61504727472E+02  0.24346696559E+02  0.18567369706E+03  0.17300000000E+03 0. -1.
         -6    1    1    2    0  503  0.13043337132E+02  0.61504727472E+02 -0.40363421101E+03  0.44362431904E+03  0.17300000000E+03 0. -1.
<mgrwt>
<rscale>  2 0.18407053E+03</rscale>
<asrwt>0</asrwt>
<pdfrwt beam="1">  1       21 0.19231577E-01 0.18407053E+03</pdfrwt>
<pdfrwt beam="2">  1       21 0.77583503E-01 0.18407053E+03</pdfrwt>
<totfact> 0.36761143E+04</totfact>
</mgrwt>
</event>
<event>
 4    1  0.4510095E+000  0.2117666E+03  0.7546771E-02  0.1140175E+00
         21   -1    0    0  503  502  0.00000000000E+00  0.00000000000E+00  0.23173602815E+04  0.23173602815E+04  0.00000000000E+00 0.  1.
         21   -1    0    0  501  503 -0.00000000000E+00 -0.00000000000E+00 -0.22424107482E+02  0.22424107482E+02  0.00000000000E+00 0.  1.
          6    1    1    2  501    0 -0.11415931688E+03 -0.43402028549E+02  0.71443526786E+03  0.74515960551E+03  0.17300000000E+03 0.  1.
         -6    1    1    2    0  502  0.11415931688E+03  0.43402028549E+02  0.15805009061E+04  0.15946247835E+04  0.17300000000E+03 0.  1.
<mgrwt>
<rscale>  2 0.21176658E+03</rscale>
<asrwt>0</asrwt>
<pdfrwt beam="1">  1       21 0.35651678E+00 0.21176658E+03</pdfrwt>
<pdfrwt beam="2">  1       21 0.34498645E-02 0.21176658E+03</pdfrwt>
<totfact> 0.78494155E+03</totfact>
</mgrwt>
</event>
<event>
 4    1  0.4510095E+000  0.1731890E+03  0.7546771E-02  0.1174562E+00
         21   -1    0    0  501  502  0.00000000000E+00  0.00000000000E+00  0.42616507336E+03  0.42616507336E+03  0.00000000000E+00 0.  1.
         21   -1    0    0  502  503 -0.00000000000E+00 -0.00000000000E+00 -0.11080667543E+03  0.11080667543E+03  0.00000000000E+00 0.  1.
          6    1    1    2  501    0  0.53408627260E+00 -0.80715738826E+01  0.31984552363E+03  0.36372461360E+03  0.17300000000E+03 0.  1.
         -6    1    1    2    0  503 -0.53408627260E+00  0.80715738826E+01 -0.44871257115E+01  0.17324713519E+03  0.17300000000E+03 0.  1.
<mgrwt>
<rscale>  2 0.17318902E+03</rscale>
<asrwt>0</asrwt>
<pdfrwt beam="1">  1       21 0.65563857E-01 0.17318902E+03</pdfrwt>
<pdfrwt beam="2">  1       21 0.17047181E-01 0.17318902E+03</pdfrwt>
<totfact> 0.66963778E+04</totfact>
</mgrwt>
</event>
<event>
 4    1  0.4510095E+000  0.2325184E+03  0.7546771E-02  0.1124880E+00
         21   -1    0    0  501  502  0.00000000000E+00  0.00000000000E+00  0.14203738825E+03  0.14203738825E+03  0.00000000000E+00 0.  1.
         21   -1    0    0  502  503 -0.00000000000E+00 -0.00000000000E+00 -0.41821210093E+03  0.41821210093E+03  0.00000000000E+00 0. -1.
          6    1    1    2  501    0 -0.41673663817E+02 -0.14966332182E+03 -0.54122331592E+02  0.23873422656E+03  0.17300000000E+03 0.  1.
         -6    1    1    2    0  503  0.41673663817E+02  0.14966332182E+03 -0.22205238109E+03  0.32151526263E+03  0.17300000000E+03 0. -1.
<mgrwt>
<rscale>  2 0.23251840E+03</rscale>
<asrwt>0</asrwt>
<pdfrwt beam="1">  1       21 0.21851906E-01 0.23251840E+03</pdfrwt>
<pdfrwt beam="2">  1       21 0.64340322E-01 0.23251840E+03</pdfrwt>
<totfact> 0.42733437E+04</totfact>
</mgrwt>
</event>
<event>
 4    1  0.4510095E+000  0.1861608E+03  0.7546771E-02  0.1161970E+00
         21   -1    0    0  501  502  0.00000000000E+00  0.00000000000E+00  0.13238673706E+04  0.13238673706E+04  0.00000000000E+00 0. -1.
         21   -1    0    0  502  503 -0.00000000000E+00 -0.00000000000E+00 -0.46938226990E+02  0.46938226990E+02  0.00000000000E+00 0. -1.
          6    1    1    2  501    0  0.30006768342E+02  0.61858311531E+02  0.10942928808E+04  0.11100147593E+04  0.17300000000E+03 0. -1.
         -6    1    1    2    0  503 -0.30006768342E+02 -0.61858311531E+02  0.18263626281E+03  0.26079083831E+03  0.17300000000E+03 0. -1.
<mgrwt>
<rscale>  2 0.18616084E+03</rscale>
<asrwt>0</asrwt>
<pdfrwt beam="1">  1       21 0.20367188E+00 0.18616084E+03</pdfrwt>
<pdfrwt beam="2">  1       21 0.72212667E-02 0.18616084E+03</pdfrwt>
<totfact> 0.18327552E+04</totfact>
</mgrwt>
</event>
<event>
 4    1  0.4510095E+000  0.2928360E+03  0.7546771E-02  0.1088878E+00
         21   -1    0    0  503  502  0.00000000000E+00  0.00000000000E+00  0.21057827340E+03  0.21057827340E+03  0.00000000000E+00 0. -1.
         21   -1    0    0  501  503 -0.00000000000E+00 -0.00000000000E+00 -0.10198880127E+04  0.10198880127E+04  0.00000000000E+00 0. -1.
          6    1    1    2  501    0  0.12531165276E+03 -0.20030211545E+03 -0.88149627195E+03  0.92886415866E+03  0.17300000000E+03 0. -1.
         -6    1    1    2    0  502 -0.12531165276E+03  0.20030211545E+03  0.72186532670E+02  0.30160212743E+03  0.17300000000E+03 0. -1.
<mgrwt>
<rscale>  2 0.29283604E+03</rscale>
<asrwt>0</asrwt>
<pdfrwt beam="1">  1       21 0.32396657E-01 0.29283604E+03</pdfrwt>
<pdfrwt beam="2">  1       21 0.15690585E+00 0.29283604E+03</pdfrwt>
<totfact> 0.22494563E+03</totfact>
</mgrwt>
</event>
<event>
 4    1  0.4510095E+000  0.2201142E+03  0.7546771E-02  0.1133798E+00
         21   -1    0    0  501  502  0.00000000000E+00  0.00000000000E+00  0.17750392981E+04  0.17750392981E+04  0.00000000000E+00 0.  1.
         21   -1    0    0  502  503 -0.00000000000E+00 -0.00000000000E+00 -0.42752229631E+02  0.42752229631E+02  0.00000000000E+00 0.  1.
          6    1    1    2  501    0  0.15390063678E+02  0.13521983853E+03  0.14126509796E+04  0.14296968381E+04  0.17300000000E+03 0.  1.
         -6    1    1    2    0  503 -0.15390063678E+02 -0.13521983853E+03  0.31963608890E+03  0.38809468964E+03  0.17300000000E+03 0.  1.
<mgrwt>
<rscale>  2 0.22011419E+03</rscale>
<asrwt>0</asrwt>
<pdfrwt beam="1">  1       21 0.27308291E+00 0.22011419E+03</pdfrwt>
<pdfrwt beam="2">  1       21 0.65772675E-02 0.22011419E+03</pdfrwt>
<totfact> 0.79971928E+03</totfact>
</mgrwt>
</event>
<event>
 4    1  0.4510095E+000  0.1731744E+03  0.7546771E-02  0.1174577E+00
         21   -1    0    0  501  502  0.00000000000E+00  0.00000000000E+00  0.41072470292E+03  0.41072470292E+03  0.00000000000E+00 0. -1.
         21   -1    0    0  502  503 -0.00000000000E+00 -0.00000000000E+00 -0.75098238998E+02  0.75098238998E+02  0.00000000000E+00 0. -1.
          6    1    1    2  501    0 -0.73092718293E+01 -0.26375035096E+01  0.12736290330E+03  0.21496672072E+03  0.17300000000E+03 0.  1.
         -6    1    1    2    0  503  0.73092718293E+01  0.26375035096E+01  0.20826356061E+03  0.27085622119E+03  0.17300000000E+03 0.  1.
<mgrwt>
<rscale>  2 0.17317443E+03</rscale>
<asrwt>0</asrwt>
<pdfrwt beam="1">  1       21 0.63188414E-01 0.17317443E+03</pdfrwt>
<pdfrwt beam="2">  1       21 0.11553575E-01 0.17317443E+03</pdfrwt>
<totfact> 0.14648737E+05</totfact>
</mgrwt>
</event>
<event>
 4    1  0.4510095E+000  0.1844018E+03  0.7546771E-02  0.1163610E+00
         21   -1    0    0  501  502  0.00000000000E+00  0.00000000000E+00  0.74370258539E+03  0.74370258539E+03  0.00000000000E+00 0. -1.
         21   -1    0    0  502  503 -0.00000000000E+00 -0.00000000000E+00 -0.70385552209E+02  0.70385552209E+02  0.00000000000E+00 0. -1.
          6    1    1    2  501    0 -0.47759401351E+02 -0.42356400614E+02  0.57760583143E+03  0.60632707476E+03  0.17300000000E+03 0. -1.
         -6    1    1    2    0  503  0.47759401351E+02  0.42356400614E+02  0.95711201755E+02  0.20776106284E+03  0.17300000000E+03 0. -1.
<mgrwt>
<rscale>  2 0.18440180E+03</rscale>
<asrwt>0</asrwt>
<pdfrwt beam="1">  1       21 0.11441578E+00 0.18440180E+03</pdfrwt>
<pdfrwt beam="2">  1       21 0.10828547E-01 0.18440180E+03</pdfrwt>
<totfact> 0.42016056E+04</totfact>
</mgrwt>
</event>
<event>
 4    1  0.4510095E+000  0.2137337E+03  0.7546771E-02  0.1138643E+00
         21   -1    0    0  503  502  0.00000000000E+00  0.00000000000E+00  0.62877466872E+03  0.62877466872E+03  0.00000000000E+00 0.  1.
         21   -1    0    0  501  503 -0.00000000000E+00 -0.00000000000E+00 -0.87409560010E+02  0.87409560010E+02  0.00000000000E+00 0. -1.
          6    1    1    2  501    0 -0.11779521090E+03  0.43328692170E+02  0.41781700685E+03  0.46931134494E+03  0.17300000000E+03 0.  1.
         -6    1    1    2    0  502  0.11779521090E+03 -0.43328692170E+02  0.12354810186E+03  0.24687288379E+03  0.17300000000E+03 0.  1.
<mgrwt>
<rscale>  2 0.21373368E+03</rscale>
<asrwt>0</asrwt>
<pdfrwt beam="1">  1       21 0.96734562E-01 0.21373368E+03</pdfrwt>
<pdfrwt beam="2">  1       21 0.13447625E-01 0.21373368E+03</pdfrwt>
<totfact> 0.41993445E+04</totfact>
</mgrwt>
</event>
<event>
 4    1  0.4510095E+000  0.2334163E+03  0.7546771E-02  0.1124258E+00
         21   -1    0    0  501  502  0.00000000000E+00  0.00000000000E+00  0.10768362537E+04  0.10768362537E+04  0.00000000000E+00 0.  1.
         21   -1    0    0  502  503 -0.00000000000E+00 -0.00000000000E+00 -0.70093927016E+02  0.70093927016E+02  0.00000000000E+00 0.  1.
          6    1    1    2  501    0  0.41754930193E+02  0.15103203189E+03  0.80582963185E+03  0.83895443525E+03  0.17300000000E+03 0.  1.
         -6    1    1    2    0  503 -0.41754930193E+02 -0.15103203189E+03  0.20091269484E+03  0.30797574547E+03  0.17300000000E+03 0.  1.
<mgrwt>
<rscale>  2 0.23341626E+03</rscale>
<asrwt>0</asrwt>
<pdfrwt beam="1">  1       21 0.16566710E+00 0.23341626E+03</pdfrwt>
<pdfrwt beam="2">  1       21 0.10783682E-01 0.23341626E+03</pdfrwt>
<totfact> 0.15812728E+04</totfact>
</mgrwt>
</event>
<event>
 4    1  0.4510095E+000  0.2894726E+03  0.7546771E-02  0.1090625E+00
         21   -1    0    0  503  502  0.00000000000E+00  0.00000000000E+00  0.20729678583E+03  0.20729678583E+03  0.00000000000E+00 0.  1.
         21   -1    0    0  501  503 -0.00000000000E+00 -0.00000000000E+00 -0.46114015857E+03  0.46114015857E+03  0.00000000000E+00 0.  1.
          6    1    1    2  501    0  0.44891839946E+02 -0.22770613635E+03 -0.95046021219E+01  0.28962855399E+03  0.17300000000E+03 0.  1.
         -6    1    1    2    0  502 -0.44891839946E+02  0.22770613635E+03 -0.24433877062E+03  0.37880839042E+03  0.17300000000E+03 0.  1.
<mgrwt>
<rscale>  2 0.28947256E+03</rscale>
<asrwt>0</asrwt>
<pdfrwt beam="1">  1       21 0.31891813E-01 0.28947256E+03</pdfrwt>
<pdfrwt beam="2">  1       21 0.70944639E-01 0.28947256E+03</pdfrwt>
<totfact> 0.16160749E+04</totfact>
</mgrwt>
</event>
<event>
 4    1  0.4510095E+000  0.1882624E+03  0.7546771E-02  0.1160038E+00
         21   -1    0    0  503  502  0.00000000000E+00  0.00000000000E+00  0.18093546828E+03  0.18093546828E+03  0.00000000000E+00 0.  1.
         21   -1    0    0  501  503 -0.00000000000E+00 -0.00000000000E+00 -0.62793418012E+03  0.62793418012E+03  0.00000000000E+00 0.  1.
          6    1    1    2  501    0  0.18001899285E+02  0.72039213283E+02 -0.55897237396E+03  0.58982440733E+03  0.17300000000E+03 0.  1.
         -6    1    1    2    0  502 -0.18001899285E+02 -0.72039213283E+02  0.11197366212E+03  0.21904524108E+03  0.17300000000E+03 0.  1.
<mgrwt>
<rscale>  2 0.18826236E+03</rscale>
<asrwt>0</asrwt>
<pdfrwt beam="1">  1       21 0.27836226E-01 0.18826236E+03</pdfrwt>
<pdfrwt beam="2">  1       21 0.96605258E-01 0.18826236E+03</pdfrwt>
<totfact> 0.11008327E+04</totfact>
</mgrwt>
</event>
<event>
 4    1  0.4510095E+000  0.2229148E+03  0.7546771E-02  0.1131728E+00
         21   -1    0    0  501  502  0.00000000000E+00  0.00000000000E+00  0.34650584248E+03  0.34650584248E+03  0.00000000000E+00 0. -1.
         21   -1    0    0  502  503 -0.00000000000E+00 -0.00000000000E+00 -0.18244889210E+03  0.18244889210E+03  0.00000000000E+00 0.  1.
          6    1    1    2  501    0 -0.13454959842E+03 -0.40723705219E+02 -0.40317285106E+02  0.22653145053E+03  0.17300000000E+03 0.  1.
         -6    1    1    2    0  503  0.13454959842E+03  0.40723705219E+02  0.20437423549E+03  0.30242328405E+03  0.17300000000E+03 0. -1.
<mgrwt>
<rscale>  2 0.22291481E+03</rscale>
<asrwt>0</asrwt>
<pdfrwt beam="1">  1       21 0.53308591E-01 0.22291481E+03</pdfrwt>
<pdfrwt beam="2">  1       21 0.28069060E-01 0.22291481E+03</pdfrwt>
<totfact> 0.39794240E+04</totfact>
</mgrwt>
</event>
<event>
 4    1  0.4510095E+000  0.2374098E+03  0.7546771E-02  0.1121530E+00
         21   -1    0    0  501  502  0.00000000000E+00  0.00000000000E+00  0.15618609606E+04  0.15618609606E+04  0.00000000000E+00 0. -1.
         21   -1    0    0  502  503 -0.00000000000E+00 -0.00000000000E+00 -0.48560287821E+02  0.48560287821E+02  0.00000000000E+00 0.  1.
          6    1    1    2  501    0  0.78050996630E+02 -0.14262703040E+03  0.11647377462E+04  0.11886872781E+04  0.17300000000E+03 0. -1.
         -6    1    1    2    0  503 -0.78050996630E+02  0.14262703040E+03  0.34856292660E+03  0.42173397027E+03  0.17300000000E+03 0.  1.
<mgrwt>
<rscale>  2 0.23740983E+03</rscale>
<asrwt>0</asrwt>
<pdfrwt beam="1">  1       21 0.24028626E+00 0.23740983E+03</pdfrwt>
<pdfrwt beam="2">  1       21 0.74708147E-02 0.23740983E+03</pdfrwt>
<totfact> 0.98695797E+03</totfact>
</mgrwt>
</event>
<event>
 4    1  0.4510095E+000  0.2333854E+03  0.7546771E-02  0.1124279E+00
         21   -1    0    0  503  502  0.00000000000E+00  0.00000000000E+00  0.10043617865E+04  0.10043617865E+04  0.00000000000E+00 0.  1.
         21   -1    0    0  501  503 -0.00000000000E+00 -0.00000000000E+00 -0.57392624489E+02  0.57392624489E+02  0.00000000000E+00 0. -1.
          6    1    1    2  501    0  0.37835745971E+02 -0.15201383799E+03  0.34890735572E+03  0.41976790431E+03  0.17300000000E+03 0.  1.
         -6    1    1    2    0  502 -0.37835745971E+02  0.15201383799E+03  0.59806180628E+03  0.64198650667E+03  0.17300000000E+03 0.  1.
<mgrwt>
<rscale>  2 0.23338541E+03</rscale>
<asrwt>0</asrwt>
<pdfrwt beam="1">  1       21 0.15451719E+00 0.23338541E+03</pdfrwt>
<pdfrwt beam="2">  1       21 0.88296353E-02 0.23338541E+03</pdfrwt>
<totfact> 0.27231227E+04</totfact>
</mgrwt>
</event>
<event>
 4    1  0.4510095E+000  0.2353271E+03  0.7546771E-02  0.1122945E+00
         21   -1    0    0  501  502  0.00000000000E+00  0.00000000000E+00  0.57892407930E+02  0.57892407930E+02  0.00000000000E+00 0.  1.
         21   -1    0    0  502  503 -0.00000000000E+00 -0.00000000000E+00 -0.10290280695E+04  0.10290280695E+04  0.00000000000E+00 0.  1.
          6    1    1    2  501    0 -0.96725678005E+02 -0.12686212798E+03 -0.34136941322E+03  0.41462263877E+03  0.17300000000E+03 0.  1.
         -6    1    1    2    0  503  0.96725678005E+02  0.12686212798E+03 -0.62976624834E+03  0.67229783865E+03  0.17300000000E+03 0.  1.
<mgrwt>
<rscale>  2 0.23532713E+03</rscale>
<asrwt>0</asrwt>
<pdfrwt beam="1">  1       21 0.89065248E-02 0.23532713E+03</pdfrwt>
<pdfrwt beam="2">  1       21 0.15831200E+00 0.23532713E+03</pdfrwt>
<totfact> 0.25093494E+04</totfact>
</mgrwt>
</event>
<event>
 4    1  0.4510095E+000  0.2010758E+03  0.7546771E-02  0.1148835E+00
         21   -1    0    0  501  502  0.00000000000E+00  0.00000000000E+00  0.33505253290E+02  0.33505253290E+02  0.00000000000E+00 0.  1.
         21   -1    0    0  502  503 -0.00000000000E+00 -0.00000000000E+00 -0.13769860335E+04  0.13769860335E+04  0.00000000000E+00 0.  1.
          6    1    1    2  501    0 -0.94030263884E+02  0.40752623017E+02 -0.91973335794E+03  0.94145680545E+03  0.17300000000E+03 0.  1.
         -6    1    1    2    0  503  0.94030263884E+02 -0.40752623017E+02 -0.42374742224E+03  0.46903448131E+03  0.17300000000E+03 0.  1.
<mgrwt>
<rscale>  2 0.20107577E+03</rscale>
<asrwt>0</asrwt>
<pdfrwt beam="1">  1       21 0.51546532E-02 0.20107577E+03</pdfrwt>
<pdfrwt beam="2">  1       21 0.21184405E+00 0.20107577E+03</pdfrwt>
<totfact> 0.28684676E+04</totfact>
</mgrwt>
</event>
<event>
 4    1  0.4510095E+000  0.2666004E+03  0.7546771E-02  0.1103241E+00
         21   -1    0    0  501  502  0.00000000000E+00  0.00000000000E+00  0.41934011995E+03  0.41934011995E+03  0.00000000000E+00 0. -1.
         21   -1    0    0  502  503 -0.00000000000E+00 -0.00000000000E+00 -0.18962995193E+03  0.18962995193E+03  0.00000000000E+00 0.  1.
          6    1    1    2  501    0 -0.18568256949E+02  0.20199502553E+03  0.15636033598E+02  0.26705852552E+03  0.17300000000E+03 0.  1.
         -6    1    1    2    0  503  0.18568256949E+02 -0.20199502553E+03  0.21407413442E+03  0.34191154636E+03  0.17300000000E+03 0. -1.
<mgrwt>
<rscale>  2 0.26660039E+03</rscale>
<asrwt>0</asrwt>
<pdfrwt beam="1">  1       21 0.64513864E-01 0.26660039E+03</pdfrwt>
<pdfrwt beam="2">  1       21 0.29173839E-01 0.26660039E+03</pdfrwt>
<totfact> 0.24004050E+04</totfact>
</mgrwt>
</event>
<event>
 4    1  0.4510095E+000  0.2081889E+03  0.7546771E-02  0.1143008E+00
         21   -1    0    0  501  502  0.00000000000E+00  0.00000000000E+00  0.23757647266E+03  0.23757647266E+03  0.00000000000E+00 0.  1.
         21   -1    0    0  502  503 -0.00000000000E+00 -0.00000000000E+00 -0.21580839047E+03  0.21580839047E+03  0.00000000000E+00 0. -1.
          6    1    1    2  501    0 -0.10427459592E+02  0.11534684911E+03  0.10002823480E+03  0.23097245565E+03  0.17300000000E+03 0.  1.
         -6    1    1    2    0  503  0.10427459592E+02 -0.11534684911E+03 -0.78260152616E+02  0.22241240748E+03  0.17300000000E+03 0. -1.
<mgrwt>
<rscale>  2 0.20818892E+03</rscale>
<asrwt>0</asrwt>
<pdfrwt beam="1">  1       21 0.36550227E-01 0.20818892E+03</pdfrwt>
<pdfrwt beam="2">  1       21 0.33201291E-01 0.20818892E+03</pdfrwt>
<totfact> 0.62614375E+04</totfact>
</mgrwt>
</event>
<event>
 4    1  0.4510095E+000  0.1976570E+03  0.7546771E-02  0.1151731E+00
         21   -1    0    0  503  502  0.00000000000E+00  0.00000000000E+00  0.23382442280E+03  0.23382442280E+03  0.00000000000E+00 0.  1.
         21   -1    0    0  501  503 -0.00000000000E+00 -0.00000000000E+00 -0.25739588814E+03  0.25739588814E+03  0.00000000000E+00 0.  1.
          6    1    1    2  501    0  0.85927611836E+02  0.41901317108E+02 -0.15727080740E+03  0.25259133340E+03  0.17300000000E+03 0.  1.
         -6    1    1    2    0  502 -0.85927611836E+02 -0.41901317108E+02  0.13369934206E+03  0.23862897754E+03  0.17300000000E+03 0.  1.
<mgrwt>
<rscale>  2 0.19765696E+03</rscale>
<asrwt>0</asrwt>
<pdfrwt beam="1">  1       21 0.35972988E-01 0.19765696E+03</pdfrwt>
<pdfrwt beam="2">  1       21 0.39599368E-01 0.19765696E+03</pdfrwt>
<totfact> 0.45694607E+04</totfact>
</mgrwt>
</event>
<event>
 4    1  0.4510095E+000  0.1863215E+03  0.7546771E-02  0.1161822E+00
         21   -1    0    0  503  502  0.00000000000E+00  0.00000000000E+00  0.23527350684E+04  0.23527350684E+04  0.00000000000E+00 0.  1.
         21   -1    0    0  501  503 -0.00000000000E+00 -0.00000000000E+00 -0.31005285365E+02  0.31005285365E+02  0.00000000000E+00 0.  1.
          6    1    1    2  501    0 -0.68230306873E+02  0.11459548242E+02  0.29801471742E+03  0.35146616881E+03  0.17300000000E+03 0.  1.
         -6    1    1    2    0  502  0.68230306873E+02 -0.11459548242E+02  0.20237150656E+04  0.20322741850E+04  0.17300000000E+03 0.  1.
<mgrwt>
<rscale>  2 0.18632149E+03</rscale>
<asrwt>0</asrwt>
<pdfrwt beam="1">  1       21 0.36195910E+00 0.18632149E+03</pdfrwt>
<pdfrwt beam="2">  1       21 0.47700458E-02 0.18632149E+03</pdfrwt>
<totfact> 0.43632510E+03</totfact>
</mgrwt>
</event>
<event>
 4    1  0.4510095E+000  0.2148961E+03  0.7546771E-02  0.1137746E+00
         21   -1    0    0  501  502  0.00000000000E+00  0.00000000000E+00  0.61418864685E+03  0.61418864685E+03  0.00000000000E+00 0.  1.
         21   -1    0    0  502  503 -0.00000000000E+00 -0.00000000000E+00 -0.92542927093E+02  0.92542927093E+02  0.00000000000E+00 0.  1.
          6    1    1    2  501    0  0.12747916179E+03 -0.63934457387E+00  0.41384328996E+03  0.46631171345E+03  0.17300000000E+03 0.  1.
         -6    1    1    2    0  503 -0.12747916179E+03  0.63934457387E+00  0.10780242980E+03  0.24041986050E+03  0.17300000000E+03 0.  1.
<mgrwt>
<rscale>  2 0.21489613E+03</rscale>
<asrwt>0</asrwt>
<pdfrwt beam="1">  1       21 0.94490558E-01 0.21489613E+03</pdfrwt>
<pdfrwt beam="2">  1       21 0.14237374E-01 0.21489613E+03</pdfrwt>
<totfact> 0.39989354E+04</totfact>
</mgrwt>
</event>
<event>
 4    1  0.4510095E+000  0.2036518E+03  0.7546771E-02  0.1146694E+00
         21   -1    0    0  503  502  0.00000000000E+00  0.00000000000E+00  0.29512676583E+03  0.29512676583E+03  0.00000000000E+00 0. -1.
         21   -1    0    0  501  503 -0.00000000000E+00 -0.00000000000E+00 -0.14881902197E+03  0.14881902197E+03  0.00000000000E+00 0. -1.
          6    1    1    2  501    0  0.32099828489E+02  0.10254103050E+03  0.20765914892E+02  0.20470780431E+03  0.17300000000E+03 0. -1.
         -6    1    1    2    0  502 -0.32099828489E+02 -0.10254103050E+03  0.12554182897E+03  0.23923798349E+03  0.17300000000E+03 0. -1.
<mgrwt>
<rscale>  2 0.20365182E+03</rscale>
<asrwt>0</asrwt>
<pdfrwt beam="1">  1       21 0.45404118E-01 0.20365182E+03</pdfrwt>
<pdfrwt beam="2">  1       21 0.22895234E-01 0.20365182E+03</pdfrwt>
<totfact> 0.82899318E+04</totfact>
</mgrwt>
</event>
<event>
 4    1  0.4510095E+000  0.2391711E+03  0.7546771E-02  0.1120346E+00
         21   -1    0    0  501  502  0.00000000000E+00  0.00000000000E+00  0.32101423561E+03  0.32101423561E+03  0.00000000000E+00 0. -1.
         21   -1    0    0  502  503 -0.00000000000E+00 -0.00000000000E+00 -0.17842562336E+03  0.17842562336E+03  0.00000000000E+00 0. -1.
          6    1    1    2  501    0  0.13907410141E+03  0.89062843481E+02  0.62296028939E+02  0.24715094779E+03  0.17300000000E+03 0. -1.
         -6    1    1    2    0  503 -0.13907410141E+03 -0.89062843481E+02  0.80292583305E+02  0.25228891118E+03  0.17300000000E+03 0. -1.
<mgrwt>
<rscale>  2 0.23917106E+03</rscale>
<asrwt>0</asrwt>
<pdfrwt beam="1">  1       21 0.49386805E-01 0.23917106E+03</pdfrwt>
<pdfrwt beam="2">  1       21 0.27450096E-01 0.23917106E+03</pdfrwt>
<totfact> 0.48448675E+04</totfact>
</mgrwt>
</event>
<event>
 4    1  0.4510095E+000  0.2381085E+03  0.7546771E-02  0.1121059E+00
         21   -1    0    0  501  502  0.00000000000E+00  0.00000000000E+00  0.60676729737E+03  0.60676729737E+03  0.00000000000E+00 0.  1.
         21   -1    0    0  502  503 -0.00000000000E+00 -0.00000000000E+00 -0.18179011543E+03  0.18179011543E+03  0.00000000000E+00 0.  1.
          6    1    1    2  501    0 -0.74249413985E+02 -0.14578640391E+03  0.48735680875E+03  0.54241341251E+03  0.17300000000E+03 0.  1.
         -6    1    1    2    0  503  0.74249413985E+02  0.14578640391E+03 -0.62379626806E+02  0.24614400030E+03  0.17300000000E+03 0.  1.
<mgrwt>
<rscale>  2 0.23810849E+03</rscale>
<asrwt>0</asrwt>
<pdfrwt beam="1">  1       21 0.93348814E-01 0.23810849E+03</pdfrwt>
<pdfrwt beam="2">  1       21 0.27967710E-01 0.23810849E+03</pdfrwt>
<totfact> 0.11448325E+04</totfact>
</mgrwt>
</event>
<event>
 4    1  0.4510095E+000  0.2127934E+03  0.7546771E-02  0.1139373E+00
         21   -1    0    0  503  502  0.00000000000E+00  0.00000000000E+00  0.24131573691E+03  0.24131573691E+03  0.00000000000E+00 0.  1.
         21   -1    0    0  501  503 -0.00000000000E+00 -0.00000000000E+00 -0.23069537015E+03  0.23069537015E+03  0.00000000000E+00 0.  1.
          6    1    1    2  501    0  0.12086674876E+03 -0.27262481952E+02 -0.96644079846E+02  0.23371155737E+03  0.17300000000E+03 0.  1.
         -6    1    1    2    0  502 -0.12086674876E+03  0.27262481952E+02  0.10726444661E+03  0.23829954969E+03  0.17300000000E+03 0.  1.
<mgrwt>
<rscale>  2 0.21279336E+03</rscale>
<asrwt>0</asrwt>
<pdfrwt beam="1">  1       21 0.37125498E-01 0.21279336E+03</pdfrwt>
<pdfrwt beam="2">  1       21 0.35491596E-01 0.21279336E+03</pdfrwt>
<totfact> 0.53052394E+04</totfact>
</mgrwt>
</event>
<event>
 4    1  0.4510095E+000  0.1901038E+03  0.7546771E-02  0.1158368E+00
         21   -1    0    0  501  502  0.00000000000E+00  0.00000000000E+00  0.37510783832E+03  0.37510783832E+03  0.00000000000E+00 0. -1.
         21   -1    0    0  502  503 -0.00000000000E+00 -0.00000000000E+00 -0.10208028876E+03  0.10208028876E+03  0.00000000000E+00 0. -1.
          6    1    1    2  501    0  0.24164523093E+02 -0.75010306391E+02  0.19307203615E+03  0.27095438986E+03  0.17300000000E+03 0. -1.
         -6    1    1    2    0  503 -0.24164523093E+02  0.75010306391E+02  0.79955513414E+02  0.20623373722E+03  0.17300000000E+03 0. -1.
<mgrwt>
<rscale>  2 0.19010384E+03</rscale>
<asrwt>0</asrwt>
<pdfrwt beam="1">  1       21 0.57708898E-01 0.19010384E+03</pdfrwt>
<pdfrwt beam="2">  1       21 0.15704660E-01 0.19010384E+03</pdfrwt>
<totfact> 0.10170710E+05</totfact>
</mgrwt>
</event>
<event>
 4    1  0.4510095E+000  0.2039451E+03  0.7546771E-02  0.1146453E+00
         21   -1    0    0  503  502  0.00000000000E+00  0.00000000000E+00  0.14102713446E+03  0.14102713446E+03  0.00000000000E+00 0. -1.
         21   -1    0    0  501  503 -0.00000000000E+00 -0.00000000000E+00 -0.47981924221E+03  0.47981924221E+03  0.00000000000E+00 0. -1.
          6    1    1    2  501    0 -0.10800092667E+03  0.62138709063E+00 -0.36208968881E+03  0.41557493792E+03  0.17300000000E+03 0. -1.
         -6    1    1    2    0  502  0.10800092667E+03 -0.62138709063E+00  0.23297581059E+02  0.20527143875E+03  0.17300000000E+03 0. -1.
<mgrwt>
<rscale>  2 0.20394506E+03</rscale>
<asrwt>0</asrwt>
<pdfrwt beam="1">  1       21 0.21696482E-01 0.20394506E+03</pdfrwt>
<pdfrwt beam="2">  1       21 0.73818345E-01 0.20394506E+03</pdfrwt>
<totfact> 0.32438269E+04</totfact>
</mgrwt>
</event>
<event>
 4    1  0.4510095E+000  0.2155083E+03  0.7546771E-02  0.1137277E+00
         21   -1    0    0  503  502  0.00000000000E+00  0.00000000000E+00  0.11809638669E+04  0.11809638669E+04  0.00000000000E+00 0.  1.
         21   -1    0    0  501  503 -0.00000000000E+00 -0.00000000000E+00 -0.48700294076E+02  0.48700294076E+02  0.00000000000E+00 0.  1.
          6    1    1    2  501    0  0.10506460807E+03 -0.74001837220E+02  0.29639801580E+03  0.36646367835E+03  0.17300000000E+03 0.  1.
         -6    1    1    2    0  502 -0.10506460807E+03  0.74001837220E+02  0.83586555702E+03  0.86320048262E+03  0.17300000000E+03 0.  1.
<mgrwt>
<rscale>  2 0.21550834E+03</rscale>
<asrwt>0</asrwt>
<pdfrwt beam="1">  1       21 0.18168673E+00 0.21550834E+03</pdfrwt>
<pdfrwt beam="2">  1       21 0.74923538E-02 0.21550834E+03</pdfrwt>
<totfact> 0.23460842E+04</totfact>
</mgrwt>
</event>
<event>
 4    1  0.4510095E+000  0.1873656E+03  0.7546771E-02  0.1160859E+00
         21   -1    0    0  501  502  0.00000000000E+00  0.00000000000E+00  0.10854729689E+03  0.10854729689E+03  0.00000000000E+00 0.  1.
         21   -1    0    0  502  503 -0.00000000000E+00 -0.00000000000E+00 -0.37509633189E+03  0.37509633189E+03  0.00000000000E+00 0. -1.
          6    1    1    2  501    0  0.17994517790E+02  0.69664039004E+02 -0.43513305099E+02  0.19235199173E+03  0.17300000000E+03 0.  1.
         -6    1    1    2    0  503 -0.17994517790E+02 -0.69664039004E+02 -0.22303572991E+03  0.29129163705E+03  0.17300000000E+03 0. -1.
<mgrwt>
<rscale>  2 0.18736563E+03</rscale>
<asrwt>0</asrwt>
<pdfrwt beam="1">  1       21 0.16699584E-01 0.18736563E+03</pdfrwt>
<pdfrwt beam="2">  1       21 0.57707128E-01 0.18736563E+03</pdfrwt>
<totfact> 0.90985387E+04</totfact>
</mgrwt>
</event>
<event>
 4    1  0.4510095E+000  0.1986698E+03  0.7546771E-02  0.1150866E+00
         21   -1    0    0  503  502  0.00000000000E+00  0.00000000000E+00  0.10061647668E+03  0.10061647668E+03  0.00000000000E+00 0.  1.
         21   -1    0    0  501  503 -0.00000000000E+00 -0.00000000000E+00 -0.39230100020E+03  0.39230100020E+03  0.00000000000E+00 0.  1.
          6    1    1    2  501    0 -0.63516788034E+02  0.74204412937E+02 -0.14397440907E+03  0.24535343431E+03  0.17300000000E+03 0.  1.
         -6    1    1    2    0  502  0.63516788034E+02 -0.74204412937E+02 -0.14771011445E+03  0.24756404257E+03  0.17300000000E+03 0.  1.
<mgrwt>
<rscale>  2 0.19866977E+03</rscale>
<asrwt>0</asrwt>
<pdfrwt beam="1">  1       21 0.15479458E-01 0.19866977E+03</pdfrwt>
<pdfrwt beam="2">  1       21 0.60353999E-01 0.19866977E+03</pdfrwt>
<totfact> 0.94540340E+04</totfact>
</mgrwt>
</event>
<event>
 4    1  0.4510095E+000  0.1866531E+03  0.7546771E-02  0.1161515E+00
         21   -1    0    0  503  502  0.00000000000E+00  0.00000000000E+00  0.32521545074E+03  0.32521545074E+03  0.00000000000E+00 0.  1.
         21   -1    0    0  501  503 -0.00000000000E+00 -0.00000000000E+00 -0.12958053513E+03  0.12958053513E+03  0.00000000000E+00 0. -1.
          6    1    1    2  501    0 -0.45559643658E+02 -0.53241752294E+02  0.31591324537E+01  0.18667979386E+03  0.17300000000E+03 0. -1.
         -6    1    1    2    0  502  0.45559643658E+02  0.53241752294E+02  0.19247578315E+03  0.26811619201E+03  0.17300000000E+03 0.  1.
<mgrwt>
<rscale>  2 0.18665306E+03</rscale>
<asrwt>0</asrwt>
<pdfrwt beam="1">  1       21 0.50033146E-01 0.18665306E+03</pdfrwt>
<pdfrwt beam="2">  1       21 0.19935467E-01 0.18665306E+03</pdfrwt>
<totfact> 0.88575512E+04</totfact>
</mgrwt>
</event>
<event>
 4    1  0.4510095E+000  0.2067726E+03  0.7546771E-02  0.1144148E+00
         21   -1    0    0  503  502  0.00000000000E+00  0.00000000000E+00  0.49858006498E+03  0.49858006498E+03  0.00000000000E+00 0.  1.
         21   -1    0    0  501  503 -0.00000000000E+00 -0.00000000000E+00 -0.90939727716E+02  0.90939727716E+02  0.00000000000E+00 0. -1.
          6    1    1    2  501    0  0.11483044687E+02 -0.11266786409E+03  0.13342807454E+03  0.24608526772E+03  0.17300000000E+03 0.  1.
         -6    1    1    2    0  502 -0.11483044687E+02  0.11266786409E+03  0.27421226273E+03  0.34343452497E+03  0.17300000000E+03 0.  1.
<mgrwt>
<rscale>  2 0.20677260E+03</rscale>
<asrwt>0</asrwt>
<pdfrwt beam="1">  1       21 0.76704624E-01 0.20677260E+03</pdfrwt>
<pdfrwt beam="2">  1       21 0.13990728E-01 0.20677260E+03</pdfrwt>
<totfact> 0.66870947E+04</totfact>
</mgrwt>
</event>
<event>
 4    1  0.4510095E+000  0.4933953E+03  0.7546771E-02  0.1015517E+00
         21   -1    0    0  501  502  0.00000000000E+00  0.00000000000E+00  0.34878873576E+03  0.34878873576E+03  0.00000000000E+00 0. -1.
         21   -1    0    0  502  503 -0.00000000000E+00 -0.00000000000E+00 -0.69819011834E+03  0.69819011834E+03  0.00000000000E+00 0.  1.
          6    1    1    2  501    0  0.29010028859E+03  0.35965503368E+03 -0.16509881665E+03  0.52028505644E+03  0.17300000000E+03 0.  1.
         -6    1    1    2    0  503 -0.29010028859E+03 -0.35965503368E+03 -0.18430256593E+03  0.52669379767E+03  0.17300000000E+03 0. -1.
<mgrwt>
<rscale>  2 0.49339530E+03</rscale>
<asrwt>0</asrwt>
<pdfrwt beam="1">  1       21 0.53659806E-01 0.49339530E+03</pdfrwt>
<pdfrwt beam="2">  1       21 0.10741386E+00 0.49339530E+03</pdfrwt>
<totfact> 0.19273806E+03</totfact>
</mgrwt>
</event>
<event>
 4    1  0.4510095E+000  0.2477739E+03  0.7546771E-02  0.1114720E+00
         21   -1    0    0  503  502  0.00000000000E+00  0.00000000000E+00  0.51699559208E+02  0.51699559208E+02  0.00000000000E+00 0.  1.
         21   -1    0    0  501  503 -0.00000000000E+00 -0.00000000000E+00 -0.12714706932E+04  0.12714706932E+04  0.00000000000E+00 0. -1.
          6    1    1    2  501    0  0.16800609961E+03  0.56893431703E+02 -0.77992990079E+03  0.81834134823E+03  0.17300000000E+03 0. -1.
         -6    1    1    2    0  502 -0.16800609961E+03 -0.56893431703E+02 -0.43984123325E+03  0.50482890422E+03  0.17300000000E+03 0.  1.
<mgrwt>
<rscale>  2 0.24777391E+03</rscale>
<asrwt>0</asrwt>
<pdfrwt beam="1">  1       21 0.79537785E-02 0.24777391E+03</pdfrwt>
<pdfrwt beam="2">  1       21 0.19561087E+00 0.24777391E+03</pdfrwt>
<totfact> 0.16715834E+04</totfact>
</mgrwt>
</event>
<event>
 4    1  0.4510095E+000  0.4652933E+03  0.7546771E-02  0.1023257E+00
         21   -1    0    0  501  502  0.00000000000E+00  0.00000000000E+00  0.88753875237E+03  0.88753875237E+03  0.00000000000E+00 0.  1.
         21   -1    0    0  502  503 -0.00000000000E+00 -0.00000000000E+00 -0.27070442514E+03  0.27070442514E+03  0.00000000000E+00 0. -1.
          6    1    1    2  501    0 -0.21005161231E+03 -0.37742170013E+03  0.49054555923E+03  0.67611594068E+03  0.17300000000E+03 0. -1.
         -6    1    1    2    0  503  0.21005161231E+03  0.37742170013E+03  0.12628876801E+03  0.48212723683E+03  0.17300000000E+03 0.  1.
<mgrwt>
<rscale>  2 0.46529326E+03</rscale>
<asrwt>0</asrwt>
<pdfrwt beam="1">  1       21 0.13654442E+00 0.46529326E+03</pdfrwt>
<pdfrwt beam="2">  1       21 0.41646835E-01 0.46529326E+03</pdfrwt>
<totfact> 0.18040528E+03</totfact>
</mgrwt>
</event>
<event>
 4    1  0.4510095E+000  0.1834503E+03  0.7546771E-02  0.1164505E+00
         21   -1    0    0  503  502  0.00000000000E+00  0.00000000000E+00  0.26197931475E+03  0.26197931475E+03  0.00000000000E+00 0. -1.
         21   -1    0    0  501  503 -0.00000000000E+00 -0.00000000000E+00 -0.31761974466E+03  0.31761974466E+03  0.00000000000E+00 0. -1.
          6    1    1    2  501    0  0.33781419887E+02  0.50831317079E+02 -0.25146442402E+03  0.31126895713E+03  0.17300000000E+03 0. -1.
         -6    1    1    2    0  502 -0.33781419887E+02 -0.50831317079E+02  0.19582399411E+03  0.26833010229E+03  0.17300000000E+03 0. -1.
<mgrwt>
<rscale>  2 0.18345029E+03</rscale>
<asrwt>0</asrwt>
<pdfrwt beam="1">  1       21 0.40304510E-01 0.18345029E+03</pdfrwt>
<pdfrwt beam="2">  1       21 0.48864576E-01 0.18345029E+03</pdfrwt>
<totfact> 0.23834327E+04</totfact>
</mgrwt>
</event>
<event>
 4    1  0.4510095E+000  0.1807353E+03  0.7546771E-02  0.1167093E+00
         21   -1    0    0  501  502  0.00000000000E+00  0.00000000000E+00  0.51830404826E+03  0.51830404826E+03  0.00000000000E+00 0.  1.
         21   -1    0    0  502  503 -0.00000000000E+00 -0.00000000000E+00 -0.13861376411E+03  0.13861376411E+03  0.00000000000E+00 0.  1.
          6    1    1    2  501    0 -0.43628750328E+02  0.28858248839E+02  0.43240066980E+03  0.46865296929E+03  0.17300000000E+03 0.  1.
         -6    1    1    2    0  503  0.43628750328E+02 -0.28858248839E+02 -0.52710385651E+02  0.18826484307E+03  0.17300000000E+03 0.  1.
<mgrwt>
<rscale>  2 0.18073535E+03</rscale>
<asrwt>0</asrwt>
<pdfrwt beam="1">  1       21 0.79739084E-01 0.18073535E+03</pdfrwt>
<pdfrwt beam="2">  1       21 0.21325195E-01 0.18073535E+03</pdfrwt>
<totfact> 0.28549258E+04</totfact>
</mgrwt>
</event>
<event>
 4    1  0.4510095E+000  0.2096648E+03  0.7546771E-02  0.1141832E+00
         21   -1    0    0  503  502  0.00000000000E+00  0.00000000000E+00  0.29063312105E+03  0.29063312105E+03  0.00000000000E+00 0.  1.
         21   -1    0    0  501  503 -0.00000000000E+00 -0.00000000000E+00 -0.25711463065E+03  0.25711463065E+03  0.00000000000E+00 0.  1.
          6    1    1    2  501    0 -0.49116432560E+02  0.10778647801E+03 -0.15897442069E+03  0.26312015358E+03  0.17300000000E+03 0.  1.
         -6    1    1    2    0  502  0.49116432560E+02 -0.10778647801E+03  0.19249291109E+03  0.28462759811E+03  0.17300000000E+03 0.  1.
<mgrwt>
<rscale>  2 0.20966485E+03</rscale>
<asrwt>0</asrwt>
<pdfrwt beam="1">  1       21 0.44712788E-01 0.20966485E+03</pdfrwt>
<pdfrwt beam="2">  1       21 0.39556097E-01 0.20966485E+03</pdfrwt>
<totfact> 0.29305734E+04</totfact>
</mgrwt>
</event>
<event>
 4    1  0.4510095E+000  0.1854366E+03  0.7546771E-02  0.1162643E+00
         21   -1    0    0  503  502  0.00000000000E+00  0.00000000000E+00  0.60908792285E+03  0.60908792285E+03  0.00000000000E+00 0. -1.
         21   -1    0    0  501  503 -0.00000000000E+00 -0.00000000000E+00 -0.60125822787E+02  0.60125822787E+02  0.00000000000E+00 0.  1.
          6    1    1    2  501    0  0.60819065182E+02  0.27545796717E+02  0.19181620036E+03  0.26679614751E+03  0.17300000000E+03 0.  1.
         -6    1    1    2    0  502 -0.60819065182E+02 -0.27545796717E+02  0.35714589970E+03  0.40241759813E+03  0.17300000000E+03 0. -1.
<mgrwt>
<rscale>  2 0.18543659E+03</rscale>
<asrwt>0</asrwt>
<pdfrwt beam="1">  1       21 0.93705830E-01 0.18543659E+03</pdfrwt>
<pdfrwt beam="2">  1       21 0.92501270E-02 0.18543659E+03</pdfrwt>
<totfact> 0.89313885E+04</totfact>
</mgrwt>
</event>
<event>
 4    1  0.4510095E+000  0.1756405E+03  0.7546771E-02  0.1172090E+00
         21   -1    0    0  501  502  0.00000000000E+00  0.00000000000E+00  0.18479284577E+04  0.18479284577E+04  0.00000000000E+00 0.  1.
         21   -1    0    0  502  503 -0.00000000000E+00 -0.00000000000E+00 -0.21054119170E+02  0.21054119170E+02  0.00000000000E+00 0.  1.
          6    1    1    2  501    0  0.18068681484E+02  0.24374136518E+02  0.13386916930E+04  0.13501648139E+04  0.17300000000E+03 0.  1.
         -6    1    1    2    0  503 -0.18068681484E+02 -0.24374136518E+02  0.48818264559E+03  0.51881776303E+03  0.17300000000E+03 0.  1.
<mgrwt>
<rscale>  2 0.17564047E+03</rscale>
<asrwt>0</asrwt>
<pdfrwt beam="1">  1       21 0.28429656E+00 0.17564047E+03</pdfrwt>
<pdfrwt beam="2">  1       21 0.32390967E-02 0.17564047E+03</pdfrwt>
<totfact> 0.23814047E+04</totfact>
</mgrwt>
</event>
<event>
 4    1  0.4510095E+000  0.1884703E+03  0.7546771E-02  0.1159848E+00
         21   -1    0    0  503  502  0.00000000000E+00  0.00000000000E+00  0.67296396766E+03  0.67296396766E+03  0.00000000000E+00 0.  1.
         21   -1    0    0  501  503 -0.00000000000E+00 -0.00000000000E+00 -0.57930405878E+02  0.57930405878E+02  0.00000000000E+00 0.  1.
          6    1    1    2  501    0  0.47951149900E+01  0.74626063669E+02  0.41645153554E+03  0.45711368822E+03  0.17300000000E+03 0.  1.
         -6    1    1    2    0  502 -0.47951149900E+01 -0.74626063669E+02  0.19858202625E+03  0.27378068532E+03  0.17300000000E+03 0.  1.
<mgrwt>
<rscale>  2 0.18847027E+03</rscale>
<asrwt>0</asrwt>
<pdfrwt beam="1">  1       21 0.10353291E+00 0.18847027E+03</pdfrwt>
<pdfrwt beam="2">  1       21 0.89123706E-02 0.18847027E+03</pdfrwt>
<totfact> 0.75236396E+04</totfact>
</mgrwt>
</event>
<event>
 4    1  0.4510095E+000  0.1849196E+03  0.7546771E-02  0.1163125E+00
         21   -1    0    0  501  502  0.00000000000E+00  0.00000000000E+00  0.49482648430E+02  0.49482648430E+02  0.00000000000E+00 0. -1.
         21   -1    0    0  502  503 -0.00000000000E+00 -0.00000000000E+00 -0.11168187052E+04  0.11168187052E+04  0.00000000000E+00 0. -1.
          6    1    1    2  501    0 -0.47346941838E+02 -0.44994780608E+02 -0.17360922209E+03  0.25364428867E+03  0.17300000000E+03 0. -1.
         -6    1    1    2    0  503  0.47346941838E+02  0.44994780608E+02 -0.89372683472E+03  0.91265706500E+03  0.17300000000E+03 0. -1.
<mgrwt>
<rscale>  2 0.18491961E+03</rscale>
<asrwt>0</asrwt>
<pdfrwt beam="1">  1       21 0.76127155E-02 0.18491961E+03</pdfrwt>
<pdfrwt beam="2">  1       21 0.17181825E+00 0.18491961E+03</pdfrwt>
<totfact> 0.27246922E+04</totfact>
</mgrwt>
</event>
<event>
 4    1  0.4510095E+000  0.1928397E+03  0.7546771E-02  0.1155925E+00
         21   -1    0    0  503  502  0.00000000000E+00  0.00000000000E+00  0.10959899527E+03  0.10959899527E+03  0.00000000000E+00 0.  1.
         21   -1    0    0  501  503 -0.00000000000E+00 -0.00000000000E+00 -0.57797477520E+03  0.57797477520E+03  0.00000000000E+00 0. -1.
          6    1    1    2  501    0  0.72116938374E+02 -0.45357618835E+02 -0.45510850170E+03  0.49427817543E+03  0.17300000000E+03 0. -1.
         -6    1    1    2    0  502 -0.72116938374E+02  0.45357618835E+02 -0.13267278228E+02  0.19329559503E+03  0.17300000000E+03 0.  1.
<mgrwt>
<rscale>  2 0.19283974E+03</rscale>
<asrwt>0</asrwt>
<pdfrwt beam="1">  1       21 0.16861384E-01 0.19283974E+03</pdfrwt>
<pdfrwt beam="2">  1       21 0.88919195E-01 0.19283974E+03</pdfrwt>
<totfact> 0.34213384E+04</totfact>
</mgrwt>
</event>
<event>
 4    1  0.4510095E+000  0.1930988E+03  0.7546771E-02  0.1155696E+00
         21   -1    0    0  501  502  0.00000000000E+00  0.00000000000E+00  0.40045895254E+03  0.40045895254E+03  0.00000000000E+00 0. -1.
         21   -1    0    0  502  503 -0.00000000000E+00 -0.00000000000E+00 -0.13459082358E+03  0.13459082358E+03  0.00000000000E+00 0.  1.
          6    1    1    2  501    0 -0.16373376657E+02  0.84202457922E+02  0.28145060121E+03  0.34132328122E+03  0.17300000000E+03 0. -1.
         -6    1    1    2    0  503  0.16373376657E+02 -0.84202457922E+02 -0.15582472254E+02  0.19372649490E+03  0.17300000000E+03 0. -1.
<mgrwt>
<rscale>  2 0.19309879E+03</rscale>
<asrwt>0</asrwt>
<pdfrwt beam="1">  1       21 0.61609069E-01 0.19309879E+03</pdfrwt>
<pdfrwt beam="2">  1       21 0.20706281E-01 0.19309879E+03</pdfrwt>
<totfact> 0.52942285E+04</totfact>
</mgrwt>
</event>
<event>
 4    1  0.4510095E+000  0.2015627E+03  0.7546771E-02  0.1148427E+00
         21   -1    0    0  503  502  0.00000000000E+00  0.00000000000E+00  0.32382821576E+03  0.32382821576E+03  0.00000000000E+00 0.  1.
         21   -1    0    0  501  503 -0.00000000000E+00 -0.00000000000E+00 -0.13354723975E+03  0.13354723975E+03  0.00000000000E+00 0.  1.
          6    1    1    2  501    0  0.10153594965E+03 -0.19722708145E+02  0.38864682745E+02  0.20527541950E+03  0.17300000000E+03 0.  1.
         -6    1    1    2    0  502 -0.10153594965E+03  0.19722708145E+02  0.15141629327E+03  0.25210003601E+03  0.17300000000E+03 0.  1.
<mgrwt>
<rscale>  2 0.20156273E+03</rscale>
<asrwt>0</asrwt>
<pdfrwt beam="1">  1       21 0.49819725E-01 0.20156273E+03</pdfrwt>
<pdfrwt beam="2">  1       21 0.20545729E-01 0.20156273E+03</pdfrwt>
<totfact> 0.83949886E+04</totfact>
</mgrwt>
</event>
<event>
 4    1  0.4510095E+000  0.1975989E+03  0.7546771E-02  0.1151781E+00
         21   -1    0    0  501  502  0.00000000000E+00  0.00000000000E+00  0.10703672302E+04  0.10703672302E+04  0.00000000000E+00 0. -1.
         21   -1    0    0  502  503 -0.00000000000E+00 -0.00000000000E+00 -0.36481869633E+02  0.36481869633E+02  0.00000000000E+00 0. -1.
          6    1    1    2  501    0  0.60530282936E+02  0.73840340952E+02  0.52232004304E+03  0.55844743572E+03  0.17300000000E+03 0. -1.
         -6    1    1    2    0  503 -0.60530282936E+02 -0.73840340952E+02  0.51156531756E+03  0.54840166414E+03  0.17300000000E+03 0. -1.
<mgrwt>
<rscale>  2 0.19759886E+03</rscale>
<asrwt>0</asrwt>
<pdfrwt beam="1">  1       21 0.16467186E+00 0.19759886E+03</pdfrwt>
<pdfrwt beam="2">  1       21 0.56125961E-02 0.19759886E+03</pdfrwt>
<totfact> 0.51300752E+04</totfact>
</mgrwt>
</event>
<event>
 4    1  0.4510095E+000  0.1818386E+03  0.7546771E-02  0.1166035E+00
         21   -1    0    0  503  502  0.00000000000E+00  0.00000000000E+00  0.84746054294E+02  0.84746054294E+02  0.00000000000E+00 0.  1.
         21   -1    0    0  501  503 -0.00000000000E+00 -0.00000000000E+00 -0.39985142287E+03  0.39985142287E+03  0.00000000000E+00 0.  1.
          6    1    1    2  501    0  0.42093667703E+02 -0.36937729630E+02 -0.19525748408E+03  0.26681596245E+03  0.17300000000E+03 0.  1.
         -6    1    1    2    0  502 -0.42093667703E+02  0.36937729630E+02 -0.11984788450E+03  0.21778151471E+03  0.17300000000E+03 0.  1.
<mgrwt>
<rscale>  2 0.18183859E+03</rscale>
<asrwt>0</asrwt>
<pdfrwt beam="1">  1       21 0.13037855E-01 0.18183859E+03</pdfrwt>
<pdfrwt beam="2">  1       21 0.61515602E-01 0.18183859E+03</pdfrwt>
<totfact> 0.12465391E+05</totfact>
</mgrwt>
</event>
<event>
 4    1  0.4510095E+000  0.2329455E+03  0.7546771E-02  0.1124584E+00
         21   -1    0    0  503  502  0.00000000000E+00  0.00000000000E+00  0.65386378093E+03  0.65386378093E+03  0.00000000000E+00 0.  1.
         21   -1    0    0  501  503 -0.00000000000E+00 -0.00000000000E+00 -0.85426884860E+02  0.85426884860E+02  0.00000000000E+00 0. -1.
          6    1    1    2  501    0  0.13748764875E+03 -0.73700465883E+02  0.22177607093E+03  0.32163370139E+03  0.17300000000E+03 0. -1.
         -6    1    1    2    0  502 -0.13748764875E+03  0.73700465883E+02  0.34666082513E+03  0.41765696440E+03  0.17300000000E+03 0.  1.
<mgrwt>
<rscale>  2 0.23294551E+03</rscale>
<asrwt>0</asrwt>
<pdfrwt beam="1">  1       21 0.10059442E+00 0.23294551E+03</pdfrwt>
<pdfrwt beam="2">  1       21 0.13142598E-01 0.23294551E+03</pdfrwt>
<totfact> 0.39522047E+04</totfact>
</mgrwt>
</event>
<event>
 4    1  0.4510095E+000  0.2095333E+03  0.7546771E-02  0.1141936E+00
         21   -1    0    0  503  502  0.00000000000E+00  0.00000000000E+00  0.36226738163E+03  0.36226738163E+03  0.00000000000E+00 0. -1.
         21   -1    0    0  501  503 -0.00000000000E+00 -0.00000000000E+00 -0.18650306905E+03  0.18650306905E+03  0.00000000000E+00 0. -1.
          6    1    1    2  501    0  0.72746259132E+02 -0.93183541632E+02 -0.74488870838E+02  0.22237981592E+03  0.17300000000E+03 0. -1.
         -6    1    1    2    0  502 -0.72746259132E+02  0.93183541632E+02  0.25025318342E+03  0.32639063476E+03  0.17300000000E+03 0. -1.
<mgrwt>
<rscale>  2 0.20953327E+03</rscale>
<asrwt>0</asrwt>
<pdfrwt beam="1">  1       21 0.55733443E-01 0.20953327E+03</pdfrwt>
<pdfrwt beam="2">  1       21 0.28692780E-01 0.20953327E+03</pdfrwt>
<totfact> 0.34930150E+04</totfact>
</mgrwt>
</event>
<event>
 4    1  0.4510095E+000  0.1994014E+03  0.7546771E-02  0.1150245E+00
         21   -1    0    0  501  502  0.00000000000E+00  0.00000000000E+00  0.18549037797E+03  0.18549037797E+03  0.00000000000E+00 0.  1.
         21   -1    0    0  502  503 -0.00000000000E+00 -0.00000000000E+00 -0.50423628646E+03  0.50423628646E+03  0.00000000000E+00 0.  1.
          6    1    1    2  501    0 -0.73784942359E+02  0.66239741240E+02  0.10210768202E+03  0.22402432851E+03  0.17300000000E+03 0.  1.
         -6    1    1    2    0  503  0.73784942359E+02 -0.66239741240E+02 -0.42085359051E+03  0.46570233592E+03  0.17300000000E+03 0.  1.
<mgrwt>
<rscale>  2 0.19940141E+03</rscale>
<asrwt>0</asrwt>
<pdfrwt beam="1">  1       21 0.28536981E-01 0.19940141E+03</pdfrwt>
<pdfrwt beam="2">  1       21 0.77574813E-01 0.19940141E+03</pdfrwt>
<totfact> 0.17238691E+04</totfact>
</mgrwt>
</event>
<event>
 4    1  0.4510095E+000  0.2210369E+03  0.7546771E-02  0.1133112E+00
         21   -1    0    0  501  502  0.00000000000E+00  0.00000000000E+00  0.35398642095E+02  0.35398642095E+02  0.00000000000E+00 0. -1.
         21   -1    0    0  502  503 -0.00000000000E+00 -0.00000000000E+00 -0.13886571986E+04  0.13886571986E+04  0.00000000000E+00 0. -1.
          6    1    1    2  501    0  0.28863641541E+01 -0.13754988987E+03 -0.73218669505E+03  0.76482328659E+03  0.17300000000E+03 0. -1.
         -6    1    1    2    0  503 -0.28863641541E+01  0.13754988987E+03 -0.62107186148E+03  0.65923255413E+03  0.17300000000E+03 0. -1.
<mgrwt>
<rscale>  2 0.22103688E+03</rscale>
<asrwt>0</asrwt>
<pdfrwt beam="1">  1       21 0.54459450E-02 0.22103688E+03</pdfrwt>
<pdfrwt beam="2">  1       21 0.21363957E+00 0.22103688E+03</pdfrwt>
<totfact> 0.25091862E+04</totfact>
</mgrwt>
</event>
<event>
 4    1  0.4510095E+000  0.2165089E+03  0.7546771E-02  0.1136513E+00
         21   -1    0    0  503  502  0.00000000000E+00  0.00000000000E+00  0.27839261517E+03  0.27839261517E+03  0.00000000000E+00 0. -1.
         21   -1    0    0  501  503 -0.00000000000E+00 -0.00000000000E+00 -0.22141477913E+03  0.22141477913E+03  0.00000000000E+00 0. -1.
          6    1    1    2  501    0  0.39688777539E+02 -0.12398344756E+03 -0.93816212307E+02  0.23596096292E+03  0.17300000000E+03 0. -1.
         -6    1    1    2    0  502 -0.39688777539E+02  0.12398344756E+03  0.15079404835E+03  0.26384643137E+03  0.17300000000E+03 0. -1.
<mgrwt>
<rscale>  2 0.21650888E+03</rscale>
<asrwt>0</asrwt>
<pdfrwt beam="1">  1       21 0.42829633E-01 0.21650888E+03</pdfrwt>
<pdfrwt beam="2">  1       21 0.34063812E-01 0.21650888E+03</pdfrwt>
<totfact> 0.43026927E+04</totfact>
</mgrwt>
</event>
<event>
 4    1  0.4510095E+000  0.2445481E+03  0.7546771E-02  0.1116800E+00
         21   -1    0    0  501  502  0.00000000000E+00  0.00000000000E+00  0.87951568800E+02  0.87951568800E+02  0.00000000000E+00 0.  1.
         21   -1    0    0  502  503 -0.00000000000E+00 -0.00000000000E+00 -0.83322839407E+03  0.83322839407E+03  0.00000000000E+00 0.  1.
          6    1    1    2  501    0 -0.29706578456E+02 -0.17027128972E+03 -0.17509851401E+03  0.30077114641E+03  0.17300000000E+03 0.  1.
         -6    1    1    2    0  503  0.29706578456E+02  0.17027128972E+03 -0.57017831126E+03  0.62040881646E+03  0.17300000000E+03 0.  1.
<mgrwt>
<rscale>  2 0.24454814E+03</rscale>
<asrwt>0</asrwt>
<pdfrwt beam="1">  1       21 0.13531011E-01 0.24454814E+03</pdfrwt>
<pdfrwt beam="2">  1       21 0.12818898E+00 0.24454814E+03</pdfrwt>
<totfact> 0.20536949E+04</totfact>
</mgrwt>
</event>
<event>
 4    1  0.4510095E+000  0.1965714E+03  0.7546771E-02  0.1152664E+00
         21   -1    0    0  501  502  0.00000000000E+00  0.00000000000E+00  0.74355435480E+03  0.74355435480E+03  0.00000000000E+00 0.  1.
         21   -1    0    0  502  503 -0.00000000000E+00 -0.00000000000E+00 -0.60964744503E+02  0.60964744503E+02  0.00000000000E+00 0.  1.
          6    1    1    2  501    0 -0.65370854957E+02 -0.66618070224E+02  0.49583197077E+03  0.53337572048E+03  0.17300000000E+03 0.  1.
         -6    1    1    2    0  503  0.65370854957E+02  0.66618070224E+02  0.18675763952E+03  0.27114337882E+03  0.17300000000E+03 0.  1.
<mgrwt>
<rscale>  2 0.19657140E+03</rscale>
<asrwt>0</asrwt>
<pdfrwt beam="1">  1       21 0.11439297E+00 0.19657140E+03</pdfrwt>
<pdfrwt beam="2">  1       21 0.93791920E-02 0.19657140E+03</pdfrwt>
<totfact> 0.53845367E+04</totfact>
</mgrwt>
</event>
<event>
 4    1  0.4510095E+000  0.2389917E+03  0.7546771E-02  0.1120466E+00
         21   -1    0    0  503  502  0.00000000000E+00  0.00000000000E+00  0.24675244883E+03  0.24675244883E+03  0.00000000000E+00 0.  1.
         21   -1    0    0  501  503 -0.00000000000E+00 -0.00000000000E+00 -0.26440938843E+03  0.26440938843E+03  0.00000000000E+00 0.  1.
          6    1    1    2  501    0  0.13938856883E+03  0.88084418668E+02 -0.99030101978E+02  0.25869673177E+03  0.17300000000E+03 0.  1.
         -6    1    1    2    0  502 -0.13938856883E+03 -0.88084418668E+02  0.81373162383E+02  0.25246510549E+03  0.17300000000E+03 0.  1.
<mgrwt>
<rscale>  2 0.23899171E+03</rscale>
<asrwt>0</asrwt>
<pdfrwt beam="1">  1       21 0.37961915E-01 0.23899171E+03</pdfrwt>
<pdfrwt beam="2">  1       21 0.40678367E-01 0.23899171E+03</pdfrwt>
<totfact> 0.38095847E+04</totfact>
</mgrwt>
</event>
<event>
 4    1  0.4510095E+000  0.2384519E+03  0.7546771E-02  0.1120828E+00
         21   -1    0    0  503  502  0.00000000000E+00  0.00000000000E+00  0.20315639757E+03  0.20315639757E+03  0.00000000000E+00 0. -1.
         21   -1    0    0  501  503 -0.00000000000E+00 -0.00000000000E+00 -0.28774959214E+03  0.28774959214E+03  0.00000000000E+00 0.  1.
          6    1    1    2  501    0 -0.14076310021E+03 -0.84356766551E+02 -0.82889528617E+02  0.25244799147E+03  0.17300000000E+03 0.  1.
         -6    1    1    2    0  502  0.14076310021E+03  0.84356766551E+02 -0.17036659587E+01  0.23845799824E+03  0.17300000000E+03 0.  1.
<mgrwt>
<rscale>  2 0.23845191E+03</rscale>
<asrwt>0</asrwt>
<pdfrwt beam="1">  1       21 0.31254830E-01 0.23845191E+03</pdfrwt>
<pdfrwt beam="2">  1       21 0.44269168E-01 0.23845191E+03</pdfrwt>
<totfact> 0.47194905E+04</totfact>
</mgrwt>
</event>
<event>
 4    1  0.4510095E+000  0.2131417E+03  0.7546771E-02  0.1139102E+00
         21   -1    0    0  503  502  0.00000000000E+00  0.00000000000E+00  0.55924698451E+03  0.55924698451E+03  0.00000000000E+00 0.  1.
         21   -1    0    0  501  503 -0.00000000000E+00 -0.00000000000E+00 -0.82081488858E+02  0.82081488858E+02  0.00000000000E+00 0.  1.
          6    1    1    2  501    0 -0.68788412294E+02  0.10377164168E+03  0.20598329898E+03  0.29640937694E+03  0.17300000000E+03 0.  1.
         -6    1    1    2    0  502  0.68788412294E+02 -0.10377164168E+03  0.27118219668E+03  0.34491909642E+03  0.17300000000E+03 0.  1.
<mgrwt>
<rscale>  2 0.21314174E+03</rscale>
<asrwt>0</asrwt>
<pdfrwt beam="1">  1       21 0.86037995E-01 0.21314174E+03</pdfrwt>
<pdfrwt beam="2">  1       21 0.12627922E-01 0.21314174E+03</pdfrwt>
<totfact> 0.61813868E+04</totfact>
</mgrwt>
</event>
<event>
 4    1  0.4510095E+000  0.1948794E+03  0.7546771E-02  0.1154133E+00
         21   -1    0    0  503  502  0.00000000000E+00  0.00000000000E+00  0.94187949125E+03  0.94187949125E+03  0.00000000000E+00 0.  1.
         21   -1    0    0  501  503 -0.00000000000E+00 -0.00000000000E+00 -0.41379511341E+02  0.41379511341E+02  0.00000000000E+00 0.  1.
          6    1    1    2  501    0  0.61346906326E+02 -0.65464002161E+02  0.37163709734E+03  0.41963330494E+03  0.17300000000E+03 0.  1.
         -6    1    1    2    0  502 -0.61346906326E+02  0.65464002161E+02  0.52886288257E+03  0.56362569765E+03  0.17300000000E+03 0.  1.
<mgrwt>
<rscale>  2 0.19487939E+03</rscale>
<asrwt>0</asrwt>
<pdfrwt beam="1">  1       21 0.14490452E+00 0.19487939E+03</pdfrwt>
<pdfrwt beam="2">  1       21 0.63660794E-02 0.19487939E+03</pdfrwt>
<totfact> 0.58222565E+04</totfact>
</mgrwt>
</event>
<event>
 4    1  0.4510095E+000  0.1731466E+03  0.7546771E-02  0.1174606E+00
         21   -1    0    0  501  502  0.00000000000E+00  0.00000000000E+00  0.13052567933E+03  0.13052567933E+03  0.00000000000E+00 0. -1.
         21   -1    0    0  502  503 -0.00000000000E+00 -0.00000000000E+00 -0.28813705898E+03  0.28813705898E+03  0.00000000000E+00 0. -1.
          6    1    1    2  501    0 -0.68945331991E+01  0.17894537473E+01  0.15477918752E+02  0.17383700038E+03  0.17300000000E+03 0. -1.
         -6    1    1    2    0  503  0.68945331991E+01 -0.17894537473E+01 -0.17308929840E+03  0.24482573793E+03  0.17300000000E+03 0. -1.
<mgrwt>
<rscale>  2 0.17314658E+03</rscale>
<asrwt>0</asrwt>
<pdfrwt beam="1">  1       21 0.20080874E-01 0.17314658E+03</pdfrwt>
<pdfrwt beam="2">  1       21 0.44328778E-01 0.17314658E+03</pdfrwt>
<totfact> 0.11276311E+05</totfact>
</mgrwt>
</event>
<event>
 4    1  0.4510095E+000  0.2664168E+03  0.7546771E-02  0.1103348E+00
         21   -1    0    0  501  502  0.00000000000E+00  0.00000000000E+00  0.23771613518E+03  0.23771613518E+03  0.00000000000E+00 0. -1.
         21   -1    0    0  502  503 -0.00000000000E+00 -0.00000000000E+00 -0.36706322386E+03  0.36706322386E+03  0.00000000000E+00 0. -1.
          6    1    1    2  501    0 -0.20008735028E+03  0.31842669727E+02 -0.19528472624E+03  0.33032412516E+03  0.17300000000E+03 0. -1.
         -6    1    1    2    0  503  0.20008735028E+03 -0.31842669727E+02  0.65937637556E+02  0.27445523388E+03  0.17300000000E+03 0. -1.
<mgrwt>
<rscale>  2 0.26641679E+03</rscale>
<asrwt>0</asrwt>
<pdfrwt beam="1">  1       21 0.36571713E-01 0.26641679E+03</pdfrwt>
<pdfrwt beam="2">  1       21 0.56471265E-01 0.26641679E+03</pdfrwt>
<totfact> 0.20459707E+04</totfact>
</mgrwt>
</event>
<event>
 4    1  0.4510095E+000  0.1903911E+03  0.7546771E-02  0.1158109E+00
         21   -1    0    0  501  502  0.00000000000E+00  0.00000000000E+00  0.21483036381E+03  0.21483036381E+03  0.00000000000E+00 0.  1.
         21   -1    0    0  502  503 -0.00000000000E+00 -0.00000000000E+00 -0.17390622424E+03  0.17390622424E+03  0.00000000000E+00 0.  1.
          6    1    1    2  501    0  0.79487745648E+02 -0.12049332777E+01  0.53988795549E+02  0.19789781105E+03  0.17300000000E+03 0.  1.
         -6    1    1    2    0  503 -0.79487745648E+02  0.12049332777E+01 -0.13064655973E+02  0.19083877700E+03  0.17300000000E+03 0.  1.
<mgrwt>
<rscale>  2 0.19039105E+03</rscale>
<asrwt>0</asrwt>
<pdfrwt beam="1">  1       21 0.33050825E-01 0.19039105E+03</pdfrwt>
<pdfrwt beam="2">  1       21 0.26754804E-01 0.19039105E+03</pdfrwt>
<totfact> 0.11732716E+05</totfact>
</mgrwt>
</event>
<event>
 4    1  0.4510095E+000  0.1751023E+03  0.7546771E-02  0.1172629E+00
         21   -1    0    0  501  502  0.00000000000E+00  0.00000000000E+00  0.20230703135E+04  0.20230703135E+04  0.00000000000E+00 0. -1.
         21   -1    0    0  502  503 -0.00000000000E+00 -0.00000000000E+00 -0.15450156996E+02  0.15450156996E+02  0.00000000000E+00 0. -1.
          6    1    1    2  501    0  0.90550704802E+01  0.25491376118E+02  0.11445501724E+04  0.11578669620E+04  0.17300000000E+03 0.  1.
         -6    1    1    2    0  503 -0.90550704802E+01 -0.25491376118E+02  0.86306998407E+03  0.88065350846E+03  0.17300000000E+03 0.  1.
<mgrwt>
<rscale>  2 0.17510227E+03</rscale>
<asrwt>0</asrwt>
<pdfrwt beam="1">  1       21 0.31124138E+00 0.17510227E+03</pdfrwt>
<pdfrwt beam="2">  1       21 0.23769488E-02 0.17510227E+03</pdfrwt>
<totfact> 0.27798268E+04</totfact>
</mgrwt>
</event>
<event>
 4    1  0.4510095E+000  0.1763652E+03  0.7546771E-02  0.1171368E+00
         21   -1    0    0  501  502  0.00000000000E+00  0.00000000000E+00  0.64577333433E+02  0.64577333433E+02  0.00000000000E+00 0.  1.
         21   -1    0    0  502  503 -0.00000000000E+00 -0.00000000000E+00 -0.60010943400E+03  0.60010943400E+03  0.00000000000E+00 0.  1.
          6    1    1    2  501    0  0.33026666075E+02  0.92145740261E+01 -0.12011778419E+03  0.21338451473E+03  0.17300000000E+03 0.  1.
         -6    1    1    2    0  503 -0.33026666075E+02 -0.92145740261E+01 -0.41541431638E+03  0.45130225271E+03  0.17300000000E+03 0.  1.
<mgrwt>
<rscale>  2 0.17636516E+03</rscale>
<asrwt>0</asrwt>
<pdfrwt beam="1">  1       21 0.99349736E-02 0.17636516E+03</pdfrwt>
<pdfrwt beam="2">  1       21 0.92324535E-01 0.17636516E+03</pdfrwt>
<totfact> 0.81857028E+04</totfact>
</mgrwt>
</event>
<event>
 4    1  0.4510095E+000  0.1945216E+03  0.7546771E-02  0.1154445E+00
         21   -1    0    0  503  502  0.00000000000E+00  0.00000000000E+00  0.35139344201E+02  0.35139344201E+02  0.00000000000E+00 0. -1.
         21   -1    0    0  501  503 -0.00000000000E+00 -0.00000000000E+00 -0.16933037507E+04  0.16933037507E+04  0.00000000000E+00 0. -1.
          6    1    1    2  501    0 -0.42642825015E+02  0.78046345337E+02 -0.13505404443E+04  0.13644772384E+04  0.17300000000E+03 0. -1.
         -6    1    1    2    0  502  0.42642825015E+02 -0.78046345337E+02 -0.30762396219E+03  0.36396585645E+03  0.17300000000E+03 0. -1.
<mgrwt>
<rscale>  2 0.19452157E+03</rscale>
<asrwt>0</asrwt>
<pdfrwt beam="1">  1       21 0.54060529E-02 0.19452157E+03</pdfrwt>
<pdfrwt beam="2">  1       21 0.26050827E+00 0.19452157E+03</pdfrwt>
<totfact> 0.13571920E+04</totfact>
</mgrwt>
</event>
<event>
 4    1  0.4510095E+000  0.4122445E+03  0.7546771E-02  0.1039620E+00
         21   -1    0    0  501  502  0.00000000000E+00  0.00000000000E+00  0.17145731093E+04  0.17145731093E+04  0.00000000000E+00 0.  1.
         21   -1    0    0  502  503 -0.00000000000E+00 -0.00000000000E+00 -0.11004600762E+03  0.11004600762E+03  0.00000000000E+00 0. -1.
          6    1    1    2  501    0 -0.29375973885E+01  0.37417628545E+03  0.10897518604E+04  0.11651200107E+04  0.17300000000E+03 0.  1.
         -6    1    1    2    0  503  0.29375973885E+01 -0.37417628545E+03  0.51477524128E+03  0.65949910622E+03  0.17300000000E+03 0. -1.
<mgrwt>
<rscale>  2 0.41224449E+03</rscale>
<asrwt>0</asrwt>
<pdfrwt beam="1">  1       21 0.26378046E+00 0.41224449E+03</pdfrwt>
<pdfrwt beam="2">  1       21 0.16930156E-01 0.41224449E+03</pdfrwt>
<totfact> 0.14568952E+03</totfact>
</mgrwt>
</event>
<event>
 4    1  0.4510095E+000  0.3101805E+03  0.7546771E-02  0.1080259E+00
         21   -1    0    0  501  502  0.00000000000E+00  0.00000000000E+00  0.16284194905E+03  0.16284194905E+03  0.00000000000E+00 0. -1.
         21   -1    0    0  502  503 -0.00000000000E+00 -0.00000000000E+00 -0.59813640973E+03  0.59813640973E+03  0.00000000000E+00 0.  1.
          6    1    1    2  501    0 -0.17315407145E+02 -0.25687179687E+03 -0.17559511103E+03  0.35643454710E+03  0.17300000000E+03 0.  1.
         -6    1    1    2    0  503  0.17315407145E+02  0.25687179687E+03 -0.25969934965E+03  0.40454381167E+03  0.17300000000E+03 0. -1.
<mgrwt>
<rscale>  2 0.31018050E+03</rscale>
<asrwt>0</asrwt>
<pdfrwt beam="1">  1       21 0.25052607E-01 0.31018050E+03</pdfrwt>
<pdfrwt beam="2">  1       21 0.92020989E-01 0.31018050E+03</pdfrwt>
<totfact> 0.14147270E+04</totfact>
</mgrwt>
</event>
<event>
 4    1  0.4510095E+000  0.3029489E+03  0.7546771E-02  0.1083776E+00
         21   -1    0    0  501  502  0.00000000000E+00  0.00000000000E+00  0.17884588644E+03  0.17884588644E+03  0.00000000000E+00 0.  1.
         21   -1    0    0  502  503 -0.00000000000E+00 -0.00000000000E+00 -0.53769830536E+03  0.53769830536E+03  0.00000000000E+00 0. -1.
          6    1    1    2  501    0  0.24855621926E+03  0.82980310395E+01 -0.25594919060E+03  0.39659556178E+03  0.17300000000E+03 0. -1.
         -6    1    1    2    0  503 -0.24855621926E+03 -0.82980310395E+01 -0.10290322833E+03  0.31994863002E+03  0.17300000000E+03 0.  1.
<mgrwt>
<rscale>  2 0.30294893E+03</rscale>
<asrwt>0</asrwt>
<pdfrwt beam="1">  1       21 0.27514752E-01 0.30294893E+03</pdfrwt>
<pdfrwt beam="2">  1       21 0.82722815E-01 0.30294893E+03</pdfrwt>
<totfact> 0.15162819E+04</totfact>
</mgrwt>
</event>
<event>
 4    1  0.4510095E+000  0.3180277E+03  0.7546771E-02  0.1076561E+00
         21   -1    0    0  503  502  0.00000000000E+00  0.00000000000E+00  0.55461570551E+03  0.55461570551E+03  0.00000000000E+00 0.  1.
         21   -1    0    0  501  503 -0.00000000000E+00 -0.00000000000E+00 -0.18237378741E+03  0.18237378741E+03  0.00000000000E+00 0.  1.
          6    1    1    2  501    0  0.58550614384E+02  0.26035440556E+03  0.18333636902E+03  0.36708829339E+03  0.17300000000E+03 0.  1.
         -6    1    1    2    0  502 -0.58550614384E+02 -0.26035440556E+03  0.18890554908E+03  0.36990119953E+03  0.17300000000E+03 0.  1.
<mgrwt>
<rscale>  2 0.31802766E+03</rscale>
<asrwt>0</asrwt>
<pdfrwt beam="1">  1       21 0.85325492E-01 0.31802766E+03</pdfrwt>
<pdfrwt beam="2">  1       21 0.28057506E-01 0.31802766E+03</pdfrwt>
<totfact> 0.13501493E+04</totfact>
</mgrwt>
</event>
<event>
 4    1  0.4510095E+000  0.3483299E+03  0.7546771E-02  0.1063303E+00
         21   -1    0    0  501  502  0.00000000000E+00  0.00000000000E+00  0.17775834891E+03  0.17775834891E+03  0.00000000000E+00 0. -1.
         21   -1    0    0  502  503 -0.00000000000E+00 -0.00000000000E+00 -0.70803950456E+03  0.70803950456E+03  0.00000000000E+00 0.  1.
          6    1    1    2  501    0 -0.11263722455E+03 -0.28056654775E+03 -0.18115053395E+03  0.39261845094E+03  0.17300000000E+03 0.  1.
         -6    1    1    2    0  503  0.11263722455E+03  0.28056654775E+03 -0.34913062170E+03  0.49317940253E+03  0.17300000000E+03 0. -1.
<mgrwt>
<rscale>  2 0.34832992E+03</rscale>
<asrwt>0</asrwt>
<pdfrwt beam="1">  1       21 0.27347439E-01 0.34832992E+03</pdfrwt>
<pdfrwt beam="2">  1       21 0.10892915E+00 0.34832992E+03</pdfrwt>
<totfact> 0.78214230E+03</totfact>
</mgrwt>
</event>
<event>
 4    1  0.4510095E+000  0.3860845E+03  0.7546771E-02  0.1048708E+00
         21   -1    0    0  501  502  0.00000000000E+00  0.00000000000E+00  0.68653458954E+03  0.68653458954E+03  0.00000000000E+00 0. -1.
         21   -1    0    0  502  503 -0.00000000000E+00 -0.00000000000E+00 -0.22255658647E+03  0.22255658647E+03  0.00000000000E+00 0. -1.
          6    1    1    2  501    0 -0.33975166258E+03 -0.60836014910E+02  0.30302401922E+03  0.49080013158E+03  0.17300000000E+03 0. -1.
         -6    1    1    2    0  503  0.33975166258E+03  0.60836014910E+02  0.16095398385E+03  0.41829104443E+03  0.17300000000E+03 0. -1.
<mgrwt>
<rscale>  2 0.38608446E+03</rscale>
<asrwt>0</asrwt>
<pdfrwt beam="1">  1       21 0.10562070E+00 0.38608446E+03</pdfrwt>
<pdfrwt beam="2">  1       21 0.34239475E-01 0.38608446E+03</pdfrwt>
<totfact> 0.53214980E+03</totfact>
</mgrwt>
</event>
<event>
 4    1  0.4510095E+000  0.1789364E+03  0.7546771E-02  0.1168836E+00
         21   -1    0    0  501  502  0.00000000000E+00  0.00000000000E+00  0.50955383531E+02  0.50955383531E+02  0.00000000000E+00 0. -1.
         21   -1    0    0  502  503 -0.00000000000E+00 -0.00000000000E+00 -0.63903242593E+03  0.63903242593E+03  0.00000000000E+00 0. -1.
          6    1    1    2  501    0  0.44855485634E+02 -0.87881372605E+01 -0.24945103061E+03  0.30699195856E+03  0.17300000000E+03 0.  1.
         -6    1    1    2    0  503 -0.44855485634E+02  0.87881372605E+01 -0.33862601179E+03  0.38299585090E+03  0.17300000000E+03 0.  1.
<mgrwt>
<rscale>  2 0.17893643E+03</rscale>
<asrwt>0</asrwt>
<pdfrwt beam="1">  1       21 0.78392896E-02 0.17893643E+03</pdfrwt>
<pdfrwt beam="2">  1       21 0.98312683E-01 0.17893643E+03</pdfrwt>
<totfact> 0.10683415E+05</totfact>
</mgrwt>
</event>
<event>
 4    1  0.4510095E+000  0.2686443E+03  0.7546771E-02  0.1102058E+00
         21   -1    0    0  501  502  0.00000000000E+00  0.00000000000E+00  0.20014516383E+03  0.20014516383E+03  0.00000000000E+00 0.  1.
         21   -1    0    0  502  503 -0.00000000000E+00 -0.00000000000E+00 -0.13383612315E+04  0.13383612315E+04  0.00000000000E+00 0.  1.
          6    1    1    2  501    0  0.19837754230E+03 -0.53732026464E+02  0.88401251618E+02  0.28281541904E+03  0.17300000000E+03 0.  1.
         -6    1    1    2    0  503 -0.19837754230E+03  0.53732026464E+02 -0.12266173193E+04  0.12556909763E+04  0.17300000000E+03 0.  1.
<mgrwt>
<rscale>  2 0.26864434E+03</rscale>
<asrwt>0</asrwt>
<pdfrwt beam="1">  1       21 0.30791562E-01 0.26864434E+03</pdfrwt>
<pdfrwt beam="2">  1       21 0.20590174E+00 0.26864434E+03</pdfrwt>
<totfact> 0.11598562E+03</totfact>
</mgrwt>
</event>
<event>
 4    1  0.4510095E+000  0.2077315E+03  0.7546771E-02  0.1143375E+00
         21   -1    0    0  503  502  0.00000000000E+00  0.00000000000E+00  0.78938312657E+03  0.78938312657E+03  0.00000000000E+00 0. -1.
         21   -1    0    0  501  503 -0.00000000000E+00 -0.00000000000E+00 -0.74202617644E+02  0.74202617644E+02  0.00000000000E+00 0.  1.
          6    1    1    2  501    0 -0.24921583730E+02  0.11225993064E+03  0.13603037694E+03  0.24830755287E+03  0.17300000000E+03 0.  1.
         -6    1    1    2    0  502  0.24921583730E+02 -0.11225993064E+03  0.57915013199E+03  0.61527819135E+03  0.17300000000E+03 0. -1.
<mgrwt>
<rscale>  2 0.20773150E+03</rscale>
<asrwt>0</asrwt>
<pdfrwt beam="1">  1       21 0.12144355E+00 0.20773150E+03</pdfrwt>
<pdfrwt beam="2">  1       21 0.11415788E-01 0.20773150E+03</pdfrwt>
<totfact> 0.32601880E+04</totfact>
</mgrwt>
</event>
<event>
 4    1  0.4510095E+000  0.1812505E+03  0.7546771E-02  0.1166598E+00
         21   -1    0    0  501  502  0.00000000000E+00  0.00000000000E+00  0.45297077420E+03  0.45297077420E+03  0.00000000000E+00 0.  1.
         21   -1    0    0  502  503 -0.00000000000E+00 -0.00000000000E+00 -0.73297039642E+02  0.73297039642E+02  0.00000000000E+00 0. -1.
          6    1    1    2  501    0  0.51604546729E+02  0.16115435701E+02  0.21684123900E+03  0.28261609905E+03  0.17300000000E+03 0.  1.
         -6    1    1    2    0  503 -0.51604546729E+02 -0.16115435701E+02  0.16283249556E+03  0.24365171479E+03  0.17300000000E+03 0. -1.
<mgrwt>
<rscale>  2 0.18125048E+03</rscale>
<asrwt>0</asrwt>
<pdfrwt beam="1">  1       21 0.69687809E-01 0.18125048E+03</pdfrwt>
<pdfrwt beam="2">  1       21 0.11276468E-01 0.18125048E+03</pdfrwt>
<totfact> 0.12320636E+05</totfact>
</mgrwt>
</event>
<event>
 4    1  0.4510095E+000  0.1879884E+03  0.7546771E-02  0.1160288E+00
         21   -1    0    0  501  502  0.00000000000E+00  0.00000000000E+00  0.26491710428E+03  0.26491710428E+03  0.00000000000E+00 0.  1.
         21   -1    0    0  502  503 -0.00000000000E+00 -0.00000000000E+00 -0.14393051116E+03  0.14393051116E+03  0.00000000000E+00 0.  1.
          6    1    1    2  501    0 -0.61658277627E+02 -0.40111172761E+02  0.11579041740E+03  0.22078738674E+03  0.17300000000E+03 0.  1.
         -6    1    1    2    0  503  0.61658277627E+02  0.40111172761E+02  0.51961757225E+01  0.18806022871E+03  0.17300000000E+03 0.  1.
<mgrwt>
<rscale>  2 0.18798843E+03</rscale>
<asrwt>0</asrwt>
<pdfrwt beam="1">  1       21 0.40756478E-01 0.18798843E+03</pdfrwt>
<pdfrwt beam="2">  1       21 0.22143156E-01 0.18798843E+03</pdfrwt>
<totfact> 0.11077499E+05</totfact>
</mgrwt>
</event>
<event>
 4    1  0.4510095E+000  0.2003674E+03  0.7546771E-02  0.1149429E+00
         21   -1    0    0  501  502  0.00000000000E+00  0.00000000000E+00  0.23721854923E+03  0.23721854923E+03  0.00000000000E+00 0.  1.
         21   -1    0    0  502  503 -0.00000000000E+00 -0.00000000000E+00 -0.17637419533E+03  0.17637419533E+03  0.00000000000E+00 0.  1.
          6    1    1    2  501    0 -0.13856387261E+02  0.10013036904E+03 -0.11165941869E+02  0.20067827120E+03  0.17300000000E+03 0.  1.
         -6    1    1    2    0  503  0.13856387261E+02 -0.10013036904E+03  0.72010295771E+02  0.21291447337E+03  0.17300000000E+03 0.  1.
<mgrwt>
<rscale>  2 0.20036739E+03</rscale>
<asrwt>0</asrwt>
<pdfrwt beam="1">  1       21 0.36495162E-01 0.20036739E+03</pdfrwt>
<pdfrwt beam="2">  1       21 0.27134491E-01 0.20036739E+03</pdfrwt>
<totfact> 0.93434802E+04</totfact>
</mgrwt>
</event>
<event>
 4    1  0.4510095E+000  0.2584247E+03  0.7546771E-02  0.1108093E+00
         21   -1    0    0  503  502  0.00000000000E+00  0.00000000000E+00  0.23884057139E+02  0.23884057139E+02  0.00000000000E+00 0.  1.
         21   -1    0    0  501  503 -0.00000000000E+00 -0.00000000000E+00 -0.27966857608E+04  0.27966857608E+04  0.00000000000E+00 0.  1.
          6    1    1    2  501    0 -0.17657324450E+03  0.75340611162E+02 -0.14059874388E+04  0.14295397848E+04  0.17300000000E+03 0.  1.
         -6    1    1    2    0  502  0.17657324450E+03 -0.75340611162E+02 -0.13668142648E+04  0.13910300331E+04  0.17300000000E+03 0.  1.
<mgrwt>
<rscale>  2 0.25842469E+03</rscale>
<asrwt>0</asrwt>
<pdfrwt beam="1">  1       21 0.36744713E-02 0.25842469E+03</pdfrwt>
<pdfrwt beam="2">  1       21 0.43025923E+00 0.25842469E+03</pdfrwt>
<totfact> 0.23275388E+03</totfact>
</mgrwt>
</event>
<event>
 4    1  0.4510095E+000  0.1792924E+03  0.7546771E-02  0.1168490E+00
         21   -1    0    0  503  502  0.00000000000E+00  0.00000000000E+00  0.47806547446E+02  0.47806547446E+02  0.00000000000E+00 0.  1.
         21   -1    0    0  501  503 -0.00000000000E+00 -0.00000000000E+00 -0.72891101374E+03  0.72891101374E+03  0.00000000000E+00 0.  1.
          6    1    1    2  501    0 -0.63503814455E+01  0.46652222699E+02 -0.44867356782E+03  0.48317049547E+03  0.17300000000E+03 0. -1.
         -6    1    1    2    0  502  0.63503814455E+01 -0.46652222699E+02 -0.23243089847E+03  0.29354706571E+03  0.17300000000E+03 0. -1.
<mgrwt>
<rscale>  2 0.17929238E+03</rscale>
<asrwt>0</asrwt>
<pdfrwt beam="1">  1       21 0.73548535E-02 0.17929238E+03</pdfrwt>
<pdfrwt beam="2">  1       21 0.11214016E+00 0.17929238E+03</pdfrwt>
<totfact> 0.87067955E+04</totfact>
</mgrwt>
</event>
<event>
 4    1  0.4510095E+000  0.2180075E+03  0.7546771E-02  0.1135377E+00
         21   -1    0    0  501  502  0.00000000000E+00  0.00000000000E+00  0.17375316088E+03  0.17375316088E+03  0.00000000000E+00 0.  1.
         21   -1    0    0  502  503 -0.00000000000E+00 -0.00000000000E+00 -0.29591024145E+03  0.29591024145E+03  0.00000000000E+00 0.  1.
          6    1    1    2  501    0  0.21316195389E+02  0.13093471421E+03  0.34983102589E+01  0.21803558826E+03  0.17300000000E+03 0.  1.
         -6    1    1    2    0  503 -0.21316195389E+02 -0.13093471421E+03 -0.12565539082E+03  0.25162781407E+03  0.17300000000E+03 0.  1.
<mgrwt>
<rscale>  2 0.21800752E+03</rscale>
<asrwt>0</asrwt>
<pdfrwt beam="1">  1       21 0.26731256E-01 0.21800752E+03</pdfrwt>
<pdfrwt beam="2">  1       21 0.45524652E-01 0.21800752E+03</pdfrwt>
<totfact> 0.60944550E+04</totfact>
</mgrwt>
</event>
<event>
 4    1  0.4510095E+000  0.2226850E+03  0.7546771E-02  0.1131897E+00
         21   -1    0    0  503  502  0.00000000000E+00  0.00000000000E+00  0.19625224147E+03  0.19625224147E+03  0.00000000000E+00 0. -1.
         21   -1    0    0  501  503 -0.00000000000E+00 -0.00000000000E+00 -0.45423719175E+03  0.45423719175E+03  0.00000000000E+00 0.  1.
          6    1    1    2  501    0 -0.13325438393E+03 -0.43621850479E+02 -0.34564829454E+03  0.41117069471E+03  0.17300000000E+03 0.  1.
         -6    1    1    2    0  502  0.13325438393E+03  0.43621850479E+02  0.87663344252E+02  0.23931873851E+03  0.17300000000E+03 0. -1.
<mgrwt>
<rscale>  2 0.22268497E+03</rscale>
<asrwt>0</asrwt>
<pdfrwt beam="1">  1       21 0.30192653E-01 0.22268497E+03</pdfrwt>
<pdfrwt beam="2">  1       21 0.69882644E-01 0.22268497E+03</pdfrwt>
<totfact> 0.19229886E+04</totfact>
</mgrwt>
</event>
<event>
 4    1  0.4510095E+000  0.3606171E+03  0.7546771E-02  0.1058340E+00
         21   -1    0    0  503  502  0.00000000000E+00  0.00000000000E+00  0.54861750262E+03  0.54861750262E+03  0.00000000000E+00 0.  1.
         21   -1    0    0  501  503 -0.00000000000E+00 -0.00000000000E+00 -0.24740262259E+03  0.24740262259E+03  0.00000000000E+00 0. -1.
          6    1    1    2  501    0 -0.18263801054E+03 -0.25837771054E+03  0.69153556758E+02  0.36718782471E+03  0.17300000000E+03 0. -1.
         -6    1    1    2    0  502  0.18263801054E+03  0.25837771054E+03  0.23206132328E+03  0.42883230051E+03  0.17300000000E+03 0.  1.
<mgrwt>
<rscale>  2 0.36061709E+03</rscale>
<asrwt>0</asrwt>
<pdfrwt beam="1">  1       21 0.84402692E-01 0.36061709E+03</pdfrwt>
<pdfrwt beam="2">  1       21 0.38061942E-01 0.36061709E+03</pdfrwt>
<totfact> 0.74075926E+03</totfact>
</mgrwt>
</event>
<event>
 4    1  0.4510095E+000  0.2147958E+03  0.7546771E-02  0.1137824E+00
         21   -1    0    0  501  502  0.00000000000E+00  0.00000000000E+00  0.15633951492E+04  0.15633951492E+04  0.00000000000E+00 0. -1.
         21   -1    0    0  502  503 -0.00000000000E+00 -0.00000000000E+00 -0.46202432140E+02  0.46202432140E+02  0.00000000000E+00 0. -1.
          6    1    1    2  501    0  0.79866047850E+02 -0.99144649158E+02  0.12423258756E+04  0.12607580371E+04  0.17300000000E+03 0. -1.
         -6    1    1    2    0  503 -0.79866047850E+02  0.99144649158E+02  0.27486684146E+03  0.34883954419E+03  0.17300000000E+03 0. -1.
<mgrwt>
<rscale>  2 0.21479583E+03</rscale>
<asrwt>0</asrwt>
<pdfrwt beam="1">  1       21 0.24052229E+00 0.21479583E+03</pdfrwt>
<pdfrwt beam="2">  1       21 0.71080677E-02 0.21479583E+03</pdfrwt>
<totfact> 0.10926220E+04</totfact>
</mgrwt>
</event>
<event>
 4    1  0.4510095E+000  0.1790935E+03  0.7546771E-02  0.1168683E+00
         21   -1    0    0  501  502  0.00000000000E+00  0.00000000000E+00  0.23287222141E+03  0.23287222141E+03  0.00000000000E+00 0.  1.
         21   -1    0    0  502  503 -0.00000000000E+00 -0.00000000000E+00 -0.23658238211E+03  0.23658238211E+03  0.00000000000E+00 0.  1.
          6    1    1    2  501    0  0.41451176373E+02  0.20670521007E+02  0.14986977671E+03  0.23352820051E+03  0.17300000000E+03 0.  1.
         -6    1    1    2    0  503 -0.41451176373E+02 -0.20670521007E+02 -0.15357993741E+03  0.23592640301E+03  0.17300000000E+03 0.  1.
<mgrwt>
<rscale>  2 0.17909347E+03</rscale>
<asrwt>0</asrwt>
<pdfrwt beam="1">  1       21 0.35826496E-01 0.17909347E+03</pdfrwt>
<pdfrwt beam="2">  1       21 0.36397290E-01 0.17909347E+03</pdfrwt>
<totfact> 0.55030058E+04</totfact>
</mgrwt>
</event>
<event>
 4    1  0.4510095E+000  0.2669999E+03  0.7546771E-02  0.1103009E+00
         21   -1    0    0  503  502  0.00000000000E+00  0.00000000000E+00  0.62068469911E+03  0.62068469911E+03  0.00000000000E+00 0.  1.
         21   -1    0    0  501  503 -0.00000000000E+00 -0.00000000000E+00 -0.11701081754E+03  0.11701081754E+03  0.00000000000E+00 0. -1.
          6    1    1    2  501    0  0.17211415551E+03  0.10833591931E+03  0.30189864181E+03  0.40302821721E+03  0.17300000000E+03 0.  1.
         -6    1    1    2    0  502 -0.17211415551E+03 -0.10833591931E+03  0.20177523975E+03  0.33466729944E+03  0.17300000000E+03 0. -1.
<mgrwt>
<rscale>  2 0.26699991E+03</rscale>
<asrwt>0</asrwt>
<pdfrwt beam="1">  1       21 0.95489952E-01 0.26699991E+03</pdfrwt>
<pdfrwt beam="2">  1       21 0.18001665E-01 0.26699991E+03</pdfrwt>
<totfact> 0.24718123E+04</totfact>
</mgrwt>
</event>
<event>
 4    1  0.4510095E+000  0.1869649E+03  0.7546771E-02  0.1161228E+00
         21   -1    0    0  503  502  0.00000000000E+00  0.00000000000E+00  0.20828558420E+03  0.20828558420E+03  0.00000000000E+00 0. -1.
         21   -1    0    0  501  503 -0.00000000000E+00 -0.00000000000E+00 -0.32007872181E+03  0.32007872181E+03  0.00000000000E+00 0.  1.
          6    1    1    2  501    0  0.20381889192E+02 -0.67907703542E+02 -0.23810003694E+03  0.30273338963E+03  0.17300000000E+03 0.  1.
         -6    1    1    2    0  502 -0.20381889192E+02  0.67907703542E+02  0.12630689933E+03  0.22563091638E+03  0.17300000000E+03 0. -1.
<mgrwt>
<rscale>  2 0.18696491E+03</rscale>
<asrwt>0</asrwt>
<pdfrwt beam="1">  1       21 0.32043936E-01 0.18696491E+03</pdfrwt>
<pdfrwt beam="2">  1       21 0.49242880E-01 0.18696491E+03</pdfrwt>
<totfact> 0.36951567E+04</totfact>
</mgrwt>
</event>
<event>
 4    1  0.4510095E+000  0.1879761E+03  0.7546771E-02  0.1160300E+00
         21   -1    0    0  501  502  0.00000000000E+00  0.00000000000E+00  0.57230636315E+03  0.57230636315E+03  0.00000000000E+00 0. -1.
         21   -1    0    0  502  503 -0.00000000000E+00 -0.00000000000E+00 -0.14040589363E+03  0.14040589363E+03  0.00000000000E+00 0. -1.
          6    1    1    2  501    0 -0.55312897746E+00  0.73523520978E+02  0.48268575427E+03  0.51799667129E+03  0.17300000000E+03 0. -1.
         -6    1    1    2    0  503  0.55312897746E+00 -0.73523520978E+02 -0.50785284748E+02  0.19471558550E+03  0.17300000000E+03 0. -1.
<mgrwt>
<rscale>  2 0.18797610E+03</rscale>
<asrwt>0</asrwt>
<pdfrwt beam="1">  1       21 0.88047132E-01 0.18797610E+03</pdfrwt>
<pdfrwt beam="2">  1       21 0.21600907E-01 0.18797610E+03</pdfrwt>
<totfact> 0.22143000E+04</totfact>
</mgrwt>
</event>
<event>
 4    1  0.4510095E+000  0.1861217E+03  0.7546771E-02  0.1162007E+00
         21   -1    0    0  503  502  0.00000000000E+00  0.00000000000E+00  0.25163811325E+03  0.25163811325E+03  0.00000000000E+00 0. -1.
         21   -1    0    0  501  503 -0.00000000000E+00 -0.00000000000E+00 -0.15614776274E+03  0.15614776274E+03  0.00000000000E+00 0.  1.
          6    1    1    2  501    0 -0.12327777660E+02 -0.67530111531E+02 -0.22406771072E+02  0.18746560606E+03  0.17300000000E+03 0.  1.
         -6    1    1    2    0  502  0.12327777660E+02  0.67530111531E+02  0.11789712159E+03  0.22032026993E+03  0.17300000000E+03 0. -1.
<mgrwt>
<rscale>  2 0.18612171E+03</rscale>
<asrwt>0</asrwt>
<pdfrwt beam="1">  1       21 0.38713556E-01 0.18612171E+03</pdfrwt>
<pdfrwt beam="2">  1       21 0.24022733E-01 0.18612171E+03</pdfrwt>
<totfact> 0.10539469E+05</totfact>
</mgrwt>
</event>
<event>
 4    1  0.4510095E+000  0.1783650E+03  0.7546771E-02  0.1169395E+00
         21   -1    0    0  501  502  0.00000000000E+00  0.00000000000E+00  0.15610470021E+03  0.15610470021E+03  0.00000000000E+00 0.  1.
         21   -1    0    0  502  503 -0.00000000000E+00 -0.00000000000E+00 -0.21075843358E+03  0.21075843358E+03  0.00000000000E+00 0.  1.
          6    1    1    2  501    0  0.25562160139E+02  0.35094830543E+02  0.60043125931E+01  0.17846602739E+03  0.17300000000E+03 0.  1.
         -6    1    1    2    0  503 -0.25562160139E+02 -0.35094830543E+02 -0.60658045957E+02  0.18839710640E+03  0.17300000000E+03 0.  1.
<mgrwt>
<rscale>  2 0.17836499E+03</rscale>
<asrwt>0</asrwt>
<pdfrwt beam="1">  1       21 0.24016108E-01 0.17836499E+03</pdfrwt>
<pdfrwt beam="2">  1       21 0.32424374E-01 0.17836499E+03</pdfrwt>
<totfact> 0.15033584E+05</totfact>
</mgrwt>
</event>
<event>
 4    1  0.4510095E+000  0.3934772E+03  0.7546771E-02  0.1046062E+00
         21   -1    0    0  501  502  0.00000000000E+00  0.00000000000E+00  0.16888145743E+04  0.16888145743E+04  0.00000000000E+00 0. -1.
         21   -1    0    0  502  503 -0.00000000000E+00 -0.00000000000E+00 -0.92543532083E+02  0.92543532083E+02  0.00000000000E+00 0.  1.
          6    1    1    2  501    0 -0.23159964345E+03 -0.26693990415E+03  0.88435602888E+03  0.96794105869E+03  0.17300000000E+03 0. -1.
         -6    1    1    2    0  503  0.23159964345E+03  0.26693990415E+03  0.71191501334E+03  0.81341704770E+03  0.17300000000E+03 0. -1.
<mgrwt>
<rscale>  2 0.39347720E+03</rscale>
<asrwt>0</asrwt>
<pdfrwt beam="1">  1       21 0.25981760E+00 0.39347720E+03</pdfrwt>
<pdfrwt beam="2">  1       21 0.14237468E-01 0.39347720E+03</pdfrwt>
<totfact> 0.21455533E+03</totfact>
</mgrwt>
</event>
<event>
 4    1  0.4510095E+000  0.2651046E+03  0.7546771E-02  0.1104115E+00
         21   -1    0    0  503  502  0.00000000000E+00  0.00000000000E+00  0.75315625509E+03  0.75315625509E+03  0.00000000000E+00 0.  1.
         21   -1    0    0  501  503 -0.00000000000E+00 -0.00000000000E+00 -0.20031177034E+03  0.20031177034E+03  0.00000000000E+00 0. -1.
          6    1    1    2  501    0  0.89938333659E+02  0.17961777150E+03 -0.72002607980E+02  0.27470861518E+03  0.17300000000E+03 0. -1.
         -6    1    1    2    0  502 -0.89938333659E+02 -0.17961777150E+03  0.62484709273E+03  0.67875941024E+03  0.17300000000E+03 0.  1.
<mgrwt>
<rscale>  2 0.26510460E+03</rscale>
<asrwt>0</asrwt>
<pdfrwt beam="1">  1       21 0.11587019E+00 0.26510460E+03</pdfrwt>
<pdfrwt beam="2">  1       21 0.30817196E-01 0.26510460E+03</pdfrwt>
<totfact> 0.55362023E+03</totfact>
</mgrwt>
</event>
<event>
 4    1  0.4510095E+000  0.2023805E+03  0.7546771E-02  0.1147746E+00
         21   -1    0    0  501  502  0.00000000000E+00  0.00000000000E+00  0.34047664495E+03  0.34047664495E+03  0.00000000000E+00 0. -1.
         21   -1    0    0  502  503 -0.00000000000E+00 -0.00000000000E+00 -0.14929929286E+03  0.14929929286E+03  0.00000000000E+00 0. -1.
          6    1    1    2  501    0 -0.78047183257E+02  0.70267465177E+02  0.20352420020E+03  0.28701912749E+03  0.17300000000E+03 0. -1.
         -6    1    1    2    0  503  0.78047183257E+02 -0.70267465177E+02 -0.12346848110E+02  0.20275681033E+03  0.17300000000E+03 0. -1.
<mgrwt>
<rscale>  2 0.20238053E+03</rscale>
<asrwt>0</asrwt>
<pdfrwt beam="1">  1       21 0.52381022E-01 0.20238053E+03</pdfrwt>
<pdfrwt beam="2">  1       21 0.22969122E-01 0.20238053E+03</pdfrwt>
<totfact> 0.61234828E+04</totfact>
</mgrwt>
</event>
<event>
 4    1  0.4510095E+000  0.1796294E+03  0.7546771E-02  0.1168162E+00
         21   -1    0    0  503  502  0.00000000000E+00  0.00000000000E+00  0.26966554878E+02  0.26966554878E+02  0.00000000000E+00 0.  1.
         21   -1    0    0  501  503 -0.00000000000E+00 -0.00000000000E+00 -0.13349672434E+04  0.13349672434E+04  0.00000000000E+00 0.  1.
          6    1    1    2  501    0  0.46172478316E+02  0.14346876425E+02 -0.87327662130E+03  0.89155975006E+03  0.17300000000E+03 0.  1.
         -6    1    1    2    0  502 -0.46172478316E+02 -0.14346876425E+02 -0.43472406723E+03  0.47037404823E+03  0.17300000000E+03 0.  1.
<mgrwt>
<rscale>  2 0.17962943E+03</rscale>
<asrwt>0</asrwt>
<pdfrwt beam="1">  1       21 0.41487008E-02 0.17962943E+03</pdfrwt>
<pdfrwt beam="2">  1       21 0.20537957E+00 0.17962943E+03</pdfrwt>
<totfact> 0.46139484E+04</totfact>
</mgrwt>
</event>
<event>
 4    1  0.4510095E+000  0.1805666E+03  0.7546771E-02  0.1167256E+00
         21   -1    0    0  503  502  0.00000000000E+00  0.00000000000E+00  0.84110050676E+03  0.84110050676E+03  0.00000000000E+00 0.  1.
         21   -1    0    0  501  503 -0.00000000000E+00 -0.00000000000E+00 -0.83414354451E+02  0.83414354451E+02  0.00000000000E+00 0.  1.
          6    1    1    2  501    0 -0.15888213671E+02  0.49222535202E+02  0.40640670322E+02  0.18508364971E+03  0.17300000000E+03 0.  1.
         -6    1    1    2    0  502  0.15888213671E+02 -0.49222535202E+02  0.71704548199E+03  0.73943121150E+03  0.17300000000E+03 0.  1.
<mgrwt>
<rscale>  2 0.18056659E+03</rscale>
<asrwt>0</asrwt>
<pdfrwt beam="1">  1       21 0.12940007E+00 0.18056659E+03</pdfrwt>
<pdfrwt beam="2">  1       21 0.12832978E-01 0.18056659E+03</pdfrwt>
<totfact> 0.22926995E+04</totfact>
</mgrwt>
</event>
<event>
 4    1  0.4510095E+000  0.2160896E+03  0.7546771E-02  0.1136832E+00
         21   -1    0    0  501  502  0.00000000000E+00  0.00000000000E+00  0.17886754968E+03  0.17886754968E+03  0.00000000000E+00 0. -1.
         21   -1    0    0  502  503 -0.00000000000E+00 -0.00000000000E+00 -0.35230165938E+03  0.35230165938E+03  0.00000000000E+00 0.  1.
          6    1    1    2  501    0  0.33941051916E+02 -0.12495491948E+03  0.48442868009E+02  0.22145301616E+03  0.17300000000E+03 0. -1.
         -6    1    1    2    0  503 -0.33941051916E+02  0.12495491948E+03 -0.22187697771E+03  0.30971619290E+03  0.17300000000E+03 0.  1.
<mgrwt>
<rscale>  2 0.21608963E+03</rscale>
<asrwt>0</asrwt>
<pdfrwt beam="1">  1       21 0.27518085E-01 0.21608963E+03</pdfrwt>
<pdfrwt beam="2">  1       21 0.54200255E-01 0.21608963E+03</pdfrwt>
<totfact> 0.40057296E+04</totfact>
</mgrwt>
</event>
<event>
 4    1  0.4510095E+000  0.1948408E+03  0.7546771E-02  0.1154166E+00
         21   -1    0    0  503  502  0.00000000000E+00  0.00000000000E+00  0.10520664426E+04  0.10520664426E+04  0.00000000000E+00 0. -1.
         21   -1    0    0  501  503 -0.00000000000E+00 -0.00000000000E+00 -0.43371638493E+02  0.43371638493E+02  0.00000000000E+00 0. -1.
          6    1    1    2  501    0 -0.85573053681E+02  0.26667826870E+02  0.27983313452E+03  0.34098314281E+03  0.17300000000E+03 0. -1.
         -6    1    1    2    0  502  0.85573053681E+02 -0.26667826870E+02  0.72886166963E+03  0.75445493832E+03  0.17300000000E+03 0. -1.
<mgrwt>
<rscale>  2 0.19484076E+03</rscale>
<asrwt>0</asrwt>
<pdfrwt beam="1">  1       21 0.16185636E+00 0.19484076E+03</pdfrwt>
<pdfrwt beam="2">  1       21 0.66725606E-02 0.19484076E+03</pdfrwt>
<totfact> 0.40030545E+04</totfact>
</mgrwt>
</event>
<event>
 4    1  0.4510095E+000  0.1833118E+03  0.7546771E-02  0.1164636E+00
         21   -1    0    0  501  502  0.00000000000E+00  0.00000000000E+00  0.28014722540E+03  0.28014722540E+03  0.00000000000E+00 0. -1.
         21   -1    0    0  502  503 -0.00000000000E+00 -0.00000000000E+00 -0.13713194636E+03  0.13713194636E+03  0.00000000000E+00 0. -1.
          6    1    1    2  501    0  0.35532058788E+02 -0.49108775213E+02  0.14536339634E+03  0.23395237977E+03  0.17300000000E+03 0. -1.
         -6    1    1    2    0  503 -0.35532058788E+02  0.49108775213E+02 -0.23481172966E+01  0.18332679198E+03  0.17300000000E+03 0. -1.
<mgrwt>
<rscale>  2 0.18331175E+03</rscale>
<asrwt>0</asrwt>
<pdfrwt beam="1">  1       21 0.43099573E-01 0.18331175E+03</pdfrwt>
<pdfrwt beam="2">  1       21 0.21097223E-01 0.18331175E+03</pdfrwt>
<totfact> 0.10848263E+05</totfact>
</mgrwt>
</event>
<event>
 4    1  0.4510095E+000  0.1748470E+03  0.7546771E-02  0.1172885E+00
         21   -1    0    0  501  502  0.00000000000E+00  0.00000000000E+00  0.36611158867E+03  0.36611158867E+03  0.00000000000E+00 0.  1.
         21   -1    0    0  502  503 -0.00000000000E+00 -0.00000000000E+00 -0.36323780891E+03  0.36323780891E+03  0.00000000000E+00 0.  1.
          6    1    1    2  501    0 -0.66298480536E+01  0.24464959105E+02  0.32146137675E+03  0.36593565807E+03  0.17300000000E+03 0.  1.
         -6    1    1    2    0  503  0.66298480536E+01 -0.24464959105E+02 -0.31858759699E+03  0.36341373951E+03  0.17300000000E+03 0.  1.
<mgrwt>
<rscale>  2 0.17484704E+03</rscale>
<asrwt>0</asrwt>
<pdfrwt beam="1">  1       21 0.56324859E-01 0.17484704E+03</pdfrwt>
<pdfrwt beam="2">  1       21 0.55882740E-01 0.17484704E+03</pdfrwt>
<totfact> 0.90585184E+03</totfact>
</mgrwt>
</event>
<event>
 4    1  0.4510095E+000  0.2247540E+03  0.7546771E-02  0.1130388E+00
         21   -1    0    0  501  502  0.00000000000E+00  0.00000000000E+00  0.51459321915E+02  0.51459321915E+02  0.00000000000E+00 0.  1.
         21   -1    0    0  502  503 -0.00000000000E+00 -0.00000000000E+00 -0.11868546261E+04  0.11868546261E+04  0.00000000000E+00 0. -1.
          6    1    1    2  501    0 -0.68652469648E+02  0.12598499182E+03 -0.31023797215E+03  0.38309526115E+03  0.17300000000E+03 0.  1.
         -6    1    1    2    0  503  0.68652469648E+02 -0.12598499182E+03 -0.82515733204E+03  0.85521868687E+03  0.17300000000E+03 0. -1.
<mgrwt>
<rscale>  2 0.22475404E+03</rscale>
<asrwt>0</asrwt>
<pdfrwt beam="1">  1       21 0.79168184E-02 0.22475404E+03</pdfrwt>
<pdfrwt beam="2">  1       21 0.18259303E+00 0.22475404E+03</pdfrwt>
<totfact> 0.20886134E+04</totfact>
</mgrwt>
</event>
<event>
 4    1  0.4510095E+000  0.1919892E+03  0.7546771E-02  0.1156679E+00
         21   -1    0    0  501  502  0.00000000000E+00  0.00000000000E+00  0.13253745924E+03  0.13253745924E+03  0.00000000000E+00 0. -1.
         21   -1    0    0  502  503 -0.00000000000E+00 -0.00000000000E+00 -0.45962031799E+03  0.45962031799E+03  0.00000000000E+00 0. -1.
          6    1    1    2  501    0 -0.39404889049E+01 -0.83158434544E+02  0.22521457858E+02  0.19330563559E+03  0.17300000000E+03 0. -1.
         -6    1    1    2    0  503  0.39404889049E+01  0.83158434544E+02 -0.34960431661E+03  0.39885214163E+03  0.17300000000E+03 0. -1.
<mgrwt>
<rscale>  2 0.19198920E+03</rscale>
<asrwt>0</asrwt>
<pdfrwt beam="1">  1       21 0.20390378E-01 0.19198920E+03</pdfrwt>
<pdfrwt beam="2">  1       21 0.70710819E-01 0.19198920E+03</pdfrwt>
<totfact> 0.40358654E+04</totfact>
</mgrwt>
</event>
<event>
 4    1  0.4510095E+000  0.2666222E+03  0.7546771E-02  0.1103229E+00
         21   -1    0    0  503  502  0.00000000000E+00  0.00000000000E+00  0.20586247579E+03  0.20586247579E+03  0.00000000000E+00 0. -1.
         21   -1    0    0  501  503 -0.00000000000E+00 -0.00000000000E+00 -0.99928706092E+03  0.99928706092E+03  0.00000000000E+00 0.  1.
          6    1    1    2  501    0  0.63682920043E+02 -0.19262103982E+03 -0.88417954165E+03  0.92350465140E+03  0.17300000000E+03 0.  1.
         -6    1    1    2    0  502 -0.63682920043E+02  0.19262103982E+03  0.90754956521E+02  0.28164488531E+03  0.17300000000E+03 0. -1.
<mgrwt>
<rscale>  2 0.26662217E+03</rscale>
<asrwt>0</asrwt>
<pdfrwt beam="1">  1       21 0.31671150E-01 0.26662217E+03</pdfrwt>
<pdfrwt beam="2">  1       21 0.15373647E+00 0.26662217E+03</pdfrwt>
<totfact> 0.25293585E+03</totfact>
</mgrwt>
</event>
<event>
 4    1  0.4510095E+000  0.1890873E+03  0.7546771E-02  0.1159287E+00
         21   -1    0    0  501  502  0.00000000000E+00  0.00000000000E+00  0.31680420390E+03  0.31680420390E+03  0.00000000000E+00 0. -1.
         21   -1    0    0  502  503 -0.00000000000E+00 -0.00000000000E+00 -0.22018978811E+03  0.22018978811E+03  0.00000000000E+00 0. -1.
          6    1    1    2  501    0  0.76216431635E+02  0.40079338261E+01  0.23576533160E+03  0.30222392289E+03  0.17300000000E+03 0. -1.
         -6    1    1    2    0  503 -0.76216431635E+02 -0.40079338261E+01 -0.13915091580E+03  0.23477006912E+03  0.17300000000E+03 0. -1.
<mgrwt>
<rscale>  2 0.18908730E+03</rscale>
<asrwt>0</asrwt>
<pdfrwt beam="1">  1       21 0.48739109E-01 0.18908730E+03</pdfrwt>
<pdfrwt beam="2">  1       21 0.33875352E-01 0.18908730E+03</pdfrwt>
<totfact> 0.33799489E+04</totfact>
</mgrwt>
</event>
<event>
 4    1  0.4510095E+000  0.1846691E+03  0.7546771E-02  0.1163359E+00
         21   -1    0    0  501  502  0.00000000000E+00  0.00000000000E+00  0.46457011468E+03  0.46457011468E+03  0.00000000000E+00 0.  1.
         21   -1    0    0  502  503 -0.00000000000E+00 -0.00000000000E+00 -0.75972682138E+02  0.75972682138E+02  0.00000000000E+00 0.  1.
          6    1    1    2  501    0 -0.62226933678E+02 -0.17362817724E+02  0.14463033389E+03  0.23456468659E+03  0.17300000000E+03 0.  1.
         -6    1    1    2    0  503  0.62226933678E+02  0.17362817724E+02  0.24396709865E+03  0.30597811023E+03  0.17300000000E+03 0.  1.
<mgrwt>
<rscale>  2 0.18466905E+03</rscale>
<asrwt>0</asrwt>
<pdfrwt beam="1">  1       21 0.71472323E-01 0.18466905E+03</pdfrwt>
<pdfrwt beam="2">  1       21 0.11688105E-01 0.18466905E+03</pdfrwt>
<totfact> 0.10917807E+05</totfact>
</mgrwt>
</event>
<event>
 4    1  0.4510095E+000  0.2880555E+03  0.7546771E-02  0.1091369E+00
         21   -1    0    0  501  502  0.00000000000E+00  0.00000000000E+00  0.37430385164E+03  0.37430385164E+03  0.00000000000E+00 0. -1.
         21   -1    0    0  502  503 -0.00000000000E+00 -0.00000000000E+00 -0.22184639689E+03  0.22184639689E+03  0.00000000000E+00 0. -1.
          6    1    1    2  501    0  0.21887749817E+03  0.71691087136E+02  0.84372899970E+02  0.30015788750E+03  0.17300000000E+03 0. -1.
         -6    1    1    2    0  503 -0.21887749817E+03 -0.71691087136E+02  0.68084554781E+02  0.29599236102E+03  0.17300000000E+03 0. -1.
<mgrwt>
<rscale>  2 0.28805550E+03</rscale>
<asrwt>0</asrwt>
<pdfrwt beam="1">  1       21 0.57585208E-01 0.28805550E+03</pdfrwt>
<pdfrwt beam="2">  1       21 0.34130215E-01 0.28805550E+03</pdfrwt>
<totfact> 0.22325997E+04</totfact>
</mgrwt>
</event>
<event>
 4    1  0.4510095E+000  0.1799333E+03  0.7546771E-02  0.1167868E+00
         21   -1    0    0  503  502  0.00000000000E+00  0.00000000000E+00  0.45759635580E+03  0.45759635580E+03  0.00000000000E+00 0.  1.
         21   -1    0    0  501  503 -0.00000000000E+00 -0.00000000000E+00 -0.10305302165E+03  0.10305302165E+03  0.00000000000E+00 0.  1.
          6    1    1    2  501    0 -0.48582434396E+02  0.93141909147E+01  0.20330487208E+02  0.18107825876E+03  0.17300000000E+03 0.  1.
         -6    1    1    2    0  502  0.48582434396E+02 -0.93141909147E+01  0.33421284695E+03  0.37957111870E+03  0.17300000000E+03 0.  1.
<mgrwt>
<rscale>  2 0.17993334E+03</rscale>
<asrwt>0</asrwt>
<pdfrwt beam="1">  1       21 0.70399438E-01 0.17993334E+03</pdfrwt>
<pdfrwt beam="2">  1       21 0.15854311E-01 0.17993334E+03</pdfrwt>
<totfact> 0.65245842E+04</totfact>
</mgrwt>
</event>
<event>
 4    1  0.4510095E+000  0.2546810E+03  0.7546771E-02  0.1110382E+00
         21   -1    0    0  501  502  0.00000000000E+00  0.00000000000E+00  0.49592565562E+03  0.49592565562E+03  0.00000000000E+00 0.  1.
         21   -1    0    0  502  503 -0.00000000000E+00 -0.00000000000E+00 -0.13233026614E+03  0.13233026614E+03  0.00000000000E+00 0.  1.
          6    1    1    2  501    0 -0.63425364872E+02 -0.17581419911E+03  0.21568145278E+03  0.33373776920E+03  0.17300000000E+03 0.  1.
         -6    1    1    2    0  503  0.63425364872E+02  0.17581419911E+03  0.14791393671E+03  0.29451815256E+03  0.17300000000E+03 0.  1.
<mgrwt>
<rscale>  2 0.25468100E+03</rscale>
<asrwt>0</asrwt>
<pdfrwt beam="1">  1       21 0.76296254E-01 0.25468100E+03</pdfrwt>
<pdfrwt beam="2">  1       21 0.20358503E-01 0.25468100E+03</pdfrwt>
<totfact> 0.33139497E+04</totfact>
</mgrwt>
</event>
<event>
 4    1  0.4510095E+000  0.1752999E+03  0.7546771E-02  0.1172431E+00
         21   -1    0    0  501  502  0.00000000000E+00  0.00000000000E+00  0.78377141317E+02  0.78377141317E+02  0.00000000000E+00 0. -1.
         21   -1    0    0  502  503 -0.00000000000E+00 -0.00000000000E+00 -0.55149672878E+03  0.55149672878E+03  0.00000000000E+00 0. -1.
          6    1    1    2  501    0  0.63081469377E+01  0.27590720553E+02 -0.67235110492E+02  0.18775143318E+03  0.17300000000E+03 0. -1.
         -6    1    1    2    0  503 -0.63081469377E+01 -0.27590720553E+02 -0.40588447697E+03  0.44212243692E+03  0.17300000000E+03 0. -1.
<mgrwt>
<rscale>  2 0.17529986E+03</rscale>
<asrwt>0</asrwt>
<pdfrwt beam="1">  1       21 0.12058022E-01 0.17529986E+03</pdfrwt>
<pdfrwt beam="2">  1       21 0.84845651E-01 0.17529986E+03</pdfrwt>
<totfact> 0.70546862E+04</totfact>
</mgrwt>
</event>
<event>
 4    1  0.4510095E+000  0.2269997E+03  0.7546771E-02  0.1128770E+00
         21   -1    0    0  503  502  0.00000000000E+00  0.00000000000E+00  0.84867857819E+02  0.84867857819E+02  0.00000000000E+00 0. -1.
         21   -1    0    0  501  503 -0.00000000000E+00 -0.00000000000E+00 -0.66353817239E+03  0.66353817239E+03  0.00000000000E+00 0.  1.
          6    1    1    2  501    0 -0.14580959073E+03  0.18422948138E+02 -0.39840591891E+03  0.45853693198E+03  0.17300000000E+03 0.  1.
         -6    1    1    2    0  502  0.14580959073E+03 -0.18422948138E+02 -0.18026439567E+03  0.28986909824E+03  0.17300000000E+03 0. -1.
<mgrwt>
<rscale>  2 0.22699965E+03</rscale>
<asrwt>0</asrwt>
<pdfrwt beam="1">  1       21 0.13056594E-01 0.22699965E+03</pdfrwt>
<pdfrwt beam="2">  1       21 0.10208279E+00 0.22699965E+03</pdfrwt>
<totfact> 0.38720699E+04</totfact>
</mgrwt>
</event>
<event>
 4    1  0.4510095E+000  0.2976033E+03  0.7546771E-02  0.1086445E+00
         21   -1    0    0  503  502  0.00000000000E+00  0.00000000000E+00  0.44765320612E+03  0.44765320612E+03  0.00000000000E+00 0.  1.
         21   -1    0    0  501  503 -0.00000000000E+00 -0.00000000000E+00 -0.50806122966E+03  0.50806122966E+03  0.00000000000E+00 0. -1.
          6    1    1    2  501    0 -0.38515998864E+02 -0.23907164581E+03 -0.40359994920E+03  0.50145852570E+03  0.17300000000E+03 0. -1.
         -6    1    1    2    0  502  0.38515998864E+02  0.23907164581E+03  0.34319192566E+03  0.45425591008E+03  0.17300000000E+03 0.  1.
<mgrwt>
<rscale>  2 0.29760332E+03</rscale>
<asrwt>0</asrwt>
<pdfrwt beam="1">  1       21 0.68869724E-01 0.29760332E+03</pdfrwt>
<pdfrwt beam="2">  1       21 0.78163266E-01 0.29760332E+03</pdfrwt>
<totfact> 0.25847682E+03</totfact>
</mgrwt>
</event>
<event>
 4    1  0.4510095E+000  0.2762413E+03  0.7546771E-02  0.1097760E+00
         21   -1    0    0  503  502  0.00000000000E+00  0.00000000000E+00  0.12260824311E+04  0.12260824311E+04  0.00000000000E+00 0. -1.
         21   -1    0    0  501  503 -0.00000000000E+00 -0.00000000000E+00 -0.10160538842E+03  0.10160538842E+03  0.00000000000E+00 0.  1.
          6    1    1    2  501    0 -0.28002042509E+02 -0.21353252537E+03  0.14902511949E+03  0.31387535745E+03  0.17300000000E+03 0. -1.
         -6    1    1    2    0  502  0.28002042509E+02  0.21353252537E+03  0.97545192315E+03  0.10138124620E+04  0.17300000000E+03 0.  1.
<mgrwt>
<rscale>  2 0.27624130E+03</rscale>
<asrwt>0</asrwt>
<pdfrwt beam="1">  1       21 0.18862806E+00 0.27624130E+03</pdfrwt>
<pdfrwt beam="2">  1       21 0.15631599E-01 0.27624130E+03</pdfrwt>
<totfact> 0.54385469E+03</totfact>
</mgrwt>
</event>
<event>
 4    1  0.4510095E+000  0.1765671E+03  0.7546771E-02  0.1171167E+00
         21   -1    0    0  501  502  0.00000000000E+00  0.00000000000E+00  0.14894852714E+03  0.14894852714E+03  0.00000000000E+00 0.  1.
         21   -1    0    0  502  503 -0.00000000000E+00 -0.00000000000E+00 -0.26780531226E+03  0.26780531226E+03  0.00000000000E+00 0.  1.
          6    1    1    2  501    0  0.32804674534E+02  0.13069144861E+02  0.37961119613E+02  0.18060176029E+03  0.17300000000E+03 0.  1.
         -6    1    1    2    0  503 -0.32804674534E+02 -0.13069144861E+02 -0.15681790474E+03  0.23615207910E+03  0.17300000000E+03 0.  1.
<mgrwt>
<rscale>  2 0.17656712E+03</rscale>
<asrwt>0</asrwt>
<pdfrwt beam="1">  1       21 0.22915158E-01 0.17656712E+03</pdfrwt>
<pdfrwt beam="2">  1       21 0.41200817E-01 0.17656712E+03</pdfrwt>
<totfact> 0.10201602E+05</totfact>
</mgrwt>
</event>
<event>
 4    1  0.4510095E+000  0.1921867E+03  0.7546771E-02  0.1156504E+00
         21   -1    0    0  503  502  0.00000000000E+00  0.00000000000E+00  0.58095896574E+03  0.58095896574E+03  0.00000000000E+00 0.  1.
         21   -1    0    0  501  503 -0.00000000000E+00 -0.00000000000E+00 -0.63967360488E+02  0.63967360488E+02  0.00000000000E+00 0.  1.
          6    1    1    2  501    0 -0.83453521072E+02  0.65000620710E+01  0.23331174140E+03  0.30227489089E+03  0.17300000000E+03 0.  1.
         -6    1    1    2    0  502  0.83453521072E+02 -0.65000620710E+01  0.28367986385E+03  0.34265143534E+03  0.17300000000E+03 0.  1.
<mgrwt>
<rscale>  2 0.19218673E+03</rscale>
<asrwt>0</asrwt>
<pdfrwt beam="1">  1       21 0.89378299E-01 0.19218673E+03</pdfrwt>
<pdfrwt beam="2">  1       21 0.98411327E-02 0.19218673E+03</pdfrwt>
<totfact> 0.89133455E+04</totfact>
</mgrwt>
</event>
<event>
 4    1  0.4510095E+000  0.2330870E+03  0.7546771E-02  0.1124486E+00
         21   -1    0    0  501  502  0.00000000000E+00  0.00000000000E+00  0.13410926904E+03  0.13410926904E+03  0.00000000000E+00 0.  1.
         21   -1    0    0  502  503 -0.00000000000E+00 -0.00000000000E+00 -0.44654230937E+03  0.44654230937E+03  0.00000000000E+00 0. -1.
          6    1    1    2  501    0 -0.97531312912E+02  0.12201714765E+03 -0.67785841807E+02  0.24274361303E+03  0.17300000000E+03 0. -1.
         -6    1    1    2    0  503  0.97531312912E+02 -0.12201714765E+03 -0.24464719853E+03  0.33790796538E+03  0.17300000000E+03 0. -1.
<mgrwt>
<rscale>  2 0.23308698E+03</rscale>
<asrwt>0</asrwt>
<pdfrwt beam="1">  1       21 0.20632195E-01 0.23308698E+03</pdfrwt>
<pdfrwt beam="2">  1       21 0.68698817E-01 0.23308698E+03</pdfrwt>
<totfact> 0.41230595E+04</totfact>
</mgrwt>
</event>
<event>
 4    1  0.4510095E+000  0.1867174E+03  0.7546771E-02  0.1161456E+00
         21   -1    0    0  503  502  0.00000000000E+00  0.00000000000E+00  0.22757707145E+03  0.22757707145E+03  0.00000000000E+00 0. -1.
         21   -1    0    0  501  503 -0.00000000000E+00 -0.00000000000E+00 -0.18873025654E+03  0.18873025654E+03  0.00000000000E+00 0. -1.
          6    1    1    2  501    0 -0.11541294827E+02 -0.69290579026E+02 -0.70900067606E+02  0.19972532492E+03  0.17300000000E+03 0. -1.
         -6    1    1    2    0  502  0.11541294827E+02  0.69290579026E+02  0.10974688252E+03  0.21658200306E+03  0.17300000000E+03 0. -1.
<mgrwt>
<rscale>  2 0.18671740E+03</rscale>
<asrwt>0</asrwt>
<pdfrwt beam="1">  1       21 0.35011857E-01 0.18671740E+03</pdfrwt>
<pdfrwt beam="2">  1       21 0.29035424E-01 0.18671740E+03</pdfrwt>
<totfact> 0.89508712E+04</totfact>
</mgrwt>
</event>
<event>
 4    1  0.4510095E+000  0.1831873E+03  0.7546771E-02  0.1164753E+00
         21   -1    0    0  503  502  0.00000000000E+00  0.00000000000E+00  0.38151455881E+03  0.38151455881E+03  0.00000000000E+00 0.  1.
         21   -1    0    0  501  503 -0.00000000000E+00 -0.00000000000E+00 -0.91117690673E+02  0.91117690673E+02  0.00000000000E+00 0.  1.
          6    1    1    2  501    0  0.28946131578E+02 -0.52827311433E+02  0.10119850382E+03  0.20928148638E+03  0.17300000000E+03 0. -1.
         -6    1    1    2    0  502 -0.28946131578E+02  0.52827311433E+02  0.18919836431E+03  0.26335076310E+03  0.17300000000E+03 0. -1.
<mgrwt>
<rscale>  2 0.18318734E+03</rscale>
<asrwt>0</asrwt>
<pdfrwt beam="1">  1       21 0.58694546E-01 0.18318734E+03</pdfrwt>
<pdfrwt beam="2">  1       21 0.14018107E-01 0.18318734E+03</pdfrwt>
<totfact> 0.12090228E+05</totfact>
</mgrwt>
</event>
<event>
 4    1  0.4510095E+000  0.1990371E+03  0.7546771E-02  0.1150554E+00
         21   -1    0    0  501  502  0.00000000000E+00  0.00000000000E+00  0.79871536211E+03  0.79871536211E+03  0.00000000000E+00 0.  1.
         21   -1    0    0  502  503 -0.00000000000E+00 -0.00000000000E+00 -0.49710458752E+02  0.49710458752E+02  0.00000000000E+00 0. -1.
          6    1    1    2  501    0 -0.40779784531E+02  0.89575504746E+02  0.39455808493E+03  0.44191836832E+03  0.17300000000E+03 0. -1.
         -6    1    1    2    0  503  0.40779784531E+02 -0.89575504746E+02  0.35444681843E+03  0.40650745254E+03  0.17300000000E+03 0. -1.
<mgrwt>
<rscale>  2 0.19903709E+03</rscale>
<asrwt>0</asrwt>
<pdfrwt beam="1">  1       21 0.12287928E+00 0.19903709E+03</pdfrwt>
<pdfrwt beam="2">  1       21 0.76477635E-02 0.19903709E+03</pdfrwt>
<totfact> 0.64400293E+04</totfact>
</mgrwt>
</event>
<event>
 4    1  0.4510095E+000  0.2206379E+03  0.7546771E-02  0.1133408E+00
         21   -1    0    0  501  502  0.00000000000E+00  0.00000000000E+00  0.84084121338E+03  0.84084121338E+03  0.00000000000E+00 0.  1.
         21   -1    0    0  502  503 -0.00000000000E+00 -0.00000000000E+00 -0.26638725983E+03  0.26638725983E+03  0.00000000000E+00 0.  1.
          6    1    1    2  501    0 -0.93642877807E+02 -0.99915360806E+02  0.77699992278E+03  0.80771897829E+03  0.17300000000E+03 0.  1.
         -6    1    1    2    0  503  0.93642877807E+02  0.99915360806E+02 -0.20254596924E+03  0.29950949491E+03  0.17300000000E+03 0.  1.
<mgrwt>
<rscale>  2 0.22063787E+03</rscale>
<asrwt>0</asrwt>
<pdfrwt beam="1">  1       21 0.12936019E+00 0.22063787E+03</pdfrwt>
<pdfrwt beam="2">  1       21 0.40982656E-01 0.22063787E+03</pdfrwt>
<totfact> 0.24495406E+03</totfact>
</mgrwt>
</event>
<event>
 4    1  0.4510095E+000  0.2252951E+03  0.7546771E-02  0.1129996E+00
         21   -1    0    0  503  502  0.00000000000E+00  0.00000000000E+00  0.12747510332E+03  0.12747510332E+03  0.00000000000E+00 0. -1.
         21   -1    0    0  501  503 -0.00000000000E+00 -0.00000000000E+00 -0.84912167749E+03  0.84912167749E+03  0.00000000000E+00 0.  1.
          6    1    1    2  501    0 -0.65419376355E+01  0.14417379378E+03 -0.71666848481E+03  0.75124669508E+03  0.17300000000E+03 0.  1.
         -6    1    1    2    0  502  0.65419376355E+01 -0.14417379378E+03 -0.49780893702E+01  0.22535008572E+03  0.17300000000E+03 0. -1.
<mgrwt>
<rscale>  2 0.22529509E+03</rscale>
<asrwt>0</asrwt>
<pdfrwt beam="1">  1       21 0.19611554E-01 0.22529509E+03</pdfrwt>
<pdfrwt beam="2">  1       21 0.13063411E+00 0.22529509E+03</pdfrwt>
<totfact> 0.99921431E+03</totfact>
</mgrwt>
</event>
<event>
 4    1  0.4510095E+000  0.2708377E+03  0.7546771E-02  0.1100801E+00
         21   -1    0    0  503  502  0.00000000000E+00  0.00000000000E+00  0.17328963816E+03  0.17328963816E+03  0.00000000000E+00 0. -1.
         21   -1    0    0  501  503 -0.00000000000E+00 -0.00000000000E+00 -0.52161556325E+03  0.52161556325E+03  0.00000000000E+00 0.  1.
          6    1    1    2  501    0 -0.10011119768E+03 -0.18276165878E+03 -0.23315889642E+02  0.27183948670E+03  0.17300000000E+03 0. -1.
         -6    1    1    2    0  502  0.10011119768E+03  0.18276165878E+03 -0.32501003545E+03  0.42306571471E+03  0.17300000000E+03 0.  1.
<mgrwt>
<rscale>  2 0.27083773E+03</rscale>
<asrwt>0</asrwt>
<pdfrwt beam="1">  1       21 0.26659945E-01 0.27083773E+03</pdfrwt>
<pdfrwt beam="2">  1       21 0.80248546E-01 0.27083773E+03</pdfrwt>
<totfact> 0.17529863E+04</totfact>
</mgrwt>
</event>
<event>
 4    1  0.4510095E+000  0.1781649E+03  0.7546771E-02  0.1169591E+00
         21   -1    0    0  503  502  0.00000000000E+00  0.00000000000E+00  0.87101362282E+03  0.87101362282E+03  0.00000000000E+00 0. -1.
         21   -1    0    0  501  503 -0.00000000000E+00 -0.00000000000E+00 -0.79815243055E+02  0.79815243055E+02  0.00000000000E+00 0. -1.
          6    1    1    2  501    0  0.25643115403E+02  0.34002566296E+02  0.45143499395E+02  0.18379521055E+03  0.17300000000E+03 0. -1.
         -6    1    1    2    0  502 -0.25643115403E+02 -0.34002566296E+02  0.74605488037E+03  0.76703365533E+03  0.17300000000E+03 0. -1.
<mgrwt>
<rscale>  2 0.17816493E+03</rscale>
<asrwt>0</asrwt>
<pdfrwt beam="1">  1       21 0.13400209E+00 0.17816493E+03</pdfrwt>
<pdfrwt beam="2">  1       21 0.12279269E-01 0.17816493E+03</pdfrwt>
<totfact> 0.22753547E+04</totfact>
</mgrwt>
</event>
<event>
 4    1  0.4510095E+000  0.2830541E+03  0.7546771E-02  0.1094032E+00
         21   -1    0    0  501  502  0.00000000000E+00  0.00000000000E+00  0.13979921784E+03  0.13979921784E+03  0.00000000000E+00 0.  1.
         21   -1    0    0  502  503 -0.00000000000E+00 -0.00000000000E+00 -0.10041042376E+04  0.10041042376E+04  0.00000000000E+00 0. -1.
          6    1    1    2  501    0  0.22400721401E+03  0.33738014334E+01 -0.57431291137E+02  0.28882168836E+03  0.17300000000E+03 0.  1.
         -6    1    1    2    0  503 -0.22400721401E+03 -0.33738014334E+01 -0.80687372866E+03  0.85508176713E+03  0.17300000000E+03 0. -1.
<mgrwt>
<rscale>  2 0.28305408E+03</rscale>
<asrwt>0</asrwt>
<pdfrwt beam="1">  1       21 0.21507571E-01 0.28305408E+03</pdfrwt>
<pdfrwt beam="2">  1       21 0.15447758E+00 0.28305408E+03</pdfrwt>
<totfact> 0.52254331E+03</totfact>
</mgrwt>
</event>
<event>
 4    1  0.4510095E+000  0.1957631E+03  0.7546771E-02  0.1153364E+00
         21   -1    0    0  503  502  0.00000000000E+00  0.00000000000E+00  0.10663696128E+03  0.10663696128E+03  0.00000000000E+00 0. -1.
         21   -1    0    0  501  503 -0.00000000000E+00 -0.00000000000E+00 -0.11164332703E+04  0.11164332703E+04  0.00000000000E+00 0. -1.
          6    1    1    2  501    0 -0.85820094038E+02  0.32079847777E+02 -0.10084778343E+04  0.10273026563E+04  0.17300000000E+03 0. -1.
         -6    1    1    2    0  502  0.85820094038E+02 -0.32079847777E+02 -0.13184746635E+01  0.19576757533E+03  0.17300000000E+03 0. -1.
<mgrwt>
<rscale>  2 0.19576314E+03</rscale>
<asrwt>0</asrwt>
<pdfrwt beam="1">  1       21 0.16405686E-01 0.19576314E+03</pdfrwt>
<pdfrwt beam="2">  1       21 0.17175897E+00 0.19576314E+03</pdfrwt>
<totfact> 0.68898549E+03</totfact>
</mgrwt>
</event>
<event>
 4    1  0.4510095E+000  0.2836315E+03  0.7546771E-02  0.1093722E+00
         21   -1    0    0  503  502  0.00000000000E+00  0.00000000000E+00  0.98614242979E+03  0.98614242979E+03  0.00000000000E+00 0. -1.
         21   -1    0    0  501  503 -0.00000000000E+00 -0.00000000000E+00 -0.20386027622E+03  0.20386027622E+03  0.00000000000E+00 0. -1.
          6    1    1    2  501    0  0.11099965653E+03  0.19544027498E+03 -0.69682479267E+02  0.29206587057E+03  0.17300000000E+03 0. -1.
         -6    1    1    2    0  502 -0.11099965653E+03 -0.19544027498E+03  0.85196463284E+03  0.89793683545E+03  0.17300000000E+03 0. -1.
<mgrwt>
<rscale>  2 0.28363149E+03</rscale>
<asrwt>0</asrwt>
<pdfrwt beam="1">  1       21 0.15171422E+00 0.28363149E+03</pdfrwt>
<pdfrwt beam="2">  1       21 0.31363120E-01 0.28363149E+03</pdfrwt>
<totfact> 0.26419586E+03</totfact>
</mgrwt>
</event>
<event>
 4    1  0.4510095E+000  0.1758859E+03  0.7546771E-02  0.1171845E+00
         21   -1    0    0  503  502  0.00000000000E+00  0.00000000000E+00  0.46463907988E+03  0.46463907988E+03  0.00000000000E+00 0.  1.
         21   -1    0    0  501  503 -0.00000000000E+00 -0.00000000000E+00 -0.17361361102E+03  0.17361361102E+03  0.00000000000E+00 0.  1.
          6    1    1    2  501    0  0.15672513842E+01 -0.31692197128E+02  0.39608330919E+03  0.43337955588E+03  0.17300000000E+03 0.  1.
         -6    1    1    2    0  502 -0.15672513842E+01  0.31692197128E+02 -0.10505784033E+03  0.20487313501E+03  0.17300000000E+03 0.  1.
<mgrwt>
<rscale>  2 0.17588591E+03</rscale>
<asrwt>0</asrwt>
<pdfrwt beam="1">  1       21 0.71482935E-01 0.17588591E+03</pdfrwt>
<pdfrwt beam="2">  1       21 0.26709787E-01 0.17588591E+03</pdfrwt>
<totfact> 0.23837942E+04</totfact>
</mgrwt>
</event>
<event>
 4    1  0.4510095E+000  0.3413848E+03  0.7546771E-02  0.1066208E+00
         21   -1    0    0  501  502  0.00000000000E+00  0.00000000000E+00  0.57065838029E+03  0.57065838029E+03  0.00000000000E+00 0. -1.
         21   -1    0    0  502  503 -0.00000000000E+00 -0.00000000000E+00 -0.20501199897E+03  0.20501199897E+03  0.00000000000E+00 0.  1.
          6    1    1    2  501    0 -0.28716525297E+03 -0.64426129459E+02  0.20682857124E+03  0.39915118258E+03  0.17300000000E+03 0.  1.
         -6    1    1    2    0  503  0.28716525297E+03  0.64426129459E+02  0.15881781008E+03  0.37651919668E+03  0.17300000000E+03 0. -1.
<mgrwt>
<rscale>  2 0.34138484E+03</rscale>
<asrwt>0</asrwt>
<pdfrwt beam="1">  1       21 0.87793596E-01 0.34138484E+03</pdfrwt>
<pdfrwt beam="2">  1       21 0.31540308E-01 0.34138484E+03</pdfrwt>
<totfact> 0.99358228E+03</totfact>
</mgrwt>
</event>
<event>
 4    1  0.4510095E+000  0.1736608E+03  0.7546771E-02  0.1174083E+00
         21   -1    0    0  501  502  0.00000000000E+00  0.00000000000E+00  0.80313823974E+03  0.80313823974E+03  0.00000000000E+00 0. -1.
         21   -1    0    0  502  503 -0.00000000000E+00 -0.00000000000E+00 -0.64511980749E+02  0.64511980749E+02  0.00000000000E+00 0. -1.
          6    1    1    2  501    0  0.11664672069E+02 -0.96441194928E+01  0.64977127698E+03  0.67257771745E+03  0.17300000000E+03 0. -1.
         -6    1    1    2    0  503 -0.11664672069E+02  0.96441194928E+01  0.88854982007E+02  0.19507250304E+03  0.17300000000E+03 0. -1.
<mgrwt>
<rscale>  2 0.17366080E+03</rscale>
<asrwt>0</asrwt>
<pdfrwt beam="1">  1       21 0.12355972E+00 0.17366080E+03</pdfrwt>
<pdfrwt beam="2">  1       21 0.99249206E-02 0.17366080E+03</pdfrwt>
<totfact> 0.40809653E+04</totfact>
</mgrwt>
</event>
<event>
 4    1  0.4510095E+000  0.3017890E+03  0.7546771E-02  0.1084350E+00
         21   -1    0    0  503  502  0.00000000000E+00  0.00000000000E+00  0.45486930096E+03  0.45486930096E+03  0.00000000000E+00 0.  1.
         21   -1    0    0  501  503 -0.00000000000E+00 -0.00000000000E+00 -0.32461645578E+03  0.32461645578E+03  0.00000000000E+00 0.  1.
          6    1    1    2  501    0  0.22910606695E+03  0.93048352342E+02 -0.17613436390E+03  0.34942796101E+03  0.17300000000E+03 0.  1.
         -6    1    1    2    0  502 -0.22910606695E+03 -0.93048352342E+02  0.30638720908E+03  0.43005779574E+03  0.17300000000E+03 0.  1.
<mgrwt>
<rscale>  2 0.30178898E+03</rscale>
<asrwt>0</asrwt>
<pdfrwt beam="1">  1       21 0.69979892E-01 0.30178898E+03</pdfrwt>
<pdfrwt beam="2">  1       21 0.49940993E-01 0.30178898E+03</pdfrwt>
<totfact> 0.66315243E+03</totfact>
</mgrwt>
</event>
<event>
 4    1  0.4510095E+000  0.1820874E+03  0.7546771E-02  0.1165798E+00
         21   -1    0    0  503  502  0.00000000000E+00  0.00000000000E+00  0.14783406339E+03  0.14783406339E+03  0.00000000000E+00 0. -1.
         21   -1    0    0  501  503 -0.00000000000E+00 -0.00000000000E+00 -0.28335196921E+03  0.28335196921E+03  0.00000000000E+00 0. -1.
          6    1    1    2  501    0  0.11295539390E+02 -0.55670898159E+02 -0.16619901614E+03  0.24653184597E+03  0.17300000000E+03 0. -1.
         -6    1    1    2    0  502 -0.11295539390E+02  0.55670898159E+02  0.30681110315E+02  0.18465418664E+03  0.17300000000E+03 0. -1.
<mgrwt>
<rscale>  2 0.18208745E+03</rscale>
<asrwt>0</asrwt>
<pdfrwt beam="1">  1       21 0.22743702E-01 0.18208745E+03</pdfrwt>
<pdfrwt beam="2">  1       21 0.43592610E-01 0.18208745E+03</pdfrwt>
<totfact> 0.92060789E+04</totfact>
</mgrwt>
</event>
<event>
 4    1  0.4510095E+000  0.2722481E+03  0.7546771E-02  0.1100000E+00
         21   -1    0    0  503  502  0.00000000000E+00  0.00000000000E+00  0.77065184585E+03  0.77065184585E+03  0.00000000000E+00 0.  1.
         21   -1    0    0  501  503 -0.00000000000E+00 -0.00000000000E+00 -0.20310029410E+03  0.20310029410E+03  0.00000000000E+00 0. -1.
          6    1    1    2  501    0  0.13003267686E+03  0.16517129657E+03 -0.69488018565E+02  0.28097622495E+03  0.17300000000E+03 0. -1.
         -6    1    1    2    0  502 -0.13003267686E+03 -0.16517129657E+03  0.63703957031E+03  0.69277591500E+03  0.17300000000E+03 0.  1.
<mgrwt>
<rscale>  2 0.27224815E+03</rscale>
<asrwt>0</asrwt>
<pdfrwt beam="1">  1       21 0.11856182E+00 0.27224815E+03</pdfrwt>
<pdfrwt beam="2">  1       21 0.31246200E-01 0.27224815E+03</pdfrwt>
<totfact> 0.50684046E+03</totfact>
</mgrwt>
</event>
<event>
 4    1  0.4510095E+000  0.1834509E+03  0.7546771E-02  0.1164504E+00
         21   -1    0    0  503  502  0.00000000000E+00  0.00000000000E+00  0.29116029803E+02  0.29116029803E+02  0.00000000000E+00 0.  1.
         21   -1    0    0  501  503 -0.00000000000E+00 -0.00000000000E+00 -0.11594610836E+04  0.11594610836E+04  0.00000000000E+00 0.  1.
          6    1    1    2  501    0  0.53807053219E+02  0.28810454202E+02 -0.59826263392E+03  0.62575747730E+03  0.17300000000E+03 0.  1.
         -6    1    1    2    0  502 -0.53807053219E+02 -0.28810454202E+02 -0.53208241991E+03  0.56281963614E+03  0.17300000000E+03 0.  1.
<mgrwt>
<rscale>  2 0.18345092E+03</rscale>
<asrwt>0</asrwt>
<pdfrwt beam="1">  1       21 0.44793894E-02 0.18345092E+03</pdfrwt>
<pdfrwt beam="2">  1       21 0.17837862E+00 0.18345092E+03</pdfrwt>
<totfact> 0.60793625E+04</totfact>
</mgrwt>
</event>
<event>
 4    1  0.4510095E+000  0.2755509E+03  0.7546771E-02  0.1098144E+00
         21   -1    0    0  501  502  0.00000000000E+00  0.00000000000E+00  0.69648050000E+02  0.69648050000E+02  0.00000000000E+00 0.  1.
         21   -1    0    0  502  503 -0.00000000000E+00 -0.00000000000E+00 -0.11730224540E+04  0.11730224540E+04  0.00000000000E+00 0.  1.
          6    1    1    2  501    0 -0.90629284489E+02  0.19438531124E+03 -0.71681557059E+03  0.76795369566E+03  0.17300000000E+03 0.  1.
         -6    1    1    2    0  503  0.90629284489E+02 -0.19438531124E+03 -0.38655883339E+03  0.47471680832E+03  0.17300000000E+03 0.  1.
<mgrwt>
<rscale>  2 0.27555093E+03</rscale>
<asrwt>0</asrwt>
<pdfrwt beam="1">  1       21 0.10715086E-01 0.27555093E+03</pdfrwt>
<pdfrwt beam="2">  1       21 0.18046498E+00 0.27555093E+03</pdfrwt>
<totfact> 0.12271931E+04</totfact>
</mgrwt>
</event>
<event>
 4    1  0.4510095E+000  0.1799456E+03  0.7546771E-02  0.1167856E+00
         21   -1    0    0  501  502  0.00000000000E+00  0.00000000000E+00  0.26234157989E+03  0.26234157989E+03  0.00000000000E+00 0. -1.
         21   -1    0    0  502  503 -0.00000000000E+00 -0.00000000000E+00 -0.17489444343E+03  0.17489444343E+03  0.00000000000E+00 0. -1.
          6    1    1    2  501    0  0.36376973342E+02  0.33587572170E+02  0.16231633489E+03  0.24233654649E+03  0.17300000000E+03 0. -1.
         -6    1    1    2    0  503 -0.36376973342E+02 -0.33587572170E+02 -0.74869198430E+02  0.19489947683E+03  0.17300000000E+03 0. -1.
<mgrwt>
<rscale>  2 0.17994557E+03</rscale>
<asrwt>0</asrwt>
<pdfrwt beam="1">  1       21 0.40360243E-01 0.17994557E+03</pdfrwt>
<pdfrwt beam="2">  1       21 0.26906837E-01 0.17994557E+03</pdfrwt>
<totfact> 0.78230406E+04</totfact>
</mgrwt>
</event>
<event>
 4    1  0.4510095E+000  0.2014627E+03  0.7546771E-02  0.1148511E+00
         21   -1    0    0  503  502  0.00000000000E+00  0.00000000000E+00  0.17445678678E+03  0.17445678678E+03  0.00000000000E+00 0. -1.
         21   -1    0    0  501  503 -0.00000000000E+00 -0.00000000000E+00 -0.97333773378E+03  0.97333773378E+03  0.00000000000E+00 0.  1.
          6    1    1    2  501    0 -0.86678355747E+02  0.56080993066E+02 -0.90007432299E+03  0.92234538110E+03  0.17300000000E+03 0.  1.
         -6    1    1    2    0  502  0.86678355747E+02 -0.56080993066E+02  0.10119337599E+03  0.22544913946E+03  0.17300000000E+03 0. -1.
<mgrwt>
<rscale>  2 0.20146269E+03</rscale>
<asrwt>0</asrwt>
<pdfrwt beam="1">  1       21 0.26839506E-01 0.20146269E+03</pdfrwt>
<pdfrwt beam="2">  1       21 0.14974427E+00 0.20146269E+03</pdfrwt>
<totfact> 0.39390267E+03</totfact>
</mgrwt>
</event>
<event>
 4    1  0.4510095E+000  0.3196738E+03  0.7546771E-02  0.1075800E+00
         21   -1    0    0  503  502  0.00000000000E+00  0.00000000000E+00  0.23763869841E+03  0.23763869841E+03  0.00000000000E+00 0.  1.
         21   -1    0    0  501  503 -0.00000000000E+00 -0.00000000000E+00 -0.67129592983E+03  0.67129592983E+03  0.00000000000E+00 0.  1.
          6    1    1    2  501    0 -0.26503256414E+03 -0.44945176483E+02 -0.48928394924E+03  0.58445710871E+03  0.17300000000E+03 0.  1.
         -6    1    1    2    0  502  0.26503256414E+03  0.44945176483E+02  0.55626717829E+02  0.32447751953E+03  0.17300000000E+03 0.  1.
<mgrwt>
<rscale>  2 0.31967379E+03</rscale>
<asrwt>0</asrwt>
<pdfrwt beam="1">  1       21 0.36559799E-01 0.31967379E+03</pdfrwt>
<pdfrwt beam="2">  1       21 0.10327630E+00 0.31967379E+03</pdfrwt>
<totfact> 0.50693303E+03</totfact>
</mgrwt>
</event>
<event>
 4    1  0.4510095E+000  0.1940416E+03  0.7546771E-02  0.1154866E+00
         21   -1    0    0  503  502  0.00000000000E+00  0.00000000000E+00  0.19510771696E+03  0.19510771696E+03  0.00000000000E+00 0. -1.
         21   -1    0    0  501  503 -0.00000000000E+00 -0.00000000000E+00 -0.20420659541E+03  0.20420659541E+03  0.00000000000E+00 0. -1.
          6    1    1    2  501    0 -0.72087470278E+02 -0.50264828585E+02  0.42261499559E+02  0.19859051012E+03  0.17300000000E+03 0. -1.
         -6    1    1    2    0  502  0.72087470278E+02  0.50264828585E+02 -0.51360378010E+02  0.20072380226E+03  0.17300000000E+03 0. -1.
<mgrwt>
<rscale>  2 0.19404164E+03</rscale>
<asrwt>0</asrwt>
<pdfrwt beam="1">  1       21 0.30016572E-01 0.19404164E+03</pdfrwt>
<pdfrwt beam="2">  1       21 0.31416399E-01 0.19404164E+03</pdfrwt>
<totfact> 0.10360342E+05</totfact>
</mgrwt>
</event>
<event>
 4    1  0.4510095E+000  0.2315062E+03  0.7546771E-02  0.1125584E+00
         21   -1    0    0  501  502  0.00000000000E+00  0.00000000000E+00  0.10797513099E+03  0.10797513099E+03  0.00000000000E+00 0.  1.
         21   -1    0    0  502  503 -0.00000000000E+00 -0.00000000000E+00 -0.73801750491E+03  0.73801750491E+03  0.00000000000E+00 0. -1.
          6    1    1    2  501    0  0.45003549004E+02  0.14710807527E+03 -0.72974767813E+02  0.24273529197E+03  0.17300000000E+03 0. -1.
         -6    1    1    2    0  503 -0.45003549004E+02 -0.14710807527E+03 -0.55706760611E+03  0.60325734393E+03  0.17300000000E+03 0.  1.
<mgrwt>
<rscale>  2 0.23150617E+03</rscale>
<asrwt>0</asrwt>
<pdfrwt beam="1">  1       21 0.16611559E-01 0.23150617E+03</pdfrwt>
<pdfrwt beam="2">  1       21 0.11354115E+00 0.23150617E+03</pdfrwt>
<totfact> 0.19229985E+04</totfact>
</mgrwt>
</event>
<event>
 4    1  0.4510095E+000  0.1791263E+03  0.7546771E-02  0.1168651E+00
         21   -1    0    0  503  502  0.00000000000E+00  0.00000000000E+00  0.12840457520E+03  0.12840457520E+03  0.00000000000E+00 0. -1.
         21   -1    0    0  501  503 -0.00000000000E+00 -0.00000000000E+00 -0.25140966236E+03  0.25140966236E+03  0.00000000000E+00 0. -1.
          6    1    1    2  501    0 -0.61456922898E+00  0.46441754319E+02 -0.46707445061E+02  0.18511563863E+03  0.17300000000E+03 0. -1.
         -6    1    1    2    0  502  0.61456922898E+00 -0.46441754319E+02 -0.76297642100E+02  0.19469859894E+03  0.17300000000E+03 0. -1.
<mgrwt>
<rscale>  2 0.17912625E+03</rscale>
<asrwt>0</asrwt>
<pdfrwt beam="1">  1       21 0.19754550E-01 0.17912625E+03</pdfrwt>
<pdfrwt beam="2">  1       21 0.38678409E-01 0.17912625E+03</pdfrwt>
<totfact> 0.15291101E+05</totfact>
</mgrwt>
</event>
<event>
 4    1  0.4510095E+000  0.1876628E+03  0.7546771E-02  0.1160586E+00
         21   -1    0    0  503  502  0.00000000000E+00  0.00000000000E+00  0.35856578635E+02  0.35856578635E+02  0.00000000000E+00 0.  1.
         21   -1    0    0  501  503 -0.00000000000E+00 -0.00000000000E+00 -0.19420885298E+04  0.19420885298E+04  0.00000000000E+00 0.  1.
          6    1    1    2  501    0 -0.60461145686E+01 -0.72469047138E+02 -0.16484068369E+04  0.16590546761E+04  0.17300000000E+03 0.  1.
         -6    1    1    2    0  502  0.60461145686E+01  0.72469047138E+02 -0.25782511422E+03  0.31889043231E+03  0.17300000000E+03 0.  1.
<mgrwt>
<rscale>  2 0.18766278E+03</rscale>
<asrwt>0</asrwt>
<pdfrwt beam="1">  1       21 0.55163966E-02 0.18766278E+03</pdfrwt>
<pdfrwt beam="2">  1       21 0.29878286E+00 0.18766278E+03</pdfrwt>
<totfact> 0.79400087E+03</totfact>
</mgrwt>
</event>
<event>
 4    1  0.4510095E+000  0.2612767E+03  0.7546771E-02  0.1106379E+00
         21   -1    0    0  501  502  0.00000000000E+00  0.00000000000E+00  0.34978208980E+03  0.34978208980E+03  0.00000000000E+00 0.  1.
         21   -1    0    0  502  503 -0.00000000000E+00 -0.00000000000E+00 -0.19616849775E+03  0.19616849775E+03  0.00000000000E+00 0. -1.
          6    1    1    2  501    0 -0.15325728049E+03 -0.12185529204E+03  0.57290799508E+02  0.26748409659E+03  0.17300000000E+03 0.  1.
         -6    1    1    2    0  503  0.15325728049E+03  0.12185529204E+03  0.96322792538E+02  0.27846649095E+03  0.17300000000E+03 0. -1.
<mgrwt>
<rscale>  2 0.26127669E+03</rscale>
<asrwt>0</asrwt>
<pdfrwt beam="1">  1       21 0.53812629E-01 0.26127669E+03</pdfrwt>
<pdfrwt beam="2">  1       21 0.30179769E-01 0.26127669E+03</pdfrwt>
<totfact> 0.33292827E+04</totfact>
</mgrwt>
</event>
<event>
 4    1  0.4510095E+000  0.2213249E+03  0.7546771E-02  0.1132899E+00
         21   -1    0    0  501  502  0.00000000000E+00  0.00000000000E+00  0.82376107395E+03  0.82376107395E+03  0.00000000000E+00 0.  1.
         21   -1    0    0  502  503 -0.00000000000E+00 -0.00000000000E+00 -0.69910398462E+02  0.69910398462E+02  0.00000000000E+00 0.  1.
          6    1    1    2  501    0  0.57323789880E+01 -0.13792334207E+03  0.54964654658E+03  0.59253357257E+03  0.17300000000E+03 0.  1.
         -6    1    1    2    0  503 -0.57323789880E+01  0.13792334207E+03  0.20420412891E+03  0.30113789984E+03  0.17300000000E+03 0.  1.
<mgrwt>
<rscale>  2 0.22132489E+03</rscale>
<asrwt>0</asrwt>
<pdfrwt beam="1">  1       21 0.12673247E+00 0.22132489E+03</pdfrwt>
<pdfrwt beam="2">  1       21 0.10755447E-01 0.22132489E+03</pdfrwt>
<totfact> 0.32337793E+04</totfact>
</mgrwt>
</event>
<event>
 4    1  0.4510095E+000  0.2220181E+03  0.7546771E-02  0.1132387E+00
         21   -1    0    0  501  502  0.00000000000E+00  0.00000000000E+00  0.74471125465E+02  0.74471125465E+02  0.00000000000E+00 0.  1.
         21   -1    0    0  502  503 -0.00000000000E+00 -0.00000000000E+00 -0.84107757895E+03  0.84107757895E+03  0.00000000000E+00 0.  1.
          6    1    1    2  501    0 -0.11744755870E+03 -0.74626576313E+02 -0.17201198587E+03  0.28085615219E+03  0.17300000000E+03 0.  1.
         -6    1    1    2    0  503  0.11744755870E+03  0.74626576313E+02 -0.59459446762E+03  0.63469255223E+03  0.17300000000E+03 0.  1.
<mgrwt>
<rscale>  2 0.22201814E+03</rscale>
<asrwt>0</asrwt>
<pdfrwt beam="1">  1       21 0.11457097E-01 0.22201814E+03</pdfrwt>
<pdfrwt beam="2">  1       21 0.12939655E+00 0.22201814E+03</pdfrwt>
<totfact> 0.27398063E+04</totfact>
</mgrwt>
</event>
<event>
 4    1  0.4510095E+000  0.1847830E+03  0.7546771E-02  0.1163253E+00
         21   -1    0    0  503  502  0.00000000000E+00  0.00000000000E+00  0.62306588146E+03  0.62306588146E+03  0.00000000000E+00 0. -1.
         21   -1    0    0  501  503 -0.00000000000E+00 -0.00000000000E+00 -0.54915594871E+02  0.54915594871E+02  0.00000000000E+00 0.  1.
          6    1    1    2  501    0  0.55011923256E+02 -0.34488306088E+02  0.26860292863E+03  0.32602498098E+03  0.17300000000E+03 0. -1.
         -6    1    1    2    0  502 -0.55011923256E+02  0.34488306088E+02  0.29954735796E+03  0.35195649535E+03  0.17300000000E+03 0.  1.
<mgrwt>
<rscale>  2 0.18478299E+03</rscale>
<asrwt>0</asrwt>
<pdfrwt beam="1">  1       21 0.95856284E-01 0.18478299E+03</pdfrwt>
<pdfrwt beam="2">  1       21 0.84485535E-02 0.18478299E+03</pdfrwt>
<totfact> 0.99290401E+04</totfact>
</mgrwt>
</event>
<event>
 4    1  0.4510095E+000  0.2160028E+03  0.7546771E-02  0.1136899E+00
         21   -1    0    0  501  502  0.00000000000E+00  0.00000000000E+00  0.10084060569E+03  0.10084060569E+03  0.00000000000E+00 0. -1.
         21   -1    0    0  502  503 -0.00000000000E+00 -0.00000000000E+00 -0.87830121305E+03  0.87830121305E+03  0.00000000000E+00 0. -1.
          6    1    1    2  501    0 -0.41632551644E+02  0.12245389126E+03 -0.51954256522E+02  0.22216315989E+03  0.17300000000E+03 0. -1.
         -6    1    1    2    0  503  0.41632551644E+02 -0.12245389126E+03 -0.72550635084E+03  0.75697865884E+03  0.17300000000E+03 0. -1.
<mgrwt>
<rscale>  2 0.21600284E+03</rscale>
<asrwt>0</asrwt>
<pdfrwt beam="1">  1       21 0.15513940E-01 0.21600284E+03</pdfrwt>
<pdfrwt beam="2">  1       21 0.13512326E+00 0.21600284E+03</pdfrwt>
<totfact> 0.14231386E+04</totfact>
</mgrwt>
</event>
<event>
 4    1  0.4510095E+000  0.1786221E+03  0.7546771E-02  0.1169143E+00
         21   -1    0    0  501  502  0.00000000000E+00  0.00000000000E+00  0.37486187218E+03  0.37486187218E+03  0.00000000000E+00 0. -1.
         21   -1    0    0  502  503 -0.00000000000E+00 -0.00000000000E+00 -0.61358738073E+03  0.61358738073E+03  0.00000000000E+00 0.  1.
          6    1    1    2  501    0  0.35945758348E+02 -0.26168114081E+02  0.33930464023E+03  0.38344948379E+03  0.17300000000E+03 0. -1.
         -6    1    1    2    0  503 -0.35945758348E+02  0.26168114081E+02 -0.57803014878E+03  0.60499976912E+03  0.17300000000E+03 0.  1.
<mgrwt>
<rscale>  2 0.17862214E+03</rscale>
<asrwt>0</asrwt>
<pdfrwt beam="1">  1       21 0.57671058E-01 0.17862214E+03</pdfrwt>
<pdfrwt beam="2">  1       21 0.94398058E-01 0.17862214E+03</pdfrwt>
<totfact> 0.26851581E+03</totfact>
</mgrwt>
</event>
<event>
 4    1  0.4510095E+000  0.1754305E+03  0.7546771E-02  0.1172300E+00
         21   -1    0    0  503  502  0.00000000000E+00  0.00000000000E+00  0.16475645624E+04  0.16475645624E+04  0.00000000000E+00 0. -1.
         21   -1    0    0  501  503 -0.00000000000E+00 -0.00000000000E+00 -0.19169340605E+02  0.19169340605E+02  0.00000000000E+00 0. -1.
          6    1    1    2  501    0 -0.10920716484E+02 -0.26974085905E+02  0.68099542830E+03  0.70322872291E+03  0.17300000000E+03 0.  1.
         -6    1    1    2    0  502  0.10920716484E+02  0.26974085905E+02  0.94739979351E+03  0.96350518011E+03  0.17300000000E+03 0.  1.
<mgrwt>
<rscale>  2 0.17543051E+03</rscale>
<asrwt>0</asrwt>
<pdfrwt beam="1">  1       21 0.25347136E+00 0.17543051E+03</pdfrwt>
<pdfrwt beam="2">  1       21 0.29491306E-02 0.17543051E+03</pdfrwt>
<totfact> 0.41885960E+04</totfact>
</mgrwt>
</event>
<event>
 4    1  0.4510095E+000  0.3501828E+03  0.7546771E-02  0.1062540E+00
         21   -1    0    0  501  502  0.00000000000E+00  0.00000000000E+00  0.48487267001E+03  0.48487267001E+03  0.00000000000E+00 0.  1.
         21   -1    0    0  502  503 -0.00000000000E+00 -0.00000000000E+00 -0.25647114797E+03  0.25647114797E+03  0.00000000000E+00 0. -1.
          6    1    1    2  501    0  0.84446680221E+02  0.29251963398E+03  0.15789381257E+03  0.38413335459E+03  0.17300000000E+03 0.  1.
         -6    1    1    2    0  503 -0.84446680221E+02 -0.29251963398E+03  0.70507709468E+02  0.35721046339E+03  0.17300000000E+03 0. -1.
<mgrwt>
<rscale>  2 0.35018278E+03</rscale>
<asrwt>0</asrwt>
<pdfrwt beam="1">  1       21 0.74595795E-01 0.35018278E+03</pdfrwt>
<pdfrwt beam="2">  1       21 0.39457100E-01 0.35018278E+03</pdfrwt>
<totfact> 0.91745253E+03</totfact>
</mgrwt>
</event>
<event>
 4    1  0.4510095E+000  0.2093819E+03  0.7546771E-02  0.1142056E+00
         21   -1    0    0  501  502  0.00000000000E+00  0.00000000000E+00  0.23278320670E+02  0.23278320670E+02  0.00000000000E+00 0.  1.
         21   -1    0    0  502  503 -0.00000000000E+00 -0.00000000000E+00 -0.21476965828E+04  0.21476965828E+04  0.00000000000E+00 0. -1.
          6    1    1    2  501    0 -0.80491229047E+02  0.86214625230E+02 -0.68137118393E+03  0.71281658920E+03  0.17300000000E+03 0.  1.
         -6    1    1    2    0  503  0.80491229047E+02 -0.86214625230E+02 -0.14430470782E+04  0.14581583143E+04  0.17300000000E+03 0. -1.
<mgrwt>
<rscale>  2 0.20938195E+03</rscale>
<asrwt>0</asrwt>
<pdfrwt beam="1">  1       21 0.35812788E-02 0.20938195E+03</pdfrwt>
<pdfrwt beam="2">  1       21 0.33041498E+00 0.20938195E+03</pdfrwt>
<totfact> 0.10540123E+04</totfact>
</mgrwt>
</event>
<event>
 4    1  0.4510095E+000  0.2691413E+03  0.7546771E-02  0.1101772E+00
         21   -1    0    0  503  502  0.00000000000E+00  0.00000000000E+00  0.62166786222E+03  0.62166786222E+03  0.00000000000E+00 0. -1.
         21   -1    0    0  501  503 -0.00000000000E+00 -0.00000000000E+00 -0.14816846298E+03  0.14816846298E+03  0.00000000000E+00 0. -1.
          6    1    1    2  501    0 -0.20616604774E+03  0.18982588147E+01  0.58854806835E+02  0.27550123578E+03  0.17300000000E+03 0. -1.
         -6    1    1    2    0  502  0.20616604774E+03 -0.18982588147E+01  0.41464459240E+03  0.49433508942E+03  0.17300000000E+03 0. -1.
<mgrwt>
<rscale>  2 0.26914131E+03</rscale>
<asrwt>0</asrwt>
<pdfrwt beam="1">  1       21 0.95641208E-01 0.26914131E+03</pdfrwt>
<pdfrwt beam="2">  1       21 0.22795149E-01 0.26914131E+03</pdfrwt>
<totfact> 0.15766243E+04</totfact>
</mgrwt>
</event>
<event>
 4    1  0.4510095E+000  0.2174228E+03  0.7546771E-02  0.1135819E+00
         21   -1    0    0  501  502  0.00000000000E+00  0.00000000000E+00  0.49980743819E+03  0.49980743819E+03  0.00000000000E+00 0. -1.
         21   -1    0    0  502  503 -0.00000000000E+00 -0.00000000000E+00 -0.94642424461E+02  0.94642424461E+02  0.00000000000E+00 0. -1.
          6    1    1    2  501    0  0.12888852128E+03  0.27045114397E+02  0.21010483217E+03  0.30235199624E+03  0.17300000000E+03 0. -1.
         -6    1    1    2    0  503 -0.12888852128E+03 -0.27045114397E+02  0.19506018156E+03  0.29209786641E+03  0.17300000000E+03 0. -1.
<mgrwt>
<rscale>  2 0.21742283E+03</rscale>
<asrwt>0</asrwt>
<pdfrwt beam="1">  1       21 0.76893450E-01 0.21742283E+03</pdfrwt>
<pdfrwt beam="2">  1       21 0.14560373E-01 0.21742283E+03</pdfrwt>
<totfact> 0.61554971E+04</totfact>
</mgrwt>
</event>
<event>
 4    1  0.4510095E+000  0.2374966E+03  0.7546771E-02  0.1121472E+00
         21   -1    0    0  503  502  0.00000000000E+00  0.00000000000E+00  0.11936190503E+04  0.11936190503E+04  0.00000000000E+00 0. -1.
         21   -1    0    0  501  503 -0.00000000000E+00 -0.00000000000E+00 -0.48480636452E+02  0.48480636452E+02  0.00000000000E+00 0.  1.
          6    1    1    2  501    0 -0.87135733718E+02 -0.13741545474E+03  0.47382829200E+03  0.53001688048E+03  0.17300000000E+03 0.  1.
         -6    1    1    2    0  502  0.87135733718E+02  0.13741545474E+03  0.67131012184E+03  0.71208280626E+03  0.17300000000E+03 0.  1.
<mgrwt>
<rscale>  2 0.23749662E+03</rscale>
<asrwt>0</asrwt>
<pdfrwt beam="1">  1       21 0.18363368E+00 0.23749662E+03</pdfrwt>
<pdfrwt beam="2">  1       21 0.74585603E-02 0.23749662E+03</pdfrwt>
<totfact> 0.22619779E+04</totfact>
</mgrwt>
</event>
<event>
 4    1  0.4510095E+000  0.2753693E+03  0.7546771E-02  0.1098245E+00
         21   -1    0    0  501  502  0.00000000000E+00  0.00000000000E+00  0.22557838372E+03  0.22557838372E+03  0.00000000000E+00 0.  1.
         21   -1    0    0  502  503 -0.00000000000E+00 -0.00000000000E+00 -0.34648920875E+03  0.34648920875E+03  0.00000000000E+00 0.  1.
          6    1    1    2  501    0 -0.20901300738E+03  0.47040623963E+02 -0.10986467105E+03  0.29647681782E+03  0.17300000000E+03 0.  1.
         -6    1    1    2    0  503  0.20901300738E+03 -0.47040623963E+02 -0.11046153975E+02  0.27559077466E+03  0.17300000000E+03 0.  1.
<mgrwt>
<rscale>  2 0.27536931E+03</rscale>
<asrwt>0</asrwt>
<pdfrwt beam="1">  1       21 0.34704367E-01 0.27536931E+03</pdfrwt>
<pdfrwt beam="2">  1       21 0.53306032E-01 0.27536931E+03</pdfrwt>
<totfact> 0.25603206E+04</totfact>
</mgrwt>
</event>
<event>
 4    1  0.4510095E+000  0.2371150E+03  0.7546771E-02  0.1121730E+00
         21   -1    0    0  501  502  0.00000000000E+00  0.00000000000E+00  0.26051548177E+03  0.26051548177E+03  0.00000000000E+00 0.  1.
         21   -1    0    0  502  503 -0.00000000000E+00 -0.00000000000E+00 -0.70348911301E+03  0.70348911301E+03  0.00000000000E+00 0. -1.
          6    1    1    2  501    0 -0.41469152434E+02 -0.15676363993E+03  0.17982746896E+03  0.29759275529E+03  0.17300000000E+03 0.  1.
         -6    1    1    2    0  503  0.41469152434E+02  0.15676363993E+03 -0.62280110020E+03  0.66641183950E+03  0.17300000000E+03 0. -1.
<mgrwt>
<rscale>  2 0.23711501E+03</rscale>
<asrwt>0</asrwt>
<pdfrwt beam="1">  1       21 0.40079305E-01 0.23711501E+03</pdfrwt>
<pdfrwt beam="2">  1       21 0.10822909E+00 0.23711501E+03</pdfrwt>
<totfact> 0.39382127E+03</totfact>
</mgrwt>
</event>
<event>
 4    1  0.4510095E+000  0.1785182E+03  0.7546771E-02  0.1169245E+00
         21   -1    0    0  503  502  0.00000000000E+00  0.00000000000E+00  0.12662261197E+03  0.12662261197E+03  0.00000000000E+00 0. -1.
         21   -1    0    0  501  503 -0.00000000000E+00 -0.00000000000E+00 -0.10634135952E+04  0.10634135952E+04  0.00000000000E+00 0. -1.
          6    1    1    2  501    0  0.27198819612E+02  0.34640615845E+02 -0.98825387966E+03  0.10042482157E+04  0.17300000000E+03 0. -1.
         -6    1    1    2    0  502 -0.27198819612E+02 -0.34640615845E+02  0.51462896464E+02  0.18578799145E+03  0.17300000000E+03 0. -1.
<mgrwt>
<rscale>  2 0.17851820E+03</rscale>
<asrwt>0</asrwt>
<pdfrwt beam="1">  1       21 0.19480402E-01 0.17851820E+03</pdfrwt>
<pdfrwt beam="2">  1       21 0.16360209E+00 0.17851820E+03</pdfrwt>
<totfact> 0.58160269E+03</totfact>
</mgrwt>
</event>
<event>
 4    1  0.4510095E+000  0.2311610E+03  0.7546771E-02  0.1125825E+00
         21   -1    0    0  503  502  0.00000000000E+00  0.00000000000E+00  0.21395167539E+03  0.21395167539E+03  0.00000000000E+00 0. -1.
         21   -1    0    0  501  503 -0.00000000000E+00 -0.00000000000E+00 -0.25804042349E+03  0.25804042349E+03  0.00000000000E+00 0. -1.
          6    1    1    2  501    0  0.14577286184E+03 -0.47504379032E+02 -0.64333759352E+02  0.23994629789E+03  0.17300000000E+03 0. -1.
         -6    1    1    2    0  502 -0.14577286184E+03  0.47504379032E+02  0.20245011259E+02  0.23204580099E+03  0.17300000000E+03 0. -1.
<mgrwt>
<rscale>  2 0.23116097E+03</rscale>
<asrwt>0</asrwt>
<pdfrwt beam="1">  1       21 0.32915642E-01 0.23116097E+03</pdfrwt>
<pdfrwt beam="2">  1       21 0.39698527E-01 0.23116097E+03</pdfrwt>
<totfact> 0.53401991E+04</totfact>
</mgrwt>
</event>
<event>
 4    1  0.4510095E+000  0.2136715E+03  0.7546771E-02  0.1138691E+00
         21   -1    0    0  503  502  0.00000000000E+00  0.00000000000E+00  0.74310667326E+03  0.74310667326E+03  0.00000000000E+00 0. -1.
         21   -1    0    0  501  503 -0.00000000000E+00 -0.00000000000E+00 -0.63143427540E+02  0.63143427540E+02  0.00000000000E+00 0.  1.
          6    1    1    2  501    0  0.36470108206E+02 -0.11998515954E+03  0.40621902829E+03  0.45898737047E+03  0.17300000000E+03 0. -1.
         -6    1    1    2    0  502 -0.36470108206E+02  0.11998515954E+03  0.27374421743E+03  0.34726273033E+03  0.17300000000E+03 0. -1.
<mgrwt>
<rscale>  2 0.21367149E+03</rscale>
<asrwt>0</asrwt>
<pdfrwt beam="1">  1       21 0.11432410E+00 0.21367149E+03</pdfrwt>
<pdfrwt beam="2">  1       21 0.97143740E-02 0.21367149E+03</pdfrwt>
<totfact> 0.50244401E+04</totfact>
</mgrwt>
</event>
<event>
 4    1  0.4510095E+000  0.2228000E+03  0.7546771E-02  0.1131813E+00
         21   -1    0    0  501  502  0.00000000000E+00  0.00000000000E+00  0.25543569864E+03  0.25543569864E+03  0.00000000000E+00 0. -1.
         21   -1    0    0  502  503 -0.00000000000E+00 -0.00000000000E+00 -0.19468411636E+03  0.19468411636E+03  0.00000000000E+00 0.  1.
          6    1    1    2  501    0 -0.11879008708E+03 -0.74831405951E+02  0.20830696452E+02  0.22377162917E+03  0.17300000000E+03 0.  1.
         -6    1    1    2    0  503  0.11879008708E+03  0.74831405951E+02  0.39920885834E+02  0.22634818583E+03  0.17300000000E+03 0.  1.
<mgrwt>
<rscale>  2 0.22279996E+03</rscale>
<asrwt>0</asrwt>
<pdfrwt beam="1">  1       21 0.39297800E-01 0.22279996E+03</pdfrwt>
<pdfrwt beam="2">  1       21 0.29951402E-01 0.22279996E+03</pdfrwt>
<totfact> 0.65858362E+04</totfact>
</mgrwt>
</event>
<event>
 4    1  0.4510095E+000  0.2155130E+03  0.7546771E-02  0.1137273E+00
         21   -1    0    0  503  502  0.00000000000E+00  0.00000000000E+00  0.31676366961E+02  0.31676366961E+02  0.00000000000E+00 0. -1.
         21   -1    0    0  501  503 -0.00000000000E+00 -0.00000000000E+00 -0.16039775659E+04  0.16039775659E+04  0.00000000000E+00 0. -1.
          6    1    1    2  501    0  0.50543072026E+02 -0.11816189372E+03 -0.10257880492E+04  0.10481826926E+04  0.17300000000E+03 0. -1.
         -6    1    1    2    0  502 -0.50543072026E+02  0.11816189372E+03 -0.54651314974E+03  0.58747124023E+03  0.17300000000E+03 0. -1.
<mgrwt>
<rscale>  2 0.21551296E+03</rscale>
<asrwt>0</asrwt>
<pdfrwt beam="1">  1       21 0.48732865E-02 0.21551296E+03</pdfrwt>
<pdfrwt beam="2">  1       21 0.24676582E+00 0.21551296E+03</pdfrwt>
<totfact> 0.19147523E+04</totfact>
</mgrwt>
</event>
<event>
 4    1  0.4510095E+000  0.1856590E+03  0.7546771E-02  0.1162436E+00
         21   -1    0    0  503  502  0.00000000000E+00  0.00000000000E+00  0.15248286868E+04  0.15248286868E+04  0.00000000000E+00 0. -1.
         21   -1    0    0  501  503 -0.00000000000E+00 -0.00000000000E+00 -0.55487058957E+02  0.55487058957E+02  0.00000000000E+00 0. -1.
          6    1    1    2  501    0  0.45624639204E+02  0.49584781944E+02  0.12640230942E+03  0.22460365564E+03  0.17300000000E+03 0. -1.
         -6    1    1    2    0  502 -0.45624639204E+02 -0.49584781944E+02  0.13429393184E+04  0.13557120901E+04  0.17300000000E+03 0. -1.
<mgrwt>
<rscale>  2 0.18565898E+03</rscale>
<asrwt>0</asrwt>
<pdfrwt beam="1">  1       21 0.23458900E+00 0.18565898E+03</pdfrwt>
<pdfrwt beam="2">  1       21 0.85364718E-02 0.18565898E+03</pdfrwt>
<totfact> 0.88527101E+03</totfact>
</mgrwt>
</event>
<event>
 4    1  0.4510095E+000  0.1813477E+03  0.7546771E-02  0.1166505E+00
         21   -1    0    0  503  502  0.00000000000E+00  0.00000000000E+00  0.30515642115E+02  0.30515642115E+02  0.00000000000E+00 0. -1.
         21   -1    0    0  501  503 -0.00000000000E+00 -0.00000000000E+00 -0.20022522056E+04  0.20022522056E+04  0.00000000000E+00 0. -1.
          6    1    1    2  501    0  0.23486887905E+02 -0.49054453927E+02 -0.16765247289E+04  0.16863042845E+04  0.17300000000E+03 0. -1.
         -6    1    1    2    0  502 -0.23486887905E+02  0.49054453927E+02 -0.29521183464E+03  0.34646356326E+03  0.17300000000E+03 0. -1.
<mgrwt>
<rscale>  2 0.18134766E+03</rscale>
<asrwt>0</asrwt>
<pdfrwt beam="1">  1       21 0.46947135E-02 0.18134766E+03</pdfrwt>
<pdfrwt beam="2">  1       21 0.30803884E+00 0.18134766E+03</pdfrwt>
<totfact> 0.93015009E+03</totfact>
</mgrwt>
</event>
<event>
 4    1  0.4510095E+000  0.1806326E+03  0.7546771E-02  0.1167192E+00
         21   -1    0    0  503  502  0.00000000000E+00  0.00000000000E+00  0.20570405860E+02  0.20570405860E+02  0.00000000000E+00 0. -1.
         21   -1    0    0  501  503 -0.00000000000E+00 -0.00000000000E+00 -0.22293224082E+04  0.22293224082E+04  0.00000000000E+00 0. -1.
          6    1    1    2  501    0 -0.49690238780E+02 -0.15166734891E+02 -0.17086063330E+04  0.17181279786E+04  0.17300000000E+03 0. -1.
         -6    1    1    2    0  502  0.49690238780E+02  0.15166734891E+02 -0.50014566940E+03  0.53176483552E+03  0.17300000000E+03 0. -1.
<mgrwt>
<rscale>  2 0.18063264E+03</rscale>
<asrwt>0</asrwt>
<pdfrwt beam="1">  1       21 0.31646775E-02 0.18063264E+03</pdfrwt>
<pdfrwt beam="2">  1       21 0.34297271E+00 0.18063264E+03</pdfrwt>
<totfact> 0.11301509E+04</totfact>
</mgrwt>
</event>
<event>
 4    1  0.4510095E+000  0.2339303E+03  0.7546771E-02  0.1123904E+00
         21   -1    0    0  501  502  0.00000000000E+00  0.00000000000E+00  0.73756523137E+02  0.73756523137E+02  0.00000000000E+00 0. -1.
         21   -1    0    0  502  503 -0.00000000000E+00 -0.00000000000E+00 -0.74797180146E+03  0.74797180146E+03  0.00000000000E+00 0.  1.
          6    1    1    2  501    0  0.11561929523E+03  0.10689513195E+03 -0.37398389029E+03  0.44112055139E+03  0.17300000000E+03 0. -1.
         -6    1    1    2    0  503 -0.11561929523E+03 -0.10689513195E+03 -0.30023138803E+03  0.38060777320E+03  0.17300000000E+03 0.  1.
<mgrwt>
<rscale>  2 0.23393031E+03</rscale>
<asrwt>0</asrwt>
<pdfrwt beam="1">  1       21 0.11347157E-01 0.23393031E+03</pdfrwt>
<pdfrwt beam="2">  1       21 0.11507259E+00 0.23393031E+03</pdfrwt>
<totfact> 0.37137450E+04</totfact>
</mgrwt>
</event>
<event>
 4    1  0.4510095E+000  0.2229773E+03  0.7546771E-02  0.1131683E+00
         21   -1    0    0  503  502  0.00000000000E+00  0.00000000000E+00  0.64968090483E+03  0.64968090483E+03  0.00000000000E+00 0.  1.
         21   -1    0    0  501  503 -0.00000000000E+00 -0.00000000000E+00 -0.11242546222E+03  0.11242546222E+03  0.00000000000E+00 0.  1.
          6    1    1    2  501    0 -0.53125413300E+02  0.13025952818E+03  0.53307687886E+02  0.22926090772E+03  0.17300000000E+03 0.  1.
         -6    1    1    2    0  502  0.53125413300E+02 -0.13025952818E+03  0.48394775472E+03  0.53284545932E+03  0.17300000000E+03 0.  1.
<mgrwt>
<rscale>  2 0.22297725E+03</rscale>
<asrwt>0</asrwt>
<pdfrwt beam="1">  1       21 0.99950906E-01 0.22297725E+03</pdfrwt>
<pdfrwt beam="2">  1       21 0.17296225E-01 0.22297725E+03</pdfrwt>
<totfact> 0.24408866E+04</totfact>
</mgrwt>
</event>
<event>
 4    1  0.4510095E+000  0.2275148E+03  0.7546771E-02  0.1128401E+00
         21   -1    0    0  503  502  0.00000000000E+00  0.00000000000E+00  0.54950968955E+02  0.54950968955E+02  0.00000000000E+00 0. -1.
         21   -1    0    0  501  503 -0.00000000000E+00 -0.00000000000E+00 -0.10137581320E+04  0.10137581320E+04  0.00000000000E+00 0. -1.
          6    1    1    2  501    0 -0.37036091139E+02  0.14304657028E+03 -0.33722210495E+03  0.40679447069E+03  0.17300000000E+03 0. -1.
         -6    1    1    2    0  502  0.37036091139E+02 -0.14304657028E+03 -0.62158505814E+03  0.66191463031E+03  0.17300000000E+03 0. -1.
<mgrwt>
<rscale>  2 0.22751482E+03</rscale>
<asrwt>0</asrwt>
<pdfrwt beam="1">  1       21 0.84539947E-02 0.22751482E+03</pdfrwt>
<pdfrwt beam="2">  1       21 0.15596280E+00 0.22751482E+03</pdfrwt>
<totfact> 0.28761531E+04</totfact>
</mgrwt>
</event>
<event>
 4    1  0.4510095E+000  0.1788120E+03  0.7546771E-02  0.1168958E+00
         21   -1    0    0  501  502  0.00000000000E+00  0.00000000000E+00  0.99773326048E+02  0.99773326048E+02  0.00000000000E+00 0.  1.
         21   -1    0    0  502  503 -0.00000000000E+00 -0.00000000000E+00 -0.82467493969E+03  0.82467493969E+03  0.00000000000E+00 0. -1.
          6    1    1    2  501    0  0.29960482693E+02  0.33869115842E+02 -0.10264640300E+01  0.17881499143E+03  0.17300000000E+03 0.  1.
         -6    1    1    2    0  503 -0.29960482693E+02 -0.33869115842E+02 -0.72387514961E+03  0.74563327431E+03  0.17300000000E+03 0. -1.
<mgrwt>
<rscale>  2 0.17881205E+03</rscale>
<asrwt>0</asrwt>
<pdfrwt beam="1">  1       21 0.15349743E-01 0.17881205E+03</pdfrwt>
<pdfrwt beam="2">  1       21 0.12687306E+00 0.17881205E+03</pdfrwt>
<totfact> 0.17446434E+04</totfact>
</mgrwt>
</event>
<event>
 4    1  0.4510095E+000  0.2250380E+03  0.7546771E-02  0.1130182E+00
         21   -1    0    0  501  502  0.00000000000E+00  0.00000000000E+00  0.85796892622E+02  0.85796892622E+02  0.00000000000E+00 0.  1.
         21   -1    0    0  502  503 -0.00000000000E+00 -0.00000000000E+00 -0.10991188501E+04  0.10991188501E+04  0.00000000000E+00 0. -1.
          6    1    1    2  501    0  0.13339013708E+03  0.54038802097E+02 -0.10353984405E+03  0.24771479590E+03  0.17300000000E+03 0.  1.
         -6    1    1    2    0  503 -0.13339013708E+03 -0.54038802097E+02 -0.90978211343E+03  0.93720094682E+03  0.17300000000E+03 0. -1.
<mgrwt>
<rscale>  2 0.22503804E+03</rscale>
<asrwt>0</asrwt>
<pdfrwt beam="1">  1       21 0.13199523E-01 0.22503804E+03</pdfrwt>
<pdfrwt beam="2">  1       21 0.16909519E+00 0.22503804E+03</pdfrwt>
<totfact> 0.10453269E+04</totfact>
</mgrwt>
</event>
<event>
 4    1  0.4510095E+000  0.1991228E+03  0.7546771E-02  0.1150481E+00
         21   -1    0    0  503  502  0.00000000000E+00  0.00000000000E+00  0.80104933990E+02  0.80104933990E+02  0.00000000000E+00 0. -1.
         21   -1    0    0  501  503 -0.00000000000E+00 -0.00000000000E+00 -0.51501417252E+03  0.51501417252E+03  0.00000000000E+00 0. -1.
          6    1    1    2  501    0 -0.25497244105E+02  0.95240666690E+02 -0.15875836660E+03  0.25466470704E+03  0.17300000000E+03 0. -1.
         -6    1    1    2    0  502  0.25497244105E+02 -0.95240666690E+02 -0.27615087193E+03  0.34045439947E+03  0.17300000000E+03 0. -1.
<mgrwt>
<rscale>  2 0.19912281E+03</rscale>
<asrwt>0</asrwt>
<pdfrwt beam="1">  1       21 0.12323836E-01 0.19912281E+03</pdfrwt>
<pdfrwt beam="2">  1       21 0.79232947E-01 0.19912281E+03</pdfrwt>
<totfact> 0.78416059E+04</totfact>
</mgrwt>
</event>
<event>
 4    1  0.4510095E+000  0.1758587E+03  0.7546771E-02  0.1171872E+00
         21   -1    0    0  503  502  0.00000000000E+00  0.00000000000E+00  0.25503057164E+03  0.25503057164E+03  0.00000000000E+00 0.  1.
         21   -1    0    0  501  503 -0.00000000000E+00 -0.00000000000E+00 -0.14658540201E+03  0.14658540201E+03  0.00000000000E+00 0.  1.
          6    1    1    2  501    0  0.31577492391E+02 -0.38291640228E+00 -0.29235965987E+02  0.17827233761E+03  0.17300000000E+03 0.  1.
         -6    1    1    2    0  502 -0.31577492391E+02  0.38291640228E+00  0.13768113562E+03  0.22334363603E+03  0.17300000000E+03 0.  1.
<mgrwt>
<rscale>  2 0.17585871E+03</rscale>
<asrwt>0</asrwt>
<pdfrwt beam="1">  1       21 0.39235473E-01 0.17585871E+03</pdfrwt>
<pdfrwt beam="2">  1       21 0.22551600E-01 0.17585871E+03</pdfrwt>
<totfact> 0.11606739E+05</totfact>
</mgrwt>
</event>
<event>
 4    1  0.4510095E+000  0.2825055E+03  0.7546771E-02  0.1094328E+00
         21   -1    0    0  503  502  0.00000000000E+00  0.00000000000E+00  0.80040030866E+03  0.80040030866E+03  0.00000000000E+00 0.  1.
         21   -1    0    0  501  503 -0.00000000000E+00 -0.00000000000E+00 -0.16223116583E+03  0.16223116583E+03  0.00000000000E+00 0. -1.
          6    1    1    2  501    0  0.11345685669E+03 -0.19237434889E+03  0.20291701423E+02  0.28323329887E+03  0.17300000000E+03 0. -1.
         -6    1    1    2    0  502 -0.11345685669E+03  0.19237434889E+03  0.61787744140E+03  0.67939817562E+03  0.17300000000E+03 0.  1.
<mgrwt>
<rscale>  2 0.28250548E+03</rscale>
<asrwt>0</asrwt>
<pdfrwt beam="1">  1       21 0.12313851E+00 0.28250548E+03</pdfrwt>
<pdfrwt beam="2">  1       21 0.24958641E-01 0.28250548E+03</pdfrwt>
<totfact> 0.71001558E+03</totfact>
</mgrwt>
</event>
<event>
 4    1  0.4510095E+000  0.2199631E+03  0.7546771E-02  0.1133911E+00
         21   -1    0    0  503  502  0.00000000000E+00  0.00000000000E+00  0.57095780671E+03  0.57095780671E+03  0.00000000000E+00 0.  1.
         21   -1    0    0  501  503 -0.00000000000E+00 -0.00000000000E+00 -0.95536778166E+02  0.95536778166E+02  0.00000000000E+00 0.  1.
          6    1    1    2  501    0  0.10450353376E+03 -0.86797320239E+02  0.12568929840E+03  0.25334080426E+03  0.17300000000E+03 0.  1.
         -6    1    1    2    0  502 -0.10450353376E+03  0.86797320239E+02  0.34973173014E+03  0.41315378062E+03  0.17300000000E+03 0.  1.
<mgrwt>
<rscale>  2 0.21996310E+03</rscale>
<asrwt>0</asrwt>
<pdfrwt beam="1">  1       21 0.87839660E-01 0.21996310E+03</pdfrwt>
<pdfrwt beam="2">  1       21 0.14697966E-01 0.21996310E+03</pdfrwt>
<totfact> 0.44616947E+04</totfact>
</mgrwt>
</event>
<event>
 4    1  0.4510095E+000  0.3147389E+03  0.7546771E-02  0.1078096E+00
         21   -1    0    0  501  502  0.00000000000E+00  0.00000000000E+00  0.76939873806E+03  0.76939873806E+03  0.00000000000E+00 0. -1.
         21   -1    0    0  502  503 -0.00000000000E+00 -0.00000000000E+00 -0.19442726583E+03  0.19442726583E+03  0.00000000000E+00 0.  1.
          6    1    1    2  501    0 -0.14754351245E+03  0.21762922961E+03  0.56757439220E+03  0.64900020056E+03  0.17300000000E+03 0. -1.
         -6    1    1    2    0  503  0.14754351245E+03 -0.21762922961E+03  0.73970800283E+01  0.31482580333E+03  0.17300000000E+03 0.  1.
<mgrwt>
<rscale>  2 0.31473889E+03</rscale>
<asrwt>0</asrwt>
<pdfrwt beam="1">  1       21 0.11836904E+00 0.31473889E+03</pdfrwt>
<pdfrwt beam="2">  1       21 0.29911887E-01 0.31473889E+03</pdfrwt>
<totfact> 0.54223450E+03</totfact>
</mgrwt>
</event>
<event>
 4    1  0.4510095E+000  0.2641421E+03  0.7546771E-02  0.1104680E+00
         21   -1    0    0  501  502  0.00000000000E+00  0.00000000000E+00  0.36854416428E+02  0.36854416428E+02  0.00000000000E+00 0. -1.
         21   -1    0    0  502  503 -0.00000000000E+00 -0.00000000000E+00 -0.24854678481E+04  0.24854678481E+04  0.00000000000E+00 0. -1.
          6    1    1    2  501    0  0.11635886885E+03 -0.16218091957E+03 -0.18399695427E+04  0.18588326862E+04  0.17300000000E+03 0. -1.
         -6    1    1    2    0  503 -0.11635886885E+03  0.16218091957E+03 -0.60864388895E+03  0.66348957836E+03  0.17300000000E+03 0. -1.
<mgrwt>
<rscale>  2 0.26414208E+03</rscale>
<asrwt>0</asrwt>
<pdfrwt beam="1">  1       21 0.56699106E-02 0.26414208E+03</pdfrwt>
<pdfrwt beam="2">  1       21 0.38237964E+00 0.26414208E+03</pdfrwt>
<totfact> 0.22282789E+03</totfact>
</mgrwt>
</event>
<event>
 4    1  0.4510095E+000  0.3336818E+03  0.7546771E-02  0.1069519E+00
         21   -1    0    0  503  502  0.00000000000E+00  0.00000000000E+00  0.11837201995E+03  0.11837201995E+03  0.00000000000E+00 0. -1.
         21   -1    0    0  501  503 -0.00000000000E+00 -0.00000000000E+00 -0.94619377303E+03  0.94619377303E+03  0.00000000000E+00 0.  1.
          6    1    1    2  501    0 -0.82493879801E+02 -0.27314699840E+03 -0.37307100422E+03  0.50052522128E+03  0.17300000000E+03 0.  1.
         -6    1    1    2    0  502  0.82493879801E+02  0.27314699840E+03 -0.45475074886E+03  0.56404057171E+03  0.17300000000E+03 0. -1.
<mgrwt>
<rscale>  2 0.33368177E+03</rscale>
<asrwt>0</asrwt>
<pdfrwt beam="1">  1       21 0.18211080E-01 0.33368177E+03</pdfrwt>
<pdfrwt beam="2">  1       21 0.14556827E+00 0.33368177E+03</pdfrwt>
<totfact> 0.81704463E+03</totfact>
</mgrwt>
</event>
<event>
 4    1  0.4510095E+000  0.2467003E+03  0.7546771E-02  0.1115408E+00
         21   -1    0    0  503  502  0.00000000000E+00  0.00000000000E+00  0.10771273651E+03  0.10771273651E+03  0.00000000000E+00 0. -1.
         21   -1    0    0  501  503 -0.00000000000E+00 -0.00000000000E+00 -0.57848002273E+03  0.57848002273E+03  0.00000000000E+00 0. -1.
          6    1    1    2  501    0 -0.13305930497E+03 -0.11500979300E+03 -0.28769764347E+03  0.37898676122E+03  0.17300000000E+03 0. -1.
         -6    1    1    2    0  502  0.13305930497E+03  0.11500979300E+03 -0.18306964276E+03  0.30720599803E+03  0.17300000000E+03 0. -1.
<mgrwt>
<rscale>  2 0.24670029E+03</rscale>
<asrwt>0</asrwt>
<pdfrwt beam="1">  1       21 0.16571190E-01 0.24670029E+03</pdfrwt>
<pdfrwt beam="2">  1       21 0.88996926E-01 0.24670029E+03</pdfrwt>
<totfact> 0.34306048E+04</totfact>
</mgrwt>
</event>
<event>
 4    1  0.4510095E+000  0.1774410E+03  0.7546771E-02  0.1170303E+00
         21   -1    0    0  503  502  0.00000000000E+00  0.00000000000E+00  0.13502393935E+04  0.13502393935E+04  0.00000000000E+00 0.  1.
         21   -1    0    0  501  503 -0.00000000000E+00 -0.00000000000E+00 -0.38835748964E+02  0.38835748964E+02  0.00000000000E+00 0. -1.
          6    1    1    2  501    0 -0.36649748101E+02 -0.14598591594E+02  0.21667637432E+03  0.28006066147E+03  0.17300000000E+03 0. -1.
         -6    1    1    2    0  502  0.36649748101E+02  0.14598591594E+02  0.10947272702E+04  0.11090144810E+04  0.17300000000E+03 0.  1.
<mgrwt>
<rscale>  2 0.17744104E+03</rscale>
<asrwt>0</asrwt>
<pdfrwt beam="1">  1       21 0.20772910E+00 0.17744104E+03</pdfrwt>
<pdfrwt beam="2">  1       21 0.59747316E-02 0.17744104E+03</pdfrwt>
<totfact> 0.24096270E+04</totfact>
</mgrwt>
</event>
<event>
 4    1  0.4510095E+000  0.1828500E+03  0.7546771E-02  0.1165073E+00
         21   -1    0    0  501  502  0.00000000000E+00  0.00000000000E+00  0.75004842073E+02  0.75004842073E+02  0.00000000000E+00 0.  1.
         21   -1    0    0  502  503 -0.00000000000E+00 -0.00000000000E+00 -0.67106078032E+03  0.67106078032E+03  0.00000000000E+00 0.  1.
          6    1    1    2  501    0  0.47818075570E+02 -0.34907594479E+02 -0.81881525860E+02  0.20034643191E+03  0.17300000000E+03 0.  1.
         -6    1    1    2    0  503 -0.47818075570E+02  0.34907594479E+02 -0.51417441239E+03  0.54571919048E+03  0.17300000000E+03 0.  1.
<mgrwt>
<rscale>  2 0.18284996E+03</rscale>
<asrwt>0</asrwt>
<pdfrwt beam="1">  1       21 0.11539207E-01 0.18284996E+03</pdfrwt>
<pdfrwt beam="2">  1       21 0.10324012E+00 0.18284996E+03</pdfrwt>
<totfact> 0.48119545E+04</totfact>
</mgrwt>
</event>
<event>
 4    1  0.4510095E+000  0.1877469E+03  0.7546771E-02  0.1160509E+00
         21   -1    0    0  501  502  0.00000000000E+00  0.00000000000E+00  0.19790805738E+03  0.19790805738E+03  0.00000000000E+00 0. -1.
         21   -1    0    0  502  503 -0.00000000000E+00 -0.00000000000E+00 -0.43850912195E+03  0.43850912195E+03  0.00000000000E+00 0. -1.
          6    1    1    2  501    0  0.68970999562E+02 -0.23725684889E+02  0.12491300115E+03  0.22550424555E+03  0.17300000000E+03 0. -1.
         -6    1    1    2    0  503 -0.68970999562E+02  0.23725684889E+02 -0.36551406572E+03  0.41091293378E+03  0.17300000000E+03 0. -1.
<mgrwt>
<rscale>  2 0.18774692E+03</rscale>
<asrwt>0</asrwt>
<pdfrwt beam="1">  1       21 0.30447394E-01 0.18774692E+03</pdfrwt>
<pdfrwt beam="2">  1       21 0.67462941E-01 0.18774692E+03</pdfrwt>
<totfact> 0.20864533E+04</totfact>
</mgrwt>
</event>
<event>
 4    1  0.4510095E+000  0.2400413E+03  0.7546771E-02  0.1119765E+00
         21   -1    0    0  503  502  0.00000000000E+00  0.00000000000E+00  0.20988712168E+03  0.20988712168E+03  0.00000000000E+00 0.  1.
         21   -1    0    0  501  503 -0.00000000000E+00 -0.00000000000E+00 -0.27794371848E+03  0.27794371848E+03  0.00000000000E+00 0. -1.
          6    1    1    2  501    0 -0.16623521552E+03 -0.75295858603E+01 -0.69876523118E+01  0.24014301744E+03  0.17300000000E+03 0.  1.
         -6    1    1    2    0  502  0.16623521552E+03  0.75295858603E+01 -0.61068944489E+02  0.24768782272E+03  0.17300000000E+03 0. -1.
<mgrwt>
<rscale>  2 0.24004133E+03</rscale>
<asrwt>0</asrwt>
<pdfrwt beam="1">  1       21 0.32290326E-01 0.24004133E+03</pdfrwt>
<pdfrwt beam="2">  1       21 0.42760572E-01 0.24004133E+03</pdfrwt>
<totfact> 0.47493445E+04</totfact>
</mgrwt>
</event>
<event>
 4    1  0.4510095E+000  0.1758543E+03  0.7546771E-02  0.1171877E+00
         21   -1    0    0  501  502  0.00000000000E+00  0.00000000000E+00  0.37881308582E+03  0.37881308582E+03  0.00000000000E+00 0.  1.
         21   -1    0    0  502  503 -0.00000000000E+00 -0.00000000000E+00 -0.17997911607E+03  0.17997911607E+03  0.00000000000E+00 0.  1.
          6    1    1    2  501    0  0.25360289347E+02  0.18776939628E+02  0.30594627813E+03  0.35288502779E+03  0.17300000000E+03 0.  1.
         -6    1    1    2    0  503 -0.25360289347E+02 -0.18776939628E+02 -0.10711230838E+03  0.20590717409E+03  0.17300000000E+03 0.  1.
<mgrwt>
<rscale>  2 0.17585425E+03</rscale>
<asrwt>0</asrwt>
<pdfrwt beam="1">  1       21 0.58278936E-01 0.17585425E+03</pdfrwt>
<pdfrwt beam="2">  1       21 0.27689095E-01 0.17585425E+03</pdfrwt>
<totfact> 0.34639351E+04</totfact>
</mgrwt>
</event>
<event>
 4    1  0.4510095E+000  0.2529936E+03  0.7546771E-02  0.1111427E+00
         21   -1    0    0  503  502  0.00000000000E+00  0.00000000000E+00  0.52080192440E+03  0.52080192440E+03  0.00000000000E+00 0. -1.
         21   -1    0    0  501  503 -0.00000000000E+00 -0.00000000000E+00 -0.49492600875E+03  0.49492600875E+03  0.00000000000E+00 0. -1.
          6    1    1    2  501    0  0.11966768452E+03  0.14055747065E+03 -0.42737838906E+03  0.49664680076E+03  0.17300000000E+03 0. -1.
         -6    1    1    2    0  502 -0.11966768452E+03 -0.14055747065E+03  0.45325430471E+03  0.51908113240E+03  0.17300000000E+03 0. -1.
<mgrwt>
<rscale>  2 0.25299359E+03</rscale>
<asrwt>0</asrwt>
<pdfrwt beam="1">  1       21 0.80123373E-01 0.25299359E+03</pdfrwt>
<pdfrwt beam="2">  1       21 0.76142463E-01 0.25299359E+03</pdfrwt>
<totfact> 0.20068438E+03</totfact>
</mgrwt>
</event>
<event>
 4    1  0.4510095E+000  0.2131837E+03  0.7546771E-02  0.1139069E+00
         21   -1    0    0  501  502  0.00000000000E+00  0.00000000000E+00  0.82084781903E+03  0.82084781903E+03  0.00000000000E+00 0.  1.
         21   -1    0    0  502  503 -0.00000000000E+00 -0.00000000000E+00 -0.14513269056E+03  0.14513269056E+03  0.00000000000E+00 0. -1.
          6    1    1    2  501    0  0.11618480472E+03 -0.44937603767E+02  0.71770802223E+03  0.74870027531E+03  0.17300000000E+03 0.  1.
         -6    1    1    2    0  503 -0.11618480472E+03  0.44937603767E+02 -0.41992893764E+02  0.21728023428E+03  0.17300000000E+03 0. -1.
<mgrwt>
<rscale>  2 0.21318372E+03</rscale>
<asrwt>0</asrwt>
<pdfrwt beam="1">  1       21 0.12628428E+00 0.21318372E+03</pdfrwt>
<pdfrwt beam="2">  1       21 0.22328107E-01 0.21318372E+03</pdfrwt>
<totfact> 0.85980044E+03</totfact>
</mgrwt>
</event>
<event>
 4    1  0.4510095E+000  0.1973942E+03  0.7546771E-02  0.1151956E+00
         21   -1    0    0  503  502  0.00000000000E+00  0.00000000000E+00  0.13882840652E+03  0.13882840652E+03  0.00000000000E+00 0. -1.
         21   -1    0    0  501  503 -0.00000000000E+00 -0.00000000000E+00 -0.31389564988E+03  0.31389564988E+03  0.00000000000E+00 0. -1.
          6    1    1    2  501    0 -0.16624326200E+02  0.93589972565E+02 -0.16118350088E+03  0.25484224952E+03  0.17300000000E+03 0. -1.
         -6    1    1    2    0  502  0.16624326200E+02 -0.93589972565E+02 -0.13883742483E+02  0.19788180687E+03  0.17300000000E+03 0. -1.
<mgrwt>
<rscale>  2 0.19739415E+03</rscale>
<asrwt>0</asrwt>
<pdfrwt beam="1">  1       21 0.21358217E-01 0.19739415E+03</pdfrwt>
<pdfrwt beam="2">  1       21 0.48291638E-01 0.19739415E+03</pdfrwt>
<totfact> 0.83431905E+04</totfact>
</mgrwt>
</event>
<event>
 4    1  0.4510095E+000  0.2353818E+03  0.7546771E-02  0.1122908E+00
         21   -1    0    0  503  502  0.00000000000E+00  0.00000000000E+00  0.13009717521E+04  0.13009717521E+04  0.00000000000E+00 0.  1.
         21   -1    0    0  501  503 -0.00000000000E+00 -0.00000000000E+00 -0.48333814386E+02  0.48333814386E+02  0.00000000000E+00 0. -1.
          6    1    1    2  501    0 -0.82221000884E+02  0.13680388383E+03  0.39368928801E+03  0.45868927512E+03  0.17300000000E+03 0. -1.
         -6    1    1    2    0  502  0.82221000884E+02 -0.13680388383E+03  0.85894864972E+03  0.89061629138E+03  0.17300000000E+03 0.  1.
<mgrwt>
<rscale>  2 0.23538181E+03</rscale>
<asrwt>0</asrwt>
<pdfrwt beam="1">  1       21 0.20014947E+00 0.23538181E+03</pdfrwt>
<pdfrwt beam="2">  1       21 0.74359724E-02 0.23538181E+03</pdfrwt>
<totfact> 0.17697883E+04</totfact>
</mgrwt>
</event>
<event>
 4    1  0.4510095E+000  0.1897249E+03  0.7546771E-02  0.1158710E+00
         21   -1    0    0  501  502  0.00000000000E+00  0.00000000000E+00  0.98538912355E+03  0.98538912355E+03  0.00000000000E+00 0. -1.
         21   -1    0    0  502  503 -0.00000000000E+00 -0.00000000000E+00 -0.38983489153E+02  0.38983489153E+02  0.00000000000E+00 0. -1.
          6    1    1    2  501    0  0.16840551063E+02  0.76045659964E+02  0.60171496185E+03  0.63091714343E+03  0.17300000000E+03 0. -1.
         -6    1    1    2    0  503 -0.16840551063E+02 -0.76045659964E+02  0.34469067255E+03  0.39345546927E+03  0.17300000000E+03 0. -1.
<mgrwt>
<rscale>  2 0.18972492E+03</rscale>
<asrwt>0</asrwt>
<pdfrwt beam="1">  1       21 0.15159831E+00 0.18972492E+03</pdfrwt>
<pdfrwt beam="2">  1       21 0.59974606E-02 0.18972492E+03</pdfrwt>
<totfact> 0.57446660E+04</totfact>
</mgrwt>
</event>
<event>
 4    1  0.4510095E+000  0.2424220E+03  0.7546771E-02  0.1118190E+00
         21   -1    0    0  503  502  0.00000000000E+00  0.00000000000E+00  0.72208364741E+02  0.72208364741E+02  0.00000000000E+00 0.  1.
         21   -1    0    0  501  503 -0.00000000000E+00 -0.00000000000E+00 -0.11013617191E+04  0.11013617191E+04  0.00000000000E+00 0. -1.
          6    1    1    2  501    0 -0.15713030740E+03  0.64416612644E+02 -0.81437175729E+03  0.84968805603E+03  0.17300000000E+03 0. -1.
         -6    1    1    2    0  502  0.15713030740E+03 -0.64416612644E+02 -0.21478159702E+03  0.32388202776E+03  0.17300000000E+03 0.  1.
<mgrwt>
<rscale>  2 0.24242202E+03</rscale>
<asrwt>0</asrwt>
<pdfrwt beam="1">  1       21 0.11108979E-01 0.24242202E+03</pdfrwt>
<pdfrwt beam="2">  1       21 0.16944026E+00 0.24242202E+03</pdfrwt>
<totfact> 0.14013719E+04</totfact>
</mgrwt>
</event>
<event>
 4    1  0.4510095E+000  0.1994002E+03  0.7546771E-02  0.1150246E+00
         21   -1    0    0  503  502  0.00000000000E+00  0.00000000000E+00  0.35223406846E+03  0.35223406846E+03  0.00000000000E+00 0. -1.
         21   -1    0    0  501  503 -0.00000000000E+00 -0.00000000000E+00 -0.66114822105E+03  0.66114822105E+03  0.00000000000E+00 0. -1.
          6    1    1    2  501    0 -0.94836323764E+02 -0.28939505634E+02 -0.61587043371E+03  0.64734597737E+03  0.17300000000E+03 0. -1.
         -6    1    1    2    0  502  0.94836323764E+02  0.28939505634E+02  0.30695628112E+03  0.36603631214E+03  0.17300000000E+03 0. -1.
<mgrwt>
<rscale>  2 0.19940016E+03</rscale>
<asrwt>0</asrwt>
<pdfrwt beam="1">  1       21 0.54189857E-01 0.19940016E+03</pdfrwt>
<pdfrwt beam="2">  1       21 0.10171511E+00 0.19940016E+03</pdfrwt>
<totfact> 0.25223895E+03</totfact>
</mgrwt>
</event>
<event>
 4    1  0.4510095E+000  0.3310110E+03  0.7546771E-02  0.1070690E+00
         21   -1    0    0  503  502  0.00000000000E+00  0.00000000000E+00  0.28993138065E+03  0.28993138065E+03  0.00000000000E+00 0.  1.
         21   -1    0    0  501  503 -0.00000000000E+00 -0.00000000000E+00 -0.46631759528E+03  0.46631759528E+03  0.00000000000E+00 0.  1.
          6    1    1    2  501    0  0.20274468127E+03 -0.19630045407E+03 -0.25283338850E+03  0.41652490489E+03  0.17300000000E+03 0.  1.
         -6    1    1    2    0  502 -0.20274468127E+03  0.19630045407E+03  0.76447173878E+02  0.33972407104E+03  0.17300000000E+03 0.  1.
<mgrwt>
<rscale>  2 0.33101099E+03</rscale>
<asrwt>0</asrwt>
<pdfrwt beam="1">  1       21 0.44604829E-01 0.33101099E+03</pdfrwt>
<pdfrwt beam="2">  1       21 0.71741167E-01 0.33101099E+03</pdfrwt>
<totfact> 0.78414096E+03</totfact>
</mgrwt>
</event>
<event>
 4    1  0.4510095E+000  0.2285526E+03  0.7546771E-02  0.1127663E+00
         21   -1    0    0  501  502  0.00000000000E+00  0.00000000000E+00  0.48923335197E+03  0.48923335197E+03  0.00000000000E+00 0. -1.
         21   -1    0    0  502  503 -0.00000000000E+00 -0.00000000000E+00 -0.11766193555E+03  0.11766193555E+03  0.00000000000E+00 0. -1.
          6    1    1    2  501    0 -0.10496518280E+03  0.10625263093E+03  0.27810298953E+03  0.35996886528E+03  0.17300000000E+03 0. -1.
         -6    1    1    2    0  503  0.10496518280E+03 -0.10625263093E+03  0.93468426886E+02  0.24692642225E+03  0.17300000000E+03 0. -1.
<mgrwt>
<rscale>  2 0.22855264E+03</rscale>
<asrwt>0</asrwt>
<pdfrwt beam="1">  1       21 0.75266668E-01 0.22855264E+03</pdfrwt>
<pdfrwt beam="2">  1       21 0.18101837E-01 0.22855264E+03</pdfrwt>
<totfact> 0.43059964E+04</totfact>
</mgrwt>
</event>
<event>
 4    1  0.4510095E+000  0.1739693E+03  0.7546771E-02  0.1173771E+00
         21   -1    0    0  503  502  0.00000000000E+00  0.00000000000E+00  0.89955901353E+02  0.89955901353E+02  0.00000000000E+00 0.  1.
         21   -1    0    0  501  503 -0.00000000000E+00 -0.00000000000E+00 -0.33671311094E+03  0.33671311094E+03  0.00000000000E+00 0.  1.
          6    1    1    2  501    0  0.17840724671E+02  0.42472903745E+01 -0.12938378495E+03  0.21680750619E+03  0.17300000000E+03 0.  1.
         -6    1    1    2    0  502 -0.17840724671E+02 -0.42472903745E+01 -0.11737342464E+03  0.20986150610E+03  0.17300000000E+03 0.  1.
<mgrwt>
<rscale>  2 0.17396934E+03</rscale>
<asrwt>0</asrwt>
<pdfrwt beam="1">  1       21 0.13839370E-01 0.17396934E+03</pdfrwt>
<pdfrwt beam="2">  1       21 0.51802017E-01 0.17396934E+03</pdfrwt>
<totfact> 0.16162417E+05</totfact>
</mgrwt>
</event>
<event>
 4    1  0.4510095E+000  0.1835010E+03  0.7546771E-02  0.1164457E+00
         21   -1    0    0  501  502  0.00000000000E+00  0.00000000000E+00  0.33700670750E+03  0.33700670750E+03  0.00000000000E+00 0. -1.
         21   -1    0    0  502  503 -0.00000000000E+00 -0.00000000000E+00 -0.10011590698E+03  0.10011590698E+03  0.00000000000E+00 0. -1.
          6    1    1    2  501    0  0.60268726801E+02 -0.10550275020E+02  0.12819256070E+03  0.22384360691E+03  0.17300000000E+03 0.  1.
         -6    1    1    2    0  503 -0.60268726801E+02  0.10550275020E+02  0.10869823981E+03  0.21327900757E+03  0.17300000000E+03 0.  1.
<mgrwt>
<rscale>  2 0.18350103E+03</rscale>
<asrwt>0</asrwt>
<pdfrwt beam="1">  1       21 0.51847185E-01 0.18350103E+03</pdfrwt>
<pdfrwt beam="2">  1       21 0.15402447E-01 0.18350103E+03</pdfrwt>
<totfact> 0.13244301E+05</totfact>
</mgrwt>
</event>
<event>
 4    1  0.4510095E+000  0.2080418E+03  0.7546771E-02  0.1143126E+00
         21   -1    0    0  503  502  0.00000000000E+00  0.00000000000E+00  0.80547760818E+03  0.80547760818E+03  0.00000000000E+00 0.  1.
         21   -1    0    0  501  503 -0.00000000000E+00 -0.00000000000E+00 -0.60295317180E+02  0.60295317180E+02  0.00000000000E+00 0. -1.
          6    1    1    2  501    0 -0.35442530872E+02 -0.10998288714E+03  0.22978960955E+03  0.30997527823E+03  0.17300000000E+03 0. -1.
         -6    1    1    2    0  502  0.35442530872E+02  0.10998288714E+03  0.51539268146E+03  0.55579764713E+03  0.17300000000E+03 0.  1.
<mgrwt>
<rscale>  2 0.20804184E+03</rscale>
<asrwt>0</asrwt>
<pdfrwt beam="1">  1       21 0.12391962E+00 0.20804184E+03</pdfrwt>
<pdfrwt beam="2">  1       21 0.92762032E-02 0.20804184E+03</pdfrwt>
<totfact> 0.44780767E+04</totfact>
</mgrwt>
</event>
<event>
 4    1  0.4510095E+000  0.1810895E+03  0.7546771E-02  0.1166753E+00
         21   -1    0    0  503  502  0.00000000000E+00  0.00000000000E+00  0.12526606025E+04  0.12526606025E+04  0.00000000000E+00 0. -1.
         21   -1    0    0  501  503 -0.00000000000E+00 -0.00000000000E+00 -0.43427903533E+02  0.43427903533E+02  0.00000000000E+00 0. -1.
          6    1    1    2  501    0  0.26658035181E+02 -0.46408419355E+02  0.19620192204E+03  0.26699922554E+03  0.17300000000E+03 0. -1.
         -6    1    1    2    0  502 -0.26658035181E+02  0.46408419355E+02  0.10130307769E+04  0.10290892805E+04  0.17300000000E+03 0. -1.
<mgrwt>
<rscale>  2 0.18108946E+03</rscale>
<asrwt>0</asrwt>
<pdfrwt beam="1">  1       21 0.19271699E+00 0.18108946E+03</pdfrwt>
<pdfrwt beam="2">  1       21 0.66812169E-02 0.18108946E+03</pdfrwt>
<totfact> 0.24746638E+04</totfact>
</mgrwt>
</event>
<event>
 4    1  0.4510095E+000  0.1943215E+03  0.7546771E-02  0.1154620E+00
         21   -1    0    0  503  502  0.00000000000E+00  0.00000000000E+00  0.12083340985E+04  0.12083340985E+04  0.00000000000E+00 0. -1.
         21   -1    0    0  501  503 -0.00000000000E+00 -0.00000000000E+00 -0.88110077732E+02  0.88110077732E+02  0.00000000000E+00 0. -1.
          6    1    1    2  501    0 -0.62148803855E+02 -0.63002798793E+02  0.39380883933E+02  0.19827173398E+03  0.17300000000E+03 0. -1.
         -6    1    1    2    0  502  0.62148803855E+02  0.63002798793E+02  0.10808431369E+04  0.10981724423E+04  0.17300000000E+03 0. -1.
<mgrwt>
<rscale>  2 0.19432145E+03</rscale>
<asrwt>0</asrwt>
<pdfrwt beam="1">  1       21 0.18589754E+00 0.19432145E+03</pdfrwt>
<pdfrwt beam="2">  1       21 0.13555397E-01 0.19432145E+03</pdfrwt>
<totfact> 0.78161946E+03</totfact>
</mgrwt>
</event>
<event>
 4    1  0.4510095E+000  0.2501308E+03  0.7546771E-02  0.1113222E+00
         21   -1    0    0  503  502  0.00000000000E+00  0.00000000000E+00  0.11509533366E+03  0.11509533366E+03  0.00000000000E+00 0. -1.
         21   -1    0    0  501  503 -0.00000000000E+00 -0.00000000000E+00 -0.65100160551E+03  0.65100160551E+03  0.00000000000E+00 0. -1.
          6    1    1    2  501    0  0.70663962407E+02  0.16626194551E+03 -0.42354074132E+03  0.49188635849E+03  0.17300000000E+03 0. -1.
         -6    1    1    2    0  502 -0.70663962407E+02 -0.16626194551E+03 -0.11236553052E+03  0.27421058068E+03  0.17300000000E+03 0. -1.
<mgrwt>
<rscale>  2 0.25013083E+03</rscale>
<asrwt>0</asrwt>
<pdfrwt beam="1">  1       21 0.17706974E-01 0.25013083E+03</pdfrwt>
<pdfrwt beam="2">  1       21 0.10015409E+00 0.25013083E+03</pdfrwt>
<totfact> 0.22936570E+04</totfact>
</mgrwt>
</event>
<event>
 4    1  0.4510095E+000  0.1816310E+03  0.7546771E-02  0.1166234E+00
         21   -1    0    0  503  502  0.00000000000E+00  0.00000000000E+00  0.74655699032E+03  0.74655699032E+03  0.00000000000E+00 0.  1.
         21   -1    0    0  501  503 -0.00000000000E+00 -0.00000000000E+00 -0.44292542870E+02  0.44292542870E+02  0.00000000000E+00 0.  1.
          6    1    1    2  501    0 -0.21039921612E+02  0.51167918821E+02  0.37022279823E+03  0.41237695685E+03  0.17300000000E+03 0.  1.
         -6    1    1    2    0  502  0.21039921612E+02 -0.51167918821E+02  0.33204164922E+03  0.37847257633E+03  0.17300000000E+03 0.  1.
<mgrwt>
<rscale>  2 0.18163104E+03</rscale>
<asrwt>0</asrwt>
<pdfrwt beam="1">  1       21 0.11485491E+00 0.18163104E+03</pdfrwt>
<pdfrwt beam="2">  1       21 0.68142379E-02 0.18163104E+03</pdfrwt>
<totfact> 0.93628016E+04</totfact>
</mgrwt>
</event>
<event>
 4    1  0.4510095E+000  0.1796598E+03  0.7546771E-02  0.1168133E+00
         21   -1    0    0  501  502  0.00000000000E+00  0.00000000000E+00  0.17390407979E+03  0.17390407979E+03  0.00000000000E+00 0.  1.
         21   -1    0    0  502  503 -0.00000000000E+00 -0.00000000000E+00 -0.35292719874E+03  0.35292719874E+03  0.00000000000E+00 0.  1.
          6    1    1    2  501    0 -0.39119266660E+02  0.28606464637E+02  0.91862188997E+02  0.20178282536E+03  0.17300000000E+03 0.  1.
         -6    1    1    2    0  503  0.39119266660E+02 -0.28606464637E+02 -0.27088530795E+03  0.32504845317E+03  0.17300000000E+03 0.  1.
<mgrwt>
<rscale>  2 0.17965981E+03</rscale>
<asrwt>0</asrwt>
<pdfrwt beam="1">  1       21 0.26754474E-01 0.17965981E+03</pdfrwt>
<pdfrwt beam="2">  1       21 0.54296491E-01 0.17965981E+03</pdfrwt>
<totfact> 0.42906551E+04</totfact>
</mgrwt>
</event>
<event>
 4    1  0.4510095E+000  0.2006119E+03  0.7546771E-02  0.1149224E+00
         21   -1    0    0  503  502  0.00000000000E+00  0.00000000000E+00  0.59154556076E+03  0.59154556076E+03  0.00000000000E+00 0. -1.
         21   -1    0    0  501  503 -0.00000000000E+00 -0.00000000000E+00 -0.89918170731E+02  0.89918170731E+02  0.00000000000E+00 0.  1.
          6    1    1    2  501    0  0.68955307748E+02 -0.74574095348E+02  0.82718454272E+02  0.21699648117E+03  0.17300000000E+03 0. -1.
         -6    1    1    2    0  502 -0.68955307748E+02  0.74574095348E+02  0.41890893576E+03  0.46446725032E+03  0.17300000000E+03 0. -1.
<mgrwt>
<rscale>  2 0.20061189E+03</rscale>
<asrwt>0</asrwt>
<pdfrwt beam="1">  1       21 0.91007007E-01 0.20061189E+03</pdfrwt>
<pdfrwt beam="2">  1       21 0.13833565E-01 0.20061189E+03</pdfrwt>
<totfact> 0.46329787E+04</totfact>
</mgrwt>
</event>
<event>
 4    1  0.4510095E+000  0.1939399E+03  0.7546771E-02  0.1154955E+00
         21   -1    0    0  501  502  0.00000000000E+00  0.00000000000E+00  0.93831428344E+02  0.93831428344E+02  0.00000000000E+00 0.  1.
         21   -1    0    0  502  503 -0.00000000000E+00 -0.00000000000E+00 -0.53310847129E+03  0.53310847129E+03  0.00000000000E+00 0.  1.
          6    1    1    2  501    0 -0.81885592688E+02  0.31279714000E+02 -0.63505819877E+02  0.20407268302E+03  0.17300000000E+03 0.  1.
         -6    1    1    2    0  503  0.81885592688E+02 -0.31279714000E+02 -0.37577122307E+03  0.42286721661E+03  0.17300000000E+03 0.  1.
<mgrwt>
<rscale>  2 0.19393986E+03</rscale>
<asrwt>0</asrwt>
<pdfrwt beam="1">  1       21 0.14435605E-01 0.19393986E+03</pdfrwt>
<pdfrwt beam="2">  1       21 0.82016684E-01 0.19393986E+03</pdfrwt>
<totfact> 0.54645202E+04</totfact>
</mgrwt>
</event>
<event>
 4    1  0.4510095E+000  0.1802703E+03  0.7546771E-02  0.1167542E+00
         21   -1    0    0  501  502  0.00000000000E+00  0.00000000000E+00  0.58391490899E+02  0.58391490899E+02  0.00000000000E+00 0.  1.
         21   -1    0    0  502  503 -0.00000000000E+00 -0.00000000000E+00 -0.64315113497E+03  0.64315113497E+03  0.00000000000E+00 0.  1.
          6    1    1    2  501    0 -0.27708174785E+02 -0.42434057772E+02 -0.42109986463E+03  0.45806384730E+03  0.17300000000E+03 0.  1.
         -6    1    1    2    0  503  0.27708174785E+02  0.42434057772E+02 -0.16365977945E+03  0.24347877858E+03  0.17300000000E+03 0.  1.
<mgrwt>
<rscale>  2 0.18027033E+03</rscale>
<asrwt>0</asrwt>
<pdfrwt beam="1">  1       21 0.89833064E-02 0.18027033E+03</pdfrwt>
<pdfrwt beam="2">  1       21 0.98946327E-01 0.18027033E+03</pdfrwt>
<totfact> 0.82941332E+04</totfact>
</mgrwt>
</event>
<event>
 4    1  0.4510095E+000  0.1844109E+03  0.7546771E-02  0.1163601E+00
         21   -1    0    0  501  502  0.00000000000E+00  0.00000000000E+00  0.18184868654E+03  0.18184868654E+03  0.00000000000E+00 0.  1.
         21   -1    0    0  502  503 -0.00000000000E+00 -0.00000000000E+00 -0.27031086819E+03  0.27031086819E+03  0.00000000000E+00 0. -1.
          6    1    1    2  501    0  0.34988056312E+01  0.63766146987E+02  0.81272749950E+02  0.20152573788E+03  0.17300000000E+03 0.  1.
         -6    1    1    2    0  503 -0.34988056312E+01 -0.63766146987E+02 -0.16973493160E+03  0.25063381685E+03  0.17300000000E+03 0. -1.
<mgrwt>
<rscale>  2 0.18441085E+03</rscale>
<asrwt>0</asrwt>
<pdfrwt beam="1">  1       21 0.27976721E-01 0.18441085E+03</pdfrwt>
<pdfrwt beam="2">  1       21 0.41586287E-01 0.18441085E+03</pdfrwt>
<totfact> 0.68175121E+04</totfact>
</mgrwt>
</event>
<event>
 4    1  0.4510095E+000  0.1889837E+03  0.7546771E-02  0.1159381E+00
         21   -1    0    0  501  502  0.00000000000E+00  0.00000000000E+00  0.36806115777E+03  0.36806115777E+03  0.00000000000E+00 0.  1.
         21   -1    0    0  502  503 -0.00000000000E+00 -0.00000000000E+00 -0.10938068806E+03  0.10938068806E+03  0.00000000000E+00 0. -1.
          6    1    1    2  501    0 -0.13886860716E+02 -0.74786197875E+02  0.20954081863E+03  0.28217401540E+03  0.17300000000E+03 0. -1.
         -6    1    1    2    0  503  0.13886860716E+02  0.74786197875E+02  0.49139651071E+02  0.19526783043E+03  0.17300000000E+03 0. -1.
<mgrwt>
<rscale>  2 0.18898365E+03</rscale>
<asrwt>0</asrwt>
<pdfrwt beam="1">  1       21 0.56624793E-01 0.18898365E+03</pdfrwt>
<pdfrwt beam="2">  1       21 0.16827798E-01 0.18898365E+03</pdfrwt>
<totfact> 0.93347009E+04</totfact>
</mgrwt>
</event>
<event>
 4    1  0.4510095E+000  0.1919563E+03  0.7546771E-02  0.1156709E+00
         21   -1    0    0  503  502  0.00000000000E+00  0.00000000000E+00  0.46507757693E+03  0.46507757693E+03  0.00000000000E+00 0. -1.
         21   -1    0    0  501  503 -0.00000000000E+00 -0.00000000000E+00 -0.11821623920E+03  0.11821623920E+03  0.00000000000E+00 0. -1.
          6    1    1    2  501    0 -0.28698811059E+02  0.78067992555E+02  0.59422370989E+01  0.19204828403E+03  0.17300000000E+03 0. -1.
         -6    1    1    2    0  502  0.28698811059E+02 -0.78067992555E+02  0.34091910063E+03  0.39124553211E+03  0.17300000000E+03 0. -1.
<mgrwt>
<rscale>  2 0.19195633E+03</rscale>
<asrwt>0</asrwt>
<pdfrwt beam="1">  1       21 0.71550395E-01 0.19195633E+03</pdfrwt>
<pdfrwt beam="2">  1       21 0.18187114E-01 0.19195633E+03</pdfrwt>
<totfact> 0.48643663E+04</totfact>
</mgrwt>
</event>
<event>
 4    1  0.4510095E+000  0.2026688E+03  0.7546771E-02  0.1147507E+00
         21   -1    0    0  503  502  0.00000000000E+00  0.00000000000E+00  0.10384746584E+03  0.10384746584E+03  0.00000000000E+00 0. -1.
         21   -1    0    0  501  503 -0.00000000000E+00 -0.00000000000E+00 -0.41508586132E+03  0.41508586132E+03  0.00000000000E+00 0. -1.
          6    1    1    2  501    0  0.79612185036E+02  0.69336367121E+02 -0.21193986467E+03  0.29324586621E+03  0.17300000000E+03 0. -1.
         -6    1    1    2    0  502 -0.79612185036E+02 -0.69336367121E+02 -0.99298530813E+02  0.22568746096E+03  0.17300000000E+03 0. -1.
<mgrwt>
<rscale>  2 0.20266877E+03</rscale>
<asrwt>0</asrwt>
<pdfrwt beam="1">  1       21 0.15976534E-01 0.20266877E+03</pdfrwt>
<pdfrwt beam="2">  1       21 0.63859362E-01 0.20266877E+03</pdfrwt>
<totfact> 0.78840981E+04</totfact>
</mgrwt>
</event>
<event>
 4    1  0.4510095E+000  0.2292862E+03  0.7546771E-02  0.1127143E+00
         21   -1    0    0  503  502  0.00000000000E+00  0.00000000000E+00  0.28119317982E+03  0.28119317982E+03  0.00000000000E+00 0.  1.
         21   -1    0    0  501  503 -0.00000000000E+00 -0.00000000000E+00 -0.23158191319E+03  0.23158191319E+03  0.00000000000E+00 0.  1.
          6    1    1    2  501    0  0.14644785188E+03 -0.34585733903E+02 -0.87736213749E+02  0.24549906214E+03  0.17300000000E+03 0.  1.
         -6    1    1    2    0  502 -0.14644785188E+03  0.34585733903E+02  0.13734748038E+03  0.26727603087E+03  0.17300000000E+03 0.  1.
<mgrwt>
<rscale>  2 0.22928617E+03</rscale>
<asrwt>0</asrwt>
<pdfrwt beam="1">  1       21 0.43260489E-01 0.22928617E+03</pdfrwt>
<pdfrwt beam="2">  1       21 0.35627987E-01 0.22928617E+03</pdfrwt>
<totfact> 0.38321225E+04</totfact>
</mgrwt>
</event>
<event>
 4    1  0.4510095E+000  0.3013443E+03  0.7546771E-02  0.1084571E+00
         21   -1    0    0  501  502  0.00000000000E+00  0.00000000000E+00  0.64086156082E+02  0.64086156082E+02  0.00000000000E+00 0. -1.
         21   -1    0    0  502  503 -0.00000000000E+00 -0.00000000000E+00 -0.17039472645E+04  0.17039472645E+04  0.00000000000E+00 0.  1.
          6    1    1    2  501    0  0.11418962348E+03 -0.21872386216E+03 -0.45714219596E+03  0.54752843334E+03  0.17300000000E+03 0. -1.
         -6    1    1    2    0  503 -0.11418962348E+03  0.21872386216E+03 -0.11827189124E+04  0.12205049872E+04  0.17300000000E+03 0.  1.
<mgrwt>
<rscale>  2 0.30134432E+03</rscale>
<asrwt>0</asrwt>
<pdfrwt beam="1">  1       21 0.98594100E-02 0.30134432E+03</pdfrwt>
<pdfrwt beam="2">  1       21 0.26214570E+00 0.30134432E+03</pdfrwt>
<totfact> 0.42766322E+03</totfact>
</mgrwt>
</event>
<event>
 4    1  0.4510095E+000  0.1932187E+03  0.7546771E-02  0.1155590E+00
         21   -1    0    0  501  502  0.00000000000E+00  0.00000000000E+00  0.43488592126E+03  0.43488592126E+03  0.00000000000E+00 0.  1.
         21   -1    0    0  502  503 -0.00000000000E+00 -0.00000000000E+00 -0.72852305904E+03  0.72852305904E+03  0.00000000000E+00 0.  1.
          6    1    1    2  501    0  0.58676025243E+02 -0.62941181753E+02  0.39953900551E+03  0.44380726134E+03  0.17300000000E+03 0.  1.
         -6    1    1    2    0  503 -0.58676025243E+02  0.62941181753E+02 -0.69317614329E+03  0.71960171895E+03  0.17300000000E+03 0.  1.
<mgrwt>
<rscale>  2 0.19321871E+03</rscale>
<asrwt>0</asrwt>
<pdfrwt beam="1">  1       21 0.66905527E-01 0.19321871E+03</pdfrwt>
<pdfrwt beam="2">  1       21 0.11208047E+00 0.19321871E+03</pdfrwt>
<totfact> 0.12764998E+03</totfact>
</mgrwt>
</event>
<event>
 4    1  0.4510095E+000  0.2129453E+03  0.7546771E-02  0.1139255E+00
         21   -1    0    0  501  502  0.00000000000E+00  0.00000000000E+00  0.93985677171E+02  0.93985677171E+02  0.00000000000E+00 0.  1.
         21   -1    0    0  502  503 -0.00000000000E+00 -0.00000000000E+00 -0.57329173524E+03  0.57329173524E+03  0.00000000000E+00 0.  1.
          6    1    1    2  501    0 -0.86758751203E+02 -0.88823626349E+02 -0.10686097381E+03  0.23825403508E+03  0.17300000000E+03 0.  1.
         -6    1    1    2    0  503  0.86758751203E+02  0.88823626349E+02 -0.37244508426E+03  0.42902337733E+03  0.17300000000E+03 0.  1.
<mgrwt>
<rscale>  2 0.21294534E+03</rscale>
<asrwt>0</asrwt>
<pdfrwt beam="1">  1       21 0.14459335E-01 0.21294534E+03</pdfrwt>
<pdfrwt beam="2">  1       21 0.88198729E-01 0.21294534E+03</pdfrwt>
<totfact> 0.45690511E+04</totfact>
</mgrwt>
</event>
<event>
 4    1  0.4510095E+000  0.2425989E+03  0.7546771E-02  0.1118074E+00
         21   -1    0    0  501  502  0.00000000000E+00  0.00000000000E+00  0.10262423494E+04  0.10262423494E+04  0.00000000000E+00 0.  1.
         21   -1    0    0  502  503 -0.00000000000E+00 -0.00000000000E+00 -0.57576620720E+02  0.57576620720E+02  0.00000000000E+00 0. -1.
          6    1    1    2  501    0  0.98469601163E+02  0.13866848751E+03  0.51838834464E+03  0.57234664989E+03  0.17300000000E+03 0.  1.
         -6    1    1    2    0  503 -0.98469601163E+02 -0.13866848751E+03  0.45027738404E+03  0.51147232023E+03  0.17300000000E+03 0. -1.
<mgrwt>
<rscale>  2 0.24259887E+03</rscale>
<asrwt>0</asrwt>
<pdfrwt beam="1">  1       21 0.15788342E+00 0.24259887E+03</pdfrwt>
<pdfrwt beam="2">  1       21 0.88579424E-02 0.24259887E+03</pdfrwt>
<totfact> 0.25421911E+04</totfact>
</mgrwt>
</event>
<event>
 4    1  0.4510095E+000  0.2154626E+03  0.7546771E-02  0.1137312E+00
         21   -1    0    0  501  502  0.00000000000E+00  0.00000000000E+00  0.10126695584E+04  0.10126695584E+04  0.00000000000E+00 0. -1.
         21   -1    0    0  502  503 -0.00000000000E+00 -0.00000000000E+00 -0.30881553893E+03  0.30881553893E+03  0.00000000000E+00 0.  1.
          6    1    1    2  501    0  0.10917621583E+03  0.67643828877E+02  0.96165711383E+03  0.98549913154E+03  0.17300000000E+03 0. -1.
         -6    1    1    2    0  503 -0.10917621583E+03 -0.67643828877E+02 -0.25780309441E+03  0.33598596574E+03  0.17300000000E+03 0.  1.
<mgrwt>
<rscale>  2 0.21546260E+03</rscale>
<asrwt>0</asrwt>
<pdfrwt beam="1">  1       21 0.15579532E+00 0.21546260E+03</pdfrwt>
<pdfrwt beam="2">  1       21 0.47510083E-01 0.21546260E+03</pdfrwt>
<totfact> 0.11195726E+03</totfact>
</mgrwt>
</event>
<event>
 4    1  0.4510095E+000  0.1816403E+03  0.7546771E-02  0.1166225E+00
         21   -1    0    0  501  502  0.00000000000E+00  0.00000000000E+00  0.16527894812E+03  0.16527894812E+03  0.00000000000E+00 0. -1.
         21   -1    0    0  502  503 -0.00000000000E+00 -0.00000000000E+00 -0.33651921886E+03  0.33651921886E+03  0.00000000000E+00 0. -1.
          6    1    1    2  501    0 -0.41669283816E+02  0.36439839357E+02  0.74406632110E+02  0.19628942409E+03  0.17300000000E+03 0. -1.
         -6    1    1    2    0  503  0.41669283816E+02 -0.36439839357E+02 -0.24564690284E+03  0.30550874289E+03  0.17300000000E+03 0. -1.
<mgrwt>
<rscale>  2 0.18164028E+03</rscale>
<asrwt>0</asrwt>
<pdfrwt beam="1">  1       21 0.25427531E-01 0.18164028E+03</pdfrwt>
<pdfrwt beam="2">  1       21 0.51772187E-01 0.18164028E+03</pdfrwt>
<totfact> 0.52218056E+04</totfact>
</mgrwt>
</event>
<event>
 4    1  0.4510095E+000  0.1986399E+03  0.7546771E-02  0.1150892E+00
         21   -1    0    0  503  502  0.00000000000E+00  0.00000000000E+00  0.43943866722E+03  0.43943866722E+03  0.00000000000E+00 0.  1.
         21   -1    0    0  501  503 -0.00000000000E+00 -0.00000000000E+00 -0.90224055362E+02  0.90224055362E+02  0.00000000000E+00 0.  1.
          6    1    1    2  501    0  0.70047816064E+02  0.67986197547E+02  0.15626846340E+03  0.25274028615E+03  0.17300000000E+03 0.  1.
         -6    1    1    2    0  502 -0.70047816064E+02 -0.67986197547E+02  0.19294614846E+03  0.27692243643E+03  0.17300000000E+03 0.  1.
<mgrwt>
<rscale>  2 0.19863992E+03</rscale>
<asrwt>0</asrwt>
<pdfrwt beam="1">  1       21 0.67605947E-01 0.19863992E+03</pdfrwt>
<pdfrwt beam="2">  1       21 0.13880624E-01 0.19863992E+03</pdfrwt>
<totfact> 0.90098381E+04</totfact>
</mgrwt>
</event>
<event>
 4    1  0.4510095E+000  0.1911188E+03  0.7546771E-02  0.1157456E+00
         21   -1    0    0  503  502  0.00000000000E+00  0.00000000000E+00  0.40985428124E+03  0.40985428124E+03  0.00000000000E+00 0.  1.
         21   -1    0    0  501  503 -0.00000000000E+00 -0.00000000000E+00 -0.14926774117E+03  0.14926774117E+03  0.00000000000E+00 0.  1.
          6    1    1    2  501    0 -0.48431809697E+02  0.65205451407E+02 -0.47167237607E+02  0.19685309088E+03  0.17300000000E+03 0.  1.
         -6    1    1    2    0  502  0.48431809697E+02 -0.65205451407E+02  0.30775377767E+03  0.36226893153E+03  0.17300000000E+03 0.  1.
<mgrwt>
<rscale>  2 0.19111879E+03</rscale>
<asrwt>0</asrwt>
<pdfrwt beam="1">  1       21 0.63054504E-01 0.19111879E+03</pdfrwt>
<pdfrwt beam="2">  1       21 0.22964268E-01 0.19111879E+03</pdfrwt>
<totfact> 0.41475414E+04</totfact>
</mgrwt>
</event>
<event>
 4    1  0.4510095E+000  0.1926431E+03  0.7546771E-02  0.1156099E+00
         21   -1    0    0  503  502  0.00000000000E+00  0.00000000000E+00  0.49511087328E+03  0.49511087328E+03  0.00000000000E+00 0. -1.
         21   -1    0    0  501  503 -0.00000000000E+00 -0.00000000000E+00 -0.12345722046E+03  0.12345722046E+03  0.00000000000E+00 0. -1.
          6    1    1    2  501    0  0.70860119827E+02 -0.46488990312E+02 -0.80281445791E+01  0.19281035737E+03  0.17300000000E+03 0. -1.
         -6    1    1    2    0  502 -0.70860119827E+02  0.46488990312E+02  0.37968179740E+03  0.42575773637E+03  0.17300000000E+03 0. -1.
<mgrwt>
<rscale>  2 0.19264315E+03</rscale>
<asrwt>0</asrwt>
<pdfrwt beam="1">  1       21 0.76170903E-01 0.19264315E+03</pdfrwt>
<pdfrwt beam="2">  1       21 0.18993419E-01 0.19264315E+03</pdfrwt>
<totfact> 0.39034330E+04</totfact>
</mgrwt>
</event>
<event>
 4    1  0.4510095E+000  0.2184716E+03  0.7546771E-02  0.1135028E+00
         21   -1    0    0  503  502  0.00000000000E+00  0.00000000000E+00  0.13857491179E+03  0.13857491179E+03  0.00000000000E+00 0. -1.
         21   -1    0    0  501  503 -0.00000000000E+00 -0.00000000000E+00 -0.34861687928E+03  0.34861687928E+03  0.00000000000E+00 0. -1.
          6    1    1    2  501    0 -0.10364534176E+03  0.84014735199E+02 -0.78336250978E+02  0.23209136308E+03  0.17300000000E+03 0. -1.
         -6    1    1    2    0  502  0.10364534176E+03 -0.84014735199E+02 -0.13170571651E+03  0.25510042799E+03  0.17300000000E+03 0. -1.
<mgrwt>
<rscale>  2 0.21847158E+03</rscale>
<asrwt>0</asrwt>
<pdfrwt beam="1">  1       21 0.21319217E-01 0.21847158E+03</pdfrwt>
<pdfrwt beam="2">  1       21 0.53633366E-01 0.21847158E+03</pdfrwt>
<totfact> 0.66597904E+04</totfact>
</mgrwt>
</event>
<event>
 4    1  0.4510095E+000  0.1961761E+03  0.7546771E-02  0.1153006E+00
         21   -1    0    0  503  502  0.00000000000E+00  0.00000000000E+00  0.15861512147E+02  0.15861512147E+02  0.00000000000E+00 0.  1.
         21   -1    0    0  501  503 -0.00000000000E+00 -0.00000000000E+00 -0.24302288063E+04  0.24302288063E+04  0.00000000000E+00 0.  1.
          6    1    1    2  501    0 -0.32159728021E+02  0.86728329028E+02 -0.12562548263E+04  0.12714799408E+04  0.17300000000E+03 0.  1.
         -6    1    1    2    0  502  0.32159728021E+02 -0.86728329028E+02 -0.11581124678E+04  0.11746103777E+04  0.17300000000E+03 0.  1.
<mgrwt>
<rscale>  2 0.19617607E+03</rscale>
<asrwt>0</asrwt>
<pdfrwt beam="1">  1       21 0.24402320E-02 0.19617607E+03</pdfrwt>
<pdfrwt beam="2">  1       21 0.37388146E+00 0.19617607E+03</pdfrwt>
<totfact> 0.11150950E+04</totfact>
</mgrwt>
</event>
<event>
 4    1  0.4510095E+000  0.1840012E+03  0.7546771E-02  0.1163986E+00
         21   -1    0    0  501  502  0.00000000000E+00  0.00000000000E+00  0.10022473632E+03  0.10022473632E+03  0.00000000000E+00 0. -1.
         21   -1    0    0  502  503 -0.00000000000E+00 -0.00000000000E+00 -0.47153269549E+03  0.47153269549E+03  0.00000000000E+00 0. -1.
          6    1    1    2  501    0 -0.20166617544E+02 -0.59335782405E+02 -0.33411297181E+02  0.18701000593E+03  0.17300000000E+03 0.  1.
         -6    1    1    2    0  503  0.20166617544E+02  0.59335782405E+02 -0.33789666200E+03  0.38474742589E+03  0.17300000000E+03 0.  1.
<mgrwt>
<rscale>  2 0.18400116E+03</rscale>
<asrwt>0</asrwt>
<pdfrwt beam="1">  1       21 0.15419190E-01 0.18400116E+03</pdfrwt>
<pdfrwt beam="2">  1       21 0.72543492E-01 0.18400116E+03</pdfrwt>
<totfact> 0.64123682E+04</totfact>
</mgrwt>
</event>
<event>
 4    1  0.4510095E+000  0.1872316E+03  0.7546771E-02  0.1160982E+00
         21   -1    0    0  501  502  0.00000000000E+00  0.00000000000E+00  0.36138559506E+03  0.36138559506E+03  0.00000000000E+00 0.  1.
         21   -1    0    0  502  503 -0.00000000000E+00 -0.00000000000E+00 -0.12581091646E+03  0.12581091646E+03  0.00000000000E+00 0.  1.
          6    1    1    2  501    0  0.12987209299E+02 -0.70412987663E+02  0.23435213292E+03  0.29996096186E+03  0.17300000000E+03 0.  1.
         -6    1    1    2    0  503 -0.12987209299E+02  0.70412987663E+02  0.12225456725E+01  0.18723554966E+03  0.17300000000E+03 0.  1.
<mgrwt>
<rscale>  2 0.18723156E+03</rscale>
<asrwt>0</asrwt>
<pdfrwt beam="1">  1       21 0.55597784E-01 0.18723156E+03</pdfrwt>
<pdfrwt beam="2">  1       21 0.19355526E-01 0.18723156E+03</pdfrwt>
<totfact> 0.74973368E+04</totfact>
</mgrwt>
</event>
<event>
 4    1  0.4510095E+000  0.3188169E+03  0.7546771E-02  0.1076195E+00
         21   -1    0    0  503  502  0.00000000000E+00  0.00000000000E+00  0.76003908026E+03  0.76003908026E+03  0.00000000000E+00 0.  1.
         21   -1    0    0  501  503 -0.00000000000E+00 -0.00000000000E+00 -0.13390363420E+03  0.13390363420E+03  0.00000000000E+00 0.  1.
          6    1    1    2  501    0 -0.37922079041E+02  0.26509829839E+03  0.32890703235E+03  0.45806552786E+03  0.17300000000E+03 0.  1.
         -6    1    1    2    0  502  0.37922079041E+02 -0.26509829839E+03  0.29722841371E+03  0.43587718661E+03  0.17300000000E+03 0.  1.
<mgrwt>
<rscale>  2 0.31881686E+03</rscale>
<asrwt>0</asrwt>
<pdfrwt beam="1">  1       21 0.11692909E+00 0.31881686E+03</pdfrwt>
<pdfrwt beam="2">  1       21 0.20600560E-01 0.31881686E+03</pdfrwt>
<totfact> 0.11464090E+04</totfact>
</mgrwt>
</event>
<event>
 4    1  0.4510095E+000  0.1818136E+03  0.7546771E-02  0.1166059E+00
         21   -1    0    0  501  502  0.00000000000E+00  0.00000000000E+00  0.11551062693E+03  0.11551062693E+03  0.00000000000E+00 0.  1.
         21   -1    0    0  502  503 -0.00000000000E+00 -0.00000000000E+00 -0.36408899322E+03  0.36408899322E+03  0.00000000000E+00 0.  1.
          6    1    1    2  501    0 -0.52886120060E+02  0.18172805868E+02 -0.13357841521E+02  0.18230366013E+03  0.17300000000E+03 0.  1.
         -6    1    1    2    0  503  0.52886120060E+02 -0.18172805868E+02 -0.23522052477E+03  0.29729596001E+03  0.17300000000E+03 0.  1.
<mgrwt>
<rscale>  2 0.18181362E+03</rscale>
<asrwt>0</asrwt>
<pdfrwt beam="1">  1       21 0.17770866E-01 0.18181362E+03</pdfrwt>
<pdfrwt beam="2">  1       21 0.56013691E-01 0.18181362E+03</pdfrwt>
<totfact> 0.86641425E+04</totfact>
</mgrwt>
</event>
<event>
 4    1  0.4510095E+000  0.2055469E+03  0.7546771E-02  0.1145142E+00
         21   -1    0    0  501  502  0.00000000000E+00  0.00000000000E+00  0.13011145464E+04  0.13011145464E+04  0.00000000000E+00 0. -1.
         21   -1    0    0  502  503 -0.00000000000E+00 -0.00000000000E+00 -0.32498752803E+02  0.32498752803E+02  0.00000000000E+00 0. -1.
          6    1    1    2  501    0 -0.27321273348E+02 -0.10758280647E+03  0.61509969116E+03  0.64853461149E+03  0.17300000000E+03 0. -1.
         -6    1    1    2    0  503  0.27321273348E+02  0.10758280647E+03  0.65351610247E+03  0.68507868775E+03  0.17300000000E+03 0. -1.
<mgrwt>
<rscale>  2 0.20554686E+03</rscale>
<asrwt>0</asrwt>
<pdfrwt beam="1">  1       21 0.20017143E+00 0.20554686E+03</pdfrwt>
<pdfrwt beam="2">  1       21 0.49998091E-02 0.20554686E+03</pdfrwt>
<totfact> 0.35709350E+04</totfact>
</mgrwt>
</event>
<event>
 4    1  0.4510095E+000  0.2161515E+03  0.7546771E-02  0.1136785E+00
         21   -1    0    0  501  502  0.00000000000E+00  0.00000000000E+00  0.71694395768E+03  0.71694395768E+03  0.00000000000E+00 0. -1.
         21   -1    0    0  502  503 -0.00000000000E+00 -0.00000000000E+00 -0.18880929956E+03  0.18880929956E+03  0.00000000000E+00 0. -1.
          6    1    1    2  501    0  0.22868924966E+02 -0.12755181108E+03  0.63054781967E+03  0.66656732978E+03  0.17300000000E+03 0. -1.
         -6    1    1    2    0  503 -0.22868924966E+02  0.12755181108E+03 -0.10241316155E+03  0.23918592746E+03  0.17300000000E+03 0. -1.
<mgrwt>
<rscale>  2 0.21615146E+03</rscale>
<asrwt>0</asrwt>
<pdfrwt beam="1">  1       21 0.11029907E+00 0.21615146E+03</pdfrwt>
<pdfrwt beam="2">  1       21 0.29047585E-01 0.21615146E+03</pdfrwt>
<totfact> 0.72360754E+03</totfact>
</mgrwt>
</event>
<event>
 4    1  0.4510095E+000  0.2101552E+03  0.7546771E-02  0.1141443E+00
         21   -1    0    0  501  502  0.00000000000E+00  0.00000000000E+00  0.61200856459E+03  0.61200856459E+03  0.00000000000E+00 0.  1.
         21   -1    0    0  502  503 -0.00000000000E+00 -0.00000000000E+00 -0.15801396379E+03  0.15801396379E+03  0.00000000000E+00 0. -1.
          6    1    1    2  501    0 -0.67736376195E+01  0.11912324075E+03  0.51078577754E+03  0.55232901353E+03  0.17300000000E+03 0.  1.
         -6    1    1    2    0  503  0.67736376195E+01 -0.11912324075E+03 -0.56791176735E+02  0.21769351485E+03  0.17300000000E+03 0. -1.
<mgrwt>
<rscale>  2 0.21015525E+03</rscale>
<asrwt>0</asrwt>
<pdfrwt beam="1">  1       21 0.94155163E-01 0.21015525E+03</pdfrwt>
<pdfrwt beam="2">  1       21 0.24309841E-01 0.21015525E+03</pdfrwt>
<totfact> 0.14943204E+04</totfact>
</mgrwt>
</event>
<event>
 4    1  0.4510095E+000  0.1834155E+03  0.7546771E-02  0.1164538E+00
         21   -1    0    0  501  502  0.00000000000E+00  0.00000000000E+00  0.27770721520E+03  0.27770721520E+03  0.00000000000E+00 0. -1.
         21   -1    0    0  502  503 -0.00000000000E+00 -0.00000000000E+00 -0.12351060390E+03  0.12351060390E+03  0.00000000000E+00 0. -1.
          6    1    1    2  501    0 -0.58928092720E+02 -0.15482970412E+02  0.10489522738E+03  0.21129186263E+03  0.17300000000E+03 0.  1.
         -6    1    1    2    0  503  0.58928092720E+02  0.15482970412E+02  0.49301383922E+02  0.18992595647E+03  0.17300000000E+03 0.  1.
<mgrwt>
<rscale>  2 0.18341549E+03</rscale>
<asrwt>0</asrwt>
<pdfrwt beam="1">  1       21 0.42724187E-01 0.18341549E+03</pdfrwt>
<pdfrwt beam="2">  1       21 0.19001631E-01 0.18341549E+03</pdfrwt>
<totfact> 0.13423273E+05</totfact>
</mgrwt>
</event>
<event>
 4    1  0.4510095E+000  0.1749062E+03  0.7546771E-02  0.1172826E+00
         21   -1    0    0  503  502  0.00000000000E+00  0.00000000000E+00  0.72367241115E+02  0.72367241115E+02  0.00000000000E+00 0.  1.
         21   -1    0    0  501  503 -0.00000000000E+00 -0.00000000000E+00 -0.43024022242E+03  0.43024022242E+03  0.00000000000E+00 0.  1.
          6    1    1    2  501    0  0.55180262285E+01 -0.25154409290E+02 -0.21212703098E+03  0.27493648393E+03  0.17300000000E+03 0.  1.
         -6    1    1    2    0  502 -0.55180262285E+01  0.25154409290E+02 -0.14574595032E+03  0.22767097961E+03  0.17300000000E+03 0.  1.
<mgrwt>
<rscale>  2 0.17490624E+03</rscale>
<asrwt>0</asrwt>
<pdfrwt beam="1">  1       21 0.11133422E-01 0.17490624E+03</pdfrwt>
<pdfrwt beam="2">  1       21 0.66190804E-01 0.17490624E+03</pdfrwt>
<totfact> 0.14138744E+05</totfact>
</mgrwt>
</event>
<event>
 4    1  0.4510095E+000  0.2287107E+03  0.7546771E-02  0.1127551E+00
         21   -1    0    0  503  502  0.00000000000E+00  0.00000000000E+00  0.14473347402E+03  0.14473347402E+03  0.00000000000E+00 0. -1.
         21   -1    0    0  501  503 -0.00000000000E+00 -0.00000000000E+00 -0.95672684863E+03  0.95672684863E+03  0.00000000000E+00 0.  1.
          6    1    1    2  501    0  0.31646174066E+02  0.14621250083E+03 -0.84042471002E+03  0.87098924732E+03  0.17300000000E+03 0.  1.
         -6    1    1    2    0  502 -0.31646174066E+02 -0.14621250083E+03  0.28431335409E+02  0.23047107534E+03  0.17300000000E+03 0. -1.
<mgrwt>
<rscale>  2 0.22871068E+03</rscale>
<asrwt>0</asrwt>
<pdfrwt beam="1">  1       21 0.22266689E-01 0.22871068E+03</pdfrwt>
<pdfrwt beam="2">  1       21 0.14718874E+00 0.22871068E+03</pdfrwt>
<totfact> 0.57636278E+03</totfact>
</mgrwt>
</event>
<event>
 4    1  0.4510095E+000  0.1787909E+03  0.7546771E-02  0.1168978E+00
         21   -1    0    0  501  502  0.00000000000E+00  0.00000000000E+00  0.18520311200E+03  0.18520311200E+03  0.00000000000E+00 0. -1.
         21   -1    0    0  502  503 -0.00000000000E+00 -0.00000000000E+00 -0.39484435204E+03  0.39484435204E+03  0.00000000000E+00 0. -1.
          6    1    1    2  501    0  0.38558436000E+02  0.23461542224E+02  0.11276751035E+03  0.21138284779E+03  0.17300000000E+03 0. -1.
         -6    1    1    2    0  503 -0.38558436000E+02 -0.23461542224E+02 -0.32240875039E+03  0.36866461625E+03  0.17300000000E+03 0. -1.
<mgrwt>
<rscale>  2 0.17879093E+03</rscale>
<asrwt>0</asrwt>
<pdfrwt beam="1">  1       21 0.28492787E-01 0.17879093E+03</pdfrwt>
<pdfrwt beam="2">  1       21 0.60745284E-01 0.17879093E+03</pdfrwt>
<totfact> 0.29947540E+04</totfact>
</mgrwt>
</event>
<event>
 4    1  0.4510095E+000  0.2716299E+03  0.7546771E-02  0.1100350E+00
         21   -1    0    0  503  502  0.00000000000E+00  0.00000000000E+00  0.58605091579E+03  0.58605091579E+03  0.00000000000E+00 0. -1.
         21   -1    0    0  501  503 -0.00000000000E+00 -0.00000000000E+00 -0.32201056583E+03  0.32201056583E+03  0.00000000000E+00 0. -1.
          6    1    1    2  501    0  0.48928963768E+02  0.20361672344E+03 -0.22230546234E+03  0.35100218254E+03  0.17300000000E+03 0. -1.
         -6    1    1    2    0  502 -0.48928963768E+02 -0.20361672344E+03  0.48634581230E+03  0.55705929909E+03  0.17300000000E+03 0. -1.
<mgrwt>
<rscale>  2 0.27162992E+03</rscale>
<asrwt>0</asrwt>
<pdfrwt beam="1">  1       21 0.90161679E-01 0.27162992E+03</pdfrwt>
<pdfrwt beam="2">  1       21 0.49540087E-01 0.27162992E+03</pdfrwt>
<totfact> 0.38441865E+03</totfact>
</mgrwt>
</event>
<event>
 4    1  0.4510095E+000  0.2143989E+03  0.7546771E-02  0.1138129E+00
         21   -1    0    0  503  502  0.00000000000E+00  0.00000000000E+00  0.40629356628E+03  0.40629356628E+03  0.00000000000E+00 0. -1.
         21   -1    0    0  501  503 -0.00000000000E+00 -0.00000000000E+00 -0.19860585978E+03  0.19860585978E+03  0.00000000000E+00 0.  1.
          6    1    1    2  501    0  0.12552772646E+03  0.16753516528E+02 -0.94564867762E+02  0.23432755843E+03  0.17300000000E+03 0.  1.
         -6    1    1    2    0  502 -0.12552772646E+03 -0.16753516528E+02  0.30225257427E+03  0.37057186763E+03  0.17300000000E+03 0. -1.
<mgrwt>
<rscale>  2 0.21439890E+03</rscale>
<asrwt>0</asrwt>
<pdfrwt beam="1">  1       21 0.62506703E-01 0.21439890E+03</pdfrwt>
<pdfrwt beam="2">  1       21 0.30554748E-01 0.21439890E+03</pdfrwt>
<totfact> 0.24093815E+04</totfact>
</mgrwt>
</event>
<event>
 4    1  0.4510095E+000  0.2301563E+03  0.7546771E-02  0.1126530E+00
         21   -1    0    0  501  502  0.00000000000E+00  0.00000000000E+00  0.57546314342E+03  0.57546314342E+03  0.00000000000E+00 0.  1.
         21   -1    0    0  502  503 -0.00000000000E+00 -0.00000000000E+00 -0.16875588851E+03  0.16875588851E+03  0.00000000000E+00 0. -1.
          6    1    1    2  501    0  0.69255881806E+02  0.13507976154E+03  0.45422610580E+03  0.50920847826E+03  0.17300000000E+03 0.  1.
         -6    1    1    2    0  503 -0.69255881806E+02 -0.13507976154E+03 -0.47518850897E+02  0.23501055367E+03  0.17300000000E+03 0. -1.
<mgrwt>
<rscale>  2 0.23015629E+03</rscale>
<asrwt>0</asrwt>
<pdfrwt beam="1">  1       21 0.88532790E-01 0.23015629E+03</pdfrwt>
<pdfrwt beam="2">  1       21 0.25962445E-01 0.23015629E+03</pdfrwt>
<totfact> 0.15026154E+04</totfact>
</mgrwt>
</event>
<event>
 4    1  0.4510095E+000  0.2342082E+03  0.7546771E-02  0.1123712E+00
         21   -1    0    0  503  502  0.00000000000E+00  0.00000000000E+00  0.73683213620E+03  0.73683213620E+03  0.00000000000E+00 0.  1.
         21   -1    0    0  501  503 -0.00000000000E+00 -0.00000000000E+00 -0.75229022871E+02  0.75229022871E+02  0.00000000000E+00 0. -1.
          6    1    1    2  501    0  0.18812205026E+02 -0.15675013618E+03  0.37225082939E+03  0.43980016398E+03  0.17300000000E+03 0.  1.
         -6    1    1    2    0  502 -0.18812205026E+02  0.15675013618E+03  0.28935228394E+03  0.37226099510E+03  0.17300000000E+03 0.  1.
<mgrwt>
<rscale>  2 0.23420825E+03</rscale>
<asrwt>0</asrwt>
<pdfrwt beam="1">  1       21 0.11335879E+00 0.23420825E+03</pdfrwt>
<pdfrwt beam="2">  1       21 0.11573696E-01 0.23420825E+03</pdfrwt>
<totfact> 0.37183012E+04</totfact>
</mgrwt>
</event>
<event>
 4    1  0.4510095E+000  0.1837257E+03  0.7546771E-02  0.1164245E+00
         21   -1    0    0  501  502  0.00000000000E+00  0.00000000000E+00  0.53368414593E+03  0.53368414593E+03  0.00000000000E+00 0. -1.
         21   -1    0    0  502  503 -0.00000000000E+00 -0.00000000000E+00 -0.64985973697E+02  0.64985973697E+02  0.00000000000E+00 0. -1.
          6    1    1    2  501    0  0.14643782108E+02 -0.60097214542E+02  0.28328352808E+03  0.33764578012E+03  0.17300000000E+03 0. -1.
         -6    1    1    2    0  503 -0.14643782108E+02  0.60097214542E+02  0.18541464415E+03  0.26102433951E+03  0.17300000000E+03 0. -1.
<mgrwt>
<rscale>  2 0.18372565E+03</rscale>
<asrwt>0</asrwt>
<pdfrwt beam="1">  1       21 0.82105250E-01 0.18372565E+03</pdfrwt>
<pdfrwt beam="2">  1       21 0.99978424E-02 0.18372565E+03</pdfrwt>
<totfact> 0.10562857E+05</totfact>
</mgrwt>
</event>
<event>
 4    1  0.4510095E+000  0.2569781E+03  0.7546771E-02  0.1108973E+00
         21   -1    0    0  503  502  0.00000000000E+00  0.00000000000E+00  0.98609351441E+03  0.98609351441E+03  0.00000000000E+00 0. -1.
         21   -1    0    0  501  503 -0.00000000000E+00 -0.00000000000E+00 -0.10098385366E+03  0.10098385366E+03  0.00000000000E+00 0. -1.
          6    1    1    2  501    0 -0.69937203123E+02 -0.17668484717E+03  0.75801059036E+03  0.80038603354E+03  0.17300000000E+03 0. -1.
         -6    1    1    2    0  502  0.69937203123E+02  0.17668484717E+03  0.12709907040E+03  0.28669133453E+03  0.17300000000E+03 0. -1.
<mgrwt>
<rscale>  2 0.25697811E+03</rscale>
<asrwt>0</asrwt>
<pdfrwt beam="1">  1       21 0.15170669E+00 0.25697811E+03</pdfrwt>
<pdfrwt beam="2">  1       21 0.15535978E-01 0.25697811E+03</pdfrwt>
<totfact> 0.10222902E+04</totfact>
</mgrwt>
</event>
<event>
 4    1  0.4510095E+000  0.2521250E+03  0.7546771E-02  0.1111969E+00
         21   -1    0    0  501  502  0.00000000000E+00  0.00000000000E+00  0.18663576649E+03  0.18663576649E+03  0.00000000000E+00 0.  1.
         21   -1    0    0  502  503 -0.00000000000E+00 -0.00000000000E+00 -0.34082048420E+03  0.34082048420E+03  0.00000000000E+00 0.  1.
          6    1    1    2  501    0  0.79421765641E+02  0.16531847291E+03 -0.70293231472E+02  0.26174062110E+03  0.17300000000E+03 0.  1.
         -6    1    1    2    0  503 -0.79421765641E+02 -0.16531847291E+03 -0.83891486242E+02  0.26571562959E+03  0.17300000000E+03 0.  1.
<mgrwt>
<rscale>  2 0.25212500E+03</rscale>
<asrwt>0</asrwt>
<pdfrwt beam="1">  1       21 0.28713195E-01 0.25212500E+03</pdfrwt>
<pdfrwt beam="2">  1       21 0.52433920E-01 0.25212500E+03</pdfrwt>
<totfact> 0.38926806E+04</totfact>
</mgrwt>
</event>
<event>
 4    1  0.4510095E+000  0.2768241E+03  0.7546771E-02  0.1097436E+00
         21   -1    0    0  501  502  0.00000000000E+00  0.00000000000E+00  0.11774789984E+03  0.11774789984E+03  0.00000000000E+00 0. -1.
         21   -1    0    0  502  503 -0.00000000000E+00 -0.00000000000E+00 -0.96173560439E+03  0.96173560439E+03  0.00000000000E+00 0. -1.
          6    1    1    2  501    0  0.14598751994E+02  0.21561419632E+03 -0.11510165238E+03  0.29979992594E+03  0.17300000000E+03 0. -1.
         -6    1    1    2    0  503 -0.14598751994E+02 -0.21561419632E+03 -0.72888605217E+03  0.77968357829E+03  0.17300000000E+03 0. -1.
<mgrwt>
<rscale>  2 0.27682414E+03</rscale>
<asrwt>0</asrwt>
<pdfrwt beam="1">  1       21 0.18115062E-01 0.27682414E+03</pdfrwt>
<pdfrwt beam="2">  1       21 0.14795932E+00 0.27682414E+03</pdfrwt>
<totfact> 0.81295099E+03</totfact>
</mgrwt>
</event>
<event>
 4    1  0.4510095E+000  0.2555763E+03  0.7546771E-02  0.1109831E+00
         21   -1    0    0  503  502  0.00000000000E+00  0.00000000000E+00  0.46455184725E+03  0.46455184725E+03  0.00000000000E+00 0. -1.
         21   -1    0    0  501  503 -0.00000000000E+00 -0.00000000000E+00 -0.25942211582E+03  0.25942211582E+03  0.00000000000E+00 0. -1.
          6    1    1    2  501    0 -0.17452667558E+03 -0.70218975352E+02 -0.14241207628E+03  0.29257557051E+03  0.17300000000E+03 0. -1.
         -6    1    1    2    0  502  0.17452667558E+03  0.70218975352E+02  0.34754180772E+03  0.43139839255E+03  0.17300000000E+03 0. -1.
<mgrwt>
<rscale>  2 0.25557634E+03</rscale>
<asrwt>0</asrwt>
<pdfrwt beam="1">  1       21 0.71469515E-01 0.25557634E+03</pdfrwt>
<pdfrwt beam="2">  1       21 0.39911095E-01 0.25557634E+03</pdfrwt>
<totfact> 0.10302573E+04</totfact>
</mgrwt>
</event>
<event>
 4    1  0.4510095E+000  0.2132400E+03  0.7546771E-02  0.1139026E+00
         21   -1    0    0  503  502  0.00000000000E+00  0.00000000000E+00  0.80623530813E+03  0.80623530813E+03  0.00000000000E+00 0.  1.
         21   -1    0    0  501  503 -0.00000000000E+00 -0.00000000000E+00 -0.56707862782E+02  0.56707862782E+02  0.00000000000E+00 0.  1.
          6    1    1    2  501    0 -0.10526802379E+03  0.66790402615E+02  0.34294952611E+03  0.40383869573E+03  0.17300000000E+03 0.  1.
         -6    1    1    2    0  502  0.10526802379E+03 -0.66790402615E+02  0.40657791924E+03  0.45910447517E+03  0.17300000000E+03 0.  1.
<mgrwt>
<rscale>  2 0.21324004E+03</rscale>
<asrwt>0</asrwt>
<pdfrwt beam="1">  1       21 0.12403619E+00 0.21324004E+03</pdfrwt>
<pdfrwt beam="2">  1       21 0.87242872E-02 0.21324004E+03</pdfrwt>
<totfact> 0.49627178E+04</totfact>
</mgrwt>
</event>
<event>
 4    1  0.4510095E+000  0.2310163E+03  0.7546771E-02  0.1125926E+00
         21   -1    0    0  503  502  0.00000000000E+00  0.00000000000E+00  0.63065924326E+03  0.63065924326E+03  0.00000000000E+00 0.  1.
         21   -1    0    0  501  503 -0.00000000000E+00 -0.00000000000E+00 -0.92131509608E+02  0.92131509608E+02  0.00000000000E+00 0. -1.
          6    1    1    2  501    0 -0.91538094408E+02  0.12272043863E+03  0.16609614775E+03  0.28452848554E+03  0.17300000000E+03 0.  1.
         -6    1    1    2    0  502  0.91538094408E+02 -0.12272043863E+03  0.37243158590E+03  0.43826226733E+03  0.17300000000E+03 0. -1.
<mgrwt>
<rscale>  2 0.23101630E+03</rscale>
<asrwt>0</asrwt>
<pdfrwt beam="1">  1       21 0.97024496E-01 0.23101630E+03</pdfrwt>
<pdfrwt beam="2">  1       21 0.14174079E-01 0.23101630E+03</pdfrwt>
<totfact> 0.37580358E+04</totfact>
</mgrwt>
</event>
<event>
 4    1  0.4510095E+000  0.2059451E+03  0.7546771E-02  0.1144818E+00
         21   -1    0    0  501  502  0.00000000000E+00  0.00000000000E+00  0.15434430045E+03  0.15434430045E+03  0.00000000000E+00 0. -1.
         21   -1    0    0  502  503 -0.00000000000E+00 -0.00000000000E+00 -0.27903641722E+03  0.27903641722E+03  0.00000000000E+00 0.  1.
          6    1    1    2  501    0 -0.10465374759E+03  0.39140239744E+02 -0.89055044714E+02  0.22437505708E+03  0.17300000000E+03 0. -1.
         -6    1    1    2    0  503  0.10465374759E+03 -0.39140239744E+02 -0.35637072055E+02  0.20900566059E+03  0.17300000000E+03 0. -1.
<mgrwt>
<rscale>  2 0.20594505E+03</rscale>
<asrwt>0</asrwt>
<pdfrwt beam="1">  1       21 0.23745277E-01 0.20594505E+03</pdfrwt>
<pdfrwt beam="2">  1       21 0.42928679E-01 0.20594505E+03</pdfrwt>
<totfact> 0.86700376E+04</totfact>
</mgrwt>
</event>
<event>
 4    1  0.4510095E+000  0.1919626E+03  0.7546771E-02  0.1156703E+00
         21   -1    0    0  503  502  0.00000000000E+00  0.00000000000E+00  0.46221203060E+03  0.46221203060E+03  0.00000000000E+00 0. -1.
         21   -1    0    0  501  503 -0.00000000000E+00 -0.00000000000E+00 -0.79876427144E+02  0.79876427144E+02  0.00000000000E+00 0. -1.
          6    1    1    2  501    0  0.56188577133E+02  0.61347211403E+02  0.20298750962E+03  0.27938068224E+03  0.17300000000E+03 0. -1.
         -6    1    1    2    0  502 -0.56188577133E+02 -0.61347211403E+02  0.17934809384E+03  0.26270777550E+03  0.17300000000E+03 0. -1.
<mgrwt>
<rscale>  2 0.19196259E+03</rscale>
<asrwt>0</asrwt>
<pdfrwt beam="1">  1       21 0.71109542E-01 0.19196259E+03</pdfrwt>
<pdfrwt beam="2">  1       21 0.12288681E-01 0.19196259E+03</pdfrwt>
<totfact> 0.10067702E+05</totfact>
</mgrwt>
</event>
<event>
 4    1  0.4510095E+000  0.1739238E+03  0.7546771E-02  0.1173817E+00
         21   -1    0    0  503  502  0.00000000000E+00  0.00000000000E+00  0.82552647038E+02  0.82552647038E+02  0.00000000000E+00 0. -1.
         21   -1    0    0  501  503 -0.00000000000E+00 -0.00000000000E+00 -0.48978944685E+03  0.48978944685E+03  0.00000000000E+00 0. -1.
          6    1    1    2  501    0 -0.80842532679E+00 -0.17884172024E+02 -0.34723774083E+03  0.38836007238E+03  0.17300000000E+03 0. -1.
         -6    1    1    2    0  502  0.80842532679E+00  0.17884172024E+02 -0.59999058983E+02  0.18398202151E+03  0.17300000000E+03 0. -1.
<mgrwt>
<rscale>  2 0.17392383E+03</rscale>
<asrwt>0</asrwt>
<pdfrwt beam="1">  1       21 0.12700407E-01 0.17392383E+03</pdfrwt>
<pdfrwt beam="2">  1       21 0.75352223E-01 0.17392383E+03</pdfrwt>
<totfact> 0.84057097E+04</totfact>
</mgrwt>
</event>
<event>
 4    1  0.4510095E+000  0.1904436E+03  0.7546771E-02  0.1158062E+00
         21   -1    0    0  503  502  0.00000000000E+00  0.00000000000E+00  0.33733512834E+03  0.33733512834E+03  0.00000000000E+00 0.  1.
         21   -1    0    0  501  503 -0.00000000000E+00 -0.00000000000E+00 -0.20824102164E+03  0.20824102164E+03  0.00000000000E+00 0.  1.
          6    1    1    2  501    0  0.38872869417E+02  0.69488624079E+02 -0.12517242079E+03  0.22789669541E+03  0.17300000000E+03 0.  1.
         -6    1    1    2    0  502 -0.38872869417E+02 -0.69488624079E+02  0.25426652749E+03  0.31767945457E+03  0.17300000000E+03 0.  1.
<mgrwt>
<rscale>  2 0.19044361E+03</rscale>
<asrwt>0</asrwt>
<pdfrwt beam="1">  1       21 0.51897712E-01 0.19044361E+03</pdfrwt>
<pdfrwt beam="2">  1       21 0.32037080E-01 0.19044361E+03</pdfrwt>
<totfact> 0.33070798E+04</totfact>
</mgrwt>
</event>
<event>
 4    1  0.4510095E+000  0.2043745E+03  0.7546771E-02  0.1146100E+00
         21   -1    0    0  503  502  0.00000000000E+00  0.00000000000E+00  0.41306996266E+03  0.41306996266E+03  0.00000000000E+00 0.  1.
         21   -1    0    0  501  503 -0.00000000000E+00 -0.00000000000E+00 -0.10563529556E+03  0.10563529556E+03  0.00000000000E+00 0.  1.
          6    1    1    2  501    0 -0.73747362102E+02  0.80007912055E+02  0.10008704348E+03  0.22756615671E+03  0.17300000000E+03 0.  1.
         -6    1    1    2    0  502  0.73747362102E+02 -0.80007912055E+02  0.20734762362E+03  0.29113910151E+03  0.17300000000E+03 0.  1.
<mgrwt>
<rscale>  2 0.20437451E+03</rscale>
<asrwt>0</asrwt>
<pdfrwt beam="1">  1       21 0.63549224E-01 0.20437451E+03</pdfrwt>
<pdfrwt beam="2">  1       21 0.16251584E-01 0.20437451E+03</pdfrwt>
<totfact> 0.77166036E+04</totfact>
</mgrwt>
</event>
<event>
 4    1  0.4510095E+000  0.2782713E+03  0.7546771E-02  0.1096637E+00
         21   -1    0    0  501  502  0.00000000000E+00  0.00000000000E+00  0.48625837204E+03  0.48625837204E+03  0.00000000000E+00 0.  1.
         21   -1    0    0  502  503 -0.00000000000E+00 -0.00000000000E+00 -0.15936987503E+03  0.15936987503E+03  0.00000000000E+00 0.  1.
          6    1    1    2  501    0  0.10990126792E+03 -0.18822232980E+03  0.17242676892E+03  0.32736206984E+03  0.17300000000E+03 0.  1.
         -6    1    1    2    0  503 -0.10990126792E+03  0.18822232980E+03  0.15446172808E+03  0.31826617723E+03  0.17300000000E+03 0.  1.
<mgrwt>
<rscale>  2 0.27827133E+03</rscale>
<asrwt>0</asrwt>
<pdfrwt beam="1">  1       21 0.74808980E-01 0.27827133E+03</pdfrwt>
<pdfrwt beam="2">  1       21 0.24518443E-01 0.27827133E+03</pdfrwt>
<totfact> 0.24079785E+04</totfact>
</mgrwt>
</event>
<event>
 4    1  0.4510095E+000  0.2418003E+03  0.7546771E-02  0.1118599E+00
         21   -1    0    0  501  502  0.00000000000E+00  0.00000000000E+00  0.19963199489E+03  0.19963199489E+03  0.00000000000E+00 0.  1.
         21   -1    0    0  502  503 -0.00000000000E+00 -0.00000000000E+00 -0.54806951788E+03  0.54806951788E+03  0.00000000000E+00 0. -1.
          6    1    1    2  501    0 -0.14895135174E+03 -0.79698535798E+02  0.80884204170E+02  0.25496983405E+03  0.17300000000E+03 0.  1.
         -6    1    1    2    0  503  0.14895135174E+03  0.79698535798E+02 -0.42932172716E+03  0.49273167871E+03  0.17300000000E+03 0. -1.
<mgrwt>
<rscale>  2 0.24180025E+03</rscale>
<asrwt>0</asrwt>
<pdfrwt beam="1">  1       21 0.30712615E-01 0.24180025E+03</pdfrwt>
<pdfrwt beam="2">  1       21 0.84318386E-01 0.24180025E+03</pdfrwt>
<totfact> 0.12050350E+04</totfact>
</mgrwt>
</event>
<event>
 4    1  0.4510095E+000  0.1806498E+03  0.7546771E-02  0.1167176E+00
         21   -1    0    0  503  502  0.00000000000E+00  0.00000000000E+00  0.41360448383E+03  0.41360448383E+03  0.00000000000E+00 0. -1.
         21   -1    0    0  501  503 -0.00000000000E+00 -0.00000000000E+00 -0.85421778276E+02  0.85421778276E+02  0.00000000000E+00 0. -1.
          6    1    1    2  501    0  0.36476054893E+02  0.37078860218E+02  0.95160195119E+02  0.20418081984E+03  0.17300000000E+03 0.  1.
         -6    1    1    2    0  502 -0.36476054893E+02 -0.37078860218E+02  0.23302251044E+03  0.29484544227E+03  0.17300000000E+03 0.  1.
<mgrwt>
<rscale>  2 0.18064978E+03</rscale>
<asrwt>0</asrwt>
<pdfrwt beam="1">  1       21 0.63631458E-01 0.18064978E+03</pdfrwt>
<pdfrwt beam="2">  1       21 0.13141812E-01 0.18064978E+03</pdfrwt>
<totfact> 0.11428379E+05</totfact>
</mgrwt>
</event>
<event>
 4    1  0.4510095E+000  0.1915003E+03  0.7546771E-02  0.1157115E+00
         21   -1    0    0  503  502  0.00000000000E+00  0.00000000000E+00  0.36121617774E+03  0.36121617774E+03  0.00000000000E+00 0.  1.
         21   -1    0    0  501  503 -0.00000000000E+00 -0.00000000000E+00 -0.11553084328E+03  0.11553084328E+03  0.00000000000E+00 0.  1.
          6    1    1    2  501    0  0.81041109811E+02 -0.13255070892E+02  0.39844491360E+02  0.19560148741E+03  0.17300000000E+03 0.  1.
         -6    1    1    2    0  502 -0.81041109811E+02  0.13255070892E+02  0.20584084310E+03  0.28114553361E+03  0.17300000000E+03 0.  1.
<mgrwt>
<rscale>  2 0.19150028E+03</rscale>
<asrwt>0</asrwt>
<pdfrwt beam="1">  1       21 0.55571719E-01 0.19150028E+03</pdfrwt>
<pdfrwt beam="2">  1       21 0.17773976E-01 0.19150028E+03</pdfrwt>
<totfact> 0.87744707E+04</totfact>
</mgrwt>
</event>
<event>
 4    1  0.4510095E+000  0.1763725E+03  0.7546771E-02  0.1171361E+00
         21   -1    0    0  503  502  0.00000000000E+00  0.00000000000E+00  0.26177922288E+03  0.26177922288E+03  0.00000000000E+00 0.  1.
         21   -1    0    0  501  503 -0.00000000000E+00 -0.00000000000E+00 -0.17245205493E+03  0.17245205493E+03  0.00000000000E+00 0.  1.
          6    1    1    2  501    0 -0.97486084964E+01 -0.32912226946E+02 -0.76404107124E+02  0.19221039940E+03  0.17300000000E+03 0.  1.
         -6    1    1    2    0  502  0.97486084964E+01  0.32912226946E+02  0.16573127508E+03  0.24202087842E+03  0.17300000000E+03 0.  1.
<mgrwt>
<rscale>  2 0.17637248E+03</rscale>
<asrwt>0</asrwt>
<pdfrwt beam="1">  1       21 0.40273727E-01 0.17637248E+03</pdfrwt>
<pdfrwt beam="2">  1       21 0.26531085E-01 0.17637248E+03</pdfrwt>
<totfact> 0.80840123E+04</totfact>
</mgrwt>
</event>
<event>
 4    1  0.4510095E+000  0.2141453E+03  0.7546771E-02  0.1138325E+00
         21   -1    0    0  501  502  0.00000000000E+00  0.00000000000E+00  0.52628550639E+03  0.52628550639E+03  0.00000000000E+00 0.  1.
         21   -1    0    0  502  503 -0.00000000000E+00 -0.00000000000E+00 -0.14930433827E+03  0.14930433827E+03  0.00000000000E+00 0. -1.
          6    1    1    2  501    0  0.27046313939E+01  0.12618202903E+03  0.40646364518E+03  0.45942454694E+03  0.17300000000E+03 0.  1.
         -6    1    1    2    0  503 -0.27046313939E+01 -0.12618202903E+03 -0.29482477065E+02  0.21616529771E+03  0.17300000000E+03 0. -1.
<mgrwt>
<rscale>  2 0.21414532E+03</rscale>
<asrwt>0</asrwt>
<pdfrwt beam="1">  1       21 0.80967000E-01 0.21414532E+03</pdfrwt>
<pdfrwt beam="2">  1       21 0.22969898E-01 0.21414532E+03</pdfrwt>
<totfact> 0.23520143E+04</totfact>
</mgrwt>
</event>
<event>
 4    1  0.4510095E+000  0.2912407E+03  0.7546771E-02  0.1089703E+00
         21   -1    0    0  503  502  0.00000000000E+00  0.00000000000E+00  0.14599543344E+03  0.14599543344E+03  0.00000000000E+00 0. -1.
         21   -1    0    0  501  503 -0.00000000000E+00 -0.00000000000E+00 -0.11522108866E+04  0.11522108866E+04  0.00000000000E+00 0.  1.
          6    1    1    2  501    0 -0.17299210346E+03 -0.15800592122E+03 -0.46070344878E+02  0.29486202820E+03  0.17300000000E+03 0. -1.
         -6    1    1    2    0  502  0.17299210346E+03  0.15800592122E+03 -0.96014510825E+03  0.10033442918E+04  0.17300000000E+03 0.  1.
<mgrwt>
<rscale>  2 0.29124069E+03</rscale>
<asrwt>0</asrwt>
<pdfrwt beam="1">  1       21 0.22460835E-01 0.29124069E+03</pdfrwt>
<pdfrwt beam="2">  1       21 0.17726322E+00 0.29124069E+03</pdfrwt>
<totfact> 0.32689213E+03</totfact>
</mgrwt>
</event>
<event>
 4    1  0.4510095E+000  0.3911940E+03  0.7546771E-02  0.1046872E+00
         21   -1    0    0  503  502  0.00000000000E+00  0.00000000000E+00  0.16361535507E+04  0.16361535507E+04  0.00000000000E+00 0. -1.
         21   -1    0    0  501  503 -0.00000000000E+00 -0.00000000000E+00 -0.18348682703E+03  0.18348682703E+03  0.00000000000E+00 0. -1.
          6    1    1    2  501    0  0.29569040963E+03 -0.18886755541E+03  0.89295455784E+02  0.40125609062E+03  0.17300000000E+03 0. -1.
         -6    1    1    2    0  502 -0.29569040963E+03  0.18886755541E+03  0.13633712678E+04  0.14183842871E+04  0.17300000000E+03 0. -1.
<mgrwt>
<rscale>  2 0.39119403E+03</rscale>
<asrwt>0</asrwt>
<pdfrwt beam="1">  1       21 0.25171592E+00 0.39119403E+03</pdfrwt>
<pdfrwt beam="2">  1       21 0.28228744E-01 0.39119403E+03</pdfrwt>
<totfact> 0.65538337E+02</totfact>
</mgrwt>
</event>
<event>
 4    1  0.4510095E+000  0.2271611E+03  0.7546771E-02  0.1128654E+00
         21   -1    0    0  501  502  0.00000000000E+00  0.00000000000E+00  0.13209798684E+03  0.13209798684E+03  0.00000000000E+00 0. -1.
         21   -1    0    0  502  503 -0.00000000000E+00 -0.00000000000E+00 -0.44170822695E+03  0.44170822695E+03  0.00000000000E+00 0. -1.
          6    1    1    2  501    0  0.12131370237E+03  0.83403594835E+02 -0.25236284873E+03  0.33954260622E+03  0.17300000000E+03 0. -1.
         -6    1    1    2    0  503 -0.12131370237E+03 -0.83403594835E+02 -0.57247391380E+02  0.23426360758E+03  0.17300000000E+03 0. -1.
<mgrwt>
<rscale>  2 0.22716112E+03</rscale>
<asrwt>0</asrwt>
<pdfrwt beam="1">  1       21 0.20322767E-01 0.22716112E+03</pdfrwt>
<pdfrwt beam="2">  1       21 0.67955111E-01 0.22716112E+03</pdfrwt>
<totfact> 0.43566012E+04</totfact>
</mgrwt>
</event>
<event>
 4    1  0.4510095E+000  0.1838024E+03  0.7546771E-02  0.1164173E+00
         21   -1    0    0  501  502  0.00000000000E+00  0.00000000000E+00  0.24652266957E+03  0.24652266957E+03  0.00000000000E+00 0.  1.
         21   -1    0    0  502  503 -0.00000000000E+00 -0.00000000000E+00 -0.14711434032E+03  0.14711434032E+03  0.00000000000E+00 0.  1.
          6    1    1    2  501    0 -0.45081720977E+02  0.42684635422E+02  0.10121016590E+03  0.20982573090E+03  0.17300000000E+03 0. -1.
         -6    1    1    2    0  503  0.45081720977E+02 -0.42684635422E+02 -0.18018366573E+01  0.18381127899E+03  0.17300000000E+03 0. -1.
<mgrwt>
<rscale>  2 0.18380245E+03</rscale>
<asrwt>0</asrwt>
<pdfrwt beam="1">  1       21 0.37926564E-01 0.18380245E+03</pdfrwt>
<pdfrwt beam="2">  1       21 0.22632976E-01 0.18380245E+03</pdfrwt>
<totfact> 0.12304902E+05</totfact>
</mgrwt>
</event>
<event>
 4    1  0.4510095E+000  0.1932948E+03  0.7546771E-02  0.1155523E+00
         21   -1    0    0  501  502  0.00000000000E+00  0.00000000000E+00  0.22497050552E+03  0.22497050552E+03  0.00000000000E+00 0. -1.
         21   -1    0    0  502  503 -0.00000000000E+00 -0.00000000000E+00 -0.16770226055E+03  0.16770226055E+03  0.00000000000E+00 0. -1.
          6    1    1    2  501    0 -0.76211207580E+02  0.40320427761E+02  0.47950265324E+02  0.19915349106E+03  0.17300000000E+03 0. -1.
         -6    1    1    2    0  503  0.76211207580E+02 -0.40320427761E+02  0.93179796421E+01  0.19351927501E+03  0.17300000000E+03 0. -1.
<mgrwt>
<rscale>  2 0.19329481E+03</rscale>
<asrwt>0</asrwt>
<pdfrwt beam="1">  1       21 0.34610847E-01 0.19329481E+03</pdfrwt>
<pdfrwt beam="2">  1       21 0.25800348E-01 0.19329481E+03</pdfrwt>
<totfact> 0.11472263E+05</totfact>
</mgrwt>
</event>
<event>
 4    1  0.4510095E+000  0.2920247E+03  0.7546771E-02  0.1089297E+00
         21   -1    0    0  503  502  0.00000000000E+00  0.00000000000E+00  0.21984378958E+03  0.21984378958E+03  0.00000000000E+00 0.  1.
         21   -1    0    0  501  503 -0.00000000000E+00 -0.00000000000E+00 -0.62126983554E+03  0.62126983554E+03  0.00000000000E+00 0. -1.
          6    1    1    2  501    0  0.18601157064E+03  0.14404548591E+03 -0.45846539117E+03  0.54357053022E+03  0.17300000000E+03 0. -1.
         -6    1    1    2    0  502 -0.18601157064E+03 -0.14404548591E+03  0.57039345207E+02  0.29754309490E+03  0.17300000000E+03 0.  1.
<mgrwt>
<rscale>  2 0.29202467E+03</rscale>
<asrwt>0</asrwt>
<pdfrwt beam="1">  1       21 0.33822122E-01 0.29202467E+03</pdfrwt>
<pdfrwt beam="2">  1       21 0.95579974E-01 0.29202467E+03</pdfrwt>
<totfact> 0.72351471E+03</totfact>
</mgrwt>
</event>
<event>
 4    1  0.4510095E+000  0.2236431E+03  0.7546771E-02  0.1131196E+00
         21   -1    0    0  501  502  0.00000000000E+00  0.00000000000E+00  0.16168621183E+03  0.16168621183E+03  0.00000000000E+00 0. -1.
         21   -1    0    0  502  503 -0.00000000000E+00 -0.00000000000E+00 -0.31271187731E+03  0.31271187731E+03  0.00000000000E+00 0. -1.
          6    1    1    2  501    0  0.20350352920E+02 -0.14026085550E+03 -0.50887373966E+02  0.22935947611E+03  0.17300000000E+03 0. -1.
         -6    1    1    2    0  503 -0.20350352920E+02  0.14026085550E+03 -0.10013829152E+03  0.24503861304E+03  0.17300000000E+03 0. -1.
<mgrwt>
<rscale>  2 0.22364312E+03</rscale>
<asrwt>0</asrwt>
<pdfrwt beam="1">  1       21 0.24874802E-01 0.22364312E+03</pdfrwt>
<pdfrwt beam="2">  1       21 0.48109519E-01 0.22364312E+03</pdfrwt>
<totfact> 0.62268134E+04</totfact>
</mgrwt>
</event>
<event>
 4    1  0.4510095E+000  0.2484373E+03  0.7546771E-02  0.1114296E+00
         21   -1    0    0  503  502  0.00000000000E+00  0.00000000000E+00  0.17438875790E+04  0.17438875790E+04  0.00000000000E+00 0. -1.
         21   -1    0    0  501  503 -0.00000000000E+00 -0.00000000000E+00 -0.12964653907E+03  0.12964653907E+03  0.00000000000E+00 0.  1.
          6    1    1    2  501    0  0.11758214947E+03 -0.13403937765E+03  0.83898306366E+01  0.24857897315E+03  0.17300000000E+03 0.  1.
         -6    1    1    2    0  502 -0.11758214947E+03  0.13403937765E+03  0.16058512093E+04  0.16249551449E+04  0.17300000000E+03 0. -1.
<mgrwt>
<rscale>  2 0.24843735E+03</rscale>
<asrwt>0</asrwt>
<pdfrwt beam="1">  1       21 0.26829038E+00 0.24843735E+03</pdfrwt>
<pdfrwt beam="2">  1       21 0.19945623E-01 0.24843735E+03</pdfrwt>
<totfact> 0.11337265E+03</totfact>
</mgrwt>
</event>
<event>
 4    1  0.4510095E+000  0.1792469E+03  0.7546771E-02  0.1168534E+00
         21   -1    0    0  501  502  0.00000000000E+00  0.00000000000E+00  0.94885877569E+02  0.94885877569E+02  0.00000000000E+00 0.  1.
         21   -1    0    0  502  503 -0.00000000000E+00 -0.00000000000E+00 -0.69789036864E+03  0.69789036864E+03  0.00000000000E+00 0.  1.
          6    1    1    2  501    0  0.43649286450E+02 -0.17180746865E+02 -0.17093505331E+02  0.18006006274E+03  0.17300000000E+03 0.  1.
         -6    1    1    2    0  503 -0.43649286450E+02  0.17180746865E+02 -0.58591098574E+03  0.61271618347E+03  0.17300000000E+03 0.  1.
<mgrwt>
<rscale>  2 0.17924686E+03</rscale>
<asrwt>0</asrwt>
<pdfrwt beam="1">  1       21 0.14597828E-01 0.17924686E+03</pdfrwt>
<pdfrwt beam="2">  1       21 0.10736775E+00 0.17924686E+03</pdfrwt>
<totfact> 0.28762589E+04</totfact>
</mgrwt>
</event>
<event>
 4    1  0.4510095E+000  0.3210346E+03  0.7546771E-02  0.1075174E+00
         21   -1    0    0  503  502  0.00000000000E+00  0.00000000000E+00  0.15355886873E+03  0.15355886873E+03  0.00000000000E+00 0.  1.
         21   -1    0    0  501  503 -0.00000000000E+00 -0.00000000000E+00 -0.67533186444E+03  0.67533186444E+03  0.00000000000E+00 0.  1.
          6    1    1    2  501    0  0.18011495342E+03 -0.20172462688E+03 -0.29344413807E+03  0.43493986217E+03  0.17300000000E+03 0.  1.
         -6    1    1    2    0  502 -0.18011495342E+03  0.20172462688E+03 -0.22832885764E+03  0.39395087101E+03  0.17300000000E+03 0.  1.
<mgrwt>
<rscale>  2 0.32103461E+03</rscale>
<asrwt>0</asrwt>
<pdfrwt beam="1">  1       21 0.23624442E-01 0.32103461E+03</pdfrwt>
<pdfrwt beam="2">  1       21 0.10389721E+00 0.32103461E+03</pdfrwt>
<totfact> 0.11792799E+04</totfact>
</mgrwt>
</event>
<event>
 4    1  0.4510095E+000  0.2241573E+03  0.7546771E-02  0.1130821E+00
         21   -1    0    0  503  502  0.00000000000E+00  0.00000000000E+00  0.25025460634E+03  0.25025460634E+03  0.00000000000E+00 0.  1.
         21   -1    0    0  501  503 -0.00000000000E+00 -0.00000000000E+00 -0.24110393182E+03  0.24110393182E+03  0.00000000000E+00 0.  1.
          6    1    1    2  501    0  0.14200813591E+03  0.12296601607E+02 -0.95895322297E+02  0.24380818263E+03  0.17300000000E+03 0.  1.
         -6    1    1    2    0  502 -0.14200813591E+03 -0.12296601607E+02  0.10504599681E+03  0.24755035553E+03  0.17300000000E+03 0.  1.
<mgrwt>
<rscale>  2 0.22415735E+03</rscale>
<asrwt>0</asrwt>
<pdfrwt beam="1">  1       21 0.38500709E-01 0.22415735E+03</pdfrwt>
<pdfrwt beam="2">  1       21 0.37092912E-01 0.22415735E+03</pdfrwt>
<totfact> 0.44914192E+04</totfact>
</mgrwt>
</event>
<event>
 4    1  0.4510095E+000  0.1838726E+03  0.7546771E-02  0.1164107E+00
         21   -1    0    0  503  502  0.00000000000E+00  0.00000000000E+00  0.26046925616E+03  0.26046925616E+03  0.00000000000E+00 0. -1.
         21   -1    0    0  501  503 -0.00000000000E+00 -0.00000000000E+00 -0.14872457331E+03  0.14872457331E+03  0.00000000000E+00 0. -1.
          6    1    1    2  501    0 -0.53310833150E+02  0.32219450823E+02 -0.17108807624E+02  0.18466686016E+03  0.17300000000E+03 0. -1.
         -6    1    1    2    0  502  0.53310833150E+02 -0.32219450823E+02  0.12885349048E+03  0.22452696932E+03  0.17300000000E+03 0. -1.
<mgrwt>
<rscale>  2 0.18387261E+03</rscale>
<asrwt>0</asrwt>
<pdfrwt beam="1">  1       21 0.40072193E-01 0.18387261E+03</pdfrwt>
<pdfrwt beam="2">  1       21 0.22880704E-01 0.18387261E+03</pdfrwt>
<totfact> 0.10791767E+05</totfact>
</mgrwt>
</event>
<event>
 4    1  0.4510095E+000  0.2054603E+03  0.7546771E-02  0.1145212E+00
         21   -1    0    0  503  502  0.00000000000E+00  0.00000000000E+00  0.40698168216E+03  0.40698168216E+03  0.00000000000E+00 0.  1.
         21   -1    0    0  501  503 -0.00000000000E+00 -0.00000000000E+00 -0.17642745031E+03  0.17642745031E+03  0.00000000000E+00 0. -1.
          6    1    1    2  501    0  0.82922437513E+02  0.73544620813E+02 -0.71979160518E+02  0.21770379290E+03  0.17300000000E+03 0. -1.
         -6    1    1    2    0  502 -0.82922437513E+02 -0.73544620813E+02  0.30253339236E+03  0.36570533957E+03  0.17300000000E+03 0.  1.
<mgrwt>
<rscale>  2 0.20546032E+03</rscale>
<asrwt>0</asrwt>
<pdfrwt beam="1">  1       21 0.62612566E-01 0.20546032E+03</pdfrwt>
<pdfrwt beam="2">  1       21 0.27142685E-01 0.20546032E+03</pdfrwt>
<totfact> 0.30366559E+04</totfact>
</mgrwt>
</event>
<event>
 4    1  0.4510095E+000  0.2726390E+03  0.7546771E-02  0.1099779E+00
         21   -1    0    0  503  502  0.00000000000E+00  0.00000000000E+00  0.16659739015E+03  0.16659739015E+03  0.00000000000E+00 0. -1.
         21   -1    0    0  501  503 -0.00000000000E+00 -0.00000000000E+00 -0.77125926478E+03  0.77125926478E+03  0.00000000000E+00 0.  1.
          6    1    1    2  501    0 -0.20559220122E+03  0.46204580606E+02 -0.60677151571E+03  0.66520950741E+03  0.17300000000E+03 0.  1.
         -6    1    1    2    0  502  0.20559220122E+03 -0.46204580606E+02  0.21096410830E+01  0.27264714753E+03  0.17300000000E+03 0. -1.
<mgrwt>
<rscale>  2 0.27263899E+03</rscale>
<asrwt>0</asrwt>
<pdfrwt beam="1">  1       21 0.25630368E-01 0.27263899E+03</pdfrwt>
<pdfrwt beam="2">  1       21 0.11865527E+00 0.27263899E+03</pdfrwt>
<totfact> 0.74450479E+03</totfact>
</mgrwt>
</event>
<event>
 4    1  0.4510095E+000  0.3679135E+03  0.7546771E-02  0.1055494E+00
         21   -1    0    0  503  502  0.00000000000E+00  0.00000000000E+00  0.11052609999E+04  0.11052609999E+04  0.00000000000E+00 0.  1.
         21   -1    0    0  501  503 -0.00000000000E+00 -0.00000000000E+00 -0.16826474035E+03  0.16826474035E+03  0.00000000000E+00 0.  1.
          6    1    1    2  501    0 -0.22134654951E+03  0.23756488415E+03  0.13630317789E+03  0.39235051352E+03  0.17300000000E+03 0.  1.
         -6    1    1    2    0  502  0.22134654951E+03 -0.23756488415E+03  0.80069308170E+03  0.88117522676E+03  0.17300000000E+03 0.  1.
<mgrwt>
<rscale>  2 0.36791353E+03</rscale>
<asrwt>0</asrwt>
<pdfrwt beam="1">  1       21 0.17004015E+00 0.36791353E+03</pdfrwt>
<pdfrwt beam="2">  1       21 0.25886884E-01 0.36791353E+03</pdfrwt>
<totfact> 0.26831508E+03</totfact>
</mgrwt>
</event>
<event>
 4    1  0.4510095E+000  0.2008843E+03  0.7546771E-02  0.1148995E+00
         21   -1    0    0  501  502  0.00000000000E+00  0.00000000000E+00  0.52403512003E+03  0.52403512003E+03  0.00000000000E+00 0. -1.
         21   -1    0    0  502  503 -0.00000000000E+00 -0.00000000000E+00 -0.14537653661E+03  0.14537653661E+03  0.00000000000E+00 0.  1.
          6    1    1    2  501    0 -0.83133733786E+02 -0.59281548636E+02  0.41886303629E+03  0.46454360707E+03  0.17300000000E+03 0. -1.
         -6    1    1    2    0  503  0.83133733786E+02  0.59281548636E+02 -0.40204452868E+02  0.20486804956E+03  0.17300000000E+03 0.  1.
<mgrwt>
<rscale>  2 0.20088434E+03</rscale>
<asrwt>0</asrwt>
<pdfrwt beam="1">  1       21 0.80620787E-01 0.20088434E+03</pdfrwt>
<pdfrwt beam="2">  1       21 0.22365621E-01 0.20088434E+03</pdfrwt>
<totfact> 0.25168768E+04</totfact>
</mgrwt>
</event>
<event>
 4    1  0.4510095E+000  0.1985622E+03  0.7546771E-02  0.1150958E+00
         21   -1    0    0  503  502  0.00000000000E+00  0.00000000000E+00  0.18301168484E+03  0.18301168484E+03  0.00000000000E+00 0. -1.
         21   -1    0    0  501  503 -0.00000000000E+00 -0.00000000000E+00 -0.25566073262E+03  0.25566073262E+03  0.00000000000E+00 0. -1.
          6    1    1    2  501    0  0.84647642367E+02  0.48298170066E+02  0.50678786516E+02  0.20492748960E+03  0.17300000000E+03 0. -1.
         -6    1    1    2    0  502 -0.84647642367E+02 -0.48298170066E+02 -0.12332783430E+03  0.23374492786E+03  0.17300000000E+03 0. -1.
<mgrwt>
<rscale>  2 0.19856217E+03</rscale>
<asrwt>0</asrwt>
<pdfrwt beam="1">  1       21 0.28155644E-01 0.19856217E+03</pdfrwt>
<pdfrwt beam="2">  1       21 0.39332420E-01 0.19856217E+03</pdfrwt>
<totfact> 0.74919947E+04</totfact>
</mgrwt>
</event>
<event>
 4    1  0.4510095E+000  0.1915869E+03  0.7546771E-02  0.1157038E+00
         21   -1    0    0  503  502  0.00000000000E+00  0.00000000000E+00  0.13466116107E+03  0.13466116107E+03  0.00000000000E+00 0. -1.
         21   -1    0    0  501  503 -0.00000000000E+00 -0.00000000000E+00 -0.37434665927E+03  0.37434665927E+03  0.00000000000E+00 0. -1.
          6    1    1    2  501    0 -0.74693747330E+02  0.34603492885E+02 -0.25254133201E+03  0.31699003452E+03  0.17300000000E+03 0. -1.
         -6    1    1    2    0  502  0.74693747330E+02 -0.34603492885E+02  0.12855833805E+02  0.19201778582E+03  0.17300000000E+03 0. -1.
<mgrwt>
<rscale>  2 0.19158695E+03</rscale>
<asrwt>0</asrwt>
<pdfrwt beam="1">  1       21 0.20717102E-01 0.19158695E+03</pdfrwt>
<pdfrwt beam="2">  1       21 0.57591793E-01 0.19158695E+03</pdfrwt>
<totfact> 0.61160216E+04</totfact>
</mgrwt>
</event>
<event>
 4    1  0.4510095E+000  0.1908818E+03  0.7546771E-02  0.1157668E+00
         21   -1    0    0  503  502  0.00000000000E+00  0.00000000000E+00  0.34438482727E+03  0.34438482727E+03  0.00000000000E+00 0.  1.
         21   -1    0    0  501  503 -0.00000000000E+00 -0.00000000000E+00 -0.13707260455E+03  0.13707260455E+03  0.00000000000E+00 0.  1.
          6    1    1    2  501    0  0.51496554391E+02  0.62088373491E+02 -0.11327427737E+02  0.19121760342E+03  0.17300000000E+03 0.  1.
         -6    1    1    2    0  502 -0.51496554391E+02 -0.62088373491E+02  0.21863965046E+03  0.29023982840E+03  0.17300000000E+03 0.  1.
<mgrwt>
<rscale>  2 0.19088180E+03</rscale>
<asrwt>0</asrwt>
<pdfrwt beam="1">  1       21 0.52982281E-01 0.19088180E+03</pdfrwt>
<pdfrwt beam="2">  1       21 0.21088093E-01 0.19088180E+03</pdfrwt>
<totfact> 0.70604965E+04</totfact>
</mgrwt>
</event>
<event>
 4    1  0.4510095E+000  0.1920134E+03  0.7546771E-02  0.1156658E+00
         21   -1    0    0  501  502  0.00000000000E+00  0.00000000000E+00  0.38102811741E+03  0.38102811741E+03  0.00000000000E+00 0.  1.
         21   -1    0    0  502  503 -0.00000000000E+00 -0.00000000000E+00 -0.12311326779E+03  0.12311326779E+03  0.00000000000E+00 0.  1.
          6    1    1    2  501    0  0.49474800194E+02 -0.67025387680E+02  0.24557612032E+03  0.31173191899E+03  0.17300000000E+03 0.  1.
         -6    1    1    2    0  503 -0.49474800194E+02  0.67025387680E+02  0.12338729303E+02  0.19240946621E+03  0.17300000000E+03 0.  1.
<mgrwt>
<rscale>  2 0.19201343E+03</rscale>
<asrwt>0</asrwt>
<pdfrwt beam="1">  1       21 0.58619710E-01 0.19201343E+03</pdfrwt>
<pdfrwt beam="2">  1       21 0.18940503E-01 0.19201343E+03</pdfrwt>
<totfact> 0.69605178E+04</totfact>
</mgrwt>
</event>
<event>
 4    1  0.4510095E+000  0.2283223E+03  0.7546771E-02  0.1127826E+00
         21   -1    0    0  501  502  0.00000000000E+00  0.00000000000E+00  0.32249401390E+03  0.32249401390E+03  0.00000000000E+00 0. -1.
         21   -1    0    0  502  503 -0.00000000000E+00 -0.00000000000E+00 -0.28285815796E+03  0.28285815796E+03  0.00000000000E+00 0.  1.
          6    1    1    2  501    0 -0.14759629426E+03  0.20430831474E+02  0.21795241852E+03  0.31564907998E+03  0.17300000000E+03 0. -1.
         -6    1    1    2    0  503  0.14759629426E+03 -0.20430831474E+02 -0.17831656258E+03  0.28970309188E+03  0.17300000000E+03 0.  1.
<mgrwt>
<rscale>  2 0.22832233E+03</rscale>
<asrwt>0</asrwt>
<pdfrwt beam="1">  1       21 0.49614464E-01 0.22832233E+03</pdfrwt>
<pdfrwt beam="2">  1       21 0.43516640E-01 0.22832233E+03</pdfrwt>
<totfact> 0.19254216E+04</totfact>
</mgrwt>
</event>
<event>
 4    1  0.4510095E+000  0.1813464E+03  0.7546771E-02  0.1166506E+00
         21   -1    0    0  501  502  0.00000000000E+00  0.00000000000E+00  0.12956202284E+03  0.12956202284E+03  0.00000000000E+00 0. -1.
         21   -1    0    0  502  503 -0.00000000000E+00 -0.00000000000E+00 -0.25508958654E+03  0.25508958654E+03  0.00000000000E+00 0. -1.
          6    1    1    2  501    0 -0.43779702057E+02  0.32262083889E+02 -0.76287711493E+02  0.19673921646E+03  0.17300000000E+03 0. -1.
         -6    1    1    2    0  503  0.43779702057E+02 -0.32262083889E+02 -0.49239852201E+02  0.18791239292E+03  0.17300000000E+03 0. -1.
<mgrwt>
<rscale>  2 0.18134637E+03</rscale>
<asrwt>0</asrwt>
<pdfrwt beam="1">  1       21 0.19932619E-01 0.18134637E+03</pdfrwt>
<pdfrwt beam="2">  1       21 0.39244551E-01 0.18134637E+03</pdfrwt>
<totfact> 0.14594354E+05</totfact>
</mgrwt>
</event>
<event>
 4    1  0.4510095E+000  0.2348326E+03  0.7546771E-02  0.1123284E+00
         21   -1    0    0  501  502  0.00000000000E+00  0.00000000000E+00  0.68194600632E+02  0.68194600632E+02  0.00000000000E+00 0.  1.
         21   -1    0    0  502  503 -0.00000000000E+00 -0.00000000000E+00 -0.80923254485E+03  0.80923254485E+03  0.00000000000E+00 0. -1.
          6    1    1    2  501    0  0.14921832900E+03 -0.54325360432E+02 -0.35886581756E+03  0.42887181011E+03  0.17300000000E+03 0.  1.
         -6    1    1    2    0  503 -0.14921832900E+03  0.54325360432E+02 -0.38217212665E+03  0.44855533536E+03  0.17300000000E+03 0.  1.
<mgrwt>
<rscale>  2 0.23483261E+03</rscale>
<asrwt>0</asrwt>
<pdfrwt beam="1">  1       21 0.10491477E-01 0.23483261E+03</pdfrwt>
<pdfrwt beam="2">  1       21 0.12449731E+00 0.23483261E+03</pdfrwt>
<totfact> 0.35104055E+04</totfact>
</mgrwt>
</event>
<event>
 4    1  0.4510095E+000  0.2055130E+03  0.7546771E-02  0.1145169E+00
         21   -1    0    0  501  502  0.00000000000E+00  0.00000000000E+00  0.48931247096E+03  0.48931247096E+03  0.00000000000E+00 0. -1.
         21   -1    0    0  502  503 -0.00000000000E+00 -0.00000000000E+00 -0.11463465955E+03  0.11463465955E+03  0.00000000000E+00 0.  1.
          6    1    1    2  501    0 -0.10819865516E+03 -0.24487736812E+02  0.33742680741E+03  0.39508536874E+03  0.17300000000E+03 0. -1.
         -6    1    1    2    0  503  0.10819865516E+03  0.24487736812E+02  0.37251004001E+02  0.20886176178E+03  0.17300000000E+03 0.  1.
<mgrwt>
<rscale>  2 0.20551301E+03</rscale>
<asrwt>0</asrwt>
<pdfrwt beam="1">  1       21 0.75278840E-01 0.20551301E+03</pdfrwt>
<pdfrwt beam="2">  1       21 0.17636102E-01 0.20551301E+03</pdfrwt>
<totfact> 0.45673238E+04</totfact>
</mgrwt>
</event>
<event>
 4    1  0.4510095E+000  0.2121880E+03  0.7546771E-02  0.1139845E+00
         21   -1    0    0  503  502  0.00000000000E+00  0.00000000000E+00  0.47856422666E+02  0.47856422666E+02  0.00000000000E+00 0. -1.
         21   -1    0    0  501  503 -0.00000000000E+00 -0.00000000000E+00 -0.11392179003E+04  0.11392179003E+04  0.00000000000E+00 0.  1.
          6    1    1    2  501    0 -0.16642708538E+01 -0.12284938203E+03 -0.79338038173E+03  0.82126498195E+03  0.17300000000E+03 0.  1.
         -6    1    1    2    0  502  0.16642708538E+01  0.12284938203E+03 -0.29798109593E+03  0.36580934104E+03  0.17300000000E+03 0. -1.
<mgrwt>
<rscale>  2 0.21218798E+03</rscale>
<asrwt>0</asrwt>
<pdfrwt beam="1">  1       21 0.73625268E-02 0.21218798E+03</pdfrwt>
<pdfrwt beam="2">  1       21 0.17526429E+00 0.21218798E+03</pdfrwt>
<totfact> 0.26829607E+04</totfact>
</mgrwt>
</event>
<event>
 4    1  0.4510095E+000  0.1884755E+03  0.7546771E-02  0.1159844E+00
         21   -1    0    0  501  502  0.00000000000E+00  0.00000000000E+00  0.54232140759E+02  0.54232140759E+02  0.00000000000E+00 0.  1.
         21   -1    0    0  502  503 -0.00000000000E+00 -0.00000000000E+00 -0.73207015452E+03  0.73207015452E+03  0.00000000000E+00 0.  1.
          6    1    1    2  501    0 -0.19409693378E+02  0.72230806368E+02 -0.46646761842E+03  0.50310542098E+03  0.17300000000E+03 0.  1.
         -6    1    1    2    0  503  0.19409693378E+02 -0.72230806368E+02 -0.21137039534E+03  0.28319687430E+03  0.17300000000E+03 0.  1.
<mgrwt>
<rscale>  2 0.18847553E+03</rscale>
<asrwt>0</asrwt>
<pdfrwt beam="1">  1       21 0.83434060E-02 0.18847553E+03</pdfrwt>
<pdfrwt beam="2">  1       21 0.11262618E+00 0.18847553E+03</pdfrwt>
<totfact> 0.68922872E+04</totfact>
</mgrwt>
</event>
<event>
 4    1  0.4510095E+000  0.1738946E+03  0.7546771E-02  0.1173846E+00
         21   -1    0    0  503  502  0.00000000000E+00  0.00000000000E+00  0.12245214336E+03  0.12245214336E+03  0.00000000000E+00 0.  1.
         21   -1    0    0  501  503 -0.00000000000E+00 -0.00000000000E+00 -0.30622928673E+03  0.30622928673E+03  0.00000000000E+00 0.  1.
          6    1    1    2  501    0  0.14328481927E+02 -0.10248519912E+02 -0.18619457876E+03  0.25477001141E+03  0.17300000000E+03 0.  1.
         -6    1    1    2    0  502 -0.14328481927E+02  0.10248519912E+02  0.24174353787E+01  0.17391141868E+03  0.17300000000E+03 0.  1.
<mgrwt>
<rscale>  2 0.17389462E+03</rscale>
<asrwt>0</asrwt>
<pdfrwt beam="1">  1       21 0.18838792E-01 0.17389462E+03</pdfrwt>
<pdfrwt beam="2">  1       21 0.47112197E-01 0.17389462E+03</pdfrwt>
<totfact> 0.11201767E+05</totfact>
</mgrwt>
</event>
<event>
 4    1  0.4510095E+000  0.2440776E+03  0.7546771E-02  0.1117106E+00
         21   -1    0    0  501  502  0.00000000000E+00  0.00000000000E+00  0.72589610256E+03  0.72589610256E+03  0.00000000000E+00 0.  1.
         21   -1    0    0  502  503 -0.00000000000E+00 -0.00000000000E+00 -0.39198027529E+03  0.39198027529E+03  0.00000000000E+00 0. -1.
          6    1    1    2  501    0  0.13870736337E+03 -0.10200552826E+03  0.66395069654E+03  0.70739266881E+03  0.17300000000E+03 0.  1.
         -6    1    1    2    0  503 -0.13870736337E+03  0.10200552826E+03 -0.33003486928E+03  0.41048370904E+03  0.17300000000E+03 0. -1.
<mgrwt>
<rscale>  2 0.24407757E+03</rscale>
<asrwt>0</asrwt>
<pdfrwt beam="1">  1       21 0.11167632E+00 0.24407757E+03</pdfrwt>
<pdfrwt beam="2">  1       21 0.60304658E-01 0.24407757E+03</pdfrwt>
<totfact> 0.15436450E+03</totfact>
</mgrwt>
</event>
<event>
 4    1  0.4510095E+000  0.1850787E+03  0.7546771E-02  0.1162976E+00
         21   -1    0    0  501  502  0.00000000000E+00  0.00000000000E+00  0.83649343228E+03  0.83649343228E+03  0.00000000000E+00 0. -1.
         21   -1    0    0  502  503 -0.00000000000E+00 -0.00000000000E+00 -0.42293159197E+02  0.42293159197E+02  0.00000000000E+00 0.  1.
          6    1    1    2  501    0 -0.23191307902E+02 -0.61541022521E+02  0.31878699623E+03  0.36861807224E+03  0.17300000000E+03 0.  1.
         -6    1    1    2    0  503  0.23191307902E+02  0.61541022521E+02  0.47541327686E+03  0.51016851924E+03  0.17300000000E+03 0. -1.
<mgrwt>
<rscale>  2 0.18507872E+03</rscale>
<asrwt>0</asrwt>
<pdfrwt beam="1">  1       21 0.12869129E+00 0.18507872E+03</pdfrwt>
<pdfrwt beam="2">  1       21 0.65066405E-02 0.18507872E+03</pdfrwt>
<totfact> 0.76352767E+04</totfact>
</mgrwt>
</event>
<event>
 4    1  0.4510095E+000  0.1855102E+03  0.7546771E-02  0.1162574E+00
         21   -1    0    0  501  502  0.00000000000E+00  0.00000000000E+00  0.92712794272E+02  0.92712794272E+02  0.00000000000E+00 0. -1.
         21   -1    0    0  502  503 -0.00000000000E+00 -0.00000000000E+00 -0.44564239641E+03  0.44564239641E+03  0.00000000000E+00 0.  1.
          6    1    1    2  501    0 -0.47406517527E+02 -0.47303816709E+02 -0.28648844924E+03  0.34130581672E+03  0.17300000000E+03 0.  1.
         -6    1    1    2    0  503  0.47406517527E+02  0.47303816709E+02 -0.66441152894E+02  0.19704937396E+03  0.17300000000E+03 0. -1.
<mgrwt>
<rscale>  2 0.18551019E+03</rscale>
<asrwt>0</asrwt>
<pdfrwt beam="1">  1       21 0.14263507E-01 0.18551019E+03</pdfrwt>
<pdfrwt beam="2">  1       21 0.68560369E-01 0.18551019E+03</pdfrwt>
<totfact> 0.83621125E+04</totfact>
</mgrwt>
</event>
<event>
 4    1  0.4510095E+000  0.1740087E+03  0.7546771E-02  0.1173731E+00
         21   -1    0    0  503  502  0.00000000000E+00  0.00000000000E+00  0.83024045709E+03  0.83024045709E+03  0.00000000000E+00 0. -1.
         21   -1    0    0  501  503 -0.00000000000E+00 -0.00000000000E+00 -0.40274792292E+02  0.40274792292E+02  0.00000000000E+00 0. -1.
          6    1    1    2  501    0 -0.25975429116E+01 -0.18528021476E+02  0.26120509586E+03  0.31385846637E+03  0.17300000000E+03 0. -1.
         -6    1    1    2    0  502  0.25975429116E+01  0.18528021476E+02  0.52876056894E+03  0.55665678301E+03  0.17300000000E+03 0. -1.
<mgrwt>
<rscale>  2 0.17400872E+03</rscale>
<asrwt>0</asrwt>
<pdfrwt beam="1">  1       21 0.12772929E+00 0.17400872E+03</pdfrwt>
<pdfrwt beam="2">  1       21 0.61961225E-02 0.17400872E+03</pdfrwt>
<totfact> 0.85061458E+04</totfact>
</mgrwt>
</event>
<event>
 4    1  0.4510095E+000  0.1751399E+03  0.7546771E-02  0.1172591E+00
         21   -1    0    0  503  502  0.00000000000E+00  0.00000000000E+00  0.48295969583E+02  0.48295969583E+02  0.00000000000E+00 0.  1.
         21   -1    0    0  501  503 -0.00000000000E+00 -0.00000000000E+00 -0.63540848161E+03  0.63540848161E+03  0.00000000000E+00 0.  1.
          6    1    1    2  501    0  0.26457864730E+02 -0.67051545499E+01 -0.28633564413E+03  0.33565172247E+03  0.17300000000E+03 0.  1.
         -6    1    1    2    0  502 -0.26457864730E+02  0.67051545499E+01 -0.30077686791E+03  0.34805272872E+03  0.17300000000E+03 0.  1.
<mgrwt>
<rscale>  2 0.17513988E+03</rscale>
<asrwt>0</asrwt>
<pdfrwt beam="1">  1       21 0.74301494E-02 0.17513988E+03</pdfrwt>
<pdfrwt beam="2">  1       21 0.97755148E-01 0.17513988E+03</pdfrwt>
<totfact> 0.11899234E+05</totfact>
</mgrwt>
</event>
<event>
 4    1  0.4510095E+000  0.1905684E+03  0.7546771E-02  0.1157950E+00
         21   -1    0    0  501  502  0.00000000000E+00  0.00000000000E+00  0.15438217045E+03  0.15438217045E+03  0.00000000000E+00 0. -1.
         21   -1    0    0  502  503 -0.00000000000E+00 -0.00000000000E+00 -0.25057368691E+03  0.25057368691E+03  0.00000000000E+00 0. -1.
          6    1    1    2  501    0  0.70350132243E+02  0.37923202572E+02  0.19980242230E+01  0.19057886163E+03  0.17300000000E+03 0. -1.
         -6    1    1    2    0  503 -0.70350132243E+02 -0.37923202572E+02 -0.98189540686E+02  0.21437699573E+03  0.17300000000E+03 0. -1.
<mgrwt>
<rscale>  2 0.19056839E+03</rscale>
<asrwt>0</asrwt>
<pdfrwt beam="1">  1       21 0.23751103E-01 0.19056839E+03</pdfrwt>
<pdfrwt beam="2">  1       21 0.38549798E-01 0.19056839E+03</pdfrwt>
<totfact> 0.10844396E+05</totfact>
</mgrwt>
</event>
<event>
 4    1  0.4510095E+000  0.1735328E+03  0.7546771E-02  0.1174213E+00
         21   -1    0    0  501  502  0.00000000000E+00  0.00000000000E+00  0.13473216986E+03  0.13473216986E+03  0.00000000000E+00 0.  1.
         21   -1    0    0  502  503 -0.00000000000E+00 -0.00000000000E+00 -0.43366656257E+03  0.43366656257E+03  0.00000000000E+00 0.  1.
          6    1    1    2  501    0 -0.13345280815E+01  0.13521719508E+02  0.48375238159E+02  0.18014933120E+03  0.17300000000E+03 0.  1.
         -6    1    1    2    0  503  0.13345280815E+01 -0.13521719508E+02 -0.34730963087E+03  0.38824940123E+03  0.17300000000E+03 0.  1.
<mgrwt>
<rscale>  2 0.17353276E+03</rscale>
<asrwt>0</asrwt>
<pdfrwt beam="1">  1       21 0.20728026E-01 0.17353276E+03</pdfrwt>
<pdfrwt beam="2">  1       21 0.66717933E-01 0.17353276E+03</pdfrwt>
<totfact> 0.44876796E+04</totfact>
</mgrwt>
</event>
<event>
 4    1  0.4510095E+000  0.2000724E+03  0.7546771E-02  0.1149678E+00
         21   -1    0    0  501  502  0.00000000000E+00  0.00000000000E+00  0.14430284926E+04  0.14430284926E+04  0.00000000000E+00 0.  1.
         21   -1    0    0  502  503 -0.00000000000E+00 -0.00000000000E+00 -0.30078026652E+02  0.30078026652E+02  0.00000000000E+00 0.  1.
          6    1    1    2  501    0  0.49893841981E+02 -0.87238474192E+02  0.91184992125E+03  0.93354122872E+03  0.17300000000E+03 0. -1.
         -6    1    1    2    0  503 -0.49893841981E+02  0.87238474192E+02  0.50110054474E+03  0.53956529057E+03  0.17300000000E+03 0. -1.
<mgrwt>
<rscale>  2 0.20007235E+03</rscale>
<asrwt>0</asrwt>
<pdfrwt beam="1">  1       21 0.22200433E+00 0.20007235E+03</pdfrwt>
<pdfrwt beam="2">  1       21 0.46273898E-02 0.20007235E+03</pdfrwt>
<totfact> 0.29820210E+04</totfact>
</mgrwt>
</event>
<event>
 4    1  0.4510095E+000  0.2542989E+03  0.7546771E-02  0.1110618E+00
         21   -1    0    0  501  502  0.00000000000E+00  0.00000000000E+00  0.37982483593E+02  0.37982483593E+02  0.00000000000E+00 0.  1.
         21   -1    0    0  502  503 -0.00000000000E+00 -0.00000000000E+00 -0.20157017410E+04  0.20157017410E+04  0.00000000000E+00 0.  1.
          6    1    1    2  501    0  0.18200272955E+03 -0.40174088036E+02 -0.58414210966E+03  0.63709493421E+03  0.17300000000E+03 0.  1.
         -6    1    1    2    0  503 -0.18200272955E+03  0.40174088036E+02 -0.13935771477E+04  0.14165892903E+04  0.17300000000E+03 0.  1.
<mgrwt>
<rscale>  2 0.25429894E+03</rscale>
<asrwt>0</asrwt>
<pdfrwt beam="1">  1       21 0.58434583E-02 0.25429894E+03</pdfrwt>
<pdfrwt beam="2">  1       21 0.31010800E+00 0.25429894E+03</pdfrwt>
<totfact> 0.57841182E+03</totfact>
</mgrwt>
</event>
<event>
 4    1  0.4510095E+000  0.1795136E+03  0.7546771E-02  0.1168275E+00
         21   -1    0    0  501  502  0.00000000000E+00  0.00000000000E+00  0.30724128603E+03  0.30724128603E+03  0.00000000000E+00 0. -1.
         21   -1    0    0  502  503 -0.00000000000E+00 -0.00000000000E+00 -0.12353585808E+03  0.12353585808E+03  0.00000000000E+00 0. -1.
          6    1    1    2  501    0 -0.44074186398E+02 -0.18804462686E+02  0.17554207726E+03  0.25107800105E+03  0.17300000000E+03 0. -1.
         -6    1    1    2    0  503  0.44074186398E+02  0.18804462686E+02  0.81633506999E+01  0.17969914306E+03  0.17300000000E+03 0. -1.
<mgrwt>
<rscale>  2 0.17951363E+03</rscale>
<asrwt>0</asrwt>
<pdfrwt beam="1">  1       21 0.47267890E-01 0.17951363E+03</pdfrwt>
<pdfrwt beam="2">  1       21 0.19005517E-01 0.17951363E+03</pdfrwt>
<totfact> 0.10922232E+05</totfact>
</mgrwt>
</event>
<event>
 4    1  0.4510095E+000  0.1995128E+03  0.7546771E-02  0.1150151E+00
         21   -1    0    0  501  502  0.00000000000E+00  0.00000000000E+00  0.31386411999E+03  0.31386411999E+03  0.00000000000E+00 0.  1.
         21   -1    0    0  502  503 -0.00000000000E+00 -0.00000000000E+00 -0.12737208082E+03  0.12737208082E+03  0.00000000000E+00 0.  1.
          6    1    1    2  501    0  0.92421061866E+02  0.36533581495E+02  0.78767874104E+02  0.21449879544E+03  0.17300000000E+03 0.  1.
         -6    1    1    2    0  503 -0.92421061866E+02 -0.36533581495E+02  0.10772416507E+03  0.22673740537E+03  0.17300000000E+03 0.  1.
<mgrwt>
<rscale>  2 0.19951279E+03</rscale>
<asrwt>0</asrwt>
<pdfrwt beam="1">  1       21 0.48286788E-01 0.19951279E+03</pdfrwt>
<pdfrwt beam="2">  1       21 0.19595705E-01 0.19951279E+03</pdfrwt>
<totfact> 0.97970960E+04</totfact>
</mgrwt>
</event>
<event>
 4    1  0.4510095E+000  0.1730323E+03  0.7546771E-02  0.1174722E+00
         21   -1    0    0  503  502  0.00000000000E+00  0.00000000000E+00  0.90040938337E+03  0.90040938337E+03  0.00000000000E+00 0. -1.
         21   -1    0    0  501  503 -0.00000000000E+00 -0.00000000000E+00 -0.47397499375E+02  0.47397499375E+02  0.00000000000E+00 0. -1.
          6    1    1    2  501    0 -0.90732103055E+00 -0.32191108571E+01  0.16761005073E+03  0.24090104818E+03  0.17300000000E+03 0. -1.
         -6    1    1    2    0  502  0.90732103055E+00  0.32191108571E+01  0.68540183327E+03  0.70690583457E+03  0.17300000000E+03 0. -1.
<mgrwt>
<rscale>  2 0.17303233E+03</rscale>
<asrwt>0</asrwt>
<pdfrwt beam="1">  1       21 0.13852451E+00 0.17303233E+03</pdfrwt>
<pdfrwt beam="2">  1       21 0.72919237E-02 0.17303233E+03</pdfrwt>
<totfact> 0.52392024E+04</totfact>
</mgrwt>
</event>
<event>
 4    1  0.4510095E+000  0.3375557E+03  0.7546771E-02  0.1067842E+00
         21   -1    0    0  501  502  0.00000000000E+00  0.00000000000E+00  0.50000342432E+03  0.50000342432E+03  0.00000000000E+00 0.  1.
         21   -1    0    0  502  503 -0.00000000000E+00 -0.00000000000E+00 -0.42149158885E+03  0.42149158885E+03  0.00000000000E+00 0. -1.
          6    1    1    2  501    0  0.21891091019E+03  0.18998130856E+03  0.35152375076E+03  0.48735288196E+03  0.17300000000E+03 0.  1.
         -6    1    1    2    0  503 -0.21891091019E+03 -0.18998130856E+03 -0.27301191529E+03  0.43414213121E+03  0.17300000000E+03 0. -1.
<mgrwt>
<rscale>  2 0.33755575E+03</rscale>
<asrwt>0</asrwt>
<pdfrwt beam="1">  1       21 0.76923604E-01 0.33755575E+03</pdfrwt>
<pdfrwt beam="2">  1       21 0.64844860E-01 0.33755575E+03</pdfrwt>
<totfact> 0.29994773E+03</totfact>
</mgrwt>
</event>
<event>
 4    1  0.4510095E+000  0.2052729E+03  0.7546771E-02  0.1145365E+00
         21   -1    0    0  501  502  0.00000000000E+00  0.00000000000E+00  0.18447924169E+03  0.18447924169E+03  0.00000000000E+00 0. -1.
         21   -1    0    0  502  503 -0.00000000000E+00 -0.00000000000E+00 -0.36734890976E+03  0.36734890976E+03  0.00000000000E+00 0. -1.
          6    1    1    2  501    0 -0.77407910722E+02  0.78841599858E+02  0.78251064963E+02  0.21968206954E+03  0.17300000000E+03 0. -1.
         -6    1    1    2    0  503  0.77407910722E+02 -0.78841599858E+02 -0.26112073302E+03  0.33214608191E+03  0.17300000000E+03 0. -1.
<mgrwt>
<rscale>  2 0.20527295E+03</rscale>
<asrwt>0</asrwt>
<pdfrwt beam="1">  1       21 0.28381422E-01 0.20527295E+03</pdfrwt>
<pdfrwt beam="2">  1       21 0.56515217E-01 0.20527295E+03</pdfrwt>
<totfact> 0.34713338E+04</totfact>
</mgrwt>
</event>
<event>
 4    1  0.4510095E+000  0.2004428E+03  0.7546771E-02  0.1149366E+00
         21   -1    0    0  503  502  0.00000000000E+00  0.00000000000E+00  0.25092552134E+03  0.25092552134E+03  0.00000000000E+00 0. -1.
         21   -1    0    0  501  503 -0.00000000000E+00 -0.00000000000E+00 -0.17426291432E+03  0.17426291432E+03  0.00000000000E+00 0. -1.
          6    1    1    2  501    0 -0.26794390474E+02 -0.97623676760E+02 -0.22240683304E+02  0.20167292733E+03  0.17300000000E+03 0. -1.
         -6    1    1    2    0  502  0.26794390474E+02  0.97623676760E+02  0.98903290324E+02  0.22351550833E+03  0.17300000000E+03 0. -1.
<mgrwt>
<rscale>  2 0.20044281E+03</rscale>
<asrwt>0</asrwt>
<pdfrwt beam="1">  1       21 0.38603927E-01 0.20044281E+03</pdfrwt>
<pdfrwt beam="2">  1       21 0.26809679E-01 0.20044281E+03</pdfrwt>
<totfact> 0.85442301E+04</totfact>
</mgrwt>
</event>
<event>
 4    1  0.4510095E+000  0.2123340E+03  0.7546771E-02  0.1139731E+00
         21   -1    0    0  501  502  0.00000000000E+00  0.00000000000E+00  0.86985756673E+03  0.86985756673E+03  0.00000000000E+00 0. -1.
         21   -1    0    0  502  503 -0.00000000000E+00 -0.00000000000E+00 -0.54388965457E+02  0.54388965457E+02  0.00000000000E+00 0. -1.
          6    1    1    2  501    0  0.12043926202E+03 -0.25516730273E+02  0.50795026454E+03  0.55054444925E+03  0.17300000000E+03 0. -1.
         -6    1    1    2    0  503 -0.12043926202E+03  0.25516730273E+02  0.30751833673E+03  0.37370208293E+03  0.17300000000E+03 0. -1.
<mgrwt>
<rscale>  2 0.21233398E+03</rscale>
<asrwt>0</asrwt>
<pdfrwt beam="1">  1       21 0.13382423E+00 0.21233398E+03</pdfrwt>
<pdfrwt beam="2">  1       21 0.83675338E-02 0.21233398E+03</pdfrwt>
<totfact> 0.44088512E+04</totfact>
</mgrwt>
</event>
<event>
 4    1  0.4510095E+000  0.1761442E+03  0.7546771E-02  0.1171588E+00
         21   -1    0    0  503  502  0.00000000000E+00  0.00000000000E+00  0.78045854767E+02  0.78045854767E+02  0.00000000000E+00 0.  1.
         21   -1    0    0  501  503 -0.00000000000E+00 -0.00000000000E+00 -0.58316843130E+03  0.58316843130E+03  0.00000000000E+00 0.  1.
          6    1    1    2  501    0 -0.17135556179E+02  0.28357738823E+02 -0.43908364265E+03  0.47309748877E+03  0.17300000000E+03 0.  1.
         -6    1    1    2    0  502  0.17135556179E+02 -0.28357738823E+02 -0.66038933882E+02  0.18811679730E+03  0.17300000000E+03 0.  1.
<mgrwt>
<rscale>  2 0.17614423E+03</rscale>
<asrwt>0</asrwt>
<pdfrwt beam="1">  1       21 0.12007055E-01 0.17614423E+03</pdfrwt>
<pdfrwt beam="2">  1       21 0.89718219E-01 0.17614423E+03</pdfrwt>
<totfact> 0.62512588E+04</totfact>
</mgrwt>
</event>
<event>
 4    1  0.4510095E+000  0.2407127E+03  0.7546771E-02  0.1119319E+00
         21   -1    0    0  503  502  0.00000000000E+00  0.00000000000E+00  0.21578602784E+03  0.21578602784E+03  0.00000000000E+00 0. -1.
         21   -1    0    0  501  503 -0.00000000000E+00 -0.00000000000E+00 -0.34020492027E+03  0.34020492027E+03  0.00000000000E+00 0. -1.
          6    1    1    2  501    0  0.50935827036E+02 -0.15943388886E+03 -0.18981944772E+03  0.30655186531E+03  0.17300000000E+03 0. -1.
         -6    1    1    2    0  502 -0.50935827036E+02  0.15943388886E+03  0.65400555290E+02  0.24943908280E+03  0.17300000000E+03 0. -1.
<mgrwt>
<rscale>  2 0.24071274E+03</rscale>
<asrwt>0</asrwt>
<pdfrwt beam="1">  1       21 0.33197851E-01 0.24071274E+03</pdfrwt>
<pdfrwt beam="2">  1       21 0.52339218E-01 0.24071274E+03</pdfrwt>
<totfact> 0.29517923E+04</totfact>
</mgrwt>
</event>
<event>
 4    1  0.4510095E+000  0.2006447E+03  0.7546771E-02  0.1149196E+00
         21   -1    0    0  503  502  0.00000000000E+00  0.00000000000E+00  0.31863247739E+03  0.31863247739E+03  0.00000000000E+00 0. -1.
         21   -1    0    0  501  503 -0.00000000000E+00 -0.00000000000E+00 -0.14868791009E+03  0.14868791009E+03  0.00000000000E+00 0. -1.
          6    1    1    2  501    0 -0.85202988620E+02 -0.55405122832E+02 -0.56002978058E+01  0.20072279452E+03  0.17300000000E+03 0. -1.
         -6    1    1    2    0  502  0.85202988620E+02  0.55405122832E+02  0.17554486510E+03  0.26659759296E+03  0.17300000000E+03 0. -1.
<mgrwt>
<rscale>  2 0.20064465E+03</rscale>
<asrwt>0</asrwt>
<pdfrwt beam="1">  1       21 0.49020381E-01 0.20064465E+03</pdfrwt>
<pdfrwt beam="2">  1       21 0.22875063E-01 0.20064465E+03</pdfrwt>
<totfact> 0.70950091E+04</totfact>
</mgrwt>
</event>
<event>
 4    1  0.4510095E+000  0.1832301E+03  0.7546771E-02  0.1164713E+00
         21   -1    0    0  503  502  0.00000000000E+00  0.00000000000E+00  0.66908343025E+03  0.66908343025E+03  0.00000000000E+00 0. -1.
         21   -1    0    0  501  503 -0.00000000000E+00 -0.00000000000E+00 -0.50834010491E+02  0.50834010491E+02  0.00000000000E+00 0. -1.
          6    1    1    2  501    0  0.60062386889E+02  0.60634767408E+01  0.35001658129E+03  0.39507576899E+03  0.17300000000E+03 0. -1.
         -6    1    1    2    0  502 -0.60062386889E+02 -0.60634767408E+01  0.26823283847E+03  0.32484167174E+03  0.17300000000E+03 0. -1.
<mgrwt>
<rscale>  2 0.18323006E+03</rscale>
<asrwt>0</asrwt>
<pdfrwt beam="1">  1       21 0.10293591E+00 0.18323006E+03</pdfrwt>
<pdfrwt beam="2">  1       21 0.78206175E-02 0.18323006E+03</pdfrwt>
<totfact> 0.96024696E+04</totfact>
</mgrwt>
</event>
<event>
 4    1  0.4510095E+000  0.3398410E+03  0.7546771E-02  0.1066864E+00
         21   -1    0    0  501  502  0.00000000000E+00  0.00000000000E+00  0.96507646674E+03  0.96507646674E+03  0.00000000000E+00 0. -1.
         21   -1    0    0  502  503 -0.00000000000E+00 -0.00000000000E+00 -0.14410200199E+03  0.14410200199E+03  0.00000000000E+00 0. -1.
          6    1    1    2  501    0  0.19473230556E+03 -0.21827105062E+03  0.63883917189E+03  0.72360722074E+03  0.17300000000E+03 0. -1.
         -6    1    1    2    0  503 -0.19473230556E+03  0.21827105062E+03  0.18213529287E+03  0.38557124799E+03  0.17300000000E+03 0. -1.
<mgrwt>
<rscale>  2 0.33984103E+03</rscale>
<asrwt>0</asrwt>
<pdfrwt beam="1">  1       21 0.14847330E+00 0.33984103E+03</pdfrwt>
<pdfrwt beam="2">  1       21 0.22169539E-01 0.33984103E+03</pdfrwt>
<totfact> 0.53257219E+03</totfact>
</mgrwt>
</event>
<event>
 4    1  0.4510095E+000  0.1992509E+03  0.7546771E-02  0.1150373E+00
         21   -1    0    0  501  502  0.00000000000E+00  0.00000000000E+00  0.18261767585E+03  0.18261767585E+03  0.00000000000E+00 0.  1.
         21   -1    0    0  502  503 -0.00000000000E+00 -0.00000000000E+00 -0.22440735173E+03  0.22440735173E+03  0.00000000000E+00 0. -1.
          6    1    1    2  501    0  0.11688125335E+02  0.98159537790E+02  0.15070101417E+02  0.19981995669E+03  0.17300000000E+03 0.  1.
         -6    1    1    2    0  503 -0.11688125335E+02 -0.98159537790E+02 -0.56859777297E+02  0.20720507090E+03  0.17300000000E+03 0. -1.
<mgrwt>
<rscale>  2 0.19925086E+03</rscale>
<asrwt>0</asrwt>
<pdfrwt beam="1">  1       21 0.28095027E-01 0.19925086E+03</pdfrwt>
<pdfrwt beam="2">  1       21 0.34524208E-01 0.19925086E+03</pdfrwt>
<totfact> 0.97610735E+04</totfact>
</mgrwt>
</event>
<event>
 4    1  0.4510095E+000  0.1772674E+03  0.7546771E-02  0.1170474E+00
         21   -1    0    0  503  502  0.00000000000E+00  0.00000000000E+00  0.38843031008E+03  0.38843031008E+03  0.00000000000E+00 0. -1.
         21   -1    0    0  501  503 -0.00000000000E+00 -0.00000000000E+00 -0.14902941014E+03  0.14902941014E+03  0.00000000000E+00 0. -1.
          6    1    1    2  501    0 -0.29357456301E+02  0.25157225880E+02 -0.61997250285E+02  0.18779618020E+03  0.17300000000E+03 0. -1.
         -6    1    1    2    0  502  0.29357456301E+02 -0.25157225880E+02  0.30139815023E+03  0.34966354001E+03  0.17300000000E+03 0. -1.
<mgrwt>
<rscale>  2 0.17726744E+03</rscale>
<asrwt>0</asrwt>
<pdfrwt beam="1">  1       21 0.59758509E-01 0.17726744E+03</pdfrwt>
<pdfrwt beam="2">  1       21 0.22927602E-01 0.17726744E+03</pdfrwt>
<totfact> 0.47016944E+04</totfact>
</mgrwt>
</event>
<event>
 4    1  0.4510095E+000  0.1790109E+03  0.7546771E-02  0.1168764E+00
         21   -1    0    0  501  502  0.00000000000E+00  0.00000000000E+00  0.23771040226E+03  0.23771040226E+03  0.00000000000E+00 0. -1.
         21   -1    0    0  502  503 -0.00000000000E+00 -0.00000000000E+00 -0.13955012648E+03  0.13955012648E+03  0.00000000000E+00 0. -1.
          6    1    1    2  501    0 -0.45456811523E+02  0.70403152265E+01  0.14302084415E+02  0.17958128346E+03  0.17300000000E+03 0. -1.
         -6    1    1    2    0  503  0.45456811523E+02 -0.70403152265E+01  0.83858191373E+02  0.19767924528E+03  0.17300000000E+03 0. -1.
<mgrwt>
<rscale>  2 0.17901086E+03</rscale>
<asrwt>0</asrwt>
<pdfrwt beam="1">  1       21 0.36570831E-01 0.17901086E+03</pdfrwt>
<pdfrwt beam="2">  1       21 0.21469250E-01 0.17901086E+03</pdfrwt>
<totfact> 0.14639095E+05</totfact>
</mgrwt>
</event>
<event>
 4    1  0.4510095E+000  0.3340628E+03  0.7546771E-02  0.1069353E+00
         21   -1    0    0  503  502  0.00000000000E+00  0.00000000000E+00  0.12023720939E+03  0.12023720939E+03  0.00000000000E+00 0. -1.
         21   -1    0    0  501  503 -0.00000000000E+00 -0.00000000000E+00 -0.19269016660E+04  0.19269016660E+04  0.00000000000E+00 0.  1.
          6    1    1    2  501    0 -0.35931452500E+02  0.28350990034E+03 -0.16402460693E+04  0.16739190843E+04  0.17300000000E+03 0.  1.
         -6    1    1    2    0  502  0.35931452500E+02 -0.28350990034E+03 -0.16641838739E+03  0.37321979118E+03  0.17300000000E+03 0. -1.
<mgrwt>
<rscale>  2 0.33406277E+03</rscale>
<asrwt>0</asrwt>
<pdfrwt beam="1">  1       21 0.18498032E-01 0.33406277E+03</pdfrwt>
<pdfrwt beam="2">  1       21 0.29644641E+00 0.33406277E+03</pdfrwt>
<totfact> 0.82768232E+02</totfact>
</mgrwt>
</event>
<event>
 4    1  0.4510095E+000  0.1748568E+03  0.7546771E-02  0.1172876E+00
         21   -1    0    0  501  502  0.00000000000E+00  0.00000000000E+00  0.21863798818E+03  0.21863798818E+03  0.00000000000E+00 0.  1.
         21   -1    0    0  502  503 -0.00000000000E+00 -0.00000000000E+00 -0.14282990551E+03  0.14282990551E+03  0.00000000000E+00 0.  1.
          6    1    1    2  501    0  0.13042615962E+02  0.21812643365E+02  0.11766114565E+02  0.17525222593E+03  0.17300000000E+03 0.  1.
         -6    1    1    2    0  503 -0.13042615962E+02 -0.21812643365E+02  0.64041968099E+02  0.18621566776E+03  0.17300000000E+03 0.  1.
<mgrwt>
<rscale>  2 0.17485680E+03</rscale>
<asrwt>0</asrwt>
<pdfrwt beam="1">  1       21 0.33636614E-01 0.17485680E+03</pdfrwt>
<pdfrwt beam="2">  1       21 0.21973832E-01 0.17485680E+03</pdfrwt>
<totfact> 0.16561965E+05</totfact>
</mgrwt>
</event>
<event>
 4    1  0.4510095E+000  0.1745835E+03  0.7546771E-02  0.1173151E+00
         21   -1    0    0  503  502  0.00000000000E+00  0.00000000000E+00  0.45556563586E+02  0.45556563586E+02  0.00000000000E+00 0.  1.
         21   -1    0    0  501  503 -0.00000000000E+00 -0.00000000000E+00 -0.10533879228E+04  0.10533879228E+04  0.00000000000E+00 0.  1.
          6    1    1    2  501    0 -0.10098452158E+01 -0.23438509274E+02 -0.83581864267E+03  0.85385724037E+03  0.17300000000E+03 0.  1.
         -6    1    1    2    0  502  0.10098452158E+01  0.23438509274E+02 -0.17201271654E+03  0.24508724601E+03  0.17300000000E+03 0.  1.
<mgrwt>
<rscale>  2 0.17458346E+03</rscale>
<asrwt>0</asrwt>
<pdfrwt beam="1">  1       21 0.70087019E-02 0.17458346E+03</pdfrwt>
<pdfrwt beam="2">  1       21 0.16205968E+00 0.17458346E+03</pdfrwt>
<totfact> 0.37118387E+04</totfact>
</mgrwt>
</event>
<event>
 4    1  0.4510095E+000  0.1762594E+03  0.7546771E-02  0.1171473E+00
         21   -1    0    0  501  502  0.00000000000E+00  0.00000000000E+00  0.40275642356E+03  0.40275642356E+03  0.00000000000E+00 0. -1.
         21   -1    0    0  502  503 -0.00000000000E+00 -0.00000000000E+00 -0.92382849647E+02  0.92382849647E+02  0.00000000000E+00 0. -1.
          6    1    1    2  501    0 -0.33704150685E+02  0.15468925540E+01  0.25575937492E+03  0.31061265350E+03  0.17300000000E+03 0.  1.
         -6    1    1    2    0  503  0.33704150685E+02 -0.15468925540E+01  0.54614198985E+02  0.18452661971E+03  0.17300000000E+03 0.  1.
<mgrwt>
<rscale>  2 0.17625936E+03</rscale>
<asrwt>0</asrwt>
<pdfrwt beam="1">  1       21 0.61962526E-01 0.17625936E+03</pdfrwt>
<pdfrwt beam="2">  1       21 0.14212746E-01 0.17625936E+03</pdfrwt>
<totfact> 0.10525702E+05</totfact>
</mgrwt>
</event>
<event>
 4    1  0.4510095E+000  0.1741288E+03  0.7546771E-02  0.1173609E+00
         21   -1    0    0  501  502  0.00000000000E+00  0.00000000000E+00  0.63469329064E+02  0.63469329064E+02  0.00000000000E+00 0.  1.
         21   -1    0    0  502  503 -0.00000000000E+00 -0.00000000000E+00 -0.11080834665E+04  0.11080834665E+04  0.00000000000E+00 0.  1.
          6    1    1    2  501    0  0.17495439135E+02  0.92609588994E+01 -0.80492953518E+02  0.19183318617E+03  0.17300000000E+03 0.  1.
         -6    1    1    2    0  503 -0.17495439135E+02 -0.92609588994E+01 -0.96412118392E+03  0.97971960940E+03  0.17300000000E+03 0.  1.
<mgrwt>
<rscale>  2 0.17412885E+03</rscale>
<asrwt>0</asrwt>
<pdfrwt beam="1">  1       21 0.97645128E-02 0.17412885E+03</pdfrwt>
<pdfrwt beam="2">  1       21 0.17047437E+00 0.17412885E+03</pdfrwt>
<totfact> 0.18166124E+04</totfact>
</mgrwt>
</event>
<event>
 4    1  0.4510095E+000  0.2186921E+03  0.7546771E-02  0.1134862E+00
         21   -1    0    0  503  502  0.00000000000E+00  0.00000000000E+00  0.19251848448E+03  0.19251848448E+03  0.00000000000E+00 0. -1.
         21   -1    0    0  501  503 -0.00000000000E+00 -0.00000000000E+00 -0.42634662020E+03  0.42634662020E+03  0.00000000000E+00 0.  1.
          6    1    1    2  501    0 -0.16099290504E+02  0.13280826365E+03 -0.31680822795E+03  0.38495931648E+03  0.17300000000E+03 0. -1.
         -6    1    1    2    0  502  0.16099290504E+02 -0.13280826365E+03  0.82980092234E+02  0.23390578820E+03  0.17300000000E+03 0.  1.
<mgrwt>
<rscale>  2 0.21869207E+03</rscale>
<asrwt>0</asrwt>
<pdfrwt beam="1">  1       21 0.29618229E-01 0.21869207E+03</pdfrwt>
<pdfrwt beam="2">  1       21 0.65591787E-01 0.21869207E+03</pdfrwt>
<totfact> 0.23002087E+04</totfact>
</mgrwt>
</event>
<event>
 4    1  0.4510095E+000  0.2657055E+03  0.7546771E-02  0.1103763E+00
         21   -1    0    0  501  502  0.00000000000E+00  0.00000000000E+00  0.49655575906E+03  0.49655575906E+03  0.00000000000E+00 0. -1.
         21   -1    0    0  502  503 -0.00000000000E+00 -0.00000000000E+00 -0.15365853374E+03  0.15365853374E+03  0.00000000000E+00 0.  1.
          6    1    1    2  501    0 -0.42891363900E+02  0.19705522967E+03  0.26031230215E+03  0.37197033119E+03  0.17300000000E+03 0.  1.
         -6    1    1    2    0  503  0.42891363900E+02 -0.19705522967E+03  0.82584923168E+02  0.27824396161E+03  0.17300000000E+03 0. -1.
<mgrwt>
<rscale>  2 0.26570554E+03</rscale>
<asrwt>0</asrwt>
<pdfrwt beam="1">  1       21 0.76393193E-01 0.26570554E+03</pdfrwt>
<pdfrwt beam="2">  1       21 0.23639775E-01 0.26570554E+03</pdfrwt>
<totfact> 0.24765883E+04</totfact>
</mgrwt>
</event>
<event>
 4    1  0.4510095E+000  0.1983496E+03  0.7546771E-02  0.1151139E+00
         21   -1    0    0  503  502  0.00000000000E+00  0.00000000000E+00  0.10999319709E+03  0.10999319709E+03  0.00000000000E+00 0. -1.
         21   -1    0    0  501  503 -0.00000000000E+00 -0.00000000000E+00 -0.40138183576E+03  0.40138183576E+03  0.00000000000E+00 0. -1.
          6    1    1    2  501    0 -0.97004952537E+02  0.18982378640E+01 -0.23006112199E+03  0.30376089935E+03  0.17300000000E+03 0. -1.
         -6    1    1    2    0  502  0.97004952537E+02 -0.18982378640E+01 -0.61327516680E+02  0.20761413349E+03  0.17300000000E+03 0. -1.
<mgrwt>
<rscale>  2 0.19834960E+03</rscale>
<asrwt>0</asrwt>
<pdfrwt beam="1">  1       21 0.16922031E-01 0.19834960E+03</pdfrwt>
<pdfrwt beam="2">  1       21 0.61751051E-01 0.19834960E+03</pdfrwt>
<totfact> 0.76437890E+04</totfact>
</mgrwt>
</event>
<event>
 4    1  0.4510095E+000  0.1766717E+03  0.7546771E-02  0.1171064E+00
         21   -1    0    0  501  502  0.00000000000E+00  0.00000000000E+00  0.26774519234E+02  0.26774519234E+02  0.00000000000E+00 0.  1.
         21   -1    0    0  502  503 -0.00000000000E+00 -0.00000000000E+00 -0.11766517322E+04  0.11766517322E+04  0.00000000000E+00 0.  1.
          6    1    1    2  501    0 -0.10019360829E+01 -0.35817274630E+02 -0.51706880649E+03  0.54641836690E+03  0.17300000000E+03 0.  1.
         -6    1    1    2    0  503  0.10019360829E+01  0.35817274630E+02 -0.63280840650E+03  0.65700788457E+03  0.17300000000E+03 0.  1.
<mgrwt>
<rscale>  2 0.17667168E+03</rscale>
<asrwt>0</asrwt>
<pdfrwt beam="1">  1       21 0.41191564E-02 0.17667168E+03</pdfrwt>
<pdfrwt beam="2">  1       21 0.18102336E+00 0.17667168E+03</pdfrwt>
<totfact> 0.67426632E+04</totfact>
</mgrwt>
</event>
<event>
 4    1  0.4510095E+000  0.2772198E+03  0.7546771E-02  0.1097217E+00
         21   -1    0    0  501  502  0.00000000000E+00  0.00000000000E+00  0.10519813473E+03  0.10519813473E+03  0.00000000000E+00 0. -1.
         21   -1    0    0  502  503 -0.00000000000E+00 -0.00000000000E+00 -0.82081843315E+03  0.82081843315E+03  0.00000000000E+00 0. -1.
          6    1    1    2  501    0 -0.21360882347E+03  0.35959751497E+02 -0.20425258538E+03  0.34433987836E+03  0.17300000000E+03 0. -1.
         -6    1    1    2    0  503  0.21360882347E+03 -0.35959751497E+02 -0.51136771304E+03  0.58167668952E+03  0.17300000000E+03 0. -1.
<mgrwt>
<rscale>  2 0.27721983E+03</rscale>
<asrwt>0</asrwt>
<pdfrwt beam="1">  1       21 0.16184328E-01 0.27721983E+03</pdfrwt>
<pdfrwt beam="2">  1       21 0.12627976E+00 0.27721983E+03</pdfrwt>
<totfact> 0.15115895E+04</totfact>
</mgrwt>
</event>
<event>
 4    1  0.4510095E+000  0.1782720E+03  0.7546771E-02  0.1169486E+00
         21   -1    0    0  503  502  0.00000000000E+00  0.00000000000E+00  0.14678275443E+04  0.14678275443E+04  0.00000000000E+00 0. -1.
         21   -1    0    0  501  503 -0.00000000000E+00 -0.00000000000E+00 -0.23405127956E+02  0.23405127956E+02  0.00000000000E+00 0. -1.
          6    1    1    2  501    0 -0.69266980632E+01  0.42472478648E+02  0.51812678296E+03  0.54793818430E+03  0.17300000000E+03 0. -1.
         -6    1    1    2    0  502  0.69266980632E+01 -0.42472478648E+02  0.92629563334E+03  0.94329448792E+03  0.17300000000E+03 0. -1.
<mgrwt>
<rscale>  2 0.17827196E+03</rscale>
<asrwt>0</asrwt>
<pdfrwt beam="1">  1       21 0.22581955E+00 0.17827196E+03</pdfrwt>
<pdfrwt beam="2">  1       21 0.36007901E-02 0.17827196E+03</pdfrwt>
<totfact> 0.43771121E+04</totfact>
</mgrwt>
</event>
<event>
 4    1  0.4510095E+000  0.2121721E+03  0.7546771E-02  0.1139857E+00
         21   -1    0    0  501  502  0.00000000000E+00  0.00000000000E+00  0.51145084904E+02  0.51145084904E+02  0.00000000000E+00 0. -1.
         21   -1    0    0  502  503 -0.00000000000E+00 -0.00000000000E+00 -0.10888455512E+04  0.10888455512E+04  0.00000000000E+00 0. -1.
          6    1    1    2  501    0  0.12070911459E+03  0.22744699143E+02 -0.26932707194E+03  0.34286160964E+03  0.17300000000E+03 0. -1.
         -6    1    1    2    0  503 -0.12070911459E+03 -0.22744699143E+02 -0.76837339435E+03  0.79712902646E+03  0.17300000000E+03 0. -1.
<mgrwt>
<rscale>  2 0.21217213E+03</rscale>
<asrwt>0</asrwt>
<pdfrwt beam="1">  1       21 0.78684748E-02 0.21217213E+03</pdfrwt>
<pdfrwt beam="2">  1       21 0.16751470E+00 0.21217213E+03</pdfrwt>
<totfact> 0.27094224E+04</totfact>
</mgrwt>
</event>
<event>
 4    1  0.4510095E+000  0.1986478E+03  0.7546771E-02  0.1150885E+00
         21   -1    0    0  501  502  0.00000000000E+00  0.00000000000E+00  0.10202641156E+03  0.10202641156E+03  0.00000000000E+00 0.  1.
         21   -1    0    0  502  503 -0.00000000000E+00 -0.00000000000E+00 -0.52370008027E+03  0.52370008027E+03  0.00000000000E+00 0. -1.
          6    1    1    2  501    0 -0.97018438957E+02  0.10926452675E+02 -0.50859152654E+02  0.20505515910E+03  0.17300000000E+03 0.  1.
         -6    1    1    2    0  503  0.97018438957E+02 -0.10926452675E+02 -0.37081451605E+03  0.42067133273E+03  0.17300000000E+03 0. -1.
<mgrwt>
<rscale>  2 0.19864784E+03</rscale>
<asrwt>0</asrwt>
<pdfrwt beam="1">  1       21 0.15696371E-01 0.19864784E+03</pdfrwt>
<pdfrwt beam="2">  1       21 0.80569244E-01 0.19864784E+03</pdfrwt>
<totfact> 0.48729186E+04</totfact>
</mgrwt>
</event>
<event>
 4    1  0.4510095E+000  0.2465118E+03  0.7546771E-02  0.1115529E+00
         21   -1    0    0  503  502  0.00000000000E+00  0.00000000000E+00  0.19485177722E+03  0.19485177722E+03  0.00000000000E+00 0.  1.
         21   -1    0    0  501  503 -0.00000000000E+00 -0.00000000000E+00 -0.44444555287E+03  0.44444555287E+03  0.00000000000E+00 0. -1.
          6    1    1    2  501    0  0.15987455091E+03  0.72658150208E+02  0.49784618164E+02  0.25148874135E+03  0.17300000000E+03 0.  1.
         -6    1    1    2    0  502 -0.15987455091E+03 -0.72658150208E+02 -0.29937839381E+03  0.38780858874E+03  0.17300000000E+03 0. -1.
<mgrwt>
<rscale>  2 0.24651182E+03</rscale>
<asrwt>0</asrwt>
<pdfrwt beam="1">  1       21 0.29977196E-01 0.24651182E+03</pdfrwt>
<pdfrwt beam="2">  1       21 0.68376239E-01 0.24651182E+03</pdfrwt>
<totfact> 0.20212887E+04</totfact>
</mgrwt>
</event>
<event>
 4    1  0.4510095E+000  0.1758109E+03  0.7546771E-02  0.1171920E+00
         21   -1    0    0  501  502  0.00000000000E+00  0.00000000000E+00  0.32733854496E+03  0.32733854496E+03  0.00000000000E+00 0. -1.
         21   -1    0    0  502  503 -0.00000000000E+00 -0.00000000000E+00 -0.94756734986E+02  0.94756734986E+02  0.00000000000E+00 0. -1.
          6    1    1    2  501    0  0.78175349533E+01  0.30321109102E+02  0.10383470013E+03  0.20418405535E+03  0.17300000000E+03 0. -1.
         -6    1    1    2    0  503 -0.78175349533E+01 -0.30321109102E+02  0.12874710984E+03  0.21791122459E+03  0.17300000000E+03 0. -1.
<mgrwt>
<rscale>  2 0.17581093E+03</rscale>
<asrwt>0</asrwt>
<pdfrwt beam="1">  1       21 0.50359775E-01 0.17581093E+03</pdfrwt>
<pdfrwt beam="2">  1       21 0.14577959E-01 0.17581093E+03</pdfrwt>
<totfact> 0.15594929E+05</totfact>
</mgrwt>
</event>
<event>
 4    1  0.4510095E+000  0.2779854E+03  0.7546771E-02  0.1096794E+00
         21   -1    0    0  503  502  0.00000000000E+00  0.00000000000E+00  0.58918028578E+03  0.58918028578E+03  0.00000000000E+00 0.  1.
         21   -1    0    0  501  503 -0.00000000000E+00 -0.00000000000E+00 -0.13400583363E+03  0.13400583363E+03  0.00000000000E+00 0. -1.
          6    1    1    2  501    0  0.21388767944E+03  0.39986969138E+02  0.17487746413E+03  0.32841745473E+03  0.17300000000E+03 0. -1.
         -6    1    1    2    0  502 -0.21388767944E+03 -0.39986969138E+02  0.28029698802E+03  0.39476866468E+03  0.17300000000E+03 0.  1.
<mgrwt>
<rscale>  2 0.27798543E+03</rscale>
<asrwt>0</asrwt>
<pdfrwt beam="1">  1       21 0.90643120E-01 0.27798543E+03</pdfrwt>
<pdfrwt beam="2">  1       21 0.20616282E-01 0.27798543E+03</pdfrwt>
<totfact> 0.21560250E+04</totfact>
</mgrwt>
</event>
<event>
 4    1  0.4510095E+000  0.1753654E+03  0.7546771E-02  0.1172365E+00
         21   -1    0    0  501  502  0.00000000000E+00  0.00000000000E+00  0.29147728969E+03  0.29147728969E+03  0.00000000000E+00 0. -1.
         21   -1    0    0  502  503 -0.00000000000E+00 -0.00000000000E+00 -0.10553480160E+03  0.10553480160E+03  0.00000000000E+00 0. -1.
          6    1    1    2  501    0 -0.24673558725E+02 -0.14671014250E+02  0.96167436056E+02  0.20000299727E+03  0.17300000000E+03 0. -1.
         -6    1    1    2    0  503  0.24673558725E+02  0.14671014250E+02  0.89775052036E+02  0.19700909402E+03  0.17300000000E+03 0. -1.
<mgrwt>
<rscale>  2 0.17536540E+03</rscale>
<asrwt>0</asrwt>
<pdfrwt beam="1">  1       21 0.44842660E-01 0.17536540E+03</pdfrwt>
<pdfrwt beam="2">  1       21 0.16236123E-01 0.17536540E+03</pdfrwt>
<totfact> 0.16290064E+05</totfact>
</mgrwt>
</event>
<event>
 4    1  0.4510095E+000  0.2822791E+03  0.7546771E-02  0.1094451E+00
         21   -1    0    0  503  502  0.00000000000E+00  0.00000000000E+00  0.34513665423E+03  0.34513665423E+03  0.00000000000E+00 0. -1.
         21   -1    0    0  501  503 -0.00000000000E+00 -0.00000000000E+00 -0.25816820845E+03  0.25816820845E+03  0.00000000000E+00 0.  1.
          6    1    1    2  501    0 -0.80324573499E+01 -0.22290801464E+03 -0.54606297775E+02  0.28751234951E+03  0.17300000000E+03 0. -1.
         -6    1    1    2    0  502  0.80324573499E+01  0.22290801464E+03  0.14157474356E+03  0.31579251317E+03  0.17300000000E+03 0. -1.
<mgrwt>
<rscale>  2 0.28227912E+03</rscale>
<asrwt>0</asrwt>
<pdfrwt beam="1">  1       21 0.53097947E-01 0.28227912E+03</pdfrwt>
<pdfrwt beam="2">  1       21 0.39718186E-01 0.28227912E+03</pdfrwt>
<totfact> 0.19606425E+04</totfact>
</mgrwt>
</event>
<event>
 4    1  0.4510095E+000  0.1770697E+03  0.7546771E-02  0.1170670E+00
         21   -1    0    0  503  502  0.00000000000E+00  0.00000000000E+00  0.17472010252E+03  0.17472010252E+03  0.00000000000E+00 0.  1.
         21   -1    0    0  501  503 -0.00000000000E+00 -0.00000000000E+00 -0.18240356731E+03  0.18240356731E+03  0.00000000000E+00 0.  1.
          6    1    1    2  501    0 -0.47554227253E+00  0.37741907160E+02 -0.26560253361E+02  0.17905062065E+03  0.17300000000E+03 0.  1.
         -6    1    1    2    0  502  0.47554227253E+00 -0.37741907160E+02  0.18876788568E+02  0.17807304918E+03  0.17300000000E+03 0.  1.
<mgrwt>
<rscale>  2 0.17706970E+03</rscale>
<asrwt>0</asrwt>
<pdfrwt beam="1">  1       21 0.26880016E-01 0.17706970E+03</pdfrwt>
<pdfrwt beam="2">  1       21 0.28062087E-01 0.17706970E+03</pdfrwt>
<totfact> 0.16069472E+05</totfact>
</mgrwt>
</event>
<event>
 4    1  0.4510095E+000  0.1874519E+03  0.7546771E-02  0.1160780E+00
         21   -1    0    0  501  502  0.00000000000E+00  0.00000000000E+00  0.52520491074E+02  0.52520491074E+02  0.00000000000E+00 0. -1.
         21   -1    0    0  502  503 -0.00000000000E+00 -0.00000000000E+00 -0.75388578291E+03  0.75388578291E+03  0.00000000000E+00 0. -1.
          6    1    1    2  501    0  0.35902906696E+01 -0.72085590899E+02 -0.21541607408E+03  0.28555613735E+03  0.17300000000E+03 0. -1.
         -6    1    1    2    0  503 -0.35902906696E+01  0.72085590899E+02 -0.48594921776E+03  0.52085013664E+03  0.17300000000E+03 0. -1.
<mgrwt>
<rscale>  2 0.18745192E+03</rscale>
<asrwt>0</asrwt>
<pdfrwt beam="1">  1       21 0.80800758E-02 0.18745192E+03</pdfrwt>
<pdfrwt beam="2">  1       21 0.11598242E+00 0.18745192E+03</pdfrwt>
<totfact> 0.67889836E+04</totfact>
</mgrwt>
</event>
<event>
 4    1  0.4510095E+000  0.1768372E+03  0.7546771E-02  0.1170900E+00
         21   -1    0    0  501  502  0.00000000000E+00  0.00000000000E+00  0.13190378258E+03  0.13190378258E+03  0.00000000000E+00 0.  1.
         21   -1    0    0  502  503 -0.00000000000E+00 -0.00000000000E+00 -0.46258195573E+03  0.46258195573E+03  0.00000000000E+00 0. -1.
          6    1    1    2  501    0  0.23644261433E+02  0.27988246805E+02  0.42197588172E+02  0.18180217134E+03  0.17300000000E+03 0.  1.
         -6    1    1    2    0  503 -0.23644261433E+02 -0.27988246805E+02 -0.37287576132E+03  0.41268356696E+03  0.17300000000E+03 0. -1.
<mgrwt>
<rscale>  2 0.17683719E+03</rscale>
<asrwt>0</asrwt>
<pdfrwt beam="1">  1       21 0.20292890E-01 0.17683719E+03</pdfrwt>
<pdfrwt beam="2">  1       21 0.71166454E-01 0.17683719E+03</pdfrwt>
<totfact> 0.40458005E+04</totfact>
</mgrwt>
</event>
<event>
 4    1  0.4510095E+000  0.1795383E+03  0.7546771E-02  0.1168251E+00
         21   -1    0    0  501  502  0.00000000000E+00  0.00000000000E+00  0.18488463682E+03  0.18488463682E+03  0.00000000000E+00 0. -1.
         21   -1    0    0  502  503 -0.00000000000E+00 -0.00000000000E+00 -0.20025390784E+03  0.20025390784E+03  0.00000000000E+00 0. -1.
          6    1    1    2  501    0  0.25337621404E+02 -0.40779775785E+02  0.61579538411E+02  0.18980522839E+03  0.17300000000E+03 0. -1.
         -6    1    1    2    0  503 -0.25337621404E+02  0.40779775785E+02 -0.76948809429E+02  0.19533331627E+03  0.17300000000E+03 0. -1.
<mgrwt>
<rscale>  2 0.17953826E+03</rscale>
<asrwt>0</asrwt>
<pdfrwt beam="1">  1       21 0.28443790E-01 0.17953826E+03</pdfrwt>
<pdfrwt beam="2">  1       21 0.30808293E-01 0.17953826E+03</pdfrwt>
<totfact> 0.12012005E+05</totfact>
</mgrwt>
</event>
<event>
 4    1  0.4510095E+000  0.1871940E+03  0.7546771E-02  0.1161017E+00
         21   -1    0    0  503  502  0.00000000000E+00  0.00000000000E+00  0.18472678315E+03  0.18472678315E+03  0.00000000000E+00 0. -1.
         21   -1    0    0  501  503 -0.00000000000E+00 -0.00000000000E+00 -0.21320996040E+03  0.21320996040E+03  0.00000000000E+00 0. -1.
          6    1    1    2  501    0 -0.41102744269E+02 -0.58507786365E+02 -0.80320054166E+02  0.20369807990E+03  0.17300000000E+03 0.  1.
         -6    1    1    2    0  502  0.41102744269E+02  0.58507786365E+02  0.51836876917E+02  0.19423866366E+03  0.17300000000E+03 0.  1.
<mgrwt>
<rscale>  2 0.18719401E+03</rscale>
<asrwt>0</asrwt>
<pdfrwt beam="1">  1       21 0.28419505E-01 0.18719401E+03</pdfrwt>
<pdfrwt beam="2">  1       21 0.32801532E-01 0.18719401E+03</pdfrwt>
<totfact> 0.10611703E+05</totfact>
</mgrwt>
</event>
<event>
 4    1  0.4510095E+000  0.2773295E+03  0.7546771E-02  0.1097157E+00
         21   -1    0    0  501  502  0.00000000000E+00  0.00000000000E+00  0.13868936145E+03  0.13868936145E+03  0.00000000000E+00 0.  1.
         21   -1    0    0  502  503 -0.00000000000E+00 -0.00000000000E+00 -0.11406613195E+04  0.11406613195E+04  0.00000000000E+00 0. -1.
          6    1    1    2  501    0 -0.31072885690E+02 -0.21451596705E+03 -0.42456288534E+02  0.28056044051E+03  0.17300000000E+03 0.  1.
         -6    1    1    2    0  503  0.31072885690E+02  0.21451596705E+03 -0.95951566948E+03  0.99879024040E+03  0.17300000000E+03 0. -1.
<mgrwt>
<rscale>  2 0.27732945E+03</rscale>
<asrwt>0</asrwt>
<pdfrwt beam="1">  1       21 0.21336825E-01 0.27732945E+03</pdfrwt>
<pdfrwt beam="2">  1       21 0.17548635E+00 0.27732945E+03</pdfrwt>
<totfact> 0.37415733E+03</totfact>
</mgrwt>
</event>
<event>
 4    1  0.4510095E+000  0.1904042E+03  0.7546771E-02  0.1158097E+00
         21   -1    0    0  503  502  0.00000000000E+00  0.00000000000E+00  0.11016564708E+04  0.11016564708E+04  0.00000000000E+00 0.  1.
         21   -1    0    0  501  503 -0.00000000000E+00 -0.00000000000E+00 -0.35456518341E+02  0.35456518341E+02  0.00000000000E+00 0.  1.
          6    1    1    2  501    0  0.58223795498E+02  0.54173346761E+02  0.38068255839E+03  0.42564418489E+03  0.17300000000E+03 0.  1.
         -6    1    1    2    0  502 -0.58223795498E+02 -0.54173346761E+02  0.68551739403E+03  0.71146880422E+03  0.17300000000E+03 0.  1.
<mgrwt>
<rscale>  2 0.19040421E+03</rscale>
<asrwt>0</asrwt>
<pdfrwt beam="1">  1       21 0.16948558E+00 0.19040421E+03</pdfrwt>
<pdfrwt beam="2">  1       21 0.54548498E-02 0.19040421E+03</pdfrwt>
<totfact> 0.49985273E+04</totfact>
</mgrwt>
</event>
<event>
 4    1  0.4510095E+000  0.2053737E+03  0.7546771E-02  0.1145283E+00
         21   -1    0    0  503  502  0.00000000000E+00  0.00000000000E+00  0.32710812999E+02  0.32710812999E+02  0.00000000000E+00 0.  1.
         21   -1    0    0  501  503 -0.00000000000E+00 -0.00000000000E+00 -0.38519976173E+04  0.38519976173E+04  0.00000000000E+00 0. -1.
          6    1    1    2  501    0 -0.10552227024E+03  0.33382807940E+02 -0.34938905892E+04  0.34999214007E+04  0.17300000000E+03 0. -1.
         -6    1    1    2    0  502  0.10552227024E+03 -0.33382807940E+02 -0.32539621504E+03  0.38478702959E+03  0.17300000000E+03 0.  1.
<mgrwt>
<rscale>  2 0.20537371E+03</rscale>
<asrwt>0</asrwt>
<pdfrwt beam="1">  1       21 0.50324320E-02 0.20537371E+03</pdfrwt>
<pdfrwt beam="2">  1       21 0.59261511E+00 0.20537371E+03</pdfrwt>
<totfact> 0.10139604E+02</totfact>
</mgrwt>
</event>
<event>
 4    1  0.4510095E+000  0.2111501E+03  0.7546771E-02  0.1140658E+00
         21   -1    0    0  503  502  0.00000000000E+00  0.00000000000E+00  0.26767152116E+03  0.26767152116E+03  0.00000000000E+00 0. -1.
         21   -1    0    0  501  503 -0.00000000000E+00 -0.00000000000E+00 -0.39114938654E+03  0.39114938654E+03  0.00000000000E+00 0.  1.
          6    1    1    2  501    0 -0.11449487560E+03 -0.39322899215E+02 -0.31134610411E+03  0.37619245538E+03  0.17300000000E+03 0.  1.
         -6    1    1    2    0  502  0.11449487560E+03  0.39322899215E+02  0.18786823873E+03  0.28262845233E+03  0.17300000000E+03 0. -1.
<mgrwt>
<rscale>  2 0.21115011E+03</rscale>
<asrwt>0</asrwt>
<pdfrwt beam="1">  1       21 0.41180234E-01 0.21115011E+03</pdfrwt>
<pdfrwt beam="2">  1       21 0.60176829E-01 0.21115011E+03</pdfrwt>
<totfact> 0.14452650E+04</totfact>
</mgrwt>
</event>
<event>
 4    1  0.4510095E+000  0.2433022E+03  0.7546771E-02  0.1117612E+00
         21   -1    0    0  503  502  0.00000000000E+00  0.00000000000E+00  0.12954763998E+03  0.12954763998E+03  0.00000000000E+00 0.  1.
         21   -1    0    0  501  503 -0.00000000000E+00 -0.00000000000E+00 -0.76831173568E+03  0.76831173568E+03  0.00000000000E+00 0.  1.
          6    1    1    2  501    0 -0.11746960600E+03  0.12436976184E+03 -0.60517188324E+03  0.65224915045E+03  0.17300000000E+03 0.  1.
         -6    1    1    2    0  502  0.11746960600E+03 -0.12436976184E+03 -0.33592212456E+02  0.24561022522E+03  0.17300000000E+03 0.  1.
<mgrwt>
<rscale>  2 0.24330217E+03</rscale>
<asrwt>0</asrwt>
<pdfrwt beam="1">  1       21 0.19930406E-01 0.24330217E+03</pdfrwt>
<pdfrwt beam="2">  1       21 0.11820181E+00 0.24330217E+03</pdfrwt>
<totfact> 0.12331701E+04</totfact>
</mgrwt>
</event>
<event>
 4    1  0.4510095E+000  0.1813933E+03  0.7546771E-02  0.1166461E+00
         21   -1    0    0  503  502  0.00000000000E+00  0.00000000000E+00  0.79950370757E+03  0.79950370757E+03  0.00000000000E+00 0. -1.
         21   -1    0    0  501  503 -0.00000000000E+00 -0.00000000000E+00 -0.13569597320E+03  0.13569597320E+03  0.00000000000E+00 0. -1.
          6    1    1    2  501    0 -0.16992291557E+02 -0.51824755233E+02 -0.58398333503E+02  0.19056208590E+03  0.17300000000E+03 0. -1.
         -6    1    1    2    0  502  0.16992291557E+02  0.51824755233E+02  0.72220606787E+03  0.74463759487E+03  0.17300000000E+03 0. -1.
<mgrwt>
<rscale>  2 0.18139334E+03</rscale>
<asrwt>0</asrwt>
<pdfrwt beam="1">  1       21 0.12300057E+00 0.18139334E+03</pdfrwt>
<pdfrwt beam="2">  1       21 0.20876304E-01 0.18139334E+03</pdfrwt>
<totfact> 0.10666098E+04</totfact>
</mgrwt>
</event>
<event>
 4    1  0.4510095E+000  0.2154318E+03  0.7546771E-02  0.1137335E+00
         21   -1    0    0  501  502  0.00000000000E+00  0.00000000000E+00  0.64547086792E+02  0.64547086792E+02  0.00000000000E+00 0.  1.
         21   -1    0    0  502  503 -0.00000000000E+00 -0.00000000000E+00 -0.11665078957E+04  0.11665078957E+04  0.00000000000E+00 0.  1.
          6    1    1    2  501    0  0.53153560491E+02 -0.11686119941E+03 -0.16974537676E+03  0.27427054864E+03  0.17300000000E+03 0.  1.
         -6    1    1    2    0  503 -0.53153560491E+02  0.11686119941E+03 -0.93221543211E+03  0.95678443381E+03  0.17300000000E+03 0.  1.
<mgrwt>
<rscale>  2 0.21543175E+03</rscale>
<asrwt>0</asrwt>
<pdfrwt beam="1">  1       21 0.99303211E-02 0.21543175E+03</pdfrwt>
<pdfrwt beam="2">  1       21 0.17946275E+00 0.21543175E+03</pdfrwt>
<totfact> 0.14824239E+04</totfact>
</mgrwt>
</event>
<event>
 4    1  0.4510095E+000  0.2237536E+03  0.7546771E-02  0.1131115E+00
         21   -1    0    0  501  502  0.00000000000E+00  0.00000000000E+00  0.18705881956E+03  0.18705881956E+03  0.00000000000E+00 0. -1.
         21   -1    0    0  502  503 -0.00000000000E+00 -0.00000000000E+00 -0.49665854507E+03  0.49665854507E+03  0.00000000000E+00 0. -1.
          6    1    1    2  501    0 -0.77616378265E+02 -0.11879541847E+03  0.77338407174E+02  0.23674222870E+03  0.17300000000E+03 0. -1.
         -6    1    1    2    0  503  0.77616378265E+02  0.11879541847E+03 -0.38693813268E+03  0.44697513593E+03  0.17300000000E+03 0. -1.
<mgrwt>
<rscale>  2 0.22375356E+03</rscale>
<asrwt>0</asrwt>
<pdfrwt beam="1">  1       21 0.28778281E-01 0.22375356E+03</pdfrwt>
<pdfrwt beam="2">  1       21 0.76409005E-01 0.22375356E+03</pdfrwt>
<totfact> 0.17293760E+04</totfact>
</mgrwt>
</event>
<event>
 4    1  0.4510095E+000  0.1920905E+03  0.7546771E-02  0.1156589E+00
         21   -1    0    0  501  502  0.00000000000E+00  0.00000000000E+00  0.39184602135E+02  0.39184602135E+02  0.00000000000E+00 0.  1.
         21   -1    0    0  502  503 -0.00000000000E+00 -0.00000000000E+00 -0.10177789693E+04  0.10177789693E+04  0.00000000000E+00 0.  1.
          6    1    1    2  501    0  0.22716549690E+02  0.80334969537E+02 -0.34477421091E+03  0.39467455640E+03  0.17300000000E+03 0.  1.
         -6    1    1    2    0  503 -0.22716549690E+02 -0.80334969537E+02 -0.63382015622E+03  0.66228901500E+03  0.17300000000E+03 0.  1.
<mgrwt>
<rscale>  2 0.19209047E+03</rscale>
<asrwt>0</asrwt>
<pdfrwt beam="1">  1       21 0.60284010E-02 0.19209047E+03</pdfrwt>
<pdfrwt beam="2">  1       21 0.15658136E+00 0.19209047E+03</pdfrwt>
<totfact> 0.52190103E+04</totfact>
</mgrwt>
</event>
<event>
 4    1  0.4510095E+000  0.1734977E+03  0.7546771E-02  0.1174249E+00
         21   -1    0    0  503  502  0.00000000000E+00  0.00000000000E+00  0.10484490237E+03  0.10484490237E+03  0.00000000000E+00 0.  1.
         21   -1    0    0  501  503 -0.00000000000E+00 -0.00000000000E+00 -0.77875886245E+03  0.77875886245E+03  0.00000000000E+00 0.  1.
          6    1    1    2  501    0 -0.12308027202E+02  0.45782784917E+01 -0.68799648125E+03  0.70953548634E+03  0.17300000000E+03 0.  1.
         -6    1    1    2    0  502  0.12308027202E+02 -0.45782784917E+01  0.14082521174E+02  0.17406827847E+03  0.17300000000E+03 0.  1.
<mgrwt>
<rscale>  2 0.17349769E+03</rscale>
<asrwt>0</asrwt>
<pdfrwt beam="1">  1       21 0.16129985E-01 0.17349769E+03</pdfrwt>
<pdfrwt beam="2">  1       21 0.11980906E+00 0.17349769E+03</pdfrwt>
<totfact> 0.18445891E+04</totfact>
</mgrwt>
</event>
<event>
 4    1  0.4510095E+000  0.2206956E+03  0.7546771E-02  0.1133366E+00
         21   -1    0    0  501  502  0.00000000000E+00  0.00000000000E+00  0.21574439410E+03  0.21574439410E+03  0.00000000000E+00 0. -1.
         21   -1    0    0  502  503 -0.00000000000E+00 -0.00000000000E+00 -0.29650989785E+03  0.29650989785E+03  0.00000000000E+00 0.  1.
          6    1    1    2  501    0 -0.68275911802E+02  0.11881049691E+03  0.84728907584E+02  0.23640118885E+03  0.17300000000E+03 0. -1.
         -6    1    1    2    0  503  0.68275911802E+02 -0.11881049691E+03 -0.16549441133E+03  0.27585310310E+03  0.17300000000E+03 0.  1.
<mgrwt>
<rscale>  2 0.22069557E+03</rscale>
<asrwt>0</asrwt>
<pdfrwt beam="1">  1       21 0.33191445E-01 0.22069557E+03</pdfrwt>
<pdfrwt beam="2">  1       21 0.45616908E-01 0.22069557E+03</pdfrwt>
<totfact> 0.39713549E+04</totfact>
</mgrwt>
</event>
<event>
 4    1  0.4510095E+000  0.1929203E+03  0.7546771E-02  0.1155854E+00
         21   -1    0    0  503  502  0.00000000000E+00  0.00000000000E+00  0.14702323834E+04  0.14702323834E+04  0.00000000000E+00 0.  1.
         21   -1    0    0  501  503 -0.00000000000E+00 -0.00000000000E+00 -0.34807490823E+02  0.34807490823E+02  0.00000000000E+00 0.  1.
          6    1    1    2  501    0  0.65874278955E+02 -0.54312148797E+02  0.32472138051E+03  0.37770650655E+03  0.17300000000E+03 0.  1.
         -6    1    1    2    0  502 -0.65874278955E+02  0.54312148797E+02  0.11107035121E+04  0.11273333677E+04  0.17300000000E+03 0.  1.
<mgrwt>
<rscale>  2 0.19292027E+03</rscale>
<asrwt>0</asrwt>
<pdfrwt beam="1">  1       21 0.22618955E+00 0.19292027E+03</pdfrwt>
<pdfrwt beam="2">  1       21 0.53549997E-02 0.19292027E+03</pdfrwt>
<totfact> 0.22074282E+04</totfact>
</mgrwt>
</event>
<event>
 4    1  0.4510095E+000  0.2731586E+03  0.7546771E-02  0.1099485E+00
         21   -1    0    0  501  502  0.00000000000E+00  0.00000000000E+00  0.82250730012E+03  0.82250730012E+03  0.00000000000E+00 0.  1.
         21   -1    0    0  502  503 -0.00000000000E+00 -0.00000000000E+00 -0.10733221496E+03  0.10733221496E+03  0.00000000000E+00 0.  1.
          6    1    1    2  501    0  0.26267339796E+02 -0.20975379498E+03  0.54050798292E+03  0.60561085463E+03  0.17300000000E+03 0.  1.
         -6    1    1    2    0  503 -0.26267339796E+02  0.20975379498E+03  0.17466710225E+03  0.32422866045E+03  0.17300000000E+03 0.  1.
<mgrwt>
<rscale>  2 0.27315861E+03</rscale>
<asrwt>0</asrwt>
<pdfrwt beam="1">  1       21 0.12653958E+00 0.27315861E+03</pdfrwt>
<pdfrwt beam="2">  1       21 0.16512649E-01 0.27315861E+03</pdfrwt>
<totfact> 0.14518350E+04</totfact>
</mgrwt>
</event>
<event>
 4    1  0.4510095E+000  0.1778770E+03  0.7546771E-02  0.1169874E+00
         21   -1    0    0  503  502  0.00000000000E+00  0.00000000000E+00  0.21250598563E+03  0.21250598563E+03  0.00000000000E+00 0.  1.
         21   -1    0    0  501  503 -0.00000000000E+00 -0.00000000000E+00 -0.15127851053E+03  0.15127851053E+03  0.00000000000E+00 0.  1.
          6    1    1    2  501    0  0.40074047642E+02  0.10261030451E+02  0.77628652296E+01  0.17804628645E+03  0.17300000000E+03 0.  1.
         -6    1    1    2    0  502 -0.40074047642E+02 -0.10261030451E+02  0.53464609863E+02  0.18573820971E+03  0.17300000000E+03 0.  1.
<mgrwt>
<rscale>  2 0.17787697E+03</rscale>
<asrwt>0</asrwt>
<pdfrwt beam="1">  1       21 0.32693229E-01 0.17787697E+03</pdfrwt>
<pdfrwt beam="2">  1       21 0.23273617E-01 0.17787697E+03</pdfrwt>
<totfact> 0.15701078E+05</totfact>
</mgrwt>
</event>
<event>
 4    1  0.4510095E+000  0.2006390E+03  0.7546771E-02  0.1149201E+00
         21   -1    0    0  503  502  0.00000000000E+00  0.00000000000E+00  0.37693732274E+03  0.37693732274E+03  0.00000000000E+00 0.  1.
         21   -1    0    0  501  503 -0.00000000000E+00 -0.00000000000E+00 -0.13037547837E+03  0.13037547837E+03  0.00000000000E+00 0.  1.
          6    1    1    2  501    0  0.48934106472E+02 -0.89064280796E+02  0.23115086235E+03  0.30608285489E+03  0.17300000000E+03 0.  1.
         -6    1    1    2    0  502 -0.48934106472E+02  0.89064280796E+02  0.15410982018E+02  0.20122994622E+03  0.17300000000E+03 0.  1.
<mgrwt>
<rscale>  2 0.20063896E+03</rscale>
<asrwt>0</asrwt>
<pdfrwt beam="1">  1       21 0.57990357E-01 0.20063896E+03</pdfrwt>
<pdfrwt beam="2">  1       21 0.20057766E-01 0.20063896E+03</pdfrwt>
<totfact> 0.63757865E+04</totfact>
</mgrwt>
</event>
<event>
 4    1  0.4510095E+000  0.2070080E+03  0.7546771E-02  0.1143957E+00
         21   -1    0    0  501  502  0.00000000000E+00  0.00000000000E+00  0.10421495396E+04  0.10421495396E+04  0.00000000000E+00 0. -1.
         21   -1    0    0  502  503 -0.00000000000E+00 -0.00000000000E+00 -0.57331963553E+02  0.57331963553E+02  0.00000000000E+00 0.  1.
          6    1    1    2  501    0 -0.64391617959E+02 -0.93685797126E+02  0.78474905777E+03  0.81159312017E+03  0.17300000000E+03 0. -1.
         -6    1    1    2    0  503  0.64391617959E+02  0.93685797126E+02  0.20006851827E+03  0.28788838297E+03  0.17300000000E+03 0.  1.
<mgrwt>
<rscale>  2 0.20700799E+03</rscale>
<asrwt>0</asrwt>
<pdfrwt beam="1">  1       21 0.16033068E+00 0.20700799E+03</pdfrwt>
<pdfrwt beam="2">  1       21 0.88203029E-02 0.20700799E+03</pdfrwt>
<totfact> 0.25091238E+04</totfact>
</mgrwt>
</event>
<event>
 4    1  0.4510095E+000  0.1733295E+03  0.7546771E-02  0.1174420E+00
         21   -1    0    0  503  502  0.00000000000E+00  0.00000000000E+00  0.17501061946E+04  0.17501061946E+04  0.00000000000E+00 0. -1.
         21   -1    0    0  501  503 -0.00000000000E+00 -0.00000000000E+00 -0.34329490118E+02  0.34329490118E+02  0.00000000000E+00 0. -1.
          6    1    1    2  501    0  0.57667637320E+01 -0.89916624990E+01  0.22702634737E+03  0.28562924913E+03  0.17300000000E+03 0. -1.
         -6    1    1    2    0  502 -0.57667637320E+01  0.89916624990E+01  0.14887503571E+04  0.14988064355E+04  0.17300000000E+03 0. -1.
<mgrwt>
<rscale>  2 0.17332947E+03</rscale>
<asrwt>0</asrwt>
<pdfrwt beam="1">  1       21 0.26924704E+00 0.17332947E+03</pdfrwt>
<pdfrwt beam="2">  1       21 0.52814614E-02 0.17332947E+03</pdfrwt>
<totfact> 0.12834862E+04</totfact>
</mgrwt>
</event>
<event>
 4    1  0.4510095E+000  0.1783817E+03  0.7546771E-02  0.1169378E+00
         21   -1    0    0  501  502  0.00000000000E+00  0.00000000000E+00  0.15973979920E+03  0.15973979920E+03  0.00000000000E+00 0.  1.
         21   -1    0    0  502  503 -0.00000000000E+00 -0.00000000000E+00 -0.20543786851E+03  0.20543786851E+03  0.00000000000E+00 0.  1.
          6    1    1    2  501    0 -0.12640580113E+00 -0.43485790887E+02  0.89696444877E+01  0.17860706736E+03  0.17300000000E+03 0. -1.
         -6    1    1    2    0  503  0.12640580113E+00  0.43485790887E+02 -0.54667713796E+02  0.18657060036E+03  0.17300000000E+03 0. -1.
<mgrwt>
<rscale>  2 0.17838170E+03</rscale>
<asrwt>0</asrwt>
<pdfrwt beam="1">  1       21 0.24575354E-01 0.17838170E+03</pdfrwt>
<pdfrwt beam="2">  1       21 0.31605826E-01 0.17838170E+03</pdfrwt>
<totfact> 0.15129697E+05</totfact>
</mgrwt>
</event>
<event>
 4    1  0.4510095E+000  0.2111237E+03  0.7546771E-02  0.1140679E+00
         21   -1    0    0  503  502  0.00000000000E+00  0.00000000000E+00  0.11679289498E+03  0.11679289498E+03  0.00000000000E+00 0. -1.
         21   -1    0    0  501  503 -0.00000000000E+00 -0.00000000000E+00 -0.41071061879E+03  0.41071061879E+03  0.00000000000E+00 0. -1.
          6    1    1    2  501    0  0.41794181326E+02  0.11356699564E+03 -0.76792249915E+02  0.22465588294E+03  0.17300000000E+03 0. -1.
         -6    1    1    2    0  502 -0.41794181326E+02 -0.11356699564E+03 -0.21712547390E+03  0.30284763084E+03  0.17300000000E+03 0. -1.
<mgrwt>
<rscale>  2 0.21112370E+03</rscale>
<asrwt>0</asrwt>
<pdfrwt beam="1">  1       21 0.17968138E-01 0.21112370E+03</pdfrwt>
<pdfrwt beam="2">  1       21 0.63186248E-01 0.21112370E+03</pdfrwt>
<totfact> 0.64734199E+04</totfact>
</mgrwt>
</event>
<event>
 4    1  0.4510095E+000  0.1817857E+03  0.7546771E-02  0.1166086E+00
         21   -1    0    0  501  502  0.00000000000E+00  0.00000000000E+00  0.46546602428E+02  0.46546602428E+02  0.00000000000E+00 0. -1.
         21   -1    0    0  502  503 -0.00000000000E+00 -0.00000000000E+00 -0.77958600973E+03  0.77958600973E+03  0.00000000000E+00 0.  1.
          6    1    1    2  501    0 -0.15142386191E+02 -0.53737686109E+02 -0.24307098767E+03  0.30352847612E+03  0.17300000000E+03 0.  1.
         -6    1    1    2    0  503  0.15142386191E+02  0.53737686109E+02 -0.48996841963E+03  0.52260413604E+03  0.17300000000E+03 0.  1.
<mgrwt>
<rscale>  2 0.18178567E+03</rscale>
<asrwt>0</asrwt>
<pdfrwt beam="1">  1       21 0.71610160E-02 0.18178567E+03</pdfrwt>
<pdfrwt beam="2">  1       21 0.11993630E+00 0.18178567E+03</pdfrwt>
<totfact> 0.77294371E+04</totfact>
</mgrwt>
</event>
<event>
 4    1  0.4510095E+000  0.2003142E+03  0.7546771E-02  0.1149474E+00
         21   -1    0    0  501  502  0.00000000000E+00  0.00000000000E+00  0.46351749482E+03  0.46351749482E+03  0.00000000000E+00 0. -1.
         21   -1    0    0  502  503 -0.00000000000E+00 -0.00000000000E+00 -0.93422303067E+02  0.93422303067E+02  0.00000000000E+00 0. -1.
          6    1    1    2  501    0 -0.66691083748E+02 -0.75822545522E+02  0.26047622687E+03  0.32859340198E+03  0.17300000000E+03 0. -1.
         -6    1    1    2    0  503  0.66691083748E+02  0.75822545522E+02  0.10961896488E+03  0.22834639590E+03  0.17300000000E+03 0. -1.
<mgrwt>
<rscale>  2 0.20031415E+03</rscale>
<asrwt>0</asrwt>
<pdfrwt beam="1">  1       21 0.71310382E-01 0.20031415E+03</pdfrwt>
<pdfrwt beam="2">  1       21 0.14372662E-01 0.20031415E+03</pdfrwt>
<totfact> 0.75145537E+04</totfact>
</mgrwt>
</event>
<event>
 4    1  0.4510095E+000  0.1899834E+03  0.7546771E-02  0.1158476E+00
         21   -1    0    0  503  502  0.00000000000E+00  0.00000000000E+00  0.38493588650E+02  0.38493588650E+02  0.00000000000E+00 0. -1.
         21   -1    0    0  501  503 -0.00000000000E+00 -0.00000000000E+00 -0.97957715035E+03  0.97957715035E+03  0.00000000000E+00 0. -1.
          6    1    1    2  501    0  0.50167970079E+02 -0.60397681583E+02 -0.57584714803E+03  0.60637747572E+03  0.17300000000E+03 0. -1.
         -6    1    1    2    0  502 -0.50167970079E+02  0.60397681583E+02 -0.36523641367E+03  0.41169326328E+03  0.17300000000E+03 0. -1.
<mgrwt>
<rscale>  2 0.18998343E+03</rscale>
<asrwt>0</asrwt>
<pdfrwt beam="1">  1       21 0.59220907E-02 0.18998343E+03</pdfrwt>
<pdfrwt beam="2">  1       21 0.15070417E+00 0.18998343E+03</pdfrwt>
<totfact> 0.59617167E+04</totfact>
</mgrwt>
</event>
<event>
 4    1  0.4510095E+000  0.1754230E+03  0.7546771E-02  0.1172308E+00
         21   -1    0    0  501  502  0.00000000000E+00  0.00000000000E+00  0.22164369894E+03  0.22164369894E+03  0.00000000000E+00 0. -1.
         21   -1    0    0  502  503 -0.00000000000E+00 -0.00000000000E+00 -0.15144382836E+03  0.15144382836E+03  0.00000000000E+00 0. -1.
          6    1    1    2  501    0 -0.28818604252E+02  0.37033994878E+01  0.88913207096E+02  0.19666922869E+03  0.17300000000E+03 0.  1.
         -6    1    1    2    0  503  0.28818604252E+02 -0.37033994878E+01 -0.18713336523E+02  0.17641829860E+03  0.17300000000E+03 0.  1.
<mgrwt>
<rscale>  2 0.17542299E+03</rscale>
<asrwt>0</asrwt>
<pdfrwt beam="1">  1       21 0.34099031E-01 0.17542299E+03</pdfrwt>
<pdfrwt beam="2">  1       21 0.23299050E-01 0.17542299E+03</pdfrwt>
<totfact> 0.14433789E+05</totfact>
</mgrwt>
</event>
<event>
 4    1  0.4510095E+000  0.2110257E+03  0.7546771E-02  0.1140756E+00
         21   -1    0    0  503  502  0.00000000000E+00  0.00000000000E+00  0.95689443140E+03  0.95689443140E+03  0.00000000000E+00 0.  1.
         21   -1    0    0  501  503 -0.00000000000E+00 -0.00000000000E+00 -0.50585350888E+02  0.50585350888E+02  0.00000000000E+00 0. -1.
          6    1    1    2  501    0 -0.18945573505E+02  0.11934789914E+03  0.31066439059E+03  0.37555854319E+03  0.17300000000E+03 0. -1.
         -6    1    1    2    0  502  0.18945573505E+02 -0.11934789914E+03  0.59564468992E+03  0.63192123909E+03  0.17300000000E+03 0.  1.
<mgrwt>
<rscale>  2 0.21102572E+03</rscale>
<asrwt>0</asrwt>
<pdfrwt beam="1">  1       21 0.14721451E+00 0.21102572E+03</pdfrwt>
<pdfrwt beam="2">  1       21 0.77823624E-02 0.21102572E+03</pdfrwt>
<totfact> 0.39107219E+04</totfact>
</mgrwt>
</event>
<event>
 4    1  0.4510095E+000  0.1741428E+03  0.7546771E-02  0.1173595E+00
         21   -1    0    0  501  502  0.00000000000E+00  0.00000000000E+00  0.11911512343E+04  0.11911512343E+04  0.00000000000E+00 0.  1.
         21   -1    0    0  502  503 -0.00000000000E+00 -0.00000000000E+00 -0.26744005438E+02  0.26744005438E+02  0.00000000000E+00 0.  1.
          6    1    1    2  501    0 -0.19608919075E+02  0.34933123361E+01  0.44873113814E+03  0.48133704125E+03  0.17300000000E+03 0.  1.
         -6    1    1    2    0  503  0.19608919075E+02 -0.34933123361E+01  0.71567609075E+03  0.73655819852E+03  0.17300000000E+03 0.  1.
<mgrwt>
<rscale>  2 0.17414279E+03</rscale>
<asrwt>0</asrwt>
<pdfrwt beam="1">  1       21 0.18325399E+00 0.17414279E+03</pdfrwt>
<pdfrwt beam="2">  1       21 0.41144633E-02 0.17414279E+03</pdfrwt>
<totfact> 0.65362463E+04</totfact>
</mgrwt>
</event>
<event>
 4    1  0.4510095E+000  0.1848566E+03  0.7546771E-02  0.1163184E+00
         21   -1    0    0  503  502  0.00000000000E+00  0.00000000000E+00  0.91908129152E+03  0.91908129152E+03  0.00000000000E+00 0. -1.
         21   -1    0    0  501  503 -0.00000000000E+00 -0.00000000000E+00 -0.26228088097E+03  0.26228088097E+03  0.00000000000E+00 0. -1.
          6    1    1    2  501    0  0.65093070970E+02 -0.24199179875E+01 -0.21881454833E+03  0.28644680213E+03  0.17300000000E+03 0. -1.
         -6    1    1    2    0  502 -0.65093070970E+02  0.24199179875E+01  0.87561495888E+03  0.89491537036E+03  0.17300000000E+03 0. -1.
<mgrwt>
<rscale>  2 0.18485660E+03</rscale>
<asrwt>0</asrwt>
<pdfrwt beam="1">  1       21 0.14139712E+00 0.18485660E+03</pdfrwt>
<pdfrwt beam="2">  1       21 0.40350905E-01 0.18485660E+03</pdfrwt>
<totfact> 0.20794077E+03</totfact>
</mgrwt>
</event>
<event>
 4    1  0.4510095E+000  0.3107789E+03  0.7546771E-02  0.1079973E+00
         21   -1    0    0  503  502  0.00000000000E+00  0.00000000000E+00  0.12041939090E+03  0.12041939090E+03  0.00000000000E+00 0. -1.
         21   -1    0    0  501  503 -0.00000000000E+00 -0.00000000000E+00 -0.88755774417E+03  0.88755774417E+03  0.00000000000E+00 0.  1.
          6    1    1    2  501    0 -0.20611332162E+03  0.15547282189E+03 -0.53999243481E+03  0.62303718136E+03  0.17300000000E+03 0.  1.
         -6    1    1    2    0  502  0.20611332162E+03 -0.15547282189E+03 -0.22714591845E+03  0.38493995372E+03  0.17300000000E+03 0. -1.
<mgrwt>
<rscale>  2 0.31077886E+03</rscale>
<asrwt>0</asrwt>
<pdfrwt beam="1">  1       21 0.18526060E-01 0.31077886E+03</pdfrwt>
<pdfrwt beam="2">  1       21 0.13654735E+00 0.31077886E+03</pdfrwt>
<totfact> 0.94664459E+03</totfact>
</mgrwt>
</event>
<event>
 4    1  0.4510095E+000  0.1958239E+03  0.7546771E-02  0.1153311E+00
         21   -1    0    0  503  502  0.00000000000E+00  0.00000000000E+00  0.47550119451E+03  0.47550119451E+03  0.00000000000E+00 0. -1.
         21   -1    0    0  501  503 -0.00000000000E+00 -0.00000000000E+00 -0.81704262067E+02  0.81704262067E+02  0.00000000000E+00 0. -1.
          6    1    1    2  501    0  0.83085244055E+02 -0.38920804815E+02  0.16518224060E+03  0.25618774256E+03  0.17300000000E+03 0. -1.
         -6    1    1    2    0  502 -0.83085244055E+02  0.38920804815E+02  0.22861469184E+03  0.30101771402E+03  0.17300000000E+03 0. -1.
<mgrwt>
<rscale>  2 0.19582387E+03</rscale>
<asrwt>0</asrwt>
<pdfrwt beam="1">  1       21 0.73154028E-01 0.19582387E+03</pdfrwt>
<pdfrwt beam="2">  1       21 0.12569887E-01 0.19582387E+03</pdfrwt>
<totfact> 0.90637435E+04</totfact>
</mgrwt>
</event>
<event>
 4    1  0.4510095E+000  0.1749741E+03  0.7546771E-02  0.1172758E+00
         21   -1    0    0  501  502  0.00000000000E+00  0.00000000000E+00  0.54302042079E+03  0.54302042079E+03  0.00000000000E+00 0.  1.
         21   -1    0    0  502  503 -0.00000000000E+00 -0.00000000000E+00 -0.74623509334E+02  0.74623509334E+02  0.00000000000E+00 0.  1.
          6    1    1    2  501    0 -0.23270005738E+02 -0.12059343171E+02  0.81506863980E+02  0.19302665567E+03  0.17300000000E+03 0.  1.
         -6    1    1    2    0  503  0.23270005738E+02  0.12059343171E+02  0.38689004747E+03  0.42461727445E+03  0.17300000000E+03 0.  1.
<mgrwt>
<rscale>  2 0.17497406E+03</rscale>
<asrwt>0</asrwt>
<pdfrwt beam="1">  1       21 0.83541601E-01 0.17497406E+03</pdfrwt>
<pdfrwt beam="2">  1       21 0.11480540E-01 0.17497406E+03</pdfrwt>
<totfact> 0.79771797E+04</totfact>
</mgrwt>
</event>
<event>
 4    1  0.4510095E+000  0.1888980E+03  0.7546771E-02  0.1159459E+00
         21   -1    0    0  503  502  0.00000000000E+00  0.00000000000E+00  0.43743136561E+03  0.43743136561E+03  0.00000000000E+00 0.  1.
         21   -1    0    0  501  503 -0.00000000000E+00 -0.00000000000E+00 -0.13287483012E+03  0.13287483012E+03  0.00000000000E+00 0.  1.
          6    1    1    2  501    0 -0.11265032083E+02  0.75010447449E+02 -0.24905661796E+02  0.19053283225E+03  0.17300000000E+03 0.  1.
         -6    1    1    2    0  502  0.11265032083E+02 -0.75010447449E+02  0.32946219729E+03  0.37977336349E+03  0.17300000000E+03 0.  1.
<mgrwt>
<rscale>  2 0.18889804E+03</rscale>
<asrwt>0</asrwt>
<pdfrwt beam="1">  1       21 0.67297133E-01 0.18889804E+03</pdfrwt>
<pdfrwt beam="2">  1       21 0.20442282E-01 0.18889804E+03</pdfrwt>
<totfact> 0.44850123E+04</totfact>
</mgrwt>
</event>
<event>
 4    1  0.4510095E+000  0.1844313E+03  0.7546771E-02  0.1163582E+00
         21   -1    0    0  503  502  0.00000000000E+00  0.00000000000E+00  0.71087348961E+03  0.71087348961E+03  0.00000000000E+00 0.  1.
         21   -1    0    0  501  503 -0.00000000000E+00 -0.00000000000E+00 -0.57415335170E+02  0.57415335170E+02  0.00000000000E+00 0.  1.
          6    1    1    2  501    0  0.63916483972E+02  0.76550484046E+00  0.16993009759E+03  0.25078106186E+03  0.17300000000E+03 0.  1.
         -6    1    1    2    0  502 -0.63916483972E+02 -0.76550484046E+00  0.48352805684E+03  0.51750776291E+03  0.17300000000E+03 0.  1.
<mgrwt>
<rscale>  2 0.18443130E+03</rscale>
<asrwt>0</asrwt>
<pdfrwt beam="1">  1       21 0.10936515E+00 0.18443130E+03</pdfrwt>
<pdfrwt beam="2">  1       21 0.88331290E-02 0.18443130E+03</pdfrwt>
<totfact> 0.67112133E+04</totfact>
</mgrwt>
</event>
<event>
 4    1  0.4510095E+000  0.2170084E+03  0.7546771E-02  0.1136133E+00
         21   -1    0    0  501  502  0.00000000000E+00  0.00000000000E+00  0.34737313524E+03  0.34737313524E+03  0.00000000000E+00 0.  1.
         21   -1    0    0  502  503 -0.00000000000E+00 -0.00000000000E+00 -0.15118781563E+03  0.15118781563E+03  0.00000000000E+00 0.  1.
          6    1    1    2  501    0  0.43852270676E+01 -0.13093674986E+03  0.17967564174E+02  0.21775099550E+03  0.17300000000E+03 0.  1.
         -6    1    1    2    0  503 -0.43852270676E+01  0.13093674986E+03  0.17821775544E+03  0.28080995537E+03  0.17300000000E+03 0.  1.
<mgrwt>
<rscale>  2 0.21700844E+03</rscale>
<asrwt>0</asrwt>
<pdfrwt beam="1">  1       21 0.53442020E-01 0.21700844E+03</pdfrwt>
<pdfrwt beam="2">  1       21 0.23259664E-01 0.21700844E+03</pdfrwt>
<totfact> 0.56939273E+04</totfact>
</mgrwt>
</event>
<event>
 4    1  0.4510095E+000  0.1809054E+03  0.7546771E-02  0.1166930E+00
         21   -1    0    0  503  502  0.00000000000E+00  0.00000000000E+00  0.17661466708E+04  0.17661466708E+04  0.00000000000E+00 0. -1.
         21   -1    0    0  501  503 -0.00000000000E+00 -0.00000000000E+00 -0.86244891628E+02  0.86244891628E+02  0.00000000000E+00 0. -1.
          6    1    1    2  501    0  0.46663295681E+02  0.24905678658E+02  0.19262864967E+02  0.18192804611E+03  0.17300000000E+03 0. -1.
         -6    1    1    2    0  502 -0.46663295681E+02 -0.24905678658E+02  0.16606389142E+04  0.16704635163E+04  0.17300000000E+03 0. -1.
<mgrwt>
<rscale>  2 0.18090538E+03</rscale>
<asrwt>0</asrwt>
<pdfrwt beam="1">  1       21 0.27171485E+00 0.18090538E+03</pdfrwt>
<pdfrwt beam="2">  1       21 0.13268446E-01 0.18090538E+03</pdfrwt>
<totfact> 0.24691312E+03</totfact>
</mgrwt>
</event>
<event>
 4    1  0.4510095E+000  0.1946260E+03  0.7546771E-02  0.1154354E+00
         21   -1    0    0  501  502  0.00000000000E+00  0.00000000000E+00  0.22723264240E+03  0.22723264240E+03  0.00000000000E+00 0.  1.
         21   -1    0    0  502  503 -0.00000000000E+00 -0.00000000000E+00 -0.16794449541E+03  0.16794449541E+03  0.00000000000E+00 0. -1.
          6    1    1    2  501    0 -0.87439897848E+02 -0.17451453142E+02  0.12623398144E+02  0.19503496900E+03  0.17300000000E+03 0.  1.
         -6    1    1    2    0  503  0.87439897848E+02  0.17451453142E+02  0.46664748846E+02  0.20014216881E+03  0.17300000000E+03 0. -1.
<mgrwt>
<rscale>  2 0.19462602E+03</rscale>
<asrwt>0</asrwt>
<pdfrwt beam="1">  1       21 0.34958868E-01 0.19462602E+03</pdfrwt>
<pdfrwt beam="2">  1       21 0.25837615E-01 0.19462602E+03</pdfrwt>
<totfact> 0.11209726E+05</totfact>
</mgrwt>
</event>
<event>
 4    1  0.4510095E+000  0.1781245E+03  0.7546771E-02  0.1169631E+00
         21   -1    0    0  501  502  0.00000000000E+00  0.00000000000E+00  0.36230358370E+02  0.36230358370E+02  0.00000000000E+00 0.  1.
         21   -1    0    0  502  503 -0.00000000000E+00 -0.00000000000E+00 -0.94290079372E+03  0.94290079372E+03  0.00000000000E+00 0.  1.
          6    1    1    2  501    0  0.41131868525E+02 -0.10369361880E+02 -0.32267675444E+03  0.36857650784E+03  0.17300000000E+03 0.  1.
         -6    1    1    2    0  503 -0.41131868525E+02  0.10369361880E+02 -0.58399368092E+03  0.61055464426E+03  0.17300000000E+03 0.  1.
<mgrwt>
<rscale>  2 0.17812455E+03</rscale>
<asrwt>0</asrwt>
<pdfrwt beam="1">  1       21 0.55739013E-02 0.17812455E+03</pdfrwt>
<pdfrwt beam="2">  1       21 0.14506166E+00 0.17812455E+03</pdfrwt>
<totfact> 0.73508879E+04</totfact>
</mgrwt>
</event>
<event>
 4    1  0.4510095E+000  0.2120461E+03  0.7546771E-02  0.1139956E+00
         21   -1    0    0  503  502  0.00000000000E+00  0.00000000000E+00  0.16548505674E+03  0.16548505674E+03  0.00000000000E+00 0. -1.
         21   -1    0    0  501  503 -0.00000000000E+00 -0.00000000000E+00 -0.35463279244E+03  0.35463279244E+03  0.00000000000E+00 0.  1.
          6    1    1    2  501    0  0.24554390064E+02  0.12013166134E+03 -0.22032901613E+03  0.30579144769E+03  0.17300000000E+03 0.  1.
         -6    1    1    2    0  502 -0.24554390064E+02 -0.12013166134E+03  0.31181280431E+02  0.21432640149E+03  0.17300000000E+03 0. -1.
<mgrwt>
<rscale>  2 0.21204607E+03</rscale>
<asrwt>0</asrwt>
<pdfrwt beam="1">  1       21 0.25459240E-01 0.21204607E+03</pdfrwt>
<pdfrwt beam="2">  1       21 0.54558891E-01 0.21204607E+03</pdfrwt>
<totfact> 0.45972169E+04</totfact>
</mgrwt>
</event>
<event>
 4    1  0.4510095E+000  0.2290972E+03  0.7546771E-02  0.1127277E+00
         21   -1    0    0  501  502  0.00000000000E+00  0.00000000000E+00  0.54716968925E+02  0.54716968925E+02  0.00000000000E+00 0. -1.
         21   -1    0    0  502  503 -0.00000000000E+00 -0.00000000000E+00 -0.96922571098E+03  0.96922571098E+03  0.00000000000E+00 0. -1.
          6    1    1    2  501    0 -0.10003882905E+03 -0.11202129253E+03 -0.40523245212E+03  0.46550926688E+03  0.17300000000E+03 0. -1.
         -6    1    1    2    0  503  0.10003882905E+03  0.11202129253E+03 -0.50927628994E+03  0.55843341303E+03  0.17300000000E+03 0. -1.
<mgrwt>
<rscale>  2 0.22909722E+03</rscale>
<asrwt>0</asrwt>
<pdfrwt beam="1">  1       21 0.84179947E-02 0.22909722E+03</pdfrwt>
<pdfrwt beam="2">  1       21 0.14911166E+00 0.22909722E+03</pdfrwt>
<totfact> 0.32632118E+04</totfact>
</mgrwt>
</event>
<event>
 4    1  0.4510095E+000  0.2687106E+03  0.7546771E-02  0.1102020E+00
         21   -1    0    0  501  502  0.00000000000E+00  0.00000000000E+00  0.60689654694E+03  0.60689654694E+03  0.00000000000E+00 0.  1.
         21   -1    0    0  502  503 -0.00000000000E+00 -0.00000000000E+00 -0.14408312066E+03  0.14408312066E+03  0.00000000000E+00 0. -1.
          6    1    1    2  501    0  0.80275511364E+02  0.18929405520E+03  0.38815414644E+03  0.47209007452E+03  0.17300000000E+03 0.  1.
         -6    1    1    2    0  503 -0.80275511364E+02 -0.18929405520E+03  0.74659279837E+02  0.27888959307E+03  0.17300000000E+03 0. -1.
<mgrwt>
<rscale>  2 0.26871062E+03</rscale>
<asrwt>0</asrwt>
<pdfrwt beam="1">  1       21 0.93368699E-01 0.26871062E+03</pdfrwt>
<pdfrwt beam="2">  1       21 0.22166634E-01 0.26871062E+03</pdfrwt>
<totfact> 0.17603185E+04</totfact>
</mgrwt>
</event>
<event>
 4    1  0.4510095E+000  0.1836602E+03  0.7546771E-02  0.1164307E+00
         21   -1    0    0  501  502  0.00000000000E+00  0.00000000000E+00  0.16175244844E+03  0.16175244844E+03  0.00000000000E+00 0.  1.
         21   -1    0    0  502  503 -0.00000000000E+00 -0.00000000000E+00 -0.55039195931E+03  0.55039195931E+03  0.00000000000E+00 0.  1.
          6    1    1    2  501    0 -0.17157632505E+02  0.59225819449E+02  0.86303789656E+02  0.20292714494E+03  0.17300000000E+03 0.  1.
         -6    1    1    2    0  503  0.17157632505E+02 -0.59225819449E+02 -0.47494330053E+03  0.50921726282E+03  0.17300000000E+03 0.  1.
<mgrwt>
<rscale>  2 0.18366024E+03</rscale>
<asrwt>0</asrwt>
<pdfrwt beam="1">  1       21 0.24884992E-01 0.18366024E+03</pdfrwt>
<pdfrwt beam="2">  1       21 0.84675685E-01 0.18366024E+03</pdfrwt>
<totfact> 0.18573169E+04</totfact>
</mgrwt>
</event>
<event>
 4    1  0.4510095E+000  0.1788206E+03  0.7546771E-02  0.1168949E+00
         21   -1    0    0  503  502  0.00000000000E+00  0.00000000000E+00  0.25879327705E+03  0.25879327705E+03  0.00000000000E+00 0.  1.
         21   -1    0    0  501  503 -0.00000000000E+00 -0.00000000000E+00 -0.17178467183E+03  0.17178467183E+03  0.00000000000E+00 0.  1.
          6    1    1    2  501    0  0.38163545981E+02  0.24317640846E+02 -0.70562400740E+02  0.19223906028E+03  0.17300000000E+03 0.  1.
         -6    1    1    2    0  502 -0.38163545981E+02 -0.24317640846E+02  0.15757100596E+03  0.23833888860E+03  0.17300000000E+03 0.  1.
<mgrwt>
<rscale>  2 0.17882059E+03</rscale>
<asrwt>0</asrwt>
<pdfrwt beam="1">  1       21 0.39814350E-01 0.17882059E+03</pdfrwt>
<pdfrwt beam="2">  1       21 0.26428411E-01 0.17882059E+03</pdfrwt>
<totfact> 0.83264532E+04</totfact>
</mgrwt>
</event>
<event>
 4    1  0.4510095E+000  0.2064765E+03  0.7546771E-02  0.1144387E+00
         21   -1    0    0  501  502  0.00000000000E+00  0.00000000000E+00  0.68012755116E+02  0.68012755116E+02  0.00000000000E+00 0. -1.
         21   -1    0    0  502  503 -0.00000000000E+00 -0.00000000000E+00 -0.13010153933E+04  0.13010153933E+04  0.00000000000E+00 0. -1.
          6    1    1    2  501    0  0.28914331685E+02  0.10893800574E+03 -0.12374704895E+03  0.24071946285E+03  0.17300000000E+03 0. -1.
         -6    1    1    2    0  503 -0.28914331685E+02 -0.10893800574E+03 -0.11092555892E+04  0.11283086856E+04  0.17300000000E+03 0. -1.
<mgrwt>
<rscale>  2 0.20647646E+03</rscale>
<asrwt>0</asrwt>
<pdfrwt beam="1">  1       21 0.10463502E-01 0.20647646E+03</pdfrwt>
<pdfrwt beam="2">  1       21 0.20015620E+00 0.20647646E+03</pdfrwt>
<totfact> 0.99179981E+03</totfact>
</mgrwt>
</event>
<event>
 4    1  0.4510095E+000  0.2228545E+03  0.7546771E-02  0.1131773E+00
         21   -1    0    0  503  502  0.00000000000E+00  0.00000000000E+00  0.65199955911E+02  0.65199955911E+02  0.00000000000E+00 0. -1.
         21   -1    0    0  501  503 -0.00000000000E+00 -0.00000000000E+00 -0.76184044313E+03  0.76184044313E+03  0.00000000000E+00 0.  1.
          6    1    1    2  501    0 -0.76313019959E+02  0.11794690561E+03 -0.35350669970E+03  0.41788890425E+03  0.17300000000E+03 0. -1.
         -6    1    1    2    0  502  0.76313019959E+02 -0.11794690561E+03 -0.34313378751E+03  0.40915149479E+03  0.17300000000E+03 0.  1.
<mgrwt>
<rscale>  2 0.22285455E+03</rscale>
<asrwt>0</asrwt>
<pdfrwt beam="1">  1       21 0.10030762E-01 0.22285455E+03</pdfrwt>
<pdfrwt beam="2">  1       21 0.11720623E+00 0.22285455E+03</pdfrwt>
<totfact> 0.44460430E+04</totfact>
</mgrwt>
</event>
<event>
 4    1  0.4510095E+000  0.1960159E+03  0.7546771E-02  0.1153145E+00
         21   -1    0    0  501  502  0.00000000000E+00  0.00000000000E+00  0.97079680103E+02  0.97079680103E+02  0.00000000000E+00 0. -1.
         21   -1    0    0  502  503 -0.00000000000E+00 -0.00000000000E+00 -0.59883716109E+03  0.59883716109E+03  0.00000000000E+00 0.  1.
          6    1    1    2  501    0 -0.90905147076E+02  0.15148345487E+02 -0.48258937678E+02  0.20186912394E+03  0.17300000000E+03 0. -1.
         -6    1    1    2    0  503  0.90905147076E+02 -0.15148345487E+02 -0.45349854331E+03  0.49404771725E+03  0.17300000000E+03 0.  1.
<mgrwt>
<rscale>  2 0.19601586E+03</rscale>
<asrwt>0</asrwt>
<pdfrwt beam="1">  1       21 0.14935336E-01 0.19601586E+03</pdfrwt>
<pdfrwt beam="2">  1       21 0.92128791E-01 0.19601586E+03</pdfrwt>
<totfact> 0.39275144E+04</totfact>
</mgrwt>
</event>
<event>
 4    1  0.4510095E+000  0.1823192E+03  0.7546771E-02  0.1165577E+00
         21   -1    0    0  501  502  0.00000000000E+00  0.00000000000E+00  0.40649831916E+02  0.40649831916E+02  0.00000000000E+00 0. -1.
         21   -1    0    0  502  503 -0.00000000000E+00 -0.00000000000E+00 -0.18500806811E+04  0.18500806811E+04  0.00000000000E+00 0. -1.
          6    1    1    2  501    0 -0.31380454066E+02 -0.48234276091E+02 -0.19852873880E+03  0.26954394524E+03  0.17300000000E+03 0. -1.
         -6    1    1    2    0  503  0.31380454066E+02  0.48234276091E+02 -0.16109021104E+04  0.16211865678E+04  0.17300000000E+03 0. -1.
<mgrwt>
<rscale>  2 0.18231917E+03</rscale>
<asrwt>0</asrwt>
<pdfrwt beam="1">  1       21 0.62538202E-02 0.18231917E+03</pdfrwt>
<pdfrwt beam="2">  1       21 0.28462780E+00 0.18231917E+03</pdfrwt>
<totfact> 0.77741357E+03</totfact>
</mgrwt>
</event>
