<event>
 4    1  0.4333905E+000  0.1785744E+03  0.7546771E-02  0.1169190E+00
         21   -1    0    0  501  502  0.00000000000E+00  0.00000000000E+00  0.52384608827E+03  0.52384608827E+03  0.00000000000E+00 0.  1.
         21   -1    0    0  502  503 -0.00000000000E+00 -0.00000000000E+00 -0.65429329934E+02  0.65429329934E+02  0.00000000000E+00 0.  1.
          6    1    1    2  501    0 -0.30853353842E+02 -0.31747306994E+02  0.30694801858E+03  0.35511393531E+03  0.17300000000E+03 0. -1.
         -6    1    1    2    0  503  0.30853353842E+02  0.31747306994E+02  0.15146873975E+03  0.23416148288E+03  0.17300000000E+03 0. -1.
<mgrwt>
<rscale>  2 0.17857441E+03</rscale>
<asrwt>0</asrwt>
<pdfrwt beam="1">  1       21 0.80591703E-01 0.17857441E+03</pdfrwt>
<pdfrwt beam="2">  1       21 0.10066051E-01 0.17857441E+03</pdfrwt>
<totfact> 0.10907790E+05</totfact>
</mgrwt>
</event>
<event>
 4    1  0.4333905E+000  0.2097078E+03  0.7546771E-02  0.1141798E+00
         21   -1    0    0  503  502  0.00000000000E+00  0.00000000000E+00  0.27107533844E+03  0.27107533844E+03  0.00000000000E+00 0.  1.
         21   -1    0    0  501  503 -0.00000000000E+00 -0.00000000000E+00 -0.16309118406E+03  0.16309118406E+03  0.00000000000E+00 0. -1.
          6    1    1    2  501    0 -0.11648752988E+03  0.21886899214E+02  0.38245478473E+02  0.21316683044E+03  0.17300000000E+03 0.  1.
         -6    1    1    2    0  502  0.11648752988E+03 -0.21886899214E+02  0.69738675904E+02  0.22099969206E+03  0.17300000000E+03 0. -1.
<mgrwt>
<rscale>  2 0.20970785E+03</rscale>
<asrwt>0</asrwt>
<pdfrwt beam="1">  1       21 0.41703898E-01 0.20970785E+03</pdfrwt>
<pdfrwt beam="2">  1       21 0.25090951E-01 0.20970785E+03</pdfrwt>
<totfact> 0.82663909E+04</totfact>
</mgrwt>
</event>
<event>
 4    1  0.4333905E+000  0.1762704E+03  0.7546771E-02  0.1171462E+00
         21   -1    0    0  501  502  0.00000000000E+00  0.00000000000E+00  0.71790797068E+03  0.71790797068E+03  0.00000000000E+00 0.  1.
         21   -1    0    0  502  503 -0.00000000000E+00 -0.00000000000E+00 -0.77392611522E+02  0.77392611522E+02  0.00000000000E+00 0.  1.
          6    1    1    2  501    0 -0.32201841923E+02 -0.10261984434E+02  0.58425965485E+03  0.61027093264E+03  0.17300000000E+03 0.  1.
         -6    1    1    2    0  503  0.32201841923E+02  0.10261984434E+02  0.56255704308E+02  0.18502964956E+03  0.17300000000E+03 0.  1.
<mgrwt>
<rscale>  2 0.17627044E+03</rscale>
<asrwt>0</asrwt>
<pdfrwt beam="1">  1       21 0.11044738E+00 0.17627044E+03</pdfrwt>
<pdfrwt beam="2">  1       21 0.11906556E-01 0.17627044E+03</pdfrwt>
<totfact> 0.38831134E+04</totfact>
</mgrwt>
</event>
<event>
 4    1  0.4333905E+000  0.3538673E+03  0.7546771E-02  0.1061039E+00
         21   -1    0    0  503  502  0.00000000000E+00  0.00000000000E+00  0.20191600913E+04  0.20191600913E+04  0.00000000000E+00 0.  1.
         21   -1    0    0  501  503 -0.00000000000E+00 -0.00000000000E+00 -0.75367320824E+02  0.75367320824E+02  0.00000000000E+00 0. -1.
          6    1    1    2  501    0  0.28116636892E+03  0.12743052805E+03  0.53112656047E+03  0.63821429765E+03  0.17300000000E+03 0.  1.
         -6    1    1    2    0  502 -0.28116636892E+03 -0.12743052805E+03  0.14126662100E+04  0.14563131145E+04  0.17300000000E+03 0. -1.
<mgrwt>
<rscale>  2 0.35386730E+03</rscale>
<asrwt>0</asrwt>
<pdfrwt beam="1">  1       21 0.31063997E+00 0.35386730E+03</pdfrwt>
<pdfrwt beam="2">  1       21 0.11594974E-01 0.35386730E+03</pdfrwt>
<totfact> 0.15885299E+03</totfact>
</mgrwt>
</event>
<event>
 4    1  0.4333905E+000  0.1753258E+03  0.7546771E-02  0.1172405E+00
         21   -1    0    0  501  502  0.00000000000E+00  0.00000000000E+00  0.10838524747E+03  0.10838524747E+03  0.00000000000E+00 0.  1.
         21   -1    0    0  502  503 -0.00000000000E+00 -0.00000000000E+00 -0.29804725615E+03  0.29804725615E+03  0.00000000000E+00 0.  1.
          6    1    1    2  501    0 -0.28462484917E+02  0.17387219384E+00 -0.50105241793E+02  0.18234494381E+03  0.17300000000E+03 0. -1.
         -6    1    1    2    0  503  0.28462484917E+02 -0.17387219384E+00 -0.13955676688E+03  0.22408755981E+03  0.17300000000E+03 0. -1.
<mgrwt>
<rscale>  2 0.17532582E+03</rscale>
<asrwt>0</asrwt>
<pdfrwt beam="1">  1       21 0.16674653E-01 0.17532582E+03</pdfrwt>
<pdfrwt beam="2">  1       21 0.45853424E-01 0.17532582E+03</pdfrwt>
<totfact> 0.14821366E+05</totfact>
</mgrwt>
</event>
<event>
 4    1  0.4333905E+000  0.1747873E+03  0.7546771E-02  0.1172945E+00
         21   -1    0    0  501  502  0.00000000000E+00  0.00000000000E+00  0.15178094348E+03  0.15178094348E+03  0.00000000000E+00 0. -1.
         21   -1    0    0  502  503 -0.00000000000E+00 -0.00000000000E+00 -0.27223817027E+03  0.27223817027E+03  0.00000000000E+00 0. -1.
          6    1    1    2  501    0  0.54922915260E+01 -0.24319249079E+02  0.48009361257E+02  0.18126083391E+03  0.17300000000E+03 0. -1.
         -6    1    1    2    0  503 -0.54922915260E+01  0.24319249079E+02 -0.16846658804E+03  0.24275827983E+03  0.17300000000E+03 0. -1.
<mgrwt>
<rscale>  2 0.17478727E+03</rscale>
<asrwt>0</asrwt>
<pdfrwt beam="1">  1       21 0.23350915E-01 0.17478727E+03</pdfrwt>
<pdfrwt beam="2">  1       21 0.41882795E-01 0.17478727E+03</pdfrwt>
<totfact> 0.95294190E+04</totfact>
</mgrwt>
</event>
<event>
 4    1  0.4333905E+000  0.1819292E+03  0.7546771E-02  0.1165949E+00
         21   -1    0    0  503  502  0.00000000000E+00  0.00000000000E+00  0.49301909156E+02  0.49301909156E+02  0.00000000000E+00 0.  1.
         21   -1    0    0  501  503 -0.00000000000E+00 -0.00000000000E+00 -0.74836239954E+03  0.74836239954E+03  0.00000000000E+00 0.  1.
          6    1    1    2  501    0  0.21965218161E+02 -0.51833903048E+02 -0.47748296848E+03  0.51096791436E+03  0.17300000000E+03 0. -1.
         -6    1    1    2    0  502 -0.21965218161E+02  0.51833903048E+02 -0.22157752190E+03  0.28669639434E+03  0.17300000000E+03 0. -1.
<mgrwt>
<rscale>  2 0.18192917E+03</rscale>
<asrwt>0</asrwt>
<pdfrwt beam="1">  1       21 0.75849093E-02 0.18192917E+03</pdfrwt>
<pdfrwt beam="2">  1       21 0.11513267E+00 0.18192917E+03</pdfrwt>
<totfact> 0.77340772E+04</totfact>
</mgrwt>
</event>
<event>
 4    1  0.4333905E+000  0.2815070E+03  0.7546771E-02  0.1094869E+00
         21   -1    0    0  503  502  0.00000000000E+00  0.00000000000E+00  0.12202837482E+03  0.12202837482E+03  0.00000000000E+00 0.  1.
         21   -1    0    0  501  503 -0.00000000000E+00 -0.00000000000E+00 -0.90515520896E+03  0.90515520896E+03  0.00000000000E+00 0.  1.
          6    1    1    2  501    0 -0.18484994647E+03  0.12307590974E+03 -0.66456309917E+03  0.72172729964E+03  0.17300000000E+03 0.  1.
         -6    1    1    2    0  502  0.18484994647E+03 -0.12307590974E+03 -0.11856373497E+03  0.30545628414E+03  0.17300000000E+03 0.  1.
<mgrwt>
<rscale>  2 0.28150698E+03</rscale>
<asrwt>0</asrwt>
<pdfrwt beam="1">  1       21 0.18773595E-01 0.28150698E+03</pdfrwt>
<pdfrwt beam="2">  1       21 0.13925465E+00 0.28150698E+03</pdfrwt>
<totfact> 0.89006283E+03</totfact>
</mgrwt>
</event>
<event>
 4    1  0.4333905E+000  0.4039463E+03  0.7546771E-02  0.1042422E+00
         21   -1    0    0  501  502  0.00000000000E+00  0.00000000000E+00  0.71417063435E+03  0.71417063435E+03  0.00000000000E+00 0.  1.
         21   -1    0    0  502  503 -0.00000000000E+00 -0.00000000000E+00 -0.46205269553E+03  0.46205269553E+03  0.00000000000E+00 0. -1.
          6    1    1    2  501    0 -0.17084143174E+03  0.32257838971E+03  0.54420357675E+03  0.67773899493E+03  0.17300000000E+03 0.  1.
         -6    1    1    2    0  503  0.17084143174E+03 -0.32257838971E+03 -0.29208563793E+03  0.49848433495E+03  0.17300000000E+03 0. -1.
<mgrwt>
<rscale>  2 0.40394630E+03</rscale>
<asrwt>0</asrwt>
<pdfrwt beam="1">  1       21 0.10987241E+00 0.40394630E+03</pdfrwt>
<pdfrwt beam="2">  1       21 0.71085030E-01 0.40394630E+03</pdfrwt>
<totfact> 0.10167448E+03</totfact>
</mgrwt>
</event>
<event>
 4    1  0.4333905E+000  0.1855695E+03  0.7546771E-02  0.1162519E+00
         21   -1    0    0  503  502  0.00000000000E+00  0.00000000000E+00  0.24706757372E+03  0.24706757372E+03  0.00000000000E+00 0.  1.
         21   -1    0    0  501  503 -0.00000000000E+00 -0.00000000000E+00 -0.32917592443E+03  0.32917592443E+03  0.00000000000E+00 0.  1.
          6    1    1    2  501    0 -0.59154459676E+02  0.31745896952E+02 -0.25983361215E+03  0.31929540879E+03  0.17300000000E+03 0.  1.
         -6    1    1    2    0  502  0.59154459676E+02 -0.31745896952E+02  0.17772526144E+03  0.25694808936E+03  0.17300000000E+03 0.  1.
<mgrwt>
<rscale>  2 0.18556953E+03</rscale>
<asrwt>0</asrwt>
<pdfrwt beam="1">  1       21 0.38010396E-01 0.18556953E+03</pdfrwt>
<pdfrwt beam="2">  1       21 0.50642450E-01 0.18556953E+03</pdfrwt>
<totfact> 0.24864320E+04</totfact>
</mgrwt>
</event>
<event>
 4    1  0.4333905E+000  0.2019249E+03  0.7546771E-02  0.1148125E+00
         21   -1    0    0  501  502  0.00000000000E+00  0.00000000000E+00  0.19457295022E+03  0.19457295022E+03  0.00000000000E+00 0. -1.
         21   -1    0    0  502  503 -0.00000000000E+00 -0.00000000000E+00 -0.32305549282E+03  0.32305549282E+03  0.00000000000E+00 0.  1.
          6    1    1    2  501    0 -0.29910029461E+02  0.99749967037E+02  0.89167122143E+02  0.22073613537E+03  0.17300000000E+03 0. -1.
         -6    1    1    2    0  503  0.29910029461E+02 -0.99749967037E+02 -0.21764966475E+03  0.29689230766E+03  0.17300000000E+03 0.  1.
<mgrwt>
<rscale>  2 0.20192490E+03</rscale>
<asrwt>0</asrwt>
<pdfrwt beam="1">  1       21 0.29934300E-01 0.20192490E+03</pdfrwt>
<pdfrwt beam="2">  1       21 0.49700845E-01 0.20192490E+03</pdfrwt>
<totfact> 0.41095774E+04</totfact>
</mgrwt>
</event>
<event>
 4    1  0.4333905E+000  0.2574347E+03  0.7546771E-02  0.1108694E+00
         21   -1    0    0  501  502  0.00000000000E+00  0.00000000000E+00  0.52286098514E+03  0.52286098514E+03  0.00000000000E+00 0. -1.
         21   -1    0    0  502  503 -0.00000000000E+00 -0.00000000000E+00 -0.19396896602E+03  0.19396896602E+03  0.00000000000E+00 0. -1.
          6    1    1    2  501    0 -0.17808303493E+03 -0.68044469073E+02  0.37543802217E+03  0.45522118315E+03  0.17300000000E+03 0. -1.
         -6    1    1    2    0  503  0.17808303493E+03  0.68044469073E+02 -0.46546003052E+02  0.26160876801E+03  0.17300000000E+03 0. -1.
<mgrwt>
<rscale>  2 0.25743469E+03</rscale>
<asrwt>0</asrwt>
<pdfrwt beam="1">  1       21 0.80440151E-01 0.25743469E+03</pdfrwt>
<pdfrwt beam="2">  1       21 0.29841380E-01 0.25743469E+03</pdfrwt>
<totfact> 0.14085249E+04</totfact>
</mgrwt>
</event>
<event>
 4    1  0.4333905E+000  0.3075136E+03  0.7546771E-02  0.1081544E+00
         21   -1    0    0  503  502  0.00000000000E+00  0.00000000000E+00  0.17840908276E+04  0.17840908276E+04  0.00000000000E+00 0. -1.
         21   -1    0    0  501  503 -0.00000000000E+00 -0.00000000000E+00 -0.18825945935E+03  0.18825945935E+03  0.00000000000E+00 0.  1.
          6    1    1    2  501    0  0.24340649789E+03 -0.73409128046E+02 -0.37980696058E+02  0.30985021634E+03  0.17300000000E+03 0.  1.
         -6    1    1    2    0  502 -0.24340649789E+03  0.73409128046E+02  0.16338120643E+04  0.16625000706E+04  0.17300000000E+03 0. -1.
<mgrwt>
<rscale>  2 0.30751361E+03</rscale>
<asrwt>0</asrwt>
<pdfrwt beam="1">  1       21 0.27447550E+00 0.30751361E+03</pdfrwt>
<pdfrwt beam="2">  1       21 0.28962995E-01 0.30751361E+03</pdfrwt>
<totfact> 0.48293678E+02</totfact>
</mgrwt>
</event>
<event>
 4    1  0.4333905E+000  0.2000413E+03  0.7546771E-02  0.1149704E+00
         21   -1    0    0  503  502  0.00000000000E+00  0.00000000000E+00  0.74720782621E+02  0.74720782621E+02  0.00000000000E+00 0. -1.
         21   -1    0    0  501  503 -0.00000000000E+00 -0.00000000000E+00 -0.11231978017E+04  0.11231978017E+04  0.00000000000E+00 0.  1.
          6    1    1    2  501    0  0.29078112820E+02  0.96135280484E+02 -0.95747862600E+03  0.97815226220E+03  0.17300000000E+03 0.  1.
         -6    1    1    2    0  502 -0.29078112820E+02 -0.96135280484E+02 -0.90998393090E+02  0.21976632213E+03  0.17300000000E+03 0. -1.
<mgrwt>
<rscale>  2 0.20004132E+03</rscale>
<asrwt>0</asrwt>
<pdfrwt beam="1">  1       21 0.11495504E-01 0.20004132E+03</pdfrwt>
<pdfrwt beam="2">  1       21 0.17279967E+00 0.20004132E+03</pdfrwt>
<totfact> 0.12851606E+04</totfact>
</mgrwt>
</event>
<event>
 4    1  0.4333905E+000  0.1779370E+03  0.7546771E-02  0.1169815E+00
         21   -1    0    0  501  502  0.00000000000E+00  0.00000000000E+00  0.56325429304E+03  0.56325429304E+03  0.00000000000E+00 0.  1.
         21   -1    0    0  502  503 -0.00000000000E+00 -0.00000000000E+00 -0.86588089228E+02  0.86588089228E+02  0.00000000000E+00 0.  1.
          6    1    1    2  501    0  0.31834350591E+02  0.26817282093E+02  0.43078208581E+03  0.46608453949E+03  0.17300000000E+03 0. -1.
         -6    1    1    2    0  503 -0.31834350591E+02 -0.26817282093E+02  0.45884117996E+02  0.18375784277E+03  0.17300000000E+03 0. -1.
<mgrwt>
<rscale>  2 0.17793705E+03</rscale>
<asrwt>0</asrwt>
<pdfrwt beam="1">  1       21 0.86654504E-01 0.17793705E+03</pdfrwt>
<pdfrwt beam="2">  1       21 0.13321245E-01 0.17793705E+03</pdfrwt>
<totfact> 0.56158795E+04</totfact>
</mgrwt>
</event>
<event>
 4    1  0.4333905E+000  0.1811133E+03  0.7546771E-02  0.1166730E+00
         21   -1    0    0  503  502  0.00000000000E+00  0.00000000000E+00  0.29499587901E+02  0.29499587901E+02  0.00000000000E+00 0. -1.
         21   -1    0    0  501  503 -0.00000000000E+00 -0.00000000000E+00 -0.11375505195E+04  0.11375505195E+04  0.00000000000E+00 0. -1.
          6    1    1    2  501    0  0.53490895368E+02  0.34301548711E+01 -0.64156529883E+03  0.66663938866E+03  0.17300000000E+03 0. -1.
         -6    1    1    2    0  502 -0.53490895368E+02 -0.34301548711E+01 -0.46648563273E+03  0.50041071871E+03  0.17300000000E+03 0. -1.
<mgrwt>
<rscale>  2 0.18111334E+03</rscale>
<asrwt>0</asrwt>
<pdfrwt beam="1">  1       21 0.45383984E-02 0.18111334E+03</pdfrwt>
<pdfrwt beam="2">  1       21 0.17500776E+00 0.18111334E+03</pdfrwt>
<totfact> 0.62809886E+04</totfact>
</mgrwt>
</event>
<event>
 4    1  0.4333905E+000  0.1821905E+03  0.7546771E-02  0.1165700E+00
         21   -1    0    0  503  502  0.00000000000E+00  0.00000000000E+00  0.15400049144E+03  0.15400049144E+03  0.00000000000E+00 0. -1.
         21   -1    0    0  501  503 -0.00000000000E+00 -0.00000000000E+00 -0.36865025471E+03  0.36865025471E+03  0.00000000000E+00 0. -1.
          6    1    1    2  501    0 -0.49883592052E+02 -0.27857095545E+02 -0.27573776132E+03  0.33049160889E+03  0.17300000000E+03 0. -1.
         -6    1    1    2    0  502  0.49883592052E+02  0.27857095545E+02  0.61087998054E+02  0.19215913726E+03  0.17300000000E+03 0. -1.
<mgrwt>
<rscale>  2 0.18219053E+03</rscale>
<asrwt>0</asrwt>
<pdfrwt beam="1">  1       21 0.23692384E-01 0.18219053E+03</pdfrwt>
<pdfrwt beam="2">  1       21 0.56715423E-01 0.18219053E+03</pdfrwt>
<totfact> 0.49276926E+04</totfact>
</mgrwt>
</event>
<event>
 4    1  0.4333905E+000  0.1867456E+03  0.7546771E-02  0.1161430E+00
         21   -1    0    0  501  502  0.00000000000E+00  0.00000000000E+00  0.80912891431E+03  0.80912891431E+03  0.00000000000E+00 0. -1.
         21   -1    0    0  502  503 -0.00000000000E+00 -0.00000000000E+00 -0.43165243013E+02  0.43165243013E+02  0.00000000000E+00 0. -1.
          6    1    1    2  501    0 -0.64911299926E+02  0.27045366322E+02  0.39947511915E+03  0.44096972631E+03  0.17300000000E+03 0. -1.
         -6    1    1    2    0  503  0.64911299926E+02 -0.27045366322E+02  0.36648855215E+03  0.41132443102E+03  0.17300000000E+03 0. -1.
<mgrwt>
<rscale>  2 0.18674563E+03</rscale>
<asrwt>0</asrwt>
<pdfrwt beam="1">  1       21 0.12448136E+00 0.18674563E+03</pdfrwt>
<pdfrwt beam="2">  1       21 0.66408072E-02 0.18674563E+03</pdfrwt>
<totfact> 0.80064846E+04</totfact>
</mgrwt>
</event>
<event>
 4    1  0.4333905E+000  0.2244416E+03  0.7546771E-02  0.1130614E+00
         21   -1    0    0  503  502  0.00000000000E+00  0.00000000000E+00  0.33733026923E+02  0.33733026923E+02  0.00000000000E+00 0.  1.
         21   -1    0    0  501  503 -0.00000000000E+00 -0.00000000000E+00 -0.21085982043E+04  0.21085982043E+04  0.00000000000E+00 0. -1.
          6    1    1    2  501    0  0.13691816756E+03  0.41212115085E+02 -0.16160578148E+04  0.16315688412E+04  0.17300000000E+03 0. -1.
         -6    1    1    2    0  502 -0.13691816756E+03 -0.41212115085E+02 -0.45880736262E+03  0.51076239000E+03  0.17300000000E+03 0.  1.
<mgrwt>
<rscale>  2 0.22444158E+03</rscale>
<asrwt>0</asrwt>
<pdfrwt beam="1">  1       21 0.51896952E-02 0.22444158E+03</pdfrwt>
<pdfrwt beam="2">  1       21 0.32439980E+00 0.22444158E+03</pdfrwt>
<totfact> 0.60146161E+03</totfact>
</mgrwt>
</event>
<event>
 4    1  0.4333905E+000  0.2067329E+03  0.7546771E-02  0.1144180E+00
         21   -1    0    0  501  502  0.00000000000E+00  0.00000000000E+00  0.61515967744E+03  0.61515967744E+03  0.00000000000E+00 0.  1.
         21   -1    0    0  502  503 -0.00000000000E+00 -0.00000000000E+00 -0.90193542216E+02  0.90193542216E+02  0.00000000000E+00 0.  1.
          6    1    1    2  501    0 -0.15786723279E+02  0.11207259616E+03  0.93453004999E+02  0.22687430790E+03  0.17300000000E+03 0.  1.
         -6    1    1    2    0  503  0.15786723279E+02 -0.11207259616E+03  0.43151313023E+03  0.47847891176E+03  0.17300000000E+03 0.  1.
<mgrwt>
<rscale>  2 0.20673289E+03</rscale>
<asrwt>0</asrwt>
<pdfrwt beam="1">  1       21 0.94639948E-01 0.20673289E+03</pdfrwt>
<pdfrwt beam="2">  1       21 0.13875930E-01 0.20673289E+03</pdfrwt>
<totfact> 0.41919545E+04</totfact>
</mgrwt>
</event>
<event>
 4    1  0.4333905E+000  0.2317787E+03  0.7546771E-02  0.1125394E+00
         21   -1    0    0  501  502  0.00000000000E+00  0.00000000000E+00  0.30609569413E+02  0.30609569413E+02  0.00000000000E+00 0. -1.
         21   -1    0    0  502  503 -0.00000000000E+00 -0.00000000000E+00 -0.18148063114E+04  0.18148063114E+04  0.00000000000E+00 0.  1.
          6    1    1    2  501    0  0.64432154392E+02 -0.14014587608E+03 -0.72466741822E+03  0.76083127967E+03  0.17300000000E+03 0.  1.
         -6    1    1    2    0  503 -0.64432154392E+02  0.14014587608E+03 -0.10595293237E+04  0.10845846011E+04  0.17300000000E+03 0. -1.
<mgrwt>
<rscale>  2 0.23177871E+03</rscale>
<asrwt>0</asrwt>
<pdfrwt beam="1">  1       21 0.47091639E-02 0.23177871E+03</pdfrwt>
<pdfrwt beam="2">  1       21 0.27920101E+00 0.23177871E+03</pdfrwt>
<totfact> 0.12911994E+04</totfact>
</mgrwt>
</event>
<event>
 4    1  0.4333905E+000  0.1967376E+03  0.7546771E-02  0.1152521E+00
         21   -1    0    0  503  502  0.00000000000E+00  0.00000000000E+00  0.20879489598E+03  0.20879489598E+03  0.00000000000E+00 0. -1.
         21   -1    0    0  501  503 -0.00000000000E+00 -0.00000000000E+00 -0.40066796316E+03  0.40066796316E+03  0.00000000000E+00 0. -1.
          6    1    1    2  501    0 -0.75460714174E+02  0.55518938612E+02 -0.31931346516E+03  0.37505567715E+03  0.17300000000E+03 0. -1.
         -6    1    1    2    0  502  0.75460714174E+02 -0.55518938612E+02  0.12744039799E+03  0.23440718199E+03  0.17300000000E+03 0. -1.
<mgrwt>
<rscale>  2 0.19673757E+03</rscale>
<asrwt>0</asrwt>
<pdfrwt beam="1">  1       21 0.32122292E-01 0.19673757E+03</pdfrwt>
<pdfrwt beam="2">  1       21 0.61641224E-01 0.19673757E+03</pdfrwt>
<totfact> 0.22738454E+04</totfact>
</mgrwt>
</event>
<event>
 4    1  0.4333905E+000  0.2213412E+03  0.7546771E-02  0.1132887E+00
         21   -1    0    0  503  502  0.00000000000E+00  0.00000000000E+00  0.35067603262E+03  0.35067603262E+03  0.00000000000E+00 0. -1.
         21   -1    0    0  501  503 -0.00000000000E+00 -0.00000000000E+00 -0.22057464919E+03  0.22057464919E+03  0.00000000000E+00 0.  1.
          6    1    1    2  501    0  0.49206404833E+02  0.12900259095E+03 -0.10789351667E+03  0.24623758789E+03  0.17300000000E+03 0.  1.
         -6    1    1    2    0  502 -0.49206404833E+02 -0.12900259095E+03  0.23799490009E+03  0.32501309392E+03  0.17300000000E+03 0. -1.
<mgrwt>
<rscale>  2 0.22134123E+03</rscale>
<asrwt>0</asrwt>
<pdfrwt beam="1">  1       21 0.53950159E-01 0.22134123E+03</pdfrwt>
<pdfrwt beam="2">  1       21 0.33934561E-01 0.22134123E+03</pdfrwt>
<totfact> 0.26757653E+04</totfact>
</mgrwt>
</event>
<event>
 4    1  0.4333905E+000  0.1871425E+03  0.7546771E-02  0.1161064E+00
         21   -1    0    0  503  502  0.00000000000E+00  0.00000000000E+00  0.38351822168E+02  0.38351822168E+02  0.00000000000E+00 0.  1.
         21   -1    0    0  501  503 -0.00000000000E+00 -0.00000000000E+00 -0.14537047600E+04  0.14537047600E+04  0.00000000000E+00 0.  1.
          6    1    1    2  501    0 -0.50494381886E+02 -0.50434350860E+02 -0.11625838709E+04  0.11775498135E+04  0.17300000000E+03 0.  1.
         -6    1    1    2    0  502  0.50494381886E+02  0.50434350860E+02 -0.25276906690E+03  0.31450676865E+03  0.17300000000E+03 0.  1.
<mgrwt>
<rscale>  2 0.18714248E+03</rscale>
<asrwt>0</asrwt>
<pdfrwt beam="1">  1       21 0.59002807E-02 0.18714248E+03</pdfrwt>
<pdfrwt beam="2">  1       21 0.22364687E+00 0.18714248E+03</pdfrwt>
<totfact> 0.19478743E+04</totfact>
</mgrwt>
</event>
<event>
 4    1  0.4333905E+000  0.2980692E+03  0.7546771E-02  0.1086210E+00
         21   -1    0    0  503  502  0.00000000000E+00  0.00000000000E+00  0.10321519809E+03  0.10321519809E+03  0.00000000000E+00 0.  1.
         21   -1    0    0  501  503 -0.00000000000E+00 -0.00000000000E+00 -0.11935912966E+04  0.11935912966E+04  0.00000000000E+00 0. -1.
          6    1    1    2  501    0 -0.21342152813E+03  0.11561788801E+03 -0.88757601947E+03  0.93628864942E+03  0.17300000000E+03 0.  1.
         -6    1    1    2    0  502  0.21342152813E+03 -0.11561788801E+03 -0.20280007905E+03  0.36051784528E+03  0.17300000000E+03 0. -1.
<mgrwt>
<rscale>  2 0.29806919E+03</rscale>
<asrwt>0</asrwt>
<pdfrwt beam="1">  1       21 0.15879261E-01 0.29806919E+03</pdfrwt>
<pdfrwt beam="2">  1       21 0.18362943E+00 0.29806919E+03</pdfrwt>
<totfact> 0.56381842E+03</totfact>
</mgrwt>
</event>
<event>
 4    1  0.4333905E+000  0.1803723E+03  0.7546771E-02  0.1167443E+00
         21   -1    0    0  501  502  0.00000000000E+00  0.00000000000E+00  0.11477038581E+03  0.11477038581E+03  0.00000000000E+00 0.  1.
         21   -1    0    0  502  503 -0.00000000000E+00 -0.00000000000E+00 -0.38290812433E+03  0.38290812433E+03  0.00000000000E+00 0.  1.
          6    1    1    2  501    0 -0.40334355841E+02  0.31277830134E+02 -0.72615775969E+01  0.18051840191E+03  0.17300000000E+03 0.  1.
         -6    1    1    2    0  503  0.40334355841E+02 -0.31277830134E+02 -0.26087616091E+03  0.31716010823E+03  0.17300000000E+03 0.  1.
<mgrwt>
<rscale>  2 0.18037229E+03</rscale>
<asrwt>0</asrwt>
<pdfrwt beam="1">  1       21 0.17656983E-01 0.18037229E+03</pdfrwt>
<pdfrwt beam="2">  1       21 0.58908942E-01 0.18037229E+03</pdfrwt>
<totfact> 0.78806123E+04</totfact>
</mgrwt>
</event>
<event>
 4    1  0.4333905E+000  0.2488597E+03  0.7546771E-02  0.1114028E+00
         21   -1    0    0  501  502  0.00000000000E+00  0.00000000000E+00  0.52457563943E+03  0.52457563943E+03  0.00000000000E+00 0. -1.
         21   -1    0    0  502  503 -0.00000000000E+00 -0.00000000000E+00 -0.11971199597E+03  0.11971199597E+03  0.00000000000E+00 0. -1.
          6    1    1    2  501    0 -0.17812771273E+03 -0.16513180248E+02  0.24027989627E+03  0.34592715377E+03  0.17300000000E+03 0. -1.
         -6    1    1    2    0  503  0.17812771273E+03  0.16513180248E+02  0.16458374719E+03  0.29836048164E+03  0.17300000000E+03 0. -1.
<mgrwt>
<rscale>  2 0.24885973E+03</rscale>
<asrwt>0</asrwt>
<pdfrwt beam="1">  1       21 0.80703943E-01 0.24885973E+03</pdfrwt>
<pdfrwt beam="2">  1       21 0.18417231E-01 0.24885973E+03</pdfrwt>
<totfact> 0.35291815E+04</totfact>
</mgrwt>
</event>
<event>
 4    1  0.4333905E+000  0.2248309E+03  0.7546771E-02  0.1130332E+00
         21   -1    0    0  503  502  0.00000000000E+00  0.00000000000E+00  0.25178662695E+03  0.25178662695E+03  0.00000000000E+00 0.  1.
         21   -1    0    0  501  503 -0.00000000000E+00 -0.00000000000E+00 -0.23130059918E+03  0.23130059918E+03  0.00000000000E+00 0.  1.
          6    1    1    2  501    0  0.35988315423E+02  0.13901360214E+03 -0.77525489501E+02  0.23782165997E+03  0.17300000000E+03 0.  1.
         -6    1    1    2    0  502 -0.35988315423E+02 -0.13901360214E+03  0.98011517272E+02  0.24526556616E+03  0.17300000000E+03 0.  1.
<mgrwt>
<rscale>  2 0.22483092E+03</rscale>
<asrwt>0</asrwt>
<pdfrwt beam="1">  1       21 0.38736404E-01 0.22483092E+03</pdfrwt>
<pdfrwt beam="2">  1       21 0.35584707E-01 0.22483092E+03</pdfrwt>
<totfact> 0.48193551E+04</totfact>
</mgrwt>
</event>
<event>
 4    1  0.4333905E+000  0.2873231E+03  0.7546771E-02  0.1091755E+00
         21   -1    0    0  501  502  0.00000000000E+00  0.00000000000E+00  0.51670389053E+02  0.51670389053E+02  0.00000000000E+00 0.  1.
         21   -1    0    0  502  503 -0.00000000000E+00 -0.00000000000E+00 -0.16534228670E+04  0.16534228670E+04  0.00000000000E+00 0. -1.
          6    1    1    2  501    0 -0.19567861952E+03  0.11973079863E+03 -0.64438784788E+03  0.70554254639E+03  0.17300000000E+03 0. -1.
         -6    1    1    2    0  503  0.19567861952E+03 -0.11973079863E+03 -0.95736463007E+03  0.99955070966E+03  0.17300000000E+03 0.  1.
<mgrwt>
<rscale>  2 0.28732314E+03</rscale>
<asrwt>0</asrwt>
<pdfrwt beam="1">  1       21 0.79492907E-02 0.28732314E+03</pdfrwt>
<pdfrwt beam="2">  1       21 0.25437275E+00 0.28732314E+03</pdfrwt>
<totfact> 0.70313342E+03</totfact>
</mgrwt>
</event>
<event>
 4    1  0.4333905E+000  0.2194742E+03  0.7546771E-02  0.1134276E+00
         21   -1    0    0  501  502  0.00000000000E+00  0.00000000000E+00  0.85268326416E+02  0.85268326416E+02  0.00000000000E+00 0. -1.
         21   -1    0    0  502  503 -0.00000000000E+00 -0.00000000000E+00 -0.62018289871E+03  0.62018289871E+03  0.00000000000E+00 0. -1.
          6    1    1    2  501    0  0.52758258485E+02  0.12432419582E+03 -0.16215621269E+03  0.27288015101E+03  0.17300000000E+03 0. -1.
         -6    1    1    2    0  503 -0.52758258485E+02 -0.12432419582E+03 -0.37275835960E+03  0.43257107411E+03  0.17300000000E+03 0. -1.
<mgrwt>
<rscale>  2 0.21947423E+03</rscale>
<asrwt>0</asrwt>
<pdfrwt beam="1">  1       21 0.13118204E-01 0.21947423E+03</pdfrwt>
<pdfrwt beam="2">  1       21 0.95412757E-01 0.21947423E+03</pdfrwt>
<totfact> 0.45238388E+04</totfact>
</mgrwt>
</event>
<event>
 4    1  0.4333905E+000  0.2092950E+03  0.7546771E-02  0.1142125E+00
         21   -1    0    0  501  502  0.00000000000E+00  0.00000000000E+00  0.12084143783E+04  0.12084143783E+04  0.00000000000E+00 0.  1.
         21   -1    0    0  502  503 -0.00000000000E+00 -0.00000000000E+00 -0.57738928196E+02  0.57738928196E+02  0.00000000000E+00 0.  1.
          6    1    1    2  501    0 -0.57040459229E+02  0.10306210495E+03  0.18911803138E+03  0.28208162162E+03  0.17300000000E+03 0.  1.
         -6    1    1    2    0  503  0.57040459229E+02 -0.10306210495E+03  0.96155741875E+03  0.98407168490E+03  0.17300000000E+03 0.  1.
<mgrwt>
<rscale>  2 0.20929503E+03</rscale>
<asrwt>0</asrwt>
<pdfrwt beam="1">  1       21 0.18590989E+00 0.20929503E+03</pdfrwt>
<pdfrwt beam="2">  1       21 0.88829130E-02 0.20929503E+03</pdfrwt>
<totfact> 0.16389289E+04</totfact>
</mgrwt>
</event>
<event>
 4    1  0.4333905E+000  0.2039111E+03  0.7546771E-02  0.1146481E+00
         21   -1    0    0  503  502  0.00000000000E+00  0.00000000000E+00  0.62953517506E+02  0.62953517506E+02  0.00000000000E+00 0. -1.
         21   -1    0    0  501  503 -0.00000000000E+00 -0.00000000000E+00 -0.68068356703E+03  0.68068356703E+03  0.00000000000E+00 0. -1.
          6    1    1    2  501    0  0.24536461616E+02 -0.10511279092E+03 -0.37291791220E+03  0.42502647683E+03  0.17300000000E+03 0. -1.
         -6    1    1    2    0  502 -0.24536461616E+02  0.10511279092E+03 -0.24481213732E+03  0.31861060771E+03  0.17300000000E+03 0. -1.
<mgrwt>
<rscale>  2 0.20391110E+03</rscale>
<asrwt>0</asrwt>
<pdfrwt beam="1">  1       21 0.96851563E-02 0.20391110E+03</pdfrwt>
<pdfrwt beam="2">  1       21 0.10472055E+00 0.20391110E+03</pdfrwt>
<totfact> 0.62783625E+04</totfact>
</mgrwt>
</event>
<event>
 4    1  0.4333905E+000  0.1749313E+03  0.7546771E-02  0.1172801E+00
         21   -1    0    0  501  502  0.00000000000E+00  0.00000000000E+00  0.77843715492E+03  0.77843715492E+03  0.00000000000E+00 0. -1.
         21   -1    0    0  502  503 -0.00000000000E+00 -0.00000000000E+00 -0.59323175872E+02  0.59323175872E+02  0.00000000000E+00 0. -1.
          6    1    1    2  501    0  0.62011798371E+00 -0.25914468332E+02  0.11626515893E+03  0.21004411774E+03  0.17300000000E+03 0. -1.
         -6    1    1    2    0  503 -0.62011798371E+00  0.25914468332E+02  0.60284882012E+03  0.62771621305E+03  0.17300000000E+03 0. -1.
<mgrwt>
<rscale>  2 0.17493126E+03</rscale>
<asrwt>0</asrwt>
<pdfrwt beam="1">  1       21 0.11975955E+00 0.17493126E+03</pdfrwt>
<pdfrwt beam="2">  1       21 0.91266430E-02 0.17493126E+03</pdfrwt>
<totfact> 0.51057722E+04</totfact>
</mgrwt>
</event>
<event>
 4    1  0.4333905E+000  0.2047791E+03  0.7546771E-02  0.1145768E+00
         21   -1    0    0  503  502  0.00000000000E+00  0.00000000000E+00  0.52772370484E+02  0.52772370484E+02  0.00000000000E+00 0.  1.
         21   -1    0    0  501  503 -0.00000000000E+00 -0.00000000000E+00 -0.79466583243E+03  0.79466583243E+03  0.00000000000E+00 0. -1.
          6    1    1    2  501    0  0.69238426138E+02 -0.84920661599E+02 -0.36807872546E+03  0.42120829355E+03  0.17300000000E+03 0. -1.
         -6    1    1    2    0  502 -0.69238426138E+02  0.84920661599E+02 -0.37381473649E+03  0.42622990937E+03  0.17300000000E+03 0.  1.
<mgrwt>
<rscale>  2 0.20477910E+03</rscale>
<asrwt>0</asrwt>
<pdfrwt beam="1">  1       21 0.81188270E-02 0.20477910E+03</pdfrwt>
<pdfrwt beam="2">  1       21 0.12225627E+00 0.20477910E+03</pdfrwt>
<totfact> 0.58604990E+04</totfact>
</mgrwt>
</event>
<event>
 4    1  0.4333905E+000  0.2849695E+03  0.7546771E-02  0.1093005E+00
         21   -1    0    0  503  502  0.00000000000E+00  0.00000000000E+00  0.13248432495E+03  0.13248432495E+03  0.00000000000E+00 0. -1.
         21   -1    0    0  501  503 -0.00000000000E+00 -0.00000000000E+00 -0.11751844216E+04  0.11751844216E+04  0.00000000000E+00 0.  1.
          6    1    1    2  501    0 -0.93218003360E+02  0.20637102086E+03 -0.97359068230E+03  0.10144389637E+04  0.17300000000E+03 0.  1.
         -6    1    1    2    0  502  0.93218003360E+02 -0.20637102086E+03 -0.69109414351E+02  0.29322978286E+03  0.17300000000E+03 0. -1.
<mgrwt>
<rscale>  2 0.28496946E+03</rscale>
<asrwt>0</asrwt>
<pdfrwt beam="1">  1       21 0.20382204E-01 0.28496946E+03</pdfrwt>
<pdfrwt beam="2">  1       21 0.18079760E+00 0.28496946E+03</pdfrwt>
<totfact> 0.37287393E+03</totfact>
</mgrwt>
</event>
<event>
 4    1  0.4333905E+000  0.2135616E+03  0.7546771E-02  0.1138776E+00
         21   -1    0    0  501  502  0.00000000000E+00  0.00000000000E+00  0.58501053324E+03  0.58501053324E+03  0.00000000000E+00 0. -1.
         21   -1    0    0  502  503 -0.00000000000E+00 -0.00000000000E+00 -0.10946672390E+03  0.10946672390E+03  0.00000000000E+00 0. -1.
          6    1    1    2  501    0  0.52510838582E+02 -0.11367576859E+03  0.42405570009E+03  0.47479659362E+03  0.17300000000E+03 0. -1.
         -6    1    1    2    0  503 -0.52510838582E+02  0.11367576859E+03  0.51488109251E+02  0.21968066352E+03  0.17300000000E+03 0. -1.
<mgrwt>
<rscale>  2 0.21356163E+03</rscale>
<asrwt>0</asrwt>
<pdfrwt beam="1">  1       21 0.90001619E-01 0.21356163E+03</pdfrwt>
<pdfrwt beam="2">  1       21 0.16841035E-01 0.21356163E+03</pdfrwt>
<totfact> 0.32966698E+04</totfact>
</mgrwt>
</event>
<event>
 4    1  0.4333905E+000  0.2842491E+03  0.7546771E-02  0.1093391E+00
         21   -1    0    0  503  502  0.00000000000E+00  0.00000000000E+00  0.13313629143E+03  0.13313629143E+03  0.00000000000E+00 0. -1.
         21   -1    0    0  501  503 -0.00000000000E+00 -0.00000000000E+00 -0.90172345614E+03  0.90172345614E+03  0.00000000000E+00 0. -1.
          6    1    1    2  501    0  0.25244567697E+02  0.22412334953E+03 -0.68017085394E+03  0.73717701711E+03  0.17300000000E+03 0. -1.
         -6    1    1    2    0  502 -0.25244567697E+02 -0.22412334953E+03 -0.88416310781E+02  0.29768273046E+03  0.17300000000E+03 0. -1.
<mgrwt>
<rscale>  2 0.28424912E+03</rscale>
<asrwt>0</asrwt>
<pdfrwt beam="1">  1       21 0.20482506E-01 0.28424912E+03</pdfrwt>
<pdfrwt beam="2">  1       21 0.13872669E+00 0.28424912E+03</pdfrwt>
<totfact> 0.76195678E+03</totfact>
</mgrwt>
</event>
<event>
 4    1  0.4333905E+000  0.1812664E+03  0.7546771E-02  0.1166583E+00
         21   -1    0    0  501  502  0.00000000000E+00  0.00000000000E+00  0.11162803260E+03  0.11162803260E+03  0.00000000000E+00 0. -1.
         21   -1    0    0  502  503 -0.00000000000E+00 -0.00000000000E+00 -0.32491159124E+03  0.32491159124E+03  0.00000000000E+00 0. -1.
          6    1    1    2  501    0 -0.14976352495E+02  0.52002183672E+02 -0.39697827303E+02  0.18556248471E+03  0.17300000000E+03 0. -1.
         -6    1    1    2    0  503  0.14976352495E+02 -0.52002183672E+02 -0.17358573133E+03  0.25097713912E+03  0.17300000000E+03 0. -1.
<mgrwt>
<rscale>  2 0.18126643E+03</rscale>
<asrwt>0</asrwt>
<pdfrwt beam="1">  1       21 0.17173543E-01 0.18126643E+03</pdfrwt>
<pdfrwt beam="2">  1       21 0.49986399E-01 0.18126643E+03</pdfrwt>
<totfact> 0.11721428E+05</totfact>
</mgrwt>
</event>
<event>
 4    1  0.4333905E+000  0.1915050E+03  0.7546771E-02  0.1157111E+00
         21   -1    0    0  501  502  0.00000000000E+00  0.00000000000E+00  0.29838542001E+03  0.29838542001E+03  0.00000000000E+00 0. -1.
         21   -1    0    0  502  503 -0.00000000000E+00 -0.00000000000E+00 -0.14301757235E+03  0.14301757235E+03  0.00000000000E+00 0.  1.
          6    1    1    2  501    0  0.60516787756E+02 -0.55523745737E+02  0.16044083928E+03  0.24983080444E+03  0.17300000000E+03 0. -1.
         -6    1    1    2    0  503 -0.60516787756E+02  0.55523745737E+02 -0.50729916145E+01  0.19157218792E+03  0.17300000000E+03 0.  1.
<mgrwt>
<rscale>  2 0.19150501E+03</rscale>
<asrwt>0</asrwt>
<pdfrwt beam="1">  1       21 0.45905449E-01 0.19150501E+03</pdfrwt>
<pdfrwt beam="2">  1       21 0.22002704E-01 0.19150501E+03</pdfrwt>
<totfact> 0.87822478E+04</totfact>
</mgrwt>
</event>
<event>
 4    1  0.4333905E+000  0.1779241E+03  0.7546771E-02  0.1169827E+00
         21   -1    0    0  503  502  0.00000000000E+00  0.00000000000E+00  0.79875183655E+02  0.79875183655E+02  0.00000000000E+00 0. -1.
         21   -1    0    0  501  503 -0.00000000000E+00 -0.00000000000E+00 -0.98563505978E+03  0.98563505978E+03  0.00000000000E+00 0. -1.
          6    1    1    2  501    0  0.35578587386E+02  0.21498001710E+02 -0.86482502847E+03  0.88293789693E+03  0.17300000000E+03 0. -1.
         -6    1    1    2    0  502 -0.35578587386E+02 -0.21498001710E+02 -0.40934847655E+02  0.18257234651E+03  0.17300000000E+03 0. -1.
<mgrwt>
<rscale>  2 0.17792414E+03</rscale>
<asrwt>0</asrwt>
<pdfrwt beam="1">  1       21 0.12288489E-01 0.17792414E+03</pdfrwt>
<pdfrwt beam="2">  1       21 0.15163617E+00 0.17792414E+03</pdfrwt>
<totfact> 0.16507097E+04</totfact>
</mgrwt>
</event>
<event>
 4    1  0.4333905E+000  0.2127966E+03  0.7546771E-02  0.1139370E+00
         21   -1    0    0  501  502  0.00000000000E+00  0.00000000000E+00  0.59097234261E+02  0.59097234261E+02  0.00000000000E+00 0.  1.
         21   -1    0    0  502  503 -0.00000000000E+00 -0.00000000000E+00 -0.79070935547E+03  0.79070935547E+03  0.00000000000E+00 0. -1.
          6    1    1    2  501    0 -0.78940561269E+02 -0.95508011796E+02 -0.29105216955E+03  0.36054647125E+03  0.17300000000E+03 0. -1.
         -6    1    1    2    0  503  0.78940561269E+02  0.95508011796E+02 -0.44055995165E+03  0.48926011848E+03  0.17300000000E+03 0.  1.
<mgrwt>
<rscale>  2 0.21279660E+03</rscale>
<asrwt>0</asrwt>
<pdfrwt beam="1">  1       21 0.90918827E-02 0.21279660E+03</pdfrwt>
<pdfrwt beam="2">  1       21 0.12164759E+00 0.21279660E+03</pdfrwt>
<totfact> 0.48468008E+04</totfact>
</mgrwt>
</event>
<event>
 4    1  0.4333905E+000  0.2817340E+03  0.7546771E-02  0.1094746E+00
         21   -1    0    0  501  502  0.00000000000E+00  0.00000000000E+00  0.56781616930E+03  0.56781616930E+03  0.00000000000E+00 0. -1.
         21   -1    0    0  502  503 -0.00000000000E+00 -0.00000000000E+00 -0.23541620072E+03  0.23541620072E+03  0.00000000000E+00 0. -1.
          6    1    1    2  501    0 -0.21841087078E+03  0.41733822847E+02  0.42216787543E+03  0.50754284104E+03  0.17300000000E+03 0. -1.
         -6    1    1    2    0  503  0.21841087078E+03 -0.41733822847E+02 -0.89767906858E+02  0.29568952898E+03  0.17300000000E+03 0. -1.
<mgrwt>
<rscale>  2 0.28173395E+03</rscale>
<asrwt>0</asrwt>
<pdfrwt beam="1">  1       21 0.87356333E-01 0.28173395E+03</pdfrwt>
<pdfrwt beam="2">  1       21 0.36217877E-01 0.28173395E+03</pdfrwt>
<totfact> 0.78321078E+03</totfact>
</mgrwt>
</event>
<event>
 4    1  0.4333905E+000  0.2102030E+03  0.7546771E-02  0.1141405E+00
         21   -1    0    0  501  502  0.00000000000E+00  0.00000000000E+00  0.32063156451E+03  0.32063156451E+03  0.00000000000E+00 0.  1.
         21   -1    0    0  502  503 -0.00000000000E+00 -0.00000000000E+00 -0.14713618320E+03  0.14713618320E+03  0.00000000000E+00 0.  1.
          6    1    1    2  501    0 -0.57909783233E+02 -0.10441630254E+03  0.14564018308E+03  0.25572714005E+03  0.17300000000E+03 0.  1.
         -6    1    1    2    0  503  0.57909783233E+02  0.10441630254E+03  0.27855198233E+02  0.21204060766E+03  0.17300000000E+03 0.  1.
<mgrwt>
<rscale>  2 0.21020301E+03</rscale>
<asrwt>0</asrwt>
<pdfrwt beam="1">  1       21 0.49327933E-01 0.21020301E+03</pdfrwt>
<pdfrwt beam="2">  1       21 0.22636336E-01 0.21020301E+03</pdfrwt>
<totfact> 0.71137961E+04</totfact>
</mgrwt>
</event>
<event>
 4    1  0.4333905E+000  0.2098169E+03  0.7546771E-02  0.1141711E+00
         21   -1    0    0  501  502  0.00000000000E+00  0.00000000000E+00  0.94195574157E+02  0.94195574157E+02  0.00000000000E+00 0.  1.
         21   -1    0    0  502  503 -0.00000000000E+00 -0.00000000000E+00 -0.12528633667E+04  0.12528633667E+04  0.00000000000E+00 0.  1.
          6    1    1    2  501    0 -0.10831883511E+03  0.48591754826E+02 -0.46024653850E+02  0.21480548745E+03  0.17300000000E+03 0.  1.
         -6    1    1    2    0  503  0.10831883511E+03 -0.48591754826E+02 -0.11126431387E+04  0.11322534534E+04  0.17300000000E+03 0.  1.
<mgrwt>
<rscale>  2 0.20981689E+03</rscale>
<asrwt>0</asrwt>
<pdfrwt beam="1">  1       21 0.14491626E-01 0.20981689E+03</pdfrwt>
<pdfrwt beam="2">  1       21 0.19274822E+00 0.20981689E+03</pdfrwt>
<totfact> 0.61567513E+03</totfact>
</mgrwt>
</event>
<event>
 4    1  0.4333905E+000  0.3205799E+03  0.7546771E-02  0.1075383E+00
         21   -1    0    0  501  502  0.00000000000E+00  0.00000000000E+00  0.76717653893E+03  0.76717653893E+03  0.00000000000E+00 0.  1.
         21   -1    0    0  502  503 -0.00000000000E+00 -0.00000000000E+00 -0.21059525326E+03  0.21059525326E+03  0.00000000000E+00 0. -1.
          6    1    1    2  501    0  0.26975553033E+03  0.86272202813E+01  0.57320481916E+03  0.65676117408E+03  0.17300000000E+03 0.  1.
         -6    1    1    2    0  503 -0.26975553033E+03 -0.86272202813E+01 -0.16623533489E+02  0.32101061811E+03  0.17300000000E+03 0. -1.
<mgrwt>
<rscale>  2 0.32057990E+03</rscale>
<asrwt>0</asrwt>
<pdfrwt beam="1">  1       21 0.11802716E+00 0.32057990E+03</pdfrwt>
<pdfrwt beam="2">  1       21 0.32399270E-01 0.32057990E+03</pdfrwt>
<totfact> 0.46489326E+03</totfact>
</mgrwt>
</event>
<event>
 4    1  0.4333905E+000  0.1874579E+03  0.7546771E-02  0.1160774E+00
         21   -1    0    0  501  502  0.00000000000E+00  0.00000000000E+00  0.13789324161E+03  0.13789324161E+03  0.00000000000E+00 0. -1.
         21   -1    0    0  502  503 -0.00000000000E+00 -0.00000000000E+00 -0.29449850209E+03  0.29449850209E+03  0.00000000000E+00 0.  1.
          6    1    1    2  501    0 -0.68259878853E+02  0.23495629916E+02  0.10359181175E+01  0.18746073939E+03  0.17300000000E+03 0. -1.
         -6    1    1    2    0  503  0.68259878853E+02 -0.23495629916E+02 -0.15764117859E+03  0.24493100431E+03  0.17300000000E+03 0.  1.
<mgrwt>
<rscale>  2 0.18745788E+03</rscale>
<asrwt>0</asrwt>
<pdfrwt beam="1">  1       21 0.21214345E-01 0.18745788E+03</pdfrwt>
<pdfrwt beam="2">  1       21 0.45307462E-01 0.18745788E+03</pdfrwt>
<totfact> 0.96779475E+04</totfact>
</mgrwt>
</event>
<event>
 4    1  0.4333905E+000  0.2017785E+03  0.7546771E-02  0.1148247E+00
         21   -1    0    0  501  502  0.00000000000E+00  0.00000000000E+00  0.35117166789E+03  0.35117166789E+03  0.00000000000E+00 0.  1.
         21   -1    0    0  502  503 -0.00000000000E+00 -0.00000000000E+00 -0.12192094163E+03  0.12192094163E+03  0.00000000000E+00 0. -1.
          6    1    1    2  501    0 -0.55717970108E+02 -0.87641617878E+02  0.16702069341E+03  0.26193597959E+03  0.17300000000E+03 0. -1.
         -6    1    1    2    0  503  0.55717970108E+02  0.87641617878E+02  0.62230032852E+02  0.21115662994E+03  0.17300000000E+03 0. -1.
<mgrwt>
<rscale>  2 0.20177846E+03</rscale>
<asrwt>0</asrwt>
<pdfrwt beam="1">  1       21 0.54026410E-01 0.20177846E+03</pdfrwt>
<pdfrwt beam="2">  1       21 0.18757068E-01 0.20177846E+03</pdfrwt>
<totfact> 0.83930724E+04</totfact>
</mgrwt>
</event>
<event>
 4    1  0.4333905E+000  0.1872305E+03  0.7546771E-02  0.1160983E+00
         21   -1    0    0  501  502  0.00000000000E+00  0.00000000000E+00  0.63319371431E+03  0.63319371431E+03  0.00000000000E+00 0. -1.
         21   -1    0    0  502  503 -0.00000000000E+00 -0.00000000000E+00 -0.70643443543E+02  0.70643443543E+02  0.00000000000E+00 0. -1.
          6    1    1    2  501    0 -0.34074108348E+02  0.62970053523E+02  0.11760123505E+03  0.22110025551E+03  0.17300000000E+03 0. -1.
         -6    1    1    2    0  503  0.34074108348E+02 -0.62970053523E+02  0.44494903572E+03  0.48273690235E+03  0.17300000000E+03 0. -1.
<mgrwt>
<rscale>  2 0.18723053E+03</rscale>
<asrwt>0</asrwt>
<pdfrwt beam="1">  1       21 0.97414414E-01 0.18723053E+03</pdfrwt>
<pdfrwt beam="2">  1       21 0.10868223E-01 0.18723053E+03</pdfrwt>
<totfact> 0.61304810E+04</totfact>
</mgrwt>
</event>
<event>
 4    1  0.4333905E+000  0.2781167E+03  0.7546771E-02  0.1096722E+00
         21   -1    0    0  501  502  0.00000000000E+00  0.00000000000E+00  0.71663879627E+02  0.71663879627E+02  0.00000000000E+00 0.  1.
         21   -1    0    0  502  503 -0.00000000000E+00 -0.00000000000E+00 -0.11535091145E+04  0.11535091145E+04  0.00000000000E+00 0.  1.
          6    1    1    2  501    0 -0.17290559628E+03  0.13237653917E+03 -0.38557626155E+03  0.47541344829E+03  0.17300000000E+03 0.  1.
         -6    1    1    2    0  503  0.17290559628E+03 -0.13237653917E+03 -0.69626897329E+03  0.74975954580E+03  0.17300000000E+03 0.  1.
<mgrwt>
<rscale>  2 0.27811669E+03</rscale>
<asrwt>0</asrwt>
<pdfrwt beam="1">  1       21 0.11025213E-01 0.27811669E+03</pdfrwt>
<pdfrwt beam="2">  1       21 0.17746293E+00 0.27811669E+03</pdfrwt>
<totfact> 0.12215742E+04</totfact>
</mgrwt>
</event>
<event>
 4    1  0.4333905E+000  0.2215126E+03  0.7546771E-02  0.1132760E+00
         21   -1    0    0  503  502  0.00000000000E+00  0.00000000000E+00  0.13195112428E+03  0.13195112428E+03  0.00000000000E+00 0.  1.
         21   -1    0    0  501  503 -0.00000000000E+00 -0.00000000000E+00 -0.37249446481E+03  0.37249446481E+03  0.00000000000E+00 0. -1.
          6    1    1    2  501    0 -0.13765903405E+03 -0.13741612819E+02 -0.13065021674E+03  0.25717177278E+03  0.17300000000E+03 0. -1.
         -6    1    1    2    0  502  0.13765903405E+03  0.13741612819E+02 -0.10989312379E+03  0.24727381631E+03  0.17300000000E+03 0.  1.
<mgrwt>
<rscale>  2 0.22151262E+03</rscale>
<asrwt>0</asrwt>
<pdfrwt beam="1">  1       21 0.20300173E-01 0.22151262E+03</pdfrwt>
<pdfrwt beam="2">  1       21 0.57306842E-01 0.22151262E+03</pdfrwt>
<totfact> 0.63351691E+04</totfact>
</mgrwt>
</event>
<event>
 4    1  0.4333905E+000  0.2145486E+03  0.7546771E-02  0.1138014E+00
         21   -1    0    0  503  502  0.00000000000E+00  0.00000000000E+00  0.24199174310E+03  0.24199174310E+03  0.00000000000E+00 0.  1.
         21   -1    0    0  501  503 -0.00000000000E+00 -0.00000000000E+00 -0.33643092808E+03  0.33643092808E+03  0.00000000000E+00 0. -1.
          6    1    1    2  501    0  0.97796834046E+02 -0.80857294930E+02 -0.23788004745E+03  0.32034050613E+03  0.17300000000E+03 0. -1.
         -6    1    1    2    0  502 -0.97796834046E+02  0.80857294930E+02  0.14344086247E+03  0.25808216505E+03  0.17300000000E+03 0.  1.
<mgrwt>
<rscale>  2 0.21454865E+03</rscale>
<asrwt>0</asrwt>
<pdfrwt beam="1">  1       21 0.37229499E-01 0.21454865E+03</pdfrwt>
<pdfrwt beam="2">  1       21 0.51758604E-01 0.21454865E+03</pdfrwt>
<totfact> 0.24362187E+04</totfact>
</mgrwt>
</event>
<event>
 4    1  0.4333905E+000  0.2520321E+03  0.7546771E-02  0.1112027E+00
         21   -1    0    0  503  502  0.00000000000E+00  0.00000000000E+00  0.26312663587E+03  0.26312663587E+03  0.00000000000E+00 0.  1.
         21   -1    0    0  501  503 -0.00000000000E+00 -0.00000000000E+00 -0.32667686777E+03  0.32667686777E+03  0.00000000000E+00 0.  1.
          6    1    1    2  501    0  0.11744683464E+03  0.14070327012E+03 -0.18244284391E+03  0.31113591963E+03  0.17300000000E+03 0.  1.
         -6    1    1    2    0  502 -0.11744683464E+03 -0.14070327012E+03  0.11889261201E+03  0.27866758401E+03  0.17300000000E+03 0.  1.
<mgrwt>
<rscale>  2 0.25203208E+03</rscale>
<asrwt>0</asrwt>
<pdfrwt beam="1">  1       21 0.40481021E-01 0.25203208E+03</pdfrwt>
<pdfrwt beam="2">  1       21 0.50257980E-01 0.25203208E+03</pdfrwt>
<totfact> 0.21472164E+04</totfact>
</mgrwt>
</event>
<event>
 4    1  0.4333905E+000  0.2398311E+03  0.7546771E-02  0.1119905E+00
         21   -1    0    0  501  502  0.00000000000E+00  0.00000000000E+00  0.96602850142E+03  0.96602850142E+03  0.00000000000E+00 0. -1.
         21   -1    0    0  502  503 -0.00000000000E+00 -0.00000000000E+00 -0.11117504797E+03  0.11117504797E+03  0.00000000000E+00 0.  1.
          6    1    1    2  501    0 -0.42460384204E+02 -0.16058356610E+03  0.79448018336E+03  0.82989019013E+03  0.17300000000E+03 0. -1.
         -6    1    1    2    0  503  0.42460384204E+02  0.16058356610E+03  0.60373270095E+02  0.24731335927E+03  0.17300000000E+03 0.  1.
<mgrwt>
<rscale>  2 0.23983112E+03</rscale>
<asrwt>0</asrwt>
<pdfrwt beam="1">  1       21 0.14861976E+00 0.23983112E+03</pdfrwt>
<pdfrwt beam="2">  1       21 0.17103854E-01 0.23983112E+03</pdfrwt>
<totfact> 0.91373827E+03</totfact>
</mgrwt>
</event>
<event>
 4    1  0.4333905E+000  0.2043336E+03  0.7546771E-02  0.1146133E+00
         21   -1    0    0  501  502  0.00000000000E+00  0.00000000000E+00  0.76930117278E+02  0.76930117278E+02  0.00000000000E+00 0. -1.
         21   -1    0    0  502  503 -0.00000000000E+00 -0.00000000000E+00 -0.62006999282E+03  0.62006999282E+03  0.00000000000E+00 0.  1.
          6    1    1    2  501    0 -0.20156018949E+02  0.10685023883E+03 -0.14849031404E+03  0.25258980978E+03  0.17300000000E+03 0.  1.
         -6    1    1    2    0  503  0.20156018949E+02 -0.10685023883E+03 -0.39464956150E+03  0.44441030032E+03  0.17300000000E+03 0. -1.
<mgrwt>
<rscale>  2 0.20433365E+03</rscale>
<asrwt>0</asrwt>
<pdfrwt beam="1">  1       21 0.11835402E-01 0.20433365E+03</pdfrwt>
<pdfrwt beam="2">  1       21 0.95395388E-01 0.20433365E+03</pdfrwt>
<totfact> 0.54859462E+04</totfact>
</mgrwt>
</event>
<event>
 4    1  0.4333905E+000  0.1914902E+03  0.7546771E-02  0.1157124E+00
         21   -1    0    0  501  502  0.00000000000E+00  0.00000000000E+00  0.33279119158E+03  0.33279119158E+03  0.00000000000E+00 0.  1.
         21   -1    0    0  502  503 -0.00000000000E+00 -0.00000000000E+00 -0.30105244919E+03  0.30105244919E+03  0.00000000000E+00 0. -1.
          6    1    1    2  501    0 -0.36508263096E+02  0.73529774262E+02  0.26821593327E+03  0.32955768515E+03  0.17300000000E+03 0.  1.
         -6    1    1    2    0  503  0.36508263096E+02 -0.73529774262E+02 -0.23647719088E+03  0.30428595562E+03  0.17300000000E+03 0. -1.
<mgrwt>
<rscale>  2 0.19149016E+03</rscale>
<asrwt>0</asrwt>
<pdfrwt beam="1">  1       21 0.51198645E-01 0.19149016E+03</pdfrwt>
<pdfrwt beam="2">  1       21 0.46315762E-01 0.19149016E+03</pdfrwt>
<totfact> 0.16207396E+04</totfact>
</mgrwt>
</event>
<event>
 4    1  0.4333905E+000  0.1754854E+03  0.7546771E-02  0.1172245E+00
         21   -1    0    0  501  502  0.00000000000E+00  0.00000000000E+00  0.17308638130E+03  0.17308638130E+03  0.00000000000E+00 0. -1.
         21   -1    0    0  502  503 -0.00000000000E+00 -0.00000000000E+00 -0.37846961890E+03  0.37846961890E+03  0.00000000000E+00 0. -1.
          6    1    1    2  501    0  0.21086836634E+02 -0.20530074548E+02  0.98059266230E+02  0.20102427300E+03  0.17300000000E+03 0. -1.
         -6    1    1    2    0  503 -0.21086836634E+02  0.20530074548E+02 -0.30344250384E+03  0.35053172720E+03  0.17300000000E+03 0. -1.
<mgrwt>
<rscale>  2 0.17548544E+03</rscale>
<asrwt>0</asrwt>
<pdfrwt beam="1">  1       21 0.26628674E-01 0.17548544E+03</pdfrwt>
<pdfrwt beam="2">  1       21 0.58226095E-01 0.17548544E+03</pdfrwt>
<totfact> 0.37419200E+04</totfact>
</mgrwt>
</event>
<event>
 4    1  0.4333905E+000  0.2534159E+03  0.7546771E-02  0.1111165E+00
         21   -1    0    0  503  502  0.00000000000E+00  0.00000000000E+00  0.19339845883E+04  0.19339845883E+04  0.00000000000E+00 0.  1.
         21   -1    0    0  501  503 -0.00000000000E+00 -0.00000000000E+00 -0.33349757801E+02  0.33349757801E+02  0.00000000000E+00 0.  1.
          6    1    1    2  501    0 -0.15084317524E+03  0.10741012053E+03  0.88570029203E+03  0.92124079633E+03  0.17300000000E+03 0.  1.
         -6    1    1    2    0  502  0.15084317524E+03 -0.10741012053E+03  0.10149345385E+04  0.10460935498E+04  0.17300000000E+03 0.  1.
<mgrwt>
<rscale>  2 0.25341586E+03</rscale>
<asrwt>0</asrwt>
<pdfrwt beam="1">  1       21 0.29753600E+00 0.25341586E+03</pdfrwt>
<pdfrwt beam="2">  1       21 0.51307335E-02 0.25341586E+03</pdfrwt>
<totfact> 0.85680840E+03</totfact>
</mgrwt>
</event>
<event>
 4    1  0.4333905E+000  0.1975771E+03  0.7546771E-02  0.1151799E+00
         21   -1    0    0  501  502  0.00000000000E+00  0.00000000000E+00  0.24644693705E+03  0.24644693705E+03  0.00000000000E+00 0. -1.
         21   -1    0    0  502  503 -0.00000000000E+00 -0.00000000000E+00 -0.19862532828E+03  0.19862532828E+03  0.00000000000E+00 0.  1.
          6    1    1    2  501    0 -0.55963551971E+01  0.95270143327E+02  0.12405907050E+03  0.23329674746E+03  0.17300000000E+03 0. -1.
         -6    1    1    2    0  503  0.55963551971E+01 -0.95270143327E+02 -0.76237461722E+02  0.21177551787E+03  0.17300000000E+03 0.  1.
<mgrwt>
<rscale>  2 0.19757712E+03</rscale>
<asrwt>0</asrwt>
<pdfrwt beam="1">  1       21 0.37914913E-01 0.19757712E+03</pdfrwt>
<pdfrwt beam="2">  1       21 0.30557743E-01 0.19757712E+03</pdfrwt>
<totfact> 0.68814531E+04</totfact>
</mgrwt>
</event>
<event>
 4    1  0.4333905E+000  0.1782774E+03  0.7546771E-02  0.1169481E+00
         21   -1    0    0  501  502  0.00000000000E+00  0.00000000000E+00  0.35017344817E+03  0.35017344817E+03  0.00000000000E+00 0.  1.
         21   -1    0    0  502  503 -0.00000000000E+00 -0.00000000000E+00 -0.13706170406E+03  0.13706170406E+03  0.00000000000E+00 0. -1.
          6    1    1    2  501    0 -0.18459906826E+02  0.38898317508E+02  0.24814641290E+03  0.30554785141E+03  0.17300000000E+03 0.  1.
         -6    1    1    2    0  503  0.18459906826E+02 -0.38898317508E+02 -0.35034668780E+02  0.18168730083E+03  0.17300000000E+03 0. -1.
<mgrwt>
<rscale>  2 0.17827744E+03</rscale>
<asrwt>0</asrwt>
<pdfrwt beam="1">  1       21 0.53872838E-01 0.17827744E+03</pdfrwt>
<pdfrwt beam="2">  1       21 0.21086416E-01 0.17827744E+03</pdfrwt>
<totfact> 0.68549766E+04</totfact>
</mgrwt>
</event>
<event>
 4    1  0.4333905E+000  0.1886481E+03  0.7546771E-02  0.1159686E+00
         21   -1    0    0  503  502  0.00000000000E+00  0.00000000000E+00  0.33528683112E+03  0.33528683112E+03  0.00000000000E+00 0. -1.
         21   -1    0    0  501  503 -0.00000000000E+00 -0.00000000000E+00 -0.12957772970E+03  0.12957772970E+03  0.00000000000E+00 0.  1.
          6    1    1    2  501    0  0.64294014655E+02  0.39056029689E+02  0.20170264898E+03  0.27617395311E+03  0.17300000000E+03 0. -1.
         -6    1    1    2    0  502 -0.64294014655E+02 -0.39056029689E+02  0.40064524412E+01  0.18869060771E+03  0.17300000000E+03 0. -1.
<mgrwt>
<rscale>  2 0.18864807E+03</rscale>
<asrwt>0</asrwt>
<pdfrwt beam="1">  1       21 0.51582589E-01 0.18864807E+03</pdfrwt>
<pdfrwt beam="2">  1       21 0.19935035E-01 0.18864807E+03</pdfrwt>
<totfact> 0.83047659E+04</totfact>
</mgrwt>
</event>
<event>
 4    1  0.4333905E+000  0.2024841E+03  0.7546771E-02  0.1147660E+00
         21   -1    0    0  503  502  0.00000000000E+00  0.00000000000E+00  0.66257209074E+02  0.66257209074E+02  0.00000000000E+00 0.  1.
         21   -1    0    0  501  503 -0.00000000000E+00 -0.00000000000E+00 -0.62948011979E+03  0.62948011979E+03  0.00000000000E+00 0. -1.
          6    1    1    2  501    0  0.33641491647E+02  0.99694857812E+02 -0.32692804972E+03  0.38455398103E+03  0.17300000000E+03 0.  1.
         -6    1    1    2    0  502 -0.33641491647E+02 -0.99694857812E+02 -0.23629486100E+03  0.31118334783E+03  0.17300000000E+03 0. -1.
<mgrwt>
<rscale>  2 0.20248411E+03</rscale>
<asrwt>0</asrwt>
<pdfrwt beam="1">  1       21 0.10193417E-01 0.20248411E+03</pdfrwt>
<pdfrwt beam="2">  1       21 0.96843091E-01 0.20248411E+03</pdfrwt>
<totfact> 0.69140025E+04</totfact>
</mgrwt>
</event>
<event>
 4    1  0.4333905E+000  0.1851348E+03  0.7546771E-02  0.1162924E+00
         21   -1    0    0  501  502  0.00000000000E+00  0.00000000000E+00  0.12932523695E+04  0.12932523695E+04  0.00000000000E+00 0. -1.
         21   -1    0    0  502  503 -0.00000000000E+00 -0.00000000000E+00 -0.33508535689E+02  0.33508535689E+02  0.00000000000E+00 0. -1.
          6    1    1    2  501    0  0.64668976781E+02 -0.12799826132E+02  0.93319771295E+03  0.95138471901E+03  0.17300000000E+03 0. -1.
         -6    1    1    2    0  503 -0.64668976781E+02  0.12799826132E+02  0.32654612091E+03  0.37537618623E+03  0.17300000000E+03 0. -1.
<mgrwt>
<rscale>  2 0.18513485E+03</rscale>
<asrwt>0</asrwt>
<pdfrwt beam="1">  1       21 0.19896186E+00 0.18513485E+03</pdfrwt>
<pdfrwt beam="2">  1       21 0.51551604E-02 0.18513485E+03</pdfrwt>
<totfact> 0.35005239E+04</totfact>
</mgrwt>
</event>
<event>
 4    1  0.4333905E+000  0.2051762E+03  0.7546771E-02  0.1145444E+00
         21   -1    0    0  503  502  0.00000000000E+00  0.00000000000E+00  0.11306726104E+03  0.11306726104E+03  0.00000000000E+00 0. -1.
         21   -1    0    0  501  503 -0.00000000000E+00 -0.00000000000E+00 -0.40736502855E+03  0.40736502855E+03  0.00000000000E+00 0. -1.
          6    1    1    2  501    0  0.11029888482E+03 -0.15572963492E+01 -0.22347126814E+03  0.30337547173E+03  0.17300000000E+03 0. -1.
         -6    1    1    2    0  502 -0.11029888482E+03  0.15572963492E+01 -0.70826499365E+02  0.21705681786E+03  0.17300000000E+03 0. -1.
<mgrwt>
<rscale>  2 0.20517619E+03</rscale>
<asrwt>0</asrwt>
<pdfrwt beam="1">  1       21 0.17394963E-01 0.20517619E+03</pdfrwt>
<pdfrwt beam="2">  1       21 0.62671543E-01 0.20517619E+03</pdfrwt>
<totfact> 0.70148851E+04</totfact>
</mgrwt>
</event>
<event>
 4    1  0.4333905E+000  0.1941426E+03  0.7546771E-02  0.1154777E+00
         21   -1    0    0  501  502  0.00000000000E+00  0.00000000000E+00  0.33160578966E+02  0.33160578966E+02  0.00000000000E+00 0.  1.
         21   -1    0    0  502  503 -0.00000000000E+00 -0.00000000000E+00 -0.12043593290E+04  0.12043593290E+04  0.00000000000E+00 0.  1.
          6    1    1    2  501    0 -0.61740035681E+02 -0.62853279486E+02 -0.43886666167E+03  0.47989093914E+03  0.17300000000E+03 0.  1.
         -6    1    1    2    0  503  0.61740035681E+02  0.62853279486E+02 -0.73233208832E+03  0.75762896878E+03  0.17300000000E+03 0.  1.
<mgrwt>
<rscale>  2 0.19414265E+03</rscale>
<asrwt>0</asrwt>
<pdfrwt beam="1">  1       21 0.51016268E-02 0.19414265E+03</pdfrwt>
<pdfrwt beam="2">  1       21 0.18528608E+00 0.19414265E+03</pdfrwt>
<totfact> 0.43534011E+04</totfact>
</mgrwt>
</event>
<event>
 4    1  0.4333905E+000  0.2532939E+03  0.7546771E-02  0.1111241E+00
         21   -1    0    0  503  502  0.00000000000E+00  0.00000000000E+00  0.32143335699E+03  0.32143335699E+03  0.00000000000E+00 0. -1.
         21   -1    0    0  501  503 -0.00000000000E+00 -0.00000000000E+00 -0.20440411564E+03  0.20440411564E+03  0.00000000000E+00 0.  1.
          6    1    1    2  501    0  0.70800313286E+02 -0.17092715180E+03  0.18203136710E+02  0.25394710034E+03  0.17300000000E+03 0.  1.
         -6    1    1    2    0  502 -0.70800313286E+02  0.17092715180E+03  0.98826104634E+02  0.27189037229E+03  0.17300000000E+03 0. -1.
<mgrwt>
<rscale>  2 0.25329385E+03</rscale>
<asrwt>0</asrwt>
<pdfrwt beam="1">  1       21 0.49451285E-01 0.25329385E+03</pdfrwt>
<pdfrwt beam="2">  1       21 0.31446787E-01 0.25329385E+03</pdfrwt>
<totfact> 0.36820030E+04</totfact>
</mgrwt>
</event>
<event>
 4    1  0.4333905E+000  0.2440703E+03  0.7546771E-02  0.1117111E+00
         21   -1    0    0  501  502  0.00000000000E+00  0.00000000000E+00  0.10331931421E+04  0.10331931421E+04  0.00000000000E+00 0. -1.
         21   -1    0    0  502  503 -0.00000000000E+00 -0.00000000000E+00 -0.58460397109E+02  0.58460397109E+02  0.00000000000E+00 0. -1.
          6    1    1    2  501    0  0.79761437691E+02 -0.15257590417E+03  0.55137315447E+03  0.60297814964E+03  0.17300000000E+03 0. -1.
         -6    1    1    2    0  503 -0.79761437691E+02  0.15257590417E+03  0.42335959049E+03  0.48867538953E+03  0.17300000000E+03 0. -1.
<mgrwt>
<rscale>  2 0.24407026E+03</rscale>
<asrwt>0</asrwt>
<pdfrwt beam="1">  1       21 0.15895278E+00 0.24407026E+03</pdfrwt>
<pdfrwt beam="2">  1       21 0.89939081E-02 0.24407026E+03</pdfrwt>
<totfact> 0.24279895E+04</totfact>
</mgrwt>
</event>
<event>
 4    1  0.4333905E+000  0.2147841E+03  0.7546771E-02  0.1137833E+00
         21   -1    0    0  501  502  0.00000000000E+00  0.00000000000E+00  0.13080918364E+04  0.13080918364E+04  0.00000000000E+00 0. -1.
         21   -1    0    0  502  503 -0.00000000000E+00 -0.00000000000E+00 -0.37229399267E+02  0.37229399267E+02  0.00000000000E+00 0.  1.
          6    1    1    2  501    0  0.42744153689E+02  0.11990058880E+03  0.78987440213E+03  0.81855591441E+03  0.17300000000E+03 0. -1.
         -6    1    1    2    0  503 -0.42744153689E+02 -0.11990058880E+03  0.48098803501E+03  0.52676532126E+03  0.17300000000E+03 0.  1.
<mgrwt>
<rscale>  2 0.21478411E+03</rscale>
<asrwt>0</asrwt>
<pdfrwt beam="1">  1       21 0.20124486E+00 0.21478411E+03</pdfrwt>
<pdfrwt beam="2">  1       21 0.57276009E-02 0.21478411E+03</pdfrwt>
<totfact> 0.27704824E+04</totfact>
</mgrwt>
</event>
<event>
 4    1  0.4333905E+000  0.1853707E+03  0.7546771E-02  0.1162704E+00
         21   -1    0    0  501  502  0.00000000000E+00  0.00000000000E+00  0.13359032107E+03  0.13359032107E+03  0.00000000000E+00 0.  1.
         21   -1    0    0  502  503 -0.00000000000E+00 -0.00000000000E+00 -0.26168212302E+03  0.26168212302E+03  0.00000000000E+00 0.  1.
          6    1    1    2  501    0 -0.43276237467E+02  0.50601187764E+02 -0.38242700646E+02  0.18927444911E+03  0.17300000000E+03 0.  1.
         -6    1    1    2    0  503  0.43276237467E+02 -0.50601187764E+02 -0.89849101306E+02  0.20599799499E+03  0.17300000000E+03 0.  1.
<mgrwt>
<rscale>  2 0.18537074E+03</rscale>
<asrwt>0</asrwt>
<pdfrwt beam="1">  1       21 0.20552357E-01 0.18537074E+03</pdfrwt>
<pdfrwt beam="2">  1       21 0.40258788E-01 0.18537074E+03</pdfrwt>
<totfact> 0.13074561E+05</totfact>
</mgrwt>
</event>
<event>
 4    1  0.4333905E+000  0.1893027E+03  0.7546771E-02  0.1159092E+00
         21   -1    0    0  503  502  0.00000000000E+00  0.00000000000E+00  0.28169713167E+03  0.28169713167E+03  0.00000000000E+00 0.  1.
         21   -1    0    0  501  503 -0.00000000000E+00 -0.00000000000E+00 -0.13008802394E+03  0.13008802394E+03  0.00000000000E+00 0.  1.
          6    1    1    2  501    0  0.75993233753E+02 -0.11468801954E+02  0.45195394454E+02  0.19462304251E+03  0.17300000000E+03 0.  1.
         -6    1    1    2    0  502 -0.75993233753E+02  0.11468801954E+02  0.10641371328E+03  0.21716211311E+03  0.17300000000E+03 0.  1.
<mgrwt>
<rscale>  2 0.18930268E+03</rscale>
<asrwt>0</asrwt>
<pdfrwt beam="1">  1       21 0.43338020E-01 0.18930268E+03</pdfrwt>
<pdfrwt beam="2">  1       21 0.20013542E-01 0.18930268E+03</pdfrwt>
<totfact> 0.11814033E+05</totfact>
</mgrwt>
</event>
<event>
 4    1  0.4333905E+000  0.1783880E+03  0.7546771E-02  0.1169372E+00
         21   -1    0    0  501  502  0.00000000000E+00  0.00000000000E+00  0.40559265611E+02  0.40559265611E+02  0.00000000000E+00 0.  1.
         21   -1    0    0  502  503 -0.00000000000E+00 -0.00000000000E+00 -0.99862590230E+03  0.99862590230E+03  0.00000000000E+00 0.  1.
          6    1    1    2  501    0  0.23352151380E+02 -0.36714653551E+02 -0.71958449305E+03  0.74136639484E+03  0.17300000000E+03 0.  1.
         -6    1    1    2    0  503 -0.23352151380E+02  0.36714653551E+02 -0.23848214365E+03  0.29781877308E+03  0.17300000000E+03 0.  1.
<mgrwt>
<rscale>  2 0.17838803E+03</rscale>
<asrwt>0</asrwt>
<pdfrwt beam="1">  1       21 0.62398866E-02 0.17838803E+03</pdfrwt>
<pdfrwt beam="2">  1       21 0.15363476E+00 0.17838803E+03</pdfrwt>
<totfact> 0.52149288E+04</totfact>
</mgrwt>
</event>
<event>
 4    1  0.4333905E+000  0.1783600E+03  0.7546771E-02  0.1169400E+00
         21   -1    0    0  503  502  0.00000000000E+00  0.00000000000E+00  0.34463295616E+02  0.34463295616E+02  0.00000000000E+00 0.  1.
         21   -1    0    0  501  503 -0.00000000000E+00 -0.00000000000E+00 -0.92327840378E+03  0.92327840378E+03  0.00000000000E+00 0.  1.
          6    1    1    2  501    0  0.28719452034E+02 -0.32534439172E+02 -0.45146949066E+03  0.48542455403E+03  0.17300000000E+03 0. -1.
         -6    1    1    2    0  502 -0.28719452034E+02  0.32534439172E+02 -0.43734561751E+03  0.47231714537E+03  0.17300000000E+03 0. -1.
<mgrwt>
<rscale>  2 0.17836002E+03</rscale>
<asrwt>0</asrwt>
<pdfrwt beam="1">  1       21 0.53020454E-02 0.17836002E+03</pdfrwt>
<pdfrwt beam="2">  1       21 0.14204283E+00 0.17836002E+03</pdfrwt>
<totfact> 0.84505651E+04</totfact>
</mgrwt>
</event>
<event>
 4    1  0.4333905E+000  0.3246656E+03  0.7546771E-02  0.1073522E+00
         21   -1    0    0  501  502  0.00000000000E+00  0.00000000000E+00  0.10585599709E+03  0.10585599709E+03  0.00000000000E+00 0.  1.
         21   -1    0    0  502  503 -0.00000000000E+00 -0.00000000000E+00 -0.11089410527E+04  0.11089410527E+04  0.00000000000E+00 0.  1.
          6    1    1    2  501    0  0.27369303315E+03 -0.23893033314E+02 -0.30750052451E+03  0.44717370899E+03  0.17300000000E+03 0.  1.
         -6    1    1    2    0  503 -0.27369303315E+03  0.23893033314E+02 -0.69558453115E+03  0.76762334085E+03  0.17300000000E+03 0.  1.
<mgrwt>
<rscale>  2 0.32466560E+03</rscale>
<asrwt>0</asrwt>
<pdfrwt beam="1">  1       21 0.16285538E-01 0.32466560E+03</pdfrwt>
<pdfrwt beam="2">  1       21 0.17060631E+00 0.32466560E+03</pdfrwt>
<totfact> 0.65454294E+03</totfact>
</mgrwt>
</event>
<event>
 4    1  0.4333905E+000  0.2729575E+03  0.7546771E-02  0.1099599E+00
         21   -1    0    0  501  502  0.00000000000E+00  0.00000000000E+00  0.46123218022E+03  0.46123218022E+03  0.00000000000E+00 0. -1.
         21   -1    0    0  502  503 -0.00000000000E+00 -0.00000000000E+00 -0.17280120074E+03  0.17280120074E+03  0.00000000000E+00 0. -1.
          6    1    1    2  501    0  0.90547917804E+02 -0.19072979191E+03  0.63274073279E+02  0.28019526636E+03  0.17300000000E+03 0. -1.
         -6    1    1    2    0  503 -0.90547917804E+02  0.19072979191E+03  0.22515690620E+03  0.35383811461E+03  0.17300000000E+03 0. -1.
<mgrwt>
<rscale>  2 0.27295747E+03</rscale>
<asrwt>0</asrwt>
<pdfrwt beam="1">  1       21 0.70958796E-01 0.27295747E+03</pdfrwt>
<pdfrwt beam="2">  1       21 0.26584800E-01 0.27295747E+03</pdfrwt>
<totfact> 0.23242238E+04</totfact>
</mgrwt>
</event>
<event>
 4    1  0.4333905E+000  0.1901040E+03  0.7546771E-02  0.1158368E+00
         21   -1    0    0  503  502  0.00000000000E+00  0.00000000000E+00  0.79588978617E+03  0.79588978617E+03  0.00000000000E+00 0.  1.
         21   -1    0    0  501  503 -0.00000000000E+00 -0.00000000000E+00 -0.66966652867E+02  0.66966652867E+02  0.00000000000E+00 0.  1.
          6    1    1    2  501    0 -0.29210005091E+02  0.73193739559E+02  0.11967206424E+03  0.22463515056E+03  0.17300000000E+03 0.  1.
         -6    1    1    2    0  502  0.29210005091E+02 -0.73193739559E+02  0.60925106907E+03  0.63822128848E+03  0.17300000000E+03 0.  1.
<mgrwt>
<rscale>  2 0.19010404E+03</rscale>
<asrwt>0</asrwt>
<pdfrwt beam="1">  1       21 0.12244458E+00 0.19010404E+03</pdfrwt>
<pdfrwt beam="2">  1       21 0.10302563E-01 0.19010404E+03</pdfrwt>
<totfact> 0.38719484E+04</totfact>
</mgrwt>
</event>
<event>
 4    1  0.4333905E+000  0.1785637E+03  0.7546771E-02  0.1169200E+00
         21   -1    0    0  503  502  0.00000000000E+00  0.00000000000E+00  0.78833298527E+03  0.78833298527E+03  0.00000000000E+00 0. -1.
         21   -1    0    0  501  503 -0.00000000000E+00 -0.00000000000E+00 -0.13168726998E+03  0.13168726998E+03  0.00000000000E+00 0. -1.
          6    1    1    2  501    0 -0.21828401793E+02 -0.38464393110E+02 -0.54582054029E+02  0.18671954714E+03  0.17300000000E+03 0. -1.
         -6    1    1    2    0  502  0.21828401793E+02  0.38464393110E+02  0.71122776932E+03  0.73330070811E+03  0.17300000000E+03 0. -1.
<mgrwt>
<rscale>  2 0.17856368E+03</rscale>
<asrwt>0</asrwt>
<pdfrwt beam="1">  1       21 0.12128199E+00 0.17856368E+03</pdfrwt>
<pdfrwt beam="2">  1       21 0.20259581E-01 0.17856368E+03</pdfrwt>
<totfact> 0.11706816E+04</totfact>
</mgrwt>
</event>
<event>
 4    1  0.4333905E+000  0.2289790E+03  0.7546771E-02  0.1127360E+00
         21   -1    0    0  503  502  0.00000000000E+00  0.00000000000E+00  0.89824350314E+02  0.89824350314E+02  0.00000000000E+00 0.  1.
         21   -1    0    0  501  503 -0.00000000000E+00 -0.00000000000E+00 -0.59548494238E+03  0.59548494238E+03  0.00000000000E+00 0.  1.
          6    1    1    2  501    0  0.12705436036E+03 -0.79747005534E+02 -0.30101350612E+03  0.37820698862E+03  0.17300000000E+03 0.  1.
         -6    1    1    2    0  502 -0.12705436036E+03  0.79747005534E+02 -0.20464708595E+03  0.30710230407E+03  0.17300000000E+03 0.  1.
<mgrwt>
<rscale>  2 0.22897903E+03</rscale>
<asrwt>0</asrwt>
<pdfrwt beam="1">  1       21 0.13819131E-01 0.22897903E+03</pdfrwt>
<pdfrwt beam="2">  1       21 0.91613068E-01 0.22897903E+03</pdfrwt>
<totfact> 0.45077871E+04</totfact>
</mgrwt>
</event>
<event>
 4    1  0.4333905E+000  0.2427161E+03  0.7546771E-02  0.1117997E+00
         21   -1    0    0  503  502  0.00000000000E+00  0.00000000000E+00  0.97058823884E+03  0.97058823884E+03  0.00000000000E+00 0. -1.
         21   -1    0    0  501  503 -0.00000000000E+00 -0.00000000000E+00 -0.17556581802E+03  0.17556581802E+03  0.00000000000E+00 0.  1.
          6    1    1    2  501    0  0.13610210772E+03  0.10226592654E+03 -0.66037566846E+02  0.25153938795E+03  0.17300000000E+03 0.  1.
         -6    1    1    2    0  502 -0.13610210772E+03 -0.10226592654E+03  0.86105998767E+03  0.89461466891E+03  0.17300000000E+03 0. -1.
<mgrwt>
<rscale>  2 0.24271610E+03</rscale>
<asrwt>0</asrwt>
<pdfrwt beam="1">  1       21 0.14932126E+00 0.24271610E+03</pdfrwt>
<pdfrwt beam="2">  1       21 0.27010126E-01 0.24271610E+03</pdfrwt>
<totfact> 0.37954954E+03</totfact>
</mgrwt>
</event>
<event>
 4    1  0.4333905E+000  0.2489226E+03  0.7546771E-02  0.1113988E+00
         21   -1    0    0  503  502  0.00000000000E+00  0.00000000000E+00  0.60260096977E+02  0.60260096977E+02  0.00000000000E+00 0.  1.
         21   -1    0    0  501  503 -0.00000000000E+00 -0.00000000000E+00 -0.18736677217E+04  0.18736677217E+04  0.00000000000E+00 0.  1.
          6    1    1    2  501    0  0.50246824982E+01 -0.17890833145E+03 -0.15562345044E+04  0.15760165835E+04  0.17300000000E+03 0.  1.
         -6    1    1    2    0  502 -0.50246824982E+01  0.17890833145E+03 -0.25717312023E+03  0.35791123517E+03  0.17300000000E+03 0.  1.
<mgrwt>
<rscale>  2 0.24892256E+03</rscale>
<asrwt>0</asrwt>
<pdfrwt beam="1">  1       21 0.92707821E-02 0.24892256E+03</pdfrwt>
<pdfrwt beam="2">  1       21 0.28825664E+00 0.24892256E+03</pdfrwt>
<totfact> 0.34885656E+03</totfact>
</mgrwt>
</event>
<event>
 4    1  0.4333905E+000  0.1833005E+03  0.7546771E-02  0.1164647E+00
         21   -1    0    0  503  502  0.00000000000E+00  0.00000000000E+00  0.47730052433E+03  0.47730052433E+03  0.00000000000E+00 0.  1.
         21   -1    0    0  501  503 -0.00000000000E+00 -0.00000000000E+00 -0.91232215049E+02  0.91232215049E+02  0.00000000000E+00 0.  1.
          6    1    1    2  501    0 -0.22785803136E+02 -0.56132609147E+02  0.57177068150E+02  0.19201114488E+03  0.17300000000E+03 0.  1.
         -6    1    1    2    0  502  0.22785803136E+02  0.56132609147E+02  0.32889124113E+03  0.37652159450E+03  0.17300000000E+03 0.  1.
<mgrwt>
<rscale>  2 0.18330047E+03</rscale>
<asrwt>0</asrwt>
<pdfrwt beam="1">  1       21 0.73430848E-01 0.18330047E+03</pdfrwt>
<pdfrwt beam="2">  1       21 0.14035726E-01 0.18330047E+03</pdfrwt>
<totfact> 0.74058935E+04</totfact>
</mgrwt>
</event>
<event>
 4    1  0.4333905E+000  0.1898072E+03  0.7546771E-02  0.1158635E+00
         21   -1    0    0  503  502  0.00000000000E+00  0.00000000000E+00  0.23699022736E+03  0.23699022736E+03  0.00000000000E+00 0. -1.
         21   -1    0    0  501  503 -0.00000000000E+00 -0.00000000000E+00 -0.30298608171E+03  0.30298608171E+03  0.00000000000E+00 0.  1.
          6    1    1    2  501    0  0.56208369486E+02  0.54207014159E+02 -0.22357731801E+03  0.29328074999E+03  0.17300000000E+03 0.  1.
         -6    1    1    2    0  502 -0.56208369486E+02 -0.54207014159E+02  0.15758146366E+03  0.24669555909E+03  0.17300000000E+03 0. -1.
<mgrwt>
<rscale>  2 0.18980722E+03</rscale>
<asrwt>0</asrwt>
<pdfrwt beam="1">  1       21 0.36460035E-01 0.18980722E+03</pdfrwt>
<pdfrwt beam="2">  1       21 0.46613243E-01 0.18980722E+03</pdfrwt>
<totfact> 0.32021826E+04</totfact>
</mgrwt>
</event>
<event>
 4    1  0.4333905E+000  0.2150967E+03  0.7546771E-02  0.1137592E+00
         21   -1    0    0  501  502  0.00000000000E+00  0.00000000000E+00  0.35656287302E+03  0.35656287302E+03  0.00000000000E+00 0. -1.
         21   -1    0    0  502  503 -0.00000000000E+00 -0.00000000000E+00 -0.15540784279E+03  0.15540784279E+03  0.00000000000E+00 0.  1.
          6    1    1    2  501    0 -0.12698405131E+03  0.14582108004E+02 -0.34212280040E+01  0.21512389909E+03  0.17300000000E+03 0.  1.
         -6    1    1    2    0  503  0.12698405131E+03 -0.14582108004E+02  0.20457625823E+03  0.29684681671E+03  0.17300000000E+03 0. -1.
<mgrwt>
<rscale>  2 0.21509669E+03</rscale>
<asrwt>0</asrwt>
<pdfrwt beam="1">  1       21 0.54855826E-01 0.21509669E+03</pdfrwt>
<pdfrwt beam="2">  1       21 0.23908899E-01 0.21509669E+03</pdfrwt>
<totfact> 0.51171837E+04</totfact>
</mgrwt>
</event>
<event>
 4    1  0.4333905E+000  0.1785751E+03  0.7546771E-02  0.1169189E+00
         21   -1    0    0  501  502  0.00000000000E+00  0.00000000000E+00  0.10442742243E+03  0.10442742243E+03  0.00000000000E+00 0. -1.
         21   -1    0    0  502  503 -0.00000000000E+00 -0.00000000000E+00 -0.39298141496E+03  0.39298141496E+03  0.00000000000E+00 0.  1.
          6    1    1    2  501    0  0.30248155077E+02 -0.32328119942E+02 -0.26847686603E+02  0.18058199384E+03  0.17300000000E+03 0. -1.
         -6    1    1    2    0  503 -0.30248155077E+02  0.32328119942E+02 -0.26170630593E+03  0.31682684354E+03  0.17300000000E+03 0.  1.
<mgrwt>
<rscale>  2 0.17857508E+03</rscale>
<asrwt>0</asrwt>
<pdfrwt beam="1">  1       21 0.16065757E-01 0.17857508E+03</pdfrwt>
<pdfrwt beam="2">  1       21 0.60458679E-01 0.17857508E+03</pdfrwt>
<totfact> 0.88716938E+04</totfact>
</mgrwt>
</event>
<event>
 4    1  0.4333905E+000  0.3957975E+03  0.7546771E-02  0.1045245E+00
         21   -1    0    0  501  502  0.00000000000E+00  0.00000000000E+00  0.13017559917E+03  0.13017559917E+03  0.00000000000E+00 0. -1.
         21   -1    0    0  502  503 -0.00000000000E+00 -0.00000000000E+00 -0.13275656728E+04  0.13275656728E+04  0.00000000000E+00 0.  1.
          6    1    1    2  501    0 -0.27917287539E+03 -0.22088269610E+03 -0.37580444843E+03  0.54578809372E+03  0.17300000000E+03 0. -1.
         -6    1    1    2    0  503  0.27917287539E+03  0.22088269610E+03 -0.82158562521E+03  0.91195317826E+03  0.17300000000E+03 0.  1.
<mgrwt>
<rscale>  2 0.39579750E+03</rscale>
<asrwt>0</asrwt>
<pdfrwt beam="1">  1       21 0.20027015E-01 0.39579750E+03</pdfrwt>
<pdfrwt beam="2">  1       21 0.20424087E+00 0.39579750E+03</pdfrwt>
<totfact> 0.25233444E+03</totfact>
</mgrwt>
</event>
<event>
 4    1  0.4333905E+000  0.1731135E+03  0.7546771E-02  0.1174639E+00
         21   -1    0    0  503  502  0.00000000000E+00  0.00000000000E+00  0.10602013354E+03  0.10602013354E+03  0.00000000000E+00 0.  1.
         21   -1    0    0  501  503 -0.00000000000E+00 -0.00000000000E+00 -0.28331770738E+03  0.28331770738E+03  0.00000000000E+00 0.  1.
          6    1    1    2  501    0 -0.20108903555E+01  0.59353180018E+01 -0.97986369040E+02  0.19892109038E+03  0.17300000000E+03 0. -1.
         -6    1    1    2    0  502  0.20108903555E+01 -0.59353180018E+01 -0.79311204801E+02  0.19041675054E+03  0.17300000000E+03 0. -1.
<mgrwt>
<rscale>  2 0.17311346E+03</rscale>
<asrwt>0</asrwt>
<pdfrwt beam="1">  1       21 0.16310790E-01 0.17311346E+03</pdfrwt>
<pdfrwt beam="2">  1       21 0.43587339E-01 0.17311346E+03</pdfrwt>
<totfact> 0.17131352E+05</totfact>
</mgrwt>
</event>
<event>
 4    1  0.4333905E+000  0.1872660E+03  0.7546771E-02  0.1160951E+00
         21   -1    0    0  503  502  0.00000000000E+00  0.00000000000E+00  0.37781257164E+03  0.37781257164E+03  0.00000000000E+00 0. -1.
         21   -1    0    0  501  503 -0.00000000000E+00 -0.00000000000E+00 -0.14908697122E+03  0.14908697122E+03  0.00000000000E+00 0. -1.
          6    1    1    2  501    0 -0.61451802545E+02 -0.36922187904E+02 -0.47484200778E+02  0.19319244633E+03  0.17300000000E+03 0.  1.
         -6    1    1    2    0  502  0.61451802545E+02  0.36922187904E+02  0.27620980120E+03  0.33370709653E+03  0.17300000000E+03 0.  1.
<mgrwt>
<rscale>  2 0.18726605E+03</rscale>
<asrwt>0</asrwt>
<pdfrwt beam="1">  1       21 0.58125011E-01 0.18726605E+03</pdfrwt>
<pdfrwt beam="2">  1       21 0.22936457E-01 0.18726605E+03</pdfrwt>
<totfact> 0.49610158E+04</totfact>
</mgrwt>
</event>
<event>
 4    1  0.4333905E+000  0.2246674E+03  0.7546771E-02  0.1130450E+00
         21   -1    0    0  501  502  0.00000000000E+00  0.00000000000E+00  0.83663609539E+03  0.83663609539E+03  0.00000000000E+00 0. -1.
         21   -1    0    0  502  503 -0.00000000000E+00 -0.00000000000E+00 -0.67003848827E+02  0.67003848827E+02  0.00000000000E+00 0.  1.
          6    1    1    2  501    0 -0.12259549458E+03 -0.74275133154E+02  0.52739567687E+03  0.57325531020E+03  0.17300000000E+03 0. -1.
         -6    1    1    2    0  503  0.12259549458E+03  0.74275133154E+02  0.24223656969E+03  0.33038463401E+03  0.17300000000E+03 0. -1.
<mgrwt>
<rscale>  2 0.22466742E+03</rscale>
<asrwt>0</asrwt>
<pdfrwt beam="1">  1       21 0.12871324E+00 0.22466742E+03</pdfrwt>
<pdfrwt beam="2">  1       21 0.10308285E-01 0.22466742E+03</pdfrwt>
<totfact> 0.33474942E+04</totfact>
</mgrwt>
</event>
<event>
 4    1  0.4333905E+000  0.2044015E+03  0.7546771E-02  0.1146078E+00
         21   -1    0    0  503  502  0.00000000000E+00  0.00000000000E+00  0.19299589637E+03  0.19299589637E+03  0.00000000000E+00 0. -1.
         21   -1    0    0  501  503 -0.00000000000E+00 -0.00000000000E+00 -0.37809966804E+03  0.37809966804E+03  0.00000000000E+00 0. -1.
          6    1    1    2  501    0 -0.95288560123E+02 -0.52640711734E+02 -0.27924200733E+03  0.34605787504E+03  0.17300000000E+03 0. -1.
         -6    1    1    2    0  502  0.95288560123E+02  0.52640711734E+02  0.94138235662E+02  0.22503768937E+03  0.17300000000E+03 0. -1.
<mgrwt>
<rscale>  2 0.20440145E+03</rscale>
<asrwt>0</asrwt>
<pdfrwt beam="1">  1       21 0.29691677E-01 0.20440145E+03</pdfrwt>
<pdfrwt beam="2">  1       21 0.58169179E-01 0.20440145E+03</pdfrwt>
<totfact> 0.29912349E+04</totfact>
</mgrwt>
</event>
<event>
 4    1  0.4333905E+000  0.1750893E+03  0.7546771E-02  0.1172642E+00
         21   -1    0    0  501  502  0.00000000000E+00  0.00000000000E+00  0.54310358333E+02  0.54310358333E+02  0.00000000000E+00 0.  1.
         21   -1    0    0  502  503 -0.00000000000E+00 -0.00000000000E+00 -0.83410274504E+03  0.83410274504E+03  0.00000000000E+00 0.  1.
          6    1    1    2  501    0 -0.81728304321E+01 -0.25699600247E+02 -0.13733536144E+03  0.22252475393E+03  0.17300000000E+03 0.  1.
         -6    1    1    2    0  503  0.81728304321E+01  0.25699600247E+02 -0.64245702526E+03  0.66588834944E+03  0.17300000000E+03 0.  1.
<mgrwt>
<rscale>  2 0.17508930E+03</rscale>
<asrwt>0</asrwt>
<pdfrwt beam="1">  1       21 0.83554402E-02 0.17508930E+03</pdfrwt>
<pdfrwt beam="2">  1       21 0.12832349E+00 0.17508930E+03</pdfrwt>
<totfact> 0.50154064E+04</totfact>
</mgrwt>
</event>
<event>
 4    1  0.4333905E+000  0.1760089E+03  0.7546771E-02  0.1171723E+00
         21   -1    0    0  503  502  0.00000000000E+00  0.00000000000E+00  0.10816657696E+03  0.10816657696E+03  0.00000000000E+00 0.  1.
         21   -1    0    0  501  503 -0.00000000000E+00 -0.00000000000E+00 -0.99697015701E+03  0.99697015701E+03  0.00000000000E+00 0.  1.
          6    1    1    2  501    0  0.23651250959E+02 -0.22152628084E+02 -0.91089767819E+03  0.92774657140E+03  0.17300000000E+03 0.  1.
         -6    1    1    2    0  502 -0.23651250959E+02  0.22152628084E+02  0.22094098143E+02  0.17739016257E+03  0.17300000000E+03 0.  1.
<mgrwt>
<rscale>  2 0.17600887E+03</rscale>
<asrwt>0</asrwt>
<pdfrwt beam="1">  1       21 0.16641010E-01 0.17600887E+03</pdfrwt>
<pdfrwt beam="2">  1       21 0.15338004E+00 0.17600887E+03</pdfrwt>
<totfact> 0.92648779E+03</totfact>
</mgrwt>
</event>
<event>
 4    1  0.4333905E+000  0.1868789E+03  0.7546771E-02  0.1161307E+00
         21   -1    0    0  503  502  0.00000000000E+00  0.00000000000E+00  0.58480571417E+03  0.58480571417E+03  0.00000000000E+00 0. -1.
         21   -1    0    0  501  503 -0.00000000000E+00 -0.00000000000E+00 -0.19195170758E+03  0.19195170758E+03  0.00000000000E+00 0. -1.
          6    1    1    2  501    0 -0.55932510342E+02 -0.43200544317E+02 -0.12592446789E+03  0.22534574404E+03  0.17300000000E+03 0. -1.
         -6    1    1    2    0  502  0.55932510342E+02  0.43200544317E+02  0.51877847448E+03  0.55141167772E+03  0.17300000000E+03 0. -1.
<mgrwt>
<rscale>  2 0.18687893E+03</rscale>
<asrwt>0</asrwt>
<pdfrwt beam="1">  1       21 0.89970109E-01 0.18687893E+03</pdfrwt>
<pdfrwt beam="2">  1       21 0.29531032E-01 0.18687893E+03</pdfrwt>
<totfact> 0.11598255E+04</totfact>
</mgrwt>
</event>
<event>
 4    1  0.4333905E+000  0.3767079E+03  0.7546771E-02  0.1052157E+00
         21   -1    0    0  503  502  0.00000000000E+00  0.00000000000E+00  0.32206954152E+03  0.32206954152E+03  0.00000000000E+00 0.  1.
         21   -1    0    0  501  503 -0.00000000000E+00 -0.00000000000E+00 -0.71101288729E+03  0.71101288729E+03  0.00000000000E+00 0. -1.
          6    1    1    2  501    0  0.32561106303E+03  0.77183620187E+02 -0.51301416977E+03  0.63646870620E+03  0.17300000000E+03 0. -1.
         -6    1    1    2    0  502 -0.32561106303E+03 -0.77183620187E+02  0.12407082399E+03  0.39661372261E+03  0.17300000000E+03 0.  1.
<mgrwt>
<rscale>  2 0.37670794E+03</rscale>
<asrwt>0</asrwt>
<pdfrwt beam="1">  1       21 0.49549160E-01 0.37670794E+03</pdfrwt>
<pdfrwt beam="2">  1       21 0.10938660E+00 0.37670794E+03</pdfrwt>
<totfact> 0.22875415E+03</totfact>
</mgrwt>
</event>
<event>
 4    1  0.4333905E+000  0.2065880E+03  0.7546771E-02  0.1144297E+00
         21   -1    0    0  503  502  0.00000000000E+00  0.00000000000E+00  0.41080941264E+03  0.41080941264E+03  0.00000000000E+00 0.  1.
         21   -1    0    0  501  503 -0.00000000000E+00 -0.00000000000E+00 -0.10849262258E+03  0.10849262258E+03  0.00000000000E+00 0. -1.
          6    1    1    2  501    0  0.34728728250E+02 -0.10744070275E+03  0.97672579679E+02  0.22851372387E+03  0.17300000000E+03 0. -1.
         -6    1    1    2    0  502 -0.34728728250E+02  0.10744070275E+03  0.20464421038E+03  0.29078831135E+03  0.17300000000E+03 0.  1.
<mgrwt>
<rscale>  2 0.20658797E+03</rscale>
<asrwt>0</asrwt>
<pdfrwt beam="1">  1       21 0.63201447E-01 0.20658797E+03</pdfrwt>
<pdfrwt beam="2">  1       21 0.16691173E-01 0.20658797E+03</pdfrwt>
<totfact> 0.74281393E+04</totfact>
</mgrwt>
</event>
<event>
 4    1  0.4333905E+000  0.1874947E+03  0.7546771E-02  0.1160741E+00
         21   -1    0    0  501  502  0.00000000000E+00  0.00000000000E+00  0.92921970566E+02  0.92921970566E+02  0.00000000000E+00 0. -1.
         21   -1    0    0  502  503 -0.00000000000E+00 -0.00000000000E+00 -0.47250102379E+03  0.47250102379E+03  0.00000000000E+00 0. -1.
          6    1    1    2  501    0 -0.69547278348E+01 -0.71950702335E+02 -0.63571029242E+02  0.19797865432E+03  0.17300000000E+03 0. -1.
         -6    1    1    2    0  503  0.69547278348E+01  0.71950702335E+02 -0.31600802398E+03  0.36744434004E+03  0.17300000000E+03 0. -1.
<mgrwt>
<rscale>  2 0.18749472E+03</rscale>
<asrwt>0</asrwt>
<pdfrwt beam="1">  1       21 0.14295688E-01 0.18749472E+03</pdfrwt>
<pdfrwt beam="2">  1       21 0.72692464E-01 0.18749472E+03</pdfrwt>
<totfact> 0.73132379E+04</totfact>
</mgrwt>
</event>
<event>
 4    1  0.4333905E+000  0.3913651E+03  0.7546771E-02  0.1046811E+00
         21   -1    0    0  503  502  0.00000000000E+00  0.00000000000E+00  0.50018262220E+03  0.50018262220E+03  0.00000000000E+00 0. -1.
         21   -1    0    0  501  503 -0.00000000000E+00 -0.00000000000E+00 -0.30811440235E+03  0.30811440235E+03  0.00000000000E+00 0.  1.
          6    1    1    2  501    0 -0.86665372552E+02  0.34018630369E+03  0.64355657420E+02  0.39662105171E+03  0.17300000000E+03 0.  1.
         -6    1    1    2    0  502  0.86665372552E+02 -0.34018630369E+03  0.12771256243E+03  0.41167597285E+03  0.17300000000E+03 0. -1.
<mgrwt>
<rscale>  2 0.39136506E+03</rscale>
<asrwt>0</asrwt>
<pdfrwt beam="1">  1       21 0.76951173E-01 0.39136506E+03</pdfrwt>
<pdfrwt beam="2">  1       21 0.47402216E-01 0.39136506E+03</pdfrwt>
<totfact> 0.57512612E+03</totfact>
</mgrwt>
</event>
<event>
 4    1  0.4333905E+000  0.1740629E+03  0.7546771E-02  0.1173676E+00
         21   -1    0    0  503  502  0.00000000000E+00  0.00000000000E+00  0.75302180934E+03  0.75302180934E+03  0.00000000000E+00 0.  1.
         21   -1    0    0  501  503 -0.00000000000E+00 -0.00000000000E+00 -0.28319728805E+03  0.28319728805E+03  0.00000000000E+00 0.  1.
          6    1    1    2  501    0  0.19177904415E+02  0.10428067266E+01 -0.24498296575E+03  0.30052376440E+03  0.17300000000E+03 0.  1.
         -6    1    1    2    0  502 -0.19177904415E+02 -0.10428067266E+01  0.71480748703E+03  0.73569533299E+03  0.17300000000E+03 0.  1.
<mgrwt>
<rscale>  2 0.17406286E+03</rscale>
<asrwt>0</asrwt>
<pdfrwt beam="1">  1       21 0.11584951E+00 0.17406286E+03</pdfrwt>
<pdfrwt beam="2">  1       21 0.43568814E-01 0.17406286E+03</pdfrwt>
<totfact> 0.29648399E+03</totfact>
</mgrwt>
</event>
<event>
 4    1  0.4333905E+000  0.1943747E+03  0.7546771E-02  0.1154574E+00
         21   -1    0    0  501  502  0.00000000000E+00  0.00000000000E+00  0.51341118821E+03  0.51341118821E+03  0.00000000000E+00 0. -1.
         21   -1    0    0  502  503 -0.00000000000E+00 -0.00000000000E+00 -0.95326742345E+02  0.95326742345E+02  0.00000000000E+00 0.  1.
          6    1    1    2  501    0  0.88535164787E+02  0.37492459642E+01  0.35438650369E+03  0.40419218974E+03  0.17300000000E+03 0. -1.
         -6    1    1    2    0  503 -0.88535164787E+02 -0.37492459642E+01  0.63697942178E+02  0.20454574082E+03  0.17300000000E+03 0.  1.
<mgrwt>
<rscale>  2 0.19437472E+03</rscale>
<asrwt>0</asrwt>
<pdfrwt beam="1">  1       21 0.78986335E-01 0.19437472E+03</pdfrwt>
<pdfrwt beam="2">  1       21 0.14665653E-01 0.19437472E+03</pdfrwt>
<totfact> 0.57808003E+04</totfact>
</mgrwt>
</event>
<event>
 4    1  0.4333905E+000  0.1864145E+03  0.7546771E-02  0.1161735E+00
         21   -1    0    0  503  502  0.00000000000E+00  0.00000000000E+00  0.97950714538E+02  0.97950714538E+02  0.00000000000E+00 0.  1.
         21   -1    0    0  501  503 -0.00000000000E+00 -0.00000000000E+00 -0.35512035704E+03  0.35512035704E+03  0.00000000000E+00 0.  1.
          6    1    1    2  501    0 -0.69350602770E+02 -0.34464075797E+01 -0.13565778660E+03  0.23055025243E+03  0.17300000000E+03 0.  1.
         -6    1    1    2    0  502  0.69350602770E+02  0.34464075797E+01 -0.12151185590E+03  0.22252081915E+03  0.17300000000E+03 0.  1.
<mgrwt>
<rscale>  2 0.18641455E+03</rscale>
<asrwt>0</asrwt>
<pdfrwt beam="1">  1       21 0.15069341E-01 0.18641455E+03</pdfrwt>
<pdfrwt beam="2">  1       21 0.54633901E-01 0.18641455E+03</pdfrwt>
<totfact> 0.12333301E+05</totfact>
</mgrwt>
</event>
<event>
 4    1  0.4333905E+000  0.2225827E+03  0.7546771E-02  0.1131972E+00
         21   -1    0    0  501  502  0.00000000000E+00  0.00000000000E+00  0.20769245684E+03  0.20769245684E+03  0.00000000000E+00 0. -1.
         21   -1    0    0  502  503 -0.00000000000E+00 -0.00000000000E+00 -0.24234897585E+03  0.24234897585E+03  0.00000000000E+00 0.  1.
          6    1    1    2  501    0  0.13560533920E+03 -0.35003338046E+02 -0.45536969348E+02  0.22719299565E+03  0.17300000000E+03 0.  1.
         -6    1    1    2    0  503 -0.13560533920E+03  0.35003338046E+02  0.10880450341E+02  0.22284843704E+03  0.17300000000E+03 0.  1.
<mgrwt>
<rscale>  2 0.22258266E+03</rscale>
<asrwt>0</asrwt>
<pdfrwt beam="1">  1       21 0.31952686E-01 0.22258266E+03</pdfrwt>
<pdfrwt beam="2">  1       21 0.37284458E-01 0.22258266E+03</pdfrwt>
<totfact> 0.64495171E+04</totfact>
</mgrwt>
</event>
<event>
 4    1  0.4333905E+000  0.1796903E+03  0.7546771E-02  0.1168103E+00
         21   -1    0    0  503  502  0.00000000000E+00  0.00000000000E+00  0.18492677387E+03  0.18492677387E+03  0.00000000000E+00 0. -1.
         21   -1    0    0  501  503 -0.00000000000E+00 -0.00000000000E+00 -0.27120570177E+03  0.27120570177E+03  0.00000000000E+00 0. -1.
          6    1    1    2  501    0  0.39206753117E+02  0.28677857472E+02 -0.17925522666E+03  0.25381297304E+03  0.17300000000E+03 0. -1.
         -6    1    1    2    0  502 -0.39206753117E+02 -0.28677857472E+02  0.92976298765E+02  0.20231950260E+03  0.17300000000E+03 0. -1.
<mgrwt>
<rscale>  2 0.17969026E+03</rscale>
<asrwt>0</asrwt>
<pdfrwt beam="1">  1       21 0.28450273E-01 0.17969026E+03</pdfrwt>
<pdfrwt beam="2">  1       21 0.41723954E-01 0.17969026E+03</pdfrwt>
<totfact> 0.65692476E+04</totfact>
</mgrwt>
</event>
<event>
 4    1  0.4333905E+000  0.1878468E+03  0.7546771E-02  0.1160418E+00
         21   -1    0    0  503  502  0.00000000000E+00  0.00000000000E+00  0.12652265115E+03  0.12652265115E+03  0.00000000000E+00 0. -1.
         21   -1    0    0  501  503 -0.00000000000E+00 -0.00000000000E+00 -0.40262295214E+03  0.40262295214E+03  0.00000000000E+00 0. -1.
          6    1    1    2  501    0 -0.56929142670E+02 -0.46005331601E+02 -0.28471683236E+03  0.34110129353E+03  0.17300000000E+03 0. -1.
         -6    1    1    2    0  502  0.56929142670E+02  0.46005331601E+02  0.86165313687E+01  0.18804430976E+03  0.17300000000E+03 0. -1.
<mgrwt>
<rscale>  2 0.18784679E+03</rscale>
<asrwt>0</asrwt>
<pdfrwt beam="1">  1       21 0.19465023E-01 0.18784679E+03</pdfrwt>
<pdfrwt beam="2">  1       21 0.61941994E-01 0.18784679E+03</pdfrwt>
<totfact> 0.58873775E+04</totfact>
</mgrwt>
</event>
<event>
 4    1  0.4333905E+000  0.1829052E+03  0.7546771E-02  0.1165021E+00
         21   -1    0    0  503  502  0.00000000000E+00  0.00000000000E+00  0.52107768503E+02  0.52107768503E+02  0.00000000000E+00 0. -1.
         21   -1    0    0  501  503 -0.00000000000E+00 -0.00000000000E+00 -0.64671558058E+03  0.64671558058E+03  0.00000000000E+00 0. -1.
          6    1    1    2  501    0  0.44560565474E+01 -0.59206985798E+02 -0.26753643816E+03  0.32408342962E+03  0.17300000000E+03 0. -1.
         -6    1    1    2    0  502 -0.44560565474E+01  0.59206985798E+02 -0.32707137391E+03  0.37473991947E+03  0.17300000000E+03 0. -1.
<mgrwt>
<rscale>  2 0.18290523E+03</rscale>
<asrwt>0</asrwt>
<pdfrwt beam="1">  1       21 0.80165801E-02 0.18290523E+03</pdfrwt>
<pdfrwt beam="2">  1       21 0.99494700E-01 0.18290523E+03</pdfrwt>
<totfact> 0.99745166E+04</totfact>
</mgrwt>
</event>
<event>
 4    1  0.4333905E+000  0.1929299E+03  0.7546771E-02  0.1155845E+00
         21   -1    0    0  503  502  0.00000000000E+00  0.00000000000E+00  0.18658537139E+03  0.18658537139E+03  0.00000000000E+00 0. -1.
         21   -1    0    0  501  503 -0.00000000000E+00 -0.00000000000E+00 -0.19954335087E+03  0.19954335087E+03  0.00000000000E+00 0.  1.
          6    1    1    2  501    0 -0.39186041495E+02  0.75877485189E+02 -0.96322135193E+01  0.19317017923E+03  0.17300000000E+03 0. -1.
         -6    1    1    2    0  502  0.39186041495E+02 -0.75877485189E+02 -0.33257659648E+01  0.19295854302E+03  0.17300000000E+03 0.  1.
<mgrwt>
<rscale>  2 0.19292988E+03</rscale>
<asrwt>0</asrwt>
<pdfrwt beam="1">  1       21 0.28705442E-01 0.19292988E+03</pdfrwt>
<pdfrwt beam="2">  1       21 0.30698977E-01 0.19292988E+03</pdfrwt>
<totfact> 0.11828104E+05</totfact>
</mgrwt>
</event>
<event>
 4    1  0.4333905E+000  0.2273383E+03  0.7546771E-02  0.1128527E+00
         21   -1    0    0  503  502  0.00000000000E+00  0.00000000000E+00  0.66060256849E+03  0.66060256849E+03  0.00000000000E+00 0.  1.
         21   -1    0    0  501  503 -0.00000000000E+00 -0.00000000000E+00 -0.10824589157E+03  0.10824589157E+03  0.00000000000E+00 0. -1.
          6    1    1    2  501    0  0.12318342577E+03 -0.81114434105E+02  0.73764878545E+02  0.23900620308E+03  0.17300000000E+03 0. -1.
         -6    1    1    2    0  502 -0.12318342577E+03  0.81114434105E+02  0.47859179838E+03  0.52984225698E+03  0.17300000000E+03 0.  1.
<mgrwt>
<rscale>  2 0.22733831E+03</rscale>
<asrwt>0</asrwt>
<pdfrwt beam="1">  1       21 0.10163116E+00 0.22733831E+03</pdfrwt>
<pdfrwt beam="2">  1       21 0.16653215E-01 0.22733831E+03</pdfrwt>
<totfact> 0.25094711E+04</totfact>
</mgrwt>
</event>
<event>
 4    1  0.4333905E+000  0.1862592E+03  0.7546771E-02  0.1161879E+00
         21   -1    0    0  501  502  0.00000000000E+00  0.00000000000E+00  0.10262764918E+03  0.10262764918E+03  0.00000000000E+00 0. -1.
         21   -1    0    0  502  503 -0.00000000000E+00 -0.00000000000E+00 -0.39058351247E+03  0.39058351247E+03  0.00000000000E+00 0.  1.
          6    1    1    2  501    0 -0.42102048078E+02  0.54689318911E+02 -0.53530697948E+02  0.19379896718E+03  0.17300000000E+03 0. -1.
         -6    1    1    2    0  503  0.42102048078E+02 -0.54689318911E+02 -0.23442516535E+03  0.29941219448E+03  0.17300000000E+03 0.  1.
<mgrwt>
<rscale>  2 0.18625924E+03</rscale>
<asrwt>0</asrwt>
<pdfrwt beam="1">  1       21 0.15788869E-01 0.18625924E+03</pdfrwt>
<pdfrwt beam="2">  1       21 0.60089770E-01 0.18625924E+03</pdfrwt>
<totfact> 0.92507443E+04</totfact>
</mgrwt>
</event>
<event>
 4    1  0.4333905E+000  0.1914433E+03  0.7546771E-02  0.1157166E+00
         21   -1    0    0  503  502  0.00000000000E+00  0.00000000000E+00  0.31686882922E+03  0.31686882922E+03  0.00000000000E+00 0. -1.
         21   -1    0    0  501  503 -0.00000000000E+00 -0.00000000000E+00 -0.11621568339E+03  0.11621568339E+03  0.00000000000E+00 0. -1.
          6    1    1    2  501    0  0.72402306730E+02 -0.38463450812E+02  0.85416208764E+02  0.20963410931E+03  0.17300000000E+03 0. -1.
         -6    1    1    2    0  502 -0.72402306730E+02  0.38463450812E+02  0.11523693707E+03  0.22345040330E+03  0.17300000000E+03 0. -1.
<mgrwt>
<rscale>  2 0.19144328E+03</rscale>
<asrwt>0</asrwt>
<pdfrwt beam="1">  1       21 0.48749050E-01 0.19144328E+03</pdfrwt>
<pdfrwt beam="2">  1       21 0.17879336E-01 0.19144328E+03</pdfrwt>
<totfact> 0.11423873E+05</totfact>
</mgrwt>
</event>
<event>
 4    1  0.4333905E+000  0.1765612E+03  0.7546771E-02  0.1171173E+00
         21   -1    0    0  503  502  0.00000000000E+00  0.00000000000E+00  0.42536324325E+03  0.42536324325E+03  0.00000000000E+00 0. -1.
         21   -1    0    0  501  503 -0.00000000000E+00 -0.00000000000E+00 -0.19090598682E+03  0.19090598682E+03  0.00000000000E+00 0. -1.
          6    1    1    2  501    0  0.33971237929E+02  0.95287272735E+01 -0.12463377585E+03  0.21611899438E+03  0.17300000000E+03 0. -1.
         -6    1    1    2    0  502 -0.33971237929E+02 -0.95287272735E+01  0.35909103229E+03  0.40015023569E+03  0.17300000000E+03 0. -1.
<mgrwt>
<rscale>  2 0.17656116E+03</rscale>
<asrwt>0</asrwt>
<pdfrwt beam="1">  1       21 0.65440499E-01 0.17656116E+03</pdfrwt>
<pdfrwt beam="2">  1       21 0.29370152E-01 0.17656116E+03</pdfrwt>
<totfact> 0.24074206E+04</totfact>
</mgrwt>
</event>
<event>
 4    1  0.4333905E+000  0.2777091E+03  0.7546771E-02  0.1096947E+00
         21   -1    0    0  503  502  0.00000000000E+00  0.00000000000E+00  0.13630586227E+03  0.13630586227E+03  0.00000000000E+00 0. -1.
         21   -1    0    0  501  503 -0.00000000000E+00 -0.00000000000E+00 -0.56600461147E+03  0.56600461147E+03  0.00000000000E+00 0. -1.
          6    1    1    2  501    0  0.19237332766E+03  0.10092499163E+03 -0.22146653094E+03  0.35520385057E+03  0.17300000000E+03 0. -1.
         -6    1    1    2    0  502 -0.19237332766E+03 -0.10092499163E+03 -0.20823221825E+03  0.34710662317E+03  0.17300000000E+03 0. -1.
<mgrwt>
<rscale>  2 0.27770911E+03</rscale>
<asrwt>0</asrwt>
<pdfrwt beam="1">  1       21 0.20970132E-01 0.27770911E+03</pdfrwt>
<pdfrwt beam="2">  1       21 0.87077634E-01 0.27770911E+03</pdfrwt>
<totfact> 0.22928626E+04</totfact>
</mgrwt>
</event>
<event>
 4    1  0.4333905E+000  0.2411992E+03  0.7546771E-02  0.1118997E+00
         21   -1    0    0  501  502  0.00000000000E+00  0.00000000000E+00  0.11919859236E+03  0.11919859236E+03  0.00000000000E+00 0.  1.
         21   -1    0    0  502  503 -0.00000000000E+00 -0.00000000000E+00 -0.48828971734E+03  0.48828971734E+03  0.00000000000E+00 0.  1.
          6    1    1    2  501    0 -0.15990308401E+03 -0.51759699486E+02 -0.19101260307E+03  0.30767332887E+03  0.17300000000E+03 0.  1.
         -6    1    1    2    0  503  0.15990308401E+03  0.51759699486E+02 -0.17807852191E+03  0.29981498083E+03  0.17300000000E+03 0.  1.
<mgrwt>
<rscale>  2 0.24119922E+03</rscale>
<asrwt>0</asrwt>
<pdfrwt beam="1">  1       21 0.18338245E-01 0.24119922E+03</pdfrwt>
<pdfrwt beam="2">  1       21 0.75121495E-01 0.24119922E+03</pdfrwt>
<totfact> 0.41980307E+04</totfact>
</mgrwt>
</event>
<event>
 4    1  0.4333905E+000  0.1934657E+03  0.7546771E-02  0.1155372E+00
         21   -1    0    0  501  502  0.00000000000E+00  0.00000000000E+00  0.76201427401E+02  0.76201427401E+02  0.00000000000E+00 0.  1.
         21   -1    0    0  502  503 -0.00000000000E+00 -0.00000000000E+00 -0.49431991338E+03  0.49431991338E+03  0.00000000000E+00 0. -1.
          6    1    1    2  501    0  0.84663666784E+02 -0.18222141193E+02 -0.18634153838E+03  0.26861152587E+03  0.17300000000E+03 0. -1.
         -6    1    1    2    0  503 -0.84663666784E+02  0.18222141193E+02 -0.23177694759E+03  0.30190981491E+03  0.17300000000E+03 0. -1.
<mgrwt>
<rscale>  2 0.19346572E+03</rscale>
<asrwt>0</asrwt>
<pdfrwt beam="1">  1       21 0.11723296E-01 0.19346572E+03</pdfrwt>
<pdfrwt beam="2">  1       21 0.76049219E-01 0.19346572E+03</pdfrwt>
<totfact> 0.94272190E+04</totfact>
</mgrwt>
</event>
<event>
 4    1  0.4333905E+000  0.1960459E+03  0.7546771E-02  0.1153119E+00
         21   -1    0    0  503  502  0.00000000000E+00  0.00000000000E+00  0.48987003602E+02  0.48987003602E+02  0.00000000000E+00 0.  1.
         21   -1    0    0  501  503 -0.00000000000E+00 -0.00000000000E+00 -0.88550299354E+03  0.88550299354E+03  0.00000000000E+00 0. -1.
          6    1    1    2  501    0  0.83715536849E+02 -0.38687112264E+02 -0.57600285842E+03  0.60845154012E+03  0.17300000000E+03 0. -1.
         -6    1    1    2    0  502 -0.83715536849E+02  0.38687112264E+02 -0.26051313152E+03  0.32603845702E+03  0.17300000000E+03 0.  1.
<mgrwt>
<rscale>  2 0.19604587E+03</rscale>
<asrwt>0</asrwt>
<pdfrwt beam="1">  1       21 0.75364627E-02 0.19604587E+03</pdfrwt>
<pdfrwt beam="2">  1       21 0.13623122E+00 0.19604587E+03</pdfrwt>
<totfact> 0.51003804E+04</totfact>
</mgrwt>
</event>
<event>
 4    1  0.4333905E+000  0.2210567E+03  0.7546771E-02  0.1133098E+00
         21   -1    0    0  503  502  0.00000000000E+00  0.00000000000E+00  0.38405175379E+02  0.38405175379E+02  0.00000000000E+00 0. -1.
         21   -1    0    0  501  503 -0.00000000000E+00 -0.00000000000E+00 -0.24308528552E+04  0.24308528552E+04  0.00000000000E+00 0. -1.
          6    1    1    2  501    0  0.83423191965E+02  0.10944245149E+03 -0.20485377503E+04  0.20604302933E+04  0.17300000000E+03 0. -1.
         -6    1    1    2    0  502 -0.83423191965E+02 -0.10944245149E+03 -0.34390992952E+03  0.40882773728E+03  0.17300000000E+03 0. -1.
<mgrwt>
<rscale>  2 0.22105673E+03</rscale>
<asrwt>0</asrwt>
<pdfrwt beam="1">  1       21 0.59084892E-02 0.22105673E+03</pdfrwt>
<pdfrwt beam="2">  1       21 0.37397732E+00 0.22105673E+03</pdfrwt>
<totfact> 0.24529203E+03</totfact>
</mgrwt>
</event>
<event>
 4    1  0.4333905E+000  0.1954620E+03  0.7546771E-02  0.1153625E+00
         21   -1    0    0  503  502  0.00000000000E+00  0.00000000000E+00  0.56402396796E+02  0.56402396796E+02  0.00000000000E+00 0. -1.
         21   -1    0    0  501  503 -0.00000000000E+00 -0.00000000000E+00 -0.68018023545E+03  0.68018023545E+03  0.00000000000E+00 0.  1.
          6    1    1    2  501    0  0.20716711078E+02 -0.88584393669E+02 -0.33555540640E+03  0.38833337184E+03  0.17300000000E+03 0.  1.
         -6    1    1    2    0  502 -0.20716711078E+02  0.88584393669E+02 -0.28822243226E+03  0.34824926041E+03  0.17300000000E+03 0.  1.
<mgrwt>
<rscale>  2 0.19546196E+03</rscale>
<asrwt>0</asrwt>
<pdfrwt beam="1">  1       21 0.86772909E-02 0.19546196E+03</pdfrwt>
<pdfrwt beam="2">  1       21 0.10464312E+00 0.19546196E+03</pdfrwt>
<totfact> 0.76608417E+04</totfact>
</mgrwt>
</event>
<event>
 4    1  0.4333905E+000  0.2388858E+03  0.7546771E-02  0.1120537E+00
         21   -1    0    0  503  502  0.00000000000E+00  0.00000000000E+00  0.22578270946E+04  0.22578270946E+04  0.00000000000E+00 0. -1.
         21   -1    0    0  501  503 -0.00000000000E+00 -0.00000000000E+00 -0.26422971030E+02  0.26422971030E+02  0.00000000000E+00 0. -1.
          6    1    1    2  501    0  0.15669604985E+03  0.50830750556E+02  0.13537705477E+04  0.13746858234E+04  0.17300000000E+03 0. -1.
         -6    1    1    2    0  502 -0.15669604985E+03 -0.50830750556E+02  0.87763357584E+03  0.90956424219E+03  0.17300000000E+03 0. -1.
<mgrwt>
<rscale>  2 0.23888578E+03</rscale>
<asrwt>0</asrwt>
<pdfrwt beam="1">  1       21 0.34735786E+00 0.23888578E+03</pdfrwt>
<pdfrwt beam="2">  1       21 0.40650742E-02 0.23888578E+03</pdfrwt>
<totfact> 0.65645203E+03</totfact>
</mgrwt>
</event>
<event>
 4    1  0.4333905E+000  0.1953424E+03  0.7546771E-02  0.1153729E+00
         21   -1    0    0  503  502  0.00000000000E+00  0.00000000000E+00  0.80729513236E+03  0.80729513236E+03  0.00000000000E+00 0.  1.
         21   -1    0    0  501  503 -0.00000000000E+00 -0.00000000000E+00 -0.47602995527E+02  0.47602995527E+02  0.00000000000E+00 0.  1.
          6    1    1    2  501    0 -0.85617240068E+02 -0.29988915881E+02  0.34394961901E+03  0.39555023359E+03  0.17300000000E+03 0.  1.
         -6    1    1    2    0  502  0.85617240068E+02  0.29988915881E+02  0.41574251782E+03  0.45934789430E+03  0.17300000000E+03 0.  1.
<mgrwt>
<rscale>  2 0.19534238E+03</rscale>
<asrwt>0</asrwt>
<pdfrwt beam="1">  1       21 0.12419924E+00 0.19534238E+03</pdfrwt>
<pdfrwt beam="2">  1       21 0.73235384E-02 0.19534238E+03</pdfrwt>
<totfact> 0.67725691E+04</totfact>
</mgrwt>
</event>
<event>
 4    1  0.4333905E+000  0.4712393E+03  0.7546771E-02  0.1021571E+00
         21   -1    0    0  501  502  0.00000000000E+00  0.00000000000E+00  0.25119182745E+04  0.25119182745E+04  0.00000000000E+00 0. -1.
         21   -1    0    0  502  503 -0.00000000000E+00 -0.00000000000E+00 -0.17950909176E+03  0.17950909176E+03  0.00000000000E+00 0.  1.
          6    1    1    2  501    0 -0.35495369877E+03  0.25718736506E+03  0.21248943061E+04  0.21765206824E+04  0.17300000000E+03 0. -1.
         -6    1    1    2    0  503  0.35495369877E+03 -0.25718736506E+03  0.20751487667E+03  0.51490668383E+03  0.17300000000E+03 0.  1.
<mgrwt>
<rscale>  2 0.47123929E+03</rscale>
<asrwt>0</asrwt>
<pdfrwt beam="1">  1       21 0.38644894E+00 0.47123929E+03</pdfrwt>
<pdfrwt beam="2">  1       21 0.27616785E-01 0.47123929E+03</pdfrwt>
<totfact> 0.98333717E+01</totfact>
</mgrwt>
</event>
<event>
 4    1  0.4333905E+000  0.1756827E+03  0.7546771E-02  0.1172048E+00
         21   -1    0    0  501  502  0.00000000000E+00  0.00000000000E+00  0.14731628692E+03  0.14731628692E+03  0.00000000000E+00 0. -1.
         21   -1    0    0  502  503 -0.00000000000E+00 -0.00000000000E+00 -0.38112511501E+03  0.38112511501E+03  0.00000000000E+00 0. -1.
          6    1    1    2  501    0 -0.15007900066E+02  0.26649407762E+02  0.60395762765E+02  0.18577426129E+03  0.17300000000E+03 0. -1.
         -6    1    1    2    0  503  0.15007900066E+02 -0.26649407762E+02 -0.29420459085E+03  0.34266714064E+03  0.17300000000E+03 0. -1.
<mgrwt>
<rscale>  2 0.17568275E+03</rscale>
<asrwt>0</asrwt>
<pdfrwt beam="1">  1       21 0.22664045E-01 0.17568275E+03</pdfrwt>
<pdfrwt beam="2">  1       21 0.58634632E-01 0.17568275E+03</pdfrwt>
<totfact> 0.50083906E+04</totfact>
</mgrwt>
</event>
<event>
 4    1  0.4333905E+000  0.1748428E+03  0.7546771E-02  0.1172890E+00
         21   -1    0    0  501  502  0.00000000000E+00  0.00000000000E+00  0.44635441571E+03  0.44635441571E+03  0.00000000000E+00 0.  1.
         21   -1    0    0  502  503 -0.00000000000E+00 -0.00000000000E+00 -0.14483265502E+03  0.14483265502E+03  0.00000000000E+00 0.  1.
          6    1    1    2  501    0  0.22507549620E+02 -0.11593240512E+02  0.36537117300E+03  0.40505072161E+03  0.17300000000E+03 0.  1.
         -6    1    1    2    0  503 -0.22507549620E+02  0.11593240512E+02 -0.63849412310E+02  0.18613634913E+03  0.17300000000E+03 0.  1.
<mgrwt>
<rscale>  2 0.17484277E+03</rscale>
<asrwt>0</asrwt>
<pdfrwt beam="1">  1       21 0.68669910E-01 0.17484277E+03</pdfrwt>
<pdfrwt beam="2">  1       21 0.22281947E-01 0.17484277E+03</pdfrwt>
<totfact> 0.36766120E+04</totfact>
</mgrwt>
</event>
<event>
 4    1  0.4333905E+000  0.1949421E+03  0.7546771E-02  0.1154078E+00
         21   -1    0    0  503  502  0.00000000000E+00  0.00000000000E+00  0.12961533260E+04  0.12961533260E+04  0.00000000000E+00 0.  1.
         21   -1    0    0  501  503 -0.00000000000E+00 -0.00000000000E+00 -0.29585118760E+02  0.29585118760E+02  0.00000000000E+00 0. -1.
          6    1    1    2  501    0  0.86611018690E+02  0.23915212779E+02  0.57046056510E+03  0.60284961831E+03  0.17300000000E+03 0. -1.
         -6    1    1    2    0  502 -0.86611018690E+02 -0.23915212779E+02  0.69610764210E+03  0.72288882641E+03  0.17300000000E+03 0.  1.
<mgrwt>
<rscale>  2 0.19494206E+03</rscale>
<asrwt>0</asrwt>
<pdfrwt beam="1">  1       21 0.19940816E+00 0.19494206E+03</pdfrwt>
<pdfrwt beam="2">  1       21 0.45515577E-02 0.19494206E+03</pdfrwt>
<totfact> 0.42645829E+04</totfact>
</mgrwt>
</event>
<event>
 4    1  0.4333905E+000  0.2135656E+03  0.7546771E-02  0.1138773E+00
         21   -1    0    0  501  502  0.00000000000E+00  0.00000000000E+00  0.47978857078E+02  0.47978857078E+02  0.00000000000E+00 0. -1.
         21   -1    0    0  502  503 -0.00000000000E+00 -0.00000000000E+00 -0.10685089938E+04  0.10685089938E+04  0.00000000000E+00 0. -1.
          6    1    1    2  501    0 -0.11557571603E+03  0.48202986274E+02 -0.32484872417E+03  0.38876338255E+03  0.17300000000E+03 0. -1.
         -6    1    1    2    0  503  0.11557571603E+03 -0.48202986274E+02 -0.69568141254E+03  0.72772446831E+03  0.17300000000E+03 0. -1.
<mgrwt>
<rscale>  2 0.21356562E+03</rscale>
<asrwt>0</asrwt>
<pdfrwt beam="1">  1       21 0.73813632E-02 0.21356562E+03</pdfrwt>
<pdfrwt beam="2">  1       21 0.16438599E+00 0.21356562E+03</pdfrwt>
<totfact> 0.31858503E+04</totfact>
</mgrwt>
</event>
<event>
 4    1  0.4333905E+000  0.2487132E+03  0.7546771E-02  0.1114121E+00
         21   -1    0    0  503  502  0.00000000000E+00  0.00000000000E+00  0.26541245633E+03  0.26541245633E+03  0.00000000000E+00 0. -1.
         21   -1    0    0  501  503 -0.00000000000E+00 -0.00000000000E+00 -0.43837551954E+03  0.43837551954E+03  0.00000000000E+00 0. -1.
          6    1    1    2  501    0  0.17108193686E+03 -0.51577577178E+02 -0.32730267511E+03  0.41107823674E+03  0.17300000000E+03 0. -1.
         -6    1    1    2    0  502 -0.17108193686E+03  0.51577577178E+02  0.15433961190E+03  0.29270973914E+03  0.17300000000E+03 0. -1.
<mgrwt>
<rscale>  2 0.24871324E+03</rscale>
<asrwt>0</asrwt>
<pdfrwt beam="1">  1       21 0.40832686E-01 0.24871324E+03</pdfrwt>
<pdfrwt beam="2">  1       21 0.67442387E-01 0.24871324E+03</pdfrwt>
<totfact> 0.11225365E+04</totfact>
</mgrwt>
</event>
<event>
 4    1  0.4333905E+000  0.1989161E+03  0.7546771E-02  0.1150657E+00
         21   -1    0    0  501  502  0.00000000000E+00  0.00000000000E+00  0.71487158603E+03  0.71487158603E+03  0.00000000000E+00 0.  1.
         21   -1    0    0  502  503 -0.00000000000E+00 -0.00000000000E+00 -0.71792773487E+02  0.71792773487E+02  0.00000000000E+00 0.  1.
          6    1    1    2  501    0 -0.90373596683E+02 -0.38356420075E+02  0.50978145127E+03  0.54721543290E+03  0.17300000000E+03 0.  1.
         -6    1    1    2    0  503  0.90373596683E+02  0.38356420075E+02  0.13329736127E+03  0.23944892662E+03  0.17300000000E+03 0.  1.
<mgrwt>
<rscale>  2 0.19891607E+03</rscale>
<asrwt>0</asrwt>
<pdfrwt beam="1">  1       21 0.10998024E+00 0.19891607E+03</pdfrwt>
<pdfrwt beam="2">  1       21 0.11045043E-01 0.19891607E+03</pdfrwt>
<totfact> 0.44305498E+04</totfact>
</mgrwt>
</event>
<event>
 4    1  0.4333905E+000  0.2339186E+03  0.7546771E-02  0.1123912E+00
         21   -1    0    0  501  502  0.00000000000E+00  0.00000000000E+00  0.29164771688E+03  0.29164771688E+03  0.00000000000E+00 0. -1.
         21   -1    0    0  502  503 -0.00000000000E+00 -0.00000000000E+00 -0.18794896743E+03  0.18794896743E+03  0.00000000000E+00 0. -1.
          6    1    1    2  501    0  0.15306650958E+03 -0.36872033416E+02  0.61936026819E+02  0.24197928552E+03  0.17300000000E+03 0. -1.
         -6    1    1    2    0  503 -0.15306650958E+03  0.36872033416E+02  0.41762722636E+02  0.23761739879E+03  0.17300000000E+03 0. -1.
<mgrwt>
<rscale>  2 0.23391858E+03</rscale>
<asrwt>0</asrwt>
<pdfrwt beam="1">  1       21 0.44868880E-01 0.23391858E+03</pdfrwt>
<pdfrwt beam="2">  1       21 0.28915226E-01 0.23391858E+03</pdfrwt>
<totfact> 0.53563039E+04</totfact>
</mgrwt>
</event>
<event>
 4    1  0.4333905E+000  0.1779688E+03  0.7546771E-02  0.1169783E+00
         21   -1    0    0  503  502  0.00000000000E+00  0.00000000000E+00  0.30106624695E+02  0.30106624695E+02  0.00000000000E+00 0.  1.
         21   -1    0    0  501  503 -0.00000000000E+00 -0.00000000000E+00 -0.10662225216E+04  0.10662225216E+04  0.00000000000E+00 0.  1.
          6    1    1    2  501    0 -0.40952994584E+02 -0.81694162015E+01 -0.58131529135E+03  0.60794765818E+03  0.17300000000E+03 0. -1.
         -6    1    1    2    0  502  0.40952994584E+02  0.81694162015E+01 -0.45480060560E+03  0.48838148817E+03  0.17300000000E+03 0. -1.
<mgrwt>
<rscale>  2 0.17796878E+03</rscale>
<asrwt>0</asrwt>
<pdfrwt beam="1">  1       21 0.46317886E-02 0.17796878E+03</pdfrwt>
<pdfrwt beam="2">  1       21 0.16403423E+00 0.17796878E+03</pdfrwt>
<totfact> 0.72610810E+04</totfact>
</mgrwt>
</event>
<event>
 4    1  0.4333905E+000  0.2368619E+03  0.7546771E-02  0.1121901E+00
         21   -1    0    0  501  502  0.00000000000E+00  0.00000000000E+00  0.26043764420E+03  0.26043764420E+03  0.00000000000E+00 0.  1.
         21   -1    0    0  502  503 -0.00000000000E+00 -0.00000000000E+00 -0.77511108875E+03  0.77511108875E+03  0.00000000000E+00 0.  1.
          6    1    1    2  501    0  0.10026771075E+03  0.12696834952E+03  0.18264295890E+03  0.29910203282E+03  0.17300000000E+03 0.  1.
         -6    1    1    2    0  503 -0.10026771075E+03 -0.12696834952E+03 -0.69731640345E+03  0.73644670013E+03  0.17300000000E+03 0.  1.
<mgrwt>
<rscale>  2 0.23686193E+03</rscale>
<asrwt>0</asrwt>
<pdfrwt beam="1">  1       21 0.40067331E-01 0.23686193E+03</pdfrwt>
<pdfrwt beam="2">  1       21 0.11924786E+00 0.23686193E+03</pdfrwt>
<totfact> 0.31076677E+03</totfact>
</mgrwt>
</event>
<event>
 4    1  0.4333905E+000  0.2815932E+03  0.7546771E-02  0.1094822E+00
         21   -1    0    0  503  502  0.00000000000E+00  0.00000000000E+00  0.23306678049E+03  0.23306678049E+03  0.00000000000E+00 0. -1.
         21   -1    0    0  501  503 -0.00000000000E+00 -0.00000000000E+00 -0.34026905668E+03  0.34026905668E+03  0.00000000000E+00 0. -1.
          6    1    1    2  501    0  0.75822737328E+02  0.20884595634E+03 -0.56929791785E+02  0.28729030991E+03  0.17300000000E+03 0. -1.
         -6    1    1    2    0  502 -0.75822737328E+02 -0.20884595634E+03 -0.50272484407E+02  0.28604552726E+03  0.17300000000E+03 0. -1.
<mgrwt>
<rscale>  2 0.28159318E+03</rscale>
<asrwt>0</asrwt>
<pdfrwt beam="1">  1       21 0.35856428E-01 0.28159318E+03</pdfrwt>
<pdfrwt beam="2">  1       21 0.52349085E-01 0.28159318E+03</pdfrwt>
<totfact> 0.24856713E+04</totfact>
</mgrwt>
</event>
<event>
 4    1  0.4333905E+000  0.2965651E+03  0.7546771E-02  0.1086970E+00
         21   -1    0    0  503  502  0.00000000000E+00  0.00000000000E+00  0.49020792891E+02  0.49020792891E+02  0.00000000000E+00 0. -1.
         21   -1    0    0  501  503 -0.00000000000E+00 -0.00000000000E+00 -0.19069044193E+04  0.19069044193E+04  0.00000000000E+00 0.  1.
          6    1    1    2  501    0 -0.23503860651E+03  0.52713583054E+02 -0.11667442013E+04  0.12038450480E+04  0.17300000000E+03 0.  1.
         -6    1    1    2    0  502  0.23503860651E+03 -0.52713583054E+02 -0.69113942512E+03  0.75208016417E+03  0.17300000000E+03 0. -1.
<mgrwt>
<rscale>  2 0.29656512E+03</rscale>
<asrwt>0</asrwt>
<pdfrwt beam="1">  1       21 0.75416604E-02 0.29656512E+03</pdfrwt>
<pdfrwt beam="2">  1       21 0.29336991E+00 0.29656512E+03</pdfrwt>
<totfact> 0.45017408E+03</totfact>
</mgrwt>
</event>
<event>
 4    1  0.4333905E+000  0.2600750E+03  0.7546771E-02  0.1107098E+00
         21   -1    0    0  501  502  0.00000000000E+00  0.00000000000E+00  0.89340788267E+03  0.89340788267E+03  0.00000000000E+00 0. -1.
         21   -1    0    0  502  503 -0.00000000000E+00 -0.00000000000E+00 -0.76175891423E+02  0.76175891423E+02  0.00000000000E+00 0. -1.
          6    1    1    2  501    0 -0.12117045183E+03 -0.15174883723E+03  0.37066092369E+03  0.45280073802E+03  0.17300000000E+03 0. -1.
         -6    1    1    2    0  503  0.12117045183E+03  0.15174883723E+03  0.44657106756E+03  0.51678303608E+03  0.17300000000E+03 0. -1.
<mgrwt>
<rscale>  2 0.26007497E+03</rscale>
<asrwt>0</asrwt>
<pdfrwt beam="1">  1       21 0.13744736E+00 0.26007497E+03</pdfrwt>
<pdfrwt beam="2">  1       21 0.11719369E-01 0.26007497E+03</pdfrwt>
<totfact> 0.22098291E+04</totfact>
</mgrwt>
</event>
<event>
 4    1  0.4333905E+000  0.1879338E+03  0.7546771E-02  0.1160338E+00
         21   -1    0    0  501  502  0.00000000000E+00  0.00000000000E+00  0.33076376190E+03  0.33076376190E+03  0.00000000000E+00 0. -1.
         21   -1    0    0  502  503 -0.00000000000E+00 -0.00000000000E+00 -0.10749603865E+03  0.10749603865E+03  0.00000000000E+00 0. -1.
          6    1    1    2  501    0  0.31505844964E+02  0.66313687518E+02  0.12951185243E+03  0.22823769044E+03  0.17300000000E+03 0. -1.
         -6    1    1    2    0  503 -0.31505844964E+02 -0.66313687518E+02  0.93755870819E+02  0.21002211010E+03  0.17300000000E+03 0. -1.
<mgrwt>
<rscale>  2 0.18793383E+03</rscale>
<asrwt>0</asrwt>
<pdfrwt beam="1">  1       21 0.50886732E-01 0.18793383E+03</pdfrwt>
<pdfrwt beam="2">  1       21 0.16537852E-01 0.18793383E+03</pdfrwt>
<totfact> 0.12074542E+05</totfact>
</mgrwt>
</event>
<event>
 4    1  0.4333905E+000  0.1913925E+03  0.7546771E-02  0.1157211E+00
         21   -1    0    0  503  502  0.00000000000E+00  0.00000000000E+00  0.11392381830E+03  0.11392381830E+03  0.00000000000E+00 0. -1.
         21   -1    0    0  501  503 -0.00000000000E+00 -0.00000000000E+00 -0.54379644754E+03  0.54379644754E+03  0.00000000000E+00 0. -1.
          6    1    1    2  501    0  0.79531804654E+02  0.19410936247E+02 -0.42517856196E+03  0.46627020272E+03  0.17300000000E+03 0. -1.
         -6    1    1    2    0  502 -0.79531804654E+02 -0.19410936247E+02 -0.46940672755E+01  0.19145006311E+03  0.17300000000E+03 0. -1.
<mgrwt>
<rscale>  2 0.19139251E+03</rscale>
<asrwt>0</asrwt>
<pdfrwt beam="1">  1       21 0.17526741E-01 0.19139251E+03</pdfrwt>
<pdfrwt beam="2">  1       21 0.83660992E-01 0.19139251E+03</pdfrwt>
<totfact> 0.36669365E+04</totfact>
</mgrwt>
</event>
<event>
 4    1  0.4333905E+000  0.2051314E+03  0.7546771E-02  0.1145480E+00
         21   -1    0    0  501  502  0.00000000000E+00  0.00000000000E+00  0.41242962618E+03  0.41242962618E+03  0.00000000000E+00 0. -1.
         21   -1    0    0  502  503 -0.00000000000E+00 -0.00000000000E+00 -0.10660783759E+03  0.10660783759E+03  0.00000000000E+00 0.  1.
          6    1    1    2  501    0 -0.16158443833E+02 -0.10903573929E+03  0.99114322161E+02  0.22782128216E+03  0.17300000000E+03 0.  1.
         -6    1    1    2    0  503  0.16158443833E+02  0.10903573929E+03  0.20670746644E+03  0.29121618161E+03  0.17300000000E+03 0. -1.
<mgrwt>
<rscale>  2 0.20513139E+03</rscale>
<asrwt>0</asrwt>
<pdfrwt beam="1">  1       21 0.63450711E-01 0.20513139E+03</pdfrwt>
<pdfrwt beam="2">  1       21 0.16401206E-01 0.20513139E+03</pdfrwt>
<totfact> 0.76109305E+04</totfact>
</mgrwt>
</event>
<event>
 4    1  0.4333905E+000  0.1733304E+03  0.7546771E-02  0.1174419E+00
         21   -1    0    0  503  502  0.00000000000E+00  0.00000000000E+00  0.33408784483E+03  0.33408784483E+03  0.00000000000E+00 0.  1.
         21   -1    0    0  501  503 -0.00000000000E+00 -0.00000000000E+00 -0.29681577268E+03  0.29681577268E+03  0.00000000000E+00 0.  1.
          6    1    1    2  501    0 -0.10345986043E+02  0.27164440459E+01 -0.24472911464E+03  0.29989291096E+03  0.17300000000E+03 0.  1.
         -6    1    1    2    0  502  0.10345986043E+02 -0.27164440459E+01  0.28200118679E+03  0.33101070654E+03  0.17300000000E+03 0.  1.
<mgrwt>
<rscale>  2 0.17333037E+03</rscale>
<asrwt>0</asrwt>
<pdfrwt beam="1">  1       21 0.51398130E-01 0.17333037E+03</pdfrwt>
<pdfrwt beam="2">  1       21 0.45663965E-01 0.17333037E+03</pdfrwt>
<totfact> 0.16742413E+04</totfact>
</mgrwt>
</event>
<event>
 4    1  0.4333905E+000  0.2775361E+03  0.7546771E-02  0.1097042E+00
         21   -1    0    0  501  502  0.00000000000E+00  0.00000000000E+00  0.14066924732E+04  0.14066924732E+04  0.00000000000E+00 0. -1.
         21   -1    0    0  502  503 -0.00000000000E+00 -0.00000000000E+00 -0.62346231576E+02  0.62346231576E+02  0.00000000000E+00 0.  1.
          6    1    1    2  501    0  0.20406210374E+03  0.73864457340E+02  0.92844220540E+03  0.96903623720E+03  0.17300000000E+03 0.  1.
         -6    1    1    2    0  503 -0.20406210374E+03 -0.73864457340E+02  0.41590403626E+03  0.50000246761E+03  0.17300000000E+03 0. -1.
<mgrwt>
<rscale>  2 0.27753612E+03</rscale>
<asrwt>0</asrwt>
<pdfrwt beam="1">  1       21 0.21641420E+00 0.27753612E+03</pdfrwt>
<pdfrwt beam="2">  1       21 0.95917290E-02 0.27753612E+03</pdfrwt>
<totfact> 0.86695636E+03</totfact>
</mgrwt>
</event>
<event>
 4    1  0.4333905E+000  0.1784069E+03  0.7546771E-02  0.1169354E+00
         21   -1    0    0  503  502  0.00000000000E+00  0.00000000000E+00  0.11635845621E+04  0.11635845621E+04  0.00000000000E+00 0.  1.
         21   -1    0    0  501  503 -0.00000000000E+00 -0.00000000000E+00 -0.71157202583E+02  0.71157202583E+02  0.00000000000E+00 0. -1.
          6    1    1    2  501    0 -0.14150145534E+02  0.41228451804E+02  0.61831363825E+02  0.18881771477E+03  0.17300000000E+03 0. -1.
         -6    1    1    2    0  502  0.14150145534E+02 -0.41228451804E+02  0.10305959957E+04  0.10459240499E+04  0.17300000000E+03 0.  1.
<mgrwt>
<rscale>  2 0.17840687E+03</rscale>
<asrwt>0</asrwt>
<pdfrwt beam="1">  1       21 0.17901300E+00 0.17840687E+03</pdfrwt>
<pdfrwt beam="2">  1       21 0.10947263E-01 0.17840687E+03</pdfrwt>
<totfact> 0.12917774E+04</totfact>
</mgrwt>
</event>
<event>
 4    1  0.4333905E+000  0.2785687E+03  0.7546771E-02  0.1096473E+00
         21   -1    0    0  503  502  0.00000000000E+00  0.00000000000E+00  0.17025736065E+04  0.17025736065E+04  0.00000000000E+00 0.  1.
         21   -1    0    0  501  503 -0.00000000000E+00 -0.00000000000E+00 -0.54708378232E+02  0.54708378232E+02  0.00000000000E+00 0. -1.
          6    1    1    2  501    0  0.15412179466E+03 -0.15465434815E+03  0.46499364486E+03  0.54205127502E+03  0.17300000000E+03 0. -1.
         -6    1    1    2    0  502 -0.15412179466E+03  0.15465434815E+03  0.11828715835E+04  0.12152307098E+04  0.17300000000E+03 0. -1.
<mgrwt>
<rscale>  2 0.27856865E+03</rscale>
<asrwt>0</asrwt>
<pdfrwt beam="1">  1       21 0.26193436E+00 0.27856865E+03</pdfrwt>
<pdfrwt beam="2">  1       21 0.84166749E-02 0.27856865E+03</pdfrwt>
<totfact> 0.57674348E+03</totfact>
</mgrwt>
</event>
<event>
 4    1  0.4333905E+000  0.1872988E+03  0.7546771E-02  0.1160920E+00
         21   -1    0    0  501  502  0.00000000000E+00  0.00000000000E+00  0.34452423869E+03  0.34452423869E+03  0.00000000000E+00 0.  1.
         21   -1    0    0  502  503 -0.00000000000E+00 -0.00000000000E+00 -0.11666165407E+03  0.11666165407E+03  0.00000000000E+00 0.  1.
          6    1    1    2  501    0 -0.49036552119E+02  0.52414341843E+02  0.19616769876E+03  0.27122428489E+03  0.17300000000E+03 0.  1.
         -6    1    1    2    0  503  0.49036552119E+02 -0.52414341843E+02  0.31694885858E+02  0.18996160787E+03  0.17300000000E+03 0.  1.
<mgrwt>
<rscale>  2 0.18729882E+03</rscale>
<asrwt>0</asrwt>
<pdfrwt beam="1">  1       21 0.53003729E-01 0.18729882E+03</pdfrwt>
<pdfrwt beam="2">  1       21 0.17947947E-01 0.18729882E+03</pdfrwt>
<totfact> 0.95381481E+04</totfact>
</mgrwt>
</event>
<event>
 4    1  0.4333905E+000  0.2049388E+03  0.7546771E-02  0.1145638E+00
         21   -1    0    0  503  502  0.00000000000E+00  0.00000000000E+00  0.19138231974E+03  0.19138231974E+03  0.00000000000E+00 0. -1.
         21   -1    0    0  501  503 -0.00000000000E+00 -0.00000000000E+00 -0.21971243993E+03  0.21971243993E+03  0.00000000000E+00 0. -1.
          6    1    1    2  501    0 -0.74365920671E+02 -0.80874186281E+02 -0.21192635084E+02  0.20603167704E+03  0.17300000000E+03 0. -1.
         -6    1    1    2    0  502  0.74365920671E+02  0.80874186281E+02 -0.71374851014E+01  0.20506308263E+03  0.17300000000E+03 0. -1.
<mgrwt>
<rscale>  2 0.20493883E+03</rscale>
<asrwt>0</asrwt>
<pdfrwt beam="1">  1       21 0.29443434E-01 0.20493883E+03</pdfrwt>
<pdfrwt beam="2">  1       21 0.33801914E-01 0.20493883E+03</pdfrwt>
<totfact> 0.92713767E+04</totfact>
</mgrwt>
</event>
<event>
 4    1  0.4333905E+000  0.1745804E+03  0.7546771E-02  0.1173154E+00
         21   -1    0    0  501  502  0.00000000000E+00  0.00000000000E+00  0.24777419164E+02  0.24777419164E+02  0.00000000000E+00 0.  1.
         21   -1    0    0  502  503 -0.00000000000E+00 -0.00000000000E+00 -0.16885075595E+04  0.16885075595E+04  0.00000000000E+00 0.  1.
          6    1    1    2  501    0 -0.64860450680E+01  0.22522346422E+02 -0.38550922398E+03  0.42319698326E+03  0.17300000000E+03 0.  1.
         -6    1    1    2    0  503  0.64860450680E+01 -0.22522346422E+02 -0.12782209163E+04  0.12900879954E+04  0.17300000000E+03 0.  1.
<mgrwt>
<rscale>  2 0.17458043E+03</rscale>
<asrwt>0</asrwt>
<pdfrwt beam="1">  1       21 0.38119094E-02 0.17458043E+03</pdfrwt>
<pdfrwt beam="2">  1       21 0.25977048E+00 0.17458043E+03</pdfrwt>
<totfact> 0.25166327E+04</totfact>
</mgrwt>
</event>
<event>
 4    1  0.4333905E+000  0.2101788E+03  0.7546771E-02  0.1141424E+00
         21   -1    0    0  503  502  0.00000000000E+00  0.00000000000E+00  0.70632052386E+02  0.70632052386E+02  0.00000000000E+00 0.  1.
         21   -1    0    0  501  503 -0.00000000000E+00 -0.00000000000E+00 -0.67357898453E+03  0.67357898453E+03  0.00000000000E+00 0. -1.
          6    1    1    2  501    0 -0.10339984185E+03 -0.59620483156E+02 -0.40096428017E+03  0.45271125818E+03  0.17300000000E+03 0. -1.
         -6    1    1    2    0  502  0.10339984185E+03  0.59620483156E+02 -0.20198265198E+03  0.29149977874E+03  0.17300000000E+03 0. -1.
<mgrwt>
<rscale>  2 0.21017880E+03</rscale>
<asrwt>0</asrwt>
<pdfrwt beam="1">  1       21 0.10866470E-01 0.21017880E+03</pdfrwt>
<pdfrwt beam="2">  1       21 0.10362753E+00 0.21017880E+03</pdfrwt>
<totfact> 0.52344272E+04</totfact>
</mgrwt>
</event>
<event>
 4    1  0.4333905E+000  0.1900177E+03  0.7546771E-02  0.1158445E+00
         21   -1    0    0  503  502  0.00000000000E+00  0.00000000000E+00  0.55977552204E+02  0.55977552204E+02  0.00000000000E+00 0. -1.
         21   -1    0    0  501  503 -0.00000000000E+00 -0.00000000000E+00 -0.64768455551E+03  0.64768455551E+03  0.00000000000E+00 0. -1.
          6    1    1    2  501    0  0.58567787969E+02 -0.52417069784E+02 -0.31841289928E+03  0.37080117235E+03  0.17300000000E+03 0. -1.
         -6    1    1    2    0  502 -0.58567787969E+02  0.52417069784E+02 -0.27329410403E+03  0.33286093536E+03  0.17300000000E+03 0. -1.
<mgrwt>
<rscale>  2 0.19001772E+03</rscale>
<asrwt>0</asrwt>
<pdfrwt beam="1">  1       21 0.86119313E-02 0.19001772E+03</pdfrwt>
<pdfrwt beam="2">  1       21 0.99643776E-01 0.19001772E+03</pdfrwt>
<totfact> 0.87464901E+04</totfact>
</mgrwt>
</event>
<event>
 4    1  0.4333905E+000  0.1860020E+03  0.7546771E-02  0.1162117E+00
         21   -1    0    0  503  502  0.00000000000E+00  0.00000000000E+00  0.55918769752E+03  0.55918769752E+03  0.00000000000E+00 0.  1.
         21   -1    0    0  501  503 -0.00000000000E+00 -0.00000000000E+00 -0.20090718634E+03  0.20090718634E+03  0.00000000000E+00 0.  1.
          6    1    1    2  501    0 -0.66718399203E+01  0.67994322157E+02 -0.13701916435E+03  0.23102162819E+03  0.17300000000E+03 0.  1.
         -6    1    1    2    0  502  0.66718399203E+01 -0.67994322157E+02  0.49529967552E+03  0.52907325567E+03  0.17300000000E+03 0.  1.
<mgrwt>
<rscale>  2 0.18600199E+03</rscale>
<asrwt>0</asrwt>
<pdfrwt beam="1">  1       21 0.86028876E-01 0.18600199E+03</pdfrwt>
<pdfrwt beam="2">  1       21 0.30908798E-01 0.18600199E+03</pdfrwt>
<totfact> 0.11771366E+04</totfact>
</mgrwt>
</event>
<event>
 4    1  0.4333905E+000  0.1891632E+03  0.7546771E-02  0.1159218E+00
         21   -1    0    0  501  502  0.00000000000E+00  0.00000000000E+00  0.42724211918E+03  0.42724211918E+03  0.00000000000E+00 0.  1.
         21   -1    0    0  502  503 -0.00000000000E+00 -0.00000000000E+00 -0.10429478859E+03  0.10429478859E+03  0.00000000000E+00 0.  1.
          6    1    1    2  501    0  0.76459894612E+02 -0.27601761006E+01  0.27942235290E+03  0.33743086011E+03  0.17300000000E+03 0.  1.
         -6    1    1    2    0  503 -0.76459894612E+02  0.27601761006E+01  0.43524977688E+02  0.19410604766E+03  0.17300000000E+03 0.  1.
<mgrwt>
<rscale>  2 0.18916325E+03</rscale>
<asrwt>0</asrwt>
<pdfrwt beam="1">  1       21 0.65729556E-01 0.18916325E+03</pdfrwt>
<pdfrwt beam="2">  1       21 0.16045352E-01 0.18916325E+03</pdfrwt>
<totfact> 0.73896287E+04</totfact>
</mgrwt>
</event>
<event>
 4    1  0.4333905E+000  0.1892846E+03  0.7546771E-02  0.1159108E+00
         21   -1    0    0  503  502  0.00000000000E+00  0.00000000000E+00  0.16925408792E+03  0.16925408792E+03  0.00000000000E+00 0. -1.
         21   -1    0    0  501  503 -0.00000000000E+00 -0.00000000000E+00 -0.49555868565E+03  0.49555868565E+03  0.00000000000E+00 0. -1.
          6    1    1    2  501    0 -0.46111451372E+02 -0.61428058525E+02 -0.41473677287E+03  0.45588952948E+03  0.17300000000E+03 0. -1.
         -6    1    1    2    0  502  0.46111451372E+02  0.61428058525E+02  0.88432175140E+02  0.20892324409E+03  0.17300000000E+03 0. -1.
<mgrwt>
<rscale>  2 0.18928463E+03</rscale>
<asrwt>0</asrwt>
<pdfrwt beam="1">  1       21 0.26039091E-01 0.18928463E+03</pdfrwt>
<pdfrwt beam="2">  1       21 0.76239796E-01 0.18928463E+03</pdfrwt>
<totfact> 0.21518172E+04</totfact>
</mgrwt>
</event>
<event>
 4    1  0.4333905E+000  0.1749982E+03  0.7546771E-02  0.1172734E+00
         21   -1    0    0  503  502  0.00000000000E+00  0.00000000000E+00  0.43898409065E+03  0.43898409065E+03  0.00000000000E+00 0.  1.
         21   -1    0    0  501  503 -0.00000000000E+00 -0.00000000000E+00 -0.15203311779E+03  0.15203311779E+03  0.00000000000E+00 0.  1.
          6    1    1    2  501    0  0.71483439250E+00 -0.26360214488E+02 -0.73907197518E+02  0.18996485396E+03  0.17300000000E+03 0.  1.
         -6    1    1    2    0  502 -0.71483439250E+00  0.26360214488E+02  0.36085817038E+03  0.40105235447E+03  0.17300000000E+03 0.  1.
<mgrwt>
<rscale>  2 0.17499821E+03</rscale>
<asrwt>0</asrwt>
<pdfrwt beam="1">  1       21 0.67536013E-01 0.17499821E+03</pdfrwt>
<pdfrwt beam="2">  1       21 0.23389711E-01 0.17499821E+03</pdfrwt>
<totfact> 0.34791128E+04</totfact>
</mgrwt>
</event>
<event>
 4    1  0.4333905E+000  0.2535188E+03  0.7546771E-02  0.1111101E+00
         21   -1    0    0  501  502  0.00000000000E+00  0.00000000000E+00  0.57046387044E+03  0.57046387044E+03  0.00000000000E+00 0. -1.
         21   -1    0    0  502  503 -0.00000000000E+00 -0.00000000000E+00 -0.14085821389E+03  0.14085821389E+03  0.00000000000E+00 0. -1.
          6    1    1    2  501    0 -0.16173203132E+03 -0.90473946045E+02  0.37391782574E+03  0.45175914520E+03  0.17300000000E+03 0. -1.
         -6    1    1    2    0  503  0.16173203132E+03  0.90473946045E+02  0.55687830808E+02  0.25956293913E+03  0.17300000000E+03 0. -1.
<mgrwt>
<rscale>  2 0.25351881E+03</rscale>
<asrwt>0</asrwt>
<pdfrwt beam="1">  1       21 0.87763671E-01 0.25351881E+03</pdfrwt>
<pdfrwt beam="2">  1       21 0.21670495E-01 0.25351881E+03</pdfrwt>
<totfact> 0.21390513E+04</totfact>
</mgrwt>
</event>
<event>
 4    1  0.4333905E+000  0.2087508E+03  0.7546771E-02  0.1142559E+00
         21   -1    0    0  501  502  0.00000000000E+00  0.00000000000E+00  0.56202170999E+03  0.56202170999E+03  0.00000000000E+00 0. -1.
         21   -1    0    0  502  503 -0.00000000000E+00 -0.00000000000E+00 -0.14427322209E+03  0.14427322209E+03  0.00000000000E+00 0. -1.
          6    1    1    2  501    0  0.11160801940E+03 -0.34519009339E+02  0.44906003438E+03  0.49520887157E+03  0.17300000000E+03 0. -1.
         -6    1    1    2    0  503 -0.11160801940E+03  0.34519009339E+02 -0.31311546483E+02  0.21108606051E+03  0.17300000000E+03 0. -1.
<mgrwt>
<rscale>  2 0.20875084E+03</rscale>
<asrwt>0</asrwt>
<pdfrwt beam="1">  1       21 0.86464877E-01 0.20875084E+03</pdfrwt>
<pdfrwt beam="2">  1       21 0.22195881E-01 0.20875084E+03</pdfrwt>
<totfact> 0.21663705E+04</totfact>
</mgrwt>
</event>
<event>
 4    1  0.4333905E+000  0.2358170E+03  0.7546771E-02  0.1122611E+00
         21   -1    0    0  501  502  0.00000000000E+00  0.00000000000E+00  0.11281111499E+03  0.11281111499E+03  0.00000000000E+00 0. -1.
         21   -1    0    0  502  503 -0.00000000000E+00 -0.00000000000E+00 -0.49295511884E+03  0.49295511884E+03  0.00000000000E+00 0. -1.
          6    1    1    2  501    0  0.60220920161E+02 -0.14850623101E+03 -0.18869063058E+03  0.30201624781E+03  0.17300000000E+03 0. -1.
         -6    1    1    2    0  503 -0.60220920161E+02  0.14850623101E+03 -0.19145337327E+03  0.30374998602E+03  0.17300000000E+03 0. -1.
<mgrwt>
<rscale>  2 0.23581701E+03</rscale>
<asrwt>0</asrwt>
<pdfrwt beam="1">  1       21 0.17355556E-01 0.23581701E+03</pdfrwt>
<pdfrwt beam="2">  1       21 0.75839248E-01 0.23581701E+03</pdfrwt>
<totfact> 0.45622785E+04</totfact>
</mgrwt>
</event>
<event>
 4    1  0.4333905E+000  0.2424112E+03  0.7546771E-02  0.1118197E+00
         21   -1    0    0  503  502  0.00000000000E+00  0.00000000000E+00  0.76609602151E+02  0.76609602151E+02  0.00000000000E+00 0. -1.
         21   -1    0    0  501  503 -0.00000000000E+00 -0.00000000000E+00 -0.99818867684E+03  0.99818867684E+03  0.00000000000E+00 0.  1.
          6    1    1    2  501    0  0.11895764734E+03  0.12117450735E+03 -0.71939015702E+03  0.75913462647E+03  0.17300000000E+03 0.  1.
         -6    1    1    2    0  502 -0.11895764734E+03 -0.12117450735E+03 -0.20218891767E+03  0.31566365251E+03  0.17300000000E+03 0. -1.
<mgrwt>
<rscale>  2 0.24241119E+03</rscale>
<asrwt>0</asrwt>
<pdfrwt beam="1">  1       21 0.11786092E-01 0.24241119E+03</pdfrwt>
<pdfrwt beam="2">  1       21 0.15356749E+00 0.24241119E+03</pdfrwt>
<totfact> 0.16484070E+04</totfact>
</mgrwt>
</event>
<event>
 4    1  0.4333905E+000  0.2118266E+03  0.7546771E-02  0.1140128E+00
         21   -1    0    0  503  502  0.00000000000E+00  0.00000000000E+00  0.31871456725E+02  0.31871456725E+02  0.00000000000E+00 0.  1.
         21   -1    0    0  501  503 -0.00000000000E+00 -0.00000000000E+00 -0.15936402274E+04  0.15936402274E+04  0.00000000000E+00 0.  1.
          6    1    1    2  501    0 -0.71452873698E+01 -0.12202637884E+03 -0.50338195815E+03  0.54613541183E+03  0.17300000000E+03 0.  1.
         -6    1    1    2    0  502  0.71452873698E+01  0.12202637884E+03 -0.10583868125E+04  0.10793762723E+04  0.17300000000E+03 0.  1.
<mgrwt>
<rscale>  2 0.21182656E+03</rscale>
<asrwt>0</asrwt>
<pdfrwt beam="1">  1       21 0.49033001E-02 0.21182656E+03</pdfrwt>
<pdfrwt beam="2">  1       21 0.24517547E+00 0.21182656E+03</pdfrwt>
<totfact> 0.19423188E+04</totfact>
</mgrwt>
</event>
<event>
 4    1  0.4333905E+000  0.1977167E+03  0.7546771E-02  0.1151680E+00
         21   -1    0    0  501  502  0.00000000000E+00  0.00000000000E+00  0.76165456351E+02  0.76165456351E+02  0.00000000000E+00 0.  1.
         21   -1    0    0  502  503 -0.00000000000E+00 -0.00000000000E+00 -0.54487274990E+03  0.54487274990E+03  0.00000000000E+00 0.  1.
          6    1    1    2  501    0 -0.53093722618E+02 -0.79648956711E+02 -0.15954660700E+03  0.25406105465E+03  0.17300000000E+03 0.  1.
         -6    1    1    2    0  503  0.53093722618E+02  0.79648956711E+02 -0.30916068655E+03  0.36697715160E+03  0.17300000000E+03 0.  1.
<mgrwt>
<rscale>  2 0.19771672E+03</rscale>
<asrwt>0</asrwt>
<pdfrwt beam="1">  1       21 0.11717763E-01 0.19771672E+03</pdfrwt>
<pdfrwt beam="2">  1       21 0.83826575E-01 0.19771672E+03</pdfrwt>
<totfact> 0.75566704E+04</totfact>
</mgrwt>
</event>
<event>
 4    1  0.4333905E+000  0.1923210E+03  0.7546771E-02  0.1156384E+00
         21   -1    0    0  503  502  0.00000000000E+00  0.00000000000E+00  0.54883536578E+02  0.54883536578E+02  0.00000000000E+00 0. -1.
         21   -1    0    0  501  503 -0.00000000000E+00 -0.00000000000E+00 -0.10116722773E+04  0.10116722773E+04  0.00000000000E+00 0.  1.
          6    1    1    2  501    0 -0.22352741210E+01 -0.83984390426E+02 -0.78652136564E+03  0.80969329557E+03  0.17300000000E+03 0.  1.
         -6    1    1    2    0  502  0.22352741210E+01  0.83984390426E+02 -0.17026737504E+03  0.25686251826E+03  0.17300000000E+03 0. -1.
<mgrwt>
<rscale>  2 0.19232102E+03</rscale>
<asrwt>0</asrwt>
<pdfrwt beam="1">  1       21 0.84436207E-02 0.19232102E+03</pdfrwt>
<pdfrwt beam="2">  1       21 0.15564190E+00 0.19232102E+03</pdfrwt>
<totfact> 0.29614768E+04</totfact>
</mgrwt>
</event>
<event>
 4    1  0.4333905E+000  0.1808860E+03  0.7546771E-02  0.1166948E+00
         21   -1    0    0  503  502  0.00000000000E+00  0.00000000000E+00  0.99327158990E+02  0.99327158990E+02  0.00000000000E+00 0. -1.
         21   -1    0    0  501  503 -0.00000000000E+00 -0.00000000000E+00 -0.44467316419E+03  0.44467316419E+03  0.00000000000E+00 0. -1.
          6    1    1    2  501    0 -0.93485176992E+01  0.51993633638E+02 -0.31115295016E+03  0.35991094887E+03  0.17300000000E+03 0. -1.
         -6    1    1    2    0  502  0.93485176992E+01 -0.51993633638E+02 -0.34193055042E+02  0.18408937431E+03  0.17300000000E+03 0. -1.
<mgrwt>
<rscale>  2 0.18088597E+03</rscale>
<asrwt>0</asrwt>
<pdfrwt beam="1">  1       21 0.15281102E-01 0.18088597E+03</pdfrwt>
<pdfrwt beam="2">  1       21 0.68411254E-01 0.18088597E+03</pdfrwt>
<totfact> 0.74279981E+04</totfact>
</mgrwt>
</event>
<event>
 4    1  0.4333905E+000  0.2263959E+03  0.7546771E-02  0.1129203E+00
         21   -1    0    0  501  502  0.00000000000E+00  0.00000000000E+00  0.56764433523E+03  0.56764433523E+03  0.00000000000E+00 0. -1.
         21   -1    0    0  502  503 -0.00000000000E+00 -0.00000000000E+00 -0.41349474191E+03  0.41349474191E+03  0.00000000000E+00 0. -1.
          6    1    1    2  501    0  0.55591408524E+02  0.13503963226E+03  0.51078684314E+03  0.55871129048E+03  0.17300000000E+03 0. -1.
         -6    1    1    2    0  503 -0.55591408524E+02 -0.13503963226E+03 -0.35663724982E+03  0.42242778666E+03  0.17300000000E+03 0. -1.
<mgrwt>
<rscale>  2 0.22639591E+03</rscale>
<asrwt>0</asrwt>
<pdfrwt beam="1">  1       21 0.87329898E-01 0.22639591E+03</pdfrwt>
<pdfrwt beam="2">  1       21 0.63614576E-01 0.22639591E+03</pdfrwt>
<totfact> 0.25010336E+03</totfact>
</mgrwt>
</event>
<event>
 4    1  0.4333905E+000  0.2050924E+03  0.7546771E-02  0.1145512E+00
         21   -1    0    0  501  502  0.00000000000E+00  0.00000000000E+00  0.17260513271E+02  0.17260513271E+02  0.00000000000E+00 0.  1.
         21   -1    0    0  502  503 -0.00000000000E+00 -0.00000000000E+00 -0.28231890958E+04  0.28231890958E+04  0.00000000000E+00 0.  1.
          6    1    1    2  501    0  0.10830340506E+02 -0.10962015042E+03 -0.87764954136E+03  0.90129439758E+03  0.17300000000E+03 0.  1.
         -6    1    1    2    0  503 -0.10830340506E+02  0.10962015042E+03 -0.19282790411E+04  0.19391552115E+04  0.17300000000E+03 0.  1.
<mgrwt>
<rscale>  2 0.20509235E+03</rscale>
<asrwt>0</asrwt>
<pdfrwt beam="1">  1       21 0.26554628E-02 0.20509235E+03</pdfrwt>
<pdfrwt beam="2">  1       21 0.43433691E+00 0.20509235E+03</pdfrwt>
<totfact> 0.40102707E+03</totfact>
</mgrwt>
</event>
<event>
 4    1  0.4333905E+000  0.1949058E+03  0.7546771E-02  0.1154110E+00
         21   -1    0    0  501  502  0.00000000000E+00  0.00000000000E+00  0.12127142554E+03  0.12127142554E+03  0.00000000000E+00 0. -1.
         21   -1    0    0  502  503 -0.00000000000E+00 -0.00000000000E+00 -0.31458729420E+03  0.31458729420E+03  0.00000000000E+00 0.  1.
          6    1    1    2  501    0 -0.53326819294E+02 -0.72218699625E+02 -0.82449802847E+02  0.21162764522E+03  0.17300000000E+03 0.  1.
         -6    1    1    2    0  503  0.53326819294E+02  0.72218699625E+02 -0.11086606582E+03  0.22423107452E+03  0.17300000000E+03 0. -1.
<mgrwt>
<rscale>  2 0.19490585E+03</rscale>
<asrwt>0</asrwt>
<pdfrwt beam="1">  1       21 0.18657142E-01 0.19490585E+03</pdfrwt>
<pdfrwt beam="2">  1       21 0.48398045E-01 0.19490585E+03</pdfrwt>
<totfact> 0.10703301E+05</totfact>
</mgrwt>
</event>
<event>
 4    1  0.4333905E+000  0.1981663E+03  0.7546771E-02  0.1151295E+00
         21   -1    0    0  501  502  0.00000000000E+00  0.00000000000E+00  0.16515257984E+03  0.16515257984E+03  0.00000000000E+00 0.  1.
         21   -1    0    0  502  503 -0.00000000000E+00 -0.00000000000E+00 -0.23927520832E+03  0.23927520832E+03  0.00000000000E+00 0. -1.
          6    1    1    2  501    0  0.80754019785E+02  0.53100538811E+02 -0.53049612148E+02  0.20514419388E+03  0.17300000000E+03 0. -1.
         -6    1    1    2    0  503 -0.80754019785E+02 -0.53100538811E+02 -0.21073016336E+02  0.19928359428E+03  0.17300000000E+03 0.  1.
<mgrwt>
<rscale>  2 0.19816629E+03</rscale>
<asrwt>0</asrwt>
<pdfrwt beam="1">  1       21 0.25408089E-01 0.19816629E+03</pdfrwt>
<pdfrwt beam="2">  1       21 0.36811571E-01 0.19816629E+03</pdfrwt>
<totfact> 0.10428967E+05</totfact>
</mgrwt>
</event>
<event>
 4    1  0.4333905E+000  0.2524231E+03  0.7546771E-02  0.1111783E+00
         21   -1    0    0  503  502  0.00000000000E+00  0.00000000000E+00  0.20852092517E+03  0.20852092517E+03  0.00000000000E+00 0.  1.
         21   -1    0    0  501  503 -0.00000000000E+00 -0.00000000000E+00 -0.52005210586E+03  0.52005210586E+03  0.00000000000E+00 0.  1.
          6    1    1    2  501    0  0.12876966718E+03 -0.13117467754E+03 -0.38971218730E+03  0.46431994588E+03  0.17300000000E+03 0.  1.
         -6    1    1    2    0  502 -0.12876966718E+03  0.13117467754E+03  0.78181006605E+02  0.26425308514E+03  0.17300000000E+03 0.  1.
<mgrwt>
<rscale>  2 0.25242310E+03</rscale>
<asrwt>0</asrwt>
<pdfrwt beam="1">  1       21 0.32080143E-01 0.25242310E+03</pdfrwt>
<pdfrwt beam="2">  1       21 0.80008015E-01 0.25242310E+03</pdfrwt>
<totfact> 0.12398023E+04</totfact>
</mgrwt>
</event>
<event>
 4    1  0.4333905E+000  0.2022281E+03  0.7546771E-02  0.1147873E+00
         21   -1    0    0  503  502  0.00000000000E+00  0.00000000000E+00  0.14716448988E+03  0.14716448988E+03  0.00000000000E+00 0. -1.
         21   -1    0    0  501  503 -0.00000000000E+00 -0.00000000000E+00 -0.34526500486E+03  0.34526500486E+03  0.00000000000E+00 0.  1.
          6    1    1    2  501    0  0.10184779510E+03 -0.24377040305E+02 -0.20781106876E+03  0.28996836683E+03  0.17300000000E+03 0.  1.
         -6    1    1    2    0  502 -0.10184779510E+03  0.24377040305E+02  0.97105537751E+01  0.20246112791E+03  0.17300000000E+03 0. -1.
<mgrwt>
<rscale>  2 0.20222812E+03</rscale>
<asrwt>0</asrwt>
<pdfrwt beam="1">  1       21 0.22640691E-01 0.20222812E+03</pdfrwt>
<pdfrwt beam="2">  1       21 0.53117692E-01 0.20222812E+03</pdfrwt>
<totfact> 0.61109569E+04</totfact>
</mgrwt>
</event>
<event>
 4    1  0.4333905E+000  0.1819504E+03  0.7546771E-02  0.1165929E+00
         21   -1    0    0  503  502  0.00000000000E+00  0.00000000000E+00  0.18859393243E+03  0.18859393243E+03  0.00000000000E+00 0.  1.
         21   -1    0    0  501  503 -0.00000000000E+00 -0.00000000000E+00 -0.26560811368E+03  0.26560811368E+03  0.00000000000E+00 0.  1.
          6    1    1    2  501    0  0.56311836099E+02  0.24367918296E+01 -0.17075281191E+03  0.24952451506E+03  0.17300000000E+03 0.  1.
         -6    1    1    2    0  502 -0.56311836099E+02 -0.24367918296E+01  0.93738630667E+02  0.20467753105E+03  0.17300000000E+03 0.  1.
<mgrwt>
<rscale>  2 0.18195044E+03</rscale>
<asrwt>0</asrwt>
<pdfrwt beam="1">  1       21 0.29014451E-01 0.18195044E+03</pdfrwt>
<pdfrwt beam="2">  1       21 0.40862786E-01 0.18195044E+03</pdfrwt>
<totfact> 0.65905492E+04</totfact>
</mgrwt>
</event>
<event>
 4    1  0.4333905E+000  0.1793134E+03  0.7546771E-02  0.1168469E+00
         21   -1    0    0  501  502  0.00000000000E+00  0.00000000000E+00  0.12015336887E+04  0.12015336887E+04  0.00000000000E+00 0. -1.
         21   -1    0    0  502  503 -0.00000000000E+00 -0.00000000000E+00 -0.30133060590E+02  0.30133060590E+02  0.00000000000E+00 0. -1.
          6    1    1    2  501    0 -0.38055977147E+02 -0.27857280811E+02  0.79173512217E+03  0.81178678800E+03  0.17300000000E+03 0. -1.
         -6    1    1    2    0  503  0.38055977147E+02  0.27857280811E+02  0.37966550590E+03  0.41987996125E+03  0.17300000000E+03 0. -1.
<mgrwt>
<rscale>  2 0.17931337E+03</rscale>
<asrwt>0</asrwt>
<pdfrwt beam="1">  1       21 0.18485130E+00 0.17931337E+03</pdfrwt>
<pdfrwt beam="2">  1       21 0.46358564E-02 0.17931337E+03</pdfrwt>
<totfact> 0.52017382E+04</totfact>
</mgrwt>
</event>
<event>
 4    1  0.4333905E+000  0.2000261E+03  0.7546771E-02  0.1149717E+00
         21   -1    0    0  503  502  0.00000000000E+00  0.00000000000E+00  0.12859350589E+04  0.12859350589E+04  0.00000000000E+00 0.  1.
         21   -1    0    0  501  503 -0.00000000000E+00 -0.00000000000E+00 -0.34200599204E+02  0.34200599204E+02  0.00000000000E+00 0.  1.
          6    1    1    2  501    0  0.33450739043E+02  0.94670475101E+02  0.42756888729E+03  0.47204407016E+03  0.17300000000E+03 0.  1.
         -6    1    1    2    0  502 -0.33450739043E+02 -0.94670475101E+02  0.82416557245E+03  0.84809158799E+03  0.17300000000E+03 0.  1.
<mgrwt>
<rscale>  2 0.20002613E+03</rscale>
<asrwt>0</asrwt>
<pdfrwt beam="1">  1       21 0.19783613E+00 0.20002613E+03</pdfrwt>
<pdfrwt beam="2">  1       21 0.52616316E-02 0.20002613E+03</pdfrwt>
<totfact> 0.34026211E+04</totfact>
</mgrwt>
</event>
<event>
 4    1  0.4333905E+000  0.2360803E+03  0.7546771E-02  0.1122432E+00
         21   -1    0    0  503  502  0.00000000000E+00  0.00000000000E+00  0.34338993832E+03  0.34338993832E+03  0.00000000000E+00 0. -1.
         21   -1    0    0  501  503 -0.00000000000E+00 -0.00000000000E+00 -0.16296948996E+03  0.16296948996E+03  0.00000000000E+00 0. -1.
          6    1    1    2  501    0  0.18260689318E+01  0.16062861129E+03  0.10637753202E+03  0.25894027229E+03  0.17300000000E+03 0. -1.
         -6    1    1    2    0  502 -0.18260689318E+01 -0.16062861129E+03  0.74042916341E+02  0.24741915600E+03  0.17300000000E+03 0. -1.
<mgrwt>
<rscale>  2 0.23608025E+03</rscale>
<asrwt>0</asrwt>
<pdfrwt beam="1">  1       21 0.52829221E-01 0.23608025E+03</pdfrwt>
<pdfrwt beam="2">  1       21 0.25072229E-01 0.23608025E+03</pdfrwt>
<totfact> 0.50141480E+04</totfact>
</mgrwt>
</event>
<event>
 4    1  0.4333905E+000  0.2060752E+03  0.7546771E-02  0.1144712E+00
         21   -1    0    0  503  502  0.00000000000E+00  0.00000000000E+00  0.37510604437E+03  0.37510604437E+03  0.00000000000E+00 0. -1.
         21   -1    0    0  501  503 -0.00000000000E+00 -0.00000000000E+00 -0.11512446619E+03  0.11512446619E+03  0.00000000000E+00 0.  1.
          6    1    1    2  501    0 -0.47851412197E+02  0.10123363664E+03  0.98409372746E+02  0.22836683533E+03  0.17300000000E+03 0. -1.
         -6    1    1    2    0  502  0.47851412197E+02 -0.10123363664E+03  0.16157220543E+03  0.26186367523E+03  0.17300000000E+03 0.  1.
<mgrwt>
<rscale>  2 0.20607525E+03</rscale>
<asrwt>0</asrwt>
<pdfrwt beam="1">  1       21 0.57708622E-01 0.20607525E+03</pdfrwt>
<pdfrwt beam="2">  1       21 0.17711457E-01 0.20607525E+03</pdfrwt>
<totfact> 0.80998599E+04</totfact>
</mgrwt>
</event>
<event>
 4    1  0.4333905E+000  0.1830373E+03  0.7546771E-02  0.1164895E+00
         21   -1    0    0  501  502  0.00000000000E+00  0.00000000000E+00  0.36141878674E+04  0.36141878674E+04  0.00000000000E+00 0.  1.
         21   -1    0    0  502  503 -0.00000000000E+00 -0.00000000000E+00 -0.21469050796E+02  0.21469050796E+02  0.00000000000E+00 0.  1.
          6    1    1    2  501    0  0.16246120490E+02 -0.57530253805E+02  0.31666532541E+04  0.31719387602E+04  0.17300000000E+03 0.  1.
         -6    1    1    2    0  503 -0.16246120490E+02  0.57530253805E+02  0.42606556248E+03  0.46371815801E+03  0.17300000000E+03 0.  1.
<mgrwt>
<rscale>  2 0.18303734E+03</rscale>
<asrwt>0</asrwt>
<pdfrwt beam="1">  1       21 0.55602842E+00 0.18303734E+03</pdfrwt>
<pdfrwt beam="2">  1       21 0.33029338E-02 0.18303734E+03</pdfrwt>
<totfact> 0.40611875E+02</totfact>
</mgrwt>
</event>
<event>
 4    1  0.4333905E+000  0.1807646E+03  0.7546771E-02  0.1167065E+00
         21   -1    0    0  501  502  0.00000000000E+00  0.00000000000E+00  0.13218869117E+03  0.13218869117E+03  0.00000000000E+00 0. -1.
         21   -1    0    0  502  503 -0.00000000000E+00 -0.00000000000E+00 -0.38927916861E+03  0.38927916861E+03  0.00000000000E+00 0.  1.
          6    1    1    2  501    0  0.42617975411E+02 -0.30504872445E+02  0.28978535290E+02  0.18307264836E+03  0.17300000000E+03 0. -1.
         -6    1    1    2    0  503 -0.42617975411E+02  0.30504872445E+02 -0.28606901272E+03  0.33839521142E+03  0.17300000000E+03 0.  1.
<mgrwt>
<rscale>  2 0.18076460E+03</rscale>
<asrwt>0</asrwt>
<pdfrwt beam="1">  1       21 0.20336722E-01 0.18076460E+03</pdfrwt>
<pdfrwt beam="2">  1       21 0.59889103E-01 0.18076460E+03</pdfrwt>
<totfact> 0.58519743E+04</totfact>
</mgrwt>
</event>
<event>
 4    1  0.4333905E+000  0.2080483E+03  0.7546771E-02  0.1143121E+00
         21   -1    0    0  501  502  0.00000000000E+00  0.00000000000E+00  0.27886874130E+03  0.27886874130E+03  0.00000000000E+00 0. -1.
         21   -1    0    0  502  503 -0.00000000000E+00 -0.00000000000E+00 -0.16438235111E+03  0.16438235111E+03  0.00000000000E+00 0. -1.
          6    1    1    2  501    0 -0.48135555431E+01  0.11546389505E+03  0.10958626578E+03  0.23514512758E+03  0.17300000000E+03 0. -1.
         -6    1    1    2    0  503  0.48135555431E+01 -0.11546389505E+03  0.49001244069E+01  0.20810596482E+03  0.17300000000E+03 0. -1.
<mgrwt>
<rscale>  2 0.20804827E+03</rscale>
<asrwt>0</asrwt>
<pdfrwt beam="1">  1       21 0.42902883E-01 0.20804827E+03</pdfrwt>
<pdfrwt beam="2">  1       21 0.25289592E-01 0.20804827E+03</pdfrwt>
<totfact> 0.76903719E+04</totfact>
</mgrwt>
</event>
<event>
 4    1  0.4333905E+000  0.1939536E+03  0.7546771E-02  0.1154943E+00
         21   -1    0    0  503  502  0.00000000000E+00  0.00000000000E+00  0.58581449465E+02  0.58581449465E+02  0.00000000000E+00 0.  1.
         21   -1    0    0  501  503 -0.00000000000E+00 -0.00000000000E+00 -0.18330701412E+04  0.18330701412E+04  0.00000000000E+00 0. -1.
          6    1    1    2  501    0 -0.41373541278E+02 -0.77312614443E+02 -0.16496096849E+04  0.16609726436E+04  0.17300000000E+03 0. -1.
         -6    1    1    2    0  502  0.41373541278E+02  0.77312614443E+02 -0.12487900683E+03  0.23067894706E+03  0.17300000000E+03 0.  1.
<mgrwt>
<rscale>  2 0.19395363E+03</rscale>
<asrwt>0</asrwt>
<pdfrwt beam="1">  1       21 0.90125305E-02 0.19395363E+03</pdfrwt>
<pdfrwt beam="2">  1       21 0.28201080E+00 0.19395363E+03</pdfrwt>
<totfact> 0.42159361E+03</totfact>
</mgrwt>
</event>
<event>
 4    1  0.4333905E+000  0.2417348E+03  0.7546771E-02  0.1118642E+00
         21   -1    0    0  503  502  0.00000000000E+00  0.00000000000E+00  0.28481056880E+03  0.28481056880E+03  0.00000000000E+00 0.  1.
         21   -1    0    0  501  503 -0.00000000000E+00 -0.00000000000E+00 -0.38172868501E+03  0.38172868501E+03  0.00000000000E+00 0. -1.
          6    1    1    2  501    0  0.10802320237E+03  0.12976022892E+03 -0.27511021289E+03  0.36622582991E+03  0.17300000000E+03 0. -1.
         -6    1    1    2    0  502 -0.10802320237E+03 -0.12976022892E+03  0.17819209667E+03  0.30031342390E+03  0.17300000000E+03 0.  1.
<mgrwt>
<rscale>  2 0.24173483E+03</rscale>
<asrwt>0</asrwt>
<pdfrwt beam="1">  1       21 0.43817011E-01 0.24173483E+03</pdfrwt>
<pdfrwt beam="2">  1       21 0.58727489E-01 0.24173483E+03</pdfrwt>
<totfact> 0.13181726E+04</totfact>
</mgrwt>
</event>
<event>
 4    1  0.4333905E+000  0.2720016E+03  0.7546771E-02  0.1100139E+00
         21   -1    0    0  501  502  0.00000000000E+00  0.00000000000E+00  0.11875080952E+03  0.11875080952E+03  0.00000000000E+00 0.  1.
         21   -1    0    0  502  503 -0.00000000000E+00 -0.00000000000E+00 -0.76747277400E+03  0.76747277400E+03  0.00000000000E+00 0.  1.
          6    1    1    2  501    0  0.14327735619E+03  0.15338670906E+03 -0.13212476277E+03  0.30239351225E+03  0.17300000000E+03 0.  1.
         -6    1    1    2    0  503 -0.14327735619E+03 -0.15338670906E+03 -0.51659720170E+03  0.58383007127E+03  0.17300000000E+03 0.  1.
<mgrwt>
<rscale>  2 0.27200162E+03</rscale>
<asrwt>0</asrwt>
<pdfrwt beam="1">  1       21 0.18269355E-01 0.27200162E+03</pdfrwt>
<pdfrwt beam="2">  1       21 0.11807273E+00 0.27200162E+03</pdfrwt>
<totfact> 0.14332905E+04</totfact>
</mgrwt>
</event>
<event>
 4    1  0.4333905E+000  0.3357836E+03  0.7546771E-02  0.1068606E+00
         21   -1    0    0  503  502  0.00000000000E+00  0.00000000000E+00  0.29593165870E+03  0.29593165870E+03  0.00000000000E+00 0. -1.
         21   -1    0    0  501  503 -0.00000000000E+00 -0.00000000000E+00 -0.55813252008E+03  0.55813252008E+03  0.00000000000E+00 0.  1.
          6    1    1    2  501    0  0.22085702804E+03 -0.18450960967E+03 -0.37166865371E+03  0.50088742352E+03  0.17300000000E+03 0.  1.
         -6    1    1    2    0  502 -0.22085702804E+03  0.18450960967E+03  0.10946779233E+03  0.35317675525E+03  0.17300000000E+03 0.  1.
<mgrwt>
<rscale>  2 0.33578360E+03</rscale>
<asrwt>0</asrwt>
<pdfrwt beam="1">  1       21 0.45527948E-01 0.33578360E+03</pdfrwt>
<pdfrwt beam="2">  1       21 0.85866541E-01 0.33578360E+03</pdfrwt>
<totfact> 0.49725865E+03</totfact>
</mgrwt>
</event>
<event>
 4    1  0.4333905E+000  0.1791374E+03  0.7546771E-02  0.1168640E+00
         21   -1    0    0  503  502  0.00000000000E+00  0.00000000000E+00  0.10437281283E+03  0.10437281283E+03  0.00000000000E+00 0. -1.
         21   -1    0    0  501  503 -0.00000000000E+00 -0.00000000000E+00 -0.37990393984E+03  0.37990393984E+03  0.00000000000E+00 0. -1.
          6    1    1    2  501    0  0.44202956546E+02  0.14398135588E+02 -0.24350455127E+03  0.30229898142E+03  0.17300000000E+03 0. -1.
         -6    1    1    2    0  502 -0.44202956546E+02 -0.14398135588E+02 -0.32026575743E+02  0.18197777125E+03  0.17300000000E+03 0. -1.
<mgrwt>
<rscale>  2 0.17913740E+03</rscale>
<asrwt>0</asrwt>
<pdfrwt beam="1">  1       21 0.16057356E-01 0.17913740E+03</pdfrwt>
<pdfrwt beam="2">  1       21 0.58446760E-01 0.17913740E+03</pdfrwt>
<totfact> 0.95449376E+04</totfact>
</mgrwt>
</event>
<event>
 4    1  0.4333905E+000  0.1766618E+03  0.7546771E-02  0.1171073E+00
         21   -1    0    0  503  502  0.00000000000E+00  0.00000000000E+00  0.12419769583E+03  0.12419769583E+03  0.00000000000E+00 0.  1.
         21   -1    0    0  501  503 -0.00000000000E+00 -0.00000000000E+00 -0.27855444934E+03  0.27855444934E+03  0.00000000000E+00 0.  1.
          6    1    1    2  501    0 -0.31343401820E+02  0.17261774570E+02 -0.14174403705E+02  0.17722948801E+03  0.17300000000E+03 0.  1.
         -6    1    1    2    0  502  0.31343401820E+02 -0.17261774570E+02 -0.14018234980E+03  0.22552265716E+03  0.17300000000E+03 0.  1.
<mgrwt>
<rscale>  2 0.17666176E+03</rscale>
<asrwt>0</asrwt>
<pdfrwt beam="1">  1       21 0.19107338E-01 0.17666176E+03</pdfrwt>
<pdfrwt beam="2">  1       21 0.42854531E-01 0.17666176E+03</pdfrwt>
<totfact> 0.13234373E+05</totfact>
</mgrwt>
</event>
<event>
 4    1  0.4333905E+000  0.1826341E+03  0.7546771E-02  0.1165278E+00
         21   -1    0    0  503  502  0.00000000000E+00  0.00000000000E+00  0.82348403768E+02  0.82348403768E+02  0.00000000000E+00 0.  1.
         21   -1    0    0  501  503 -0.00000000000E+00 -0.00000000000E+00 -0.41560030664E+03  0.41560030664E+03  0.00000000000E+00 0. -1.
          6    1    1    2  501    0 -0.16569795877E+02  0.56139603681E+02 -0.20629494249E+03  0.27552280583E+03  0.17300000000E+03 0. -1.
         -6    1    1    2    0  502  0.16569795877E+02 -0.56139603681E+02 -0.12695696038E+03  0.22242590458E+03  0.17300000000E+03 0. -1.
<mgrwt>
<rscale>  2 0.18263410E+03</rscale>
<asrwt>0</asrwt>
<pdfrwt beam="1">  1       21 0.12668985E-01 0.18263410E+03</pdfrwt>
<pdfrwt beam="2">  1       21 0.63938509E-01 0.18263410E+03</pdfrwt>
<totfact> 0.12070615E+05</totfact>
</mgrwt>
</event>
<event>
 4    1  0.4333905E+000  0.1829585E+03  0.7546771E-02  0.1164970E+00
         21   -1    0    0  501  502  0.00000000000E+00  0.00000000000E+00  0.16747760552E+03  0.16747760552E+03  0.00000000000E+00 0.  1.
         21   -1    0    0  502  503 -0.00000000000E+00 -0.00000000000E+00 -0.19987362060E+03  0.19987362060E+03  0.00000000000E+00 0.  1.
          6    1    1    2  501    0 -0.54695731686E+02 -0.23519819841E+02 -0.16942795129E+02  0.18374129448E+03  0.17300000000E+03 0.  1.
         -6    1    1    2    0  503  0.54695731686E+02  0.23519819841E+02 -0.15453219961E+02  0.18360993164E+03  0.17300000000E+03 0.  1.
<mgrwt>
<rscale>  2 0.18295848E+03</rscale>
<asrwt>0</asrwt>
<pdfrwt beam="1">  1       21 0.25765786E-01 0.18295848E+03</pdfrwt>
<pdfrwt beam="2">  1       21 0.30749788E-01 0.18295848E+03</pdfrwt>
<totfact> 0.14564788E+05</totfact>
</mgrwt>
</event>
<event>
 4    1  0.4333905E+000  0.2246531E+03  0.7546771E-02  0.1130461E+00
         21   -1    0    0  501  502  0.00000000000E+00  0.00000000000E+00  0.56134502860E+03  0.56134502860E+03  0.00000000000E+00 0. -1.
         21   -1    0    0  502  503 -0.00000000000E+00 -0.00000000000E+00 -0.15001702789E+03  0.15001702789E+03  0.00000000000E+00 0.  1.
          6    1    1    2  501    0 -0.14323778454E+03  0.47910611121E+01  0.43080925352E+03  0.48586585608E+03  0.17300000000E+03 0. -1.
         -6    1    1    2    0  503  0.14323778454E+03 -0.47910611121E+01 -0.19481252810E+02  0.22549620040E+03  0.17300000000E+03 0.  1.
<mgrwt>
<rscale>  2 0.22465310E+03</rscale>
<asrwt>0</asrwt>
<pdfrwt beam="1">  1       21 0.86360773E-01 0.22465310E+03</pdfrwt>
<pdfrwt beam="2">  1       21 0.23079543E-01 0.22465310E+03</pdfrwt>
<totfact> 0.19993749E+04</totfact>
</mgrwt>
</event>
<event>
 4    1  0.4333905E+000  0.2046967E+03  0.7546771E-02  0.1145836E+00
         21   -1    0    0  501  502  0.00000000000E+00  0.00000000000E+00  0.13345134790E+04  0.13345134790E+04  0.00000000000E+00 0.  1.
         21   -1    0    0  502  503 -0.00000000000E+00 -0.00000000000E+00 -0.54318976378E+02  0.54318976378E+02  0.00000000000E+00 0.  1.
          6    1    1    2  501    0 -0.10084722062E+03  0.42445137927E+02  0.10911868128E+04  0.11102204340E+04  0.17300000000E+03 0.  1.
         -6    1    1    2    0  503  0.10084722062E+03 -0.42445137927E+02  0.18900768979E+03  0.27861202135E+03  0.17300000000E+03 0.  1.
<mgrwt>
<rscale>  2 0.20469673E+03</rscale>
<asrwt>0</asrwt>
<pdfrwt beam="1">  1       21 0.20530974E+00 0.20469673E+03</pdfrwt>
<pdfrwt beam="2">  1       21 0.83567666E-02 0.20469673E+03</pdfrwt>
<totfact> 0.13679376E+04</totfact>
</mgrwt>
</event>
<event>
 4    1  0.4333905E+000  0.2178279E+03  0.7546771E-02  0.1135513E+00
         21   -1    0    0  501  502  0.00000000000E+00  0.00000000000E+00  0.23250317915E+03  0.23250317915E+03  0.00000000000E+00 0.  1.
         21   -1    0    0  502  503 -0.00000000000E+00 -0.00000000000E+00 -0.21680506181E+03  0.21680506181E+03  0.00000000000E+00 0. -1.
          6    1    1    2  501    0  0.65894387953E+02 -0.11479519545E+03  0.62277682922E+02  0.22655577029E+03  0.17300000000E+03 0. -1.
         -6    1    1    2    0  503 -0.65894387953E+02  0.11479519545E+03 -0.46579565588E+02  0.22275247067E+03  0.17300000000E+03 0. -1.
<mgrwt>
<rscale>  2 0.21782793E+03</rscale>
<asrwt>0</asrwt>
<pdfrwt beam="1">  1       21 0.35769720E-01 0.21782793E+03</pdfrwt>
<pdfrwt beam="2">  1       21 0.33354625E-01 0.21782793E+03</pdfrwt>
<totfact> 0.64509854E+04</totfact>
</mgrwt>
</event>
<event>
 4    1  0.4333905E+000  0.1791015E+03  0.7546771E-02  0.1168675E+00
         21   -1    0    0  503  502  0.00000000000E+00  0.00000000000E+00  0.54135792658E+03  0.54135792658E+03  0.00000000000E+00 0. -1.
         21   -1    0    0  501  503 -0.00000000000E+00 -0.00000000000E+00 -0.71476723213E+02  0.71476723213E+02  0.00000000000E+00 0. -1.
          6    1    1    2  501    0 -0.45113878235E+02  0.10634140067E+02  0.10822676712E+03  0.20926151119E+03  0.17300000000E+03 0.  1.
         -6    1    1    2    0  502  0.45113878235E+02 -0.10634140067E+02  0.36165443624E+03  0.40357313860E+03  0.17300000000E+03 0.  1.
<mgrwt>
<rscale>  2 0.17910150E+03</rscale>
<asrwt>0</asrwt>
<pdfrwt beam="1">  1       21 0.83285832E-01 0.17910150E+03</pdfrwt>
<pdfrwt beam="2">  1       21 0.10996419E-01 0.17910150E+03</pdfrwt>
<totfact> 0.86566180E+04</totfact>
</mgrwt>
</event>
<event>
 4    1  0.4333905E+000  0.2228377E+03  0.7546771E-02  0.1131785E+00
         21   -1    0    0  501  502  0.00000000000E+00  0.00000000000E+00  0.58219211174E+02  0.58219211174E+02  0.00000000000E+00 0. -1.
         21   -1    0    0  502  503 -0.00000000000E+00 -0.00000000000E+00 -0.87435079009E+03  0.87435079009E+03  0.00000000000E+00 0.  1.
          6    1    1    2  501    0 -0.74397555523E+02  0.11913279895E+03 -0.33507347647E+03  0.40240633033E+03  0.17300000000E+03 0. -1.
         -6    1    1    2    0  503  0.74397555523E+02 -0.11913279895E+03 -0.48105810245E+03  0.53016367094E+03  0.17300000000E+03 0. -1.
<mgrwt>
<rscale>  2 0.22283765E+03</rscale>
<asrwt>0</asrwt>
<pdfrwt beam="1">  1       21 0.89568030E-02 0.22283765E+03</pdfrwt>
<pdfrwt beam="2">  1       21 0.13451549E+00 0.22283765E+03</pdfrwt>
<totfact> 0.38401762E+04</totfact>
</mgrwt>
</event>
<event>
 4    1  0.4333905E+000  0.1777881E+03  0.7546771E-02  0.1169961E+00
         21   -1    0    0  501  502  0.00000000000E+00  0.00000000000E+00  0.10007596388E+04  0.10007596388E+04  0.00000000000E+00 0. -1.
         21   -1    0    0  502  503 -0.00000000000E+00 -0.00000000000E+00 -0.32845245136E+02  0.32845245136E+02  0.00000000000E+00 0. -1.
          6    1    1    2  501    0  0.38502559307E+02 -0.14040839221E+02  0.58520482099E+03  0.61161529963E+03  0.17300000000E+03 0. -1.
         -6    1    1    2    0  503 -0.38502559307E+02  0.14040839221E+02  0.38270957266E+03  0.42198958428E+03  0.17300000000E+03 0. -1.
<mgrwt>
<rscale>  2 0.17778805E+03</rscale>
<asrwt>0</asrwt>
<pdfrwt beam="1">  1       21 0.15396300E+00 0.17778805E+03</pdfrwt>
<pdfrwt beam="2">  1       21 0.50531154E-02 0.17778805E+03</pdfrwt>
<totfact> 0.74290530E+04</totfact>
</mgrwt>
</event>
<event>
 4    1  0.4333905E+000  0.2315501E+03  0.7546771E-02  0.1125553E+00
         21   -1    0    0  503  502  0.00000000000E+00  0.00000000000E+00  0.24584083399E+03  0.24584083399E+03  0.00000000000E+00 0.  1.
         21   -1    0    0  501  503 -0.00000000000E+00 -0.00000000000E+00 -0.26803059550E+03  0.26803059550E+03  0.00000000000E+00 0. -1.
          6    1    1    2  501    0  0.15089432714E+03 -0.30287907070E+02 -0.12200180408E+03  0.26172484688E+03  0.17300000000E+03 0. -1.
         -6    1    1    2    0  502 -0.15089432714E+03  0.30287907070E+02  0.99812042575E+02  0.25214658261E+03  0.17300000000E+03 0.  1.
<mgrwt>
<rscale>  2 0.23155011E+03</rscale>
<asrwt>0</asrwt>
<pdfrwt beam="1">  1       21 0.37821666E-01 0.23155011E+03</pdfrwt>
<pdfrwt beam="2">  1       21 0.41235477E-01 0.23155011E+03</pdfrwt>
<totfact> 0.37455943E+04</totfact>
</mgrwt>
</event>
<event>
 4    1  0.4333905E+000  0.1733974E+03  0.7546771E-02  0.1174350E+00
         21   -1    0    0  503  502  0.00000000000E+00  0.00000000000E+00  0.10164996860E+03  0.10164996860E+03  0.00000000000E+00 0. -1.
         21   -1    0    0  501  503 -0.00000000000E+00 -0.00000000000E+00 -0.59664733136E+03  0.59664733136E+03  0.00000000000E+00 0. -1.
          6    1    1    2  501    0  0.50682711313E+01 -0.10582008416E+02 -0.49543177470E+03  0.52489933288E+03  0.17300000000E+03 0. -1.
         -6    1    1    2    0  502 -0.50682711313E+01  0.10582008416E+02  0.43441193293E+00  0.17339796708E+03  0.17300000000E+03 0. -1.
<mgrwt>
<rscale>  2 0.17339742E+03</rscale>
<asrwt>0</asrwt>
<pdfrwt beam="1">  1       21 0.15638457E-01 0.17339742E+03</pdfrwt>
<pdfrwt beam="2">  1       21 0.91791896E-01 0.17339742E+03</pdfrwt>
<totfact> 0.36869787E+04</totfact>
</mgrwt>
</event>
<event>
 4    1  0.4333905E+000  0.2705490E+03  0.7546771E-02  0.1100966E+00
         21   -1    0    0  503  502  0.00000000000E+00  0.00000000000E+00  0.12697315075E+04  0.12697315075E+04  0.00000000000E+00 0. -1.
         21   -1    0    0  501  503 -0.00000000000E+00 -0.00000000000E+00 -0.78879710751E+02  0.78879710751E+02  0.00000000000E+00 0.  1.
          6    1    1    2  501    0 -0.44698287960E+01  0.20796100041E+03  0.24558349261E+03  0.36538747776E+03  0.17300000000E+03 0.  1.
         -6    1    1    2    0  502  0.44698287960E+01 -0.20796100041E+03  0.94526830409E+03  0.98322374045E+03  0.17300000000E+03 0. -1.
<mgrwt>
<rscale>  2 0.27054899E+03</rscale>
<asrwt>0</asrwt>
<pdfrwt beam="1">  1       21 0.19534329E+00 0.27054899E+03</pdfrwt>
<pdfrwt beam="2">  1       21 0.12135341E-01 0.27054899E+03</pdfrwt>
<totfact> 0.78120209E+03</totfact>
</mgrwt>
</event>
<event>
 4    1  0.4333905E+000  0.2206818E+03  0.7546771E-02  0.1133376E+00
         21   -1    0    0  501  502  0.00000000000E+00  0.00000000000E+00  0.15807868353E+03  0.15807868353E+03  0.00000000000E+00 0.  1.
         21   -1    0    0  502  503 -0.00000000000E+00 -0.00000000000E+00 -0.57622977898E+03  0.57622977898E+03  0.00000000000E+00 0. -1.
          6    1    1    2  501    0 -0.83835399417E+02  0.10836544257E+03  0.41386340940E+02  0.22452900159E+03  0.17300000000E+03 0.  1.
         -6    1    1    2    0  503  0.83835399417E+02 -0.10836544257E+03 -0.45953743639E+03  0.50977946092E+03  0.17300000000E+03 0. -1.
<mgrwt>
<rscale>  2 0.22068177E+03</rscale>
<asrwt>0</asrwt>
<pdfrwt beam="1">  1       21 0.24319798E-01 0.22068177E+03</pdfrwt>
<pdfrwt beam="2">  1       21 0.88650735E-01 0.22068177E+03</pdfrwt>
<totfact> 0.17072387E+04</totfact>
</mgrwt>
</event>
<event>
 4    1  0.4333905E+000  0.1749944E+03  0.7546771E-02  0.1172737E+00
         21   -1    0    0  503  502  0.00000000000E+00  0.00000000000E+00  0.81322611966E+03  0.81322611966E+03  0.00000000000E+00 0. -1.
         21   -1    0    0  501  503 -0.00000000000E+00 -0.00000000000E+00 -0.79736482729E+02  0.79736482729E+02  0.00000000000E+00 0. -1.
          6    1    1    2  501    0  0.26257753674E+02 -0.21357096217E+01  0.42394819544E+02  0.18005652337E+03  0.17300000000E+03 0. -1.
         -6    1    1    2    0  502 -0.26257753674E+02  0.21357096217E+01  0.69109481739E+03  0.71290607902E+03  0.17300000000E+03 0. -1.
<mgrwt>
<rscale>  2 0.17499437E+03</rscale>
<asrwt>0</asrwt>
<pdfrwt beam="1">  1       21 0.12511171E+00 0.17499437E+03</pdfrwt>
<pdfrwt beam="2">  1       21 0.12267152E-01 0.17499437E+03</pdfrwt>
<totfact> 0.27141771E+04</totfact>
</mgrwt>
</event>
<event>
 4    1  0.4333905E+000  0.1906653E+03  0.7546771E-02  0.1157863E+00
         21   -1    0    0  501  502  0.00000000000E+00  0.00000000000E+00  0.14417546411E+03  0.14417546411E+03  0.00000000000E+00 0.  1.
         21   -1    0    0  502  503 -0.00000000000E+00 -0.00000000000E+00 -0.74616243556E+03  0.74616243556E+03  0.00000000000E+00 0. -1.
          6    1    1    2  501    0 -0.18948133073E+02 -0.77879484192E+02  0.61231944231E+02  0.20025632774E+03  0.17300000000E+03 0.  1.
         -6    1    1    2    0  503  0.18948133073E+02  0.77879484192E+02 -0.66321891568E+03  0.69008157193E+03  0.17300000000E+03 0. -1.
<mgrwt>
<rscale>  2 0.19066527E+03</rscale>
<asrwt>0</asrwt>
<pdfrwt beam="1">  1       21 0.22180841E-01 0.19066527E+03</pdfrwt>
<pdfrwt beam="2">  1       21 0.11479422E+00 0.19066527E+03</pdfrwt>
<totfact> 0.11207981E+04</totfact>
</mgrwt>
</event>
<event>
 4    1  0.4333905E+000  0.1918951E+03  0.7546771E-02  0.1156763E+00
         21   -1    0    0  503  502  0.00000000000E+00  0.00000000000E+00  0.42550626242E+03  0.42550626242E+03  0.00000000000E+00 0. -1.
         21   -1    0    0  501  503 -0.00000000000E+00 -0.00000000000E+00 -0.89141923322E+02  0.89141923322E+02  0.00000000000E+00 0. -1.
          6    1    1    2  501    0 -0.38494795468E+02 -0.73572317031E+02  0.12422763506E+03  0.22859623887E+03  0.17300000000E+03 0. -1.
         -6    1    1    2    0  502  0.38494795468E+02  0.73572317031E+02  0.21213670404E+03  0.28605194688E+03  0.17300000000E+03 0. -1.
<mgrwt>
<rscale>  2 0.19189511E+03</rscale>
<asrwt>0</asrwt>
<pdfrwt beam="1">  1       21 0.65462501E-01 0.19189511E+03</pdfrwt>
<pdfrwt beam="2">  1       21 0.13714142E-01 0.19189511E+03</pdfrwt>
<totfact> 0.99087731E+04</totfact>
</mgrwt>
</event>
<event>
 4    1  0.4333905E+000  0.2194114E+03  0.7546771E-02  0.1134323E+00
         21   -1    0    0  501  502  0.00000000000E+00  0.00000000000E+00  0.86361846979E+02  0.86361846979E+02  0.00000000000E+00 0. -1.
         21   -1    0    0  502  503 -0.00000000000E+00 -0.00000000000E+00 -0.64497639809E+03  0.64497639809E+03  0.00000000000E+00 0. -1.
          6    1    1    2  501    0  0.77721009169E+02  0.11032589476E+03 -0.14459221140E+03  0.26277036727E+03  0.17300000000E+03 0. -1.
         -6    1    1    2    0  503 -0.77721009169E+02 -0.11032589476E+03 -0.41402233971E+03  0.46856787779E+03  0.17300000000E+03 0. -1.
<mgrwt>
<rscale>  2 0.21941139E+03</rscale>
<asrwt>0</asrwt>
<pdfrwt beam="1">  1       21 0.13286437E-01 0.21941139E+03</pdfrwt>
<pdfrwt beam="2">  1       21 0.99227142E-01 0.21941139E+03</pdfrwt>
<totfact> 0.40299084E+04</totfact>
</mgrwt>
</event>
<event>
 4    1  0.4333905E+000  0.2057198E+03  0.7546771E-02  0.1145001E+00
         21   -1    0    0  503  502  0.00000000000E+00  0.00000000000E+00  0.31577839772E+03  0.31577839772E+03  0.00000000000E+00 0. -1.
         21   -1    0    0  501  503 -0.00000000000E+00 -0.00000000000E+00 -0.16040925093E+03  0.16040925093E+03  0.00000000000E+00 0.  1.
          6    1    1    2  501    0 -0.96880877480E+02 -0.54824555492E+02 -0.18886387867E+02  0.20658492673E+03  0.17300000000E+03 0.  1.
         -6    1    1    2    0  502  0.96880877480E+02  0.54824555492E+02  0.17425553466E+03  0.26960272192E+03  0.17300000000E+03 0. -1.
<mgrwt>
<rscale>  2 0.20571980E+03</rscale>
<asrwt>0</asrwt>
<pdfrwt beam="1">  1       21 0.48581292E-01 0.20571980E+03</pdfrwt>
<pdfrwt beam="2">  1       21 0.24678347E-01 0.20571980E+03</pdfrwt>
<totfact> 0.62433901E+04</totfact>
</mgrwt>
</event>
<event>
 4    1  0.4333905E+000  0.2163960E+03  0.7546771E-02  0.1136599E+00
         21   -1    0    0  501  502  0.00000000000E+00  0.00000000000E+00  0.13800170843E+03  0.13800170843E+03  0.00000000000E+00 0.  1.
         21   -1    0    0  502  503 -0.00000000000E+00 -0.00000000000E+00 -0.33970953287E+03  0.33970953287E+03  0.00000000000E+00 0.  1.
          6    1    1    2  501    0  0.10858117845E+03 -0.71472756849E+02 -0.10890538060E+03  0.24225525631E+03  0.17300000000E+03 0.  1.
         -6    1    1    2    0  503 -0.10858117845E+03  0.71472756849E+02 -0.92802443840E+02  0.23545598499E+03  0.17300000000E+03 0.  1.
<mgrwt>
<rscale>  2 0.21639600E+03</rscale>
<asrwt>0</asrwt>
<pdfrwt beam="1">  1       21 0.21231032E-01 0.21639600E+03</pdfrwt>
<pdfrwt beam="2">  1       21 0.52263005E-01 0.21639600E+03</pdfrwt>
<totfact> 0.70948608E+04</totfact>
</mgrwt>
</event>
<event>
 4    1  0.4333905E+000  0.2239440E+03  0.7546771E-02  0.1130976E+00
         21   -1    0    0  503  502  0.00000000000E+00  0.00000000000E+00  0.19360638519E+03  0.19360638519E+03  0.00000000000E+00 0.  1.
         21   -1    0    0  501  503 -0.00000000000E+00 -0.00000000000E+00 -0.27098459045E+03  0.27098459045E+03  0.00000000000E+00 0.  1.
          6    1    1    2  501    0  0.12653582113E+03  0.64888974222E+02 -0.87468796654E+02  0.24041980657E+03  0.17300000000E+03 0.  1.
         -6    1    1    2    0  502 -0.12653582113E+03 -0.64888974222E+02  0.10090591400E+02  0.22417116906E+03  0.17300000000E+03 0.  1.
<mgrwt>
<rscale>  2 0.22394395E+03</rscale>
<asrwt>0</asrwt>
<pdfrwt beam="1">  1       21 0.29785598E-01 0.22394395E+03</pdfrwt>
<pdfrwt beam="2">  1       21 0.41689937E-01 0.22394395E+03</pdfrwt>
<totfact> 0.59018794E+04</totfact>
</mgrwt>
</event>
<event>
 4    1  0.4333905E+000  0.2240249E+03  0.7546771E-02  0.1130917E+00
         21   -1    0    0  503  502  0.00000000000E+00  0.00000000000E+00  0.91339490551E+02  0.91339490551E+02  0.00000000000E+00 0.  1.
         21   -1    0    0  501  503 -0.00000000000E+00 -0.00000000000E+00 -0.10281171118E+04  0.10281171118E+04  0.00000000000E+00 0.  1.
          6    1    1    2  501    0 -0.14036967735E+03  0.23548047741E+02 -0.85030618918E+03  0.87932233694E+03  0.17300000000E+03 0.  1.
         -6    1    1    2    0  502  0.14036967735E+03 -0.23548047741E+02 -0.86471432090E+02  0.24013426544E+03  0.17300000000E+03 0.  1.
<mgrwt>
<rscale>  2 0.22402490E+03</rscale>
<asrwt>0</asrwt>
<pdfrwt beam="1">  1       21 0.14052231E-01 0.22402490E+03</pdfrwt>
<pdfrwt beam="2">  1       21 0.15817184E+00 0.22402490E+03</pdfrwt>
<totfact> 0.11208241E+04</totfact>
</mgrwt>
</event>
<event>
 4    1  0.4333905E+000  0.1865120E+03  0.7546771E-02  0.1161645E+00
         21   -1    0    0  501  502  0.00000000000E+00  0.00000000000E+00  0.57910092001E+02  0.57910092001E+02  0.00000000000E+00 0.  1.
         21   -1    0    0  502  503 -0.00000000000E+00 -0.00000000000E+00 -0.11313433978E+04  0.11313433978E+04  0.00000000000E+00 0. -1.
          6    1    1    2  501    0 -0.14425949958E+02  0.68188001262E+02 -0.12947915998E+03  0.22704969592E+03  0.17300000000E+03 0.  1.
         -6    1    1    2    0  503  0.14425949958E+02 -0.68188001262E+02 -0.94395414579E+03  0.96220379385E+03  0.17300000000E+03 0. -1.
<mgrwt>
<rscale>  2 0.18651196E+03</rscale>
<asrwt>0</asrwt>
<pdfrwt beam="1">  1       21 0.89092445E-02 0.18651196E+03</pdfrwt>
<pdfrwt beam="2">  1       21 0.17405284E+00 0.18651196E+03</pdfrwt>
<totfact> 0.19966592E+04</totfact>
</mgrwt>
</event>
<event>
 4    1  0.4333905E+000  0.2137617E+03  0.7546771E-02  0.1138621E+00
         21   -1    0    0  503  502  0.00000000000E+00  0.00000000000E+00  0.60852238946E+03  0.60852238946E+03  0.00000000000E+00 0. -1.
         21   -1    0    0  501  503 -0.00000000000E+00 -0.00000000000E+00 -0.20854938982E+03  0.20854938982E+03  0.00000000000E+00 0. -1.
          6    1    1    2  501    0  0.13176025731E+02  0.12486577726E+03 -0.12682700154E+03  0.24855413556E+03  0.17300000000E+03 0. -1.
         -6    1    1    2    0  502 -0.13176025731E+02 -0.12486577726E+03  0.52680000118E+03  0.56851764373E+03  0.17300000000E+03 0. -1.
<mgrwt>
<rscale>  2 0.21376171E+03</rscale>
<asrwt>0</asrwt>
<pdfrwt beam="1">  1       21 0.93618828E-01 0.21376171E+03</pdfrwt>
<pdfrwt beam="2">  1       21 0.32084522E-01 0.21376171E+03</pdfrwt>
<totfact> 0.88252162E+03</totfact>
</mgrwt>
</event>
<event>
 4    1  0.4333905E+000  0.2214542E+03  0.7546771E-02  0.1132803E+00
         21   -1    0    0  501  502  0.00000000000E+00  0.00000000000E+00  0.60223411589E+03  0.60223411589E+03  0.00000000000E+00 0. -1.
         21   -1    0    0  502  503 -0.00000000000E+00 -0.00000000000E+00 -0.25053745575E+03  0.25053745575E+03  0.00000000000E+00 0. -1.
          6    1    1    2  501    0  0.61326084393E+02  0.12390355489E+03  0.52615094730E+03  0.57085619808E+03  0.17300000000E+03 0. -1.
         -6    1    1    2    0  503 -0.61326084393E+02 -0.12390355489E+03 -0.17445428715E+03  0.28191537356E+03  0.17300000000E+03 0. -1.
<mgrwt>
<rscale>  2 0.22145424E+03</rscale>
<asrwt>0</asrwt>
<pdfrwt beam="1">  1       21 0.92651402E-01 0.22145424E+03</pdfrwt>
<pdfrwt beam="2">  1       21 0.38544224E-01 0.22145424E+03</pdfrwt>
<totfact> 0.62416839E+03</totfact>
</mgrwt>
</event>
<event>
 4    1  0.4333905E+000  0.1940109E+03  0.7546771E-02  0.1154893E+00
         21   -1    0    0  503  502  0.00000000000E+00  0.00000000000E+00  0.94349775141E+03  0.94349775141E+03  0.00000000000E+00 0. -1.
         21   -1    0    0  501  503 -0.00000000000E+00 -0.00000000000E+00 -0.39914146730E+02  0.39914146730E+02  0.00000000000E+00 0. -1.
          6    1    1    2  501    0 -0.43454504734E+02  0.76308246804E+02  0.46273861441E+03  0.50176415553E+03  0.17300000000E+03 0. -1.
         -6    1    1    2    0  502  0.43454504734E+02 -0.76308246804E+02  0.44084499027E+03  0.48164774261E+03  0.17300000000E+03 0. -1.
<mgrwt>
<rscale>  2 0.19401093E+03</rscale>
<asrwt>0</asrwt>
<pdfrwt beam="1">  1       21 0.14515348E+00 0.19401093E+03</pdfrwt>
<pdfrwt beam="2">  1       21 0.61406386E-02 0.19401093E+03</pdfrwt>
<totfact> 0.61692704E+04</totfact>
</mgrwt>
</event>
<event>
 4    1  0.4333905E+000  0.2266139E+03  0.7546771E-02  0.1129046E+00
         21   -1    0    0  503  502  0.00000000000E+00  0.00000000000E+00  0.15652285870E+03  0.15652285870E+03  0.00000000000E+00 0. -1.
         21   -1    0    0  501  503 -0.00000000000E+00 -0.00000000000E+00 -0.42809870995E+03  0.42809870995E+03  0.00000000000E+00 0. -1.
          6    1    1    2  501    0  0.83622107852E+02  0.12013411179E+03 -0.27707028807E+03  0.35794106536E+03  0.17300000000E+03 0.  1.
         -6    1    1    2    0  502 -0.83622107852E+02 -0.12013411179E+03  0.54944368251E+01  0.22668050329E+03  0.17300000000E+03 0.  1.
<mgrwt>
<rscale>  2 0.22661390E+03</rscale>
<asrwt>0</asrwt>
<pdfrwt beam="1">  1       21 0.24080440E-01 0.22661390E+03</pdfrwt>
<pdfrwt beam="2">  1       21 0.65861339E-01 0.22661390E+03</pdfrwt>
<totfact> 0.33853870E+04</totfact>
</mgrwt>
</event>
<event>
 4    1  0.4333905E+000  0.1763958E+03  0.7546771E-02  0.1171338E+00
         21   -1    0    0  501  502  0.00000000000E+00  0.00000000000E+00  0.36543387788E+02  0.36543387788E+02  0.00000000000E+00 0. -1.
         21   -1    0    0  502  503 -0.00000000000E+00 -0.00000000000E+00 -0.11391467713E+04  0.11391467713E+04  0.00000000000E+00 0. -1.
          6    1    1    2  501    0 -0.34385594328E+02 -0.20250860260E+01 -0.25588971807E+03  0.31079739041E+03  0.17300000000E+03 0. -1.
         -6    1    1    2    0  503  0.34385594328E+02  0.20250860260E+01 -0.84671366548E+03  0.86489276872E+03  0.17300000000E+03 0. -1.
<mgrwt>
<rscale>  2 0.17639578E+03</rscale>
<asrwt>0</asrwt>
<pdfrwt beam="1">  1       21 0.56220602E-02 0.17639578E+03</pdfrwt>
<pdfrwt beam="2">  1       21 0.17525333E+00 0.17639578E+03</pdfrwt>
<totfact> 0.43663860E+04</totfact>
</mgrwt>
</event>
<event>
 4    1  0.4333905E+000  0.2018145E+03  0.7546771E-02  0.1148217E+00
         21   -1    0    0  503  502  0.00000000000E+00  0.00000000000E+00  0.19507007945E+03  0.19507007945E+03  0.00000000000E+00 0.  1.
         21   -1    0    0  501  503 -0.00000000000E+00 -0.00000000000E+00 -0.34538849399E+03  0.34538849399E+03  0.00000000000E+00 0.  1.
          6    1    1    2  501    0  0.10139386858E+03 -0.22789501074E+02 -0.24510022315E+03  0.31749519261E+03  0.17300000000E+03 0.  1.
         -6    1    1    2    0  502 -0.10139386858E+03  0.22789501074E+02  0.94781808610E+02  0.22296338083E+03  0.17300000000E+03 0.  1.
<mgrwt>
<rscale>  2 0.20181446E+03</rscale>
<asrwt>0</asrwt>
<pdfrwt beam="1">  1       21 0.30010782E-01 0.20181446E+03</pdfrwt>
<pdfrwt beam="2">  1       21 0.53136691E-01 0.20181446E+03</pdfrwt>
<totfact> 0.35547297E+04</totfact>
</mgrwt>
</event>
<event>
 4    1  0.4333905E+000  0.2439477E+03  0.7546771E-02  0.1117191E+00
         21   -1    0    0  501  502  0.00000000000E+00  0.00000000000E+00  0.11041363206E+03  0.11041363206E+03  0.00000000000E+00 0.  1.
         21   -1    0    0  502  503 -0.00000000000E+00 -0.00000000000E+00 -0.55186746432E+03  0.55186746432E+03  0.00000000000E+00 0. -1.
          6    1    1    2  501    0 -0.17171090696E+03  0.98421765319E+01 -0.27133438612E+03  0.36487374954E+03  0.17300000000E+03 0. -1.
         -6    1    1    2    0  503  0.17171090696E+03 -0.98421765319E+01 -0.17011944614E+03  0.29740734685E+03  0.17300000000E+03 0.  1.
<mgrwt>
<rscale>  2 0.24394775E+03</rscale>
<asrwt>0</asrwt>
<pdfrwt beam="1">  1       21 0.16986713E-01 0.24394775E+03</pdfrwt>
<pdfrwt beam="2">  1       21 0.84902686E-01 0.24394775E+03</pdfrwt>
<totfact> 0.36588901E+04</totfact>
</mgrwt>
</event>
<event>
 4    1  0.4333905E+000  0.2112794E+03  0.7546771E-02  0.1140557E+00
         21   -1    0    0  503  502  0.00000000000E+00  0.00000000000E+00  0.45511315105E+03  0.45511315105E+03  0.00000000000E+00 0. -1.
         21   -1    0    0  501  503 -0.00000000000E+00 -0.00000000000E+00 -0.98128509445E+02  0.98128509445E+02  0.00000000000E+00 0. -1.
          6    1    1    2  501    0 -0.78179238992E+02  0.92725413522E+02  0.17255426675E+03  0.27278924227E+03  0.17300000000E+03 0. -1.
         -6    1    1    2    0  502  0.78179238992E+02 -0.92725413522E+02  0.18443037486E+03  0.28045241823E+03  0.17300000000E+03 0. -1.
<mgrwt>
<rscale>  2 0.21127943E+03</rscale>
<asrwt>0</asrwt>
<pdfrwt beam="1">  1       21 0.70017406E-01 0.21127943E+03</pdfrwt>
<pdfrwt beam="2">  1       21 0.15096694E-01 0.21127943E+03</pdfrwt>
<totfact> 0.71204875E+04</totfact>
</mgrwt>
</event>
<event>
 4    1  0.4333905E+000  0.1775822E+03  0.7546771E-02  0.1170164E+00
         21   -1    0    0  503  502  0.00000000000E+00  0.00000000000E+00  0.58410162055E+03  0.58410162055E+03  0.00000000000E+00 0.  1.
         21   -1    0    0  501  503 -0.00000000000E+00 -0.00000000000E+00 -0.13475771299E+03  0.13475771299E+03  0.00000000000E+00 0.  1.
          6    1    1    2  501    0  0.36609424432E+02  0.16315362297E+02 -0.53591994458E+02  0.18549270302E+03  0.17300000000E+03 0.  1.
         -6    1    1    2    0  502 -0.36609424432E+02 -0.16315362297E+02  0.50293590202E+03  0.53336663051E+03  0.17300000000E+03 0.  1.
<mgrwt>
<rscale>  2 0.17758221E+03</rscale>
<asrwt>0</asrwt>
<pdfrwt beam="1">  1       21 0.89861786E-01 0.17758221E+03</pdfrwt>
<pdfrwt beam="2">  1       21 0.20731956E-01 0.17758221E+03</pdfrwt>
<totfact> 0.22959600E+04</totfact>
</mgrwt>
</event>
<event>
 4    1  0.4333905E+000  0.2701136E+03  0.7546771E-02  0.1101215E+00
         21   -1    0    0  501  502  0.00000000000E+00  0.00000000000E+00  0.10802365540E+04  0.10802365540E+04  0.00000000000E+00 0.  1.
         21   -1    0    0  502  503 -0.00000000000E+00 -0.00000000000E+00 -0.10262586561E+03  0.10262586561E+03  0.00000000000E+00 0.  1.
          6    1    1    2  501    0  0.19131881991E+03  0.80184081381E+02  0.83460878450E+03  0.87723041495E+03  0.17300000000E+03 0.  1.
         -6    1    1    2    0  503 -0.19131881991E+03 -0.80184081381E+02  0.14300190390E+03  0.30563200467E+03  0.17300000000E+03 0.  1.
<mgrwt>
<rscale>  2 0.27011364E+03</rscale>
<asrwt>0</asrwt>
<pdfrwt beam="1">  1       21 0.16619023E+00 0.27011364E+03</pdfrwt>
<pdfrwt beam="2">  1       21 0.15788595E-01 0.27011364E+03</pdfrwt>
<totfact> 0.76829009E+03</totfact>
</mgrwt>
</event>
<event>
 4    1  0.4333905E+000  0.2115708E+03  0.7546771E-02  0.1140328E+00
         21   -1    0    0  501  502  0.00000000000E+00  0.00000000000E+00  0.26849829204E+03  0.26849829204E+03  0.00000000000E+00 0. -1.
         21   -1    0    0  502  503 -0.00000000000E+00 -0.00000000000E+00 -0.34790446416E+03  0.34790446416E+03  0.00000000000E+00 0.  1.
          6    1    1    2  501    0  0.86670145015E+02  0.85565819698E+02  0.18271655741E+03  0.27954885779E+03  0.17300000000E+03 0. -1.
         -6    1    1    2    0  503 -0.86670145015E+02 -0.85565819698E+02 -0.26212272954E+03  0.33685389841E+03  0.17300000000E+03 0.  1.
<mgrwt>
<rscale>  2 0.21157085E+03</rscale>
<asrwt>0</asrwt>
<pdfrwt beam="1">  1       21 0.41307430E-01 0.21157085E+03</pdfrwt>
<pdfrwt beam="2">  1       21 0.53523763E-01 0.21157085E+03</pdfrwt>
<totfact> 0.18433091E+04</totfact>
</mgrwt>
</event>
<event>
 4    1  0.4333905E+000  0.1916039E+03  0.7546771E-02  0.1157023E+00
         21   -1    0    0  503  502  0.00000000000E+00  0.00000000000E+00  0.15727022177E+03  0.15727022177E+03  0.00000000000E+00 0.  1.
         21   -1    0    0  501  503 -0.00000000000E+00 -0.00000000000E+00 -0.23345029968E+03  0.23345029968E+03  0.00000000000E+00 0. -1.
          6    1    1    2  501    0  0.61391278875E+02  0.54901532468E+02 -0.39769390803E+02  0.19568768953E+03  0.17300000000E+03 0. -1.
         -6    1    1    2    0  502 -0.61391278875E+02 -0.54901532468E+02 -0.36410687114E+02  0.19503283192E+03  0.17300000000E+03 0.  1.
<mgrwt>
<rscale>  2 0.19160393E+03</rscale>
<asrwt>0</asrwt>
<pdfrwt beam="1">  1       21 0.24195419E-01 0.19160393E+03</pdfrwt>
<pdfrwt beam="2">  1       21 0.35915430E-01 0.19160393E+03</pdfrwt>
<totfact> 0.12056642E+05</totfact>
</mgrwt>
</event>
<event>
 4    1  0.4333905E+000  0.1986205E+03  0.7546771E-02  0.1150908E+00
         21   -1    0    0  501  502  0.00000000000E+00  0.00000000000E+00  0.10436610964E+04  0.10436610964E+04  0.00000000000E+00 0. -1.
         21   -1    0    0  502  503 -0.00000000000E+00 -0.00000000000E+00 -0.42288892156E+02  0.42288892156E+02  0.00000000000E+00 0. -1.
          6    1    1    2  501    0 -0.79616924576E+02  0.56411398775E+02  0.67759498884E+03  0.70610556540E+03  0.17300000000E+03 0. -1.
         -6    1    1    2    0  503  0.79616924576E+02 -0.56411398775E+02  0.32377721544E+03  0.37984442319E+03  0.17300000000E+03 0. -1.
<mgrwt>
<rscale>  2 0.19862049E+03</rscale>
<asrwt>0</asrwt>
<pdfrwt beam="1">  1       21 0.16056323E+00 0.19862049E+03</pdfrwt>
<pdfrwt beam="2">  1       21 0.65059842E-02 0.19862049E+03</pdfrwt>
<totfact> 0.42630016E+04</totfact>
</mgrwt>
</event>
<event>
 4    1  0.4333905E+000  0.1789366E+03  0.7546771E-02  0.1168836E+00
         21   -1    0    0  503  502  0.00000000000E+00  0.00000000000E+00  0.17780631271E+03  0.17780631271E+03  0.00000000000E+00 0. -1.
         21   -1    0    0  501  503 -0.00000000000E+00 -0.00000000000E+00 -0.39754713293E+03  0.39754713293E+03  0.00000000000E+00 0. -1.
          6    1    1    2  501    0  0.35916234823E+02 -0.28272444015E+02 -0.32264175660E+03  0.36893903306E+03  0.17300000000E+03 0. -1.
         -6    1    1    2    0  502 -0.35916234823E+02  0.28272444015E+02  0.10290093638E+03  0.20641441258E+03  0.17300000000E+03 0. -1.
<mgrwt>
<rscale>  2 0.17893660E+03</rscale>
<asrwt>0</asrwt>
<pdfrwt beam="1">  1       21 0.27354818E-01 0.17893660E+03</pdfrwt>
<pdfrwt beam="2">  1       21 0.61161096E-01 0.17893660E+03</pdfrwt>
<totfact> 0.31924016E+04</totfact>
</mgrwt>
</event>
<event>
 4    1  0.4333905E+000  0.1855146E+03  0.7546771E-02  0.1162570E+00
         21   -1    0    0  503  502  0.00000000000E+00  0.00000000000E+00  0.66658423571E+03  0.66658423571E+03  0.00000000000E+00 0.  1.
         21   -1    0    0  501  503 -0.00000000000E+00 -0.00000000000E+00 -0.71620762520E+02  0.71620762520E+02  0.00000000000E+00 0.  1.
          6    1    1    2  501    0 -0.66874935378E+02  0.37961394839E+01  0.49248570118E+03  0.52626783440E+03  0.17300000000E+03 0.  1.
         -6    1    1    2    0  502  0.66874935378E+02 -0.37961394839E+01  0.10247777201E+03  0.21193716383E+03  0.17300000000E+03 0.  1.
<mgrwt>
<rscale>  2 0.18551460E+03</rscale>
<asrwt>0</asrwt>
<pdfrwt beam="1">  1       21 0.10255142E+00 0.18551460E+03</pdfrwt>
<pdfrwt beam="2">  1       21 0.11018579E-01 0.18551460E+03</pdfrwt>
<totfact> 0.53010166E+04</totfact>
</mgrwt>
</event>
<event>
 4    1  0.4333905E+000  0.1742361E+03  0.7546771E-02  0.1173501E+00
         21   -1    0    0  503  502  0.00000000000E+00  0.00000000000E+00  0.11354673437E+03  0.11354673437E+03  0.00000000000E+00 0.  1.
         21   -1    0    0  501  503 -0.00000000000E+00 -0.00000000000E+00 -0.26858552507E+03  0.26858552507E+03  0.00000000000E+00 0.  1.
          6    1    1    2  501    0 -0.14672435759E+02  0.14626127279E+02 -0.90409549420E+02  0.19629592608E+03  0.17300000000E+03 0. -1.
         -6    1    1    2    0  502  0.14672435759E+02 -0.14626127279E+02 -0.64629241278E+02  0.18583633336E+03  0.17300000000E+03 0. -1.
<mgrwt>
<rscale>  2 0.17423606E+03</rscale>
<asrwt>0</asrwt>
<pdfrwt beam="1">  1       21 0.17468728E-01 0.17423606E+03</pdfrwt>
<pdfrwt beam="2">  1       21 0.41320850E-01 0.17423606E+03</pdfrwt>
<totfact> 0.16831340E+05</totfact>
</mgrwt>
</event>
<event>
 4    1  0.4333905E+000  0.1889861E+03  0.7546771E-02  0.1159379E+00
         21   -1    0    0  503  502  0.00000000000E+00  0.00000000000E+00  0.10011236303E+04  0.10011236303E+04  0.00000000000E+00 0. -1.
         21   -1    0    0  501  503 -0.00000000000E+00 -0.00000000000E+00 -0.41176296457E+02  0.41176296457E+02  0.00000000000E+00 0. -1.
          6    1    1    2  501    0 -0.65937492702E+02  0.37934310224E+02  0.28949567269E+03  0.34572172240E+03  0.17300000000E+03 0. -1.
         -6    1    1    2    0  502  0.65937492702E+02 -0.37934310224E+02  0.67045166114E+03  0.69657820434E+03  0.17300000000E+03 0. -1.
<mgrwt>
<rscale>  2 0.18898615E+03</rscale>
<asrwt>0</asrwt>
<pdfrwt beam="1">  1       21 0.15401900E+00 0.18898615E+03</pdfrwt>
<pdfrwt beam="2">  1       21 0.63348156E-02 0.18898615E+03</pdfrwt>
<totfact> 0.50178441E+04</totfact>
</mgrwt>
</event>
<event>
 4    1  0.4333905E+000  0.2064717E+03  0.7546771E-02  0.1144391E+00
         21   -1    0    0  503  502  0.00000000000E+00  0.00000000000E+00  0.41703105073E+03  0.41703105073E+03  0.00000000000E+00 0.  1.
         21   -1    0    0  501  503 -0.00000000000E+00 -0.00000000000E+00 -0.25846506719E+03  0.25846506719E+03  0.00000000000E+00 0.  1.
          6    1    1    2  501    0 -0.51349093585E+02 -0.10032360631E+03 -0.18331392467E+03  0.27610604914E+03  0.17300000000E+03 0.  1.
         -6    1    1    2    0  502  0.51349093585E+02  0.10032360631E+03  0.34187990821E+03  0.39939006877E+03  0.17300000000E+03 0.  1.
<mgrwt>
<rscale>  2 0.20647168E+03</rscale>
<asrwt>0</asrwt>
<pdfrwt beam="1">  1       21 0.64158623E-01 0.20647168E+03</pdfrwt>
<pdfrwt beam="2">  1       21 0.39763857E-01 0.20647168E+03</pdfrwt>
<totfact> 0.13546039E+04</totfact>
</mgrwt>
</event>
<event>
 4    1  0.4333905E+000  0.2340968E+03  0.7546771E-02  0.1123789E+00
         21   -1    0    0  503  502  0.00000000000E+00  0.00000000000E+00  0.18928628341E+03  0.18928628341E+03  0.00000000000E+00 0.  1.
         21   -1    0    0  501  503 -0.00000000000E+00 -0.00000000000E+00 -0.33122732811E+03  0.33122732811E+03  0.00000000000E+00 0.  1.
          6    1    1    2  501    0 -0.86387907149E+02 -0.13194480828E+03 -0.16332732790E+03  0.28544197129E+03  0.17300000000E+03 0.  1.
         -6    1    1    2    0  502  0.86387907149E+02  0.13194480828E+03  0.21386283197E+02  0.23507164023E+03  0.17300000000E+03 0.  1.
<mgrwt>
<rscale>  2 0.23409678E+03</rscale>
<asrwt>0</asrwt>
<pdfrwt beam="1">  1       21 0.29120967E-01 0.23409678E+03</pdfrwt>
<pdfrwt beam="2">  1       21 0.50958050E-01 0.23409678E+03</pdfrwt>
<totfact> 0.40529723E+04</totfact>
</mgrwt>
</event>
<event>
 4    1  0.4333905E+000  0.1866466E+03  0.7546771E-02  0.1161521E+00
         21   -1    0    0  501  502  0.00000000000E+00  0.00000000000E+00  0.35302347699E+02  0.35302347699E+02  0.00000000000E+00 0. -1.
         21   -1    0    0  502  503 -0.00000000000E+00 -0.00000000000E+00 -0.17010921219E+04  0.17010921219E+04  0.00000000000E+00 0. -1.
          6    1    1    2  501    0  0.69371358015E+02  0.97764985047E+01 -0.27031115289E+03  0.32848909360E+03  0.17300000000E+03 0. -1.
         -6    1    1    2    0  503 -0.69371358015E+02 -0.97764985047E+01 -0.13954786213E+04  0.14079053760E+04  0.17300000000E+03 0. -1.
<mgrwt>
<rscale>  2 0.18664663E+03</rscale>
<asrwt>0</asrwt>
<pdfrwt beam="1">  1       21 0.54311318E-02 0.18664663E+03</pdfrwt>
<pdfrwt beam="2">  1       21 0.26170641E+00 0.18664663E+03</pdfrwt>
<totfact> 0.13351256E+04</totfact>
</mgrwt>
</event>
<event>
 4    1  0.4333905E+000  0.2061021E+03  0.7546771E-02  0.1144690E+00
         21   -1    0    0  501  502  0.00000000000E+00  0.00000000000E+00  0.42754812935E+02  0.42754812935E+02  0.00000000000E+00 0. -1.
         21   -1    0    0  502  503 -0.00000000000E+00 -0.00000000000E+00 -0.10399600446E+04  0.10399600446E+04  0.00000000000E+00 0.  1.
          6    1    1    2  501    0 -0.85009923143E+02  0.72954573485E+02 -0.38421215377E+03  0.43600118799E+03  0.17300000000E+03 0. -1.
         -6    1    1    2    0  503  0.85009923143E+02 -0.72954573485E+02 -0.61299307786E+03  0.64671366951E+03  0.17300000000E+03 0. -1.
<mgrwt>
<rscale>  2 0.20610205E+03</rscale>
<asrwt>0</asrwt>
<pdfrwt beam="1">  1       21 0.65776634E-02 0.20610205E+03</pdfrwt>
<pdfrwt beam="2">  1       21 0.15999386E+00 0.20610205E+03</pdfrwt>
<totfact> 0.42048545E+04</totfact>
</mgrwt>
</event>
<event>
 4    1  0.4333905E+000  0.1994452E+03  0.7546771E-02  0.1150208E+00
         21   -1    0    0  501  502  0.00000000000E+00  0.00000000000E+00  0.11210397388E+03  0.11210397388E+03  0.00000000000E+00 0.  1.
         21   -1    0    0  502  503 -0.00000000000E+00 -0.00000000000E+00 -0.35823616923E+03  0.35823616923E+03  0.00000000000E+00 0.  1.
          6    1    1    2  501    0 -0.67832906594E+02  0.72443581420E+02 -0.14598179190E+03  0.24716201017E+03  0.17300000000E+03 0.  1.
         -6    1    1    2    0  503  0.67832906594E+02 -0.72443581420E+02 -0.10015040344E+03  0.22317813293E+03  0.17300000000E+03 0.  1.
<mgrwt>
<rscale>  2 0.19944517E+03</rscale>
<asrwt>0</asrwt>
<pdfrwt beam="1">  1       21 0.17246765E-01 0.19944517E+03</pdfrwt>
<pdfrwt beam="2">  1       21 0.55113256E-01 0.19944517E+03</pdfrwt>
<totfact> 0.94085178E+04</totfact>
</mgrwt>
</event>
<event>
 4    1  0.4333905E+000  0.2068897E+03  0.7546771E-02  0.1144053E+00
         21   -1    0    0  503  502  0.00000000000E+00  0.00000000000E+00  0.26786495754E+02  0.26786495754E+02  0.00000000000E+00 0. -1.
         21   -1    0    0  501  503 -0.00000000000E+00 -0.00000000000E+00 -0.16944141468E+04  0.16944141468E+04  0.00000000000E+00 0. -1.
          6    1    1    2  501    0  0.98406438387E+02  0.56484772578E+02 -0.10391592943E+04  0.10595543382E+04  0.17300000000E+03 0. -1.
         -6    1    1    2    0  502 -0.98406438387E+02 -0.56484772578E+02 -0.62846835679E+03  0.66164630441E+03  0.17300000000E+03 0. -1.
<mgrwt>
<rscale>  2 0.20688972E+03</rscale>
<asrwt>0</asrwt>
<pdfrwt beam="1">  1       21 0.41209992E-02 0.20688972E+03</pdfrwt>
<pdfrwt beam="2">  1       21 0.26067911E+00 0.20688972E+03</pdfrwt>
<totfact> 0.21197569E+04</totfact>
</mgrwt>
</event>
<event>
 4    1  0.4333905E+000  0.2055985E+03  0.7546771E-02  0.1145100E+00
         21   -1    0    0  503  502  0.00000000000E+00  0.00000000000E+00  0.40323546251E+03  0.40323546251E+03  0.00000000000E+00 0.  1.
         21   -1    0    0  501  503 -0.00000000000E+00 -0.00000000000E+00 -0.12869855960E+03  0.12869855960E+03  0.00000000000E+00 0.  1.
          6    1    1    2  501    0 -0.77330596924E+02 -0.79760339976E+02  0.22726659546E+02  0.20685075322E+03  0.17300000000E+03 0.  1.
         -6    1    1    2    0  502  0.77330596924E+02  0.79760339976E+02  0.25181024336E+03  0.32508326889E+03  0.17300000000E+03 0.  1.
<mgrwt>
<rscale>  2 0.20559848E+03</rscale>
<asrwt>0</asrwt>
<pdfrwt beam="1">  1       21 0.62036225E-01 0.20559848E+03</pdfrwt>
<pdfrwt beam="2">  1       21 0.19799779E-01 0.20559848E+03</pdfrwt>
<totfact> 0.56372335E+04</totfact>
</mgrwt>
</event>
<event>
 4    1  0.4333905E+000  0.3070371E+03  0.7546771E-02  0.1081775E+00
         21   -1    0    0  501  502  0.00000000000E+00  0.00000000000E+00  0.97791440133E+03  0.97791440133E+03  0.00000000000E+00 0. -1.
         21   -1    0    0  502  503 -0.00000000000E+00 -0.00000000000E+00 -0.16177533862E+03  0.16177533862E+03  0.00000000000E+00 0.  1.
          6    1    1    2  501    0 -0.14556700758E+03 -0.20773309243E+03  0.77031636343E+03  0.82925212761E+03  0.17300000000E+03 0. -1.
         -6    1    1    2    0  503  0.14556700758E+03  0.20773309243E+03  0.45822699285E+02  0.31043761234E+03  0.17300000000E+03 0.  1.
<mgrwt>
<rscale>  2 0.30703712E+03</rscale>
<asrwt>0</asrwt>
<pdfrwt beam="1">  1       21 0.15044837E+00 0.30703712E+03</pdfrwt>
<pdfrwt beam="2">  1       21 0.24888514E-01 0.30703712E+03</pdfrwt>
<totfact> 0.41862795E+03</totfact>
</mgrwt>
</event>
<event>
 4    1  0.4333905E+000  0.1762200E+03  0.7546771E-02  0.1171512E+00
         21   -1    0    0  503  502  0.00000000000E+00  0.00000000000E+00  0.61033891762E+02  0.61033891762E+02  0.00000000000E+00 0. -1.
         21   -1    0    0  501  503 -0.00000000000E+00 -0.00000000000E+00 -0.52011126683E+03  0.52011126683E+03  0.00000000000E+00 0. -1.
          6    1    1    2  501    0  0.24577969705E+02  0.22812460019E+02 -0.18667022186E+03  0.25670850523E+03  0.17300000000E+03 0. -1.
         -6    1    1    2    0  502 -0.24577969705E+02 -0.22812460019E+02 -0.27240715321E+03  0.32443665336E+03  0.17300000000E+03 0. -1.
<mgrwt>
<rscale>  2 0.17621999E+03</rscale>
<asrwt>0</asrwt>
<pdfrwt beam="1">  1       21 0.93898299E-02 0.17621999E+03</pdfrwt>
<pdfrwt beam="2">  1       21 0.80017115E-01 0.17621999E+03</pdfrwt>
<totfact> 0.12539898E+05</totfact>
</mgrwt>
</event>
<event>
 4    1  0.4333905E+000  0.2124864E+03  0.7546771E-02  0.1139612E+00
         21   -1    0    0  503  502  0.00000000000E+00  0.00000000000E+00  0.16502424674E+03  0.16502424674E+03  0.00000000000E+00 0.  1.
         21   -1    0    0  501  503 -0.00000000000E+00 -0.00000000000E+00 -0.40360848530E+03  0.40360848530E+03  0.00000000000E+00 0.  1.
          6    1    1    2  501    0 -0.11238775035E+03 -0.50896418588E+02 -0.28065714345E+03  0.35202114144E+03  0.17300000000E+03 0.  1.
         -6    1    1    2    0  502  0.11238775035E+03  0.50896418588E+02  0.42072904888E+02  0.21661159059E+03  0.17300000000E+03 0.  1.
<mgrwt>
<rscale>  2 0.21248636E+03</rscale>
<asrwt>0</asrwt>
<pdfrwt beam="1">  1       21 0.25388346E-01 0.21248636E+03</pdfrwt>
<pdfrwt beam="2">  1       21 0.62093613E-01 0.21248636E+03</pdfrwt>
<totfact> 0.35028126E+04</totfact>
</mgrwt>
</event>
<event>
 4    1  0.4333905E+000  0.2225038E+03  0.7546771E-02  0.1132030E+00
         21   -1    0    0  501  502  0.00000000000E+00  0.00000000000E+00  0.25032219151E+03  0.25032219151E+03  0.00000000000E+00 0. -1.
         21   -1    0    0  502  503 -0.00000000000E+00 -0.00000000000E+00 -0.20010863779E+03  0.20010863779E+03  0.00000000000E+00 0. -1.
          6    1    1    2  501    0 -0.12097804819E+03  0.70308270298E+02  0.49418026932E+02  0.22792560717E+03  0.17300000000E+03 0. -1.
         -6    1    1    2    0  503  0.12097804819E+03 -0.70308270298E+02  0.79552678922E+00  0.22250522214E+03  0.17300000000E+03 0. -1.
<mgrwt>
<rscale>  2 0.22250380E+03</rscale>
<asrwt>0</asrwt>
<pdfrwt beam="1">  1       21 0.38511107E-01 0.22250380E+03</pdfrwt>
<pdfrwt beam="2">  1       21 0.30785944E-01 0.22250380E+03</pdfrwt>
<totfact> 0.65015533E+04</totfact>
</mgrwt>
</event>
<event>
 4    1  0.4333905E+000  0.3947694E+03  0.7546771E-02  0.1045606E+00
         21   -1    0    0  501  502  0.00000000000E+00  0.00000000000E+00  0.30937124271E+03  0.30937124271E+03  0.00000000000E+00 0.  1.
         21   -1    0    0  502  503 -0.00000000000E+00 -0.00000000000E+00 -0.50589197879E+03  0.50589197879E+03  0.00000000000E+00 0. -1.
          6    1    1    2  501    0  0.76175970262E+02 -0.34657050511E+03 -0.71678530989E+02  0.40122400883E+03  0.17300000000E+03 0.  1.
         -6    1    1    2    0  503 -0.76175970262E+02  0.34657050511E+03 -0.12484220509E+03  0.41403921267E+03  0.17300000000E+03 0. -1.
<mgrwt>
<rscale>  2 0.39476942E+03</rscale>
<asrwt>0</asrwt>
<pdfrwt beam="1">  1       21 0.47595576E-01 0.39476942E+03</pdfrwt>
<pdfrwt beam="2">  1       21 0.77829535E-01 0.39476942E+03</pdfrwt>
<totfact> 0.55489423E+03</totfact>
</mgrwt>
</event>
<event>
 4    1  0.4333905E+000  0.1929777E+03  0.7546771E-02  0.1155803E+00
         21   -1    0    0  503  502  0.00000000000E+00  0.00000000000E+00  0.50060548488E+03  0.50060548488E+03  0.00000000000E+00 0.  1.
         21   -1    0    0  501  503 -0.00000000000E+00 -0.00000000000E+00 -0.82298701514E+02  0.82298701514E+02  0.00000000000E+00 0. -1.
          6    1    1    2  501    0  0.93943380709E+00  0.85501537831E+02  0.11880843977E+03  0.22661827126E+03  0.17300000000E+03 0. -1.
         -6    1    1    2    0  502 -0.93943380709E+00 -0.85501537831E+02  0.29949834360E+03  0.35628591514E+03  0.17300000000E+03 0.  1.
<mgrwt>
<rscale>  2 0.19297771E+03</rscale>
<asrwt>0</asrwt>
<pdfrwt beam="1">  1       21 0.77016226E-01 0.19297771E+03</pdfrwt>
<pdfrwt beam="2">  1       21 0.12661339E-01 0.19297771E+03</pdfrwt>
<totfact> 0.79854533E+04</totfact>
</mgrwt>
</event>
<event>
 4    1  0.4333905E+000  0.2262831E+03  0.7546771E-02  0.1129284E+00
         21   -1    0    0  503  502  0.00000000000E+00  0.00000000000E+00  0.16012106431E+03  0.16012106431E+03  0.00000000000E+00 0. -1.
         21   -1    0    0  501  503 -0.00000000000E+00 -0.00000000000E+00 -0.62360203692E+03  0.62360203692E+03  0.00000000000E+00 0.  1.
          6    1    1    2  501    0  0.63808853047E+02 -0.13116195753E+03 -0.50525868483E+03  0.55361572181E+03  0.17300000000E+03 0.  1.
         -6    1    1    2    0  502 -0.63808853047E+02  0.13116195753E+03  0.41777712222E+02  0.23010737943E+03  0.17300000000E+03 0. -1.
<mgrwt>
<rscale>  2 0.22628307E+03</rscale>
<asrwt>0</asrwt>
<pdfrwt beam="1">  1       21 0.24634010E-01 0.22628307E+03</pdfrwt>
<pdfrwt beam="2">  1       21 0.95938776E-01 0.22628307E+03</pdfrwt>
<totfact> 0.13805233E+04</totfact>
</mgrwt>
</event>
<event>
 4    1  0.4333905E+000  0.1810605E+03  0.7546771E-02  0.1166781E+00
         21   -1    0    0  501  502  0.00000000000E+00  0.00000000000E+00  0.10315106539E+03  0.10315106539E+03  0.00000000000E+00 0. -1.
         21   -1    0    0  502  503 -0.00000000000E+00 -0.00000000000E+00 -0.32959964452E+03  0.32959964452E+03  0.00000000000E+00 0. -1.
          6    1    1    2  501    0 -0.11635702674E+02  0.52139314414E+02 -0.15413933701E+03  0.23778526636E+03  0.17300000000E+03 0. -1.
         -6    1    1    2    0  503  0.11635702674E+02 -0.52139314414E+02 -0.72309242123E+02  0.19496544356E+03  0.17300000000E+03 0. -1.
<mgrwt>
<rscale>  2 0.18106048E+03</rscale>
<asrwt>0</asrwt>
<pdfrwt beam="1">  1       21 0.15869395E-01 0.18106048E+03</pdfrwt>
<pdfrwt beam="2">  1       21 0.50707637E-01 0.18106048E+03</pdfrwt>
<totfact> 0.13149252E+05</totfact>
</mgrwt>
</event>
<event>
 4    1  0.4333905E+000  0.1999781E+03  0.7546771E-02  0.1149758E+00
         21   -1    0    0  501  502  0.00000000000E+00  0.00000000000E+00  0.71042590745E+03  0.71042590745E+03  0.00000000000E+00 0.  1.
         21   -1    0    0  502  503 -0.00000000000E+00 -0.00000000000E+00 -0.60120095396E+02  0.60120095396E+02  0.00000000000E+00 0. -1.
          6    1    1    2  501    0  0.90654589108E+02 -0.42941499957E+02  0.42237289558E+03  0.46732225484E+03  0.17300000000E+03 0.  1.
         -6    1    1    2    0  503 -0.90654589108E+02  0.42941499957E+02  0.22793291647E+03  0.30322374801E+03  0.17300000000E+03 0. -1.
<mgrwt>
<rscale>  2 0.19997807E+03</rscale>
<asrwt>0</asrwt>
<pdfrwt beam="1">  1       21 0.10929629E+00 0.19997807E+03</pdfrwt>
<pdfrwt beam="2">  1       21 0.92492459E-02 0.19997807E+03</pdfrwt>
<totfact> 0.61535372E+04</totfact>
</mgrwt>
</event>
<event>
 4    1  0.4333905E+000  0.2806484E+03  0.7546771E-02  0.1095335E+00
         21   -1    0    0  501  502  0.00000000000E+00  0.00000000000E+00  0.16580320815E+04  0.16580320815E+04  0.00000000000E+00 0. -1.
         21   -1    0    0  502  503 -0.00000000000E+00 -0.00000000000E+00 -0.47845007418E+02  0.47845007418E+02  0.00000000000E+00 0. -1.
          6    1    1    2  501    0  0.21366827243E+03  0.56395177861E+02  0.73311032423E+03  0.78499318101E+03  0.17300000000E+03 0. -1.
         -6    1    1    2    0  503 -0.21366827243E+03 -0.56395177861E+02  0.87707674988E+03  0.92088390794E+03  0.17300000000E+03 0. -1.
<mgrwt>
<rscale>  2 0.28064844E+03</rscale>
<asrwt>0</asrwt>
<pdfrwt beam="1">  1       21 0.25508182E+00 0.28064844E+03</pdfrwt>
<pdfrwt beam="2">  1       21 0.73607716E-02 0.28064844E+03</pdfrwt>
<totfact> 0.80024564E+03</totfact>
</mgrwt>
</event>
<event>
 4    1  0.4333905E+000  0.1978482E+03  0.7546771E-02  0.1151567E+00
         21   -1    0    0  501  502  0.00000000000E+00  0.00000000000E+00  0.10622942294E+03  0.10622942294E+03  0.00000000000E+00 0.  1.
         21   -1    0    0  502  503 -0.00000000000E+00 -0.00000000000E+00 -0.47748854643E+03  0.47748854643E+03  0.00000000000E+00 0.  1.
          6    1    1    2  501    0 -0.88454525484E+02  0.37292101324E+02 -0.46181415263E+02  0.20316650072E+03  0.17300000000E+03 0.  1.
         -6    1    1    2    0  503  0.88454525484E+02 -0.37292101324E+02 -0.32507770823E+03  0.38055146864E+03  0.17300000000E+03 0.  1.
<mgrwt>
<rscale>  2 0.19784818E+03</rscale>
<asrwt>0</asrwt>
<pdfrwt beam="1">  1       21 0.16342988E-01 0.19784818E+03</pdfrwt>
<pdfrwt beam="2">  1       21 0.73459775E-01 0.19784818E+03</pdfrwt>
<totfact> 0.55708787E+04</totfact>
</mgrwt>
</event>
<event>
 4    1  0.4333905E+000  0.1797060E+03  0.7546771E-02  0.1168088E+00
         21   -1    0    0  503  502  0.00000000000E+00  0.00000000000E+00  0.65486591030E+02  0.65486591030E+02  0.00000000000E+00 0. -1.
         21   -1    0    0  501  503 -0.00000000000E+00 -0.00000000000E+00 -0.58233541231E+03  0.58233541231E+03  0.00000000000E+00 0. -1.
          6    1    1    2  501    0  0.16144578985E+02  0.45875964976E+02 -0.38519051429E+03  0.42504821361E+03  0.17300000000E+03 0. -1.
         -6    1    1    2    0  502 -0.16144578985E+02 -0.45875964976E+02 -0.13165830700E+03  0.22277378974E+03  0.17300000000E+03 0. -1.
<mgrwt>
<rscale>  2 0.17970601E+03</rscale>
<asrwt>0</asrwt>
<pdfrwt beam="1">  1       21 0.10074860E-01 0.17970601E+03</pdfrwt>
<pdfrwt beam="2">  1       21 0.89590061E-01 0.17970601E+03</pdfrwt>
<totfact> 0.85492505E+04</totfact>
</mgrwt>
</event>
<event>
 4    1  0.4333905E+000  0.2465237E+03  0.7546771E-02  0.1115522E+00
         21   -1    0    0  503  502  0.00000000000E+00  0.00000000000E+00  0.27153203348E+03  0.27153203348E+03  0.00000000000E+00 0.  1.
         21   -1    0    0  501  503 -0.00000000000E+00 -0.00000000000E+00 -0.28977287165E+03  0.28977287165E+03  0.00000000000E+00 0. -1.
          6    1    1    2  501    0 -0.14455296312E+03 -0.99746612589E+02 -0.14301442188E+03  0.28500363285E+03  0.17300000000E+03 0. -1.
         -6    1    1    2    0  502  0.14455296312E+03  0.99746612589E+02  0.12477358371E+03  0.27630127228E+03  0.17300000000E+03 0.  1.
<mgrwt>
<rscale>  2 0.24652372E+03</rscale>
<asrwt>0</asrwt>
<pdfrwt beam="1">  1       21 0.41774159E-01 0.24652372E+03</pdfrwt>
<pdfrwt beam="2">  1       21 0.44580442E-01 0.24652372E+03</pdfrwt>
<totfact> 0.25911643E+04</totfact>
</mgrwt>
</event>
<event>
 4    1  0.4333905E+000  0.1969749E+03  0.7546771E-02  0.1152317E+00
         21   -1    0    0  503  502  0.00000000000E+00  0.00000000000E+00  0.74715784930E+02  0.74715784930E+02  0.00000000000E+00 0. -1.
         21   -1    0    0  501  503 -0.00000000000E+00 -0.00000000000E+00 -0.14837523137E+04  0.14837523137E+04  0.00000000000E+00 0. -1.
          6    1    1    2  501    0  0.64173175786E+02  0.68934032603E+02 -0.13327647045E+04  0.13472419437E+04  0.17300000000E+03 0. -1.
         -6    1    1    2    0  502 -0.64173175786E+02 -0.68934032603E+02 -0.76271824264E+02  0.21122615491E+03  0.17300000000E+03 0. -1.
<mgrwt>
<rscale>  2 0.19697486E+03</rscale>
<asrwt>0</asrwt>
<pdfrwt beam="1">  1       21 0.11494737E-01 0.19697486E+03</pdfrwt>
<pdfrwt beam="2">  1       21 0.22826958E+00 0.19697486E+03</pdfrwt>
<totfact> 0.56532468E+03</totfact>
</mgrwt>
</event>
<event>
 4    1  0.4333905E+000  0.2354046E+03  0.7546771E-02  0.1122893E+00
         21   -1    0    0  501  502  0.00000000000E+00  0.00000000000E+00  0.22119704588E+03  0.22119704588E+03  0.00000000000E+00 0.  1.
         21   -1    0    0  502  503 -0.00000000000E+00 -0.00000000000E+00 -0.73267696519E+03  0.73267696519E+03  0.00000000000E+00 0. -1.
          6    1    1    2  501    0  0.15276600555E+03  0.46355773849E+02  0.13115839658E+03  0.26947696602E+03  0.17300000000E+03 0.  1.
         -6    1    1    2    0  503 -0.15276600555E+03 -0.46355773849E+02 -0.64263831590E+03  0.68439704506E+03  0.17300000000E+03 0. -1.
<mgrwt>
<rscale>  2 0.23540457E+03</rscale>
<asrwt>0</asrwt>
<pdfrwt beam="1">  1       21 0.34030314E-01 0.23540457E+03</pdfrwt>
<pdfrwt beam="2">  1       21 0.11271954E+00 0.23540457E+03</pdfrwt>
<totfact> 0.49600605E+03</totfact>
</mgrwt>
</event>
<event>
 4    1  0.4333905E+000  0.2351219E+03  0.7546771E-02  0.1123086E+00
         21   -1    0    0  501  502  0.00000000000E+00  0.00000000000E+00  0.53033228781E+02  0.53033228781E+02  0.00000000000E+00 0.  1.
         21   -1    0    0  502  503 -0.00000000000E+00 -0.00000000000E+00 -0.14322749610E+04  0.14322749610E+04  0.00000000000E+00 0. -1.
          6    1    1    2  501    0  0.89760800590E+02 -0.13151547711E+03 -0.30215721598E+03  0.38285938047E+03  0.17300000000E+03 0.  1.
         -6    1    1    2    0  503 -0.89760800590E+02  0.13151547711E+03 -0.10770845162E+04  0.11024488093E+04  0.17300000000E+03 0. -1.
<mgrwt>
<rscale>  2 0.23512193E+03</rscale>
<asrwt>0</asrwt>
<pdfrwt beam="1">  1       21 0.81589588E-02 0.23512193E+03</pdfrwt>
<pdfrwt beam="2">  1       21 0.22034998E+00 0.23512193E+03</pdfrwt>
<totfact> 0.11214715E+04</totfact>
</mgrwt>
</event>
<event>
 4    1  0.4333905E+000  0.1838108E+03  0.7546771E-02  0.1164165E+00
         21   -1    0    0  503  502  0.00000000000E+00  0.00000000000E+00  0.10277907216E+04  0.10277907216E+04  0.00000000000E+00 0.  1.
         21   -1    0    0  501  503 -0.00000000000E+00 -0.00000000000E+00 -0.35412135354E+02  0.35412135354E+02  0.00000000000E+00 0.  1.
          6    1    1    2  501    0 -0.53767621430E+02 -0.31087955424E+02  0.35383676612E+03  0.39873158283E+03  0.17300000000E+03 0.  1.
         -6    1    1    2    0  502  0.53767621430E+02  0.31087955424E+02  0.63854182011E+03  0.66447127411E+03  0.17300000000E+03 0.  1.
<mgrwt>
<rscale>  2 0.18381082E+03</rscale>
<asrwt>0</asrwt>
<pdfrwt beam="1">  1       21 0.15812163E+00 0.18381082E+03</pdfrwt>
<pdfrwt beam="2">  1       21 0.54480216E-02 0.18381082E+03</pdfrwt>
<totfact> 0.60701664E+04</totfact>
</mgrwt>
</event>
<event>
 4    1  0.4333905E+000  0.2993023E+03  0.7546771E-02  0.1085590E+00
         21   -1    0    0  501  502  0.00000000000E+00  0.00000000000E+00  0.15180905587E+03  0.15180905587E+03  0.00000000000E+00 0.  1.
         21   -1    0    0  502  503 -0.00000000000E+00 -0.00000000000E+00 -0.68947945754E+03  0.68947945754E+03  0.00000000000E+00 0. -1.
          6    1    1    2  501    0  0.16449651690E+03 -0.18053738496E+03 -0.10913249035E+03  0.31857770150E+03  0.17300000000E+03 0.  1.
         -6    1    1    2    0  503 -0.16449651690E+03  0.18053738496E+03 -0.42853791133E+03  0.52271081191E+03  0.17300000000E+03 0. -1.
<mgrwt>
<rscale>  2 0.29930227E+03</rscale>
<asrwt>0</asrwt>
<pdfrwt beam="1">  1       21 0.23355240E-01 0.29930227E+03</pdfrwt>
<pdfrwt beam="2">  1       21 0.10607376E+00 0.29930227E+03</pdfrwt>
<totfact> 0.11571096E+04</totfact>
</mgrwt>
</event>
<event>
 4    1  0.4333905E+000  0.2832162E+03  0.7546771E-02  0.1093945E+00
         21   -1    0    0  501  502  0.00000000000E+00  0.00000000000E+00  0.11495598590E+04  0.11495598590E+04  0.00000000000E+00 0.  1.
         21   -1    0    0  502  503 -0.00000000000E+00 -0.00000000000E+00 -0.85721635535E+02  0.85721635535E+02  0.00000000000E+00 0. -1.
          6    1    1    2  501    0 -0.22411802775E+03  0.73169129856E+01  0.79830715366E+03  0.84705710502E+03  0.17300000000E+03 0.  1.
         -6    1    1    2    0  503  0.22411802775E+03 -0.73169129856E+01  0.26553106978E+03  0.38822438949E+03  0.17300000000E+03 0. -1.
<mgrwt>
<rscale>  2 0.28321622E+03</rscale>
<asrwt>0</asrwt>
<pdfrwt beam="1">  1       21 0.17685535E+00 0.28321622E+03</pdfrwt>
<pdfrwt beam="2">  1       21 0.13187945E-01 0.28321622E+03</pdfrwt>
<totfact> 0.89022064E+03</totfact>
</mgrwt>
</event>
<event>
 4    1  0.4333905E+000  0.1836265E+03  0.7546771E-02  0.1164339E+00
         21   -1    0    0  501  502  0.00000000000E+00  0.00000000000E+00  0.10189756880E+04  0.10189756880E+04  0.00000000000E+00 0. -1.
         21   -1    0    0  502  503 -0.00000000000E+00 -0.00000000000E+00 -0.33144630664E+02  0.33144630664E+02  0.00000000000E+00 0. -1.
          6    1    1    2  501    0  0.56177086597E+02 -0.25175787318E+02  0.47170831208E+03  0.50618911190E+03  0.17300000000E+03 0. -1.
         -6    1    1    2    0  503 -0.56177086597E+02  0.25175787318E+02  0.51412274527E+03  0.54593120677E+03  0.17300000000E+03 0. -1.
<mgrwt>
<rscale>  2 0.18362648E+03</rscale>
<asrwt>0</asrwt>
<pdfrwt beam="1">  1       21 0.15676547E+00 0.18362648E+03</pdfrwt>
<pdfrwt beam="2">  1       21 0.50991747E-02 0.18362648E+03</pdfrwt>
<totfact> 0.69512674E+04</totfact>
</mgrwt>
</event>
<event>
 4    1  0.4333905E+000  0.2480954E+03  0.7546771E-02  0.1114514E+00
         21   -1    0    0  501  502  0.00000000000E+00  0.00000000000E+00  0.65123639031E+02  0.65123639031E+02  0.00000000000E+00 0. -1.
         21   -1    0    0  502  503 -0.00000000000E+00 -0.00000000000E+00 -0.10471525690E+04  0.10471525690E+04  0.00000000000E+00 0.  1.
          6    1    1    2  501    0 -0.11169100336E+03 -0.13837422914E+03 -0.31743712476E+03  0.40288662884E+03  0.17300000000E+03 0. -1.
         -6    1    1    2    0  503  0.11169100336E+03  0.13837422914E+03 -0.66459180524E+03  0.70938957923E+03  0.17300000000E+03 0.  1.
<mgrwt>
<rscale>  2 0.24809536E+03</rscale>
<asrwt>0</asrwt>
<pdfrwt beam="1">  1       21 0.10019022E-01 0.24809536E+03</pdfrwt>
<pdfrwt beam="2">  1       21 0.16110038E+00 0.24809536E+03</pdfrwt>
<totfact> 0.19293919E+04</totfact>
</mgrwt>
</event>
<event>
 4    1  0.4333905E+000  0.2584465E+03  0.7546771E-02  0.1108080E+00
         21   -1    0    0  503  502  0.00000000000E+00  0.00000000000E+00  0.25132563883E+03  0.25132563883E+03  0.00000000000E+00 0.  1.
         21   -1    0    0  501  503 -0.00000000000E+00 -0.00000000000E+00 -0.27187707741E+03  0.27187707741E+03  0.00000000000E+00 0.  1.
          6    1    1    2  501    0 -0.18104786105E+03  0.63931732356E+02 -0.49486150933E+02  0.26314154657E+03  0.17300000000E+03 0.  1.
         -6    1    1    2    0  502  0.18104786105E+03 -0.63931732356E+02  0.28934712348E+02  0.26006116968E+03  0.17300000000E+03 0.  1.
<mgrwt>
<rscale>  2 0.25844650E+03</rscale>
<asrwt>0</asrwt>
<pdfrwt beam="1">  1       21 0.38665483E-01 0.25844650E+03</pdfrwt>
<pdfrwt beam="2">  1       21 0.41827243E-01 0.25844650E+03</pdfrwt>
<totfact> 0.34393561E+04</totfact>
</mgrwt>
</event>
<event>
 4    1  0.4333905E+000  0.2135070E+03  0.7546771E-02  0.1138819E+00
         21   -1    0    0  503  502  0.00000000000E+00  0.00000000000E+00  0.22846426217E+04  0.22846426217E+04  0.00000000000E+00 0.  1.
         21   -1    0    0  501  503 -0.00000000000E+00 -0.00000000000E+00 -0.78138152341E+02  0.78138152341E+02  0.00000000000E+00 0. -1.
          6    1    1    2  501    0  0.61494460351E+02 -0.10897097480E+03  0.83796598962E+02  0.22936240320E+03  0.17300000000E+03 0. -1.
         -6    1    1    2    0  502 -0.61494460351E+02  0.10897097480E+03  0.21227078704E+04  0.21334183708E+04  0.17300000000E+03 0.  1.
<mgrwt>
<rscale>  2 0.21350701E+03</rscale>
<asrwt>0</asrwt>
<pdfrwt beam="1">  1       21 0.35148343E+00 0.21350701E+03</pdfrwt>
<pdfrwt beam="2">  1       21 0.12021256E-01 0.21350701E+03</pdfrwt>
<totfact> 0.97371190E+02</totfact>
</mgrwt>
</event>
<event>
 4    1  0.4333905E+000  0.1793205E+03  0.7546771E-02  0.1168462E+00
         21   -1    0    0  501  502  0.00000000000E+00  0.00000000000E+00  0.64730883502E+03  0.64730883502E+03  0.00000000000E+00 0.  1.
         21   -1    0    0  502  503 -0.00000000000E+00 -0.00000000000E+00 -0.74530524588E+02  0.74530524588E+02  0.00000000000E+00 0.  1.
          6    1    1    2  501    0 -0.22554904403E+02 -0.41450067289E+02  0.49481165986E+03  0.52630258457E+03  0.17300000000E+03 0.  1.
         -6    1    1    2    0  503  0.22554904403E+02  0.41450067289E+02  0.77966650570E+02  0.19553677504E+03  0.17300000000E+03 0.  1.
<mgrwt>
<rscale>  2 0.17932047E+03</rscale>
<asrwt>0</asrwt>
<pdfrwt beam="1">  1       21 0.99585971E-01 0.17932047E+03</pdfrwt>
<pdfrwt beam="2">  1       21 0.11466235E-01 0.17932047E+03</pdfrwt>
<totfact> 0.53117904E+04</totfact>
</mgrwt>
</event>
<event>
 4    1  0.4333905E+000  0.2581853E+03  0.7546771E-02  0.1108238E+00
         21   -1    0    0  501  502  0.00000000000E+00  0.00000000000E+00  0.98853141329E+03  0.98853141329E+03  0.00000000000E+00 0. -1.
         21   -1    0    0  502  503 -0.00000000000E+00 -0.00000000000E+00 -0.12770550912E+03  0.12770550912E+03  0.00000000000E+00 0. -1.
          6    1    1    2  501    0  0.98013824808E+01 -0.19140159404E+03  0.81383864657E+03  0.85381085724E+03  0.17300000000E+03 0. -1.
         -6    1    1    2    0  503 -0.98013824808E+01  0.19140159404E+03  0.46987257606E+02  0.26242606516E+03  0.17300000000E+03 0. -1.
<mgrwt>
<rscale>  2 0.25818528E+03</rscale>
<asrwt>0</asrwt>
<pdfrwt beam="1">  1       21 0.15208175E+00 0.25818528E+03</pdfrwt>
<pdfrwt beam="2">  1       21 0.19647002E-01 0.25818528E+03</pdfrwt>
<totfact> 0.65622317E+03</totfact>
</mgrwt>
</event>
<event>
 4    1  0.4333905E+000  0.1814108E+03  0.7546771E-02  0.1166445E+00
         21   -1    0    0  501  502  0.00000000000E+00  0.00000000000E+00  0.69657782055E+02  0.69657782055E+02  0.00000000000E+00 0.  1.
         21   -1    0    0  502  503 -0.00000000000E+00 -0.00000000000E+00 -0.12501225020E+04  0.12501225020E+04  0.00000000000E+00 0.  1.
          6    1    1    2  501    0  0.38842755372E+02  0.38368070094E+02 -0.69764964953E+02  0.19436311065E+03  0.17300000000E+03 0.  1.
         -6    1    1    2    0  503 -0.38842755372E+02 -0.38368070094E+02 -0.11106997550E+04  0.11254171734E+04  0.17300000000E+03 0.  1.
<mgrwt>
<rscale>  2 0.18141077E+03</rscale>
<asrwt>0</asrwt>
<pdfrwt beam="1">  1       21 0.10716582E-01 0.18141077E+03</pdfrwt>
<pdfrwt beam="2">  1       21 0.19232654E+00 0.18141077E+03</pdfrwt>
<totfact> 0.10910740E+04</totfact>
</mgrwt>
</event>
<event>
 4    1  0.4333905E+000  0.1821292E+03  0.7546771E-02  0.1165758E+00
         21   -1    0    0  501  502  0.00000000000E+00  0.00000000000E+00  0.71742537347E+02  0.71742537347E+02  0.00000000000E+00 0.  1.
         21   -1    0    0  502  503 -0.00000000000E+00 -0.00000000000E+00 -0.92859840701E+03  0.92859840701E+03  0.00000000000E+00 0. -1.
          6    1    1    2  501    0 -0.44121269671E+02  0.35990985016E+02 -0.74017026529E+02  0.19659490750E+03  0.17300000000E+03 0.  1.
         -6    1    1    2    0  503  0.44121269671E+02 -0.35990985016E+02 -0.78283884313E+03  0.80374603685E+03  0.17300000000E+03 0. -1.
<mgrwt>
<rscale>  2 0.18212918E+03</rscale>
<asrwt>0</asrwt>
<pdfrwt beam="1">  1       21 0.11037315E-01 0.18212918E+03</pdfrwt>
<pdfrwt beam="2">  1       21 0.14286128E+00 0.18212918E+03</pdfrwt>
<totfact> 0.23288465E+04</totfact>
</mgrwt>
</event>
<event>
 4    1  0.4333905E+000  0.1793481E+03  0.7546771E-02  0.1168435E+00
         21   -1    0    0  501  502  0.00000000000E+00  0.00000000000E+00  0.77566421103E+03  0.77566421103E+03  0.00000000000E+00 0. -1.
         21   -1    0    0  502  503 -0.00000000000E+00 -0.00000000000E+00 -0.18590781303E+03  0.18590781303E+03  0.00000000000E+00 0.  1.
          6    1    1    2  501    0 -0.15607925066E+02 -0.44644674292E+02  0.71866309266E+03  0.74070398610E+03  0.17300000000E+03 0. -1.
         -6    1    1    2    0  503  0.15607925066E+02  0.44644674292E+02 -0.12890669465E+03  0.22086803796E+03  0.17300000000E+03 0.  1.
<mgrwt>
<rscale>  2 0.17934814E+03</rscale>
<asrwt>0</asrwt>
<pdfrwt beam="1">  1       21 0.11933295E+00 0.17934814E+03</pdfrwt>
<pdfrwt beam="2">  1       21 0.28601202E-01 0.17934814E+03</pdfrwt>
<totfact> 0.63270134E+03</totfact>
</mgrwt>
</event>
<event>
 4    1  0.4333905E+000  0.2117601E+03  0.7546771E-02  0.1140180E+00
         21   -1    0    0  503  502  0.00000000000E+00  0.00000000000E+00  0.64779321952E+02  0.64779321952E+02  0.00000000000E+00 0.  1.
         21   -1    0    0  501  503 -0.00000000000E+00 -0.00000000000E+00 -0.89196704607E+03  0.89196704607E+03  0.00000000000E+00 0. -1.
          6    1    1    2  501    0  0.11777924399E+03 -0.32270636863E+02 -0.63996400437E+03  0.67408921606E+03  0.17300000000E+03 0. -1.
         -6    1    1    2    0  502 -0.11777924399E+03  0.32270636863E+02 -0.18722371975E+03  0.28265715196E+03  0.17300000000E+03 0. -1.
<mgrwt>
<rscale>  2 0.21176011E+03</rscale>
<asrwt>0</asrwt>
<pdfrwt beam="1">  1       21 0.99660497E-02 0.21176011E+03</pdfrwt>
<pdfrwt beam="2">  1       21 0.13722570E+00 0.21176011E+03</pdfrwt>
<totfact> 0.30407330E+04</totfact>
</mgrwt>
</event>
<event>
 4    1  0.4333905E+000  0.1866066E+03  0.7546771E-02  0.1161558E+00
         21   -1    0    0  503  502  0.00000000000E+00  0.00000000000E+00  0.93570744601E+03  0.93570744601E+03  0.00000000000E+00 0.  1.
         21   -1    0    0  501  503 -0.00000000000E+00 -0.00000000000E+00 -0.13997606593E+03  0.13997606593E+03  0.00000000000E+00 0.  1.
          6    1    1    2  501    0  0.58136760075E+02  0.38899001724E+02 -0.62966371465E+02  0.19694359381E+03  0.17300000000E+03 0.  1.
         -6    1    1    2    0  502 -0.58136760075E+02 -0.38899001724E+02  0.85869775154E+03  0.87873991813E+03  0.17300000000E+03 0.  1.
<mgrwt>
<rscale>  2 0.18660658E+03</rscale>
<asrwt>0</asrwt>
<pdfrwt beam="1">  1       21 0.14395499E+00 0.18660658E+03</pdfrwt>
<pdfrwt beam="2">  1       21 0.21534780E-01 0.18660658E+03</pdfrwt>
<totfact> 0.67221119E+03</totfact>
</mgrwt>
</event>
<event>
 4    1  0.4333905E+000  0.2214321E+03  0.7546771E-02  0.1132820E+00
         21   -1    0    0  503  502  0.00000000000E+00  0.00000000000E+00  0.76128491946E+02  0.76128491946E+02  0.00000000000E+00 0. -1.
         21   -1    0    0  501  503 -0.00000000000E+00 -0.00000000000E+00 -0.90579921385E+03  0.90579921385E+03  0.00000000000E+00 0. -1.
          6    1    1    2  501    0  0.11832294224E+03 -0.71434373695E+02 -0.67874693914E+03  0.71395349694E+03  0.17300000000E+03 0. -1.
         -6    1    1    2    0  502 -0.11832294224E+03  0.71434373695E+02 -0.15092378276E+03  0.26797420885E+03  0.17300000000E+03 0. -1.
<mgrwt>
<rscale>  2 0.22143213E+03</rscale>
<asrwt>0</asrwt>
<pdfrwt beam="1">  1       21 0.11712077E-01 0.22143213E+03</pdfrwt>
<pdfrwt beam="2">  1       21 0.13935371E+00 0.22143213E+03</pdfrwt>
<totfact> 0.21795970E+04</totfact>
</mgrwt>
</event>
<event>
 4    1  0.4333905E+000  0.3613191E+03  0.7546771E-02  0.1058063E+00
         21   -1    0    0  503  502  0.00000000000E+00  0.00000000000E+00  0.55982721701E+03  0.55982721701E+03  0.00000000000E+00 0.  1.
         21   -1    0    0  501  503 -0.00000000000E+00 -0.00000000000E+00 -0.23775635627E+03  0.23775635627E+03  0.00000000000E+00 0. -1.
          6    1    1    2  501    0  0.31697532457E+03  0.12210690957E+02  0.21624447424E+03  0.42108565637E+03  0.17300000000E+03 0.  1.
         -6    1    1    2    0  502 -0.31697532457E+03 -0.12210690957E+02  0.10582638650E+03  0.37649791691E+03  0.17300000000E+03 0. -1.
<mgrwt>
<rscale>  2 0.36131905E+03</rscale>
<asrwt>0</asrwt>
<pdfrwt beam="1">  1       21 0.86127264E-01 0.36131905E+03</pdfrwt>
<pdfrwt beam="2">  1       21 0.36577901E-01 0.36131905E+03</pdfrwt>
<totfact> 0.76590241E+03</totfact>
</mgrwt>
</event>
<event>
 4    1  0.4333905E+000  0.2729516E+03  0.7546771E-02  0.1099602E+00
         21   -1    0    0  501  502  0.00000000000E+00  0.00000000000E+00  0.89537334557E+03  0.89537334557E+03  0.00000000000E+00 0.  1.
         21   -1    0    0  502  503 -0.00000000000E+00 -0.00000000000E+00 -0.10365430104E+03  0.10365430104E+03  0.00000000000E+00 0. -1.
          6    1    1    2  501    0  0.18982312463E+03 -0.92416255938E+02  0.61770826937E+03  0.67532665360E+03  0.17300000000E+03 0.  1.
         -6    1    1    2    0  503 -0.18982312463E+03  0.92416255938E+02  0.17401077516E+03  0.32370099302E+03  0.17300000000E+03 0. -1.
<mgrwt>
<rscale>  2 0.27295161E+03</rscale>
<asrwt>0</asrwt>
<pdfrwt beam="1">  1       21 0.13774974E+00 0.27295161E+03</pdfrwt>
<pdfrwt beam="2">  1       21 0.15946816E-01 0.27295161E+03</pdfrwt>
<totfact> 0.12456969E+04</totfact>
</mgrwt>
</event>
<event>
 4    1  0.4333905E+000  0.4146531E+03  0.7546771E-02  0.1038821E+00
         21   -1    0    0  503  502  0.00000000000E+00  0.00000000000E+00  0.22851247680E+03  0.22851247680E+03  0.00000000000E+00 0.  1.
         21   -1    0    0  501  503 -0.00000000000E+00 -0.00000000000E+00 -0.11301016931E+04  0.11301016931E+04  0.00000000000E+00 0. -1.
          6    1    1    2  501    0 -0.37038886707E+03 -0.69428486829E+02 -0.58085769487E+02  0.41870178439E+03  0.17300000000E+03 0.  1.
         -6    1    1    2    0  502  0.37038886707E+03  0.69428486829E+02 -0.84350344679E+03  0.93991238548E+03  0.17300000000E+03 0. -1.
<mgrwt>
<rscale>  2 0.41465314E+03</rscale>
<asrwt>0</asrwt>
<pdfrwt beam="1">  1       21 0.35155765E-01 0.41465314E+03</pdfrwt>
<pdfrwt beam="2">  1       21 0.17386180E+00 0.41465314E+03</pdfrwt>
<totfact> 0.13424480E+03</totfact>
</mgrwt>
</event>
<event>
 4    1  0.4333905E+000  0.1758928E+03  0.7546771E-02  0.1171838E+00
         21   -1    0    0  503  502  0.00000000000E+00  0.00000000000E+00  0.99522785201E+02  0.99522785201E+02  0.00000000000E+00 0. -1.
         21   -1    0    0  501  503 -0.00000000000E+00 -0.00000000000E+00 -0.44653524970E+03  0.44653524970E+03  0.00000000000E+00 0. -1.
          6    1    1    2  501    0  0.31453998549E+02  0.44650016285E+01 -0.32400086052E+03  0.36866630967E+03  0.17300000000E+03 0. -1.
         -6    1    1    2    0  502 -0.31453998549E+02 -0.44650016285E+01 -0.23011603978E+02  0.17739172524E+03  0.17300000000E+03 0. -1.
<mgrwt>
<rscale>  2 0.17589284E+03</rscale>
<asrwt>0</asrwt>
<pdfrwt beam="1">  1       21 0.15311198E-01 0.17589284E+03</pdfrwt>
<pdfrwt beam="2">  1       21 0.68697731E-01 0.17589284E+03</pdfrwt>
<totfact> 0.73500449E+04</totfact>
</mgrwt>
</event>
<event>
 4    1  0.4333905E+000  0.2899630E+03  0.7546771E-02  0.1090368E+00
         21   -1    0    0  503  502  0.00000000000E+00  0.00000000000E+00  0.70589164985E+03  0.70589164985E+03  0.00000000000E+00 0.  1.
         21   -1    0    0  501  503 -0.00000000000E+00 -0.00000000000E+00 -0.13339317599E+03  0.13339317599E+03  0.00000000000E+00 0. -1.
          6    1    1    2  501    0  0.21598880735E+03 -0.86593325291E+02  0.42356770775E+03  0.51331098950E+03  0.17300000000E+03 0.  1.
         -6    1    1    2    0  502 -0.21598880735E+03  0.86593325291E+02  0.14893076611E+03  0.32597383634E+03  0.17300000000E+03 0.  1.
<mgrwt>
<rscale>  2 0.28996305E+03</rscale>
<asrwt>0</asrwt>
<pdfrwt beam="1">  1       21 0.10859871E+00 0.28996305E+03</pdfrwt>
<pdfrwt beam="2">  1       21 0.20522027E-01 0.28996305E+03</pdfrwt>
<totfact> 0.14032723E+04</totfact>
</mgrwt>
</event>
<event>
 4    1  0.4333905E+000  0.2181611E+03  0.7546771E-02  0.1135261E+00
         21   -1    0    0  503  502  0.00000000000E+00  0.00000000000E+00  0.39904377156E+03  0.39904377156E+03  0.00000000000E+00 0.  1.
         21   -1    0    0  501  503 -0.00000000000E+00 -0.00000000000E+00 -0.12261186826E+03  0.12261186826E+03  0.00000000000E+00 0.  1.
          6    1    1    2  501    0  0.10520518961E+03 -0.81222718599E+02  0.95160155669E+02  0.23801201055E+03  0.17300000000E+03 0.  1.
         -6    1    1    2    0  502 -0.10520518961E+03  0.81222718599E+02  0.18127174763E+03  0.28364362927E+03  0.17300000000E+03 0.  1.
<mgrwt>
<rscale>  2 0.21816109E+03</rscale>
<asrwt>0</asrwt>
<pdfrwt beam="1">  1       21 0.61391349E-01 0.21816109E+03</pdfrwt>
<pdfrwt beam="2">  1       21 0.18863365E-01 0.21816109E+03</pdfrwt>
<totfact> 0.62761705E+04</totfact>
</mgrwt>
</event>
<event>
 4    1  0.4333905E+000  0.2123471E+03  0.7546771E-02  0.1139721E+00
         21   -1    0    0  501  502  0.00000000000E+00  0.00000000000E+00  0.10393027313E+03  0.10393027313E+03  0.00000000000E+00 0. -1.
         21   -1    0    0  502  503 -0.00000000000E+00 -0.00000000000E+00 -0.44734415160E+03  0.44734415160E+03  0.00000000000E+00 0. -1.
          6    1    1    2  501    0  0.12294419988E+03  0.68579353927E+01 -0.12385381473E+03  0.24582732758E+03  0.17300000000E+03 0. -1.
         -6    1    1    2    0  503 -0.12294419988E+03 -0.68579353927E+01 -0.21956006375E+03  0.30544709715E+03  0.17300000000E+03 0. -1.
<mgrwt>
<rscale>  2 0.21234714E+03</rscale>
<asrwt>0</asrwt>
<pdfrwt beam="1">  1       21 0.15989273E-01 0.21234714E+03</pdfrwt>
<pdfrwt beam="2">  1       21 0.68822177E-01 0.21234714E+03</pdfrwt>
<totfact> 0.66551053E+04</totfact>
</mgrwt>
</event>
<event>
 4    1  0.4333905E+000  0.1934499E+03  0.7546771E-02  0.1155386E+00
         21   -1    0    0  503  502  0.00000000000E+00  0.00000000000E+00  0.80598813747E+02  0.80598813747E+02  0.00000000000E+00 0. -1.
         21   -1    0    0  501  503 -0.00000000000E+00 -0.00000000000E+00 -0.48033299579E+03  0.48033299579E+03  0.00000000000E+00 0. -1.
          6    1    1    2  501    0 -0.71865261593E+02 -0.48262393045E+02 -0.25109116682E+03  0.31696947559E+03  0.17300000000E+03 0. -1.
         -6    1    1    2    0  502  0.71865261593E+02  0.48262393045E+02 -0.14864301523E+03  0.24396233394E+03  0.17300000000E+03 0. -1.
<mgrwt>
<rscale>  2 0.19344993E+03</rscale>
<asrwt>0</asrwt>
<pdfrwt beam="1">  1       21 0.12399818E-01 0.19344993E+03</pdfrwt>
<pdfrwt beam="2">  1       21 0.73897381E-01 0.19344993E+03</pdfrwt>
<totfact> 0.90909575E+04</totfact>
</mgrwt>
</event>
<event>
 4    1  0.4333905E+000  0.1839116E+03  0.7546771E-02  0.1164070E+00
         21   -1    0    0  503  502  0.00000000000E+00  0.00000000000E+00  0.17862387572E+03  0.17862387572E+03  0.00000000000E+00 0. -1.
         21   -1    0    0  501  503 -0.00000000000E+00 -0.00000000000E+00 -0.83602819042E+03  0.83602819042E+03  0.00000000000E+00 0. -1.
          6    1    1    2  501    0  0.44742636405E+02  0.43503797002E+02 -0.77489111197E+03  0.79641679997E+03  0.17300000000E+03 0. -1.
         -6    1    1    2    0  502 -0.44742636405E+02 -0.43503797002E+02  0.11748679727E+03  0.21823526617E+03  0.17300000000E+03 0. -1.
<mgrwt>
<rscale>  2 0.18391162E+03</rscale>
<asrwt>0</asrwt>
<pdfrwt beam="1">  1       21 0.27480596E-01 0.18391162E+03</pdfrwt>
<pdfrwt beam="2">  1       21 0.12861972E+00 0.18391162E+03</pdfrwt>
<totfact> 0.56490701E+03</totfact>
</mgrwt>
</event>
<event>
 4    1  0.4333905E+000  0.1968940E+03  0.7546771E-02  0.1152386E+00
         21   -1    0    0  503  502  0.00000000000E+00  0.00000000000E+00  0.13380739664E+02  0.13380739664E+02  0.00000000000E+00 0.  1.
         21   -1    0    0  501  503 -0.00000000000E+00 -0.00000000000E+00 -0.29003573313E+04  0.29003573313E+04  0.00000000000E+00 0.  1.
          6    1    1    2  501    0  0.64739349602E+02  0.68169283074E+02 -0.14912390497E+04  0.15041812185E+04  0.17300000000E+03 0. -1.
         -6    1    1    2    0  502 -0.64739349602E+02 -0.68169283074E+02 -0.13957375419E+04  0.14095568525E+04  0.17300000000E+03 0. -1.
<mgrwt>
<rscale>  2 0.19689397E+03</rscale>
<asrwt>0</asrwt>
<pdfrwt beam="1">  1       21 0.20585756E-02 0.19689397E+03</pdfrwt>
<pdfrwt beam="2">  1       21 0.44620876E+00 0.19689397E+03</pdfrwt>
<totfact> 0.51457214E+03</totfact>
</mgrwt>
</event>
<event>
 4    1  0.4333905E+000  0.2858035E+03  0.7546771E-02  0.1092561E+00
         21   -1    0    0  501  502  0.00000000000E+00  0.00000000000E+00  0.62134607910E+03  0.62134607910E+03  0.00000000000E+00 0. -1.
         21   -1    0    0  502  503 -0.00000000000E+00 -0.00000000000E+00 -0.61410722416E+03  0.61410722416E+03  0.00000000000E+00 0.  1.
          6    1    1    2  501    0 -0.19457048348E+03  0.11788538197E+03  0.55125048524E+03  0.62093537006E+03  0.17300000000E+03 0. -1.
         -6    1    1    2    0  503  0.19457048348E+03 -0.11788538197E+03 -0.54401163030E+03  0.61451793320E+03  0.17300000000E+03 0.  1.
<mgrwt>
<rscale>  2 0.28580349E+03</rscale>
<asrwt>0</asrwt>
<pdfrwt beam="1">  1       21 0.95591704E-01 0.28580349E+03</pdfrwt>
<pdfrwt beam="2">  1       21 0.94478035E-01 0.28580349E+03</pdfrwt>
<totfact> 0.79078423E+02</totfact>
</mgrwt>
</event>
<event>
 4    1  0.4333905E+000  0.2284213E+03  0.7546771E-02  0.1127756E+00
         21   -1    0    0  501  502  0.00000000000E+00  0.00000000000E+00  0.48788046768E+03  0.48788046768E+03  0.00000000000E+00 0.  1.
         21   -1    0    0  502  503 -0.00000000000E+00 -0.00000000000E+00 -0.18712402553E+03  0.18712402553E+03  0.00000000000E+00 0.  1.
          6    1    1    2  501    0 -0.65036078189E+01  0.14901347326E+03  0.37130208840E+03  0.43593755628E+03  0.17300000000E+03 0.  1.
         -6    1    1    2    0  503  0.65036078189E+01 -0.14901347326E+03 -0.70545646243E+02  0.23906693693E+03  0.17300000000E+03 0.  1.
<mgrwt>
<rscale>  2 0.22842135E+03</rscale>
<asrwt>0</asrwt>
<pdfrwt beam="1">  1       21 0.75058533E-01 0.22842135E+03</pdfrwt>
<pdfrwt beam="2">  1       21 0.28788312E-01 0.22842135E+03</pdfrwt>
<totfact> 0.17941726E+04</totfact>
</mgrwt>
</event>
<event>
 4    1  0.4333905E+000  0.3633875E+03  0.7546771E-02  0.1057251E+00
         21   -1    0    0  501  502  0.00000000000E+00  0.00000000000E+00  0.45335436628E+03  0.45335436628E+03  0.00000000000E+00 0. -1.
         21   -1    0    0  502  503 -0.00000000000E+00 -0.00000000000E+00 -0.34355021806E+03  0.34355021806E+03  0.00000000000E+00 0.  1.
          6    1    1    2  501    0 -0.22558373227E+03 -0.22634801578E+03  0.21033117518E+03  0.41986860773E+03  0.17300000000E+03 0. -1.
         -6    1    1    2    0  503  0.22558373227E+03  0.22634801578E+03 -0.10052702695E+03  0.37703597661E+03  0.17300000000E+03 0.  1.
<mgrwt>
<rscale>  2 0.36338746E+03</rscale>
<asrwt>0</asrwt>
<pdfrwt beam="1">  1       21 0.69746826E-01 0.36338746E+03</pdfrwt>
<pdfrwt beam="2">  1       21 0.52853879E-01 0.36338746E+03</pdfrwt>
<totfact> 0.57655656E+03</totfact>
</mgrwt>
</event>
<event>
 4    1  0.4333905E+000  0.2403724E+03  0.7546771E-02  0.1119545E+00
         21   -1    0    0  503  502  0.00000000000E+00  0.00000000000E+00  0.11011276259E+04  0.11011276259E+04  0.00000000000E+00 0. -1.
         21   -1    0    0  501  503 -0.00000000000E+00 -0.00000000000E+00 -0.58010180121E+02  0.58010180121E+02  0.00000000000E+00 0. -1.
          6    1    1    2  501    0 -0.65084308824E+02  0.15366815816E+03  0.70062700004E+03  0.74071388759E+03  0.17300000000E+03 0. -1.
         -6    1    1    2    0  502  0.65084308824E+02 -0.15366815816E+03  0.34249044573E+03  0.41842391842E+03  0.17300000000E+03 0. -1.
<mgrwt>
<rscale>  2 0.24037236E+03</rscale>
<asrwt>0</asrwt>
<pdfrwt beam="1">  1       21 0.16940423E+00 0.24037236E+03</pdfrwt>
<pdfrwt beam="2">  1       21 0.89246439E-02 0.24037236E+03</pdfrwt>
<totfact> 0.20707929E+04</totfact>
</mgrwt>
</event>
<event>
 4    1  0.4333905E+000  0.1921911E+03  0.7546771E-02  0.1156500E+00
         21   -1    0    0  501  502  0.00000000000E+00  0.00000000000E+00  0.83919980746E+03  0.83919980746E+03  0.00000000000E+00 0.  1.
         21   -1    0    0  502  503 -0.00000000000E+00 -0.00000000000E+00 -0.73993441150E+02  0.73993441150E+02  0.00000000000E+00 0.  1.
          6    1    1    2  501    0 -0.63045372192E+02 -0.55078907354E+02  0.67323314648E+03  0.70012875566E+03  0.17300000000E+03 0.  1.
         -6    1    1    2    0  503  0.63045372192E+02  0.55078907354E+02  0.91973219839E+02  0.21306449295E+03  0.17300000000E+03 0.  1.
<mgrwt>
<rscale>  2 0.19219106E+03</rscale>
<asrwt>0</asrwt>
<pdfrwt beam="1">  1       21 0.12910766E+00 0.19219106E+03</pdfrwt>
<pdfrwt beam="2">  1       21 0.11383607E-01 0.19219106E+03</pdfrwt>
<totfact> 0.28367297E+04</totfact>
</mgrwt>
</event>
<event>
 4    1  0.4333905E+000  0.2033267E+03  0.7546771E-02  0.1146962E+00
         21   -1    0    0  503  502  0.00000000000E+00  0.00000000000E+00  0.48558629180E+03  0.48558629180E+03  0.00000000000E+00 0. -1.
         21   -1    0    0  501  503 -0.00000000000E+00 -0.00000000000E+00 -0.10865245888E+03  0.10865245888E+03  0.00000000000E+00 0. -1.
          6    1    1    2  501    0 -0.46613909284E+02  0.96124451915E+02  0.50243956416E+02  0.20944264597E+03  0.17300000000E+03 0. -1.
         -6    1    1    2    0  502  0.46613909284E+02 -0.96124451915E+02  0.32668987650E+03  0.38479610471E+03  0.17300000000E+03 0. -1.
<mgrwt>
<rscale>  2 0.20332675E+03</rscale>
<asrwt>0</asrwt>
<pdfrwt beam="1">  1       21 0.74705582E-01 0.20332675E+03</pdfrwt>
<pdfrwt beam="2">  1       21 0.16715763E-01 0.20332675E+03</pdfrwt>
<totfact> 0.51342188E+04</totfact>
</mgrwt>
</event>
<event>
 4    1  0.4333905E+000  0.2652710E+03  0.7546771E-02  0.1104017E+00
         21   -1    0    0  503  502  0.00000000000E+00  0.00000000000E+00  0.59864047823E+03  0.59864047823E+03  0.00000000000E+00 0.  1.
         21   -1    0    0  501  503 -0.00000000000E+00 -0.00000000000E+00 -0.13267630946E+03  0.13267630946E+03  0.00000000000E+00 0.  1.
          6    1    1    2  501    0  0.18827512722E+03  0.70655191272E+02  0.35645779123E+03  0.44433189905E+03  0.17300000000E+03 0.  1.
         -6    1    1    2    0  502 -0.18827512722E+03 -0.70655191272E+02  0.10950637754E+03  0.28698488863E+03  0.17300000000E+03 0.  1.
<mgrwt>
<rscale>  2 0.26527096E+03</rscale>
<asrwt>0</asrwt>
<pdfrwt beam="1">  1       21 0.92098533E-01 0.26527096E+03</pdfrwt>
<pdfrwt beam="2">  1       21 0.20411740E-01 0.26527096E+03</pdfrwt>
<totfact> 0.21285629E+04</totfact>
</mgrwt>
</event>
<event>
 4    1  0.4333905E+000  0.1847624E+03  0.7546771E-02  0.1163272E+00
         21   -1    0    0  503  502  0.00000000000E+00  0.00000000000E+00  0.36236008564E+02  0.36236008564E+02  0.00000000000E+00 0. -1.
         21   -1    0    0  501  503 -0.00000000000E+00 -0.00000000000E+00 -0.11001950872E+04  0.11001950872E+04  0.00000000000E+00 0. -1.
          6    1    1    2  501    0  0.62047487996E+02 -0.18927272406E+02 -0.74739069871E+03  0.76988959528E+03  0.17300000000E+03 0. -1.
         -6    1    1    2    0  502 -0.62047487996E+02  0.18927272406E+02 -0.31656837994E+03  0.36654150049E+03  0.17300000000E+03 0. -1.
<mgrwt>
<rscale>  2 0.18476237E+03</rscale>
<asrwt>0</asrwt>
<pdfrwt beam="1">  1       21 0.55747708E-02 0.18476237E+03</pdfrwt>
<pdfrwt beam="2">  1       21 0.16926077E+00 0.18476237E+03</pdfrwt>
<totfact> 0.48505542E+04</totfact>
</mgrwt>
</event>
<event>
 4    1  0.4333905E+000  0.2093226E+03  0.7546771E-02  0.1142104E+00
         21   -1    0    0  503  502  0.00000000000E+00  0.00000000000E+00  0.25434217631E+03  0.25434217631E+03  0.00000000000E+00 0.  1.
         21   -1    0    0  501  503 -0.00000000000E+00 -0.00000000000E+00 -0.26753668972E+03  0.26753668972E+03  0.00000000000E+00 0.  1.
          6    1    1    2  501    0  0.11782038576E+03 -0.23063364427E+01 -0.16230659956E+03  0.26487618759E+03  0.17300000000E+03 0.  1.
         -6    1    1    2    0  502 -0.11782038576E+03  0.23063364427E+01  0.14911208616E+03  0.25700267844E+03  0.17300000000E+03 0.  1.
<mgrwt>
<rscale>  2 0.20932263E+03</rscale>
<asrwt>0</asrwt>
<pdfrwt beam="1">  1       21 0.39129566E-01 0.20932263E+03</pdfrwt>
<pdfrwt beam="2">  1       21 0.41159491E-01 0.20932263E+03</pdfrwt>
<totfact> 0.35485582E+04</totfact>
</mgrwt>
</event>
<event>
 4    1  0.4333905E+000  0.2382077E+03  0.7546771E-02  0.1120993E+00
         21   -1    0    0  501  502  0.00000000000E+00  0.00000000000E+00  0.42666364743E+03  0.42666364743E+03  0.00000000000E+00 0. -1.
         21   -1    0    0  502  503 -0.00000000000E+00 -0.00000000000E+00 -0.37719788623E+03  0.37719788623E+03  0.00000000000E+00 0.  1.
          6    1    1    2  501    0 -0.86217396537E+02 -0.13921371170E+03  0.34813629161E+03  0.42183145275E+03  0.17300000000E+03 0. -1.
         -6    1    1    2    0  503  0.86217396537E+02  0.13921371170E+03 -0.29867053041E+03  0.38203008092E+03  0.17300000000E+03 0.  1.
<mgrwt>
<rscale>  2 0.23820768E+03</rscale>
<asrwt>0</asrwt>
<pdfrwt beam="1">  1       21 0.65640561E-01 0.23820768E+03</pdfrwt>
<pdfrwt beam="2">  1       21 0.58030444E-01 0.23820768E+03</pdfrwt>
<totfact> 0.57500005E+03</totfact>
</mgrwt>
</event>
<event>
 4    1  0.4333905E+000  0.1802432E+03  0.7546771E-02  0.1167568E+00
         21   -1    0    0  501  502  0.00000000000E+00  0.00000000000E+00  0.78285638412E+03  0.78285638412E+03  0.00000000000E+00 0.  1.
         21   -1    0    0  502  503 -0.00000000000E+00 -0.00000000000E+00 -0.50496546004E+02  0.50496546004E+02  0.00000000000E+00 0.  1.
          6    1    1    2  501    0 -0.36049535870E+02 -0.35483104327E+02  0.54206718854E+03  0.57124815678E+03  0.17300000000E+03 0.  1.
         -6    1    1    2    0  503  0.36049535870E+02  0.35483104327E+02  0.19029264958E+03  0.26210477335E+03  0.17300000000E+03 0.  1.
<mgrwt>
<rscale>  2 0.18024322E+03</rscale>
<asrwt>0</asrwt>
<pdfrwt beam="1">  1       21 0.12043943E+00 0.18024322E+03</pdfrwt>
<pdfrwt beam="2">  1       21 0.77687000E-02 0.18024322E+03</pdfrwt>
<totfact> 0.66486959E+04</totfact>
</mgrwt>
</event>
<event>
 4    1  0.4333905E+000  0.2146194E+03  0.7546771E-02  0.1137959E+00
         21   -1    0    0  501  502  0.00000000000E+00  0.00000000000E+00  0.38237991104E+02  0.38237991104E+02  0.00000000000E+00 0. -1.
         21   -1    0    0  502  503 -0.00000000000E+00 -0.00000000000E+00 -0.12135405813E+04  0.12135405813E+04  0.00000000000E+00 0. -1.
          6    1    1    2  501    0 -0.12450708819E+03  0.25109606575E+02 -0.64137159938E+03  0.67632760985E+03  0.17300000000E+03 0.  1.
         -6    1    1    2    0  503  0.12450708819E+03 -0.25109606575E+02 -0.53393099081E+03  0.57545096255E+03  0.17300000000E+03 0.  1.
<mgrwt>
<rscale>  2 0.21461945E+03</rscale>
<asrwt>0</asrwt>
<pdfrwt beam="1">  1       21 0.58827678E-02 0.21461945E+03</pdfrwt>
<pdfrwt beam="2">  1       21 0.18669855E+00 0.21461945E+03</pdfrwt>
<totfact> 0.32969110E+04</totfact>
</mgrwt>
</event>
<event>
 4    1  0.4333905E+000  0.1973870E+03  0.7546771E-02  0.1151962E+00
         21   -1    0    0  503  502  0.00000000000E+00  0.00000000000E+00  0.27271665619E+03  0.27271665619E+03  0.00000000000E+00 0.  1.
         21   -1    0    0  501  503 -0.00000000000E+00 -0.00000000000E+00 -0.16240523019E+03  0.16240523019E+03  0.00000000000E+00 0. -1.
          6    1    1    2  501    0 -0.23451934827E+02 -0.92101293253E+02 -0.20309487022E+02  0.19842912268E+03  0.17300000000E+03 0.  1.
         -6    1    1    2    0  502  0.23451934827E+02  0.92101293253E+02  0.13062091302E+03  0.23669276369E+03  0.17300000000E+03 0.  1.
<mgrwt>
<rscale>  2 0.19738703E+03</rscale>
<asrwt>0</asrwt>
<pdfrwt beam="1">  1       21 0.41956409E-01 0.19738703E+03</pdfrwt>
<pdfrwt beam="2">  1       21 0.24985420E-01 0.19738703E+03</pdfrwt>
<totfact> 0.82745705E+04</totfact>
</mgrwt>
</event>
<event>
 4    1  0.4333905E+000  0.2561252E+03  0.7546771E-02  0.1109494E+00
         21   -1    0    0  503  502  0.00000000000E+00  0.00000000000E+00  0.15540441604E+03  0.15540441604E+03  0.00000000000E+00 0.  1.
         21   -1    0    0  501  503 -0.00000000000E+00 -0.00000000000E+00 -0.45153997656E+03  0.45153997656E+03  0.00000000000E+00 0.  1.
          6    1    1    2  501    0 -0.12480239846E+02 -0.18845517553E+03 -0.70611954823E+02  0.26568055581E+03  0.17300000000E+03 0.  1.
         -6    1    1    2    0  502  0.12480239846E+02  0.18845517553E+03 -0.22552360570E+03  0.34126383679E+03  0.17300000000E+03 0.  1.
<mgrwt>
<rscale>  2 0.25612518E+03</rscale>
<asrwt>0</asrwt>
<pdfrwt beam="1">  1       21 0.23908372E-01 0.25612518E+03</pdfrwt>
<pdfrwt beam="2">  1       21 0.69467688E-01 0.25612518E+03</pdfrwt>
<totfact> 0.30107819E+04</totfact>
</mgrwt>
</event>
<event>
 4    1  0.4333905E+000  0.1957097E+03  0.7546771E-02  0.1153410E+00
         21   -1    0    0  503  502  0.00000000000E+00  0.00000000000E+00  0.16899212148E+04  0.16899212148E+04  0.00000000000E+00 0.  1.
         21   -1    0    0  501  503 -0.00000000000E+00 -0.00000000000E+00 -0.58521503022E+02  0.58521503022E+02  0.00000000000E+00 0.  1.
          6    1    1    2  501    0  0.91475809603E+02  0.23390289264E+01  0.13139941925E+03  0.23572887430E+03  0.17300000000E+03 0.  1.
         -6    1    1    2    0  502 -0.91475809603E+02 -0.23390289264E+01  0.15000002925E+04  0.15127138435E+04  0.17300000000E+03 0.  1.
<mgrwt>
<rscale>  2 0.19570972E+03</rscale>
<asrwt>0</asrwt>
<pdfrwt beam="1">  1       21 0.25998784E+00 0.19570972E+03</pdfrwt>
<pdfrwt beam="2">  1       21 0.90033095E-02 0.19570972E+03</pdfrwt>
<totfact> 0.56553881E+03</totfact>
</mgrwt>
</event>
<event>
 4    1  0.4333905E+000  0.1903744E+03  0.7546771E-02  0.1158124E+00
         21   -1    0    0  501  502  0.00000000000E+00  0.00000000000E+00  0.12663220926E+04  0.12663220926E+04  0.00000000000E+00 0.  1.
         21   -1    0    0  502  503 -0.00000000000E+00 -0.00000000000E+00 -0.37872314005E+02  0.37872314005E+02  0.00000000000E+00 0.  1.
          6    1    1    2  501    0  0.25806579700E+02 -0.75149522085E+02  0.93653296547E+03  0.95568636363E+03  0.17300000000E+03 0.  1.
         -6    1    1    2    0  503 -0.25806579700E+02  0.75149522085E+02  0.29191681309E+03  0.34850804293E+03  0.17300000000E+03 0.  1.
<mgrwt>
<rscale>  2 0.19037445E+03</rscale>
<asrwt>0</asrwt>
<pdfrwt beam="1">  1       21 0.19481875E+00 0.19037445E+03</pdfrwt>
<pdfrwt beam="2">  1       21 0.58265108E-02 0.19037445E+03</pdfrwt>
<totfact> 0.30117794E+04</totfact>
</mgrwt>
</event>
<event>
 4    1  0.4333905E+000  0.2416843E+03  0.7546771E-02  0.1118676E+00
         21   -1    0    0  503  502  0.00000000000E+00  0.00000000000E+00  0.12116998353E+03  0.12116998353E+03  0.00000000000E+00 0.  1.
         21   -1    0    0  501  503 -0.00000000000E+00 -0.00000000000E+00 -0.56992184589E+03  0.56992184589E+03  0.00000000000E+00 0.  1.
          6    1    1    2  501    0  0.12788876220E+03  0.11012149453E+03 -0.36004995509E+03  0.43364415045E+03  0.17300000000E+03 0.  1.
         -6    1    1    2    0  502 -0.12788876220E+03 -0.11012149453E+03 -0.88701907264E+02  0.25744767897E+03  0.17300000000E+03 0.  1.
<mgrwt>
<rscale>  2 0.24168425E+03</rscale>
<asrwt>0</asrwt>
<pdfrwt beam="1">  1       21 0.18641536E-01 0.24168425E+03</pdfrwt>
<pdfrwt beam="2">  1       21 0.87680283E-01 0.24168425E+03</pdfrwt>
<totfact> 0.28611191E+04</totfact>
</mgrwt>
</event>
<event>
 4    1  0.4333905E+000  0.2079536E+03  0.7546771E-02  0.1143197E+00
         21   -1    0    0  501  502  0.00000000000E+00  0.00000000000E+00  0.28677854905E+02  0.28677854905E+02  0.00000000000E+00 0.  1.
         21   -1    0    0  502  503 -0.00000000000E+00 -0.00000000000E+00 -0.15204886491E+04  0.15204886491E+04  0.00000000000E+00 0.  1.
          6    1    1    2  501    0 -0.10704050618E+03  0.43104869197E+02 -0.81625232171E+03  0.84232568072E+03  0.17300000000E+03 0.  1.
         -6    1    1    2    0  503  0.10704050618E+03 -0.43104869197E+02 -0.67555847251E+03  0.70684082331E+03  0.17300000000E+03 0.  1.
<mgrwt>
<rscale>  2 0.20795360E+03</rscale>
<asrwt>0</asrwt>
<pdfrwt beam="1">  1       21 0.44119778E-02 0.20795360E+03</pdfrwt>
<pdfrwt beam="2">  1       21 0.23392133E+00 0.20795360E+03</pdfrwt>
<totfact> 0.27197974E+04</totfact>
</mgrwt>
</event>
<event>
 4    1  0.4333905E+000  0.2934320E+03  0.7546771E-02  0.1088571E+00
         21   -1    0    0  501  502  0.00000000000E+00  0.00000000000E+00  0.32606026424E+03  0.32606026424E+03  0.00000000000E+00 0. -1.
         21   -1    0    0  502  503 -0.00000000000E+00 -0.00000000000E+00 -0.32243190442E+03  0.32243190442E+03  0.00000000000E+00 0. -1.
          6    1    1    2  501    0  0.16824314238E+03 -0.16693590338E+03  0.13976517447E+03  0.32501792996E+03  0.17300000000E+03 0. -1.
         -6    1    1    2    0  503 -0.16824314238E+03  0.16693590338E+03 -0.13613681465E+03  0.32347423870E+03  0.17300000000E+03 0. -1.
<mgrwt>
<rscale>  2 0.29343202E+03</rscale>
<asrwt>0</asrwt>
<pdfrwt beam="1">  1       21 0.50163118E-01 0.29343202E+03</pdfrwt>
<pdfrwt beam="2">  1       21 0.49604908E-01 0.29343202E+03</pdfrwt>
<totfact> 0.13890935E+04</totfact>
</mgrwt>
</event>
<event>
 4    1  0.4333905E+000  0.2001492E+03  0.7546771E-02  0.1149613E+00
         21   -1    0    0  503  502  0.00000000000E+00  0.00000000000E+00  0.38254881295E+02  0.38254881295E+02  0.00000000000E+00 0.  1.
         21   -1    0    0  501  503 -0.00000000000E+00 -0.00000000000E+00 -0.12333781540E+04  0.12333781540E+04  0.00000000000E+00 0.  1.
          6    1    1    2  501    0  0.95896261906E+02 -0.30571443463E+02 -0.84460466168E+03  0.86799581839E+03  0.17300000000E+03 0.  1.
         -6    1    1    2    0  502 -0.95896261906E+02  0.30571443463E+02 -0.35051861106E+03  0.40363721694E+03  0.17300000000E+03 0.  1.
<mgrwt>
<rscale>  2 0.20014921E+03</rscale>
<asrwt>0</asrwt>
<pdfrwt beam="1">  1       21 0.58853661E-02 0.20014921E+03</pdfrwt>
<pdfrwt beam="2">  1       21 0.18975049E+00 0.20014921E+03</pdfrwt>
<totfact> 0.31742291E+04</totfact>
</mgrwt>
</event>
<event>
 4    1  0.4333905E+000  0.1943523E+03  0.7546771E-02  0.1154593E+00
         21   -1    0    0  501  502  0.00000000000E+00  0.00000000000E+00  0.44996660042E+03  0.44996660042E+03  0.00000000000E+00 0.  1.
         21   -1    0    0  502  503 -0.00000000000E+00 -0.00000000000E+00 -0.12317965177E+03  0.12317965177E+03  0.00000000000E+00 0.  1.
          6    1    1    2  501    0 -0.85875246185E+02 -0.21662354499E+02  0.32512561495E+03  0.37878685432E+03  0.17300000000E+03 0.  1.
         -6    1    1    2    0  503  0.85875246185E+02  0.21662354499E+02  0.16613336888E+01  0.19435939787E+03  0.17300000000E+03 0.  1.
<mgrwt>
<rscale>  2 0.19435230E+03</rscale>
<asrwt>0</asrwt>
<pdfrwt beam="1">  1       21 0.69225630E-01 0.19435230E+03</pdfrwt>
<pdfrwt beam="2">  1       21 0.18950716E-01 0.19435230E+03</pdfrwt>
<totfact> 0.48423140E+04</totfact>
</mgrwt>
</event>
<event>
 4    1  0.4333905E+000  0.1752500E+03  0.7546771E-02  0.1172481E+00
         21   -1    0    0  503  502  0.00000000000E+00  0.00000000000E+00  0.26493699757E+02  0.26493699757E+02  0.00000000000E+00 0.  1.
         21   -1    0    0  501  503 -0.00000000000E+00 -0.00000000000E+00 -0.13248701651E+04  0.13248701651E+04  0.00000000000E+00 0.  1.
          6    1    1    2  501    0  0.26184228483E+02 -0.98971121541E+01 -0.88809302493E+03  0.90521919311E+03  0.17300000000E+03 0.  1.
         -6    1    1    2    0  502 -0.26184228483E+02  0.98971121541E+01 -0.41028344043E+03  0.44614467176E+03  0.17300000000E+03 0.  1.
<mgrwt>
<rscale>  2 0.17525001E+03</rscale>
<asrwt>0</asrwt>
<pdfrwt beam="1">  1       21 0.40759535E-02 0.17525001E+03</pdfrwt>
<pdfrwt beam="2">  1       21 0.20382620E+00 0.17525001E+03</pdfrwt>
<totfact> 0.48762368E+04</totfact>
</mgrwt>
</event>
<event>
 4    1  0.4333905E+000  0.1800701E+03  0.7546771E-02  0.1167735E+00
         21   -1    0    0  503  502  0.00000000000E+00  0.00000000000E+00  0.33286710435E+03  0.33286710435E+03  0.00000000000E+00 0.  1.
         21   -1    0    0  501  503 -0.00000000000E+00 -0.00000000000E+00 -0.10480604310E+03  0.10480604310E+03  0.00000000000E+00 0.  1.
          6    1    1    2  501    0  0.34442155045E+02 -0.36193398712E+02  0.55904583050E+02  0.18854852574E+03  0.17300000000E+03 0.  1.
         -6    1    1    2    0  502 -0.34442155045E+02  0.36193398712E+02  0.17215647820E+03  0.24912462171E+03  0.17300000000E+03 0.  1.
<mgrwt>
<rscale>  2 0.18007005E+03</rscale>
<asrwt>0</asrwt>
<pdfrwt beam="1">  1       21 0.51210323E-01 0.18007005E+03</pdfrwt>
<pdfrwt beam="2">  1       21 0.16124007E-01 0.18007005E+03</pdfrwt>
<totfact> 0.12516304E+05</totfact>
</mgrwt>
</event>
<event>
 4    1  0.4333905E+000  0.1940264E+03  0.7546771E-02  0.1154879E+00
         21   -1    0    0  501  502  0.00000000000E+00  0.00000000000E+00  0.11648740302E+03  0.11648740302E+03  0.00000000000E+00 0.  1.
         21   -1    0    0  502  503 -0.00000000000E+00 -0.00000000000E+00 -0.60839680922E+03  0.60839680922E+03  0.00000000000E+00 0.  1.
          6    1    1    2  501    0  0.49726580404E+02 -0.72419057575E+02  0.22063912592E+01  0.19403896738E+03  0.17300000000E+03 0.  1.
         -6    1    1    2    0  503 -0.49726580404E+02  0.72419057575E+02 -0.49411579746E+03  0.53084524487E+03  0.17300000000E+03 0.  1.
<mgrwt>
<rscale>  2 0.19402642E+03</rscale>
<asrwt>0</asrwt>
<pdfrwt beam="1">  1       21 0.17921139E-01 0.19402642E+03</pdfrwt>
<pdfrwt beam="2">  1       21 0.93599508E-01 0.19402642E+03</pdfrwt>
<totfact> 0.27125787E+04</totfact>
</mgrwt>
</event>
<event>
 4    1  0.4333905E+000  0.2367682E+03  0.7546771E-02  0.1121965E+00
         21   -1    0    0  501  502  0.00000000000E+00  0.00000000000E+00  0.72983350295E+02  0.72983350295E+02  0.00000000000E+00 0.  1.
         21   -1    0    0  502  503 -0.00000000000E+00 -0.00000000000E+00 -0.77996665893E+03  0.77996665893E+03  0.00000000000E+00 0.  1.
          6    1    1    2  501    0 -0.50912125065E+02 -0.15342148484E+03 -0.30090834132E+03  0.38289035815E+03  0.17300000000E+03 0.  1.
         -6    1    1    2    0  503  0.50912125065E+02  0.15342148484E+03 -0.40607496732E+03  0.47005965108E+03  0.17300000000E+03 0.  1.
<mgrwt>
<rscale>  2 0.23676823E+03</rscale>
<asrwt>0</asrwt>
<pdfrwt beam="1">  1       21 0.11228208E-01 0.23676823E+03</pdfrwt>
<pdfrwt beam="2">  1       21 0.11999487E+00 0.23676823E+03</pdfrwt>
<totfact> 0.34076826E+04</totfact>
</mgrwt>
</event>
<event>
 4    1  0.4333905E+000  0.1812654E+03  0.7546771E-02  0.1166584E+00
         21   -1    0    0  501  502  0.00000000000E+00  0.00000000000E+00  0.72218003335E+03  0.72218003335E+03  0.00000000000E+00 0.  1.
         21   -1    0    0  502  503 -0.00000000000E+00 -0.00000000000E+00 -0.48857404303E+02  0.48857404303E+02  0.00000000000E+00 0.  1.
          6    1    1    2  501    0  0.26689114056E+02 -0.47072750995E+02  0.43776444730E+03  0.47380888976E+03  0.17300000000E+03 0.  1.
         -6    1    1    2    0  503 -0.26689114056E+02  0.47072750995E+02  0.23555818175E+03  0.29722854789E+03  0.17300000000E+03 0.  1.
<mgrwt>
<rscale>  2 0.18126542E+03</rscale>
<asrwt>0</asrwt>
<pdfrwt beam="1">  1       21 0.11110461E+00 0.18126542E+03</pdfrwt>
<pdfrwt beam="2">  1       21 0.75165243E-02 0.18126542E+03</pdfrwt>
<totfact> 0.85680976E+04</totfact>
</mgrwt>
</event>
<event>
 4    1  0.4333905E+000  0.2065732E+03  0.7546771E-02  0.1144309E+00
         21   -1    0    0  501  502  0.00000000000E+00  0.00000000000E+00  0.58221523625E+03  0.58221523625E+03  0.00000000000E+00 0. -1.
         21   -1    0    0  502  503 -0.00000000000E+00 -0.00000000000E+00 -0.10963936202E+03  0.10963936202E+03  0.00000000000E+00 0. -1.
          6    1    1    2  501    0  0.11279845399E+03  0.44707492302E+01  0.43546083336E+03  0.48197366755E+03  0.17300000000E+03 0. -1.
         -6    1    1    2    0  503 -0.11279845399E+03 -0.44707492302E+01  0.37115040871E+02  0.20988093072E+03  0.17300000000E+03 0. -1.
<mgrwt>
<rscale>  2 0.20657318E+03</rscale>
<asrwt>0</asrwt>
<pdfrwt beam="1">  1       21 0.89571573E-01 0.20657318E+03</pdfrwt>
<pdfrwt beam="2">  1       21 0.16867594E-01 0.20657318E+03</pdfrwt>
<totfact> 0.33362064E+04</totfact>
</mgrwt>
</event>
<event>
 4    1  0.4333905E+000  0.2791258E+03  0.7546771E-02  0.1096167E+00
         21   -1    0    0  503  502  0.00000000000E+00  0.00000000000E+00  0.57858087504E+03  0.57858087504E+03  0.00000000000E+00 0.  1.
         21   -1    0    0  501  503 -0.00000000000E+00 -0.00000000000E+00 -0.13797961078E+03  0.13797961078E+03  0.00000000000E+00 0.  1.
          6    1    1    2  501    0 -0.39164528151E+01 -0.21901345939E+03  0.16472150319E+03  0.32410555011E+03  0.17300000000E+03 0.  1.
         -6    1    1    2    0  502  0.39164528151E+01  0.21901345939E+03  0.27587976107E+03  0.39245493571E+03  0.17300000000E+03 0.  1.
<mgrwt>
<rscale>  2 0.27912584E+03</rscale>
<asrwt>0</asrwt>
<pdfrwt beam="1">  1       21 0.89012441E-01 0.27912584E+03</pdfrwt>
<pdfrwt beam="2">  1       21 0.21227633E-01 0.27912584E+03</pdfrwt>
<totfact> 0.21274338E+04</totfact>
</mgrwt>
</event>
<event>
 4    1  0.4333905E+000  0.1759134E+03  0.7546771E-02  0.1171818E+00
         21   -1    0    0  503  502  0.00000000000E+00  0.00000000000E+00  0.64222310543E+03  0.64222310543E+03  0.00000000000E+00 0. -1.
         21   -1    0    0  501  503 -0.00000000000E+00 -0.00000000000E+00 -0.68955423711E+02  0.68955423711E+02  0.00000000000E+00 0. -1.
          6    1    1    2  501    0  0.30016757523E+02 -0.10748208295E+02  0.91475574916E+02  0.19827584452E+03  0.17300000000E+03 0. -1.
         -6    1    1    2    0  502 -0.30016757523E+02  0.10748208295E+02  0.48179210680E+03  0.51290268462E+03  0.17300000000E+03 0. -1.
<mgrwt>
<rscale>  2 0.17591342E+03</rscale>
<asrwt>0</asrwt>
<pdfrwt beam="1">  1       21 0.98803551E-01 0.17591342E+03</pdfrwt>
<pdfrwt beam="2">  1       21 0.10608527E-01 0.17591342E+03</pdfrwt>
<totfact> 0.62227932E+04</totfact>
</mgrwt>
</event>
<event>
 4    1  0.4333905E+000  0.2424579E+03  0.7546771E-02  0.1118166E+00
         21   -1    0    0  501  502  0.00000000000E+00  0.00000000000E+00  0.69743287884E+02  0.69743287884E+02  0.00000000000E+00 0. -1.
         21   -1    0    0  502  503 -0.00000000000E+00 -0.00000000000E+00 -0.85599037706E+03  0.85599037706E+03  0.00000000000E+00 0. -1.
          6    1    1    2  501    0 -0.13296834184E+03  0.10571783938E+03 -0.33585948170E+03  0.41423113468E+03  0.17300000000E+03 0. -1.
         -6    1    1    2    0  503  0.13296834184E+03 -0.10571783938E+03 -0.45038760748E+03  0.51150253026E+03  0.17300000000E+03 0. -1.
<mgrwt>
<rscale>  2 0.24245792E+03</rscale>
<asrwt>0</asrwt>
<pdfrwt beam="1">  1       21 0.10729736E-01 0.24245792E+03</pdfrwt>
<pdfrwt beam="2">  1       21 0.13169084E+00 0.24245792E+03</pdfrwt>
<totfact> 0.29142330E+04</totfact>
</mgrwt>
</event>
<event>
 4    1  0.4333905E+000  0.3212223E+03  0.7546771E-02  0.1075088E+00
         21   -1    0    0  503  502  0.00000000000E+00  0.00000000000E+00  0.38480549348E+03  0.38480549348E+03  0.00000000000E+00 0.  1.
         21   -1    0    0  501  503 -0.00000000000E+00 -0.00000000000E+00 -0.26964107427E+03  0.26964107427E+03  0.00000000000E+00 0. -1.
          6    1    1    2  501    0  0.20528821317E+03  0.17638450371E+03  0.33209735121E+02  0.32293440529E+03  0.17300000000E+03 0. -1.
         -6    1    1    2    0  502 -0.20528821317E+03 -0.17638450371E+03  0.81954684090E+02  0.33151216246E+03  0.17300000000E+03 0.  1.
<mgrwt>
<rscale>  2 0.32122227E+03</rscale>
<asrwt>0</asrwt>
<pdfrwt beam="1">  1       21 0.59200846E-01 0.32122227E+03</pdfrwt>
<pdfrwt beam="2">  1       21 0.41483242E-01 0.32122227E+03</pdfrwt>
<totfact> 0.13977130E+04</totfact>
</mgrwt>
</event>
<event>
 4    1  0.4333905E+000  0.1944729E+03  0.7546771E-02  0.1154488E+00
         21   -1    0    0  503  502  0.00000000000E+00  0.00000000000E+00  0.38133148419E+03  0.38133148419E+03  0.00000000000E+00 0. -1.
         21   -1    0    0  501  503 -0.00000000000E+00 -0.00000000000E+00 -0.20524192397E+03  0.20524192397E+03  0.00000000000E+00 0. -1.
          6    1    1    2  501    0 -0.41893794502E+02  0.78330091132E+02 -0.12279045164E+03  0.22999388733E+03  0.17300000000E+03 0. -1.
         -6    1    1    2    0  502  0.41893794502E+02 -0.78330091132E+02  0.29888001185E+03  0.35657952084E+03  0.17300000000E+03 0. -1.
<mgrwt>
<rscale>  2 0.19447286E+03</rscale>
<asrwt>0</asrwt>
<pdfrwt beam="1">  1       21 0.58666382E-01 0.19447286E+03</pdfrwt>
<pdfrwt beam="2">  1       21 0.31575681E-01 0.19447286E+03</pdfrwt>
<totfact> 0.26190333E+04</totfact>
</mgrwt>
</event>
<event>
 4    1  0.4333905E+000  0.2035616E+03  0.7546771E-02  0.1146768E+00
         21   -1    0    0  501  502  0.00000000000E+00  0.00000000000E+00  0.51348759151E+03  0.51348759151E+03  0.00000000000E+00 0. -1.
         21   -1    0    0  502  503 -0.00000000000E+00 -0.00000000000E+00 -0.13760435063E+03  0.13760435063E+03  0.00000000000E+00 0. -1.
          6    1    1    2  501    0 -0.41290204210E+02 -0.99012262088E+02  0.39729378097E+03  0.44640750151E+03  0.17300000000E+03 0. -1.
         -6    1    1    2    0  503  0.41290204210E+02  0.99012262088E+02 -0.21410540086E+02  0.20468444063E+03  0.17300000000E+03 0. -1.
<mgrwt>
<rscale>  2 0.20356156E+03</rscale>
<asrwt>0</asrwt>
<pdfrwt beam="1">  1       21 0.78998090E-01 0.20356156E+03</pdfrwt>
<pdfrwt beam="2">  1       21 0.21169900E-01 0.20356156E+03</pdfrwt>
<totfact> 0.29184814E+04</totfact>
</mgrwt>
</event>
<event>
 4    1  0.4333905E+000  0.2416989E+03  0.7546771E-02  0.1118666E+00
         21   -1    0    0  501  502  0.00000000000E+00  0.00000000000E+00  0.37836321005E+03  0.37836321005E+03  0.00000000000E+00 0. -1.
         21   -1    0    0  502  503 -0.00000000000E+00 -0.00000000000E+00 -0.15671739988E+03  0.15671739988E+03  0.00000000000E+00 0. -1.
          6    1    1    2  501    0  0.30782266119E+02  0.16595719755E+03  0.14337386829E+03  0.28102385208E+03  0.17300000000E+03 0. -1.
         -6    1    1    2    0  503 -0.30782266119E+02 -0.16595719755E+03  0.78271941880E+02  0.25405675786E+03  0.17300000000E+03 0. -1.
<mgrwt>
<rscale>  2 0.24169886E+03</rscale>
<asrwt>0</asrwt>
<pdfrwt beam="1">  1       21 0.58209724E-01 0.24169886E+03</pdfrwt>
<pdfrwt beam="2">  1       21 0.24110369E-01 0.24169886E+03</pdfrwt>
<totfact> 0.43852182E+04</totfact>
</mgrwt>
</event>
<event>
 4    1  0.4333905E+000  0.2036323E+03  0.7546771E-02  0.1146710E+00
         21   -1    0    0  501  502  0.00000000000E+00  0.00000000000E+00  0.28742786837E+03  0.28742786837E+03  0.00000000000E+00 0.  1.
         21   -1    0    0  502  503 -0.00000000000E+00 -0.00000000000E+00 -0.16464689040E+03  0.16464689040E+03  0.00000000000E+00 0.  1.
          6    1    1    2  501    0  0.90925654141E+02  0.57180732822E+02  0.14091729118E+03  0.24763641441E+03  0.17300000000E+03 0.  1.
         -6    1    1    2    0  503 -0.90925654141E+02 -0.57180732822E+02 -0.18136313220E+02  0.20443834436E+03  0.17300000000E+03 0.  1.
<mgrwt>
<rscale>  2 0.20363229E+03</rscale>
<asrwt>0</asrwt>
<pdfrwt beam="1">  1       21 0.44219672E-01 0.20363229E+03</pdfrwt>
<pdfrwt beam="2">  1       21 0.25330291E-01 0.20363229E+03</pdfrwt>
<totfact> 0.72202805E+04</totfact>
</mgrwt>
</event>
<event>
 4    1  0.4333905E+000  0.5095156E+03  0.7546771E-02  0.1011325E+00
         21   -1    0    0  501  502  0.00000000000E+00  0.00000000000E+00  0.11519873827E+04  0.11519873827E+04  0.00000000000E+00 0.  1.
         21   -1    0    0  502  503 -0.00000000000E+00 -0.00000000000E+00 -0.31933864923E+03  0.31933864923E+03  0.00000000000E+00 0. -1.
          6    1    1    2  501    0 -0.28344463319E+03 -0.38644054389E+03  0.81542209731E+03  0.96151929301E+03  0.17300000000E+03 0.  1.
         -6    1    1    2    0  503  0.28344463319E+03  0.38644054389E+03  0.17226636147E+02  0.50980673891E+03  0.17300000000E+03 0. -1.
<mgrwt>
<rscale>  2 0.50951561E+03</rscale>
<asrwt>0</asrwt>
<pdfrwt beam="1">  1       21 0.17722883E+00 0.50951561E+03</pdfrwt>
<pdfrwt beam="2">  1       21 0.49129024E-01 0.50951561E+03</pdfrwt>
<totfact> 0.60886391E+02</totfact>
</mgrwt>
</event>
<event>
 4    1  0.4333905E+000  0.1953773E+03  0.7546771E-02  0.1153699E+00
         21   -1    0    0  503  502  0.00000000000E+00  0.00000000000E+00  0.47559654790E+02  0.47559654790E+02  0.00000000000E+00 0.  1.
         21   -1    0    0  501  503 -0.00000000000E+00 -0.00000000000E+00 -0.80436802322E+03  0.80436802322E+03  0.00000000000E+00 0.  1.
          6    1    1    2  501    0 -0.84328968109E+02 -0.33643799258E+02 -0.35854096715E+03  0.40831838707E+03  0.17300000000E+03 0.  1.
         -6    1    1    2    0  502  0.84328968109E+02  0.33643799258E+02 -0.39826740128E+03  0.44360929094E+03  0.17300000000E+03 0.  1.
<mgrwt>
<rscale>  2 0.19537728E+03</rscale>
<asrwt>0</asrwt>
<pdfrwt beam="1">  1       21 0.73168702E-02 0.19537728E+03</pdfrwt>
<pdfrwt beam="2">  1       21 0.12374892E+00 0.19537728E+03</pdfrwt>
<totfact> 0.68450075E+04</totfact>
</mgrwt>
</event>
<event>
 4    1  0.4333905E+000  0.1955817E+03  0.7546771E-02  0.1153521E+00
         21   -1    0    0  501  502  0.00000000000E+00  0.00000000000E+00  0.30353982707E+03  0.30353982707E+03  0.00000000000E+00 0.  1.
         21   -1    0    0  502  503 -0.00000000000E+00 -0.00000000000E+00 -0.17605563863E+03  0.17605563863E+03  0.00000000000E+00 0. -1.
          6    1    1    2  501    0  0.61941907209E+01  0.91021163750E+02  0.19157950046E+03  0.27377897152E+03  0.17300000000E+03 0.  1.
         -6    1    1    2    0  503 -0.61941907209E+01 -0.91021163750E+02 -0.64095312026E+02  0.20581649417E+03  0.17300000000E+03 0. -1.
<mgrwt>
<rscale>  2 0.19558175E+03</rscale>
<asrwt>0</asrwt>
<pdfrwt beam="1">  1       21 0.46698435E-01 0.19558175E+03</pdfrwt>
<pdfrwt beam="2">  1       21 0.27085483E-01 0.19558175E+03</pdfrwt>
<totfact> 0.56957351E+04</totfact>
</mgrwt>
</event>
<event>
 4    1  0.4333905E+000  0.1743385E+03  0.7546771E-02  0.1173398E+00
         21   -1    0    0  501  502  0.00000000000E+00  0.00000000000E+00  0.17572612444E+03  0.17572612444E+03  0.00000000000E+00 0.  1.
         21   -1    0    0  502  503 -0.00000000000E+00 -0.00000000000E+00 -0.23959165966E+03  0.23959165966E+03  0.00000000000E+00 0.  1.
          6    1    1    2  501    0 -0.16583514607E+02  0.13779781705E+02  0.77576114652E+02  0.19081915235E+03  0.17300000000E+03 0.  1.
         -6    1    1    2    0  503  0.16583514607E+02 -0.13779781705E+02 -0.14144164987E+03  0.22449863175E+03  0.17300000000E+03 0.  1.
<mgrwt>
<rscale>  2 0.17433845E+03</rscale>
<asrwt>0</asrwt>
<pdfrwt beam="1">  1       21 0.27034789E-01 0.17433845E+03</pdfrwt>
<pdfrwt beam="2">  1       21 0.36860255E-01 0.17433845E+03</pdfrwt>
<totfact> 0.93203148E+04</totfact>
</mgrwt>
</event>
<event>
 4    1  0.4333905E+000  0.1826510E+03  0.7546771E-02  0.1165262E+00
         21   -1    0    0  503  502  0.00000000000E+00  0.00000000000E+00  0.10034919891E+03  0.10034919891E+03  0.00000000000E+00 0. -1.
         21   -1    0    0  501  503 -0.00000000000E+00 -0.00000000000E+00 -0.35640483683E+03  0.35640483683E+03  0.00000000000E+00 0.  1.
          6    1    1    2  501    0 -0.41121604057E+02 -0.41729946144E+02 -0.18723189344E+03  0.26156673459E+03  0.17300000000E+03 0.  1.
         -6    1    1    2    0  502  0.41121604057E+02  0.41729946144E+02 -0.68823744477E+02  0.19518730115E+03  0.17300000000E+03 0. -1.
<mgrwt>
<rscale>  2 0.18265096E+03</rscale>
<asrwt>0</asrwt>
<pdfrwt beam="1">  1       21 0.15438339E-01 0.18265096E+03</pdfrwt>
<pdfrwt beam="2">  1       21 0.54831512E-01 0.18265096E+03</pdfrwt>
<totfact> 0.11727653E+05</totfact>
</mgrwt>
</event>
<event>
 4    1  0.4333905E+000  0.1899915E+03  0.7546771E-02  0.1158469E+00
         21   -1    0    0  501  502  0.00000000000E+00  0.00000000000E+00  0.72546039383E+02  0.72546039383E+02  0.00000000000E+00 0. -1.
         21   -1    0    0  502  503 -0.00000000000E+00 -0.00000000000E+00 -0.56822869975E+03  0.56822869975E+03  0.00000000000E+00 0.  1.
          6    1    1    2  501    0 -0.65425515595E+02  0.43442950127E+02 -0.13486322492E+03  0.23299115314E+03  0.17300000000E+03 0. -1.
         -6    1    1    2    0  503  0.65425515595E+02 -0.43442950127E+02 -0.36081943545E+03  0.40778358599E+03  0.17300000000E+03 0.  1.
<mgrwt>
<rscale>  2 0.18999155E+03</rscale>
<asrwt>0</asrwt>
<pdfrwt beam="1">  1       21 0.11160929E-01 0.18999155E+03</pdfrwt>
<pdfrwt beam="2">  1       21 0.87419802E-01 0.18999155E+03</pdfrwt>
<totfact> 0.75123102E+04</totfact>
</mgrwt>
</event>
<event>
 4    1  0.4333905E+000  0.1977954E+03  0.7546771E-02  0.1151612E+00
         21   -1    0    0  501  502  0.00000000000E+00  0.00000000000E+00  0.51171298422E+03  0.51171298422E+03  0.00000000000E+00 0.  1.
         21   -1    0    0  502  503 -0.00000000000E+00 -0.00000000000E+00 -0.14227667287E+03  0.14227667287E+03  0.00000000000E+00 0.  1.
          6    1    1    2  501    0  0.63946009231E+02 -0.71448873281E+02  0.40713023984E+03  0.45263458306E+03  0.17300000000E+03 0.  1.
         -6    1    1    2    0  503 -0.63946009231E+02  0.71448873281E+02 -0.37693928499E+02  0.20135507402E+03  0.17300000000E+03 0.  1.
<mgrwt>
<rscale>  2 0.19779543E+03</rscale>
<asrwt>0</asrwt>
<pdfrwt beam="1">  1       21 0.78725073E-01 0.19779543E+03</pdfrwt>
<pdfrwt beam="2">  1       21 0.21888719E-01 0.19779543E+03</pdfrwt>
<totfact> 0.27711950E+04</totfact>
</mgrwt>
</event>
<event>
 4    1  0.4333905E+000  0.1905077E+03  0.7546771E-02  0.1158004E+00
         21   -1    0    0  501  502  0.00000000000E+00  0.00000000000E+00  0.15874453951E+03  0.15874453951E+03  0.00000000000E+00 0. -1.
         21   -1    0    0  502  503 -0.00000000000E+00 -0.00000000000E+00 -0.25880140913E+03  0.25880140913E+03  0.00000000000E+00 0. -1.
          6    1    1    2  501    0 -0.41714147443E+02 -0.68000868135E+02  0.21259308336E+02  0.19169023542E+03  0.17300000000E+03 0. -1.
         -6    1    1    2    0  503  0.41714147443E+02  0.68000868135E+02 -0.12131617796E+03  0.22585571323E+03  0.17300000000E+03 0. -1.
<mgrwt>
<rscale>  2 0.19050771E+03</rscale>
<asrwt>0</asrwt>
<pdfrwt beam="1">  1       21 0.24422237E-01 0.19050771E+03</pdfrwt>
<pdfrwt beam="2">  1       21 0.39815601E-01 0.19050771E+03</pdfrwt>
<totfact> 0.96373009E+04</totfact>
</mgrwt>
</event>
<event>
 4    1  0.4333905E+000  0.2048101E+03  0.7546771E-02  0.1145743E+00
         21   -1    0    0  503  502  0.00000000000E+00  0.00000000000E+00  0.25864692426E+04  0.25864692426E+04  0.00000000000E+00 0. -1.
         21   -1    0    0  501  503 -0.00000000000E+00 -0.00000000000E+00 -0.16234197920E+02  0.16234197920E+02  0.00000000000E+00 0. -1.
          6    1    1    2  501    0 -0.10668947056E+03  0.25209650001E+02  0.12439187559E+04  0.12606669032E+04  0.17300000000E+03 0. -1.
         -6    1    1    2    0  502  0.10668947056E+03 -0.25209650001E+02  0.13263162888E+04  0.13420365373E+04  0.17300000000E+03 0. -1.
<mgrwt>
<rscale>  2 0.20481008E+03</rscale>
<asrwt>0</asrwt>
<pdfrwt beam="1">  1       21 0.39791802E+00 0.20481008E+03</pdfrwt>
<pdfrwt beam="2">  1       21 0.24975710E-02 0.20481008E+03</pdfrwt>
<totfact> 0.75651783E+03</totfact>
</mgrwt>
</event>
<event>
 4    1  0.4333905E+000  0.2058541E+03  0.7546771E-02  0.1144892E+00
         21   -1    0    0  503  502  0.00000000000E+00  0.00000000000E+00  0.82207933633E+03  0.82207933633E+03  0.00000000000E+00 0. -1.
         21   -1    0    0  501  503 -0.00000000000E+00 -0.00000000000E+00 -0.51592989649E+02  0.51592989649E+02  0.00000000000E+00 0. -1.
          6    1    1    2  501    0  0.69100099832E+02  0.87590428638E+02  0.37223257872E+03  0.42536219819E+03  0.17300000000E+03 0. -1.
         -6    1    1    2    0  502 -0.69100099832E+02 -0.87590428638E+02  0.39825376796E+03  0.44831012779E+03  0.17300000000E+03 0. -1.
<mgrwt>
<rscale>  2 0.20585409E+03</rscale>
<asrwt>0</asrwt>
<pdfrwt beam="1">  1       21 0.12647373E+00 0.20585409E+03</pdfrwt>
<pdfrwt beam="2">  1       21 0.79373836E-02 0.20585409E+03</pdfrwt>
<totfact> 0.55964386E+04</totfact>
</mgrwt>
</event>
<event>
 4    1  0.4333905E+000  0.1778066E+03  0.7546771E-02  0.1169943E+00
         21   -1    0    0  503  502  0.00000000000E+00  0.00000000000E+00  0.33598644028E+03  0.33598644028E+03  0.00000000000E+00 0. -1.
         21   -1    0    0  501  503 -0.00000000000E+00 -0.00000000000E+00 -0.98405813364E+02  0.98405813364E+02  0.00000000000E+00 0. -1.
          6    1    1    2  501    0 -0.31453920285E+02  0.26397504951E+02  0.73339533143E+02  0.19233789146E+03  0.17300000000E+03 0. -1.
         -6    1    1    2    0  502  0.31453920285E+02 -0.26397504951E+02  0.16424109377E+03  0.24205436218E+03  0.17300000000E+03 0. -1.
<mgrwt>
<rscale>  2 0.17780657E+03</rscale>
<asrwt>0</asrwt>
<pdfrwt beam="1">  1       21 0.51690221E-01 0.17780657E+03</pdfrwt>
<pdfrwt beam="2">  1       21 0.15139356E-01 0.17780657E+03</pdfrwt>
<totfact> 0.13780341E+05</totfact>
</mgrwt>
</event>
<event>
 4    1  0.4333905E+000  0.3053169E+03  0.7546771E-02  0.1082613E+00
         21   -1    0    0  503  502  0.00000000000E+00  0.00000000000E+00  0.17902928814E+03  0.17902928814E+03  0.00000000000E+00 0. -1.
         21   -1    0    0  501  503 -0.00000000000E+00 -0.00000000000E+00 -0.52261325785E+03  0.52261325785E+03  0.00000000000E+00 0. -1.
          6    1    1    2  501    0  0.22824828667E+03  0.10579298276E+03 -0.19308410950E+03  0.36124771128E+03  0.17300000000E+03 0. -1.
         -6    1    1    2    0  502 -0.22824828667E+03 -0.10579298276E+03 -0.15049986022E+03  0.34039483471E+03  0.17300000000E+03 0. -1.
<mgrwt>
<rscale>  2 0.30531694E+03</rscale>
<asrwt>0</asrwt>
<pdfrwt beam="1">  1       21 0.27542968E-01 0.30531694E+03</pdfrwt>
<pdfrwt beam="2">  1       21 0.80402039E-01 0.30531694E+03</pdfrwt>
<totfact> 0.16138591E+04</totfact>
</mgrwt>
</event>
<event>
 4    1  0.4333905E+000  0.2024242E+03  0.7546771E-02  0.1147710E+00
         21   -1    0    0  501  502  0.00000000000E+00  0.00000000000E+00  0.16697093359E+04  0.16697093359E+04  0.00000000000E+00 0. -1.
         21   -1    0    0  502  503 -0.00000000000E+00 -0.00000000000E+00 -0.33660277483E+02  0.33660277483E+02  0.00000000000E+00 0.  1.
          6    1    1    2  501    0  0.38663553671E+02  0.97732662129E+02  0.12613386661E+04  0.12774782871E+04  0.17300000000E+03 0. -1.
         -6    1    1    2    0  503 -0.38663553671E+02 -0.97732662129E+02  0.37471039241E+03  0.42589132629E+03  0.17300000000E+03 0.  1.
<mgrwt>
<rscale>  2 0.20242417E+03</rscale>
<asrwt>0</asrwt>
<pdfrwt beam="1">  1       21 0.25687830E+00 0.20242417E+03</pdfrwt>
<pdfrwt beam="2">  1       21 0.51785055E-02 0.20242417E+03</pdfrwt>
<totfact> 0.15222152E+04</totfact>
</mgrwt>
</event>
<event>
 4    1  0.4333905E+000  0.2484301E+03  0.7546771E-02  0.1114301E+00
         21   -1    0    0  503  502  0.00000000000E+00  0.00000000000E+00  0.44181968924E+03  0.44181968924E+03  0.00000000000E+00 0. -1.
         21   -1    0    0  501  503 -0.00000000000E+00 -0.00000000000E+00 -0.34642273308E+03  0.34642273308E+03  0.00000000000E+00 0. -1.
          6    1    1    2  501    0 -0.65246825287E+02 -0.16592580210E+03 -0.25676267477E+03  0.35727383219E+03  0.17300000000E+03 0. -1.
         -6    1    1    2    0  502  0.65246825287E+02  0.16592580210E+03  0.35215963093E+03  0.43096859012E+03  0.17300000000E+03 0. -1.
<mgrwt>
<rscale>  2 0.24843011E+03</rscale>
<asrwt>0</asrwt>
<pdfrwt beam="1">  1       21 0.67972260E-01 0.24843011E+03</pdfrwt>
<pdfrwt beam="2">  1       21 0.53295805E-01 0.24843011E+03</pdfrwt>
<totfact> 0.63446768E+03</totfact>
</mgrwt>
</event>
<event>
 4    1  0.4333905E+000  0.2316452E+03  0.7546771E-02  0.1125487E+00
         21   -1    0    0  501  502  0.00000000000E+00  0.00000000000E+00  0.16371429702E+03  0.16371429702E+03  0.00000000000E+00 0. -1.
         21   -1    0    0  502  503 -0.00000000000E+00 -0.00000000000E+00 -0.52321269640E+03  0.52321269640E+03  0.00000000000E+00 0.  1.
          6    1    1    2  501    0 -0.37302501998E+02 -0.14946240346E+03  0.30173289066E+02  0.23360204211E+03  0.17300000000E+03 0. -1.
         -6    1    1    2    0  503  0.37302501998E+02  0.14946240346E+03 -0.38967168844E+03  0.45332495131E+03  0.17300000000E+03 0.  1.
<mgrwt>
<rscale>  2 0.23164517E+03</rscale>
<asrwt>0</asrwt>
<pdfrwt beam="1">  1       21 0.25186815E-01 0.23164517E+03</pdfrwt>
<pdfrwt beam="2">  1       21 0.80494261E-01 0.23164517E+03</pdfrwt>
<totfact> 0.19802892E+04</totfact>
</mgrwt>
</event>
<event>
 4    1  0.4333905E+000  0.1829902E+03  0.7546771E-02  0.1164940E+00
         21   -1    0    0  503  502  0.00000000000E+00  0.00000000000E+00  0.59594163736E+03  0.59594163736E+03  0.00000000000E+00 0. -1.
         21   -1    0    0  501  503 -0.00000000000E+00 -0.00000000000E+00 -0.59415600594E+02  0.59415600594E+02  0.00000000000E+00 0. -1.
          6    1    1    2  501    0  0.59239071194E+02  0.68657724464E+01  0.19190304797E+03  0.26516445125E+03  0.17300000000E+03 0. -1.
         -6    1    1    2    0  502 -0.59239071194E+02 -0.68657724464E+01  0.34462298880E+03  0.39019278670E+03  0.17300000000E+03 0. -1.
<mgrwt>
<rscale>  2 0.18299018E+03</rscale>
<asrwt>0</asrwt>
<pdfrwt beam="1">  1       21 0.91683325E-01 0.18299018E+03</pdfrwt>
<pdfrwt beam="2">  1       21 0.91408620E-02 0.18299018E+03</pdfrwt>
<totfact> 0.96040394E+04</totfact>
</mgrwt>
</event>
<event>
 4    1  0.4333905E+000  0.2571529E+03  0.7546771E-02  0.1108866E+00
         21   -1    0    0  503  502  0.00000000000E+00  0.00000000000E+00  0.11426328630E+03  0.11426328630E+03  0.00000000000E+00 0. -1.
         21   -1    0    0  501  503 -0.00000000000E+00 -0.00000000000E+00 -0.58207839407E+03  0.58207839407E+03  0.00000000000E+00 0.  1.
          6    1    1    2  501    0 -0.17622046916E+03  0.71728337134E+02 -0.20750106740E+03  0.33043047842E+03  0.17300000000E+03 0.  1.
         -6    1    1    2    0  502  0.17622046916E+03 -0.71728337134E+02 -0.26031404037E+03  0.36591120195E+03  0.17300000000E+03 0. -1.
<mgrwt>
<rscale>  2 0.25715289E+03</rscale>
<asrwt>0</asrwt>
<pdfrwt beam="1">  1       21 0.17578967E-01 0.25715289E+03</pdfrwt>
<pdfrwt beam="2">  1       21 0.89550522E-01 0.25715289E+03</pdfrwt>
<totfact> 0.30171913E+04</totfact>
</mgrwt>
</event>
<event>
 4    1  0.4333905E+000  0.1869998E+03  0.7546771E-02  0.1161195E+00
         21   -1    0    0  503  502  0.00000000000E+00  0.00000000000E+00  0.26897545445E+03  0.26897545445E+03  0.00000000000E+00 0. -1.
         21   -1    0    0  501  503 -0.00000000000E+00 -0.00000000000E+00 -0.26782166117E+03  0.26782166117E+03  0.00000000000E+00 0. -1.
          6    1    1    2  501    0 -0.65550635428E+02 -0.27258651033E+02 -0.19195544978E+03  0.26798472823E+03  0.17300000000E+03 0. -1.
         -6    1    1    2    0  502  0.65550635428E+02  0.27258651033E+02  0.19310924306E+03  0.26881238739E+03  0.17300000000E+03 0. -1.
<mgrwt>
<rscale>  2 0.18699979E+03</rscale>
<asrwt>0</asrwt>
<pdfrwt beam="1">  1       21 0.41380839E-01 0.18699979E+03</pdfrwt>
<pdfrwt beam="2">  1       21 0.41203332E-01 0.18699979E+03</pdfrwt>
<totfact> 0.31994994E+04</totfact>
</mgrwt>
</event>
<event>
 4    1  0.4333905E+000  0.1782357E+03  0.7546771E-02  0.1169522E+00
         21   -1    0    0  501  502  0.00000000000E+00  0.00000000000E+00  0.19746633554E+04  0.19746633554E+04  0.00000000000E+00 0. -1.
         21   -1    0    0  502  503 -0.00000000000E+00 -0.00000000000E+00 -0.42287477034E+02  0.42287477034E+02  0.00000000000E+00 0. -1.
          6    1    1    2  501    0  0.13369364677E+02  0.40745728291E+02  0.17599814486E+04  0.17689835086E+04  0.17300000000E+03 0. -1.
         -6    1    1    2    0  503 -0.13369364677E+02 -0.40745728291E+02  0.17239442984E+03  0.24796732391E+03  0.17300000000E+03 0. -1.
<mgrwt>
<rscale>  2 0.17823567E+03</rscale>
<asrwt>0</asrwt>
<pdfrwt beam="1">  1       21 0.30379429E+00 0.17823567E+03</pdfrwt>
<pdfrwt beam="2">  1       21 0.65057672E-02 0.17823567E+03</pdfrwt>
<totfact> 0.56677860E+03</totfact>
</mgrwt>
</event>
<event>
 4    1  0.4333905E+000  0.2037832E+03  0.7546771E-02  0.1146586E+00
         21   -1    0    0  501  502  0.00000000000E+00  0.00000000000E+00  0.27378821384E+03  0.27378821384E+03  0.00000000000E+00 0. -1.
         21   -1    0    0  502  503 -0.00000000000E+00 -0.00000000000E+00 -0.15238218576E+03  0.15238218576E+03  0.00000000000E+00 0. -1.
          6    1    1    2  501    0 -0.95511330428E+02  0.49761329864E+02  0.75190063106E+02  0.21721222291E+03  0.17300000000E+03 0. -1.
         -6    1    1    2    0  503  0.95511330428E+02 -0.49761329864E+02  0.46215964966E+02  0.20895817670E+03  0.17300000000E+03 0. -1.
<mgrwt>
<rscale>  2 0.20378323E+03</rscale>
<asrwt>0</asrwt>
<pdfrwt beam="1">  1       21 0.42121264E-01 0.20378323E+03</pdfrwt>
<pdfrwt beam="2">  1       21 0.23443413E-01 0.20378323E+03</pdfrwt>
<totfact> 0.92426324E+04</totfact>
</mgrwt>
</event>
<event>
 4    1  0.4333905E+000  0.2015206E+03  0.7546771E-02  0.1148462E+00
         21   -1    0    0  501  502  0.00000000000E+00  0.00000000000E+00  0.19339526084E+03  0.19339526084E+03  0.00000000000E+00 0. -1.
         21   -1    0    0  502  503 -0.00000000000E+00 -0.00000000000E+00 -0.35488102639E+03  0.35488102639E+03  0.00000000000E+00 0.  1.
          6    1    1    2  501    0 -0.60497769893E+02 -0.83794823254E+02  0.94424337362E+02  0.22254551906E+03  0.17300000000E+03 0. -1.
         -6    1    1    2    0  503  0.60497769893E+02  0.83794823254E+02 -0.25591010290E+03  0.32573076817E+03  0.17300000000E+03 0.  1.
<mgrwt>
<rscale>  2 0.20152060E+03</rscale>
<asrwt>0</asrwt>
<pdfrwt beam="1">  1       21 0.29753117E-01 0.20152060E+03</pdfrwt>
<pdfrwt beam="2">  1       21 0.54597081E-01 0.20152060E+03</pdfrwt>
<totfact> 0.34144371E+04</totfact>
</mgrwt>
</event>
<event>
 4    1  0.4333905E+000  0.2997542E+03  0.7546771E-02  0.1085364E+00
         21   -1    0    0  501  502  0.00000000000E+00  0.00000000000E+00  0.98785185629E+03  0.98785185629E+03  0.00000000000E+00 0. -1.
         21   -1    0    0  502  503 -0.00000000000E+00 -0.00000000000E+00 -0.10102377787E+03  0.10102377787E+03  0.00000000000E+00 0.  1.
          6    1    1    2  501    0  0.11889375410E+03  0.21398092989E+03  0.61527226714E+03  0.68440669622E+03  0.17300000000E+03 0. -1.
         -6    1    1    2    0  503 -0.11889375410E+03 -0.21398092989E+03  0.27155581128E+03  0.40446893794E+03  0.17300000000E+03 0.  1.
<mgrwt>
<rscale>  2 0.29975417E+03</rscale>
<asrwt>0</asrwt>
<pdfrwt beam="1">  1       21 0.15197720E+00 0.29975417E+03</pdfrwt>
<pdfrwt beam="2">  1       21 0.15542120E-01 0.29975417E+03</pdfrwt>
<totfact> 0.99348995E+03</totfact>
</mgrwt>
</event>
<event>
 4    1  0.4333905E+000  0.2329082E+03  0.7546771E-02  0.1124609E+00
         21   -1    0    0  501  502  0.00000000000E+00  0.00000000000E+00  0.24724241935E+03  0.24724241935E+03  0.00000000000E+00 0.  1.
         21   -1    0    0  502  503 -0.00000000000E+00 -0.00000000000E+00 -0.21966895101E+03  0.21966895101E+03  0.00000000000E+00 0. -1.
          6    1    1    2  501    0  0.11484970568E+03 -0.10548362278E+03  0.21877570497E+02  0.23393348982E+03  0.17300000000E+03 0.  1.
         -6    1    1    2    0  503 -0.11484970568E+03  0.10548362278E+03  0.56958978515E+01  0.23297788054E+03  0.17300000000E+03 0. -1.
<mgrwt>
<rscale>  2 0.23290824E+03</rscale>
<asrwt>0</asrwt>
<pdfrwt beam="1">  1       21 0.38037295E-01 0.23290824E+03</pdfrwt>
<pdfrwt beam="2">  1       21 0.33795223E-01 0.23290824E+03</pdfrwt>
<totfact> 0.55214598E+04</totfact>
</mgrwt>
</event>
<event>
 4    1  0.4333905E+000  0.2182130E+03  0.7546771E-02  0.1135222E+00
         21   -1    0    0  501  502  0.00000000000E+00  0.00000000000E+00  0.89024976364E+03  0.89024976364E+03  0.00000000000E+00 0.  1.
         21   -1    0    0  502  503 -0.00000000000E+00 -0.00000000000E+00 -0.55287898128E+02  0.55287898128E+02  0.00000000000E+00 0.  1.
          6    1    1    2  501    0 -0.71478407620E+02  0.11215503784E+03  0.50280298277E+03  0.54811290329E+03  0.17300000000E+03 0.  1.
         -6    1    1    2    0  503  0.71478407620E+02 -0.11215503784E+03  0.33215888274E+03  0.39742475848E+03  0.17300000000E+03 0.  1.
<mgrwt>
<rscale>  2 0.21821300E+03</rscale>
<asrwt>0</asrwt>
<pdfrwt beam="1">  1       21 0.13696149E+00 0.21821300E+03</pdfrwt>
<pdfrwt beam="2">  1       21 0.85058311E-02 0.21821300E+03</pdfrwt>
<totfact> 0.40249559E+04</totfact>
</mgrwt>
</event>
<event>
 4    1  0.4333905E+000  0.1751482E+03  0.7546771E-02  0.1172583E+00
         21   -1    0    0  501  502  0.00000000000E+00  0.00000000000E+00  0.83208741594E+02  0.83208741594E+02  0.00000000000E+00 0. -1.
         21   -1    0    0  502  503 -0.00000000000E+00 -0.00000000000E+00 -0.46515698830E+03  0.46515698830E+03  0.00000000000E+00 0. -1.
          6    1    1    2  501    0  0.83056408578E+01 -0.26055586078E+02 -0.66101707762E+02  0.18720660513E+03  0.17300000000E+03 0.  1.
         -6    1    1    2    0  503 -0.83056408578E+01  0.26055586078E+02 -0.31584653894E+03  0.36115912476E+03  0.17300000000E+03 0.  1.
<mgrwt>
<rscale>  2 0.17514816E+03</rscale>
<asrwt>0</asrwt>
<pdfrwt beam="1">  1       21 0.12801345E-01 0.17514816E+03</pdfrwt>
<pdfrwt beam="2">  1       21 0.71562613E-01 0.17514816E+03</pdfrwt>
<totfact> 0.92872977E+04</totfact>
</mgrwt>
</event>
<event>
 4    1  0.4333905E+000  0.1917230E+03  0.7546771E-02  0.1156916E+00
         21   -1    0    0  503  502  0.00000000000E+00  0.00000000000E+00  0.42590155480E+02  0.42590155480E+02  0.00000000000E+00 0. -1.
         21   -1    0    0  501  503 -0.00000000000E+00 -0.00000000000E+00 -0.10307238871E+04  0.10307238871E+04  0.00000000000E+00 0. -1.
          6    1    1    2  501    0  0.42439831384E+02  0.70905413370E+02 -0.71051295767E+03  0.73592552609E+03  0.17300000000E+03 0. -1.
         -6    1    1    2    0  502 -0.42439831384E+02 -0.70905413370E+02 -0.27762077397E+03  0.33738851651E+03  0.17300000000E+03 0. -1.
<mgrwt>
<rscale>  2 0.19172302E+03</rscale>
<asrwt>0</asrwt>
<pdfrwt beam="1">  1       21 0.65523323E-02 0.19172302E+03</pdfrwt>
<pdfrwt beam="2">  1       21 0.15857289E+00 0.19172302E+03</pdfrwt>
<totfact> 0.43734670E+04</totfact>
</mgrwt>
</event>
<event>
 4    1  0.4333905E+000  0.2430781E+03  0.7546771E-02  0.1117759E+00
         21   -1    0    0  503  502  0.00000000000E+00  0.00000000000E+00  0.65593415809E+03  0.65593415809E+03  0.00000000000E+00 0. -1.
         21   -1    0    0  501  503 -0.00000000000E+00 -0.00000000000E+00 -0.13936023557E+03  0.13936023557E+03  0.00000000000E+00 0.  1.
          6    1    1    2  501    0  0.11417584417E+03  0.12697180935E+03  0.21824562757E+02  0.24405588561E+03  0.17300000000E+03 0.  1.
         -6    1    1    2    0  502 -0.11417584417E+03 -0.12697180935E+03  0.49474935977E+03  0.55123850805E+03  0.17300000000E+03 0. -1.
<mgrwt>
<rscale>  2 0.24307810E+03</rscale>
<asrwt>0</asrwt>
<pdfrwt beam="1">  1       21 0.10091295E+00 0.24307810E+03</pdfrwt>
<pdfrwt beam="2">  1       21 0.21440037E-01 0.24307810E+03</pdfrwt>
<totfact> 0.15795256E+04</totfact>
</mgrwt>
</event>
<event>
 4    1  0.4333905E+000  0.3336280E+03  0.7546771E-02  0.1069543E+00
         21   -1    0    0  503  502  0.00000000000E+00  0.00000000000E+00  0.28709232608E+04  0.28709232608E+04  0.00000000000E+00 0. -1.
         21   -1    0    0  501  503 -0.00000000000E+00 -0.00000000000E+00 -0.39378995728E+02  0.39378995728E+02  0.00000000000E+00 0.  1.
          6    1    1    2  501    0 -0.16573209388E+03  0.23218854825E+03  0.15966311126E+04  0.16311157404E+04  0.17300000000E+03 0.  1.
         -6    1    1    2    0  502  0.16573209388E+03 -0.23218854825E+03  0.12349131525E+04  0.12791865162E+04  0.17300000000E+03 0. -1.
<mgrwt>
<rscale>  2 0.33362801E+03</rscale>
<asrwt>0</asrwt>
<pdfrwt beam="1">  1       21 0.44168034E+00 0.33362801E+03</pdfrwt>
<pdfrwt beam="2">  1       21 0.60583093E-02 0.33362801E+03</pdfrwt>
<totfact> 0.77463607E+02</totfact>
</mgrwt>
</event>
<event>
 4    1  0.4333905E+000  0.2175965E+03  0.7546771E-02  0.1135688E+00
         21   -1    0    0  501  502  0.00000000000E+00  0.00000000000E+00  0.20547249357E+03  0.20547249357E+03  0.00000000000E+00 0. -1.
         21   -1    0    0  502  503 -0.00000000000E+00 -0.00000000000E+00 -0.35202232979E+03  0.35202232979E+03  0.00000000000E+00 0. -1.
          6    1    1    2  501    0  0.13077705848E+03 -0.17793639755E+02  0.90545553304E+02  0.23568357996E+03  0.17300000000E+03 0. -1.
         -6    1    1    2    0  503 -0.13077705848E+03  0.17793639755E+02 -0.23709538952E+03  0.32181124339E+03  0.17300000000E+03 0. -1.
<mgrwt>
<rscale>  2 0.21759654E+03</rscale>
<asrwt>0</asrwt>
<pdfrwt beam="1">  1       21 0.31611153E-01 0.21759654E+03</pdfrwt>
<pdfrwt beam="2">  1       21 0.54157281E-01 0.21759654E+03</pdfrwt>
<totfact> 0.30591509E+04</totfact>
</mgrwt>
</event>
<event>
 4    1  0.4333905E+000  0.2025048E+03  0.7546771E-02  0.1147643E+00
         21   -1    0    0  503  502  0.00000000000E+00  0.00000000000E+00  0.38503292301E+02  0.38503292301E+02  0.00000000000E+00 0.  1.
         21   -1    0    0  501  503 -0.00000000000E+00 -0.00000000000E+00 -0.10749171806E+04  0.10749171806E+04  0.00000000000E+00 0.  1.
          6    1    1    2  501    0 -0.13832985535E+02  0.10434479735E+03 -0.46488678463E+03  0.50707781528E+03  0.17300000000E+03 0.  1.
         -6    1    1    2    0  502  0.13832985535E+02 -0.10434479735E+03 -0.57152710365E+03  0.60634265761E+03  0.17300000000E+03 0.  1.
<mgrwt>
<rscale>  2 0.20250479E+03</rscale>
<asrwt>0</asrwt>
<pdfrwt beam="1">  1       21 0.59235825E-02 0.20250479E+03</pdfrwt>
<pdfrwt beam="2">  1       21 0.16537190E+00 0.20250479E+03</pdfrwt>
<totfact> 0.46110052E+04</totfact>
</mgrwt>
</event>
<event>
 4    1  0.4333905E+000  0.2018336E+03  0.7546771E-02  0.1148201E+00
         21   -1    0    0  501  502  0.00000000000E+00  0.00000000000E+00  0.29465108487E+03  0.29465108487E+03  0.00000000000E+00 0.  1.
         21   -1    0    0  502  503 -0.00000000000E+00 -0.00000000000E+00 -0.28658437475E+03  0.28658437475E+03  0.00000000000E+00 0.  1.
          6    1    1    2  501    0 -0.22133239126E+02 -0.10157716142E+03  0.21311232788E+03  0.29351944449E+03  0.17300000000E+03 0.  1.
         -6    1    1    2    0  503  0.22133239126E+02  0.10157716142E+03 -0.20504561777E+03  0.28771601513E+03  0.17300000000E+03 0.  1.
<mgrwt>
<rscale>  2 0.20183359E+03</rscale>
<asrwt>0</asrwt>
<pdfrwt beam="1">  1       21 0.45330936E-01 0.20183359E+03</pdfrwt>
<pdfrwt beam="2">  1       21 0.44089904E-01 0.20183359E+03</pdfrwt>
<totfact> 0.22942302E+04</totfact>
</mgrwt>
</event>
<event>
 4    1  0.4333905E+000  0.1877674E+03  0.7546771E-02  0.1160491E+00
         21   -1    0    0  503  502  0.00000000000E+00  0.00000000000E+00  0.50376246744E+03  0.50376246744E+03  0.00000000000E+00 0. -1.
         21   -1    0    0  501  503 -0.00000000000E+00 -0.00000000000E+00 -0.75566568904E+02  0.75566568904E+02  0.00000000000E+00 0. -1.
          6    1    1    2  501    0 -0.11301860793E+02  0.72110034290E+02  0.13538450743E+03  0.23148553725E+03  0.17300000000E+03 0. -1.
         -6    1    1    2    0  502  0.11301860793E+02 -0.72110034290E+02  0.29281139111E+03  0.34784349910E+03  0.17300000000E+03 0. -1.
<mgrwt>
<rscale>  2 0.18776738E+03</rscale>
<asrwt>0</asrwt>
<pdfrwt beam="1">  1       21 0.77501916E-01 0.18776738E+03</pdfrwt>
<pdfrwt beam="2">  1       21 0.11625626E-01 0.18776738E+03</pdfrwt>
<totfact> 0.91921532E+04</totfact>
</mgrwt>
</event>
<event>
 4    1  0.4333905E+000  0.2052428E+03  0.7546771E-02  0.1145390E+00
         21   -1    0    0  501  502  0.00000000000E+00  0.00000000000E+00  0.59140742521E+03  0.59140742521E+03  0.00000000000E+00 0. -1.
         21   -1    0    0  502  503 -0.00000000000E+00 -0.00000000000E+00 -0.75045616244E+02  0.75045616244E+02  0.00000000000E+00 0. -1.
          6    1    1    2  501    0  0.31254004724E+02  0.10591885825E+03  0.33334103521E+03  0.39145991251E+03  0.17300000000E+03 0. -1.
         -6    1    1    2    0  503 -0.31254004724E+02 -0.10591885825E+03  0.18302077376E+03  0.27499312895E+03  0.17300000000E+03 0. -1.
<mgrwt>
<rscale>  2 0.20524283E+03</rscale>
<asrwt>0</asrwt>
<pdfrwt beam="1">  1       21 0.90985755E-01 0.20524283E+03</pdfrwt>
<pdfrwt beam="2">  1       21 0.11545480E-01 0.20524283E+03</pdfrwt>
<totfact> 0.64021632E+04</totfact>
</mgrwt>
</event>
<event>
 4    1  0.4333905E+000  0.2005277E+03  0.7546771E-02  0.1149295E+00
         21   -1    0    0  503  502  0.00000000000E+00  0.00000000000E+00  0.20214296670E+03  0.20214296670E+03  0.00000000000E+00 0.  1.
         21   -1    0    0  501  503 -0.00000000000E+00 -0.00000000000E+00 -0.19904762361E+03  0.19904762361E+03  0.00000000000E+00 0. -1.
          6    1    1    2  501    0 -0.51004688626E+01 -0.10127366039E+03 -0.34231987904E+01  0.20055694294E+03  0.17300000000E+03 0.  1.
         -6    1    1    2    0  502  0.51004688626E+01  0.10127366039E+03  0.65185418820E+01  0.20063364738E+03  0.17300000000E+03 0. -1.
<mgrwt>
<rscale>  2 0.20052773E+03</rscale>
<asrwt>0</asrwt>
<pdfrwt beam="1">  1       21 0.31098918E-01 0.20052773E+03</pdfrwt>
<pdfrwt beam="2">  1       21 0.30622711E-01 0.20052773E+03</pdfrwt>
<totfact> 0.10137026E+05</totfact>
</mgrwt>
</event>
<event>
 4    1  0.4333905E+000  0.3011850E+03  0.7546771E-02  0.1084650E+00
         21   -1    0    0  501  502  0.00000000000E+00  0.00000000000E+00  0.76672315508E+03  0.76672315508E+03  0.00000000000E+00 0. -1.
         21   -1    0    0  502  503 -0.00000000000E+00 -0.00000000000E+00 -0.21536176065E+03  0.21536176065E+03  0.00000000000E+00 0.  1.
          6    1    1    2  501    0 -0.24391380919E+02 -0.24533343610E+03  0.60531493974E+03  0.67610547299E+03  0.17300000000E+03 0. -1.
         -6    1    1    2    0  503  0.24391380919E+02  0.24533343610E+03 -0.53953545308E+02  0.30597944274E+03  0.17300000000E+03 0.  1.
<mgrwt>
<rscale>  2 0.30118505E+03</rscale>
<asrwt>0</asrwt>
<pdfrwt beam="1">  1       21 0.11795741E+00 0.30118505E+03</pdfrwt>
<pdfrwt beam="2">  1       21 0.33132579E-01 0.30118505E+03</pdfrwt>
<totfact> 0.44972297E+03</totfact>
</mgrwt>
</event>
<event>
 4    1  0.4333905E+000  0.1873556E+03  0.7546771E-02  0.1160868E+00
         21   -1    0    0  501  502  0.00000000000E+00  0.00000000000E+00  0.39817042317E+02  0.39817042317E+02  0.00000000000E+00 0. -1.
         21   -1    0    0  502  503 -0.00000000000E+00 -0.00000000000E+00 -0.92110960379E+03  0.92110960379E+03  0.00000000000E+00 0. -1.
          6    1    1    2  501    0  0.62571424202E+02 -0.35467200350E+02 -0.34111981101E+03  0.38918482870E+03  0.17300000000E+03 0. -1.
         -6    1    1    2    0  503 -0.62571424202E+02  0.35467200350E+02 -0.54017275046E+03  0.57174181740E+03  0.17300000000E+03 0. -1.
<mgrwt>
<rscale>  2 0.18735556E+03</rscale>
<asrwt>0</asrwt>
<pdfrwt beam="1">  1       21 0.61256993E-02 0.18735556E+03</pdfrwt>
<pdfrwt beam="2">  1       21 0.14170916E+00 0.18735556E+03</pdfrwt>
<totfact> 0.66168092E+04</totfact>
</mgrwt>
</event>
<event>
 4    1  0.4333905E+000  0.1783131E+03  0.7546771E-02  0.1169446E+00
         21   -1    0    0  501  502  0.00000000000E+00  0.00000000000E+00  0.74624909698E+03  0.74624909698E+03  0.00000000000E+00 0.  1.
         21   -1    0    0  502  503 -0.00000000000E+00 -0.00000000000E+00 -0.45191637975E+02  0.45191637975E+02  0.00000000000E+00 0.  1.
          6    1    1    2  501    0 -0.23471922873E+02 -0.36271810212E+02  0.25589554626E+03  0.31189438273E+03  0.17300000000E+03 0.  1.
         -6    1    1    2    0  503  0.23471922873E+02  0.36271810212E+02  0.44516191274E+03  0.47954635223E+03  0.17300000000E+03 0.  1.
<mgrwt>
<rscale>  2 0.17831314E+03</rscale>
<asrwt>0</asrwt>
<pdfrwt beam="1">  1       21 0.11480754E+00 0.17831314E+03</pdfrwt>
<pdfrwt beam="2">  1       21 0.69525602E-02 0.17831314E+03</pdfrwt>
<totfact> 0.90666821E+04</totfact>
</mgrwt>
</event>
<event>
 4    1  0.4333905E+000  0.3077751E+03  0.7546771E-02  0.1081417E+00
         21   -1    0    0  503  502  0.00000000000E+00  0.00000000000E+00  0.11819128744E+03  0.11819128744E+03  0.00000000000E+00 0. -1.
         21   -1    0    0  501  503 -0.00000000000E+00 -0.00000000000E+00 -0.90468998723E+03  0.90468998723E+03  0.00000000000E+00 0.  1.
          6    1    1    2  501    0  0.25213566136E+03 -0.34987601983E+02 -0.56601183326E+03  0.64427860387E+03  0.17300000000E+03 0.  1.
         -6    1    1    2    0  502 -0.25213566136E+03  0.34987601983E+02 -0.22048686654E+03  0.37860267080E+03  0.17300000000E+03 0. -1.
<mgrwt>
<rscale>  2 0.30777512E+03</rscale>
<asrwt>0</asrwt>
<pdfrwt beam="1">  1       21 0.18183275E-01 0.30777512E+03</pdfrwt>
<pdfrwt beam="2">  1       21 0.13918307E+00 0.30777512E+03</pdfrwt>
<totfact> 0.93383031E+03</totfact>
</mgrwt>
</event>
<event>
 4    1  0.4333905E+000  0.1805041E+03  0.7546771E-02  0.1167316E+00
         21   -1    0    0  503  502  0.00000000000E+00  0.00000000000E+00  0.55511884011E+02  0.55511884011E+02  0.00000000000E+00 0.  1.
         21   -1    0    0  501  503 -0.00000000000E+00 -0.00000000000E+00 -0.59964941781E+03  0.59964941781E+03  0.00000000000E+00 0.  1.
          6    1    1    2  501    0 -0.50739843308E+02  0.88435757565E+01 -0.22436453843E+03  0.28796039074E+03  0.17300000000E+03 0.  1.
         -6    1    1    2    0  502  0.50739843308E+02 -0.88435757565E+01 -0.31977299538E+03  0.36720091109E+03  0.17300000000E+03 0.  1.
<mgrwt>
<rscale>  2 0.18050413E+03</rscale>
<asrwt>0</asrwt>
<pdfrwt beam="1">  1       21 0.85402901E-02 0.18050413E+03</pdfrwt>
<pdfrwt beam="2">  1       21 0.92253754E-01 0.18050413E+03</pdfrwt>
<totfact> 0.10672712E+05</totfact>
</mgrwt>
</event>
<event>
 4    1  0.4333905E+000  0.2490042E+03  0.7546771E-02  0.1113936E+00
         21   -1    0    0  503  502  0.00000000000E+00  0.00000000000E+00  0.88838898807E+02  0.88838898807E+02  0.00000000000E+00 0.  1.
         21   -1    0    0  501  503 -0.00000000000E+00 -0.00000000000E+00 -0.78000613660E+03  0.78000613660E+03  0.00000000000E+00 0.  1.
          6    1    1    2  501    0 -0.36992558174E+02 -0.17523027331E+03 -0.48650560577E+03  0.54652612242E+03  0.17300000000E+03 0.  1.
         -6    1    1    2    0  502  0.36992558174E+02  0.17523027331E+03 -0.20466163202E+03  0.32231891298E+03  0.17300000000E+03 0.  1.
<mgrwt>
<rscale>  2 0.24900421E+03</rscale>
<asrwt>0</asrwt>
<pdfrwt beam="1">  1       21 0.13667523E-01 0.24900421E+03</pdfrwt>
<pdfrwt beam="2">  1       21 0.12000094E+00 0.24900421E+03</pdfrwt>
<totfact> 0.23759771E+04</totfact>
</mgrwt>
</event>
<event>
 4    1  0.4333905E+000  0.1876124E+03  0.7546771E-02  0.1160633E+00
         21   -1    0    0  503  502  0.00000000000E+00  0.00000000000E+00  0.80996941038E+02  0.80996941038E+02  0.00000000000E+00 0.  1.
         21   -1    0    0  501  503 -0.00000000000E+00 -0.00000000000E+00 -0.61888167058E+03  0.61888167058E+03  0.00000000000E+00 0.  1.
          6    1    1    2  501    0  0.15498216050E+02  0.70917029421E+02 -0.45991513843E+03  0.49670952710E+03  0.17300000000E+03 0.  1.
         -6    1    1    2    0  502 -0.15498216050E+02 -0.70917029421E+02 -0.77969591114E+02  0.20316908451E+03  0.17300000000E+03 0.  1.
<mgrwt>
<rscale>  2 0.18761242E+03</rscale>
<asrwt>0</asrwt>
<pdfrwt beam="1">  1       21 0.12461067E-01 0.18761242E+03</pdfrwt>
<pdfrwt beam="2">  1       21 0.95212570E-01 0.18761242E+03</pdfrwt>
<totfact> 0.50669503E+04</totfact>
</mgrwt>
</event>
<event>
 4    1  0.4333905E+000  0.2051230E+03  0.7546771E-02  0.1145487E+00
         21   -1    0    0  501  502  0.00000000000E+00  0.00000000000E+00  0.42797240607E+02  0.42797240607E+02  0.00000000000E+00 0. -1.
         21   -1    0    0  502  503 -0.00000000000E+00 -0.00000000000E+00 -0.15406354468E+04  0.15406354468E+04  0.00000000000E+00 0.  1.
          6    1    1    2  501    0 -0.77551458771E+02 -0.78308479183E+02 -0.27266092589E+03  0.34120291203E+03  0.17300000000E+03 0. -1.
         -6    1    1    2    0  503  0.77551458771E+02  0.78308479183E+02 -0.12251772803E+04  0.12422297754E+04  0.17300000000E+03 0.  1.
<mgrwt>
<rscale>  2 0.20512300E+03</rscale>
<asrwt>0</asrwt>
<pdfrwt beam="1">  1       21 0.65841914E-02 0.20512300E+03</pdfrwt>
<pdfrwt beam="2">  1       21 0.23702082E+00 0.20512300E+03</pdfrwt>
<totfact> 0.13197159E+04</totfact>
</mgrwt>
</event>
<event>
 4    1  0.4333905E+000  0.1913354E+03  0.7546771E-02  0.1157262E+00
         21   -1    0    0  501  502  0.00000000000E+00  0.00000000000E+00  0.23986073223E+02  0.23986073223E+02  0.00000000000E+00 0.  1.
         21   -1    0    0  502  503 -0.00000000000E+00 -0.00000000000E+00 -0.18409390633E+04  0.18409390633E+04  0.00000000000E+00 0.  1.
          6    1    1    2  501    0 -0.81099288030E+02  0.10155314934E+02 -0.52296378906E+03  0.55686654560E+03  0.17300000000E+03 0.  1.
         -6    1    1    2    0  503  0.81099288030E+02 -0.10155314934E+02 -0.12939892010E+04  0.13080585909E+04  0.17300000000E+03 0.  1.
<mgrwt>
<rscale>  2 0.19133537E+03</rscale>
<asrwt>0</asrwt>
<pdfrwt beam="1">  1       21 0.36901649E-02 0.19133537E+03</pdfrwt>
<pdfrwt beam="2">  1       21 0.28322141E+00 0.19133537E+03</pdfrwt>
<totfact> 0.19145653E+04</totfact>
</mgrwt>
</event>
<event>
 4    1  0.4333905E+000  0.1741774E+03  0.7546771E-02  0.1173560E+00
         21   -1    0    0  501  502  0.00000000000E+00  0.00000000000E+00  0.26289760839E+02  0.26289760839E+02  0.00000000000E+00 0.  1.
         21   -1    0    0  502  503 -0.00000000000E+00 -0.00000000000E+00 -0.23883544980E+04  0.23883544980E+04  0.00000000000E+00 0.  1.
          6    1    1    2  501    0  0.19195527798E+02  0.63490239377E+01 -0.31307624564E+03  0.35826598216E+03  0.17300000000E+03 0.  1.
         -6    1    1    2    0  503 -0.19195527798E+02 -0.63490239377E+01 -0.20489884915E+04  0.20563782766E+04  0.17300000000E+03 0.  1.
<mgrwt>
<rscale>  2 0.17417743E+03</rscale>
<asrwt>0</asrwt>
<pdfrwt beam="1">  1       21 0.40445782E-02 0.17417743E+03</pdfrwt>
<pdfrwt beam="2">  1       21 0.36743919E+00 0.17417743E+03</pdfrwt>
<totfact> 0.54324115E+03</totfact>
</mgrwt>
</event>
<event>
 4    1  0.4333905E+000  0.1957159E+03  0.7546771E-02  0.1153405E+00
         21   -1    0    0  503  502  0.00000000000E+00  0.00000000000E+00  0.33725637619E+03  0.33725637619E+03  0.00000000000E+00 0.  1.
         21   -1    0    0  501  503 -0.00000000000E+00 -0.00000000000E+00 -0.11704198856E+03  0.11704198856E+03  0.00000000000E+00 0.  1.
          6    1    1    2  501    0 -0.49998745678E+02 -0.76654026115E+02  0.71026348841E+02  0.20820532298E+03  0.17300000000E+03 0.  1.
         -6    1    1    2    0  502  0.49998745678E+02  0.76654026115E+02  0.14918803879E+03  0.24609304177E+03  0.17300000000E+03 0.  1.
<mgrwt>
<rscale>  2 0.19571590E+03</rscale>
<asrwt>0</asrwt>
<pdfrwt beam="1">  1       21 0.51885596E-01 0.19571590E+03</pdfrwt>
<pdfrwt beam="2">  1       21 0.18006460E-01 0.19571590E+03</pdfrwt>
<totfact> 0.98827042E+04</totfact>
</mgrwt>
</event>
<event>
 4    1  0.4333905E+000  0.1751601E+03  0.7546771E-02  0.1172571E+00
         21   -1    0    0  501  502  0.00000000000E+00  0.00000000000E+00  0.12876272704E+03  0.12876272704E+03  0.00000000000E+00 0. -1.
         21   -1    0    0  502  503 -0.00000000000E+00 -0.00000000000E+00 -0.28824326478E+03  0.28824326478E+03  0.00000000000E+00 0. -1.
          6    1    1    2  501    0  0.16757138536E+02  0.21708255772E+02 -0.16655153572E+03  0.24170325631E+03  0.17300000000E+03 0. -1.
         -6    1    1    2    0  503 -0.16757138536E+02 -0.21708255772E+02  0.70709979844E+01  0.17530273550E+03  0.17300000000E+03 0. -1.
<mgrwt>
<rscale>  2 0.17516007E+03</rscale>
<asrwt>0</asrwt>
<pdfrwt beam="1">  1       21 0.19809650E-01 0.17516007E+03</pdfrwt>
<pdfrwt beam="2">  1       21 0.44345117E-01 0.17516007E+03</pdfrwt>
<totfact> 0.11548088E+05</totfact>
</mgrwt>
</event>
<event>
 4    1  0.4333905E+000  0.1878759E+03  0.7546771E-02  0.1160391E+00
         21   -1    0    0  501  502  0.00000000000E+00  0.00000000000E+00  0.66866883574E+02  0.66866883574E+02  0.00000000000E+00 0.  1.
         21   -1    0    0  502  503 -0.00000000000E+00 -0.00000000000E+00 -0.13771805229E+04  0.13771805229E+04  0.00000000000E+00 0.  1.
          6    1    1    2  501    0  0.72549401167E+02 -0.10243478374E+02 -0.88150318923E+02  0.20752788532E+03  0.17300000000E+03 0.  1.
         -6    1    1    2    0  503 -0.72549401167E+02  0.10243478374E+02 -0.12221633204E+04  0.12365195212E+04  0.17300000000E+03 0.  1.
<mgrwt>
<rscale>  2 0.18787588E+03</rscale>
<asrwt>0</asrwt>
<pdfrwt beam="1">  1       21 0.10287212E-01 0.18787588E+03</pdfrwt>
<pdfrwt beam="2">  1       21 0.21187395E+00 0.18787588E+03</pdfrwt>
<totfact> 0.87548938E+03</totfact>
</mgrwt>
</event>
<event>
 4    1  0.4333905E+000  0.2312648E+03  0.7546771E-02  0.1125753E+00
         21   -1    0    0  501  502  0.00000000000E+00  0.00000000000E+00  0.42264983507E+03  0.42264983507E+03  0.00000000000E+00 0.  1.
         21   -1    0    0  502  503 -0.00000000000E+00 -0.00000000000E+00 -0.20384241290E+03  0.20384241290E+03  0.00000000000E+00 0. -1.
          6    1    1    2  501    0  0.20990107050E+02  0.15203227039E+03  0.30230112701E+03  0.38061708740E+03  0.17300000000E+03 0.  1.
         -6    1    1    2    0  503 -0.20990107050E+02 -0.15203227039E+03 -0.83493704839E+02  0.24587516056E+03  0.17300000000E+03 0. -1.
<mgrwt>
<rscale>  2 0.23126477E+03</rscale>
<asrwt>0</asrwt>
<pdfrwt beam="1">  1       21 0.65023051E-01 0.23126477E+03</pdfrwt>
<pdfrwt beam="2">  1       21 0.31360371E-01 0.23126477E+03</pdfrwt>
<totfact> 0.20820247E+04</totfact>
</mgrwt>
</event>
<event>
 4    1  0.4333905E+000  0.1781468E+03  0.7546771E-02  0.1169609E+00
         21   -1    0    0  503  502  0.00000000000E+00  0.00000000000E+00  0.22652326398E+03  0.22652326398E+03  0.00000000000E+00 0. -1.
         21   -1    0    0  501  503 -0.00000000000E+00 -0.00000000000E+00 -0.19548834963E+03  0.19548834963E+03  0.00000000000E+00 0.  1.
          6    1    1    2  501    0  0.42378948673E+02 -0.33629511429E+01 -0.96797263528E+02  0.20274613426E+03  0.17300000000E+03 0.  1.
         -6    1    1    2    0  502 -0.42378948673E+02  0.33629511429E+01  0.12783217788E+03  0.21926547935E+03  0.17300000000E+03 0. -1.
<mgrwt>
<rscale>  2 0.17814681E+03</rscale>
<asrwt>0</asrwt>
<pdfrwt beam="1">  1       21 0.34849733E-01 0.17814681E+03</pdfrwt>
<pdfrwt beam="2">  1       21 0.30075131E-01 0.17814681E+03</pdfrwt>
<totfact> 0.84654393E+04</totfact>
</mgrwt>
</event>
<event>
 4    1  0.4333905E+000  0.2152431E+03  0.7546771E-02  0.1137480E+00
         21   -1    0    0  503  502  0.00000000000E+00  0.00000000000E+00  0.45511246944E+02  0.45511246944E+02  0.00000000000E+00 0. -1.
         21   -1    0    0  501  503 -0.00000000000E+00 -0.00000000000E+00 -0.10515029361E+04  0.10515029361E+04  0.00000000000E+00 0. -1.
          6    1    1    2  501    0  0.12558490542E+03  0.25080119777E+02 -0.60093178306E+03  0.63831699709E+03  0.17300000000E+03 0. -1.
         -6    1    1    2    0  502 -0.12558490542E+03 -0.25080119777E+02 -0.40505990606E+03  0.45869718593E+03  0.17300000000E+03 0. -1.
<mgrwt>
<rscale>  2 0.21524307E+03</rscale>
<asrwt>0</asrwt>
<pdfrwt beam="1">  1       21 0.70017307E-02 0.21524307E+03</pdfrwt>
<pdfrwt beam="2">  1       21 0.16176967E+00 0.21524307E+03</pdfrwt>
<totfact> 0.36437348E+04</totfact>
</mgrwt>
</event>
<event>
 4    1  0.4333905E+000  0.2217397E+03  0.7546771E-02  0.1132593E+00
         21   -1    0    0  503  502  0.00000000000E+00  0.00000000000E+00  0.19918659532E+04  0.19918659532E+04  0.00000000000E+00 0.  1.
         21   -1    0    0  501  503 -0.00000000000E+00 -0.00000000000E+00 -0.40083838743E+02  0.40083838743E+02  0.00000000000E+00 0.  1.
          6    1    1    2  501    0  0.55350413621E+02 -0.12718430580E+03  0.34617142886E+03  0.41109995632E+03  0.17300000000E+03 0.  1.
         -6    1    1    2    0  502 -0.55350413621E+02  0.12718430580E+03  0.16056106856E+04  0.16208498356E+04  0.17300000000E+03 0.  1.
<mgrwt>
<rscale>  2 0.22173975E+03</rscale>
<asrwt>0</asrwt>
<pdfrwt beam="1">  1       21 0.30644084E+00 0.22173975E+03</pdfrwt>
<pdfrwt beam="2">  1       21 0.61667460E-02 0.22173975E+03</pdfrwt>
<totfact> 0.57120712E+03</totfact>
</mgrwt>
</event>
<event>
 4    1  0.4333905E+000  0.1955160E+03  0.7546771E-02  0.1153578E+00
         21   -1    0    0  503  502  0.00000000000E+00  0.00000000000E+00  0.13820541030E+04  0.13820541030E+04  0.00000000000E+00 0. -1.
         21   -1    0    0  501  503 -0.00000000000E+00 -0.00000000000E+00 -0.12204656024E+03  0.12204656024E+03  0.00000000000E+00 0. -1.
          6    1    1    2  501    0  0.90930414183E+02 -0.54007600177E+01 -0.31361002308E+02  0.19801520370E+03  0.17300000000E+03 0. -1.
         -6    1    1    2    0  502 -0.90930414183E+02  0.54007600177E+01  0.12913685451E+04  0.13060854595E+04  0.17300000000E+03 0. -1.
<mgrwt>
<rscale>  2 0.19551601E+03</rscale>
<asrwt>0</asrwt>
<pdfrwt beam="1">  1       21 0.21262370E+00 0.19551601E+03</pdfrwt>
<pdfrwt beam="2">  1       21 0.18776395E-01 0.19551601E+03</pdfrwt>
<totfact> 0.28927165E+03</totfact>
</mgrwt>
</event>
<event>
 4    1  0.4333905E+000  0.1874178E+03  0.7546771E-02  0.1160811E+00
         21   -1    0    0  501  502  0.00000000000E+00  0.00000000000E+00  0.13457099628E+04  0.13457099628E+04  0.00000000000E+00 0.  1.
         21   -1    0    0  502  503 -0.00000000000E+00 -0.00000000000E+00 -0.26885045758E+02  0.26885045758E+02  0.00000000000E+00 0.  1.
          6    1    1    2  501    0 -0.71861960493E+02 -0.56808761161E+01  0.77655482814E+03  0.79885093405E+03  0.17300000000E+03 0.  1.
         -6    1    1    2    0  503  0.71861960493E+02  0.56808761161E+01  0.54227008888E+03  0.57374407449E+03  0.17300000000E+03 0.  1.
<mgrwt>
<rscale>  2 0.18741775E+03</rscale>
<asrwt>0</asrwt>
<pdfrwt beam="1">  1       21 0.20703225E+00 0.18741775E+03</pdfrwt>
<pdfrwt beam="2">  1       21 0.41361619E-02 0.18741775E+03</pdfrwt>
<totfact> 0.45032921E+04</totfact>
</mgrwt>
</event>
<event>
 4    1  0.4333905E+000  0.1822266E+03  0.7546771E-02  0.1165665E+00
         21   -1    0    0  501  502  0.00000000000E+00  0.00000000000E+00  0.23422848891E+03  0.23422848891E+03  0.00000000000E+00 0.  1.
         21   -1    0    0  502  503 -0.00000000000E+00 -0.00000000000E+00 -0.18533251655E+03  0.18533251655E+03  0.00000000000E+00 0.  1.
          6    1    1    2  501    0  0.57209966822E+02 -0.21304258480E+01  0.12615407107E+03  0.22163341053E+03  0.17300000000E+03 0.  1.
         -6    1    1    2    0  503 -0.57209966822E+02  0.21304258480E+01 -0.77258098706E+02  0.19792759493E+03  0.17300000000E+03 0.  1.
<mgrwt>
<rscale>  2 0.18222656E+03</rscale>
<asrwt>0</asrwt>
<pdfrwt beam="1">  1       21 0.36035152E-01 0.18222656E+03</pdfrwt>
<pdfrwt beam="2">  1       21 0.28512695E-01 0.18222656E+03</pdfrwt>
<totfact> 0.87712792E+04</totfact>
</mgrwt>
</event>
<event>
 4    1  0.4333905E+000  0.2303799E+03  0.7546771E-02  0.1126373E+00
         21   -1    0    0  501  502  0.00000000000E+00  0.00000000000E+00  0.25870643726E+03  0.25870643726E+03  0.00000000000E+00 0.  1.
         21   -1    0    0  502  503 -0.00000000000E+00 -0.00000000000E+00 -0.21948973035E+03  0.21948973035E+03  0.00000000000E+00 0. -1.
          6    1    1    2  501    0  0.21676168448E+02 -0.15058567885E+03  0.80711658909E+02  0.24410914534E+03  0.17300000000E+03 0.  1.
         -6    1    1    2    0  503 -0.21676168448E+02  0.15058567885E+03 -0.41494951997E+02  0.23408702227E+03  0.17300000000E+03 0. -1.
<mgrwt>
<rscale>  2 0.23037991E+03</rscale>
<asrwt>0</asrwt>
<pdfrwt beam="1">  1       21 0.39800990E-01 0.23037991E+03</pdfrwt>
<pdfrwt beam="2">  1       21 0.33767651E-01 0.23037991E+03</pdfrwt>
<totfact> 0.50516689E+04</totfact>
</mgrwt>
</event>
<event>
 4    1  0.4333905E+000  0.2508956E+03  0.7546771E-02  0.1112740E+00
         21   -1    0    0  503  502  0.00000000000E+00  0.00000000000E+00  0.26627218419E+03  0.26627218419E+03  0.00000000000E+00 0. -1.
         21   -1    0    0  501  503 -0.00000000000E+00 -0.00000000000E+00 -0.58032246014E+03  0.58032246014E+03  0.00000000000E+00 0. -1.
          6    1    1    2  501    0  0.17961043187E+03  0.27562514373E+02 -0.48288937638E+03  0.54417896804E+03  0.17300000000E+03 0. -1.
         -6    1    1    2    0  502 -0.17961043187E+03 -0.27562514373E+02  0.16883910042E+03  0.30241567629E+03  0.17300000000E+03 0. -1.
<mgrwt>
<rscale>  2 0.25089559E+03</rscale>
<asrwt>0</asrwt>
<pdfrwt beam="1">  1       21 0.40964952E-01 0.25089559E+03</pdfrwt>
<pdfrwt beam="2">  1       21 0.89280378E-01 0.25089559E+03</pdfrwt>
<totfact> 0.59018382E+03</totfact>
</mgrwt>
</event>
<event>
 4    1  0.4333905E+000  0.1800092E+03  0.7546771E-02  0.1167794E+00
         21   -1    0    0  503  502  0.00000000000E+00  0.00000000000E+00  0.14268089458E+03  0.14268089458E+03  0.00000000000E+00 0.  1.
         21   -1    0    0  501  503 -0.00000000000E+00 -0.00000000000E+00 -0.44988828763E+03  0.44988828763E+03  0.00000000000E+00 0. -1.
          6    1    1    2  501    0 -0.25626775939E+02 -0.42632964943E+02 -0.36210063776E+03  0.40437627677E+03  0.17300000000E+03 0. -1.
         -6    1    1    2    0  502  0.25626775939E+02  0.42632964943E+02  0.54893244708E+02  0.18819290544E+03  0.17300000000E+03 0.  1.
<mgrwt>
<rscale>  2 0.18000917E+03</rscale>
<asrwt>0</asrwt>
<pdfrwt beam="1">  1       21 0.21950907E-01 0.18000917E+03</pdfrwt>
<pdfrwt beam="2">  1       21 0.69213581E-01 0.18000917E+03</pdfrwt>
<totfact> 0.37064853E+04</totfact>
</mgrwt>
</event>
<event>
 4    1  0.4333905E+000  0.3040366E+03  0.7546771E-02  0.1083240E+00
         21   -1    0    0  501  502  0.00000000000E+00  0.00000000000E+00  0.11840325909E+04  0.11840325909E+04  0.00000000000E+00 0. -1.
         21   -1    0    0  502  503 -0.00000000000E+00 -0.00000000000E+00 -0.22385415585E+03  0.22385415585E+03  0.00000000000E+00 0.  1.
          6    1    1    2  501    0  0.84399469110E+02 -0.23534227246E+03  0.10481689065E+04  0.10913735896E+04  0.17300000000E+03 0. -1.
         -6    1    1    2    0  503 -0.84399469110E+02  0.23534227246E+03 -0.87990471404E+02  0.31651315716E+03  0.17300000000E+03 0.  1.
<mgrwt>
<rscale>  2 0.30403660E+03</rscale>
<asrwt>0</asrwt>
<pdfrwt beam="1">  1       21 0.18215886E+00 0.30403660E+03</pdfrwt>
<pdfrwt beam="2">  1       21 0.34439102E-01 0.30403660E+03</pdfrwt>
<totfact> 0.13013166E+03</totfact>
</mgrwt>
</event>
<event>
 4    1  0.4333905E+000  0.1992318E+03  0.7546771E-02  0.1150389E+00
         21   -1    0    0  501  502  0.00000000000E+00  0.00000000000E+00  0.59586164143E+03  0.59586164143E+03  0.00000000000E+00 0. -1.
         21   -1    0    0  502  503 -0.00000000000E+00 -0.00000000000E+00 -0.18292351484E+03  0.18292351484E+03  0.00000000000E+00 0.  1.
          6    1    1    2  501    0 -0.96198095154E+02 -0.22588504170E+02  0.51696697577E+03  0.55402903179E+03  0.17300000000E+03 0. -1.
         -6    1    1    2    0  503  0.96198095154E+02  0.22588504170E+02 -0.10402884918E+03  0.22475612449E+03  0.17300000000E+03 0.  1.
<mgrwt>
<rscale>  2 0.19923181E+03</rscale>
<asrwt>0</asrwt>
<pdfrwt beam="1">  1       21 0.91671021E-01 0.19923181E+03</pdfrwt>
<pdfrwt beam="2">  1       21 0.28142080E-01 0.19923181E+03</pdfrwt>
<totfact> 0.12091661E+04</totfact>
</mgrwt>
</event>
<event>
 4    1  0.4333905E+000  0.3184915E+03  0.7546771E-02  0.1076346E+00
         21   -1    0    0  503  502  0.00000000000E+00  0.00000000000E+00  0.20247993684E+03  0.20247993684E+03  0.00000000000E+00 0.  1.
         21   -1    0    0  501  503 -0.00000000000E+00 -0.00000000000E+00 -0.93364907267E+03  0.93364907267E+03  0.00000000000E+00 0.  1.
          6    1    1    2  501    0  0.26395776044E+03  0.42826964068E+02 -0.75229651389E+03  0.81693750860E+03  0.17300000000E+03 0.  1.
         -6    1    1    2    0  502 -0.26395776044E+03 -0.42826964068E+02  0.21127378058E+02  0.31919150091E+03  0.17300000000E+03 0.  1.
<mgrwt>
<rscale>  2 0.31849152E+03</rscale>
<asrwt>0</asrwt>
<pdfrwt beam="1">  1       21 0.31150760E-01 0.31849152E+03</pdfrwt>
<pdfrwt beam="2">  1       21 0.14363832E+00 0.31849152E+03</pdfrwt>
<totfact> 0.30355569E+03</totfact>
</mgrwt>
</event>
<event>
 4    1  0.4333905E+000  0.2378572E+03  0.7546771E-02  0.1121229E+00
         21   -1    0    0  503  502  0.00000000000E+00  0.00000000000E+00  0.19850985009E+03  0.19850985009E+03  0.00000000000E+00 0. -1.
         21   -1    0    0  501  503 -0.00000000000E+00 -0.00000000000E+00 -0.29517676587E+03  0.29517676587E+03  0.00000000000E+00 0. -1.
          6    1    1    2  501    0 -0.34140558710E+01 -0.16320345856E+03 -0.25078705651E+01  0.23787037243E+03  0.17300000000E+03 0. -1.
         -6    1    1    2    0  502  0.34140558710E+01  0.16320345856E+03 -0.94159045211E+02  0.25581624354E+03  0.17300000000E+03 0. -1.
<mgrwt>
<rscale>  2 0.23785715E+03</rscale>
<asrwt>0</asrwt>
<pdfrwt beam="1">  1       21 0.30539977E-01 0.23785715E+03</pdfrwt>
<pdfrwt beam="2">  1       21 0.45411810E-01 0.23785715E+03</pdfrwt>
<totfact> 0.46872510E+04</totfact>
</mgrwt>
</event>
<event>
 4    1  0.4333905E+000  0.2261226E+03  0.7546771E-02  0.1129399E+00
         21   -1    0    0  501  502  0.00000000000E+00  0.00000000000E+00  0.39127706289E+02  0.39127706289E+02  0.00000000000E+00 0.  1.
         21   -1    0    0  502  503 -0.00000000000E+00 -0.00000000000E+00 -0.13199809572E+04  0.13199809572E+04  0.00000000000E+00 0.  1.
          6    1    1    2  501    0 -0.28878509361E+02 -0.14271815307E+03 -0.57247715218E+03  0.61551728594E+03  0.17300000000E+03 0.  1.
         -6    1    1    2    0  503  0.28878509361E+02  0.14271815307E+03 -0.70837609875E+03  0.74359137757E+03  0.17300000000E+03 0.  1.
<mgrwt>
<rscale>  2 0.22612262E+03</rscale>
<asrwt>0</asrwt>
<pdfrwt beam="1">  1       21 0.60196492E-02 0.22612262E+03</pdfrwt>
<pdfrwt beam="2">  1       21 0.20307392E+00 0.22612262E+03</pdfrwt>
<totfact> 0.24572795E+04</totfact>
</mgrwt>
</event>
<event>
 4    1  0.4333905E+000  0.2055381E+03  0.7546771E-02  0.1145149E+00
         21   -1    0    0  501  502  0.00000000000E+00  0.00000000000E+00  0.56992022489E+02  0.56992022489E+02  0.00000000000E+00 0. -1.
         21   -1    0    0  502  503 -0.00000000000E+00 -0.00000000000E+00 -0.11807329335E+04  0.11807329335E+04  0.00000000000E+00 0. -1.
          6    1    1    2  501    0 -0.57539309235E+02 -0.94900779555E+02 -0.18431202135E+03  0.27607399603E+03  0.17300000000E+03 0. -1.
         -6    1    1    2    0  503  0.57539309235E+02  0.94900779555E+02 -0.93942888965E+03  0.96165095995E+03  0.17300000000E+03 0. -1.
<mgrwt>
<rscale>  2 0.20553815E+03</rscale>
<asrwt>0</asrwt>
<pdfrwt beam="1">  1       21 0.87680031E-02 0.20553815E+03</pdfrwt>
<pdfrwt beam="2">  1       21 0.18165123E+00 0.20553815E+03</pdfrwt>
<totfact> 0.17962450E+04</totfact>
</mgrwt>
</event>
<event>
 4    1  0.4333905E+000  0.1800757E+03  0.7546771E-02  0.1167730E+00
         21   -1    0    0  501  502  0.00000000000E+00  0.00000000000E+00  0.22412074966E+02  0.22412074966E+02  0.00000000000E+00 0.  1.
         21   -1    0    0  502  503 -0.00000000000E+00 -0.00000000000E+00 -0.21215898254E+04  0.21215898254E+04  0.00000000000E+00 0.  1.
          6    1    1    2  501    0 -0.47829319907E+02 -0.14512660969E+02 -0.44504531761E+03  0.48009644437E+03  0.17300000000E+03 0.  1.
         -6    1    1    2    0  503  0.47829319907E+02  0.14512660969E+02 -0.16541324329E+04  0.16639054560E+04  0.17300000000E+03 0.  1.
<mgrwt>
<rscale>  2 0.18007571E+03</rscale>
<asrwt>0</asrwt>
<pdfrwt beam="1">  1       21 0.34480110E-02 0.18007571E+03</pdfrwt>
<pdfrwt beam="2">  1       21 0.32639848E+00 0.18007571E+03</pdfrwt>
<totfact> 0.12245018E+04</totfact>
</mgrwt>
</event>
<event>
 4    1  0.4333905E+000  0.1867471E+03  0.7546771E-02  0.1161428E+00
         21   -1    0    0  503  502  0.00000000000E+00  0.00000000000E+00  0.48516250528E+02  0.48516250528E+02  0.00000000000E+00 0. -1.
         21   -1    0    0  501  503 -0.00000000000E+00 -0.00000000000E+00 -0.72287743781E+03  0.72287743781E+03  0.00000000000E+00 0. -1.
          6    1    1    2  501    0 -0.59260582186E+01  0.70073890121E+02 -0.30828571391E+03  0.36043660975E+03  0.17300000000E+03 0.  1.
         -6    1    1    2    0  502  0.59260582186E+01 -0.70073890121E+02 -0.36607547337E+03  0.41095707859E+03  0.17300000000E+03 0.  1.
<mgrwt>
<rscale>  2 0.18674707E+03</rscale>
<asrwt>0</asrwt>
<pdfrwt beam="1">  1       21 0.74640386E-02 0.18674707E+03</pdfrwt>
<pdfrwt beam="2">  1       21 0.11121191E+00 0.18674707E+03</pdfrwt>
<totfact> 0.86315402E+04</totfact>
</mgrwt>
</event>
<event>
 4    1  0.4333905E+000  0.1841651E+03  0.7546771E-02  0.1163832E+00
         21   -1    0    0  503  502  0.00000000000E+00  0.00000000000E+00  0.31274285228E+04  0.31274285228E+04  0.00000000000E+00 0.  1.
         21   -1    0    0  501  503 -0.00000000000E+00 -0.00000000000E+00 -0.11780589449E+02  0.11780589449E+02  0.00000000000E+00 0.  1.
          6    1    1    2  501    0  0.53838117922E+02  0.33003882701E+02  0.11154785794E+04  0.11305791703E+04  0.17300000000E+03 0. -1.
         -6    1    1    2    0  502 -0.53838117922E+02 -0.33003882701E+02  0.20001693540E+04  0.20086299420E+04  0.17300000000E+03 0. -1.
<mgrwt>
<rscale>  2 0.18416514E+03</rscale>
<asrwt>0</asrwt>
<pdfrwt beam="1">  1       21 0.48114219E+00 0.18416514E+03</pdfrwt>
<pdfrwt beam="2">  1       21 0.18124009E-02 0.18416514E+03</pdfrwt>
<totfact> 0.37494177E+03</totfact>
</mgrwt>
</event>
<event>
 4    1  0.4333905E+000  0.2613129E+03  0.7546771E-02  0.1106357E+00
         21   -1    0    0  503  502  0.00000000000E+00  0.00000000000E+00  0.16300927133E+03  0.16300927133E+03  0.00000000000E+00 0.  1.
         21   -1    0    0  501  503 -0.00000000000E+00 -0.00000000000E+00 -0.48131077923E+03  0.48131077923E+03  0.00000000000E+00 0. -1.
          6    1    1    2  501    0  0.19459678410E+03  0.22080518505E+02 -0.43141842873E+02  0.26485029033E+03  0.17300000000E+03 0.  1.
         -6    1    1    2    0  502 -0.19459678410E+03 -0.22080518505E+02 -0.27515966502E+03  0.37946976023E+03  0.17300000000E+03 0. -1.
<mgrwt>
<rscale>  2 0.26131295E+03</rscale>
<asrwt>0</asrwt>
<pdfrwt beam="1">  1       21 0.25078349E-01 0.26131295E+03</pdfrwt>
<pdfrwt beam="2">  1       21 0.74047812E-01 0.26131295E+03</pdfrwt>
<totfact> 0.23768177E+04</totfact>
</mgrwt>
</event>
<event>
 4    1  0.4333905E+000  0.2463890E+03  0.7546771E-02  0.1115608E+00
         21   -1    0    0  503  502  0.00000000000E+00  0.00000000000E+00  0.99333848938E+03  0.99333848938E+03  0.00000000000E+00 0.  1.
         21   -1    0    0  501  503 -0.00000000000E+00 -0.00000000000E+00 -0.93015878345E+02  0.93015878345E+02  0.00000000000E+00 0. -1.
          6    1    1    2  501    0  0.74401921277E+02 -0.15888008905E+03  0.13205907518E+03  0.27954807802E+03  0.17300000000E+03 0. -1.
         -6    1    1    2    0  502 -0.74401921277E+02  0.15888008905E+03  0.76826353585E+03  0.80680628971E+03  0.17300000000E+03 0.  1.
<mgrwt>
<rscale>  2 0.24638898E+03</rscale>
<asrwt>0</asrwt>
<pdfrwt beam="1">  1       21 0.15282130E+00 0.24638898E+03</pdfrwt>
<pdfrwt beam="2">  1       21 0.14310136E-01 0.24638898E+03</pdfrwt>
<totfact> 0.11726430E+04</totfact>
</mgrwt>
</event>
<event>
 4    1  0.4333905E+000  0.1971988E+03  0.7546771E-02  0.1152124E+00
         21   -1    0    0  501  502  0.00000000000E+00  0.00000000000E+00  0.40566238632E+03  0.40566238632E+03  0.00000000000E+00 0. -1.
         21   -1    0    0  502  503 -0.00000000000E+00 -0.00000000000E+00 -0.11700817005E+03  0.11700817005E+03  0.00000000000E+00 0.  1.
          6    1    1    2  501    0  0.58106223931E+02  0.74713003654E+02  0.25542656091E+03  0.32269194938E+03  0.17300000000E+03 0.  1.
         -6    1    1    2    0  503 -0.58106223931E+02 -0.74713003654E+02  0.33227655356E+02  0.19997860699E+03  0.17300000000E+03 0.  1.
<mgrwt>
<rscale>  2 0.19719880E+03</rscale>
<asrwt>0</asrwt>
<pdfrwt beam="1">  1       21 0.62409598E-01 0.19719880E+03</pdfrwt>
<pdfrwt beam="2">  1       21 0.18001257E-01 0.19719880E+03</pdfrwt>
<totfact> 0.66686996E+04</totfact>
</mgrwt>
</event>
<event>
 4    1  0.4333905E+000  0.2012595E+03  0.7546771E-02  0.1148681E+00
         21   -1    0    0  503  502  0.00000000000E+00  0.00000000000E+00  0.19097278843E+02  0.19097278843E+02  0.00000000000E+00 0. -1.
         21   -1    0    0  501  503 -0.00000000000E+00 -0.00000000000E+00 -0.26413375223E+04  0.26413375223E+04  0.00000000000E+00 0. -1.
          6    1    1    2  501    0 -0.91271436997E+02 -0.47391140783E+02 -0.72071273544E+03  0.74828620357E+03  0.17300000000E+03 0. -1.
         -6    1    1    2    0  502  0.91271436997E+02  0.47391140783E+02 -0.19015275080E+04  0.19121485976E+04  0.17300000000E+03 0. -1.
<mgrwt>
<rscale>  2 0.20125952E+03</rscale>
<asrwt>0</asrwt>
<pdfrwt beam="1">  1       21 0.29380448E-02 0.20125952E+03</pdfrwt>
<pdfrwt beam="2">  1       21 0.40635936E+00 0.20125952E+03</pdfrwt>
<totfact> 0.51482264E+03</totfact>
</mgrwt>
</event>
<event>
 4    1  0.4333905E+000  0.2241265E+03  0.7546771E-02  0.1130843E+00
         21   -1    0    0  501  502  0.00000000000E+00  0.00000000000E+00  0.12951003786E+04  0.12951003786E+04  0.00000000000E+00 0.  1.
         21   -1    0    0  502  503 -0.00000000000E+00 -0.00000000000E+00 -0.17251689643E+03  0.17251689643E+03  0.00000000000E+00 0.  1.
          6    1    1    2  501    0 -0.13749536481E+03 -0.37399495281E+02  0.12073649133E+04  0.12279913402E+04  0.17300000000E+03 0.  1.
         -6    1    1    2    0  503  0.13749536481E+03  0.37399495281E+02 -0.84781431148E+02  0.23962593486E+03  0.17300000000E+03 0.  1.
<mgrwt>
<rscale>  2 0.22412652E+03</rscale>
<asrwt>0</asrwt>
<pdfrwt beam="1">  1       21 0.19924621E+00 0.22412652E+03</pdfrwt>
<pdfrwt beam="2">  1       21 0.26541062E-01 0.22412652E+03</pdfrwt>
<totfact> 0.17773337E+03</totfact>
</mgrwt>
</event>
<event>
 4    1  0.4333905E+000  0.2123520E+03  0.7546771E-02  0.1139717E+00
         21   -1    0    0  503  502  0.00000000000E+00  0.00000000000E+00  0.64677056242E+02  0.64677056242E+02  0.00000000000E+00 0.  1.
         21   -1    0    0  501  503 -0.00000000000E+00 -0.00000000000E+00 -0.70943781621E+03  0.70943781621E+03  0.00000000000E+00 0.  1.
          6    1    1    2  501    0 -0.11187877431E+03 -0.51454002339E+02 -0.37319919285E+03  0.42938445715E+03  0.17300000000E+03 0.  1.
         -6    1    1    2    0  502  0.11187877431E+03  0.51454002339E+02 -0.27156156712E+03  0.34473041530E+03  0.17300000000E+03 0.  1.
<mgrwt>
<rscale>  2 0.21235201E+03</rscale>
<asrwt>0</asrwt>
<pdfrwt beam="1">  1       21 0.99503168E-02 0.21235201E+03</pdfrwt>
<pdfrwt beam="2">  1       21 0.10914427E+00 0.21235201E+03</pdfrwt>
<totfact> 0.53944405E+04</totfact>
</mgrwt>
</event>
<event>
 4    1  0.4333905E+000  0.1831576E+03  0.7546771E-02  0.1164782E+00
         21   -1    0    0  503  502  0.00000000000E+00  0.00000000000E+00  0.20807825712E+03  0.20807825712E+03  0.00000000000E+00 0. -1.
         21   -1    0    0  501  503 -0.00000000000E+00 -0.00000000000E+00 -0.16335727417E+03  0.16335727417E+03  0.00000000000E+00 0. -1.
          6    1    1    2  501    0 -0.14151660427E+02  0.58458710604E+02  0.43595922987E+02  0.18827451989E+03  0.17300000000E+03 0. -1.
         -6    1    1    2    0  502  0.14151660427E+02 -0.58458710604E+02  0.11250599647E+01  0.18316101140E+03  0.17300000000E+03 0. -1.
<mgrwt>
<rscale>  2 0.18315756E+03</rscale>
<asrwt>0</asrwt>
<pdfrwt beam="1">  1       21 0.32012040E-01 0.18315756E+03</pdfrwt>
<pdfrwt beam="2">  1       21 0.25131888E-01 0.18315756E+03</pdfrwt>
<totfact> 0.14117489E+05</totfact>
</mgrwt>
</event>
<event>
 4    1  0.4333905E+000  0.1905682E+03  0.7546771E-02  0.1157950E+00
         21   -1    0    0  503  502  0.00000000000E+00  0.00000000000E+00  0.31657075755E+03  0.31657075755E+03  0.00000000000E+00 0. -1.
         21   -1    0    0  501  503 -0.00000000000E+00 -0.00000000000E+00 -0.20894267072E+03  0.20894267072E+03  0.00000000000E+00 0. -1.
          6    1    1    2  501    0 -0.86872402284E+01  0.79446758537E+02 -0.12263664459E+03  0.22661862717E+03  0.17300000000E+03 0. -1.
         -6    1    1    2    0  502  0.86872402284E+01 -0.79446758537E+02  0.23026473142E+03  0.29889480109E+03  0.17300000000E+03 0. -1.
<mgrwt>
<rscale>  2 0.19056824E+03</rscale>
<asrwt>0</asrwt>
<pdfrwt beam="1">  1       21 0.48703194E-01 0.19056824E+03</pdfrwt>
<pdfrwt beam="2">  1       21 0.32145026E-01 0.19056824E+03</pdfrwt>
<totfact> 0.37506814E+04</totfact>
</mgrwt>
</event>
<event>
 4    1  0.4333905E+000  0.1959892E+03  0.7546771E-02  0.1153168E+00
         21   -1    0    0  501  502  0.00000000000E+00  0.00000000000E+00  0.20050133425E+03  0.20050133425E+03  0.00000000000E+00 0. -1.
         21   -1    0    0  502  503 -0.00000000000E+00 -0.00000000000E+00 -0.20555447492E+03  0.20555447492E+03  0.00000000000E+00 0. -1.
          6    1    1    2  501    0 -0.24371528632E+02 -0.88818987212E+02  0.50412985830E+02  0.20236910100E+03  0.17300000000E+03 0. -1.
         -6    1    1    2    0  503  0.24371528632E+02  0.88818987212E+02 -0.55466126509E+02  0.20368670818E+03  0.17300000000E+03 0. -1.
<mgrwt>
<rscale>  2 0.19598924E+03</rscale>
<asrwt>0</asrwt>
<pdfrwt beam="1">  1       21 0.30846359E-01 0.19598924E+03</pdfrwt>
<pdfrwt beam="2">  1       21 0.31623765E-01 0.19598924E+03</pdfrwt>
<totfact> 0.96893177E+04</totfact>
</mgrwt>
</event>
<event>
 4    1  0.4333905E+000  0.2026622E+03  0.7546771E-02  0.1147512E+00
         21   -1    0    0  501  502  0.00000000000E+00  0.00000000000E+00  0.37907608722E+03  0.37907608722E+03  0.00000000000E+00 0. -1.
         21   -1    0    0  502  503 -0.00000000000E+00 -0.00000000000E+00 -0.21860257394E+03  0.21860257394E+03  0.00000000000E+00 0. -1.
          6    1    1    2  501    0  0.76460464375E+02  0.72778765772E+02  0.29246803289E+03  0.35582228939E+03  0.17300000000E+03 0. -1.
         -6    1    1    2    0  503 -0.76460464375E+02 -0.72778765772E+02 -0.13199451962E+03  0.24185637178E+03  0.17300000000E+03 0. -1.
<mgrwt>
<rscale>  2 0.20266216E+03</rscale>
<asrwt>0</asrwt>
<pdfrwt beam="1">  1       21 0.58319398E-01 0.20266216E+03</pdfrwt>
<pdfrwt beam="2">  1       21 0.33631165E-01 0.20266216E+03</pdfrwt>
<totfact> 0.23315406E+04</totfact>
</mgrwt>
</event>
<event>
 4    1  0.4333905E+000  0.3774820E+03  0.7546771E-02  0.1051868E+00
         21   -1    0    0  503  502  0.00000000000E+00  0.00000000000E+00  0.26877155207E+03  0.26877155207E+03  0.00000000000E+00 0.  1.
         21   -1    0    0  501  503 -0.00000000000E+00 -0.00000000000E+00 -0.65165483991E+03  0.65165483991E+03  0.00000000000E+00 0. -1.
          6    1    1    2  501    0  0.30459794638E+03  0.14065466827E+03 -0.39015378034E+03  0.54287440257E+03  0.17300000000E+03 0. -1.
         -6    1    1    2    0  502 -0.30459794638E+03 -0.14065466827E+03  0.72704925056E+01  0.37755198941E+03  0.17300000000E+03 0.  1.
<mgrwt>
<rscale>  2 0.37748198E+03</rscale>
<asrwt>0</asrwt>
<pdfrwt beam="1">  1       21 0.41349470E-01 0.37748198E+03</pdfrwt>
<pdfrwt beam="2">  1       21 0.10025459E+00 0.37748198E+03</pdfrwt>
<totfact> 0.41302757E+03</totfact>
</mgrwt>
</event>
<event>
 4    1  0.4333905E+000  0.1839674E+03  0.7546771E-02  0.1164018E+00
         21   -1    0    0  503  502  0.00000000000E+00  0.00000000000E+00  0.32575909191E+02  0.32575909191E+02  0.00000000000E+00 0.  1.
         21   -1    0    0  501  503 -0.00000000000E+00 -0.00000000000E+00 -0.22125279112E+04  0.22125279112E+04  0.00000000000E+00 0. -1.
          6    1    1    2  501    0 -0.10335336930E+02  0.61710356982E+02 -0.19075410130E+04  0.19163915841E+04  0.17300000000E+03 0. -1.
         -6    1    1    2    0  502  0.10335336930E+02 -0.61710356982E+02 -0.27241098898E+03  0.32871223625E+03  0.17300000000E+03 0.  1.
<mgrwt>
<rscale>  2 0.18396735E+03</rscale>
<asrwt>0</asrwt>
<pdfrwt beam="1">  1       21 0.50116776E-02 0.18396735E+03</pdfrwt>
<pdfrwt beam="2">  1       21 0.34038896E+00 0.18396735E+03</pdfrwt>
<totfact> 0.53958746E+03</totfact>
</mgrwt>
</event>
<event>
 4    1  0.4333905E+000  0.2015143E+03  0.7546771E-02  0.1148468E+00
         21   -1    0    0  503  502  0.00000000000E+00  0.00000000000E+00  0.15773035433E+03  0.15773035433E+03  0.00000000000E+00 0.  1.
         21   -1    0    0  501  503 -0.00000000000E+00 -0.00000000000E+00 -0.38840082898E+03  0.38840082898E+03  0.00000000000E+00 0. -1.
          6    1    1    2  501    0  0.10172010612E+03  0.18222146851E+02 -0.27388930347E+03  0.34003437647E+03  0.17300000000E+03 0. -1.
         -6    1    1    2    0  502 -0.10172010612E+03 -0.18222146851E+02  0.43218828819E+02  0.20609680684E+03  0.17300000000E+03 0.  1.
<mgrwt>
<rscale>  2 0.20151433E+03</rscale>
<asrwt>0</asrwt>
<pdfrwt beam="1">  1       21 0.24266209E-01 0.20151433E+03</pdfrwt>
<pdfrwt beam="2">  1       21 0.59753973E-01 0.20151433E+03</pdfrwt>
<totfact> 0.41719323E+04</totfact>
</mgrwt>
</event>
<event>
 4    1  0.4333905E+000  0.2056175E+03  0.7546771E-02  0.1145084E+00
         21   -1    0    0  501  502  0.00000000000E+00  0.00000000000E+00  0.10957911731E+03  0.10957911731E+03  0.00000000000E+00 0. -1.
         21   -1    0    0  502  503 -0.00000000000E+00 -0.00000000000E+00 -0.56336083401E+03  0.56336083401E+03  0.00000000000E+00 0. -1.
          6    1    1    2  501    0  0.83708806720E+02  0.73091693175E+02 -0.38007452603E+02  0.20910075654E+03  0.17300000000E+03 0. -1.
         -6    1    1    2    0  503 -0.83708806720E+02 -0.73091693175E+02 -0.41577426410E+03  0.46383919479E+03  0.17300000000E+03 0. -1.
<mgrwt>
<rscale>  2 0.20561751E+03</rscale>
<asrwt>0</asrwt>
<pdfrwt beam="1">  1       21 0.16858325E-01 0.20561751E+03</pdfrwt>
<pdfrwt beam="2">  1       21 0.86670900E-01 0.20561751E+03</pdfrwt>
<totfact> 0.36051493E+04</totfact>
</mgrwt>
</event>
<event>
 4    1  0.4333905E+000  0.2622336E+03  0.7546771E-02  0.1105809E+00
         21   -1    0    0  501  502  0.00000000000E+00  0.00000000000E+00  0.16299799323E+03  0.16299799323E+03  0.00000000000E+00 0.  1.
         21   -1    0    0  502  503 -0.00000000000E+00 -0.00000000000E+00 -0.42203403629E+03  0.42203403629E+03  0.00000000000E+00 0. -1.
          6    1    1    2  501    0  0.37951652785E+02  0.19338336852E+03 -0.13500967610E+03  0.29494756790E+03  0.17300000000E+03 0.  1.
         -6    1    1    2    0  503 -0.37951652785E+02 -0.19338336852E+03 -0.12402636696E+03  0.29008446161E+03  0.17300000000E+03 0. -1.
<mgrwt>
<rscale>  2 0.26223359E+03</rscale>
<asrwt>0</asrwt>
<pdfrwt beam="1">  1       21 0.25076615E-01 0.26223359E+03</pdfrwt>
<pdfrwt beam="2">  1       21 0.64928312E-01 0.26223359E+03</pdfrwt>
<totfact> 0.31807679E+04</totfact>
</mgrwt>
</event>
<event>
 4    1  0.4333905E+000  0.2161247E+03  0.7546771E-02  0.1136806E+00
         21   -1    0    0  501  502  0.00000000000E+00  0.00000000000E+00  0.46565788434E+03  0.46565788434E+03  0.00000000000E+00 0.  1.
         21   -1    0    0  502  503 -0.00000000000E+00 -0.00000000000E+00 -0.11324408042E+03  0.11324408042E+03  0.00000000000E+00 0.  1.
          6    1    1    2  501    0 -0.10580897734E+03  0.74735032029E+02  0.27403082217E+03  0.34900251603E+03  0.17300000000E+03 0.  1.
         -6    1    1    2    0  503  0.10580897734E+03 -0.74735032029E+02  0.78382981741E+02  0.22989944872E+03  0.17300000000E+03 0.  1.
<mgrwt>
<rscale>  2 0.21612465E+03</rscale>
<asrwt>0</asrwt>
<pdfrwt beam="1">  1       21 0.71639674E-01 0.21612465E+03</pdfrwt>
<pdfrwt beam="2">  1       21 0.17422166E-01 0.21612465E+03</pdfrwt>
<totfact> 0.51907358E+04</totfact>
</mgrwt>
</event>
<event>
 4    1  0.4333905E+000  0.1859915E+03  0.7546771E-02  0.1162127E+00
         21   -1    0    0  501  502  0.00000000000E+00  0.00000000000E+00  0.22998717375E+03  0.22998717375E+03  0.00000000000E+00 0.  1.
         21   -1    0    0  502  503 -0.00000000000E+00 -0.00000000000E+00 -0.17449310080E+03  0.17449310080E+03  0.00000000000E+00 0.  1.
          6    1    1    2  501    0 -0.39031023885E+02 -0.56039274067E+02  0.10287762138E+03  0.21254793823E+03  0.17300000000E+03 0.  1.
         -6    1    1    2    0  503  0.39031023885E+02  0.56039274067E+02 -0.47383548426E+02  0.19193233632E+03  0.17300000000E+03 0.  1.
<mgrwt>
<rscale>  2 0.18599145E+03</rscale>
<asrwt>0</asrwt>
<pdfrwt beam="1">  1       21 0.35382642E-01 0.18599145E+03</pdfrwt>
<pdfrwt beam="2">  1       21 0.26845092E-01 0.18599145E+03</pdfrwt>
<totfact> 0.10202241E+05</totfact>
</mgrwt>
</event>
<event>
 4    1  0.4333905E+000  0.2020538E+03  0.7546771E-02  0.1148018E+00
         21   -1    0    0  503  502  0.00000000000E+00  0.00000000000E+00  0.15458263942E+03  0.15458263942E+03  0.00000000000E+00 0.  1.
         21   -1    0    0  501  503 -0.00000000000E+00 -0.00000000000E+00 -0.41871793459E+03  0.41871793459E+03  0.00000000000E+00 0.  1.
          6    1    1    2  501    0  0.93937034337E+02  0.45525536447E+02 -0.30625527395E+03  0.36690330295E+03  0.17300000000E+03 0.  1.
         -6    1    1    2    0  502 -0.93937034337E+02 -0.45525536447E+02  0.42119978778E+02  0.20639727106E+03  0.17300000000E+03 0.  1.
<mgrwt>
<rscale>  2 0.20205381E+03</rscale>
<asrwt>0</asrwt>
<pdfrwt beam="1">  1       21 0.23781945E-01 0.20205381E+03</pdfrwt>
<pdfrwt beam="2">  1       21 0.64418143E-01 0.20205381E+03</pdfrwt>
<totfact> 0.36839372E+04</totfact>
</mgrwt>
</event>
<event>
 4    1  0.4333905E+000  0.1931055E+03  0.7546771E-02  0.1155690E+00
         21   -1    0    0  501  502  0.00000000000E+00  0.00000000000E+00  0.12119642085E+04  0.12119642085E+04  0.00000000000E+00 0.  1.
         21   -1    0    0  502  503 -0.00000000000E+00 -0.00000000000E+00 -0.12979542432E+03  0.12979542432E+03  0.00000000000E+00 0.  1.
          6    1    1    2  501    0 -0.68868258552E+02 -0.51165556038E+02  0.11270777734E+04  0.11435007908E+04  0.17300000000E+03 0.  1.
         -6    1    1    2    0  503  0.68868258552E+02  0.51165556038E+02 -0.44908989184E+02  0.19825884210E+03  0.17300000000E+03 0.  1.
<mgrwt>
<rscale>  2 0.19310554E+03</rscale>
<asrwt>0</asrwt>
<pdfrwt beam="1">  1       21 0.18645602E+00 0.19310554E+03</pdfrwt>
<pdfrwt beam="2">  1       21 0.19968528E-01 0.19310554E+03</pdfrwt>
<totfact> 0.38099575E+03</totfact>
</mgrwt>
</event>
<event>
 4    1  0.4333905E+000  0.2149473E+03  0.7546771E-02  0.1137707E+00
         21   -1    0    0  501  502  0.00000000000E+00  0.00000000000E+00  0.17310547382E+04  0.17310547382E+04  0.00000000000E+00 0. -1.
         21   -1    0    0  502  503 -0.00000000000E+00 -0.00000000000E+00 -0.67279642536E+02  0.67279642536E+02  0.00000000000E+00 0.  1.
          6    1    1    2  501    0  0.93229162065E+02 -0.87072783173E+02  0.15302882970E+04  0.15453105249E+04  0.17300000000E+03 0. -1.
         -6    1    1    2    0  503 -0.93229162065E+02  0.87072783173E+02  0.13348679863E+03  0.25302385587E+03  0.17300000000E+03 0.  1.
<mgrwt>
<rscale>  2 0.21494731E+03</rscale>
<asrwt>0</asrwt>
<pdfrwt beam="1">  1       21 0.26631608E+00 0.21494731E+03</pdfrwt>
<pdfrwt beam="2">  1       21 0.10350716E-01 0.21494731E+03</pdfrwt>
<totfact> 0.39816404E+03</totfact>
</mgrwt>
</event>
<event>
 4    1  0.4333905E+000  0.1856369E+03  0.7546771E-02  0.1162456E+00
         21   -1    0    0  503  502  0.00000000000E+00  0.00000000000E+00  0.58355003350E+03  0.58355003350E+03  0.00000000000E+00 0.  1.
         21   -1    0    0  501  503 -0.00000000000E+00 -0.00000000000E+00 -0.36122668678E+03  0.36122668678E+03  0.00000000000E+00 0.  1.
          6    1    1    2  501    0  0.56333341605E+02  0.36859455548E+02 -0.32089105549E+03  0.37071840302E+03  0.17300000000E+03 0.  1.
         -6    1    1    2    0  502 -0.56333341605E+02 -0.36859455548E+02  0.54321440222E+03  0.57405831726E+03  0.17300000000E+03 0.  1.
<mgrwt>
<rscale>  2 0.18563692E+03</rscale>
<asrwt>0</asrwt>
<pdfrwt beam="1">  1       21 0.89776929E-01 0.18563692E+03</pdfrwt>
<pdfrwt beam="2">  1       21 0.55573336E-01 0.18563692E+03</pdfrwt>
<totfact> 0.32435821E+03</totfact>
</mgrwt>
</event>
<event>
 4    1  0.4333905E+000  0.2074443E+03  0.7546771E-02  0.1143606E+00
         21   -1    0    0  503  502  0.00000000000E+00  0.00000000000E+00  0.13500979747E+04  0.13500979747E+04  0.00000000000E+00 0. -1.
         21   -1    0    0  501  503 -0.00000000000E+00 -0.00000000000E+00 -0.47263044615E+02  0.47263044615E+02  0.00000000000E+00 0. -1.
          6    1    1    2  501    0  0.34735844012E+02 -0.10907588134E+03  0.25273923235E+03  0.32697132339E+03  0.17300000000E+03 0. -1.
         -6    1    1    2    0  502 -0.34735844012E+02  0.10907588134E+03  0.10500956978E+04  0.10703896960E+04  0.17300000000E+03 0. -1.
<mgrwt>
<rscale>  2 0.20744427E+03</rscale>
<asrwt>0</asrwt>
<pdfrwt beam="1">  1       21 0.20770735E+00 0.20744427E+03</pdfrwt>
<pdfrwt beam="2">  1       21 0.72712387E-02 0.20744427E+03</pdfrwt>
<totfact> 0.16793788E+04</totfact>
</mgrwt>
</event>
<event>
 4    1  0.4333905E+000  0.2063582E+03  0.7546771E-02  0.1144483E+00
         21   -1    0    0  503  502  0.00000000000E+00  0.00000000000E+00  0.28372385118E+03  0.28372385118E+03  0.00000000000E+00 0.  1.
         21   -1    0    0  501  503 -0.00000000000E+00 -0.00000000000E+00 -0.19916392125E+03  0.19916392125E+03  0.00000000000E+00 0.  1.
          6    1    1    2  501    0 -0.10264121411E+03  0.46037712275E+02 -0.77571364806E+02  0.22045635945E+03  0.17300000000E+03 0.  1.
         -6    1    1    2    0  502  0.10264121411E+03 -0.46037712275E+02  0.16213129474E+03  0.26243141298E+03  0.17300000000E+03 0.  1.
<mgrwt>
<rscale>  2 0.20635816E+03</rscale>
<asrwt>0</asrwt>
<pdfrwt beam="1">  1       21 0.43649823E-01 0.20635816E+03</pdfrwt>
<pdfrwt beam="2">  1       21 0.30640603E-01 0.20635816E+03</pdfrwt>
<totfact> 0.51237580E+04</totfact>
</mgrwt>
</event>
<event>
 4    1  0.4333905E+000  0.1768620E+03  0.7546771E-02  0.1170875E+00
         21   -1    0    0  503  502  0.00000000000E+00  0.00000000000E+00  0.13162703413E+04  0.13162703413E+04  0.00000000000E+00 0. -1.
         21   -1    0    0  501  503 -0.00000000000E+00 -0.00000000000E+00 -0.24333730377E+02  0.24333730377E+02  0.00000000000E+00 0. -1.
          6    1    1    2  501    0  0.31677633582E+02  0.18646292427E+02  0.54342398992E+03  0.57148034919E+03  0.17300000000E+03 0. -1.
         -6    1    1    2    0  502 -0.31677633582E+02 -0.18646292427E+02  0.74851262099E+03  0.76912372248E+03  0.17300000000E+03 0. -1.
<mgrwt>
<rscale>  2 0.17686197E+03</rscale>
<asrwt>0</asrwt>
<pdfrwt beam="1">  1       21 0.20250307E+00 0.17686197E+03</pdfrwt>
<pdfrwt beam="2">  1       21 0.37436519E-02 0.17686197E+03</pdfrwt>
<totfact> 0.57241748E+04</totfact>
</mgrwt>
</event>
<event>
 4    1  0.4333905E+000  0.2225222E+03  0.7546771E-02  0.1132017E+00
         21   -1    0    0  501  502  0.00000000000E+00  0.00000000000E+00  0.37133432315E+03  0.37133432315E+03  0.00000000000E+00 0.  1.
         21   -1    0    0  502  503 -0.00000000000E+00 -0.00000000000E+00 -0.14295132517E+03  0.14295132517E+03  0.00000000000E+00 0.  1.
          6    1    1    2  501    0 -0.13403407717E+03 -0.40274029200E+02  0.18084532945E+03  0.28674233112E+03  0.17300000000E+03 0.  1.
         -6    1    1    2    0  503  0.13403407717E+03  0.40274029200E+02  0.47537668537E+02  0.22754331720E+03  0.17300000000E+03 0.  1.
<mgrwt>
<rscale>  2 0.22252220E+03</rscale>
<asrwt>0</asrwt>
<pdfrwt beam="1">  1       21 0.57128357E-01 0.22252220E+03</pdfrwt>
<pdfrwt beam="2">  1       21 0.21992512E-01 0.22252220E+03</pdfrwt>
<totfact> 0.54821487E+04</totfact>
</mgrwt>
</event>
<event>
 4    1  0.4333905E+000  0.1924932E+03  0.7546771E-02  0.1156232E+00
         21   -1    0    0  503  502  0.00000000000E+00  0.00000000000E+00  0.57546297440E+03  0.57546297440E+03  0.00000000000E+00 0.  1.
         21   -1    0    0  501  503 -0.00000000000E+00 -0.00000000000E+00 -0.65407868163E+02  0.65407868163E+02  0.00000000000E+00 0. -1.
          6    1    1    2  501    0 -0.60191182241E+02 -0.59174919835E+02  0.29501500522E+03  0.35226056104E+03  0.17300000000E+03 0.  1.
         -6    1    1    2    0  502  0.60191182241E+02  0.59174919835E+02  0.21504010101E+03  0.28861028152E+03  0.17300000000E+03 0.  1.
<mgrwt>
<rscale>  2 0.19249325E+03</rscale>
<asrwt>0</asrwt>
<pdfrwt beam="1">  1       21 0.88532762E-01 0.19249325E+03</pdfrwt>
<pdfrwt beam="2">  1       21 0.10062749E-01 0.19249325E+03</pdfrwt>
<totfact> 0.87586819E+04</totfact>
</mgrwt>
</event>
<event>
 4    1  0.4333905E+000  0.2304647E+03  0.7546771E-02  0.1126313E+00
         21   -1    0    0  501  502  0.00000000000E+00  0.00000000000E+00  0.11925531649E+03  0.11925531649E+03  0.00000000000E+00 0.  1.
         21   -1    0    0  502  503 -0.00000000000E+00 -0.00000000000E+00 -0.44546867292E+03  0.44546867292E+03  0.00000000000E+00 0. -1.
          6    1    1    2  501    0 -0.19653809631E+02  0.15099247252E+03 -0.15913539471E+03  0.28006797896E+03  0.17300000000E+03 0.  1.
         -6    1    1    2    0  503  0.19653809631E+02 -0.15099247252E+03 -0.16707796173E+03  0.28465601045E+03  0.17300000000E+03 0. -1.
<mgrwt>
<rscale>  2 0.23046475E+03</rscale>
<asrwt>0</asrwt>
<pdfrwt beam="1">  1       21 0.18346972E-01 0.23046475E+03</pdfrwt>
<pdfrwt beam="2">  1       21 0.68533643E-01 0.23046475E+03</pdfrwt>
<totfact> 0.51691844E+04</totfact>
</mgrwt>
</event>
<event>
 4    1  0.4333905E+000  0.1746416E+03  0.7546771E-02  0.1173092E+00
         21   -1    0    0  501  502  0.00000000000E+00  0.00000000000E+00  0.97677509633E+03  0.97677509633E+03  0.00000000000E+00 0.  1.
         21   -1    0    0  502  503 -0.00000000000E+00 -0.00000000000E+00 -0.39078996255E+03  0.39078996255E+03  0.00000000000E+00 0.  1.
          6    1    1    2  501    0 -0.33112152784E+01 -0.23658428940E+02  0.94888867730E+03  0.96482610211E+03  0.17300000000E+03 0.  1.
         -6    1    1    2    0  503  0.33112152784E+01  0.23658428940E+02 -0.36290354351E+03  0.40273895677E+03  0.17300000000E+03 0.  1.
<mgrwt>
<rscale>  2 0.17464159E+03</rscale>
<asrwt>0</asrwt>
<pdfrwt beam="1">  1       21 0.15027309E+00 0.17464159E+03</pdfrwt>
<pdfrwt beam="2">  1       21 0.60121533E-01 0.17464159E+03</pdfrwt>
<totfact> 0.78324991E+02</totfact>
</mgrwt>
</event>
<event>
 4    1  0.4333905E+000  0.1998305E+03  0.7546771E-02  0.1149882E+00
         21   -1    0    0  501  502  0.00000000000E+00  0.00000000000E+00  0.13216050191E+03  0.13216050191E+03  0.00000000000E+00 0. -1.
         21   -1    0    0  502  503 -0.00000000000E+00 -0.00000000000E+00 -0.30381877780E+03  0.30381877780E+03  0.00000000000E+00 0. -1.
          6    1    1    2  501    0  0.44473567464E+02 -0.89584106756E+02 -0.10198803594E+03  0.22435188847E+03  0.17300000000E+03 0. -1.
         -6    1    1    2    0  503 -0.44473567464E+02  0.89584106756E+02 -0.69670239956E+02  0.21162739124E+03  0.17300000000E+03 0. -1.
<mgrwt>
<rscale>  2 0.19983045E+03</rscale>
<asrwt>0</asrwt>
<pdfrwt beam="1">  1       21 0.20332385E-01 0.19983045E+03</pdfrwt>
<pdfrwt beam="2">  1       21 0.46741349E-01 0.19983045E+03</pdfrwt>
<totfact> 0.97801621E+04</totfact>
</mgrwt>
</event>
<event>
 4    1  0.4333905E+000  0.2051350E+03  0.7546771E-02  0.1145478E+00
         21   -1    0    0  503  502  0.00000000000E+00  0.00000000000E+00  0.60272362561E+02  0.60272362561E+02  0.00000000000E+00 0.  1.
         21   -1    0    0  501  503 -0.00000000000E+00 -0.00000000000E+00 -0.11888621320E+04  0.11888621320E+04  0.00000000000E+00 0.  1.
          6    1    1    2  501    0 -0.47562866236E+02 -0.99444169678E+02 -0.96554752667E+03  0.98709796646E+03  0.17300000000E+03 0.  1.
         -6    1    1    2    0  502  0.47562866236E+02  0.99444169678E+02 -0.16304224274E+03  0.26203652807E+03  0.17300000000E+03 0.  1.
<mgrwt>
<rscale>  2 0.20513500E+03</rscale>
<asrwt>0</asrwt>
<pdfrwt beam="1">  1       21 0.92726711E-02 0.20513500E+03</pdfrwt>
<pdfrwt beam="2">  1       21 0.18290187E+00 0.20513500E+03</pdfrwt>
<totfact> 0.15970601E+04</totfact>
</mgrwt>
</event>
<event>
 4    1  0.4333905E+000  0.1841359E+03  0.7546771E-02  0.1163859E+00
         21   -1    0    0  503  502  0.00000000000E+00  0.00000000000E+00  0.58024117541E+03  0.58024117541E+03  0.00000000000E+00 0. -1.
         21   -1    0    0  501  503 -0.00000000000E+00 -0.00000000000E+00 -0.61659685302E+03  0.61659685302E+03  0.00000000000E+00 0. -1.
          6    1    1    2  501    0  0.61411890149E+02  0.14338879591E+02 -0.58753535208E+03  0.61571406811E+03  0.17300000000E+03 0. -1.
         -6    1    1    2    0  502 -0.61411890149E+02 -0.14338879591E+02  0.55117967446E+03  0.58112396032E+03  0.17300000000E+03 0. -1.
<mgrwt>
<rscale>  2 0.18413588E+03</rscale>
<asrwt>0</asrwt>
<pdfrwt beam="1">  1       21 0.89267873E-01 0.18413588E+03</pdfrwt>
<pdfrwt beam="2">  1       21 0.94861055E-01 0.18413588E+03</pdfrwt>
<totfact> 0.10039188E+03</totfact>
</mgrwt>
</event>
<event>
 4    1  0.4333905E+000  0.2290153E+03  0.7546771E-02  0.1127335E+00
         21   -1    0    0  501  502  0.00000000000E+00  0.00000000000E+00  0.24903230319E+03  0.24903230319E+03  0.00000000000E+00 0. -1.
         21   -1    0    0  502  503 -0.00000000000E+00 -0.00000000000E+00 -0.21127857357E+03  0.21127857357E+03  0.00000000000E+00 0.  1.
          6    1    1    2  501    0  0.70414896187E+02 -0.13251701775E+03  0.59036476391E+01  0.22909140240E+03  0.17300000000E+03 0. -1.
         -6    1    1    2    0  503 -0.70414896187E+02  0.13251701775E+03  0.31850081983E+02  0.23121947436E+03  0.17300000000E+03 0.  1.
<mgrwt>
<rscale>  2 0.22901532E+03</rscale>
<asrwt>0</asrwt>
<pdfrwt beam="1">  1       21 0.38312662E-01 0.22901532E+03</pdfrwt>
<pdfrwt beam="2">  1       21 0.32504396E-01 0.22901532E+03</pdfrwt>
<totfact> 0.58875509E+04</totfact>
</mgrwt>
</event>
<event>
 4    1  0.4333905E+000  0.1902121E+03  0.7546771E-02  0.1158270E+00
         21   -1    0    0  503  502  0.00000000000E+00  0.00000000000E+00  0.78731368818E+03  0.78731368818E+03  0.00000000000E+00 0. -1.
         21   -1    0    0  501  503 -0.00000000000E+00 -0.00000000000E+00 -0.52117751944E+02  0.52117751944E+02  0.00000000000E+00 0. -1.
          6    1    1    2  501    0  0.51432459981E+02  0.60052792225E+02  0.22326482632E+03  0.29330499223E+03  0.17300000000E+03 0. -1.
         -6    1    1    2    0  502 -0.51432459981E+02 -0.60052792225E+02  0.51193110991E+03  0.54612644789E+03  0.17300000000E+03 0. -1.
<mgrwt>
<rscale>  2 0.19021208E+03</rscale>
<asrwt>0</asrwt>
<pdfrwt beam="1">  1       21 0.12112517E+00 0.19021208E+03</pdfrwt>
<pdfrwt beam="2">  1       21 0.80181163E-02 0.19021208E+03</pdfrwt>
<totfact> 0.61753260E+04</totfact>
</mgrwt>
</event>
<event>
 4    1  0.4333905E+000  0.2376930E+03  0.7546771E-02  0.1121339E+00
         21   -1    0    0  501  502  0.00000000000E+00  0.00000000000E+00  0.54682450802E+03  0.54682450802E+03  0.00000000000E+00 0. -1.
         21   -1    0    0  502  503 -0.00000000000E+00 -0.00000000000E+00 -0.21049576685E+03  0.21049576685E+03  0.00000000000E+00 0. -1.
          6    1    1    2  501    0 -0.14029204601E+03  0.82988444299E+02  0.43835861065E+03  0.49865440096E+03  0.17300000000E+03 0. -1.
         -6    1    1    2    0  503  0.14029204601E+03 -0.82988444299E+02 -0.10202986949E+03  0.25866587392E+03  0.17300000000E+03 0. -1.
<mgrwt>
<rscale>  2 0.23769295E+03</rscale>
<asrwt>0</asrwt>
<pdfrwt beam="1">  1       21 0.84126847E-01 0.23769295E+03</pdfrwt>
<pdfrwt beam="2">  1       21 0.32383964E-01 0.23769295E+03</pdfrwt>
<totfact> 0.10937527E+04</totfact>
</mgrwt>
</event>
<event>
 4    1  0.4333905E+000  0.1789255E+03  0.7546771E-02  0.1168847E+00
         21   -1    0    0  503  502  0.00000000000E+00  0.00000000000E+00  0.19808619663E+03  0.19808619663E+03  0.00000000000E+00 0.  1.
         21   -1    0    0  501  503 -0.00000000000E+00 -0.00000000000E+00 -0.38243333573E+03  0.38243333573E+03  0.00000000000E+00 0.  1.
          6    1    1    2  501    0  0.13307067727E+02  0.43683504179E+02 -0.31273188145E+03  0.36029925932E+03  0.17300000000E+03 0.  1.
         -6    1    1    2    0  502 -0.13307067727E+02 -0.43683504179E+02  0.12838474235E+03  0.22022027304E+03  0.17300000000E+03 0.  1.
<mgrwt>
<rscale>  2 0.17892548E+03</rscale>
<asrwt>0</asrwt>
<pdfrwt beam="1">  1       21 0.30474799E-01 0.17892548E+03</pdfrwt>
<pdfrwt beam="2">  1       21 0.58835898E-01 0.17892548E+03</pdfrwt>
<totfact> 0.28140638E+04</totfact>
</mgrwt>
</event>
<event>
 4    1  0.4333905E+000  0.1786061E+03  0.7546771E-02  0.1169159E+00
         21   -1    0    0  503  502  0.00000000000E+00  0.00000000000E+00  0.13574220273E+03  0.13574220273E+03  0.00000000000E+00 0. -1.
         21   -1    0    0  501  503 -0.00000000000E+00 -0.00000000000E+00 -0.23789896802E+03  0.23789896802E+03  0.00000000000E+00 0. -1.
          6    1    1    2  501    0  0.36864202472E+02  0.24742369947E+02 -0.71681990831E+02  0.19245379213E+03  0.17300000000E+03 0. -1.
         -6    1    1    2    0  502 -0.36864202472E+02 -0.24742369947E+02 -0.30474774462E+02  0.18118737862E+03  0.17300000000E+03 0. -1.
<mgrwt>
<rscale>  2 0.17860614E+03</rscale>
<asrwt>0</asrwt>
<pdfrwt beam="1">  1       21 0.20883416E-01 0.17860614E+03</pdfrwt>
<pdfrwt beam="2">  1       21 0.36599841E-01 0.17860614E+03</pdfrwt>
<totfact> 0.15396034E+05</totfact>
</mgrwt>
</event>
<event>
 4    1  0.4333905E+000  0.2493459E+03  0.7546771E-02  0.1113719E+00
         21   -1    0    0  503  502  0.00000000000E+00  0.00000000000E+00  0.35506480880E+03  0.35506480880E+03  0.00000000000E+00 0. -1.
         21   -1    0    0  501  503 -0.00000000000E+00 -0.00000000000E+00 -0.27677812558E+03  0.27677812558E+03  0.00000000000E+00 0.  1.
          6    1    1    2  501    0 -0.49638253870E+02 -0.17257011024E+03 -0.15233413316E+03  0.29219700088E+03  0.17300000000E+03 0.  1.
         -6    1    1    2    0  502  0.49638253870E+02  0.17257011024E+03  0.23062081637E+03  0.33964593350E+03  0.17300000000E+03 0. -1.
<mgrwt>
<rscale>  2 0.24934594E+03</rscale>
<asrwt>0</asrwt>
<pdfrwt beam="1">  1       21 0.54625356E-01 0.24934594E+03</pdfrwt>
<pdfrwt beam="2">  1       21 0.42581250E-01 0.24934594E+03</pdfrwt>
<totfact> 0.16257304E+04</totfact>
</mgrwt>
</event>
<event>
 4    1  0.4333905E+000  0.2578814E+03  0.7546771E-02  0.1108423E+00
         21   -1    0    0  503  502  0.00000000000E+00  0.00000000000E+00  0.32197975052E+03  0.32197975052E+03  0.00000000000E+00 0.  1.
         21   -1    0    0  501  503 -0.00000000000E+00 -0.00000000000E+00 -0.26938377770E+03  0.26938377770E+03  0.00000000000E+00 0.  1.
          6    1    1    2  501    0  0.10398697978E+03 -0.16050091049E+03 -0.11651173292E+03  0.28298024337E+03  0.17300000000E+03 0.  1.
         -6    1    1    2    0  502 -0.10398697978E+03  0.16050091049E+03  0.16910770574E+03  0.30838328485E+03  0.17300000000E+03 0.  1.
<mgrwt>
<rscale>  2 0.25788143E+03</rscale>
<asrwt>0</asrwt>
<pdfrwt beam="1">  1       21 0.49535346E-01 0.25788143E+03</pdfrwt>
<pdfrwt beam="2">  1       21 0.41443658E-01 0.25788143E+03</pdfrwt>
<totfact> 0.21040913E+04</totfact>
</mgrwt>
</event>
<event>
 4    1  0.4333905E+000  0.1781420E+03  0.7546771E-02  0.1169613E+00
         21   -1    0    0  503  502  0.00000000000E+00  0.00000000000E+00  0.96476717754E+02  0.96476717754E+02  0.00000000000E+00 0.  1.
         21   -1    0    0  501  503 -0.00000000000E+00 -0.00000000000E+00 -0.37028473299E+03  0.37028473299E+03  0.00000000000E+00 0.  1.
          6    1    1    2  501    0  0.45214238728E+01  0.42250955802E+02 -0.21489285299E+03  0.27912994251E+03  0.17300000000E+03 0.  1.
         -6    1    1    2    0  502 -0.45214238728E+01 -0.42250955802E+02 -0.58915162249E+02  0.18763150824E+03  0.17300000000E+03 0.  1.
<mgrwt>
<rscale>  2 0.17814204E+03</rscale>
<asrwt>0</asrwt>
<pdfrwt beam="1">  1       21 0.14842572E-01 0.17814204E+03</pdfrwt>
<pdfrwt beam="2">  1       21 0.56966882E-01 0.17814204E+03</pdfrwt>
<totfact> 0.11638387E+05</totfact>
</mgrwt>
</event>
<event>
 4    1  0.4333905E+000  0.1875614E+03  0.7546771E-02  0.1160679E+00
         21   -1    0    0  501  502  0.00000000000E+00  0.00000000000E+00  0.10022022186E+03  0.10022022186E+03  0.00000000000E+00 0. -1.
         21   -1    0    0  502  503 -0.00000000000E+00 -0.00000000000E+00 -0.35112563022E+03  0.35112563022E+03  0.00000000000E+00 0. -1.
          6    1    1    2  501    0 -0.70867891891E+02  0.15100425797E+02 -0.12937083679E+03  0.22785103548E+03  0.17300000000E+03 0. -1.
         -6    1    1    2    0  503  0.70867891891E+02 -0.15100425797E+02 -0.12153457157E+03  0.22349481660E+03  0.17300000000E+03 0. -1.
<mgrwt>
<rscale>  2 0.18756141E+03</rscale>
<asrwt>0</asrwt>
<pdfrwt beam="1">  1       21 0.15418496E-01 0.18756141E+03</pdfrwt>
<pdfrwt beam="2">  1       21 0.54019328E-01 0.18756141E+03</pdfrwt>
<totfact> 0.12110113E+05</totfact>
</mgrwt>
</event>
<event>
 4    1  0.4333905E+000  0.2203179E+03  0.7546771E-02  0.1133646E+00
         21   -1    0    0  501  502  0.00000000000E+00  0.00000000000E+00  0.16674246772E+03  0.16674246772E+03  0.00000000000E+00 0. -1.
         21   -1    0    0  502  503 -0.00000000000E+00 -0.00000000000E+00 -0.33192879067E+03  0.33192879067E+03  0.00000000000E+00 0.  1.
          6    1    1    2  501    0  0.65697585909E+02 -0.11956091700E+03  0.48458337933E+01  0.22037120450E+03  0.17300000000E+03 0. -1.
         -6    1    1    2    0  503 -0.65697585909E+02  0.11956091700E+03 -0.17003215675E+03  0.27830005389E+03  0.17300000000E+03 0.  1.
<mgrwt>
<rscale>  2 0.22031792E+03</rscale>
<asrwt>0</asrwt>
<pdfrwt beam="1">  1       21 0.25652687E-01 0.22031792E+03</pdfrwt>
<pdfrwt beam="2">  1       21 0.51065968E-01 0.22031792E+03</pdfrwt>
<totfact> 0.51893741E+04</totfact>
</mgrwt>
</event>
<event>
 4    1  0.4333905E+000  0.1835857E+03  0.7546771E-02  0.1164377E+00
         21   -1    0    0  503  502  0.00000000000E+00  0.00000000000E+00  0.22718188995E+03  0.22718188995E+03  0.00000000000E+00 0. -1.
         21   -1    0    0  501  503 -0.00000000000E+00 -0.00000000000E+00 -0.16702809052E+03  0.16702809052E+03  0.00000000000E+00 0. -1.
          6    1    1    2  501    0 -0.40914811754E+02 -0.45833264352E+02 -0.35825884504E+02  0.18704866731E+03  0.17300000000E+03 0. -1.
         -6    1    1    2    0  502  0.40914811754E+02  0.45833264352E+02  0.95979683934E+02  0.20716131316E+03  0.17300000000E+03 0. -1.
<mgrwt>
<rscale>  2 0.18358570E+03</rscale>
<asrwt>0</asrwt>
<pdfrwt beam="1">  1       21 0.34951060E-01 0.18358570E+03</pdfrwt>
<pdfrwt beam="2">  1       21 0.25696629E-01 0.18358570E+03</pdfrwt>
<totfact> 0.11377607E+05</totfact>
</mgrwt>
</event>
<event>
 4    1  0.4333905E+000  0.2540821E+03  0.7546771E-02  0.1110752E+00
         21   -1    0    0  501  502  0.00000000000E+00  0.00000000000E+00  0.77428220594E+02  0.77428220594E+02  0.00000000000E+00 0. -1.
         21   -1    0    0  502  503 -0.00000000000E+00 -0.00000000000E+00 -0.86989585456E+03  0.86989585456E+03  0.00000000000E+00 0. -1.
          6    1    1    2  501    0  0.40638229049E+02 -0.18159633111E+03 -0.29971419215E+03  0.39292020833E+03  0.17300000000E+03 0. -1.
         -6    1    1    2    0  503 -0.40638229049E+02  0.18159633111E+03 -0.49275344182E+03  0.55440386683E+03  0.17300000000E+03 0. -1.
<mgrwt>
<rscale>  2 0.25408206E+03</rscale>
<asrwt>0</asrwt>
<pdfrwt beam="1">  1       21 0.11912034E-01 0.25408206E+03</pdfrwt>
<pdfrwt beam="2">  1       21 0.13383013E+00 0.25408206E+03</pdfrwt>
<totfact> 0.23054742E+04</totfact>
</mgrwt>
</event>
<event>
 4    1  0.4333905E+000  0.1736201E+03  0.7546771E-02  0.1174124E+00
         21   -1    0    0  503  502  0.00000000000E+00  0.00000000000E+00  0.23992163683E+02  0.23992163683E+02  0.00000000000E+00 0.  1.
         21   -1    0    0  501  503 -0.00000000000E+00 -0.00000000000E+00 -0.12949895544E+04  0.12949895544E+04  0.00000000000E+00 0.  1.
          6    1    1    2  501    0  0.60764724565E+01  0.13342758203E+02 -0.74933060572E+03  0.76918158414E+03  0.17300000000E+03 0.  1.
         -6    1    1    2    0  502 -0.60764724565E+01 -0.13342758203E+02 -0.52166678500E+03  0.54980013395E+03  0.17300000000E+03 0.  1.
<mgrwt>
<rscale>  2 0.17362014E+03</rscale>
<asrwt>0</asrwt>
<pdfrwt beam="1">  1       21 0.36911029E-02 0.17362014E+03</pdfrwt>
<pdfrwt beam="2">  1       21 0.19922912E+00 0.17362014E+03</pdfrwt>
<totfact> 0.61624827E+04</totfact>
</mgrwt>
</event>
<event>
 4    1  0.4333905E+000  0.2411877E+03  0.7546771E-02  0.1119004E+00
         21   -1    0    0  501  502  0.00000000000E+00  0.00000000000E+00  0.53481268417E+02  0.53481268417E+02  0.00000000000E+00 0. -1.
         21   -1    0    0  502  503 -0.00000000000E+00 -0.00000000000E+00 -0.15929024482E+04  0.15929024482E+04  0.00000000000E+00 0. -1.
          6    1    1    2  501    0  0.16496977678E+03  0.32054472802E+02 -0.30611459493E+03  0.38971484666E+03  0.17300000000E+03 0. -1.
         -6    1    1    2    0  503 -0.16496977678E+03 -0.32054472802E+02 -0.12333065848E+04  0.12566688699E+04  0.17300000000E+03 0. -1.
<mgrwt>
<rscale>  2 0.24118772E+03</rscale>
<asrwt>0</asrwt>
<pdfrwt beam="1">  1       21 0.82278869E-02 0.24118772E+03</pdfrwt>
<pdfrwt beam="2">  1       21 0.24506193E+00 0.24118772E+03</pdfrwt>
<totfact> 0.77833525E+03</totfact>
</mgrwt>
</event>
<event>
 4    1  0.4333905E+000  0.2348062E+03  0.7546771E-02  0.1123302E+00
         21   -1    0    0  503  502  0.00000000000E+00  0.00000000000E+00  0.94296374992E+02  0.94296374992E+02  0.00000000000E+00 0.  1.
         21   -1    0    0  501  503 -0.00000000000E+00 -0.00000000000E+00 -0.13988653860E+04  0.13988653860E+04  0.00000000000E+00 0.  1.
          6    1    1    2  501    0  0.14399820408E+03  0.66853937664E+02 -0.12218563283E+04  0.12442133333E+04  0.17300000000E+03 0.  1.
         -6    1    1    2    0  502 -0.14399820408E+03 -0.66853937664E+02 -0.82712682686E+02  0.24894842767E+03  0.17300000000E+03 0.  1.
<mgrwt>
<rscale>  2 0.23480616E+03</rscale>
<asrwt>0</asrwt>
<pdfrwt beam="1">  1       21 0.14507135E-01 0.23480616E+03</pdfrwt>
<pdfrwt beam="2">  1       21 0.21521006E+00 0.23480616E+03</pdfrwt>
<totfact> 0.43207692E+03</totfact>
</mgrwt>
</event>
<event>
 4    1  0.4333905E+000  0.2596887E+03  0.7546771E-02  0.1107330E+00
         21   -1    0    0  501  502  0.00000000000E+00  0.00000000000E+00  0.22264273079E+03  0.22264273079E+03  0.00000000000E+00 0.  1.
         21   -1    0    0  502  503 -0.00000000000E+00 -0.00000000000E+00 -0.43789999048E+03  0.43789999048E+03  0.00000000000E+00 0. -1.
          6    1    1    2  501    0 -0.10276813697E+03  0.16415832732E+03  0.75751394947E+02  0.27051158984E+03  0.17300000000E+03 0.  1.
         -6    1    1    2    0  503  0.10276813697E+03 -0.16415832732E+03 -0.29100865465E+03  0.39003113143E+03  0.17300000000E+03 0. -1.
<mgrwt>
<rscale>  2 0.25968875E+03</rscale>
<asrwt>0</asrwt>
<pdfrwt beam="1">  1       21 0.34252728E-01 0.25968875E+03</pdfrwt>
<pdfrwt beam="2">  1       21 0.67369229E-01 0.25968875E+03</pdfrwt>
<totfact> 0.15944090E+04</totfact>
</mgrwt>
</event>
<event>
 4    1  0.4333905E+000  0.3057047E+03  0.7546771E-02  0.1082423E+00
         21   -1    0    0  501  502  0.00000000000E+00  0.00000000000E+00  0.36887965483E+03  0.36887965483E+03  0.00000000000E+00 0.  1.
         21   -1    0    0  502  503 -0.00000000000E+00 -0.00000000000E+00 -0.26091092630E+03  0.26091092630E+03  0.00000000000E+00 0.  1.
          6    1    1    2  501    0 -0.18900150941E+03  0.16674775552E+03  0.10759229253E+03  0.32408561514E+03  0.17300000000E+03 0.  1.
         -6    1    1    2    0  503  0.18900150941E+03 -0.16674775552E+03  0.37643599935E+00  0.30570496599E+03  0.17300000000E+03 0.  1.
<mgrwt>
<rscale>  2 0.30570473E+03</rscale>
<asrwt>0</asrwt>
<pdfrwt beam="1">  1       21 0.56750716E-01 0.30570473E+03</pdfrwt>
<pdfrwt beam="2">  1       21 0.40140143E-01 0.30570473E+03</pdfrwt>
<totfact> 0.16484754E+04</totfact>
</mgrwt>
</event>
<event>
 4    1  0.4333905E+000  0.1773111E+03  0.7546771E-02  0.1170431E+00
         21   -1    0    0  503  502  0.00000000000E+00  0.00000000000E+00  0.58868660681E+03  0.58868660681E+03  0.00000000000E+00 0.  1.
         21   -1    0    0  501  503 -0.00000000000E+00 -0.00000000000E+00 -0.96291585009E+02  0.96291585009E+02  0.00000000000E+00 0.  1.
          6    1    1    2  501    0  0.86527791164E+01 -0.37885875544E+02  0.17632442894E+02  0.17818561444E+03  0.17300000000E+03 0.  1.
         -6    1    1    2    0  502 -0.86527791164E+01  0.37885875544E+02  0.47476257891E+03  0.50679257738E+03  0.17300000000E+03 0.  1.
<mgrwt>
<rscale>  2 0.17731105E+03</rscale>
<asrwt>0</asrwt>
<pdfrwt beam="1">  1       21 0.90567168E-01 0.17731105E+03</pdfrwt>
<pdfrwt beam="2">  1       21 0.14814090E-01 0.17731105E+03</pdfrwt>
<totfact> 0.41880963E+04</totfact>
</mgrwt>
</event>
<event>
 4    1  0.4333905E+000  0.3102170E+03  0.7546771E-02  0.1080242E+00
         21   -1    0    0  503  502  0.00000000000E+00  0.00000000000E+00  0.64024031884E+03  0.64024031884E+03  0.00000000000E+00 0. -1.
         21   -1    0    0  501  503 -0.00000000000E+00 -0.00000000000E+00 -0.16803383513E+03  0.16803383513E+03  0.00000000000E+00 0. -1.
          6    1    1    2  501    0 -0.19503772622E+03 -0.16812458940E+03  0.10485066469E+03  0.32745725537E+03  0.17300000000E+03 0. -1.
         -6    1    1    2    0  502  0.19503772622E+03  0.16812458940E+03  0.36735581902E+03  0.48081689860E+03  0.17300000000E+03 0. -1.
<mgrwt>
<rscale>  2 0.31021701E+03</rscale>
<asrwt>0</asrwt>
<pdfrwt beam="1">  1       21 0.98498509E-01 0.31021701E+03</pdfrwt>
<pdfrwt beam="2">  1       21 0.25851360E-01 0.31021701E+03</pdfrwt>
<totfact> 0.11328164E+04</totfact>
</mgrwt>
</event>
<event>
 4    1  0.4333905E+000  0.1874126E+03  0.7546771E-02  0.1160816E+00
         21   -1    0    0  503  502  0.00000000000E+00  0.00000000000E+00  0.11084832333E+03  0.11084832333E+03  0.00000000000E+00 0.  1.
         21   -1    0    0  501  503 -0.00000000000E+00 -0.00000000000E+00 -0.54423456169E+03  0.54423456169E+03  0.00000000000E+00 0. -1.
          6    1    1    2  501    0 -0.37908426696E+01 -0.71973027580E+02 -0.42840409902E+03  0.46760406248E+03  0.17300000000E+03 0. -1.
         -6    1    1    2    0  502  0.37908426696E+01  0.71973027580E+02 -0.49821393305E+01  0.18747882254E+03  0.17300000000E+03 0.  1.
<mgrwt>
<rscale>  2 0.18741261E+03</rscale>
<asrwt>0</asrwt>
<pdfrwt beam="1">  1       21 0.17053588E-01 0.18741261E+03</pdfrwt>
<pdfrwt beam="2">  1       21 0.83728397E-01 0.18741261E+03</pdfrwt>
<totfact> 0.38572448E+04</totfact>
</mgrwt>
</event>
<event>
 4    1  0.4333905E+000  0.3174727E+03  0.7546771E-02  0.1076818E+00
         21   -1    0    0  501  502  0.00000000000E+00  0.00000000000E+00  0.15546536994E+03  0.15546536994E+03  0.00000000000E+00 0.  1.
         21   -1    0    0  502  503 -0.00000000000E+00 -0.00000000000E+00 -0.64891172219E+03  0.64891172219E+03  0.00000000000E+00 0. -1.
          6    1    1    2  501    0 -0.65068863752E+02  0.25812001866E+03 -0.23442032430E+03  0.39464134288E+03  0.17300000000E+03 0.  1.
         -6    1    1    2    0  503  0.65068863752E+02 -0.25812001866E+03 -0.25902602795E+03  0.40973574926E+03  0.17300000000E+03 0. -1.
<mgrwt>
<rscale>  2 0.31747268E+03</rscale>
<asrwt>0</asrwt>
<pdfrwt beam="1">  1       21 0.23917749E-01 0.31747268E+03</pdfrwt>
<pdfrwt beam="2">  1       21 0.99832573E-01 0.31747268E+03</pdfrwt>
<totfact> 0.12704557E+04</totfact>
</mgrwt>
</event>
<event>
 4    1  0.4333905E+000  0.1840933E+03  0.7546771E-02  0.1163899E+00
         21   -1    0    0  503  502  0.00000000000E+00  0.00000000000E+00  0.67596041614E+02  0.67596041614E+02  0.00000000000E+00 0.  1.
         21   -1    0    0  501  503 -0.00000000000E+00 -0.00000000000E+00 -0.81547701377E+03  0.81547701377E+03  0.00000000000E+00 0.  1.
          6    1    1    2  501    0  0.56250469791E+02 -0.28234989497E+02 -0.64797334053E+03  0.67361693864E+03  0.17300000000E+03 0.  1.
         -6    1    1    2    0  502 -0.56250469791E+02  0.28234989497E+02 -0.99907631621E+02  0.20945611674E+03  0.17300000000E+03 0.  1.
<mgrwt>
<rscale>  2 0.18409326E+03</rscale>
<asrwt>0</asrwt>
<pdfrwt beam="1">  1       21 0.10399391E-01 0.18409326E+03</pdfrwt>
<pdfrwt beam="2">  1       21 0.12545800E+00 0.18409326E+03</pdfrwt>
<totfact> 0.35961705E+04</totfact>
</mgrwt>
</event>
<event>
 4    1  0.4333905E+000  0.1866401E+03  0.7546771E-02  0.1161527E+00
         21   -1    0    0  503  502  0.00000000000E+00  0.00000000000E+00  0.51193293402E+03  0.51193293402E+03  0.00000000000E+00 0. -1.
         21   -1    0    0  501  503 -0.00000000000E+00 -0.00000000000E+00 -0.69963896414E+02  0.69963896414E+02  0.00000000000E+00 0. -1.
          6    1    1    2  501    0  0.61658655062E+02  0.33222715450E+02  0.17280182838E+03  0.25435213870E+03  0.17300000000E+03 0. -1.
         -6    1    1    2    0  502 -0.61658655062E+02 -0.33222715450E+02  0.26916720923E+03  0.32754469174E+03  0.17300000000E+03 0. -1.
<mgrwt>
<rscale>  2 0.18664013E+03</rscale>
<asrwt>0</asrwt>
<pdfrwt beam="1">  1       21 0.78758911E-01 0.18664013E+03</pdfrwt>
<pdfrwt beam="2">  1       21 0.10763677E-01 0.18664013E+03</pdfrwt>
<totfact> 0.10172238E+05</totfact>
</mgrwt>
</event>
<event>
 4    1  0.4333905E+000  0.2072507E+03  0.7546771E-02  0.1143762E+00
         21   -1    0    0  503  502  0.00000000000E+00  0.00000000000E+00  0.53572027129E+03  0.53572027129E+03  0.00000000000E+00 0.  1.
         21   -1    0    0  501  503 -0.00000000000E+00 -0.00000000000E+00 -0.10290291428E+03  0.10290291428E+03  0.00000000000E+00 0.  1.
          6    1    1    2  501    0 -0.42851856251E+00  0.11412134683E+03  0.66352453105E+02  0.21761321987E+03  0.17300000000E+03 0.  1.
         -6    1    1    2    0  502  0.42851856251E+00 -0.11412134683E+03  0.36646490390E+03  0.42100996570E+03  0.17300000000E+03 0.  1.
<mgrwt>
<rscale>  2 0.20725073E+03</rscale>
<asrwt>0</asrwt>
<pdfrwt beam="1">  1       21 0.82418501E-01 0.20725073E+03</pdfrwt>
<pdfrwt beam="2">  1       21 0.15831218E-01 0.20725073E+03</pdfrwt>
<totfact> 0.45364810E+04</totfact>
</mgrwt>
</event>
<event>
 4    1  0.4333905E+000  0.1909677E+03  0.7546771E-02  0.1157591E+00
         21   -1    0    0  503  502  0.00000000000E+00  0.00000000000E+00  0.63148493614E+02  0.63148493614E+02  0.00000000000E+00 0. -1.
         21   -1    0    0  501  503 -0.00000000000E+00 -0.00000000000E+00 -0.57824576645E+03  0.57824576645E+03  0.00000000000E+00 0. -1.
          6    1    1    2  501    0 -0.19905520764E+02 -0.78380074742E+02 -0.26901531743E+03  0.32990590611E+03  0.17300000000E+03 0. -1.
         -6    1    1    2    0  502  0.19905520764E+02  0.78380074742E+02 -0.24608195540E+03  0.31148835395E+03  0.17300000000E+03 0. -1.
<mgrwt>
<rscale>  2 0.19096771E+03</rscale>
<asrwt>0</asrwt>
<pdfrwt beam="1">  1       21 0.97151531E-02 0.19096771E+03</pdfrwt>
<pdfrwt beam="2">  1       21 0.88960885E-01 0.19096771E+03</pdfrwt>
<totfact> 0.92218113E+04</totfact>
</mgrwt>
</event>
<event>
 4    1  0.4333905E+000  0.1963234E+03  0.7546771E-02  0.1152879E+00
         21   -1    0    0  503  502  0.00000000000E+00  0.00000000000E+00  0.16363185094E+03  0.16363185094E+03  0.00000000000E+00 0.  1.
         21   -1    0    0  501  503 -0.00000000000E+00 -0.00000000000E+00 -0.55529324403E+03  0.55529324403E+03  0.00000000000E+00 0.  1.
          6    1    1    2  501    0 -0.42784434225E+02  0.82361182691E+02 -0.46860011275E+03  0.50806391123E+03  0.17300000000E+03 0.  1.
         -6    1    1    2    0  502  0.42784434225E+02 -0.82361182691E+02  0.76938719662E+02  0.21086118374E+03  0.17300000000E+03 0.  1.
<mgrwt>
<rscale>  2 0.19632339E+03</rscale>
<asrwt>0</asrwt>
<pdfrwt beam="1">  1       21 0.25174131E-01 0.19632339E+03</pdfrwt>
<pdfrwt beam="2">  1       21 0.85429729E-01 0.19632339E+03</pdfrwt>
<totfact> 0.17664687E+04</totfact>
</mgrwt>
</event>
<event>
 4    1  0.4333905E+000  0.1855628E+03  0.7546771E-02  0.1162525E+00
         21   -1    0    0  503  502  0.00000000000E+00  0.00000000000E+00  0.23345402694E+03  0.23345402694E+03  0.00000000000E+00 0.  1.
         21   -1    0    0  501  503 -0.00000000000E+00 -0.00000000000E+00 -0.14750046599E+03  0.14750046599E+03  0.00000000000E+00 0.  1.
          6    1    1    2  501    0 -0.38483427290E+02  0.54987130613E+02  0.41940580129E+02  0.19024345185E+03  0.17300000000E+03 0.  1.
         -6    1    1    2    0  502  0.38483427290E+02 -0.54987130613E+02  0.44012980820E+02  0.19071104108E+03  0.17300000000E+03 0.  1.
<mgrwt>
<rscale>  2 0.18556282E+03</rscale>
<asrwt>0</asrwt>
<pdfrwt beam="1">  1       21 0.35916004E-01 0.18556282E+03</pdfrwt>
<pdfrwt beam="2">  1       21 0.22692379E-01 0.18556282E+03</pdfrwt>
<totfact> 0.13642195E+05</totfact>
</mgrwt>
</event>
<event>
 4    1  0.4333905E+000  0.1823007E+03  0.7546771E-02  0.1165595E+00
         21   -1    0    0  501  502  0.00000000000E+00  0.00000000000E+00  0.32352711784E+04  0.32352711784E+04  0.00000000000E+00 0.  1.
         21   -1    0    0  502  503 -0.00000000000E+00 -0.00000000000E+00 -0.10272916779E+02  0.10272916779E+02  0.00000000000E+00 0. -1.
          6    1    1    2  501    0 -0.46477474270E+02 -0.33828847533E+02  0.15995232148E+04  0.16098782752E+04  0.17300000000E+03 0. -1.
         -6    1    1    2    0  503  0.46477474270E+02  0.33828847533E+02  0.16254750469E+04  0.16356658199E+04  0.17300000000E+03 0.  1.
<mgrwt>
<rscale>  2 0.18230070E+03</rscale>
<asrwt>0</asrwt>
<pdfrwt beam="1">  1       21 0.49773321E+00 0.18230070E+03</pdfrwt>
<pdfrwt beam="2">  1       21 0.15804513E-02 0.18230070E+03</pdfrwt>
<totfact> 0.35972938E+03</totfact>
</mgrwt>
</event>
<event>
 4    1  0.4333905E+000  0.2242518E+03  0.7546771E-02  0.1130752E+00
         21   -1    0    0  501  502  0.00000000000E+00  0.00000000000E+00  0.34041667329E+02  0.34041667329E+02  0.00000000000E+00 0. -1.
         21   -1    0    0  502  503 -0.00000000000E+00 -0.00000000000E+00 -0.18262962549E+04  0.18262962549E+04  0.00000000000E+00 0. -1.
          6    1    1    2  501    0 -0.77143012342E+02  0.12003672366E+03 -0.48949395318E+03  0.53841730060E+03  0.17300000000E+03 0. -1.
         -6    1    1    2    0  503  0.77143012342E+02 -0.12003672366E+03 -0.13027606344E+04  0.13219206216E+04  0.17300000000E+03 0. -1.
<mgrwt>
<rscale>  2 0.22425178E+03</rscale>
<asrwt>0</asrwt>
<pdfrwt beam="1">  1       21 0.52371778E-02 0.22425178E+03</pdfrwt>
<pdfrwt beam="2">  1       21 0.28096875E+00 0.22425178E+03</pdfrwt>
<totfact> 0.10595149E+04</totfact>
</mgrwt>
</event>
<event>
 4    1  0.4333905E+000  0.1995872E+03  0.7546771E-02  0.1150088E+00
         21   -1    0    0  503  502  0.00000000000E+00  0.00000000000E+00  0.50460609982E+03  0.50460609982E+03  0.00000000000E+00 0.  1.
         21   -1    0    0  501  503 -0.00000000000E+00 -0.00000000000E+00 -0.24031700981E+03  0.24031700981E+03  0.00000000000E+00 0.  1.
          6    1    1    2  501    0  0.54516547230E+02  0.83270548810E+02 -0.17307068980E+03  0.26417513488E+03  0.17300000000E+03 0.  1.
         -6    1    1    2    0  502 -0.54516547230E+02 -0.83270548810E+02  0.43735977982E+03  0.48074797475E+03  0.17300000000E+03 0.  1.
<mgrwt>
<rscale>  2 0.19958717E+03</rscale>
<asrwt>0</asrwt>
<pdfrwt beam="1">  1       21 0.77631708E-01 0.19958717E+03</pdfrwt>
<pdfrwt beam="2">  1       21 0.36971848E-01 0.19958717E+03</pdfrwt>
<totfact> 0.10334288E+04</totfact>
</mgrwt>
</event>
<event>
 4    1  0.4333905E+000  0.1774996E+03  0.7546771E-02  0.1170245E+00
         21   -1    0    0  501  502  0.00000000000E+00  0.00000000000E+00  0.15956750840E+03  0.15956750840E+03  0.00000000000E+00 0. -1.
         21   -1    0    0  502  503 -0.00000000000E+00 -0.00000000000E+00 -0.26808741057E+03  0.26808741057E+03  0.00000000000E+00 0. -1.
          6    1    1    2  501    0 -0.39460935519E+01  0.39516266392E+02  0.55502105820E+02  0.18597470450E+03  0.17300000000E+03 0. -1.
         -6    1    1    2    0  503  0.39460935519E+01 -0.39516266392E+02 -0.16402200798E+03  0.24168021447E+03  0.17300000000E+03 0. -1.
<mgrwt>
<rscale>  2 0.17749960E+03</rscale>
<asrwt>0</asrwt>
<pdfrwt beam="1">  1       21 0.24548848E-01 0.17749960E+03</pdfrwt>
<pdfrwt beam="2">  1       21 0.41244216E-01 0.17749960E+03</pdfrwt>
<totfact> 0.89311506E+04</totfact>
</mgrwt>
</event>
<event>
 4    1  0.4333905E+000  0.2407686E+03  0.7546771E-02  0.1119282E+00
         21   -1    0    0  503  502  0.00000000000E+00  0.00000000000E+00  0.98960311526E+02  0.98960311526E+02  0.00000000000E+00 0.  1.
         21   -1    0    0  501  503 -0.00000000000E+00 -0.00000000000E+00 -0.60623500883E+03  0.60623500883E+03  0.00000000000E+00 0. -1.
          6    1    1    2  501    0  0.16664093543E+03 -0.16471932852E+02 -0.31839621657E+03  0.39918125791E+03  0.17300000000E+03 0. -1.
         -6    1    1    2    0  502 -0.16664093543E+03  0.16471932852E+02 -0.18887848073E+03  0.30601406245E+03  0.17300000000E+03 0. -1.
<mgrwt>
<rscale>  2 0.24076861E+03</rscale>
<asrwt>0</asrwt>
<pdfrwt beam="1">  1       21 0.15224663E-01 0.24076861E+03</pdfrwt>
<pdfrwt beam="2">  1       21 0.93266923E-01 0.24076861E+03</pdfrwt>
<totfact> 0.36031936E+04</totfact>
</mgrwt>
</event>
<event>
 4    1  0.4333905E+000  0.1731502E+03  0.7546771E-02  0.1174602E+00
         21   -1    0    0  501  502  0.00000000000E+00  0.00000000000E+00  0.12480597866E+04  0.12480597866E+04  0.00000000000E+00 0.  1.
         21   -1    0    0  502  503 -0.00000000000E+00 -0.00000000000E+00 -0.51028559392E+02  0.51028559392E+02  0.00000000000E+00 0.  1.
          6    1    1    2  501    0 -0.14548922493E+01  0.70610192406E+01  0.10710529568E+04  0.10849587139E+04  0.17300000000E+03 0.  1.
         -6    1    1    2    0  503  0.14548922493E+01 -0.70610192406E+01  0.12597827041E+03  0.21412963204E+03  0.17300000000E+03 0.  1.
<mgrwt>
<rscale>  2 0.17315015E+03</rscale>
<asrwt>0</asrwt>
<pdfrwt beam="1">  1       21 0.19200917E+00 0.17315015E+03</pdfrwt>
<pdfrwt beam="2">  1       21 0.78505486E-02 0.17315015E+03</pdfrwt>
<totfact> 0.19046947E+04</totfact>
</mgrwt>
</event>
<event>
 4    1  0.4333905E+000  0.2896909E+03  0.7546771E-02  0.1090511E+00
         21   -1    0    0  501  502  0.00000000000E+00  0.00000000000E+00  0.69197163420E+03  0.69197163420E+03  0.00000000000E+00 0. -1.
         21   -1    0    0  502  503 -0.00000000000E+00 -0.00000000000E+00 -0.14861197846E+03  0.14861197846E+03  0.00000000000E+00 0. -1.
          6    1    1    2  501    0  0.72866090123E+02 -0.22064083006E+03  0.45193033931E+03  0.53680711114E+03  0.17300000000E+03 0. -1.
         -6    1    1    2    0  503 -0.72866090123E+02  0.22064083006E+03  0.91429316434E+02  0.30377650153E+03  0.17300000000E+03 0. -1.
<mgrwt>
<rscale>  2 0.28969094E+03</rscale>
<asrwt>0</asrwt>
<pdfrwt beam="1">  1       21 0.10645717E+00 0.28969094E+03</pdfrwt>
<pdfrwt beam="2">  1       21 0.22863382E-01 0.28969094E+03</pdfrwt>
<totfact> 0.11999354E+04</totfact>
</mgrwt>
</event>
<event>
 4    1  0.4333905E+000  0.2290464E+03  0.7546771E-02  0.1127313E+00
         21   -1    0    0  503  502  0.00000000000E+00  0.00000000000E+00  0.16945051381E+03  0.16945051381E+03  0.00000000000E+00 0. -1.
         21   -1    0    0  501  503 -0.00000000000E+00 -0.00000000000E+00 -0.38585473390E+03  0.38585473390E+03  0.00000000000E+00 0. -1.
          6    1    1    2  501    0 -0.13582326716E+03 -0.63916428774E+02 -0.23163096632E+03  0.32575324147E+03  0.17300000000E+03 0. -1.
         -6    1    1    2    0  502  0.13582326716E+03  0.63916428774E+02  0.15226746231E+02  0.22955200624E+03  0.17300000000E+03 0. -1.
<mgrwt>
<rscale>  2 0.22904644E+03</rscale>
<asrwt>0</asrwt>
<pdfrwt beam="1">  1       21 0.26069310E-01 0.22904644E+03</pdfrwt>
<pdfrwt beam="2">  1       21 0.59362266E-01 0.22904644E+03</pdfrwt>
<totfact> 0.36392411E+04</totfact>
</mgrwt>
</event>
<event>
 4    1  0.4333905E+000  0.1849493E+03  0.7546771E-02  0.1163097E+00
         21   -1    0    0  501  502  0.00000000000E+00  0.00000000000E+00  0.30815878223E+03  0.30815878223E+03  0.00000000000E+00 0.  1.
         21   -1    0    0  502  503 -0.00000000000E+00 -0.00000000000E+00 -0.12803666027E+03  0.12803666027E+03  0.00000000000E+00 0.  1.
          6    1    1    2  501    0  0.54497403615E+02 -0.36156532291E+02  0.16961283006E+03  0.25094775143E+03  0.17300000000E+03 0.  1.
         -6    1    1    2    0  503 -0.54497403615E+02  0.36156532291E+02  0.10509291901E+02  0.18524769106E+03  0.17300000000E+03 0.  1.
<mgrwt>
<rscale>  2 0.18494935E+03</rscale>
<asrwt>0</asrwt>
<pdfrwt beam="1">  1       21 0.47409043E-01 0.18494935E+03</pdfrwt>
<pdfrwt beam="2">  1       21 0.19697948E-01 0.18494935E+03</pdfrwt>
<totfact> 0.10135685E+05</totfact>
</mgrwt>
</event>
<event>
 4    1  0.4333905E+000  0.1807367E+03  0.7546771E-02  0.1167092E+00
         21   -1    0    0  501  502  0.00000000000E+00  0.00000000000E+00  0.43266851827E+03  0.43266851827E+03  0.00000000000E+00 0. -1.
         21   -1    0    0  502  503 -0.00000000000E+00 -0.00000000000E+00 -0.10923505473E+03  0.10923505473E+03  0.00000000000E+00 0. -1.
          6    1    1    2  501    0  0.49988684451E+02 -0.15423808798E+02  0.31229499568E+03  0.36082395538E+03  0.17300000000E+03 0. -1.
         -6    1    1    2    0  503 -0.49988684451E+02  0.15423808798E+02  0.11138467855E+02  0.18107961762E+03  0.17300000000E+03 0. -1.
<mgrwt>
<rscale>  2 0.18073672E+03</rscale>
<asrwt>0</asrwt>
<pdfrwt beam="1">  1       21 0.66564386E-01 0.18073672E+03</pdfrwt>
<pdfrwt beam="2">  1       21 0.16805393E-01 0.18073672E+03</pdfrwt>
<totfact> 0.66284315E+04</totfact>
</mgrwt>
</event>
<event>
 4    1  0.4333905E+000  0.4358880E+03  0.7546771E-02  0.1032016E+00
         21   -1    0    0  501  502  0.00000000000E+00  0.00000000000E+00  0.28228779833E+03  0.28228779833E+03  0.00000000000E+00 0.  1.
         21   -1    0    0  502  503 -0.00000000000E+00 -0.00000000000E+00 -0.12778007440E+04  0.12778007440E+04  0.00000000000E+00 0. -1.
          6    1    1    2  501    0 -0.24181966180E+02  0.39935520189E+03  0.38867550854E+02  0.43761744855E+03  0.17300000000E+03 0.  1.
         -6    1    1    2    0  503  0.24181966180E+02 -0.39935520189E+03 -0.10343804965E+04  0.11224710937E+04  0.17300000000E+03 0.  1.
<mgrwt>
<rscale>  2 0.43588800E+03</rscale>
<asrwt>0</asrwt>
<pdfrwt beam="1">  1       21 0.43428892E-01 0.43588800E+03</pdfrwt>
<pdfrwt beam="2">  1       21 0.19658473E+00 0.43588800E+03</pdfrwt>
<totfact> 0.59944457E+02</totfact>
</mgrwt>
</event>
<event>
 4    1  0.4333905E+000  0.1969405E+03  0.7546771E-02  0.1152346E+00
         21   -1    0    0  503  502  0.00000000000E+00  0.00000000000E+00  0.34080682159E+03  0.34080682159E+03  0.00000000000E+00 0.  1.
         21   -1    0    0  501  503 -0.00000000000E+00 -0.00000000000E+00 -0.14542311484E+03  0.14542311484E+03  0.00000000000E+00 0.  1.
          6    1    1    2  501    0 -0.87580661621E+02  0.34441270430E+02 -0.15668683510E+02  0.19756285340E+03  0.17300000000E+03 0.  1.
         -6    1    1    2    0  502  0.87580661621E+02 -0.34441270430E+02  0.21105239026E+03  0.28866708304E+03  0.17300000000E+03 0.  1.
<mgrwt>
<rscale>  2 0.19694053E+03</rscale>
<asrwt>0</asrwt>
<pdfrwt beam="1">  1       21 0.52431819E-01 0.19694053E+03</pdfrwt>
<pdfrwt beam="2">  1       21 0.22372787E-01 0.19694053E+03</pdfrwt>
<totfact> 0.64391878E+04</totfact>
</mgrwt>
</event>
<event>
 4    1  0.4333905E+000  0.2030820E+03  0.7546771E-02  0.1147164E+00
         21   -1    0    0  501  502  0.00000000000E+00  0.00000000000E+00  0.73629603953E+02  0.73629603953E+02  0.00000000000E+00 0.  1.
         21   -1    0    0  502  503 -0.00000000000E+00 -0.00000000000E+00 -0.66398436808E+03  0.66398436808E+03  0.00000000000E+00 0. -1.
          6    1    1    2  501    0 -0.79324571930E+02  0.70858291612E+02 -0.14931988473E+03  0.25206886594E+03  0.17300000000E+03 0.  1.
         -6    1    1    2    0  503  0.79324571930E+02 -0.70858291612E+02 -0.44103487940E+03  0.48554510609E+03  0.17300000000E+03 0. -1.
<mgrwt>
<rscale>  2 0.20308197E+03</rscale>
<asrwt>0</asrwt>
<pdfrwt beam="1">  1       21 0.11327632E-01 0.20308197E+03</pdfrwt>
<pdfrwt beam="2">  1       21 0.10215144E+00 0.20308197E+03</pdfrwt>
<totfact> 0.50487023E+04</totfact>
</mgrwt>
</event>
<event>
 4    1  0.4333905E+000  0.2403899E+03  0.7546771E-02  0.1119533E+00
         21   -1    0    0  501  502  0.00000000000E+00  0.00000000000E+00  0.74461758279E+03  0.74461758279E+03  0.00000000000E+00 0. -1.
         21   -1    0    0  502  503 -0.00000000000E+00 -0.00000000000E+00 -0.85353514263E+02  0.85353514263E+02  0.00000000000E+00 0.  1.
          6    1    1    2  501    0 -0.75728627077E+02  0.14873965689E+03  0.45465331669E+03  0.51429266850E+03  0.17300000000E+03 0. -1.
         -6    1    1    2    0  503  0.75728627077E+02 -0.14873965689E+03  0.20461075183E+03  0.31567842856E+03  0.17300000000E+03 0.  1.
<mgrwt>
<rscale>  2 0.24038991E+03</rscale>
<asrwt>0</asrwt>
<pdfrwt beam="1">  1       21 0.11455655E+00 0.24038991E+03</pdfrwt>
<pdfrwt beam="2">  1       21 0.13131310E-01 0.24038991E+03</pdfrwt>
<totfact> 0.28779439E+04</totfact>
</mgrwt>
</event>
<event>
 4    1  0.4333905E+000  0.1963891E+03  0.7546771E-02  0.1152822E+00
         21   -1    0    0  503  502  0.00000000000E+00  0.00000000000E+00  0.41157029010E+03  0.41157029010E+03  0.00000000000E+00 0. -1.
         21   -1    0    0  501  503 -0.00000000000E+00 -0.00000000000E+00 -0.98560244891E+02  0.98560244891E+02  0.00000000000E+00 0. -1.
          6    1    1    2  501    0  0.76065177810E+02  0.53420631139E+02  0.99928502929E+02  0.22035058612E+03  0.17300000000E+03 0. -1.
         -6    1    1    2    0  502 -0.76065177810E+02 -0.53420631139E+02  0.21308154228E+03  0.28977994887E+03  0.17300000000E+03 0. -1.
<mgrwt>
<rscale>  2 0.19638909E+03</rscale>
<asrwt>0</asrwt>
<pdfrwt beam="1">  1       21 0.63318505E-01 0.19638909E+03</pdfrwt>
<pdfrwt beam="2">  1       21 0.15163115E-01 0.19638909E+03</pdfrwt>
<totfact> 0.88601347E+04</totfact>
</mgrwt>
</event>
<event>
 4    1  0.4333905E+000  0.1893176E+03  0.7546771E-02  0.1159078E+00
         21   -1    0    0  503  502  0.00000000000E+00  0.00000000000E+00  0.47257062821E+03  0.47257062821E+03  0.00000000000E+00 0.  1.
         21   -1    0    0  501  503 -0.00000000000E+00 -0.00000000000E+00 -0.84782122773E+02  0.84782122773E+02  0.00000000000E+00 0. -1.
          6    1    1    2  501    0  0.48586635366E+02 -0.59594367779E+02  0.10340506018E+03  0.21571684282E+03  0.17300000000E+03 0. -1.
         -6    1    1    2    0  502 -0.48586635366E+02  0.59594367779E+02  0.28438344526E+03  0.34163590816E+03  0.17300000000E+03 0.  1.
<mgrwt>
<rscale>  2 0.18931759E+03</rscale>
<asrwt>0</asrwt>
<pdfrwt beam="1">  1       21 0.72703172E-01 0.18931759E+03</pdfrwt>
<pdfrwt beam="2">  1       21 0.13043404E-01 0.18931759E+03</pdfrwt>
<totfact> 0.86211983E+04</totfact>
</mgrwt>
</event>
<event>
 4    1  0.4333905E+000  0.1994145E+03  0.7546771E-02  0.1150234E+00
         21   -1    0    0  503  502  0.00000000000E+00  0.00000000000E+00  0.19593614981E+03  0.19593614981E+03  0.00000000000E+00 0.  1.
         21   -1    0    0  501  503 -0.00000000000E+00 -0.00000000000E+00 -0.50373944548E+03  0.50373944548E+03  0.00000000000E+00 0.  1.
          6    1    1    2  501    0  0.76807957699E+02  0.62750898023E+02 -0.42423009253E+03  0.46876146277E+03  0.17300000000E+03 0.  1.
         -6    1    1    2    0  502 -0.76807957699E+02 -0.62750898023E+02  0.11642679686E+03  0.23091413252E+03  0.17300000000E+03 0.  1.
<mgrwt>
<rscale>  2 0.19941449E+03</rscale>
<asrwt>0</asrwt>
<pdfrwt beam="1">  1       21 0.30144023E-01 0.19941449E+03</pdfrwt>
<pdfrwt beam="2">  1       21 0.77498377E-01 0.19941449E+03</pdfrwt>
<totfact> 0.15529990E+04</totfact>
</mgrwt>
</event>
<event>
 4    1  0.4333905E+000  0.1897380E+03  0.7546771E-02  0.1158698E+00
         21   -1    0    0  501  502  0.00000000000E+00  0.00000000000E+00  0.78144183755E+03  0.78144183755E+03  0.00000000000E+00 0. -1.
         21   -1    0    0  502  503 -0.00000000000E+00 -0.00000000000E+00 -0.49440265983E+02  0.49440265983E+02  0.00000000000E+00 0. -1.
          6    1    1    2  501    0  0.76682227161E+02 -0.13832095414E+02  0.25752191035E+03  0.31987188863E+03  0.17300000000E+03 0. -1.
         -6    1    1    2    0  503 -0.76682227161E+02  0.13832095414E+02  0.47447966121E+03  0.51101021490E+03  0.17300000000E+03 0. -1.
<mgrwt>
<rscale>  2 0.18973795E+03</rscale>
<asrwt>0</asrwt>
<pdfrwt beam="1">  1       21 0.12022181E+00 0.18973795E+03</pdfrwt>
<pdfrwt beam="2">  1       21 0.76061954E-02 0.18973795E+03</pdfrwt>
<totfact> 0.68965173E+04</totfact>
</mgrwt>
</event>
<event>
 4    1  0.4333905E+000  0.1736141E+03  0.7546771E-02  0.1174130E+00
         21   -1    0    0  503  502  0.00000000000E+00  0.00000000000E+00  0.16441449558E+03  0.16441449558E+03  0.00000000000E+00 0. -1.
         21   -1    0    0  501  503 -0.00000000000E+00 -0.00000000000E+00 -0.19422708077E+03  0.19422708077E+03  0.00000000000E+00 0. -1.
          6    1    1    2  501    0  0.17439029072E+01  0.14485340281E+02  0.27571340164E+02  0.17578977524E+03  0.17300000000E+03 0.  1.
         -6    1    1    2    0  502 -0.17439029072E+01 -0.14485340281E+02 -0.57383925356E+02  0.18285180111E+03  0.17300000000E+03 0.  1.
<mgrwt>
<rscale>  2 0.17361413E+03</rscale>
<asrwt>0</asrwt>
<pdfrwt beam="1">  1       21 0.25294538E-01 0.17361413E+03</pdfrwt>
<pdfrwt beam="2">  1       21 0.29881089E-01 0.17361413E+03</pdfrwt>
<totfact> 0.16002080E+05</totfact>
</mgrwt>
</event>
<event>
 4    1  0.4333905E+000  0.2636104E+03  0.7546771E-02  0.1104993E+00
         21   -1    0    0  503  502  0.00000000000E+00  0.00000000000E+00  0.13631096961E+03  0.13631096961E+03  0.00000000000E+00 0.  1.
         21   -1    0    0  501  503 -0.00000000000E+00 -0.00000000000E+00 -0.55918163614E+03  0.55918163614E+03  0.00000000000E+00 0.  1.
          6    1    1    2  501    0 -0.19692638479E+03 -0.27954199812E+02 -0.10808838741E+03  0.28490970114E+03  0.17300000000E+03 0.  1.
         -6    1    1    2    0  502  0.19692638479E+03  0.27954199812E+02 -0.31478227911E+03  0.41058290461E+03  0.17300000000E+03 0.  1.
<mgrwt>
<rscale>  2 0.26361039E+03</rscale>
<asrwt>0</asrwt>
<pdfrwt beam="1">  1       21 0.20970918E-01 0.26361039E+03</pdfrwt>
<pdfrwt beam="2">  1       21 0.86027945E-01 0.26361039E+03</pdfrwt>
<totfact> 0.23727690E+04</totfact>
</mgrwt>
</event>
<event>
 4    1  0.4333905E+000  0.2003487E+03  0.7546771E-02  0.1149445E+00
         21   -1    0    0  501  502  0.00000000000E+00  0.00000000000E+00  0.45029614370E+03  0.45029614370E+03  0.00000000000E+00 0. -1.
         21   -1    0    0  502  503 -0.00000000000E+00 -0.00000000000E+00 -0.10109562544E+03  0.10109562544E+03  0.00000000000E+00 0. -1.
          6    1    1    2  501    0 -0.76813062178E+02  0.65653416457E+02  0.79793041005E+02  0.21565376650E+03  0.17300000000E+03 0. -1.
         -6    1    1    2    0  503  0.76813062178E+02 -0.65653416457E+02  0.26940747725E+03  0.33573800263E+03  0.17300000000E+03 0. -1.
<mgrwt>
<rscale>  2 0.20034874E+03</rscale>
<asrwt>0</asrwt>
<pdfrwt beam="1">  1       21 0.69276329E-01 0.20034874E+03</pdfrwt>
<pdfrwt beam="2">  1       21 0.15553173E-01 0.20034874E+03</pdfrwt>
<totfact> 0.69373085E+04</totfact>
</mgrwt>
</event>
<event>
 4    1  0.4333905E+000  0.4282953E+03  0.7546771E-02  0.1034400E+00
         21   -1    0    0  503  502  0.00000000000E+00  0.00000000000E+00  0.10713869600E+04  0.10713869600E+04  0.00000000000E+00 0. -1.
         21   -1    0    0  501  503 -0.00000000000E+00 -0.00000000000E+00 -0.25399864785E+03  0.25399864785E+03  0.00000000000E+00 0. -1.
          6    1    1    2  501    0  0.31215880256E+03  0.23677997273E+03  0.30364477929E+02  0.42937032387E+03  0.17300000000E+03 0. -1.
         -6    1    1    2    0  502 -0.31215880256E+03 -0.23677997273E+03  0.78702383425E+03  0.89601528401E+03  0.17300000000E+03 0. -1.
<mgrwt>
<rscale>  2 0.42829531E+03</rscale>
<asrwt>0</asrwt>
<pdfrwt beam="1">  1       21 0.16482876E+00 0.42829531E+03</pdfrwt>
<pdfrwt beam="2">  1       21 0.39076715E-01 0.42829531E+03</pdfrwt>
<totfact> 0.12515485E+03</totfact>
</mgrwt>
</event>
<event>
 4    1  0.4333905E+000  0.2131170E+03  0.7546771E-02  0.1139121E+00
         21   -1    0    0  501  502  0.00000000000E+00  0.00000000000E+00  0.18110680867E+03  0.18110680867E+03  0.00000000000E+00 0. -1.
         21   -1    0    0  502  503 -0.00000000000E+00 -0.00000000000E+00 -0.48467304545E+03  0.48467304545E+03  0.00000000000E+00 0. -1.
          6    1    1    2  501    0 -0.95446313583E+02  0.79873918864E+02  0.79466158191E+02  0.22745046052E+03  0.17300000000E+03 0. -1.
         -6    1    1    2    0  503  0.95446313583E+02 -0.79873918864E+02 -0.38303239498E+03  0.43832939360E+03  0.17300000000E+03 0. -1.
<mgrwt>
<rscale>  2 0.21311697E+03</rscale>
<asrwt>0</asrwt>
<pdfrwt beam="1">  1       21 0.27862586E-01 0.21311697E+03</pdfrwt>
<pdfrwt beam="2">  1       21 0.74565083E-01 0.21311697E+03</pdfrwt>
<totfact> 0.19570029E+04</totfact>
</mgrwt>
</event>
<event>
 4    1  0.4333905E+000  0.1867097E+03  0.7546771E-02  0.1161463E+00
         21   -1    0    0  501  502  0.00000000000E+00  0.00000000000E+00  0.10275129745E+03  0.10275129745E+03  0.00000000000E+00 0. -1.
         21   -1    0    0  502  503 -0.00000000000E+00 -0.00000000000E+00 -0.47265889144E+03  0.47265889144E+03  0.00000000000E+00 0. -1.
          6    1    1    2  501    0  0.36611743682E+02 -0.59925633864E+02 -0.32115433277E+02  0.18945158332E+03  0.17300000000E+03 0. -1.
         -6    1    1    2    0  503 -0.36611743682E+02  0.59925633864E+02 -0.33779216071E+03  0.38595860556E+03  0.17300000000E+03 0. -1.
<mgrwt>
<rscale>  2 0.18670967E+03</rscale>
<asrwt>0</asrwt>
<pdfrwt beam="1">  1       21 0.15807892E-01 0.18670967E+03</pdfrwt>
<pdfrwt beam="2">  1       21 0.72716753E-01 0.18670967E+03</pdfrwt>
<totfact> 0.60878180E+04</totfact>
</mgrwt>
</event>
<event>
 4    1  0.4333905E+000  0.2198146E+03  0.7546771E-02  0.1134021E+00
         21   -1    0    0  503  502  0.00000000000E+00  0.00000000000E+00  0.14684112106E+03  0.14684112106E+03  0.00000000000E+00 0.  1.
         21   -1    0    0  501  503 -0.00000000000E+00 -0.00000000000E+00 -0.36521163161E+03  0.36521163161E+03  0.00000000000E+00 0. -1.
          6    1    1    2  501    0  0.28581985398E+02 -0.13256149381E+03 -0.28625209183E+02  0.22167066141E+03  0.17300000000E+03 0.  1.
         -6    1    1    2    0  502 -0.28581985398E+02  0.13256149381E+03 -0.18974530137E+03  0.29038209125E+03  0.17300000000E+03 0. -1.
<mgrwt>
<rscale>  2 0.21981465E+03</rscale>
<asrwt>0</asrwt>
<pdfrwt beam="1">  1       21 0.22590942E-01 0.21981465E+03</pdfrwt>
<pdfrwt beam="2">  1       21 0.56186405E-01 0.21981465E+03</pdfrwt>
<totfact> 0.54049397E+04</totfact>
</mgrwt>
</event>
<event>
 4    1  0.4333905E+000  0.2259646E+03  0.7546771E-02  0.1129513E+00
         21   -1    0    0  503  502  0.00000000000E+00  0.00000000000E+00  0.38154987729E+02  0.38154987729E+02  0.00000000000E+00 0.  1.
         21   -1    0    0  501  503 -0.00000000000E+00 -0.00000000000E+00 -0.13383659792E+04  0.13383659792E+04  0.00000000000E+00 0.  1.
          6    1    1    2  501    0 -0.43541971801E+02  0.13869062970E+03 -0.64306505053E+03  0.68161033831E+03  0.17300000000E+03 0.  1.
         -6    1    1    2    0  502  0.43541971801E+02 -0.13869062970E+03 -0.65714594093E+03  0.69491062861E+03  0.17300000000E+03 0.  1.
<mgrwt>
<rscale>  2 0.22596459E+03</rscale>
<asrwt>0</asrwt>
<pdfrwt beam="1">  1       21 0.58699989E-02 0.22596459E+03</pdfrwt>
<pdfrwt beam="2">  1       21 0.20590243E+00 0.22596459E+03</pdfrwt>
<totfact> 0.24614201E+04</totfact>
</mgrwt>
</event>
<event>
 4    1  0.4333905E+000  0.2070820E+03  0.7546771E-02  0.1143898E+00
         21   -1    0    0  501  502  0.00000000000E+00  0.00000000000E+00  0.95587363654E+03  0.95587363654E+03  0.00000000000E+00 0.  1.
         21   -1    0    0  502  503 -0.00000000000E+00 -0.00000000000E+00 -0.48833106082E+02  0.48833106082E+02  0.00000000000E+00 0. -1.
          6    1    1    2  501    0 -0.17267154747E+02  0.11249798345E+03  0.59676430137E+03  0.63167284436E+03  0.17300000000E+03 0. -1.
         -6    1    1    2    0  503  0.17267154747E+02 -0.11249798345E+03  0.31027622909E+03  0.37303389826E+03  0.17300000000E+03 0. -1.
<mgrwt>
<rscale>  2 0.20708199E+03</rscale>
<asrwt>0</asrwt>
<pdfrwt beam="1">  1       21 0.14705747E+00 0.20708199E+03</pdfrwt>
<pdfrwt beam="2">  1       21 0.75127863E-02 0.20708199E+03</pdfrwt>
<totfact> 0.41790308E+04</totfact>
</mgrwt>
</event>
<event>
 4    1  0.4333905E+000  0.1796918E+03  0.7546771E-02  0.1168102E+00
         21   -1    0    0  503  502  0.00000000000E+00  0.00000000000E+00  0.99369735384E+03  0.99369735384E+03  0.00000000000E+00 0.  1.
         21   -1    0    0  501  503 -0.00000000000E+00 -0.00000000000E+00 -0.41764764901E+02  0.41764764901E+02  0.00000000000E+00 0.  1.
          6    1    1    2  501    0 -0.47687856144E+02 -0.92737106425E+01  0.23204001185E+03  0.29348202744E+03  0.17300000000E+03 0.  1.
         -6    1    1    2    0  502  0.47687856144E+02  0.92737106425E+01  0.71989257709E+03  0.74198009130E+03  0.17300000000E+03 0.  1.
<mgrwt>
<rscale>  2 0.17969177E+03</rscale>
<asrwt>0</asrwt>
<pdfrwt beam="1">  1       21 0.15287650E+00 0.17969177E+03</pdfrwt>
<pdfrwt beam="2">  1       21 0.64253492E-02 0.17969177E+03</pdfrwt>
<totfact> 0.50209405E+04</totfact>
</mgrwt>
</event>
<event>
 4    1  0.4333905E+000  0.2952914E+03  0.7546771E-02  0.1087618E+00
         21   -1    0    0  501  502  0.00000000000E+00  0.00000000000E+00  0.29751561533E+03  0.29751561533E+03  0.00000000000E+00 0. -1.
         21   -1    0    0  502  503 -0.00000000000E+00 -0.00000000000E+00 -0.39008011887E+03  0.39008011887E+03  0.00000000000E+00 0. -1.
          6    1    1    2  501    0 -0.22000317980E+03  0.94162666478E+02 -0.21771899104E+03  0.36687677215E+03  0.17300000000E+03 0. -1.
         -6    1    1    2    0  503  0.22000317980E+03 -0.94162666478E+02  0.12515448750E+03  0.32071896206E+03  0.17300000000E+03 0. -1.
<mgrwt>
<rscale>  2 0.29529139E+03</rscale>
<asrwt>0</asrwt>
<pdfrwt beam="1">  1       21 0.45771633E-01 0.29529139E+03</pdfrwt>
<pdfrwt beam="2">  1       21 0.60012326E-01 0.29529139E+03</pdfrwt>
<totfact> 0.11194338E+04</totfact>
</mgrwt>
</event>
<event>
 4    1  0.4333905E+000  0.2722920E+03  0.7546771E-02  0.1099975E+00
         21   -1    0    0  501  502  0.00000000000E+00  0.00000000000E+00  0.42972038024E+02  0.42972038024E+02  0.00000000000E+00 0. -1.
         21   -1    0    0  502  503 -0.00000000000E+00 -0.00000000000E+00 -0.17778560946E+04  0.17778560946E+04  0.00000000000E+00 0. -1.
          6    1    1    2  501    0 -0.21026306741E+03  0.18413652157E+01 -0.10238596031E+04  0.10594486467E+04  0.17300000000E+03 0. -1.
         -6    1    1    2    0  503  0.21026306741E+03 -0.18413652157E+01 -0.71102445351E+03  0.76137948595E+03  0.17300000000E+03 0. -1.
<mgrwt>
<rscale>  2 0.27229203E+03</rscale>
<asrwt>0</asrwt>
<pdfrwt beam="1">  1       21 0.66110836E-02 0.27229203E+03</pdfrwt>
<pdfrwt beam="2">  1       21 0.27351629E+00 0.27229203E+03</pdfrwt>
<totfact> 0.75467383E+03</totfact>
</mgrwt>
</event>
<event>
 4    1  0.4333905E+000  0.1843662E+03  0.7546771E-02  0.1163643E+00
         21   -1    0    0  501  502  0.00000000000E+00  0.00000000000E+00  0.65879008173E+03  0.65879008173E+03  0.00000000000E+00 0.  1.
         21   -1    0    0  502  503 -0.00000000000E+00 -0.00000000000E+00 -0.13430462728E+03  0.13430462728E+03  0.00000000000E+00 0.  1.
          6    1    1    2  501    0  0.58898545406E+02 -0.24348404753E+02  0.57343239790E+03  0.60234176215E+03  0.17300000000E+03 0.  1.
         -6    1    1    2    0  503 -0.58898545406E+02  0.24348404753E+02 -0.48946943449E+02  0.19075294687E+03  0.17300000000E+03 0.  1.
<mgrwt>
<rscale>  2 0.18436617E+03</rscale>
<asrwt>0</asrwt>
<pdfrwt beam="1">  1       21 0.10135232E+00 0.18436617E+03</pdfrwt>
<pdfrwt beam="2">  1       21 0.20662251E-01 0.18436617E+03</pdfrwt>
<totfact> 0.17359831E+04</totfact>
</mgrwt>
</event>
<event>
 4    1  0.4333905E+000  0.2008034E+03  0.7546771E-02  0.1149063E+00
         21   -1    0    0  501  502  0.00000000000E+00  0.00000000000E+00  0.24211279548E+03  0.24211279548E+03  0.00000000000E+00 0. -1.
         21   -1    0    0  502  503 -0.00000000000E+00 -0.00000000000E+00 -0.20849031017E+03  0.20849031017E+03  0.00000000000E+00 0. -1.
          6    1    1    2  501    0 -0.97638794781E+02  0.29320221909E+02  0.11787075297E+03  0.23284227293E+03  0.17300000000E+03 0. -1.
         -6    1    1    2    0  503  0.97638794781E+02 -0.29320221909E+02 -0.84248267657E+02  0.21776083271E+03  0.17300000000E+03 0. -1.
<mgrwt>
<rscale>  2 0.20080341E+03</rscale>
<asrwt>0</asrwt>
<pdfrwt beam="1">  1       21 0.37248122E-01 0.20080341E+03</pdfrwt>
<pdfrwt beam="2">  1       21 0.32075432E-01 0.20080341E+03</pdfrwt>
<totfact> 0.64746807E+04</totfact>
</mgrwt>
</event>
<event>
 4    1  0.4333905E+000  0.2947849E+03  0.7546771E-02  0.1087877E+00
         21   -1    0    0  501  502  0.00000000000E+00  0.00000000000E+00  0.10189681795E+04  0.10189681795E+04  0.00000000000E+00 0. -1.
         21   -1    0    0  502  503 -0.00000000000E+00 -0.00000000000E+00 -0.86681762761E+02  0.86681762761E+02  0.00000000000E+00 0.  1.
          6    1    1    2  501    0 -0.22104181381E+03  0.90053713059E+02  0.53643063854E+03  0.61209148389E+03  0.17300000000E+03 0. -1.
         -6    1    1    2    0  503  0.22104181381E+03 -0.90053713059E+02  0.39585577815E+03  0.49355845832E+03  0.17300000000E+03 0.  1.
<mgrwt>
<rscale>  2 0.29478493E+03</rscale>
<asrwt>0</asrwt>
<pdfrwt beam="1">  1       21 0.15676433E+00 0.29478493E+03</pdfrwt>
<pdfrwt beam="2">  1       21 0.13335656E-01 0.29478493E+03</pdfrwt>
<totfact> 0.12125812E+04</totfact>
</mgrwt>
</event>
<event>
 4    1  0.4333905E+000  0.1731287E+03  0.7546771E-02  0.1174624E+00
         21   -1    0    0  501  502  0.00000000000E+00  0.00000000000E+00  0.11103012196E+04  0.11103012196E+04  0.00000000000E+00 0.  1.
         21   -1    0    0  502  503 -0.00000000000E+00 -0.00000000000E+00 -0.58846378490E+02  0.58846378490E+02  0.00000000000E+00 0.  1.
          6    1    1    2  501    0  0.16227386818E+01  0.64733059506E+01  0.95579601031E+03  0.97134934514E+03  0.17300000000E+03 0.  1.
         -6    1    1    2    0  503 -0.16227386818E+01 -0.64733059506E+01  0.95658830843E+02  0.19779825300E+03  0.17300000000E+03 0.  1.
<mgrwt>
<rscale>  2 0.17312867E+03</rscale>
<asrwt>0</asrwt>
<pdfrwt beam="1">  1       21 0.17081556E+00 0.17312867E+03</pdfrwt>
<pdfrwt beam="2">  1       21 0.90532899E-02 0.17312867E+03</pdfrwt>
<totfact> 0.20646894E+04</totfact>
</mgrwt>
</event>
<event>
 4    1  0.4333905E+000  0.1778399E+03  0.7546771E-02  0.1169910E+00
         21   -1    0    0  503  502  0.00000000000E+00  0.00000000000E+00  0.62860250784E+03  0.62860250784E+03  0.00000000000E+00 0. -1.
         21   -1    0    0  501  503 -0.00000000000E+00 -0.00000000000E+00 -0.84617993404E+02  0.84617993404E+02  0.00000000000E+00 0. -1.
          6    1    1    2  501    0  0.30480472651E+02  0.27730238576E+02  0.44932772714E+02  0.18342840404E+03  0.17300000000E+03 0. -1.
         -6    1    1    2    0  502 -0.30480472651E+02 -0.27730238576E+02  0.49905174172E+03  0.52979209720E+03  0.17300000000E+03 0. -1.
<mgrwt>
<rscale>  2 0.17783989E+03</rscale>
<asrwt>0</asrwt>
<pdfrwt beam="1">  1       21 0.96708075E-01 0.17783989E+03</pdfrwt>
<pdfrwt beam="2">  1       21 0.13018153E-01 0.17783989E+03</pdfrwt>
<totfact> 0.45388583E+04</totfact>
</mgrwt>
</event>
<event>
 4    1  0.4333905E+000  0.2530486E+03  0.7546771E-02  0.1111393E+00
         21   -1    0    0  503  502  0.00000000000E+00  0.00000000000E+00  0.15393260020E+03  0.15393260020E+03  0.00000000000E+00 0. -1.
         21   -1    0    0  501  503 -0.00000000000E+00 -0.00000000000E+00 -0.18417773406E+04  0.18417773406E+04  0.00000000000E+00 0. -1.
          6    1    1    2  501    0 -0.10913719467E+03 -0.14897543258E+03 -0.17218870531E+04  0.17403817485E+04  0.17300000000E+03 0. -1.
         -6    1    1    2    0  502  0.10913719467E+03  0.14897543258E+03  0.34042312649E+02  0.25532819238E+03  0.17300000000E+03 0. -1.
<mgrwt>
<rscale>  2 0.25304863E+03</rscale>
<asrwt>0</asrwt>
<pdfrwt beam="1">  1       21 0.23681939E-01 0.25304863E+03</pdfrwt>
<pdfrwt beam="2">  1       21 0.28335035E+00 0.25304863E+03</pdfrwt>
<totfact> 0.66518927E+02</totfact>
</mgrwt>
</event>
<event>
 4    1  0.4333905E+000  0.1740814E+03  0.7546771E-02  0.1173657E+00
         21   -1    0    0  501  502  0.00000000000E+00  0.00000000000E+00  0.90186989477E+03  0.90186989477E+03  0.00000000000E+00 0.  1.
         21   -1    0    0  502  503 -0.00000000000E+00 -0.00000000000E+00 -0.34619777700E+02  0.34619777700E+02  0.00000000000E+00 0.  1.
          6    1    1    2  501    0  0.19304388813E+02  0.16348311115E+01  0.51392372049E+03  0.54260660020E+03  0.17300000000E+03 0.  1.
         -6    1    1    2    0  503 -0.19304388813E+02 -0.16348311115E+01  0.35332639659E+03  0.39388307228E+03  0.17300000000E+03 0.  1.
<mgrwt>
<rscale>  2 0.17408140E+03</rscale>
<asrwt>0</asrwt>
<pdfrwt beam="1">  1       21 0.13874920E+00 0.17408140E+03</pdfrwt>
<pdfrwt beam="2">  1       21 0.53261203E-02 0.17408140E+03</pdfrwt>
<totfact> 0.89275323E+04</totfact>
</mgrwt>
</event>
<event>
 4    1  0.4333905E+000  0.1865083E+03  0.7546771E-02  0.1161649E+00
         21   -1    0    0  503  502  0.00000000000E+00  0.00000000000E+00  0.17516883554E+03  0.17516883554E+03  0.00000000000E+00 0.  1.
         21   -1    0    0  501  503 -0.00000000000E+00 -0.00000000000E+00 -0.31562734992E+03  0.31562734992E+03  0.00000000000E+00 0.  1.
          6    1    1    2  501    0  0.38250130032E+02  0.58251895991E+02 -0.21966730390E+03  0.28816502257E+03  0.17300000000E+03 0.  1.
         -6    1    1    2    0  502 -0.38250130032E+02 -0.58251895991E+02  0.79208789518E+02  0.20263116288E+03  0.17300000000E+03 0.  1.
<mgrwt>
<rscale>  2 0.18650833E+03</rscale>
<asrwt>0</asrwt>
<pdfrwt beam="1">  1       21 0.26949052E-01 0.18650833E+03</pdfrwt>
<pdfrwt beam="2">  1       21 0.48558053E-01 0.18650833E+03</pdfrwt>
<totfact> 0.53268767E+04</totfact>
</mgrwt>
</event>
<event>
 4    1  0.4333905E+000  0.4744930E+03  0.7546771E-02  0.1020660E+00
         21   -1    0    0  503  502  0.00000000000E+00  0.00000000000E+00  0.34649892299E+03  0.34649892299E+03  0.00000000000E+00 0. -1.
         21   -1    0    0  501  503 -0.00000000000E+00 -0.00000000000E+00 -0.74240878813E+03  0.74240878813E+03  0.00000000000E+00 0.  1.
          6    1    1    2  501    0 -0.21965381545E+03  0.38336246003E+03 -0.39028311667E+03  0.61438138445E+03  0.17300000000E+03 0.  1.
         -6    1    1    2    0  502  0.21965381545E+03 -0.38336246003E+03 -0.56267484639E+01  0.47452632667E+03  0.17300000000E+03 0. -1.
<mgrwt>
<rscale>  2 0.47449297E+03</rscale>
<asrwt>0</asrwt>
<pdfrwt beam="1">  1       21 0.53307527E-01 0.47449297E+03</pdfrwt>
<pdfrwt beam="2">  1       21 0.11421674E+00 0.47449297E+03</pdfrwt>
<totfact> 0.16892459E+03</totfact>
</mgrwt>
</event>
<event>
 4    1  0.4333905E+000  0.2407636E+03  0.7546771E-02  0.1119285E+00
         21   -1    0    0  501  502  0.00000000000E+00  0.00000000000E+00  0.78584222806E+02  0.78584222806E+02  0.00000000000E+00 0.  1.
         21   -1    0    0  502  503 -0.00000000000E+00 -0.00000000000E+00 -0.11955585479E+04  0.11955585479E+04  0.00000000000E+00 0.  1.
          6    1    1    2  501    0 -0.33604865550E+02 -0.16403915634E+03 -0.16421584105E+03  0.29143433952E+03  0.17300000000E+03 0.  1.
         -6    1    1    2    0  503  0.33604865550E+02  0.16403915634E+03 -0.95275848402E+03  0.98270843116E+03  0.17300000000E+03 0.  1.
<mgrwt>
<rscale>  2 0.24076364E+03</rscale>
<asrwt>0</asrwt>
<pdfrwt beam="1">  1       21 0.12089881E-01 0.24076364E+03</pdfrwt>
<pdfrwt beam="2">  1       21 0.18393208E+00 0.24076364E+03</pdfrwt>
<totfact> 0.95587453E+03</totfact>
</mgrwt>
</event>
<event>
 4    1  0.4333905E+000  0.1957634E+03  0.7546771E-02  0.1153363E+00
         21   -1    0    0  501  502  0.00000000000E+00  0.00000000000E+00  0.58802901966E+03  0.58802901966E+03  0.00000000000E+00 0.  1.
         21   -1    0    0  502  503 -0.00000000000E+00 -0.00000000000E+00 -0.13416485722E+03  0.13416485722E+03  0.00000000000E+00 0. -1.
          6    1    1    2  501    0 -0.85471276789E+02  0.32999560215E+02  0.48587555587E+03  0.52383047441E+03  0.17300000000E+03 0.  1.
         -6    1    1    2    0  503  0.85471276789E+02 -0.32999560215E+02 -0.32011393428E+02  0.19836340247E+03  0.17300000000E+03 0. -1.
<mgrwt>
<rscale>  2 0.19576340E+03</rscale>
<asrwt>0</asrwt>
<pdfrwt beam="1">  1       21 0.90466001E-01 0.19576340E+03</pdfrwt>
<pdfrwt beam="2">  1       21 0.20640748E-01 0.19576340E+03</pdfrwt>
<totfact> 0.22548105E+04</totfact>
</mgrwt>
</event>
<event>
 4    1  0.4333905E+000  0.2310939E+03  0.7546771E-02  0.1125872E+00
         21   -1    0    0  503  502  0.00000000000E+00  0.00000000000E+00  0.23103859985E+03  0.23103859985E+03  0.00000000000E+00 0.  1.
         21   -1    0    0  501  503 -0.00000000000E+00 -0.00000000000E+00 -0.24636577149E+03  0.24636577149E+03  0.00000000000E+00 0. -1.
          6    1    1    2  501    0 -0.14540668455E+03 -0.48293862233E+02  0.51659506484E+02  0.23679760483E+03  0.17300000000E+03 0. -1.
         -6    1    1    2    0  502  0.14540668455E+03  0.48293862233E+02 -0.66986678126E+02  0.24060676651E+03  0.17300000000E+03 0.  1.
<mgrwt>
<rscale>  2 0.23109392E+03</rscale>
<asrwt>0</asrwt>
<pdfrwt beam="1">  1       21 0.35544400E-01 0.23109392E+03</pdfrwt>
<pdfrwt beam="2">  1       21 0.37902426E-01 0.23109392E+03</pdfrwt>
<totfact> 0.50332282E+04</totfact>
</mgrwt>
</event>
<event>
 4    1  0.4333905E+000  0.1991773E+03  0.7546771E-02  0.1150435E+00
         21   -1    0    0  503  502  0.00000000000E+00  0.00000000000E+00  0.13030466192E+03  0.13030466192E+03  0.00000000000E+00 0. -1.
         21   -1    0    0  501  503 -0.00000000000E+00 -0.00000000000E+00 -0.41275025799E+03  0.41275025799E+03  0.00000000000E+00 0. -1.
          6    1    1    2  501    0 -0.75739029213E+02 -0.63294618918E+02 -0.28030749964E+03  0.34386611302E+03  0.17300000000E+03 0. -1.
         -6    1    1    2    0  502  0.75739029213E+02  0.63294618918E+02 -0.21380964219E+01  0.19918880688E+03  0.17300000000E+03 0. -1.
<mgrwt>
<rscale>  2 0.19917733E+03</rscale>
<asrwt>0</asrwt>
<pdfrwt beam="1">  1       21 0.20046871E-01 0.19917733E+03</pdfrwt>
<pdfrwt beam="2">  1       21 0.63500041E-01 0.19917733E+03</pdfrwt>
<totfact> 0.52528551E+04</totfact>
</mgrwt>
</event>
<event>
 4    1  0.4333905E+000  0.1975614E+03  0.7546771E-02  0.1151813E+00
         21   -1    0    0  501  502  0.00000000000E+00  0.00000000000E+00  0.26161594285E+03  0.26161594285E+03  0.00000000000E+00 0.  1.
         21   -1    0    0  502  503 -0.00000000000E+00 -0.00000000000E+00 -0.17312196614E+03  0.17312196614E+03  0.00000000000E+00 0.  1.
          6    1    1    2  501    0 -0.90790460364E+02 -0.29302166939E+02 -0.36571208401E+02  0.20091783884E+03  0.17300000000E+03 0.  1.
         -6    1    1    2    0  503  0.90790460364E+02  0.29302166939E+02  0.12506518511E+03  0.23382007015E+03  0.17300000000E+03 0.  1.
<mgrwt>
<rscale>  2 0.19756145E+03</rscale>
<asrwt>0</asrwt>
<pdfrwt beam="1">  1       21 0.40248607E-01 0.19756145E+03</pdfrwt>
<pdfrwt beam="2">  1       21 0.26634149E-01 0.19756145E+03</pdfrwt>
<totfact> 0.79643005E+04</totfact>
</mgrwt>
</event>
<event>
 4    1  0.4333905E+000  0.1862752E+03  0.7546771E-02  0.1161864E+00
         21   -1    0    0  501  502  0.00000000000E+00  0.00000000000E+00  0.25871917245E+03  0.25871917245E+03  0.00000000000E+00 0.  1.
         21   -1    0    0  502  503 -0.00000000000E+00 -0.00000000000E+00 -0.13439986126E+03  0.13439986126E+03  0.00000000000E+00 0.  1.
          6    1    1    2  501    0 -0.25370115935E+02  0.64232551188E+02  0.71187883760E+02  0.19941458876E+03  0.17300000000E+03 0. -1.
         -6    1    1    2    0  503  0.25370115935E+02 -0.64232551188E+02  0.53131427422E+02  0.19370444495E+03  0.17300000000E+03 0. -1.
<mgrwt>
<rscale>  2 0.18627524E+03</rscale>
<asrwt>0</asrwt>
<pdfrwt beam="1">  1       21 0.39802950E-01 0.18627524E+03</pdfrwt>
<pdfrwt beam="2">  1       21 0.20676902E-01 0.18627524E+03</pdfrwt>
<totfact> 0.13224211E+05</totfact>
</mgrwt>
</event>
<event>
 4    1  0.4333905E+000  0.1745020E+03  0.7546771E-02  0.1173233E+00
         21   -1    0    0  501  502  0.00000000000E+00  0.00000000000E+00  0.16838318908E+03  0.16838318908E+03  0.00000000000E+00 0. -1.
         21   -1    0    0  502  503 -0.00000000000E+00 -0.00000000000E+00 -0.18685841733E+03  0.18685841733E+03  0.00000000000E+00 0. -1.
          6    1    1    2  501    0  0.21534099231E+02 -0.76313365360E+01  0.22630998774E+02  0.17596339629E+03  0.17300000000E+03 0.  1.
         -6    1    1    2    0  503 -0.21534099231E+02  0.76313365360E+01 -0.41106227027E+02  0.17927821013E+03  0.17300000000E+03 0.  1.
<mgrwt>
<rscale>  2 0.17450202E+03</rscale>
<asrwt>0</asrwt>
<pdfrwt beam="1">  1       21 0.25905106E-01 0.17450202E+03</pdfrwt>
<pdfrwt beam="2">  1       21 0.28747449E-01 0.17450202E+03</pdfrwt>
<totfact> 0.16475693E+05</totfact>
</mgrwt>
</event>
<event>
 4    1  0.4333905E+000  0.1884837E+03  0.7546771E-02  0.1159836E+00
         21   -1    0    0  501  502  0.00000000000E+00  0.00000000000E+00  0.26408880805E+03  0.26408880805E+03  0.00000000000E+00 0. -1.
         21   -1    0    0  502  503 -0.00000000000E+00 -0.00000000000E+00 -0.13536656105E+03  0.13536656105E+03  0.00000000000E+00 0.  1.
          6    1    1    2  501    0  0.51676059089E+02 -0.54098870181E+02  0.48597399426E+02  0.19464791309E+03  0.17300000000E+03 0.  1.
         -6    1    1    2    0  503 -0.51676059089E+02  0.54098870181E+02  0.80124847580E+02  0.20480745601E+03  0.17300000000E+03 0.  1.
<mgrwt>
<rscale>  2 0.18848369E+03</rscale>
<asrwt>0</asrwt>
<pdfrwt beam="1">  1       21 0.40629047E-01 0.18848369E+03</pdfrwt>
<pdfrwt beam="2">  1       21 0.20825625E-01 0.18848369E+03</pdfrwt>
<totfact> 0.12508087E+05</totfact>
</mgrwt>
</event>
<event>
 4    1  0.4333905E+000  0.1745737E+03  0.7546771E-02  0.1173160E+00
         21   -1    0    0  501  502  0.00000000000E+00  0.00000000000E+00  0.20742972839E+02  0.20742972839E+02  0.00000000000E+00 0.  1.
         21   -1    0    0  502  503 -0.00000000000E+00 -0.00000000000E+00 -0.17222950385E+04  0.17222950385E+04  0.00000000000E+00 0.  1.
          6    1    1    2  501    0  0.18780047994E+02  0.13938993173E+02 -0.51669798257E+03  0.54539232752E+03  0.17300000000E+03 0.  1.
         -6    1    1    2    0  503 -0.18780047994E+02 -0.13938993173E+02 -0.11848540831E+04  0.11976456838E+04  0.17300000000E+03 0.  1.
<mgrwt>
<rscale>  2 0.17457373E+03</rscale>
<asrwt>0</asrwt>
<pdfrwt beam="1">  1       21 0.31912270E-02 0.17457373E+03</pdfrwt>
<pdfrwt beam="2">  1       21 0.26496843E+00 0.17457373E+03</pdfrwt>
<totfact> 0.31556241E+04</totfact>
</mgrwt>
</event>
<event>
 4    1  0.4333905E+000  0.1850239E+03  0.7546771E-02  0.1163028E+00
         21   -1    0    0  503  502  0.00000000000E+00  0.00000000000E+00  0.33086492846E+03  0.33086492846E+03  0.00000000000E+00 0. -1.
         21   -1    0    0  501  503 -0.00000000000E+00 -0.00000000000E+00 -0.10490030111E+03  0.10490030111E+03  0.00000000000E+00 0.  1.
          6    1    1    2  501    0  0.37476086669E+02 -0.53855330668E+02  0.87520611407E+02  0.20467953277E+03  0.17300000000E+03 0.  1.
         -6    1    1    2    0  502 -0.37476086669E+02  0.53855330668E+02  0.13844401594E+03  0.23108569679E+03  0.17300000000E+03 0. -1.
<mgrwt>
<rscale>  2 0.18502393E+03</rscale>
<asrwt>0</asrwt>
<pdfrwt beam="1">  1       21 0.50902296E-01 0.18502393E+03</pdfrwt>
<pdfrwt beam="2">  1       21 0.16138508E-01 0.18502393E+03</pdfrwt>
<totfact> 0.12632232E+05</totfact>
</mgrwt>
</event>
<event>
 4    1  0.4333905E+000  0.1765912E+03  0.7546771E-02  0.1171143E+00
         21   -1    0    0  503  502  0.00000000000E+00  0.00000000000E+00  0.71667291550E+03  0.71667291550E+03  0.00000000000E+00 0.  1.
         21   -1    0    0  501  503 -0.00000000000E+00 -0.00000000000E+00 -0.43704918325E+02  0.43704918325E+02  0.00000000000E+00 0.  1.
          6    1    1    2  501    0 -0.27317981384E+02  0.22564848083E+02  0.31127707220E+03  0.35787967273E+03  0.17300000000E+03 0.  1.
         -6    1    1    2    0  502  0.27317981384E+02 -0.22564848083E+02  0.36169092498E+03  0.40249816110E+03  0.17300000000E+03 0.  1.
<mgrwt>
<rscale>  2 0.17659118E+03</rscale>
<asrwt>0</asrwt>
<pdfrwt beam="1">  1       21 0.11025736E+00 0.17659118E+03</pdfrwt>
<pdfrwt beam="2">  1       21 0.67238341E-02 0.17659118E+03</pdfrwt>
<totfact> 0.10600742E+05</totfact>
</mgrwt>
</event>
<event>
 4    1  0.4333905E+000  0.1817659E+03  0.7546771E-02  0.1166105E+00
         21   -1    0    0  501  502  0.00000000000E+00  0.00000000000E+00  0.30203491074E+03  0.30203491074E+03  0.00000000000E+00 0.  1.
         21   -1    0    0  502  503 -0.00000000000E+00 -0.00000000000E+00 -0.10989003089E+03  0.10989003089E+03  0.00000000000E+00 0.  1.
          6    1    1    2  501    0  0.17334285514E+01  0.55738866944E+02  0.11000130394E+03  0.21245967366E+03  0.17300000000E+03 0.  1.
         -6    1    1    2    0  503 -0.17334285514E+01 -0.55738866944E+02  0.82143575919E+02  0.19946526797E+03  0.17300000000E+03 0.  1.
<mgrwt>
<rscale>  2 0.18176586E+03</rscale>
<asrwt>0</asrwt>
<pdfrwt beam="1">  1       21 0.46466909E-01 0.18176586E+03</pdfrwt>
<pdfrwt beam="2">  1       21 0.16906159E-01 0.18176586E+03</pdfrwt>
<totfact> 0.14030910E+05</totfact>
</mgrwt>
</event>
<event>
 4    1  0.4333905E+000  0.2068298E+03  0.7546771E-02  0.1144101E+00
         21   -1    0    0  501  502  0.00000000000E+00  0.00000000000E+00  0.15205692970E+03  0.15205692970E+03  0.00000000000E+00 0.  1.
         21   -1    0    0  502  503 -0.00000000000E+00 -0.00000000000E+00 -0.30653518274E+03  0.30653518274E+03  0.00000000000E+00 0.  1.
          6    1    1    2  501    0 -0.16703062249E+02 -0.11211855022E+03 -0.14298666537E+03  0.25144332973E+03  0.17300000000E+03 0.  1.
         -6    1    1    2    0  503  0.16703062249E+02  0.11211855022E+03 -0.11491587671E+02  0.20714878271E+03  0.17300000000E+03 0.  1.
<mgrwt>
<rscale>  2 0.20682979E+03</rscale>
<asrwt>0</asrwt>
<pdfrwt beam="1">  1       21 0.23393374E-01 0.20682979E+03</pdfrwt>
<pdfrwt beam="2">  1       21 0.47159258E-01 0.20682979E+03</pdfrwt>
<totfact> 0.73487315E+04</totfact>
</mgrwt>
</event>
<event>
 4    1  0.4333905E+000  0.1740924E+03  0.7546771E-02  0.1173646E+00
         21   -1    0    0  501  502  0.00000000000E+00  0.00000000000E+00  0.13223308687E+04  0.13223308687E+04  0.00000000000E+00 0.  1.
         21   -1    0    0  502  503 -0.00000000000E+00 -0.00000000000E+00 -0.59831841610E+02  0.59831841610E+02  0.00000000000E+00 0.  1.
          6    1    1    2  501    0  0.11218304377E+02  0.15915972144E+02  0.11740551052E+04  0.11868923955E+04  0.17300000000E+03 0.  1.
         -6    1    1    2    0  503 -0.11218304377E+02 -0.15915972144E+02  0.88443921926E+02  0.19527031482E+03  0.17300000000E+03 0.  1.
<mgrwt>
<rscale>  2 0.17409241E+03</rscale>
<asrwt>0</asrwt>
<pdfrwt beam="1">  1       21 0.20343550E+00 0.17409241E+03</pdfrwt>
<pdfrwt beam="2">  1       21 0.92048997E-02 0.17409241E+03</pdfrwt>
<totfact> 0.12177410E+04</totfact>
</mgrwt>
</event>
<event>
 4    1  0.4333905E+000  0.1788854E+03  0.7546771E-02  0.1168886E+00
         21   -1    0    0  503  502  0.00000000000E+00  0.00000000000E+00  0.16459824398E+03  0.16459824398E+03  0.00000000000E+00 0.  1.
         21   -1    0    0  501  503 -0.00000000000E+00 -0.00000000000E+00 -0.45927754982E+03  0.45927754982E+03  0.00000000000E+00 0.  1.
          6    1    1    2  501    0 -0.55730536657E+01  0.45165388847E+02 -0.38422750124E+03  0.42382867291E+03  0.17300000000E+03 0.  1.
         -6    1    1    2    0  502  0.55730536657E+01 -0.45165388847E+02  0.89548195396E+02  0.20004712089E+03  0.17300000000E+03 0.  1.
<mgrwt>
<rscale>  2 0.17888536E+03</rscale>
<asrwt>0</asrwt>
<pdfrwt beam="1">  1       21 0.25322807E-01 0.17888536E+03</pdfrwt>
<pdfrwt beam="2">  1       21 0.70658083E-01 0.17888536E+03</pdfrwt>
<totfact> 0.27034741E+04</totfact>
</mgrwt>
</event>
<event>
 4    1  0.4333905E+000  0.1733225E+03  0.7546771E-02  0.1174427E+00
         21   -1    0    0  501  502  0.00000000000E+00  0.00000000000E+00  0.41426945376E+03  0.41426945376E+03  0.00000000000E+00 0.  1.
         21   -1    0    0  502  503 -0.00000000000E+00 -0.00000000000E+00 -0.78491798689E+02  0.78491798689E+02  0.00000000000E+00 0.  1.
          6    1    1    2  501    0 -0.66342974962E+01  0.82274748120E+01  0.23587688049E+03  0.29270908424E+03  0.17300000000E+03 0. -1.
         -6    1    1    2    0  503  0.66342974962E+01 -0.82274748120E+01  0.99900774583E+02  0.20005216821E+03  0.17300000000E+03 0. -1.
<mgrwt>
<rscale>  2 0.17332255E+03</rscale>
<asrwt>0</asrwt>
<pdfrwt beam="1">  1       21 0.63733761E-01 0.17332255E+03</pdfrwt>
<pdfrwt beam="2">  1       21 0.12075662E-01 0.17332255E+03</pdfrwt>
<totfact> 0.13289138E+05</totfact>
</mgrwt>
</event>
<event>
 4    1  0.4333905E+000  0.2457118E+03  0.7546771E-02  0.1116045E+00
         21   -1    0    0  501  502  0.00000000000E+00  0.00000000000E+00  0.12412109021E+03  0.12412109021E+03  0.00000000000E+00 0. -1.
         21   -1    0    0  502  503 -0.00000000000E+00 -0.00000000000E+00 -0.50135936580E+03  0.50135936580E+03  0.00000000000E+00 0. -1.
          6    1    1    2  501    0 -0.22637482302E+02  0.17301108572E+03 -0.13462383631E+03  0.28017471101E+03  0.17300000000E+03 0. -1.
         -6    1    1    2    0  503  0.22637482302E+02 -0.17301108572E+03 -0.24261443928E+03  0.34530574501E+03  0.17300000000E+03 0. -1.
<mgrwt>
<rscale>  2 0.24571181E+03</rscale>
<asrwt>0</asrwt>
<pdfrwt beam="1">  1       21 0.19095552E-01 0.24571181E+03</pdfrwt>
<pdfrwt beam="2">  1       21 0.77132211E-01 0.24571181E+03</pdfrwt>
<totfact> 0.36606240E+04</totfact>
</mgrwt>
</event>
<event>
 4    1  0.4333905E+000  0.3975523E+03  0.7546771E-02  0.1044631E+00
         21   -1    0    0  501  502  0.00000000000E+00  0.00000000000E+00  0.66743122680E+02  0.66743122680E+02  0.00000000000E+00 0. -1.
         21   -1    0    0  502  503 -0.00000000000E+00 -0.00000000000E+00 -0.23881815382E+04  0.23881815382E+04  0.00000000000E+00 0.  1.
          6    1    1    2  501    0 -0.10506863830E+03 -0.34216866865E+03 -0.10478864551E+04  0.11207648457E+04  0.17300000000E+03 0. -1.
         -6    1    1    2    0  503  0.10506863830E+03  0.34216866865E+03 -0.12735519605E+04  0.13341598152E+04  0.17300000000E+03 0.  1.
<mgrwt>
<rscale>  2 0.39755228E+03</rscale>
<asrwt>0</asrwt>
<pdfrwt beam="1">  1       21 0.10268173E-01 0.39755228E+03</pdfrwt>
<pdfrwt beam="2">  1       21 0.36741255E+00 0.39755228E+03</pdfrwt>
<totfact> 0.86979290E+02</totfact>
</mgrwt>
</event>
<event>
 4    1  0.4333905E+000  0.2196976E+03  0.7546771E-02  0.1134109E+00
         21   -1    0    0  501  502  0.00000000000E+00  0.00000000000E+00  0.24210899127E+03  0.24210899127E+03  0.00000000000E+00 0. -1.
         21   -1    0    0  502  503 -0.00000000000E+00 -0.00000000000E+00 -0.23232217084E+03  0.23232217084E+03  0.00000000000E+00 0.  1.
          6    1    1    2  501    0  0.12570298874E+03  0.50366610083E+02  0.94244666370E+02  0.23905876668E+03  0.17300000000E+03 0. -1.
         -6    1    1    2    0  503 -0.12570298874E+03 -0.50366610083E+02 -0.84457845945E+02  0.23537239543E+03  0.17300000000E+03 0.  1.
<mgrwt>
<rscale>  2 0.21969760E+03</rscale>
<asrwt>0</asrwt>
<pdfrwt beam="1">  1       21 0.37247537E-01 0.21969760E+03</pdfrwt>
<pdfrwt beam="2">  1       21 0.35741873E-01 0.21969760E+03</pdfrwt>
<totfact> 0.51809625E+04</totfact>
</mgrwt>
</event>
<event>
 4    1  0.4333905E+000  0.2662056E+03  0.7546771E-02  0.1103471E+00
         21   -1    0    0  501  502  0.00000000000E+00  0.00000000000E+00  0.39390797427E+02  0.39390797427E+02  0.00000000000E+00 0. -1.
         21   -1    0    0  502  503 -0.00000000000E+00 -0.00000000000E+00 -0.18031474141E+04  0.18031474141E+04  0.00000000000E+00 0. -1.
          6    1    1    2  501    0  0.50710393434E+02 -0.19586951308E+03 -0.92587670580E+03  0.96338625924E+03  0.17300000000E+03 0. -1.
         -6    1    1    2    0  503 -0.50710393434E+02  0.19586951308E+03 -0.83787991084E+03  0.87915195225E+03  0.17300000000E+03 0. -1.
<mgrwt>
<rscale>  2 0.26620558E+03</rscale>
<asrwt>0</asrwt>
<pdfrwt beam="1">  1       21 0.60601223E-02 0.26620558E+03</pdfrwt>
<pdfrwt beam="2">  1       21 0.27740731E+00 0.26620558E+03</pdfrwt>
<totfact> 0.83608505E+03</totfact>
</mgrwt>
</event>
<event>
 4    1  0.4333905E+000  0.1790862E+03  0.7546771E-02  0.1168690E+00
         21   -1    0    0  501  502  0.00000000000E+00  0.00000000000E+00  0.17580188922E+03  0.17580188922E+03  0.00000000000E+00 0.  1.
         21   -1    0    0  502  503 -0.00000000000E+00 -0.00000000000E+00 -0.24055682624E+03  0.24055682624E+03  0.00000000000E+00 0.  1.
          6    1    1    2  501    0 -0.15166842975E+02 -0.43735853851E+02  0.69954267099E+02  0.19226403076E+03  0.17300000000E+03 0.  1.
         -6    1    1    2    0  503  0.15166842975E+02  0.43735853851E+02 -0.13470920411E+03  0.22409468470E+03  0.17300000000E+03 0.  1.
<mgrwt>
<rscale>  2 0.17908617E+03</rscale>
<asrwt>0</asrwt>
<pdfrwt beam="1">  1       21 0.27046445E-01 0.17908617E+03</pdfrwt>
<pdfrwt beam="2">  1       21 0.37008742E-01 0.17908617E+03</pdfrwt>
<totfact> 0.92206956E+04</totfact>
</mgrwt>
</event>
<event>
 4    1  0.4333905E+000  0.1832688E+03  0.7546771E-02  0.1164676E+00
         21   -1    0    0  501  502  0.00000000000E+00  0.00000000000E+00  0.41832835750E+03  0.41832835750E+03  0.00000000000E+00 0. -1.
         21   -1    0    0  502  503 -0.00000000000E+00 -0.00000000000E+00 -0.10361236198E+03  0.10361236198E+03  0.00000000000E+00 0. -1.
          6    1    1    2  501    0 -0.50006364265E+02 -0.34026741635E+02  0.28117335541E+03  0.33562763803E+03  0.17300000000E+03 0. -1.
         -6    1    1    2    0  503  0.50006364265E+02  0.34026741635E+02  0.33542640106E+02  0.18631308145E+03  0.17300000000E+03 0. -1.
<mgrwt>
<rscale>  2 0.18326881E+03</rscale>
<asrwt>0</asrwt>
<pdfrwt beam="1">  1       21 0.64358208E-01 0.18326881E+03</pdfrwt>
<pdfrwt beam="2">  1       21 0.15940364E-01 0.18326881E+03</pdfrwt>
<totfact> 0.78489896E+04</totfact>
</mgrwt>
</event>
<event>
 4    1  0.4333905E+000  0.2523490E+03  0.7546771E-02  0.1111829E+00
         21   -1    0    0  503  502  0.00000000000E+00  0.00000000000E+00  0.32969469928E+03  0.32969469928E+03  0.00000000000E+00 0.  1.
         21   -1    0    0  501  503 -0.00000000000E+00 -0.00000000000E+00 -0.23612957817E+03  0.23612957817E+03  0.00000000000E+00 0. -1.
          6    1    1    2  501    0  0.93619939003E+02 -0.15807057660E+03 -0.73919753882E+02  0.26295271472E+03  0.17300000000E+03 0. -1.
         -6    1    1    2    0  502 -0.93619939003E+02  0.15807057660E+03  0.16748487499E+03  0.30287156274E+03  0.17300000000E+03 0.  1.
<mgrwt>
<rscale>  2 0.25234897E+03</rscale>
<asrwt>0</asrwt>
<pdfrwt beam="1">  1       21 0.50722261E-01 0.25234897E+03</pdfrwt>
<pdfrwt beam="2">  1       21 0.36327627E-01 0.25234897E+03</pdfrwt>
<totfact> 0.26209330E+04</totfact>
</mgrwt>
</event>
<event>
 4    1  0.4333905E+000  0.1733401E+03  0.7546771E-02  0.1174409E+00
         21   -1    0    0  503  502  0.00000000000E+00  0.00000000000E+00  0.14471216933E+03  0.14471216933E+03  0.00000000000E+00 0.  1.
         21   -1    0    0  501  503 -0.00000000000E+00 -0.00000000000E+00 -0.74314148641E+03  0.74314148641E+03  0.00000000000E+00 0.  1.
          6    1    1    2  501    0 -0.44374101178E+01  0.99042613412E+01 -0.67605681530E+03  0.69792521269E+03  0.17300000000E+03 0.  1.
         -6    1    1    2    0  502  0.44374101178E+01 -0.99042613412E+01  0.77627498219E+02  0.18992844305E+03  0.17300000000E+03 0.  1.
<mgrwt>
<rscale>  2 0.17334008E+03</rscale>
<asrwt>0</asrwt>
<pdfrwt beam="1">  1       21 0.22263410E-01 0.17334008E+03</pdfrwt>
<pdfrwt beam="2">  1       21 0.11432946E+00 0.17334008E+03</pdfrwt>
<totfact> 0.11380978E+04</totfact>
</mgrwt>
</event>
<event>
 4    1  0.4333905E+000  0.1828338E+03  0.7546771E-02  0.1165088E+00
         21   -1    0    0  501  502  0.00000000000E+00  0.00000000000E+00  0.49980726764E+02  0.49980726764E+02  0.00000000000E+00 0.  1.
         21   -1    0    0  502  503 -0.00000000000E+00 -0.00000000000E+00 -0.66897096629E+03  0.66897096629E+03  0.00000000000E+00 0.  1.
          6    1    1    2  501    0 -0.37470901961E+02  0.45772761719E+02 -0.30413250427E+03  0.35485883723E+03  0.17300000000E+03 0.  1.
         -6    1    1    2    0  503  0.37470901961E+02 -0.45772761719E+02 -0.31485773525E+03  0.36409285582E+03  0.17300000000E+03 0.  1.
<mgrwt>
<rscale>  2 0.18283384E+03</rscale>
<asrwt>0</asrwt>
<pdfrwt beam="1">  1       21 0.76893430E-02 0.18283384E+03</pdfrwt>
<pdfrwt beam="2">  1       21 0.10291860E+00 0.18283384E+03</pdfrwt>
<totfact> 0.98943689E+04</totfact>
</mgrwt>
</event>
<event>
 4    1  0.4333905E+000  0.2347767E+03  0.7546771E-02  0.1123322E+00
         21   -1    0    0  503  502  0.00000000000E+00  0.00000000000E+00  0.26195772402E+03  0.26195772402E+03  0.00000000000E+00 0. -1.
         21   -1    0    0  501  503 -0.00000000000E+00 -0.00000000000E+00 -0.41934068144E+03  0.41934068144E+03  0.00000000000E+00 0.  1.
          6    1    1    2  501    0 -0.15829933440E+03  0.11507077632E+02 -0.31913815055E+03  0.39619345179E+03  0.17300000000E+03 0.  1.
         -6    1    1    2    0  502  0.15829933440E+03 -0.11507077632E+02  0.16175519312E+03  0.28510495367E+03  0.17300000000E+03 0. -1.
<mgrwt>
<rscale>  2 0.23477669E+03</rscale>
<asrwt>0</asrwt>
<pdfrwt beam="1">  1       21 0.40301188E-01 0.23477669E+03</pdfrwt>
<pdfrwt beam="2">  1       21 0.64513951E-01 0.23477669E+03</pdfrwt>
<totfact> 0.12805989E+04</totfact>
</mgrwt>
</event>
<event>
 4    1  0.4333905E+000  0.2167223E+03  0.7546771E-02  0.1136351E+00
         21   -1    0    0  501  502  0.00000000000E+00  0.00000000000E+00  0.42713850302E+03  0.42713850302E+03  0.00000000000E+00 0.  1.
         21   -1    0    0  502  503 -0.00000000000E+00 -0.00000000000E+00 -0.11134568698E+03  0.11134568698E+03  0.00000000000E+00 0.  1.
          6    1    1    2  501    0  0.87449383974E+02 -0.96913168578E+02  0.18792184819E+03  0.28685044540E+03  0.17300000000E+03 0.  1.
         -6    1    1    2    0  503 -0.87449383974E+02  0.96913168578E+02  0.12787096785E+03  0.25163374460E+03  0.17300000000E+03 0.  1.
<mgrwt>
<rscale>  2 0.21672230E+03</rscale>
<asrwt>0</asrwt>
<pdfrwt beam="1">  1       21 0.65713615E-01 0.21672230E+03</pdfrwt>
<pdfrwt beam="2">  1       21 0.17130106E-01 0.21672230E+03</pdfrwt>
<totfact> 0.64761341E+04</totfact>
</mgrwt>
</event>
<event>
 4    1  0.4333905E+000  0.1814789E+03  0.7546771E-02  0.1166379E+00
         21   -1    0    0  503  502  0.00000000000E+00  0.00000000000E+00  0.14406902820E+03  0.14406902820E+03  0.00000000000E+00 0. -1.
         21   -1    0    0  501  503 -0.00000000000E+00 -0.00000000000E+00 -0.28180065708E+03  0.28180065708E+03  0.00000000000E+00 0. -1.
          6    1    1    2  501    0 -0.24603051270E+02  0.48992607966E+02 -0.16138306714E+03  0.24285608934E+03  0.17300000000E+03 0. -1.
         -6    1    1    2    0  502  0.24603051270E+02 -0.48992607966E+02  0.23651438259E+02  0.18301359594E+03  0.17300000000E+03 0. -1.
<mgrwt>
<rscale>  2 0.18147889E+03</rscale>
<asrwt>0</asrwt>
<pdfrwt beam="1">  1       21 0.22164466E-01 0.18147889E+03</pdfrwt>
<pdfrwt beam="2">  1       21 0.43353947E-01 0.18147889E+03</pdfrwt>
<totfact> 0.97762448E+04</totfact>
</mgrwt>
</event>
<event>
 4    1  0.4333905E+000  0.2234597E+03  0.7546771E-02  0.1131330E+00
         21   -1    0    0  503  502  0.00000000000E+00  0.00000000000E+00  0.97616610264E+02  0.97616610264E+02  0.00000000000E+00 0.  1.
         21   -1    0    0  501  503 -0.00000000000E+00 -0.00000000000E+00 -0.14530403809E+04  0.14530403809E+04  0.00000000000E+00 0.  1.
          6    1    1    2  501    0 -0.51002537125E+02  0.13192419683E+03 -0.13018180171E+04  0.13208574496E+04  0.17300000000E+03 0.  1.
         -6    1    1    2    0  502  0.51002537125E+02 -0.13192419683E+03 -0.53605753558E+02  0.22979954159E+03  0.17300000000E+03 0.  1.
<mgrwt>
<rscale>  2 0.22345973E+03</rscale>
<asrwt>0</asrwt>
<pdfrwt beam="1">  1       21 0.15017940E-01 0.22345973E+03</pdfrwt>
<pdfrwt beam="2">  1       21 0.22354467E+00 0.22345973E+03</pdfrwt>
<totfact> 0.36366333E+03</totfact>
</mgrwt>
</event>
<event>
 4    1  0.4333905E+000  0.4008695E+03  0.7546771E-02  0.1043479E+00
         21   -1    0    0  501  502  0.00000000000E+00  0.00000000000E+00  0.31746799334E+03  0.31746799334E+03  0.00000000000E+00 0. -1.
         21   -1    0    0  502  503 -0.00000000000E+00 -0.00000000000E+00 -0.59337042105E+03  0.59337042105E+03  0.00000000000E+00 0.  1.
          6    1    1    2  501    0  0.60676131939E+02 -0.35649084804E+03  0.36622917622E+02  0.40253888734E+03  0.17300000000E+03 0. -1.
         -6    1    1    2    0  503 -0.60676131939E+02  0.35649084804E+03 -0.31252534533E+03  0.50829952705E+03  0.17300000000E+03 0.  1.
<mgrwt>
<rscale>  2 0.40086945E+03</rscale>
<asrwt>0</asrwt>
<pdfrwt beam="1">  1       21 0.48841230E-01 0.40086945E+03</pdfrwt>
<pdfrwt beam="2">  1       21 0.91287757E-01 0.40086945E+03</pdfrwt>
<totfact> 0.36157777E+03</totfact>
</mgrwt>
</event>
<event>
 4    1  0.4333905E+000  0.2228234E+03  0.7546771E-02  0.1131795E+00
         21   -1    0    0  501  502  0.00000000000E+00  0.00000000000E+00  0.25405875575E+03  0.25405875575E+03  0.00000000000E+00 0.  1.
         21   -1    0    0  502  503 -0.00000000000E+00 -0.00000000000E+00 -0.19974706897E+03  0.19974706897E+03  0.00000000000E+00 0. -1.
          6    1    1    2  501    0 -0.13009337043E+03 -0.52886454584E+02 -0.62084211588E+01  0.22290986206E+03  0.17300000000E+03 0. -1.
         -6    1    1    2    0  503  0.13009337043E+03  0.52886454584E+02  0.60520107934E+02  0.23089596266E+03  0.17300000000E+03 0.  1.
<mgrwt>
<rscale>  2 0.22282339E+03</rscale>
<asrwt>0</asrwt>
<pdfrwt beam="1">  1       21 0.39085963E-01 0.22282339E+03</pdfrwt>
<pdfrwt beam="2">  1       21 0.30730318E-01 0.22282339E+03</pdfrwt>
<totfact> 0.63316157E+04</totfact>
</mgrwt>
</event>
<event>
 4    1  0.4333905E+000  0.3418455E+03  0.7546771E-02  0.1066013E+00
         21   -1    0    0  503  502  0.00000000000E+00  0.00000000000E+00  0.17681413234E+04  0.17681413234E+04  0.00000000000E+00 0. -1.
         21   -1    0    0  501  503 -0.00000000000E+00 -0.00000000000E+00 -0.12640138995E+03  0.12640138995E+03  0.00000000000E+00 0.  1.
          6    1    1    2  501    0 -0.18489470901E+03 -0.22965914313E+03  0.16654385903E+03  0.38025679800E+03  0.17300000000E+03 0.  1.
         -6    1    1    2    0  502  0.18489470901E+03  0.22965914313E+03  0.14751960745E+04  0.15142859154E+04  0.17300000000E+03 0. -1.
<mgrwt>
<rscale>  2 0.34184554E+03</rscale>
<asrwt>0</asrwt>
<pdfrwt beam="1">  1       21 0.27202172E+00 0.34184554E+03</pdfrwt>
<pdfrwt beam="2">  1       21 0.19446369E-01 0.34184554E+03</pdfrwt>
<totfact> 0.10462417E+03</totfact>
</mgrwt>
</event>
<event>
 4    1  0.4333905E+000  0.2709836E+03  0.7546771E-02  0.1100718E+00
         21   -1    0    0  503  502  0.00000000000E+00  0.00000000000E+00  0.51945572347E+03  0.51945572347E+03  0.00000000000E+00 0. -1.
         21   -1    0    0  501  503 -0.00000000000E+00 -0.00000000000E+00 -0.14439113093E+03  0.14439113093E+03  0.00000000000E+00 0.  1.
          6    1    1    2  501    0 -0.10553802096E+03 -0.17990230159E+03  0.13946888607E+03  0.30476824337E+03  0.17300000000E+03 0.  1.
         -6    1    1    2    0  502  0.10553802096E+03  0.17990230159E+03  0.23559570648E+03  0.35907861103E+03  0.17300000000E+03 0.  1.
<mgrwt>
<rscale>  2 0.27098360E+03</rscale>
<asrwt>0</asrwt>
<pdfrwt beam="1">  1       21 0.79916265E-01 0.27098360E+03</pdfrwt>
<pdfrwt beam="2">  1       21 0.22214020E-01 0.27098360E+03</pdfrwt>
<totfact> 0.25115079E+04</totfact>
</mgrwt>
</event>
<event>
 4    1  0.4333905E+000  0.2101153E+03  0.7546771E-02  0.1141475E+00
         21   -1    0    0  501  502  0.00000000000E+00  0.00000000000E+00  0.12442150931E+03  0.12442150931E+03  0.00000000000E+00 0.  1.
         21   -1    0    0  502  503 -0.00000000000E+00 -0.00000000000E+00 -0.82310245226E+03  0.82310245226E+03  0.00000000000E+00 0. -1.
          6    1    1    2  501    0 -0.54217952495E+02  0.10620667651E+03  0.80004151327E+01  0.21026757037E+03  0.17300000000E+03 0.  1.
         -6    1    1    2    0  503  0.54217952495E+02 -0.10620667651E+03 -0.70668135808E+03  0.73725639120E+03  0.17300000000E+03 0. -1.
<mgrwt>
<rscale>  2 0.21011531E+03</rscale>
<asrwt>0</asrwt>
<pdfrwt beam="1">  1       21 0.19141771E-01 0.21011531E+03</pdfrwt>
<pdfrwt beam="2">  1       21 0.12663115E+00 0.21011531E+03</pdfrwt>
<totfact> 0.11426199E+04</totfact>
</mgrwt>
</event>
<event>
 4    1  0.4333905E+000  0.1788980E+03  0.7546771E-02  0.1168874E+00
         21   -1    0    0  503  502  0.00000000000E+00  0.00000000000E+00  0.33332227101E+02  0.33332227101E+02  0.00000000000E+00 0.  1.
         21   -1    0    0  501  503 -0.00000000000E+00 -0.00000000000E+00 -0.10920891674E+04  0.10920891674E+04  0.00000000000E+00 0.  1.
          6    1    1    2  501    0 -0.38633765217E+02 -0.24144029712E+02 -0.72495427886E+03  0.74670155245E+03  0.17300000000E+03 0.  1.
         -6    1    1    2    0  502  0.38633765217E+02  0.24144029712E+02 -0.33380266146E+03  0.37871984208E+03  0.17300000000E+03 0.  1.
<mgrwt>
<rscale>  2 0.17889802E+03</rscale>
<asrwt>0</asrwt>
<pdfrwt beam="1">  1       21 0.51280360E-02 0.17889802E+03</pdfrwt>
<pdfrwt beam="2">  1       21 0.16801368E+00 0.17889802E+03</pdfrwt>
<totfact> 0.57244323E+04</totfact>
</mgrwt>
</event>
<event>
 4    1  0.4333905E+000  0.1884677E+03  0.7546771E-02  0.1159851E+00
         21   -1    0    0  503  502  0.00000000000E+00  0.00000000000E+00  0.14834424787E+03  0.14834424787E+03  0.00000000000E+00 0. -1.
         21   -1    0    0  501  503 -0.00000000000E+00 -0.00000000000E+00 -0.23992585570E+03  0.23992585570E+03  0.00000000000E+00 0.  1.
          6    1    1    2  501    0  0.74456376760E+02 -0.68797139512E+01 -0.54494401220E+02  0.19618797687E+03  0.17300000000E+03 0.  1.
         -6    1    1    2    0  502 -0.74456376760E+02  0.68797139512E+01 -0.37087206610E+02  0.19208212670E+03  0.17300000000E+03 0. -1.
<mgrwt>
<rscale>  2 0.18846772E+03</rscale>
<asrwt>0</asrwt>
<pdfrwt beam="1">  1       21 0.22822192E-01 0.18846772E+03</pdfrwt>
<pdfrwt beam="2">  1       21 0.36911670E-01 0.18846772E+03</pdfrwt>
<totfact> 0.12767752E+05</totfact>
</mgrwt>
</event>
<event>
 4    1  0.4333905E+000  0.2126050E+03  0.7546771E-02  0.1139520E+00
         21   -1    0    0  503  502  0.00000000000E+00  0.00000000000E+00  0.15257525770E+04  0.15257525770E+04  0.00000000000E+00 0.  1.
         21   -1    0    0  501  503 -0.00000000000E+00 -0.00000000000E+00 -0.32539348731E+02  0.32539348731E+02  0.00000000000E+00 0.  1.
          6    1    1    2  501    0  0.12228862415E+03 -0.17815697303E+02  0.51344267025E+03  0.55571960763E+03  0.17300000000E+03 0.  1.
         -6    1    1    2    0  502 -0.12228862415E+03  0.17815697303E+02  0.97977055804E+03  0.10025723181E+04  0.17300000000E+03 0.  1.
<mgrwt>
<rscale>  2 0.21260505E+03</rscale>
<asrwt>0</asrwt>
<pdfrwt beam="1">  1       21 0.23473111E+00 0.21260505E+03</pdfrwt>
<pdfrwt beam="2">  1       21 0.50060548E-02 0.21260505E+03</pdfrwt>
<totfact> 0.21636802E+04</totfact>
</mgrwt>
</event>
<event>
 4    1  0.4333905E+000  0.2238360E+03  0.7546771E-02  0.1131055E+00
         21   -1    0    0  501  502  0.00000000000E+00  0.00000000000E+00  0.49993942862E+03  0.49993942862E+03  0.00000000000E+00 0.  1.
         21   -1    0    0  502  503 -0.00000000000E+00 -0.00000000000E+00 -0.32194922443E+03  0.32194922443E+03  0.00000000000E+00 0. -1.
          6    1    1    2  501    0 -0.80248579533E+02  0.11719103369E+03  0.43003361338E+03  0.48480045538E+03  0.17300000000E+03 0.  1.
         -6    1    1    2    0  503  0.80248579533E+02 -0.11719103369E+03 -0.25204340919E+03  0.33708819767E+03  0.17300000000E+03 0. -1.
<mgrwt>
<rscale>  2 0.22383604E+03</rscale>
<asrwt>0</asrwt>
<pdfrwt beam="1">  1       21 0.76913758E-01 0.22383604E+03</pdfrwt>
<pdfrwt beam="2">  1       21 0.49530650E-01 0.22383604E+03</pdfrwt>
<totfact> 0.57080432E+03</totfact>
</mgrwt>
</event>
<event>
 4    1  0.4333905E+000  0.2125119E+03  0.7546771E-02  0.1139592E+00
         21   -1    0    0  503  502  0.00000000000E+00  0.00000000000E+00  0.18852820296E+03  0.18852820296E+03  0.00000000000E+00 0.  1.
         21   -1    0    0  501  503 -0.00000000000E+00 -0.00000000000E+00 -0.25685707741E+03  0.25685707741E+03  0.00000000000E+00 0.  1.
          6    1    1    2  501    0  0.55354224587E+02  0.11030960588E+03  0.23647031033E+02  0.21382348188E+03  0.17300000000E+03 0.  1.
         -6    1    1    2    0  502 -0.55354224587E+02 -0.11030960588E+03 -0.91975905477E+02  0.23156179848E+03  0.17300000000E+03 0.  1.
<mgrwt>
<rscale>  2 0.21251188E+03</rscale>
<asrwt>0</asrwt>
<pdfrwt beam="1">  1       21 0.29004339E-01 0.21251188E+03</pdfrwt>
<pdfrwt beam="2">  1       21 0.39516474E-01 0.21251188E+03</pdfrwt>
<totfact> 0.69635458E+04</totfact>
</mgrwt>
</event>
<event>
 4    1  0.4333905E+000  0.2164847E+03  0.7546771E-02  0.1136531E+00
         21   -1    0    0  501  502  0.00000000000E+00  0.00000000000E+00  0.65932362289E+02  0.65932362289E+02  0.00000000000E+00 0. -1.
         21   -1    0    0  502  503 -0.00000000000E+00 -0.00000000000E+00 -0.78127728968E+03  0.78127728968E+03  0.00000000000E+00 0. -1.
          6    1    1    2  501    0  0.33074665810E+01  0.13009875264E+03 -0.23045675064E+03  0.31618971945E+03  0.17300000000E+03 0.  1.
         -6    1    1    2    0  503 -0.33074665810E+01 -0.13009875264E+03 -0.48488817676E+03  0.53101993252E+03  0.17300000000E+03 0.  1.
<mgrwt>
<rscale>  2 0.21648470E+03</rscale>
<asrwt>0</asrwt>
<pdfrwt beam="1">  1       21 0.10143440E-01 0.21648470E+03</pdfrwt>
<pdfrwt beam="2">  1       21 0.12019651E+00 0.21648470E+03</pdfrwt>
<totfact> 0.41084235E+04</totfact>
</mgrwt>
</event>
<event>
 4    1  0.4333905E+000  0.2064076E+03  0.7546771E-02  0.1144443E+00
         21   -1    0    0  503  502  0.00000000000E+00  0.00000000000E+00  0.31684167027E+03  0.31684167027E+03  0.00000000000E+00 0. -1.
         21   -1    0    0  501  503 -0.00000000000E+00 -0.00000000000E+00 -0.13639070737E+03  0.13639070737E+03  0.00000000000E+00 0. -1.
          6    1    1    2  501    0 -0.11230267621E+03 -0.79495518905E+01  0.11715346994E+03  0.23733735900E+03  0.17300000000E+03 0. -1.
         -6    1    1    2    0  502  0.11230267621E+03  0.79495518905E+01  0.63297492951E+02  0.21589501864E+03  0.17300000000E+03 0. -1.
<mgrwt>
<rscale>  2 0.20640757E+03</rscale>
<asrwt>0</asrwt>
<pdfrwt beam="1">  1       21 0.48744872E-01 0.20640757E+03</pdfrwt>
<pdfrwt beam="2">  1       21 0.20983186E-01 0.20640757E+03</pdfrwt>
<totfact> 0.84274104E+04</totfact>
</mgrwt>
</event>
<event>
 4    1  0.4333905E+000  0.2792834E+03  0.7546771E-02  0.1096081E+00
         21   -1    0    0  501  502  0.00000000000E+00  0.00000000000E+00  0.14109458801E+03  0.14109458801E+03  0.00000000000E+00 0. -1.
         21   -1    0    0  502  503 -0.00000000000E+00 -0.00000000000E+00 -0.10633359210E+04  0.10633359210E+04  0.00000000000E+00 0.  1.
          6    1    1    2  501    0 -0.18655416014E+03  0.11518583719E+03 -0.43844864946E+02  0.28270409253E+03  0.17300000000E+03 0. -1.
         -6    1    1    2    0  503  0.18655416014E+03 -0.11518583719E+03 -0.87839646806E+03  0.92172641649E+03  0.17300000000E+03 0.  1.
<mgrwt>
<rscale>  2 0.27928343E+03</rscale>
<asrwt>0</asrwt>
<pdfrwt beam="1">  1       21 0.21706860E-01 0.27928343E+03</pdfrwt>
<pdfrwt beam="2">  1       21 0.16359014E+00 0.27928343E+03</pdfrwt>
<totfact> 0.44004839E+03</totfact>
</mgrwt>
</event>
<event>
 4    1  0.4333905E+000  0.2137462E+03  0.7546771E-02  0.1138633E+00
         21   -1    0    0  503  502  0.00000000000E+00  0.00000000000E+00  0.84596132762E+03  0.84596132762E+03  0.00000000000E+00 0. -1.
         21   -1    0    0  501  503 -0.00000000000E+00 -0.00000000000E+00 -0.81733540683E+02  0.81733540683E+02  0.00000000000E+00 0. -1.
          6    1    1    2  501    0  0.72912228114E+02 -0.10218730776E+03  0.65227728442E+03  0.68640592556E+03  0.17300000000E+03 0. -1.
         -6    1    1    2    0  502 -0.72912228114E+02  0.10218730776E+03  0.11195050252E+03  0.24128894274E+03  0.17300000000E+03 0. -1.
<mgrwt>
<rscale>  2 0.21374620E+03</rscale>
<asrwt>0</asrwt>
<pdfrwt beam="1">  1       21 0.13014789E+00 0.21374620E+03</pdfrwt>
<pdfrwt beam="2">  1       21 0.12574391E-01 0.21374620E+03</pdfrwt>
<totfact> 0.22957090E+04</totfact>
</mgrwt>
</event>
<event>
 4    1  0.4333905E+000  0.1865581E+03  0.7546771E-02  0.1161603E+00
         21   -1    0    0  503  502  0.00000000000E+00  0.00000000000E+00  0.52442726537E+03  0.52442726537E+03  0.00000000000E+00 0.  1.
         21   -1    0    0  501  503 -0.00000000000E+00 -0.00000000000E+00 -0.80575436085E+02  0.80575436085E+02  0.00000000000E+00 0.  1.
          6    1    1    2  501    0  0.60831573569E+02 -0.34270354159E+02  0.94891817729E+02  0.20930454985E+03  0.17300000000E+03 0.  1.
         -6    1    1    2    0  502 -0.60831573569E+02  0.34270354159E+02  0.34896001155E+03  0.39569815160E+03  0.17300000000E+03 0.  1.
<mgrwt>
<rscale>  2 0.18655813E+03</rscale>
<asrwt>0</asrwt>
<pdfrwt beam="1">  1       21 0.80681116E-01 0.18655813E+03</pdfrwt>
<pdfrwt beam="2">  1       21 0.12396221E-01 0.18655813E+03</pdfrwt>
<totfact> 0.74896010E+04</totfact>
</mgrwt>
</event>
<event>
 4    1  0.4333905E+000  0.2223682E+03  0.7546771E-02  0.1132130E+00
         21   -1    0    0  503  502  0.00000000000E+00  0.00000000000E+00  0.13318030520E+03  0.13318030520E+03  0.00000000000E+00 0. -1.
         21   -1    0    0  501  503 -0.00000000000E+00 -0.00000000000E+00 -0.68605616643E+03  0.68605616643E+03  0.00000000000E+00 0.  1.
          6    1    1    2  501    0  0.13507808619E+03  0.35672618733E+02  0.10205995982E+01  0.22237056172E+03  0.17300000000E+03 0. -1.
         -6    1    1    2    0  502 -0.13507808619E+03 -0.35672618733E+02 -0.55389646082E+03  0.59686590991E+03  0.17300000000E+03 0.  1.
<mgrwt>
<rscale>  2 0.22236822E+03</rscale>
<asrwt>0</asrwt>
<pdfrwt beam="1">  1       21 0.20489278E-01 0.22236822E+03</pdfrwt>
<pdfrwt beam="2">  1       21 0.10554710E+00 0.22236822E+03</pdfrwt>
<totfact> 0.15623444E+04</totfact>
</mgrwt>
</event>
<event>
 4    1  0.4333905E+000  0.2090586E+03  0.7546771E-02  0.1142314E+00
         21   -1    0    0  501  502  0.00000000000E+00  0.00000000000E+00  0.21579379463E+03  0.21579379463E+03  0.00000000000E+00 0.  1.
         21   -1    0    0  502  503 -0.00000000000E+00 -0.00000000000E+00 -0.21181049504E+03  0.21181049504E+03  0.00000000000E+00 0.  1.
          6    1    1    2  501    0 -0.69277240225E+02  0.94747801426E+02  0.46736284263E+02  0.21421895844E+03  0.17300000000E+03 0.  1.
         -6    1    1    2    0  503  0.69277240225E+02 -0.94747801426E+02 -0.42752984673E+02  0.21338533124E+03  0.17300000000E+03 0.  1.
<mgrwt>
<rscale>  2 0.20905856E+03</rscale>
<asrwt>0</asrwt>
<pdfrwt beam="1">  1       21 0.33199045E-01 0.20905856E+03</pdfrwt>
<pdfrwt beam="2">  1       21 0.32586230E-01 0.20905856E+03</pdfrwt>
<totfact> 0.78623367E+04</totfact>
</mgrwt>
</event>
<event>
 4    1  0.4333905E+000  0.2213031E+03  0.7546771E-02  0.1132915E+00
         21   -1    0    0  503  502  0.00000000000E+00  0.00000000000E+00  0.82392020137E+03  0.82392020137E+03  0.00000000000E+00 0.  1.
         21   -1    0    0  501  503 -0.00000000000E+00 -0.00000000000E+00 -0.64421981974E+02  0.64421981974E+02  0.00000000000E+00 0. -1.
          6    1    1    2  501    0 -0.94179413567E+02  0.10087755778E+03  0.25624841128E+03  0.33858276962E+03  0.17300000000E+03 0. -1.
         -6    1    1    2    0  502  0.94179413567E+02 -0.10087755778E+03  0.50324980812E+03  0.54975941372E+03  0.17300000000E+03 0.  1.
<mgrwt>
<rscale>  2 0.22130306E+03</rscale>
<asrwt>0</asrwt>
<pdfrwt beam="1">  1       21 0.12675695E+00 0.22130306E+03</pdfrwt>
<pdfrwt beam="2">  1       21 0.99110747E-02 0.22130306E+03</pdfrwt>
<totfact> 0.37373828E+04</totfact>
</mgrwt>
</event>
<event>
 4    1  0.4333905E+000  0.1968592E+03  0.7546771E-02  0.1152416E+00
         21   -1    0    0  501  502  0.00000000000E+00  0.00000000000E+00  0.10887071984E+04  0.10887071984E+04  0.00000000000E+00 0. -1.
         21   -1    0    0  502  503 -0.00000000000E+00 -0.00000000000E+00 -0.40026574937E+02  0.40026574937E+02  0.00000000000E+00 0. -1.
          6    1    1    2  501    0 -0.35412048723E+02 -0.87008736210E+02  0.71210819793E+03  0.73881771698E+03  0.17300000000E+03 0. -1.
         -6    1    1    2    0  503  0.35412048723E+02  0.87008736210E+02  0.33657242553E+03  0.38991605635E+03  0.17300000000E+03 0. -1.
<mgrwt>
<rscale>  2 0.19685917E+03</rscale>
<asrwt>0</asrwt>
<pdfrwt beam="1">  1       21 0.16749339E+00 0.19685917E+03</pdfrwt>
<pdfrwt beam="2">  1       21 0.61579354E-02 0.19685917E+03</pdfrwt>
<totfact> 0.41808729E+04</totfact>
</mgrwt>
</event>
<event>
 4    1  0.4333905E+000  0.2244768E+03  0.7546771E-02  0.1130589E+00
         21   -1    0    0  503  502  0.00000000000E+00  0.00000000000E+00  0.15110713013E+03  0.15110713013E+03  0.00000000000E+00 0.  1.
         21   -1    0    0  501  503 -0.00000000000E+00 -0.00000000000E+00 -0.40985480556E+03  0.40985480556E+03  0.00000000000E+00 0. -1.
          6    1    1    2  501    0  0.10724085551E+03  0.94658578888E+02 -0.25045846033E+03  0.33633210967E+03  0.17300000000E+03 0. -1.
         -6    1    1    2    0  502 -0.10724085551E+03 -0.94658578888E+02 -0.82892151015E+01  0.22462982601E+03  0.17300000000E+03 0.  1.
<mgrwt>
<rscale>  2 0.22447683E+03</rscale>
<asrwt>0</asrwt>
<pdfrwt beam="1">  1       21 0.23247251E-01 0.22447683E+03</pdfrwt>
<pdfrwt beam="2">  1       21 0.63054584E-01 0.22447683E+03</pdfrwt>
<totfact> 0.39853271E+04</totfact>
</mgrwt>
</event>
<event>
 4    1  0.4333905E+000  0.3021701E+03  0.7546771E-02  0.1084161E+00
         21   -1    0    0  503  502  0.00000000000E+00  0.00000000000E+00  0.16620686755E+03  0.16620686755E+03  0.00000000000E+00 0.  1.
         21   -1    0    0  501  503 -0.00000000000E+00 -0.00000000000E+00 -0.57541780327E+03  0.57541780327E+03  0.00000000000E+00 0.  1.
          6    1    1    2  501    0  0.18128505022E+02  0.24708119553E+03 -0.28352123029E+03  0.41435618483E+03  0.17300000000E+03 0.  1.
         -6    1    1    2    0  502 -0.18128505022E+02 -0.24708119553E+03 -0.12568970543E+03  0.32726848600E+03  0.17300000000E+03 0.  1.
<mgrwt>
<rscale>  2 0.30217008E+03</rscale>
<asrwt>0</asrwt>
<pdfrwt beam="1">  1       21 0.25570287E-01 0.30217008E+03</pdfrwt>
<pdfrwt beam="2">  1       21 0.88525818E-01 0.30217008E+03</pdfrwt>
<totfact> 0.14942712E+04</totfact>
</mgrwt>
</event>
<event>
 4    1  0.4333905E+000  0.2139964E+03  0.7546771E-02  0.1138440E+00
         21   -1    0    0  501  502  0.00000000000E+00  0.00000000000E+00  0.34648112382E+03  0.34648112382E+03  0.00000000000E+00 0. -1.
         21   -1    0    0  502  503 -0.00000000000E+00 -0.00000000000E+00 -0.21789289946E+03  0.21789289946E+03  0.00000000000E+00 0. -1.
          6    1    1    2  501    0  0.11959666362E+03 -0.39523532564E+02  0.24129011485E+03  0.32251417193E+03  0.17300000000E+03 0. -1.
         -6    1    1    2    0  503 -0.11959666362E+03  0.39523532564E+02 -0.11270189049E+03  0.24185985135E+03  0.17300000000E+03 0. -1.
<mgrwt>
<rscale>  2 0.21399643E+03</rscale>
<asrwt>0</asrwt>
<pdfrwt beam="1">  1       21 0.53304788E-01 0.21399643E+03</pdfrwt>
<pdfrwt beam="2">  1       21 0.33521984E-01 0.21399643E+03</pdfrwt>
<totfact> 0.28228364E+04</totfact>
</mgrwt>
</event>
<event>
 4    1  0.4333905E+000  0.1831499E+03  0.7546771E-02  0.1164789E+00
         21   -1    0    0  501  502  0.00000000000E+00  0.00000000000E+00  0.12297548107E+04  0.12297548107E+04  0.00000000000E+00 0. -1.
         21   -1    0    0  502  503 -0.00000000000E+00 -0.00000000000E+00 -0.53031741580E+02  0.53031741580E+02  0.00000000000E+00 0. -1.
          6    1    1    2  501    0 -0.31384469235E+02 -0.51282558075E+02  0.10353393728E+04  0.10514140490E+04  0.17300000000E+03 0. -1.
         -6    1    1    2    0  503  0.31384469235E+02  0.51282558075E+02  0.14138369636E+03  0.23137250326E+03  0.17300000000E+03 0. -1.
<mgrwt>
<rscale>  2 0.18314990E+03</rscale>
<asrwt>0</asrwt>
<pdfrwt beam="1">  1       21 0.18919303E+00 0.18314990E+03</pdfrwt>
<pdfrwt beam="2">  1       21 0.81587304E-02 0.18314990E+03</pdfrwt>
<totfact> 0.18441897E+04</totfact>
</mgrwt>
</event>
<event>
 4    1  0.4333905E+000  0.1927094E+03  0.7546771E-02  0.1156040E+00
         21   -1    0    0  501  502  0.00000000000E+00  0.00000000000E+00  0.33485543357E+02  0.33485543357E+02  0.00000000000E+00 0. -1.
         21   -1    0    0  502  503 -0.00000000000E+00 -0.00000000000E+00 -0.11178647293E+04  0.11178647293E+04  0.00000000000E+00 0. -1.
          6    1    1    2  501    0 -0.84362664479E+02  0.95325099011E+01 -0.49105148200E+03  0.52751159786E+03  0.17300000000E+03 0.  1.
         -6    1    1    2    0  503  0.84362664479E+02 -0.95325099011E+01 -0.59332770390E+03  0.62383867475E+03  0.17300000000E+03 0.  1.
<mgrwt>
<rscale>  2 0.19270944E+03</rscale>
<asrwt>0</asrwt>
<pdfrwt beam="1">  1       21 0.51516220E-02 0.19270944E+03</pdfrwt>
<pdfrwt beam="2">  1       21 0.17197919E+00 0.19270944E+03</pdfrwt>
<totfact> 0.52846781E+04</totfact>
</mgrwt>
</event>
<event>
 4    1  0.4333905E+000  0.1863279E+03  0.7546771E-02  0.1161816E+00
         21   -1    0    0  503  502  0.00000000000E+00  0.00000000000E+00  0.17721993437E+03  0.17721993437E+03  0.00000000000E+00 0. -1.
         21   -1    0    0  501  503 -0.00000000000E+00 -0.00000000000E+00 -0.19950731379E+03  0.19950731379E+03  0.00000000000E+00 0.  1.
          6    1    1    2  501    0  0.49598178200E+02 -0.48260920868E+02  0.14170735846E+02  0.18686600953E+03  0.17300000000E+03 0.  1.
         -6    1    1    2    0  502 -0.49598178200E+02  0.48260920868E+02 -0.36458115270E+02  0.18986123863E+03  0.17300000000E+03 0. -1.
<mgrwt>
<rscale>  2 0.18632793E+03</rscale>
<asrwt>0</asrwt>
<pdfrwt beam="1">  1       21 0.27264605E-01 0.18632793E+03</pdfrwt>
<pdfrwt beam="2">  1       21 0.30693433E-01 0.18632793E+03</pdfrwt>
<totfact> 0.13099561E+05</totfact>
</mgrwt>
</event>
<event>
 4    1  0.4333905E+000  0.2725680E+03  0.7546771E-02  0.1099819E+00
         21   -1    0    0  503  502  0.00000000000E+00  0.00000000000E+00  0.19136423210E+03  0.19136423210E+03  0.00000000000E+00 0.  1.
         21   -1    0    0  501  503 -0.00000000000E+00 -0.00000000000E+00 -0.45806141763E+03  0.45806141763E+03  0.00000000000E+00 0.  1.
          6    1    1    2  501    0  0.17608082004E+03  0.11558492989E+03 -0.26013219587E+03  0.37677856963E+03  0.17300000000E+03 0.  1.
         -6    1    1    2    0  502 -0.17608082004E+03 -0.11558492989E+03 -0.65649896656E+01  0.27264708011E+03  0.17300000000E+03 0.  1.
<mgrwt>
<rscale>  2 0.27256803E+03</rscale>
<asrwt>0</asrwt>
<pdfrwt beam="1">  1       21 0.29440651E-01 0.27256803E+03</pdfrwt>
<pdfrwt beam="2">  1       21 0.70470986E-01 0.27256803E+03</pdfrwt>
<totfact> 0.19348266E+04</totfact>
</mgrwt>
</event>
<event>
 4    1  0.4333905E+000  0.2135887E+03  0.7546771E-02  0.1138755E+00
         21   -1    0    0  501  502  0.00000000000E+00  0.00000000000E+00  0.73462937018E+03  0.73462937018E+03  0.00000000000E+00 0.  1.
         21   -1    0    0  502  503 -0.00000000000E+00 -0.00000000000E+00 -0.62283049016E+02  0.62283049016E+02  0.00000000000E+00 0. -1.
          6    1    1    2  501    0  0.69688607863E+02 -0.10408961251E+03  0.31454504566E+03  0.38020880480E+03  0.17300000000E+03 0. -1.
         -6    1    1    2    0  503 -0.69688607863E+02  0.10408961251E+03  0.35780127550E+03  0.41670361439E+03  0.17300000000E+03 0.  1.
<mgrwt>
<rscale>  2 0.21358874E+03</rscale>
<asrwt>0</asrwt>
<pdfrwt beam="1">  1       21 0.11301990E+00 0.21358874E+03</pdfrwt>
<pdfrwt beam="2">  1       21 0.95820080E-02 0.21358874E+03</pdfrwt>
<totfact> 0.52941370E+04</totfact>
</mgrwt>
</event>
<event>
 4    1  0.4333905E+000  0.1790413E+03  0.7546771E-02  0.1168734E+00
         21   -1    0    0  501  502  0.00000000000E+00  0.00000000000E+00  0.85457028694E+02  0.85457028694E+02  0.00000000000E+00 0.  1.
         21   -1    0    0  502  503 -0.00000000000E+00 -0.00000000000E+00 -0.82947248853E+03  0.82947248853E+03  0.00000000000E+00 0.  1.
          6    1    1    2  501    0 -0.28870950221E+01  0.46026485158E+02 -0.33430334512E+02  0.18213555369E+03  0.17300000000E+03 0.  1.
         -6    1    1    2    0  503  0.28870950221E+01 -0.46026485158E+02 -0.71058512533E+03  0.73279396353E+03  0.17300000000E+03 0.  1.
<mgrwt>
<rscale>  2 0.17904126E+03</rscale>
<asrwt>0</asrwt>
<pdfrwt beam="1">  1       21 0.13147235E-01 0.17904126E+03</pdfrwt>
<pdfrwt beam="2">  1       21 0.12761116E+00 0.17904126E+03</pdfrwt>
<totfact> 0.22754739E+04</totfact>
</mgrwt>
</event>
<event>
 4    1  0.4333905E+000  0.1842613E+03  0.7546771E-02  0.1163742E+00
         21   -1    0    0  501  502  0.00000000000E+00  0.00000000000E+00  0.32936155155E+03  0.32936155155E+03  0.00000000000E+00 0.  1.
         21   -1    0    0  502  503 -0.00000000000E+00 -0.00000000000E+00 -0.15798941382E+03  0.15798941382E+03  0.00000000000E+00 0.  1.
          6    1    1    2  501    0 -0.46848789736E+01 -0.63255618325E+02  0.22933474942E+03  0.29418811776E+03  0.17300000000E+03 0.  1.
         -6    1    1    2    0  503  0.46848789736E+01  0.63255618325E+02 -0.57962611692E+02  0.19316284760E+03  0.17300000000E+03 0.  1.
<mgrwt>
<rscale>  2 0.18426129E+03</rscale>
<asrwt>0</asrwt>
<pdfrwt beam="1">  1       21 0.50671008E-01 0.18426129E+03</pdfrwt>
<pdfrwt beam="2">  1       21 0.24306064E-01 0.18426129E+03</pdfrwt>
<totfact> 0.59448314E+04</totfact>
</mgrwt>
</event>
<event>
 4    1  0.4333905E+000  0.2336279E+03  0.7546771E-02  0.1124112E+00
         21   -1    0    0  501  502  0.00000000000E+00  0.00000000000E+00  0.65086899776E+03  0.65086899776E+03  0.00000000000E+00 0.  1.
         21   -1    0    0  502  503 -0.00000000000E+00 -0.00000000000E+00 -0.96371078548E+02  0.96371078548E+02  0.00000000000E+00 0.  1.
          6    1    1    2  501    0 -0.14567221800E+03 -0.58588249903E+02  0.41186642320E+03  0.47351444401E+03  0.17300000000E+03 0.  1.
         -6    1    1    2    0  503  0.14567221800E+03  0.58588249903E+02  0.14263149601E+03  0.27372563230E+03  0.17300000000E+03 0.  1.
<mgrwt>
<rscale>  2 0.23362786E+03</rscale>
<asrwt>0</asrwt>
<pdfrwt beam="1">  1       21 0.10013369E+00 0.23362786E+03</pdfrwt>
<pdfrwt beam="2">  1       21 0.14826320E-01 0.23362786E+03</pdfrwt>
<totfact> 0.32081833E+04</totfact>
</mgrwt>
</event>
<event>
 4    1  0.4333905E+000  0.1990791E+03  0.7546771E-02  0.1150518E+00
         21   -1    0    0  503  502  0.00000000000E+00  0.00000000000E+00  0.17176670217E+03  0.17176670217E+03  0.00000000000E+00 0. -1.
         21   -1    0    0  501  503 -0.00000000000E+00 -0.00000000000E+00 -0.25123375863E+03  0.25123375863E+03  0.00000000000E+00 0. -1.
          6    1    1    2  501    0 -0.67637875847E+02 -0.71614266649E+02 -0.10014815235E+03  0.22285003445E+03  0.17300000000E+03 0. -1.
         -6    1    1    2    0  502  0.67637875847E+02  0.71614266649E+02  0.20681095885E+02  0.20015042634E+03  0.17300000000E+03 0. -1.
<mgrwt>
<rscale>  2 0.19907909E+03</rscale>
<asrwt>0</asrwt>
<pdfrwt beam="1">  1       21 0.26425647E-01 0.19907909E+03</pdfrwt>
<pdfrwt beam="2">  1       21 0.38651347E-01 0.19907909E+03</pdfrwt>
<totfact> 0.87680803E+04</totfact>
</mgrwt>
</event>
<event>
 4    1  0.4333905E+000  0.1955878E+03  0.7546771E-02  0.1153516E+00
         21   -1    0    0  503  502  0.00000000000E+00  0.00000000000E+00  0.55025610696E+03  0.55025610696E+03  0.00000000000E+00 0. -1.
         21   -1    0    0  501  503 -0.00000000000E+00 -0.00000000000E+00 -0.22306095030E+03  0.22306095030E+03  0.00000000000E+00 0. -1.
          6    1    1    2  501    0  0.58170879904E+02 -0.70297569829E+02 -0.15719616448E+03  0.25092874232E+03  0.17300000000E+03 0. -1.
         -6    1    1    2    0  502 -0.58170879904E+02  0.70297569829E+02  0.48439132114E+03  0.52238831494E+03  0.17300000000E+03 0. -1.
<mgrwt>
<rscale>  2 0.19558783E+03</rscale>
<asrwt>0</asrwt>
<pdfrwt beam="1">  1       21 0.84654785E-01 0.19558783E+03</pdfrwt>
<pdfrwt beam="2">  1       21 0.34317069E-01 0.19558783E+03</pdfrwt>
<totfact> 0.98768346E+03</totfact>
</mgrwt>
</event>
<event>
 4    1  0.4333905E+000  0.2411941E+03  0.7546771E-02  0.1119000E+00
         21   -1    0    0  503  502  0.00000000000E+00  0.00000000000E+00  0.21107943405E+03  0.21107943405E+03  0.00000000000E+00 0.  1.
         21   -1    0    0  501  503 -0.00000000000E+00 -0.00000000000E+00 -0.30227175006E+03  0.30227175006E+03  0.00000000000E+00 0. -1.
          6    1    1    2  501    0 -0.16516645809E+03 -0.31074858352E+02  0.30641331969E+02  0.24313267350E+03  0.17300000000E+03 0.  1.
         -6    1    1    2    0  502  0.16516645809E+03  0.31074858352E+02 -0.12183364798E+03  0.27021851062E+03  0.17300000000E+03 0. -1.
<mgrwt>
<rscale>  2 0.24119412E+03</rscale>
<asrwt>0</asrwt>
<pdfrwt beam="1">  1       21 0.32473759E-01 0.24119412E+03</pdfrwt>
<pdfrwt beam="2">  1       21 0.46503346E-01 0.24119412E+03</pdfrwt>
<totfact> 0.39482590E+04</totfact>
</mgrwt>
</event>
<event>
 4    1  0.4333905E+000  0.1832704E+03  0.7546771E-02  0.1164675E+00
         21   -1    0    0  501  502  0.00000000000E+00  0.00000000000E+00  0.97234218338E+02  0.97234218338E+02  0.00000000000E+00 0.  1.
         21   -1    0    0  502  503 -0.00000000000E+00 -0.00000000000E+00 -0.34591276856E+03  0.34591276856E+03  0.00000000000E+00 0.  1.
          6    1    1    2  501    0 -0.56272441222E+02 -0.22191131175E+02 -0.11609861194E+03  0.21694912223E+03  0.17300000000E+03 0.  1.
         -6    1    1    2    0  503  0.56272441222E+02  0.22191131175E+02 -0.13257993829E+03  0.22619786467E+03  0.17300000000E+03 0.  1.
<mgrwt>
<rscale>  2 0.18327038E+03</rscale>
<asrwt>0</asrwt>
<pdfrwt beam="1">  1       21 0.14959110E-01 0.18327038E+03</pdfrwt>
<pdfrwt beam="2">  1       21 0.53217349E-01 0.18327038E+03</pdfrwt>
<totfact> 0.13224772E+05</totfact>
</mgrwt>
</event>
<event>
 4    1  0.4333905E+000  0.4230482E+03  0.7546771E-02  0.1036079E+00
         21   -1    0    0  501  502  0.00000000000E+00  0.00000000000E+00  0.40740904456E+03  0.40740904456E+03  0.00000000000E+00 0. -1.
         21   -1    0    0  502  503 -0.00000000000E+00 -0.00000000000E+00 -0.45652178513E+03  0.45652178513E+03  0.00000000000E+00 0.  1.
          6    1    1    2  501    0  0.78897534064E+02 -0.37790995699E+03 -0.10848558003E+03  0.43673662263E+03  0.17300000000E+03 0.  1.
         -6    1    1    2    0  503 -0.78897534064E+02  0.37790995699E+03  0.59372839458E+02  0.42719420705E+03  0.17300000000E+03 0. -1.
<mgrwt>
<rscale>  2 0.42304817E+03</rscale>
<asrwt>0</asrwt>
<pdfrwt beam="1">  1       21 0.62678314E-01 0.42304817E+03</pdfrwt>
<pdfrwt beam="2">  1       21 0.70234121E-01 0.42304817E+03</pdfrwt>
<totfact> 0.38325150E+03</totfact>
</mgrwt>
</event>
<event>
 4    1  0.4333905E+000  0.2469483E+03  0.7546771E-02  0.1115249E+00
         21   -1    0    0  501  502  0.00000000000E+00  0.00000000000E+00  0.10994431657E+04  0.10994431657E+04  0.00000000000E+00 0.  1.
         21   -1    0    0  502  503 -0.00000000000E+00 -0.00000000000E+00 -0.82918451177E+02  0.82918451177E+02  0.00000000000E+00 0. -1.
          6    1    1    2  501    0 -0.12412297865E+03 -0.12509179538E+03  0.84841407069E+03  0.88362316993E+03  0.17300000000E+03 0.  1.
         -6    1    1    2    0  503  0.12412297865E+03  0.12509179538E+03  0.16811064379E+03  0.29873844690E+03  0.17300000000E+03 0. -1.
<mgrwt>
<rscale>  2 0.24694832E+03</rscale>
<asrwt>0</asrwt>
<pdfrwt beam="1">  1       21 0.16914509E+00 0.24694832E+03</pdfrwt>
<pdfrwt beam="2">  1       21 0.12756686E-01 0.24694832E+03</pdfrwt>
<totfact> 0.10951203E+04</totfact>
</mgrwt>
</event>
<event>
 4    1  0.4333905E+000  0.2623977E+03  0.7546771E-02  0.1105711E+00
         21   -1    0    0  501  502  0.00000000000E+00  0.00000000000E+00  0.68364795115E+02  0.68364795115E+02  0.00000000000E+00 0.  1.
         21   -1    0    0  502  503 -0.00000000000E+00 -0.00000000000E+00 -0.10659440323E+04  0.10659440323E+04  0.00000000000E+00 0. -1.
          6    1    1    2  501    0  0.97864995567E+02 -0.17130679719E+03 -0.36557366769E+03  0.44999631402E+03  0.17300000000E+03 0.  1.
         -6    1    1    2    0  503 -0.97864995567E+02  0.17130679719E+03 -0.63200556951E+03  0.68431251342E+03  0.17300000000E+03 0. -1.
<mgrwt>
<rscale>  2 0.26239774E+03</rscale>
<asrwt>0</asrwt>
<pdfrwt beam="1">  1       21 0.10517661E-01 0.26239774E+03</pdfrwt>
<pdfrwt beam="2">  1       21 0.16399138E+00 0.26239774E+03</pdfrwt>
<totfact> 0.16720421E+04</totfact>
</mgrwt>
</event>
<event>
 4    1  0.4333905E+000  0.2584342E+03  0.7546771E-02  0.1108088E+00
         21   -1    0    0  503  502  0.00000000000E+00  0.00000000000E+00  0.10306809742E+04  0.10306809742E+04  0.00000000000E+00 0. -1.
         21   -1    0    0  501  503 -0.00000000000E+00 -0.00000000000E+00 -0.20860027656E+03  0.20860027656E+03  0.00000000000E+00 0.  1.
          6    1    1    2  501    0  0.51078454193E+02 -0.18506817579E+03 -0.10343212291E+03  0.27836386659E+03  0.17300000000E+03 0.  1.
         -6    1    1    2    0  502 -0.51078454193E+02  0.18506817579E+03  0.92551282051E+03  0.96091738412E+03  0.17300000000E+03 0. -1.
<mgrwt>
<rscale>  2 0.25843420E+03</rscale>
<asrwt>0</asrwt>
<pdfrwt beam="1">  1       21 0.15856630E+00 0.25843420E+03</pdfrwt>
<pdfrwt beam="2">  1       21 0.32092351E-01 0.25843420E+03</pdfrwt>
<totfact> 0.22794426E+03</totfact>
</mgrwt>
</event>
<event>
 4    1  0.4333905E+000  0.1851349E+03  0.7546771E-02  0.1162924E+00
         21   -1    0    0  501  502  0.00000000000E+00  0.00000000000E+00  0.27558157907E+02  0.27558157907E+02  0.00000000000E+00 0.  1.
         21   -1    0    0  502  503 -0.00000000000E+00 -0.00000000000E+00 -0.12551003539E+04  0.12551003539E+04  0.00000000000E+00 0.  1.
          6    1    1    2  501    0 -0.56514634276E+02  0.33941363047E+02 -0.55273028522E+03  0.58291138967E+03  0.17300000000E+03 0.  1.
         -6    1    1    2    0  503  0.56514634276E+02 -0.33941363047E+02 -0.67481191081E+03  0.69974712217E+03  0.17300000000E+03 0.  1.
<mgrwt>
<rscale>  2 0.18513487E+03</rscale>
<asrwt>0</asrwt>
<pdfrwt beam="1">  1       21 0.42397157E-02 0.18513487E+03</pdfrwt>
<pdfrwt beam="2">  1       21 0.19309240E+00 0.18513487E+03</pdfrwt>
<totfact> 0.53148888E+04</totfact>
</mgrwt>
</event>
<event>
 4    1  0.4333905E+000  0.2229796E+03  0.7546771E-02  0.1131681E+00
         21   -1    0    0  501  502  0.00000000000E+00  0.00000000000E+00  0.11457941255E+04  0.11457941255E+04  0.00000000000E+00 0. -1.
         21   -1    0    0  502  503 -0.00000000000E+00 -0.00000000000E+00 -0.51078281821E+02  0.51078281821E+02  0.00000000000E+00 0.  1.
          6    1    1    2  501    0  0.11045255710E+03 -0.87127070801E+02  0.77948111546E+03  0.81074700319E+03  0.17300000000E+03 0. -1.
         -6    1    1    2    0  503 -0.11045255710E+03  0.87127070801E+02  0.31523472824E+03  0.38612540415E+03  0.17300000000E+03 0.  1.
<mgrwt>
<rscale>  2 0.22297958E+03</rscale>
<asrwt>0</asrwt>
<pdfrwt beam="1">  1       21 0.17627600E+00 0.22297958E+03</pdfrwt>
<pdfrwt beam="2">  1       21 0.78581980E-02 0.22297958E+03</pdfrwt>
<totfact> 0.23407223E+04</totfact>
</mgrwt>
</event>
<event>
 4    1  0.4333905E+000  0.2431054E+03  0.7546771E-02  0.1117741E+00
         21   -1    0    0  503  502  0.00000000000E+00  0.00000000000E+00  0.47969320118E+03  0.47969320118E+03  0.00000000000E+00 0.  1.
         21   -1    0    0  501  503 -0.00000000000E+00 -0.00000000000E+00 -0.26800720185E+03  0.26800720185E+03  0.00000000000E+00 0. -1.
          6    1    1    2  501    0 -0.14635461664E+03 -0.88042867615E+02  0.38064074129E+03  0.45164985805E+03  0.17300000000E+03 0.  1.
         -6    1    1    2    0  502  0.14635461664E+03  0.88042867615E+02 -0.16895474196E+03  0.29605054497E+03  0.17300000000E+03 0. -1.
<mgrwt>
<rscale>  2 0.24310537E+03</rscale>
<asrwt>0</asrwt>
<pdfrwt beam="1">  1       21 0.73798954E-01 0.24310537E+03</pdfrwt>
<pdfrwt beam="2">  1       21 0.41231877E-01 0.24310537E+03</pdfrwt>
<totfact> 0.90367267E+03</totfact>
</mgrwt>
</event>
<event>
 4    1  0.4333905E+000  0.1912402E+03  0.7546771E-02  0.1157348E+00
         21   -1    0    0  503  502  0.00000000000E+00  0.00000000000E+00  0.80207269648E+02  0.80207269648E+02  0.00000000000E+00 0.  1.
         21   -1    0    0  501  503 -0.00000000000E+00 -0.00000000000E+00 -0.53421837582E+03  0.53421837582E+03  0.00000000000E+00 0.  1.
          6    1    1    2  501    0  0.75823637687E+02 -0.29909591170E+02 -0.34457471150E+03  0.39408696944E+03  0.17300000000E+03 0.  1.
         -6    1    1    2    0  502 -0.75823637687E+02  0.29909591170E+02 -0.10943639467E+03  0.22033867603E+03  0.17300000000E+03 0.  1.
<mgrwt>
<rscale>  2 0.19124018E+03</rscale>
<asrwt>0</asrwt>
<pdfrwt beam="1">  1       21 0.12339580E-01 0.19124018E+03</pdfrwt>
<pdfrwt beam="2">  1       21 0.82187441E-01 0.19124018E+03</pdfrwt>
<totfact> 0.72268860E+04</totfact>
</mgrwt>
</event>
<event>
 4    1  0.4333905E+000  0.1987993E+03  0.7546771E-02  0.1150756E+00
         21   -1    0    0  501  502  0.00000000000E+00  0.00000000000E+00  0.10647285969E+04  0.10647285969E+04  0.00000000000E+00 0.  1.
         21   -1    0    0  502  503 -0.00000000000E+00 -0.00000000000E+00 -0.37674691976E+02  0.37674691976E+02  0.00000000000E+00 0.  1.
          6    1    1    2  501    0  0.49166543601E+02  0.84704359873E+02  0.58049690321E+03  0.61359419182E+03  0.17300000000E+03 0.  1.
         -6    1    1    2    0  503 -0.49166543601E+02 -0.84704359873E+02  0.44655700171E+03  0.48880909706E+03  0.17300000000E+03 0.  1.
<mgrwt>
<rscale>  2 0.19879934E+03</rscale>
<asrwt>0</asrwt>
<pdfrwt beam="1">  1       21 0.16380438E+00 0.19879934E+03</pdfrwt>
<pdfrwt beam="2">  1       21 0.57961073E-02 0.19879934E+03</pdfrwt>
<totfact> 0.49226099E+04</totfact>
</mgrwt>
</event>
<event>
 4    1  0.4333905E+000  0.3269617E+03  0.7546771E-02  0.1072489E+00
         21   -1    0    0  501  502  0.00000000000E+00  0.00000000000E+00  0.58256959423E+02  0.58256959423E+02  0.00000000000E+00 0. -1.
         21   -1    0    0  502  503 -0.00000000000E+00 -0.00000000000E+00 -0.18509704885E+04  0.18509704885E+04  0.00000000000E+00 0.  1.
          6    1    1    2  501    0  0.19235600050E+03  0.19993528586E+03 -0.80780047915E+03  0.87146173960E+03  0.17300000000E+03 0. -1.
         -6    1    1    2    0  503 -0.19235600050E+03 -0.19993528586E+03 -0.98491304988E+03  0.10377657083E+04  0.17300000000E+03 0. -1.
<mgrwt>
<rscale>  2 0.32696169E+03</rscale>
<asrwt>0</asrwt>
<pdfrwt beam="1">  1       21 0.89626086E-02 0.32696169E+03</pdfrwt>
<pdfrwt beam="2">  1       21 0.28476471E+00 0.32696169E+03</pdfrwt>
<totfact> 0.36546681E+03</totfact>
</mgrwt>
</event>
<event>
 4    1  0.4333905E+000  0.1887459E+03  0.7546771E-02  0.1159597E+00
         21   -1    0    0  503  502  0.00000000000E+00  0.00000000000E+00  0.88815849811E+03  0.88815849811E+03  0.00000000000E+00 0.  1.
         21   -1    0    0  501  503 -0.00000000000E+00 -0.00000000000E+00 -0.67870722962E+02  0.67870722962E+02  0.00000000000E+00 0.  1.
          6    1    1    2  501    0  0.75147010541E+02 -0.69962904864E+01  0.10443599317E+03  0.21571253543E+03  0.17300000000E+03 0. -1.
         -6    1    1    2    0  502 -0.75147010541E+02  0.69962904864E+01  0.71585178198E+03  0.74031668564E+03  0.17300000000E+03 0. -1.
<mgrwt>
<rscale>  2 0.18874592E+03</rscale>
<asrwt>0</asrwt>
<pdfrwt beam="1">  1       21 0.13663976E+00 0.18874592E+03</pdfrwt>
<pdfrwt beam="2">  1       21 0.10441650E-01 0.18874592E+03</pdfrwt>
<totfact> 0.28703788E+04</totfact>
</mgrwt>
</event>
<event>
 4    1  0.4333905E+000  0.1883057E+03  0.7546771E-02  0.1159998E+00
         21   -1    0    0  503  502  0.00000000000E+00  0.00000000000E+00  0.74689143168E+03  0.74689143168E+03  0.00000000000E+00 0.  1.
         21   -1    0    0  501  503 -0.00000000000E+00 -0.00000000000E+00 -0.99597897256E+02  0.99597897256E+02  0.00000000000E+00 0.  1.
          6    1    1    2  501    0 -0.67811853237E+02 -0.30522209666E+02  0.17465546333E+02  0.18911398159E+03  0.17300000000E+03 0.  1.
         -6    1    1    2    0  502  0.67811853237E+02  0.30522209666E+02  0.62982798809E+03  0.65737534735E+03  0.17300000000E+03 0.  1.
<mgrwt>
<rscale>  2 0.18830574E+03</rscale>
<asrwt>0</asrwt>
<pdfrwt beam="1">  1       21 0.11490637E+00 0.18830574E+03</pdfrwt>
<pdfrwt beam="2">  1       21 0.15322754E-01 0.18830574E+03</pdfrwt>
<totfact> 0.22226110E+04</totfact>
</mgrwt>
</event>
<event>
 4    1  0.4333905E+000  0.1795701E+03  0.7546771E-02  0.1168220E+00
         21   -1    0    0  501  502  0.00000000000E+00  0.00000000000E+00  0.49669694431E+02  0.49669694431E+02  0.00000000000E+00 0. -1.
         21   -1    0    0  502  503 -0.00000000000E+00 -0.00000000000E+00 -0.67704170587E+03  0.67704170587E+03  0.00000000000E+00 0. -1.
          6    1    1    2  501    0  0.44206750899E+02 -0.19031510932E+02 -0.23999870283E+03  0.29974124273E+03  0.17300000000E+03 0.  1.
         -6    1    1    2    0  503 -0.44206750899E+02  0.19031510932E+02 -0.38737330861E+03  0.42697015757E+03  0.17300000000E+03 0.  1.
<mgrwt>
<rscale>  2 0.17957014E+03</rscale>
<asrwt>0</asrwt>
<pdfrwt beam="1">  1       21 0.76414918E-02 0.17957014E+03</pdfrwt>
<pdfrwt beam="2">  1       21 0.10416026E+00 0.17957014E+03</pdfrwt>
<totfact> 0.97328362E+04</totfact>
</mgrwt>
</event>
<event>
 4    1  0.4333905E+000  0.2322661E+03  0.7546771E-02  0.1125055E+00
         21   -1    0    0  501  502  0.00000000000E+00  0.00000000000E+00  0.82451677053E+02  0.82451677053E+02  0.00000000000E+00 0.  1.
         21   -1    0    0  502  503 -0.00000000000E+00 -0.00000000000E+00 -0.69999914182E+03  0.69999914182E+03  0.00000000000E+00 0.  1.
          6    1    1    2  501    0 -0.11425505439E+03 -0.10471057657E+03 -0.20880424313E+03  0.31232472564E+03  0.17300000000E+03 0.  1.
         -6    1    1    2    0  503  0.11425505439E+03  0.10471057657E+03 -0.40874322164E+03  0.47012609323E+03  0.17300000000E+03 0.  1.
<mgrwt>
<rscale>  2 0.23226606E+03</rscale>
<asrwt>0</asrwt>
<pdfrwt beam="1">  1       21 0.12684874E-01 0.23226606E+03</pdfrwt>
<pdfrwt beam="2">  1       21 0.10769217E+00 0.23226606E+03</pdfrwt>
<totfact> 0.35761559E+04</totfact>
</mgrwt>
</event>
<event>
 4    1  0.4333905E+000  0.2950837E+03  0.7546771E-02  0.1087724E+00
         21   -1    0    0  501  502  0.00000000000E+00  0.00000000000E+00  0.28976787699E+03  0.28976787699E+03  0.00000000000E+00 0. -1.
         21   -1    0    0  502  503 -0.00000000000E+00 -0.00000000000E+00 -0.38895231698E+03  0.38895231698E+03  0.00000000000E+00 0.  1.
          6    1    1    2  501    0 -0.12089519796E+03 -0.20622739005E+03  0.11224354360E+03  0.31571030768E+03  0.17300000000E+03 0. -1.
         -6    1    1    2    0  503  0.12089519796E+03  0.20622739005E+03 -0.21142798359E+03  0.36300988629E+03  0.17300000000E+03 0.  1.
<mgrwt>
<rscale>  2 0.29508369E+03</rscale>
<asrwt>0</asrwt>
<pdfrwt beam="1">  1       21 0.44579673E-01 0.29508369E+03</pdfrwt>
<pdfrwt beam="2">  1       21 0.59838819E-01 0.29508369E+03</pdfrwt>
<totfact> 0.11900321E+04</totfact>
</mgrwt>
</event>
<event>
 4    1  0.4333905E+000  0.2120304E+03  0.7546771E-02  0.1139968E+00
         21   -1    0    0  501  502  0.00000000000E+00  0.00000000000E+00  0.10150494638E+04  0.10150494638E+04  0.00000000000E+00 0.  1.
         21   -1    0    0  502  503 -0.00000000000E+00 -0.00000000000E+00 -0.45561233906E+02  0.45561233906E+02  0.00000000000E+00 0.  1.
          6    1    1    2  501    0 -0.82466389038E+02  0.90703836323E+02  0.57331317024E+03  0.61126498543E+03  0.17300000000E+03 0.  1.
         -6    1    1    2    0  503  0.82466389038E+02 -0.90703836323E+02  0.39617505963E+03  0.44934571225E+03  0.17300000000E+03 0.  1.
<mgrwt>
<rscale>  2 0.21203040E+03</rscale>
<asrwt>0</asrwt>
<pdfrwt beam="1">  1       21 0.15616144E+00 0.21203040E+03</pdfrwt>
<pdfrwt beam="2">  1       21 0.70094214E-02 0.21203040E+03</pdfrwt>
<totfact> 0.40081609E+04</totfact>
</mgrwt>
</event>
<event>
 4    1  0.4333905E+000  0.3379970E+03  0.7546771E-02  0.1067652E+00
         21   -1    0    0  501  502  0.00000000000E+00  0.00000000000E+00  0.71058762212E+03  0.71058762212E+03  0.00000000000E+00 0. -1.
         21   -1    0    0  502  503 -0.00000000000E+00 -0.00000000000E+00 -0.23207226891E+03  0.23207226891E+03  0.00000000000E+00 0. -1.
          6    1    1    2  501    0 -0.17878772695E+03 -0.22879667690E+03  0.50051090205E+03  0.60394795615E+03  0.17300000000E+03 0. -1.
         -6    1    1    2    0  503  0.17878772695E+03  0.22879667690E+03 -0.21995548841E+02  0.33871193489E+03  0.17300000000E+03 0. -1.
<mgrwt>
<rscale>  2 0.33799700E+03</rscale>
<asrwt>0</asrwt>
<pdfrwt beam="1">  1       21 0.10932117E+00 0.33799700E+03</pdfrwt>
<pdfrwt beam="2">  1       21 0.35703426E-01 0.33799700E+03</pdfrwt>
<totfact> 0.45870838E+03</totfact>
</mgrwt>
</event>
<event>
 4    1  0.4333905E+000  0.2705204E+03  0.7546771E-02  0.1100982E+00
         21   -1    0    0  501  502  0.00000000000E+00  0.00000000000E+00  0.77713068337E+03  0.77713068337E+03  0.00000000000E+00 0.  1.
         21   -1    0    0  502  503 -0.00000000000E+00 -0.00000000000E+00 -0.95697773631E+02  0.95697773631E+02  0.00000000000E+00 0.  1.
          6    1    1    2  501    0  0.15061019632E+03 -0.14341840582E+03  0.39588396048E+03  0.47948449456E+03  0.17300000000E+03 0.  1.
         -6    1    1    2    0  503 -0.15061019632E+03  0.14341840582E+03  0.28554894926E+03  0.39334396244E+03  0.17300000000E+03 0.  1.
<mgrwt>
<rscale>  2 0.27052037E+03</rscale>
<asrwt>0</asrwt>
<pdfrwt beam="1">  1       21 0.11955856E+00 0.27052037E+03</pdfrwt>
<pdfrwt beam="2">  1       21 0.14722735E-01 0.27052037E+03</pdfrwt>
<totfact> 0.20719925E+04</totfact>
</mgrwt>
</event>
<event>
 4    1  0.4333905E+000  0.2374907E+03  0.7546771E-02  0.1121476E+00
         21   -1    0    0  503  502  0.00000000000E+00  0.00000000000E+00  0.51648937889E+03  0.51648937889E+03  0.00000000000E+00 0. -1.
         21   -1    0    0  501  503 -0.00000000000E+00 -0.00000000000E+00 -0.37800871994E+03  0.37800871994E+03  0.00000000000E+00 0.  1.
          6    1    1    2  501    0 -0.78314390854E+02 -0.14261722582E+03 -0.30791335341E+03  0.38886045071E+03  0.17300000000E+03 0.  1.
         -6    1    1    2    0  502  0.78314390854E+02  0.14261722582E+03  0.44639401237E+03  0.50563764812E+03  0.17300000000E+03 0. -1.
<mgrwt>
<rscale>  2 0.23749067E+03</rscale>
<asrwt>0</asrwt>
<pdfrwt beam="1">  1       21 0.79459905E-01 0.23749067E+03</pdfrwt>
<pdfrwt beam="2">  1       21 0.58155187E-01 0.23749067E+03</pdfrwt>
<totfact> 0.37395548E+03</totfact>
</mgrwt>
</event>
<event>
 4    1  0.4333905E+000  0.2544013E+03  0.7546771E-02  0.1110554E+00
         21   -1    0    0  501  502  0.00000000000E+00  0.00000000000E+00  0.72262770888E+02  0.72262770888E+02  0.00000000000E+00 0.  1.
         21   -1    0    0  502  503 -0.00000000000E+00 -0.00000000000E+00 -0.11301933609E+04  0.11301933609E+04  0.00000000000E+00 0.  1.
          6    1    1    2  501    0 -0.97876945236E+02  0.15878012727E+03 -0.25505921518E+03  0.36024329067E+03  0.17300000000E+03 0.  1.
         -6    1    1    2    0  503  0.97876945236E+02 -0.15878012727E+03 -0.80287137484E+03  0.84221284113E+03  0.17300000000E+03 0.  1.
<mgrwt>
<rscale>  2 0.25440131E+03</rscale>
<asrwt>0</asrwt>
<pdfrwt beam="1">  1       21 0.11117349E-01 0.25440131E+03</pdfrwt>
<pdfrwt beam="2">  1       21 0.17387590E+00 0.25440131E+03</pdfrwt>
<totfact> 0.12927390E+04</totfact>
</mgrwt>
</event>
<event>
 4    1  0.4333905E+000  0.2364444E+03  0.7546771E-02  0.1122184E+00
         21   -1    0    0  503  502  0.00000000000E+00  0.00000000000E+00  0.25002101617E+03  0.25002101617E+03  0.00000000000E+00 0.  1.
         21   -1    0    0  501  503 -0.00000000000E+00 -0.00000000000E+00 -0.22422473772E+03  0.22422473772E+03  0.00000000000E+00 0. -1.
          6    1    1    2  501    0 -0.12996926639E+03  0.95314888645E+02  0.43144694321E+00  0.23644475961E+03  0.17300000000E+03 0. -1.
         -6    1    1    2    0  502  0.12996926639E+03 -0.95314888645E+02  0.25364831506E+02  0.23780099428E+03  0.17300000000E+03 0. -1.
<mgrwt>
<rscale>  2 0.23644437E+03</rscale>
<asrwt>0</asrwt>
<pdfrwt beam="1">  1       21 0.38464772E-01 0.23644437E+03</pdfrwt>
<pdfrwt beam="2">  1       21 0.34496114E-01 0.23644437E+03</pdfrwt>
<totfact> 0.51749686E+04</totfact>
</mgrwt>
</event>
<event>
 4    1  0.4333905E+000  0.1939451E+03  0.7546771E-02  0.1154950E+00
         21   -1    0    0  503  502  0.00000000000E+00  0.00000000000E+00  0.29973368502E+03  0.29973368502E+03  0.00000000000E+00 0. -1.
         21   -1    0    0  501  503 -0.00000000000E+00 -0.00000000000E+00 -0.18080509107E+03  0.18080509107E+03  0.00000000000E+00 0. -1.
          6    1    1    2  501    0  0.77450023904E+02  0.41075375569E+02 -0.73428168570E+02  0.20737981729E+03  0.17300000000E+03 0. -1.
         -6    1    1    2    0  502 -0.77450023904E+02 -0.41075375569E+02  0.19235676252E+03  0.27315895879E+03  0.17300000000E+03 0. -1.
<mgrwt>
<rscale>  2 0.19394508E+03</rscale>
<asrwt>0</asrwt>
<pdfrwt beam="1">  1       21 0.46112875E-01 0.19394508E+03</pdfrwt>
<pdfrwt beam="2">  1       21 0.27816168E-01 0.19394508E+03</pdfrwt>
<totfact> 0.55576748E+04</totfact>
</mgrwt>
</event>
<event>
 4    1  0.4333905E+000  0.3039145E+03  0.7546771E-02  0.1083300E+00
         21   -1    0    0  501  502  0.00000000000E+00  0.00000000000E+00  0.61586739403E+03  0.61586739403E+03  0.00000000000E+00 0. -1.
         21   -1    0    0  502  503 -0.00000000000E+00 -0.00000000000E+00 -0.21895929596E+03  0.21895929596E+03  0.00000000000E+00 0.  1.
          6    1    1    2  501    0  0.19980015921E+03  0.15004976748E+03  0.43274915085E+03  0.52880607401E+03  0.17300000000E+03 0. -1.
         -6    1    1    2    0  503 -0.19980015921E+03 -0.15004976748E+03 -0.35841052785E+02  0.30602061599E+03  0.17300000000E+03 0.  1.
<mgrwt>
<rscale>  2 0.30391452E+03</rscale>
<asrwt>0</asrwt>
<pdfrwt beam="1">  1       21 0.94748829E-01 0.30391452E+03</pdfrwt>
<pdfrwt beam="2">  1       21 0.33686046E-01 0.30391452E+03</pdfrwt>
<totfact> 0.74033761E+03</totfact>
</mgrwt>
</event>
<event>
 4    1  0.4333905E+000  0.1842914E+03  0.7546771E-02  0.1163713E+00
         21   -1    0    0  503  502  0.00000000000E+00  0.00000000000E+00  0.36038672256E+03  0.36038672256E+03  0.00000000000E+00 0.  1.
         21   -1    0    0  501  503 -0.00000000000E+00 -0.00000000000E+00 -0.11290386628E+03  0.11290386628E+03  0.00000000000E+00 0.  1.
          6    1    1    2  501    0 -0.19804201750E+02 -0.60349949149E+02  0.27529517353E+02  0.18633624740E+03  0.17300000000E+03 0.  1.
         -6    1    1    2    0  502  0.19804201750E+02  0.60349949149E+02  0.21995333892E+03  0.28695434144E+03  0.17300000000E+03 0.  1.
<mgrwt>
<rscale>  2 0.18429141E+03</rscale>
<asrwt>0</asrwt>
<pdfrwt beam="1">  1       21 0.55444111E-01 0.18429141E+03</pdfrwt>
<pdfrwt beam="2">  1       21 0.17369826E-01 0.18429141E+03</pdfrwt>
<totfact> 0.92249195E+04</totfact>
</mgrwt>
</event>
<event>
 4    1  0.4333905E+000  0.1835641E+03  0.7546771E-02  0.1164398E+00
         21   -1    0    0  503  502  0.00000000000E+00  0.00000000000E+00  0.14627971644E+03  0.14627971644E+03  0.00000000000E+00 0.  1.
         21   -1    0    0  501  503 -0.00000000000E+00 -0.00000000000E+00 -0.23909989231E+03  0.23909989231E+03  0.00000000000E+00 0.  1.
          6    1    1    2  501    0 -0.19638825073E+02  0.58147076854E+02 -0.95521688062E+01  0.18381243137E+03  0.17300000000E+03 0. -1.
         -6    1    1    2    0  502  0.19638825073E+02 -0.58147076854E+02 -0.83268007066E+02  0.20156717738E+03  0.17300000000E+03 0. -1.
<mgrwt>
<rscale>  2 0.18356407E+03</rscale>
<asrwt>0</asrwt>
<pdfrwt beam="1">  1       21 0.22504572E-01 0.18356407E+03</pdfrwt>
<pdfrwt beam="2">  1       21 0.36784598E-01 0.18356407E+03</pdfrwt>
<totfact> 0.13222521E+05</totfact>
</mgrwt>
</event>
<event>
 4    1  0.4333905E+000  0.2674943E+03  0.7546771E-02  0.1102722E+00
         21   -1    0    0  501  502  0.00000000000E+00  0.00000000000E+00  0.85961661463E+02  0.85961661463E+02  0.00000000000E+00 0.  1.
         21   -1    0    0  502  503 -0.00000000000E+00 -0.00000000000E+00 -0.90936651472E+03  0.90936651472E+03  0.00000000000E+00 0. -1.
          6    1    1    2  501    0 -0.13148468565E+03  0.15599994797E+03 -0.26690536039E+03  0.37787786086E+03  0.17300000000E+03 0. -1.
         -6    1    1    2    0  503  0.13148468565E+03 -0.15599994797E+03 -0.55649949287E+03  0.61745031532E+03  0.17300000000E+03 0. -1.
<mgrwt>
<rscale>  2 0.26749431E+03</rscale>
<asrwt>0</asrwt>
<pdfrwt beam="1">  1       21 0.13224871E-01 0.26749431E+03</pdfrwt>
<pdfrwt beam="2">  1       21 0.13990254E+00 0.26749431E+03</pdfrwt>
<totfact> 0.16898281E+04</totfact>
</mgrwt>
</event>
<event>
 4    1  0.4333905E+000  0.1950853E+03  0.7546771E-02  0.1153953E+00
         21   -1    0    0  501  502  0.00000000000E+00  0.00000000000E+00  0.36458744938E+02  0.36458744938E+02  0.00000000000E+00 0.  1.
         21   -1    0    0  502  503 -0.00000000000E+00 -0.00000000000E+00 -0.11779508456E+04  0.11779508456E+04  0.00000000000E+00 0.  1.
          6    1    1    2  501    0 -0.83918123837E+02 -0.32970067994E+02 -0.36588890230E+03  0.41464800218E+03  0.17300000000E+03 0. -1.
         -6    1    1    2    0  503  0.83918123837E+02  0.32970067994E+02 -0.77560319837E+03  0.79976158836E+03  0.17300000000E+03 0. -1.
<mgrwt>
<rscale>  2 0.19508531E+03</rscale>
<asrwt>0</asrwt>
<pdfrwt beam="1">  1       21 0.56090379E-02 0.19508531E+03</pdfrwt>
<pdfrwt beam="2">  1       21 0.18122320E+00 0.19508531E+03</pdfrwt>
<totfact> 0.39431873E+04</totfact>
</mgrwt>
</event>
<event>
 4    1  0.4333905E+000  0.2056443E+03  0.7546771E-02  0.1145062E+00
         21   -1    0    0  501  502  0.00000000000E+00  0.00000000000E+00  0.17759489340E+03  0.17759489340E+03  0.00000000000E+00 0. -1.
         21   -1    0    0  502  503 -0.00000000000E+00 -0.00000000000E+00 -0.24208787710E+03  0.24208787710E+03  0.00000000000E+00 0.  1.
          6    1    1    2  501    0  0.61790047158E+02 -0.92426029975E+02 -0.53947437190E+01  0.20571505585E+03  0.17300000000E+03 0. -1.
         -6    1    1    2    0  503 -0.61790047158E+02  0.92426029975E+02 -0.59098239977E+02  0.21396771465E+03  0.17300000000E+03 0.  1.
<mgrwt>
<rscale>  2 0.20564431E+03</rscale>
<asrwt>0</asrwt>
<pdfrwt beam="1">  1       21 0.27322291E-01 0.20564431E+03</pdfrwt>
<pdfrwt beam="2">  1       21 0.37244289E-01 0.20564431E+03</pdfrwt>
<totfact> 0.88334419E+04</totfact>
</mgrwt>
</event>
<event>
 4    1  0.4333905E+000  0.1800595E+03  0.7546771E-02  0.1167745E+00
         21   -1    0    0  501  502  0.00000000000E+00  0.00000000000E+00  0.18645446684E+03  0.18645446684E+03  0.00000000000E+00 0.  1.
         21   -1    0    0  502  503 -0.00000000000E+00 -0.00000000000E+00 -0.34575028441E+03  0.34575028441E+03  0.00000000000E+00 0. -1.
          6    1    1    2  501    0 -0.48791987037E+02  0.10572658493E+02  0.10796507326E+03  0.20994736519E+03  0.17300000000E+03 0.  1.
         -6    1    1    2    0  503  0.48791987037E+02 -0.10572658493E+02 -0.26726089082E+03  0.32225738606E+03  0.17300000000E+03 0. -1.
<mgrwt>
<rscale>  2 0.18005954E+03</rscale>
<asrwt>0</asrwt>
<pdfrwt beam="1">  1       21 0.28685303E-01 0.18005954E+03</pdfrwt>
<pdfrwt beam="2">  1       21 0.53192351E-01 0.18005954E+03</pdfrwt>
<totfact> 0.39161918E+04</totfact>
</mgrwt>
</event>
<event>
 4    1  0.4333905E+000  0.3029553E+03  0.7546771E-02  0.1083773E+00
         21   -1    0    0  501  502  0.00000000000E+00  0.00000000000E+00  0.18759175916E+03  0.18759175916E+03  0.00000000000E+00 0. -1.
         21   -1    0    0  502  503 -0.00000000000E+00 -0.00000000000E+00 -0.55171952713E+03  0.55171952713E+03  0.00000000000E+00 0. -1.
          6    1    1    2  501    0  0.65553745863E+02  0.23990750153E+03 -0.57691647010E+02  0.30839946340E+03  0.17300000000E+03 0. -1.
         -6    1    1    2    0  503 -0.65553745863E+02 -0.23990750153E+03 -0.30643612096E+03  0.43091182290E+03  0.17300000000E+03 0. -1.
<mgrwt>
<rscale>  2 0.30295528E+03</rscale>
<asrwt>0</asrwt>
<pdfrwt beam="1">  1       21 0.28860271E-01 0.30295528E+03</pdfrwt>
<pdfrwt beam="2">  1       21 0.84879926E-01 0.30295528E+03</pdfrwt>
<totfact> 0.13013757E+04</totfact>
</mgrwt>
</event>
<event>
 4    1  0.4333905E+000  0.2034698E+03  0.7546771E-02  0.1146844E+00
         21   -1    0    0  501  502  0.00000000000E+00  0.00000000000E+00  0.28256622863E+03  0.28256622863E+03  0.00000000000E+00 0. -1.
         21   -1    0    0  502  503 -0.00000000000E+00 -0.00000000000E+00 -0.26410612279E+03  0.26410612279E+03  0.00000000000E+00 0. -1.
          6    1    1    2  501    0  0.97382163076E+02  0.44583238447E+02  0.19161824443E+03  0.27949508481E+03  0.17300000000E+03 0. -1.
         -6    1    1    2    0  503 -0.97382163076E+02 -0.44583238447E+02 -0.17315813859E+03  0.26717726661E+03  0.17300000000E+03 0. -1.
<mgrwt>
<rscale>  2 0.20346978E+03</rscale>
<asrwt>0</asrwt>
<pdfrwt beam="1">  1       21 0.43471727E-01 0.20346978E+03</pdfrwt>
<pdfrwt beam="2">  1       21 0.40631711E-01 0.20346978E+03</pdfrwt>
<totfact> 0.29504421E+04</totfact>
</mgrwt>
</event>
<event>
 4    1  0.4333905E+000  0.1746737E+03  0.7546771E-02  0.1173060E+00
         21   -1    0    0  501  502  0.00000000000E+00  0.00000000000E+00  0.10036780831E+04  0.10036780831E+04  0.00000000000E+00 0. -1.
         21   -1    0    0  502  503 -0.00000000000E+00 -0.00000000000E+00 -0.15666703937E+03  0.15666703937E+03  0.00000000000E+00 0. -1.
          6    1    1    2  501    0 -0.13709128856E+01 -0.24083939211E+02  0.94435820401E+03  0.96037666205E+03  0.17300000000E+03 0. -1.
         -6    1    1    2    0  503  0.13709128856E+01  0.24083939211E+02 -0.97347160312E+02  0.19996846039E+03  0.17300000000E+03 0. -1.
<mgrwt>
<rscale>  2 0.17467374E+03</rscale>
<asrwt>0</asrwt>
<pdfrwt beam="1">  1       21 0.15441201E+00 0.17467374E+03</pdfrwt>
<pdfrwt beam="2">  1       21 0.24102622E-01 0.17467374E+03</pdfrwt>
<totfact> 0.45684815E+03</totfact>
</mgrwt>
</event>
<event>
 4    1  0.4333905E+000  0.2644359E+03  0.7546771E-02  0.1104507E+00
         21   -1    0    0  503  502  0.00000000000E+00  0.00000000000E+00  0.63200644431E+03  0.63200644431E+03  0.00000000000E+00 0. -1.
         21   -1    0    0  501  503 -0.00000000000E+00 -0.00000000000E+00 -0.18815633413E+03  0.18815633413E+03  0.00000000000E+00 0. -1.
          6    1    1    2  501    0  0.70055810852E+02  0.18732193021E+03 -0.41284860905E+02  0.26763923836E+03  0.17300000000E+03 0. -1.
         -6    1    1    2    0  502 -0.70055810852E+02 -0.18732193021E+03  0.48513497108E+03  0.55252354008E+03  0.17300000000E+03 0. -1.
<mgrwt>
<rscale>  2 0.26443586E+03</rscale>
<asrwt>0</asrwt>
<pdfrwt beam="1">  1       21 0.97231760E-01 0.26443586E+03</pdfrwt>
<pdfrwt beam="2">  1       21 0.28947129E-01 0.26443586E+03</pdfrwt>
<totfact> 0.95833290E+03</totfact>
</mgrwt>
</event>
<event>
 4    1  0.4333905E+000  0.1863402E+03  0.7546771E-02  0.1161804E+00
         21   -1    0    0  501  502  0.00000000000E+00  0.00000000000E+00  0.11627985907E+03  0.11627985907E+03  0.00000000000E+00 0.  1.
         21   -1    0    0  502  503 -0.00000000000E+00 -0.00000000000E+00 -0.37563350275E+03  0.37563350275E+03  0.00000000000E+00 0.  1.
          6    1    1    2  501    0 -0.20069474898E+02 -0.66263717488E+02 -0.18303809817E+02  0.18723699830E+03  0.17300000000E+03 0.  1.
         -6    1    1    2    0  503  0.20069474898E+02  0.66263717488E+02 -0.24104983387E+03  0.30467636352E+03  0.17300000000E+03 0.  1.
<mgrwt>
<rscale>  2 0.18634018E+03</rscale>
<asrwt>0</asrwt>
<pdfrwt beam="1">  1       21 0.17889209E-01 0.18634018E+03</pdfrwt>
<pdfrwt beam="2">  1       21 0.57789769E-01 0.18634018E+03</pdfrwt>
<totfact> 0.79947152E+04</totfact>
</mgrwt>
</event>
<event>
 4    1  0.4333905E+000  0.1768161E+03  0.7546771E-02  0.1170920E+00
         21   -1    0    0  501  502  0.00000000000E+00  0.00000000000E+00  0.37231129649E+03  0.37231129649E+03  0.00000000000E+00 0.  1.
         21   -1    0    0  502  503 -0.00000000000E+00 -0.00000000000E+00 -0.10394591265E+03  0.10394591265E+03  0.00000000000E+00 0.  1.
          6    1    1    2  501    0 -0.35894768019E+02  0.68195031572E+01  0.23856649846E+03  0.29694766237E+03  0.17300000000E+03 0.  1.
         -6    1    1    2    0  503  0.35894768019E+02 -0.68195031572E+01  0.29798885376E+02  0.17930954677E+03  0.17300000000E+03 0.  1.
<mgrwt>
<rscale>  2 0.17681612E+03</rscale>
<asrwt>0</asrwt>
<pdfrwt beam="1">  1       21 0.57278661E-01 0.17681612E+03</pdfrwt>
<pdfrwt beam="2">  1       21 0.15991679E-01 0.17681612E+03</pdfrwt>
<totfact> 0.10048466E+05</totfact>
</mgrwt>
</event>
<event>
 4    1  0.4333905E+000  0.1992217E+03  0.7546771E-02  0.1150397E+00
         21   -1    0    0  501  502  0.00000000000E+00  0.00000000000E+00  0.15583390270E+03  0.15583390270E+03  0.00000000000E+00 0.  1.
         21   -1    0    0  502  503 -0.00000000000E+00 -0.00000000000E+00 -0.28277132871E+03  0.28277132871E+03  0.00000000000E+00 0. -1.
          6    1    1    2  501    0  0.94176277839E+02 -0.29851714284E+02  0.56406616163E+01  0.19930156351E+03  0.17300000000E+03 0.  1.
         -6    1    1    2    0  503 -0.94176277839E+02  0.29851714284E+02 -0.13257808762E+03  0.23930366790E+03  0.17300000000E+03 0. -1.
<mgrwt>
<rscale>  2 0.19922173E+03</rscale>
<asrwt>0</asrwt>
<pdfrwt beam="1">  1       21 0.23974447E-01 0.19922173E+03</pdfrwt>
<pdfrwt beam="2">  1       21 0.43503281E-01 0.19922173E+03</pdfrwt>
<totfact> 0.83083269E+04</totfact>
</mgrwt>
</event>
<event>
 4    1  0.4333905E+000  0.4179867E+03  0.7546771E-02  0.1037724E+00
         21   -1    0    0  501  502  0.00000000000E+00  0.00000000000E+00  0.14390375050E+04  0.14390375050E+04  0.00000000000E+00 0.  1.
         21   -1    0    0  502  503 -0.00000000000E+00 -0.00000000000E+00 -0.16260026520E+03  0.16260026520E+03  0.00000000000E+00 0.  1.
          6    1    1    2  501    0  0.75326494710E+02  0.37297422479E+03  0.10412821502E+04  0.11220433902E+04  0.17300000000E+03 0.  1.
         -6    1    1    2    0  503 -0.75326494710E+02 -0.37297422479E+03  0.23515508959E+03  0.47959438000E+03  0.17300000000E+03 0.  1.
<mgrwt>
<rscale>  2 0.41798667E+03</rscale>
<asrwt>0</asrwt>
<pdfrwt beam="1">  1       21 0.22139038E+00 0.41798667E+03</pdfrwt>
<pdfrwt beam="2">  1       21 0.25015426E-01 0.41798667E+03</pdfrwt>
<totfact> 0.12617177E+03</totfact>
</mgrwt>
</event>
<event>
 4    1  0.4333905E+000  0.2293444E+03  0.7546771E-02  0.1127102E+00
         21   -1    0    0  501  502  0.00000000000E+00  0.00000000000E+00  0.60132807127E+03  0.60132807127E+03  0.00000000000E+00 0.  1.
         21   -1    0    0  502  503 -0.00000000000E+00 -0.00000000000E+00 -0.88785732241E+02  0.88785732241E+02  0.00000000000E+00 0. -1.
          6    1    1    2  501    0  0.14534812216E+03  0.39290806980E+02  0.29825835821E+03  0.37624047147E+03  0.17300000000E+03 0. -1.
         -6    1    1    2    0  503 -0.14534812216E+03 -0.39290806980E+02  0.21428398081E+03  0.31387333204E+03  0.17300000000E+03 0.  1.
<mgrwt>
<rscale>  2 0.22934438E+03</rscale>
<asrwt>0</asrwt>
<pdfrwt beam="1">  1       21 0.92512008E-01 0.22934438E+03</pdfrwt>
<pdfrwt beam="2">  1       21 0.13659344E-01 0.22934438E+03</pdfrwt>
<totfact> 0.44993490E+04</totfact>
</mgrwt>
</event>
<event>
 4    1  0.4333905E+000  0.2679287E+03  0.7546771E-02  0.1102471E+00
         21   -1    0    0  503  502  0.00000000000E+00  0.00000000000E+00  0.40008344983E+03  0.40008344983E+03  0.00000000000E+00 0.  1.
         21   -1    0    0  501  503 -0.00000000000E+00 -0.00000000000E+00 -0.27077938438E+03  0.27077938438E+03  0.00000000000E+00 0. -1.
          6    1    1    2  501    0 -0.15278396946E+03 -0.13606567496E+03 -0.13017789438E+03  0.29787932693E+03  0.17300000000E+03 0. -1.
         -6    1    1    2    0  502  0.15278396946E+03  0.13606567496E+03  0.25948195983E+03  0.37298350728E+03  0.17300000000E+03 0.  1.
<mgrwt>
<rscale>  2 0.26792874E+03</rscale>
<asrwt>0</asrwt>
<pdfrwt beam="1">  1       21 0.61551300E-01 0.26792874E+03</pdfrwt>
<pdfrwt beam="2">  1       21 0.41658367E-01 0.26792874E+03</pdfrwt>
<totfact> 0.13033742E+04</totfact>
</mgrwt>
</event>
<event>
 4    1  0.4333905E+000  0.2786878E+03  0.7546771E-02  0.1096408E+00
         21   -1    0    0  501  502  0.00000000000E+00  0.00000000000E+00  0.42419053390E+03  0.42419053390E+03  0.00000000000E+00 0.  1.
         21   -1    0    0  502  503 -0.00000000000E+00 -0.00000000000E+00 -0.18321781986E+03  0.18321781986E+03  0.00000000000E+00 0.  1.
          6    1    1    2  501    0 -0.20951636513E+03  0.61973923414E+02  0.11260116613E+03  0.30057594224E+03  0.17300000000E+03 0.  1.
         -6    1    1    2    0  503  0.20951636513E+03 -0.61973923414E+02  0.12837154792E+03  0.30683241152E+03  0.17300000000E+03 0.  1.
<mgrwt>
<rscale>  2 0.27868777E+03</rscale>
<asrwt>0</asrwt>
<pdfrwt beam="1">  1       21 0.65260082E-01 0.27868777E+03</pdfrwt>
<pdfrwt beam="2">  1       21 0.28187357E-01 0.27868777E+03</pdfrwt>
<totfact> 0.24905236E+04</totfact>
</mgrwt>
</event>
<event>
 4    1  0.4333905E+000  0.1862131E+03  0.7546771E-02  0.1161922E+00
         21   -1    0    0  503  502  0.00000000000E+00  0.00000000000E+00  0.27415473543E+03  0.27415473543E+03  0.00000000000E+00 0. -1.
         21   -1    0    0  501  503 -0.00000000000E+00 -0.00000000000E+00 -0.13740328996E+03  0.13740328996E+03  0.00000000000E+00 0. -1.
          6    1    1    2  501    0  0.43448978726E+01  0.68756358106E+02  0.10357689449E+02  0.18650092935E+03  0.17300000000E+03 0. -1.
         -6    1    1    2    0  502 -0.43448978726E+01 -0.68756358106E+02  0.12639375603E+03  0.22505709604E+03  0.17300000000E+03 0. -1.
<mgrwt>
<rscale>  2 0.18621309E+03</rscale>
<asrwt>0</asrwt>
<pdfrwt beam="1">  1       21 0.42177652E-01 0.18621309E+03</pdfrwt>
<pdfrwt beam="2">  1       21 0.21138968E-01 0.18621309E+03</pdfrwt>
<totfact> 0.11282757E+05</totfact>
</mgrwt>
</event>
<event>
 4    1  0.4333905E+000  0.1863075E+03  0.7546771E-02  0.1161834E+00
         21   -1    0    0  501  502  0.00000000000E+00  0.00000000000E+00  0.13086186983E+03  0.13086186983E+03  0.00000000000E+00 0. -1.
         21   -1    0    0  502  503 -0.00000000000E+00 -0.00000000000E+00 -0.27313926081E+03  0.27313926081E+03  0.00000000000E+00 0. -1.
          6    1    1    2  501    0 -0.63895691567E+02 -0.26435437364E+02 -0.10547937463E+03  0.21409434888E+03  0.17300000000E+03 0. -1.
         -6    1    1    2    0  503  0.63895691567E+02  0.26435437364E+02 -0.36798016356E+02  0.18990678176E+03  0.17300000000E+03 0. -1.
<mgrwt>
<rscale>  2 0.18630752E+03</rscale>
<asrwt>0</asrwt>
<pdfrwt beam="1">  1       21 0.20132596E-01 0.18630752E+03</pdfrwt>
<pdfrwt beam="2">  1       21 0.42021424E-01 0.18630752E+03</pdfrwt>
<totfact> 0.12454576E+05</totfact>
</mgrwt>
</event>
<event>
 4    1  0.4333905E+000  0.2794856E+03  0.7546771E-02  0.1095970E+00
         21   -1    0    0  503  502  0.00000000000E+00  0.00000000000E+00  0.55010372394E+03  0.55010372394E+03  0.00000000000E+00 0.  1.
         21   -1    0    0  501  503 -0.00000000000E+00 -0.00000000000E+00 -0.15691193957E+03  0.15691193957E+03  0.00000000000E+00 0. -1.
          6    1    1    2  501    0  0.18767685190E+03 -0.11384453816E+03  0.87601141594E+02  0.29289271007E+03  0.17300000000E+03 0.  1.
         -6    1    1    2    0  502 -0.18767685190E+03  0.11384453816E+03  0.30559064278E+03  0.41412295343E+03  0.17300000000E+03 0.  1.
<mgrwt>
<rscale>  2 0.27948556E+03</rscale>
<asrwt>0</asrwt>
<pdfrwt beam="1">  1       21 0.84631341E-01 0.27948556E+03</pdfrwt>
<pdfrwt beam="2">  1       21 0.24140299E-01 0.27948556E+03</pdfrwt>
<totfact> 0.18715239E+04</totfact>
</mgrwt>
</event>
<event>
 4    1  0.4333905E+000  0.2470291E+03  0.7546771E-02  0.1115197E+00
         21   -1    0    0  501  502  0.00000000000E+00  0.00000000000E+00  0.12701036466E+03  0.12701036466E+03  0.00000000000E+00 0.  1.
         21   -1    0    0  502  503 -0.00000000000E+00 -0.00000000000E+00 -0.48325267799E+03  0.48325267799E+03  0.00000000000E+00 0. -1.
          6    1    1    2  501    0 -0.15450436289E+03 -0.84986989737E+02 -0.20131744336E+03  0.31867240166E+03  0.17300000000E+03 0.  1.
         -6    1    1    2    0  503  0.15450436289E+03  0.84986989737E+02 -0.15492486997E+03  0.29159064099E+03  0.17300000000E+03 0. -1.
<mgrwt>
<rscale>  2 0.24702912E+03</rscale>
<asrwt>0</asrwt>
<pdfrwt beam="1">  1       21 0.19540056E-01 0.24702912E+03</pdfrwt>
<pdfrwt beam="2">  1       21 0.74346566E-01 0.24702912E+03</pdfrwt>
<totfact> 0.38067860E+04</totfact>
</mgrwt>
</event>
<event>
 4    1  0.4333905E+000  0.1827993E+03  0.7546771E-02  0.1165121E+00
         21   -1    0    0  501  502  0.00000000000E+00  0.00000000000E+00  0.23766034500E+03  0.23766034500E+03  0.00000000000E+00 0. -1.
         21   -1    0    0  502  503 -0.00000000000E+00 -0.00000000000E+00 -0.16203370006E+03  0.16203370006E+03  0.00000000000E+00 0. -1.
          6    1    1    2  501    0 -0.58988341615E+02  0.26361449004E+01  0.11049434386E+03  0.21359909581E+03  0.17300000000E+03 0. -1.
         -6    1    1    2    0  503  0.58988341615E+02 -0.26361449004E+01 -0.34867698924E+02  0.18609494925E+03  0.17300000000E+03 0. -1.
<mgrwt>
<rscale>  2 0.18279927E+03</rscale>
<asrwt>0</asrwt>
<pdfrwt beam="1">  1       21 0.36563130E-01 0.18279927E+03</pdfrwt>
<pdfrwt beam="2">  1       21 0.24928262E-01 0.18279927E+03</pdfrwt>
<totfact> 0.11026126E+05</totfact>
</mgrwt>
</event>
<event>
 4    1  0.4333905E+000  0.2396803E+03  0.7546771E-02  0.1120006E+00
         21   -1    0    0  503  502  0.00000000000E+00  0.00000000000E+00  0.29806880960E+03  0.29806880960E+03  0.00000000000E+00 0. -1.
         21   -1    0    0  501  503 -0.00000000000E+00 -0.00000000000E+00 -0.20275205040E+03  0.20275205040E+03  0.00000000000E+00 0.  1.
          6    1    1    2  501    0 -0.15417167879E+03 -0.61227122161E+02 -0.80163177851E+01  0.23981436233E+03  0.17300000000E+03 0. -1.
         -6    1    1    2    0  502  0.15417167879E+03  0.61227122161E+02  0.10333307698E+03  0.26100649767E+03  0.17300000000E+03 0.  1.
<mgrwt>
<rscale>  2 0.23968034E+03</rscale>
<asrwt>0</asrwt>
<pdfrwt beam="1">  1       21 0.45856740E-01 0.23968034E+03</pdfrwt>
<pdfrwt beam="2">  1       21 0.31192623E-01 0.23968034E+03</pdfrwt>
<totfact> 0.44032782E+04</totfact>
</mgrwt>
</event>
<event>
 4    1  0.4333905E+000  0.2590217E+03  0.7546771E-02  0.1107732E+00
         21   -1    0    0  503  502  0.00000000000E+00  0.00000000000E+00  0.27481602863E+03  0.27481602863E+03  0.00000000000E+00 0.  1.
         21   -1    0    0  501  503 -0.00000000000E+00 -0.00000000000E+00 -0.26222903679E+03  0.26222903679E+03  0.00000000000E+00 0.  1.
          6    1    1    2  501    0 -0.18572843379E+02 -0.19188093542E+03 -0.64241825521E+02  0.26686936136E+03  0.17300000000E+03 0.  1.
         -6    1    1    2    0  502  0.18572843379E+02  0.19188093542E+03  0.76828817360E+02  0.27017570406E+03  0.17300000000E+03 0.  1.
<mgrwt>
<rscale>  2 0.25902171E+03</rscale>
<asrwt>0</asrwt>
<pdfrwt beam="1">  1       21 0.42279389E-01 0.25902171E+03</pdfrwt>
<pdfrwt beam="2">  1       21 0.40342929E-01 0.25902171E+03</pdfrwt>
<totfact> 0.30856402E+04</totfact>
</mgrwt>
</event>
<event>
 4    1  0.4333905E+000  0.1734060E+03  0.7546771E-02  0.1174342E+00
         21   -1    0    0  501  502  0.00000000000E+00  0.00000000000E+00  0.13158939865E+03  0.13158939865E+03  0.00000000000E+00 0.  1.
         21   -1    0    0  502  503 -0.00000000000E+00 -0.00000000000E+00 -0.23703126782E+03  0.23703126782E+03  0.00000000000E+00 0.  1.
          6    1    1    2  501    0 -0.11327838174E+02  0.35123293336E+01 -0.17777352290E+02  0.17431491798E+03  0.17300000000E+03 0.  1.
         -6    1    1    2    0  503  0.11327838174E+02 -0.35123293336E+01 -0.87664516882E+02  0.19430574849E+03  0.17300000000E+03 0.  1.
<mgrwt>
<rscale>  2 0.17340604E+03</rscale>
<asrwt>0</asrwt>
<pdfrwt beam="1">  1       21 0.20244523E-01 0.17340604E+03</pdfrwt>
<pdfrwt beam="2">  1       21 0.36466349E-01 0.17340604E+03</pdfrwt>
<totfact> 0.16463371E+05</totfact>
</mgrwt>
</event>
<event>
 4    1  0.4333905E+000  0.2466094E+03  0.7546771E-02  0.1115467E+00
         21   -1    0    0  501  502  0.00000000000E+00  0.00000000000E+00  0.29839276335E+03  0.29839276335E+03  0.00000000000E+00 0.  1.
         21   -1    0    0  502  503 -0.00000000000E+00 -0.00000000000E+00 -0.30252307009E+03  0.30252307009E+03  0.00000000000E+00 0.  1.
          6    1    1    2  501    0  0.10369215979E+03 -0.14189824859E+03  0.16956208658E+03  0.29927826209E+03  0.17300000000E+03 0.  1.
         -6    1    1    2    0  503 -0.10369215979E+03  0.14189824859E+03 -0.17369239331E+03  0.30163757135E+03  0.17300000000E+03 0.  1.
<mgrwt>
<rscale>  2 0.24660936E+03</rscale>
<asrwt>0</asrwt>
<pdfrwt beam="1">  1       21 0.45906579E-01 0.24660936E+03</pdfrwt>
<pdfrwt beam="2">  1       21 0.46542011E-01 0.24660936E+03</pdfrwt>
<totfact> 0.19518578E+04</totfact>
</mgrwt>
</event>
<event>
 4    1  0.4333905E+000  0.2309080E+03  0.7546771E-02  0.1126002E+00
         21   -1    0    0  503  502  0.00000000000E+00  0.00000000000E+00  0.37453512653E+03  0.37453512653E+03  0.00000000000E+00 0. -1.
         21   -1    0    0  501  503 -0.00000000000E+00 -0.00000000000E+00 -0.55103335105E+03  0.55103335105E+03  0.00000000000E+00 0. -1.
          6    1    1    2  501    0 -0.70965968823E+02  0.13547441725E+03 -0.48679492494E+03  0.53878361650E+03  0.17300000000E+03 0. -1.
         -6    1    1    2    0  502  0.70965968823E+02 -0.13547441725E+03  0.31029670042E+03  0.38678486107E+03  0.17300000000E+03 0. -1.
<mgrwt>
<rscale>  2 0.23090796E+03</rscale>
<asrwt>0</asrwt>
<pdfrwt beam="1">  1       21 0.57620789E-01 0.23090796E+03</pdfrwt>
<pdfrwt beam="2">  1       21 0.84774361E-01 0.23090796E+03</pdfrwt>
<totfact> 0.33052462E+03</totfact>
</mgrwt>
</event>
<event>
 4    1  0.4333905E+000  0.1925548E+03  0.7546771E-02  0.1156177E+00
         21   -1    0    0  503  502  0.00000000000E+00  0.00000000000E+00  0.16298496719E+04  0.16298496719E+04  0.00000000000E+00 0.  1.
         21   -1    0    0  501  503 -0.00000000000E+00 -0.00000000000E+00 -0.30003030838E+02  0.30003030838E+02  0.00000000000E+00 0. -1.
          6    1    1    2  501    0 -0.70221681612E+02  0.47087983219E+02  0.39184051613E+03  0.43659632707E+03  0.17300000000E+03 0. -1.
         -6    1    1    2    0  502  0.70221681612E+02 -0.47087983219E+02  0.12080061249E+04  0.12232563756E+04  0.17300000000E+03 0.  1.
<mgrwt>
<rscale>  2 0.19255483E+03</rscale>
<asrwt>0</asrwt>
<pdfrwt beam="1">  1       21 0.25074603E+00 0.19255483E+03</pdfrwt>
<pdfrwt beam="2">  1       21 0.46158522E-02 0.19255483E+03</pdfrwt>
<totfact> 0.20272620E+04</totfact>
</mgrwt>
</event>
<event>
 4    1  0.4333905E+000  0.1760797E+03  0.7546771E-02  0.1171652E+00
         21   -1    0    0  501  502  0.00000000000E+00  0.00000000000E+00  0.27433867643E+03  0.27433867643E+03  0.00000000000E+00 0.  1.
         21   -1    0    0  502  503 -0.00000000000E+00 -0.00000000000E+00 -0.15741431542E+03  0.15741431542E+03  0.00000000000E+00 0.  1.
          6    1    1    2  501    0 -0.32598613729E+02  0.35180675648E+01  0.17311307034E+03  0.24692545745E+03  0.17300000000E+03 0.  1.
         -6    1    1    2    0  503  0.32598613729E+02 -0.35180675648E+01 -0.56188709332E+02  0.18482753440E+03  0.17300000000E+03 0.  1.
<mgrwt>
<rscale>  2 0.17607966E+03</rscale>
<asrwt>0</asrwt>
<pdfrwt beam="1">  1       21 0.42205950E-01 0.17607966E+03</pdfrwt>
<pdfrwt beam="2">  1       21 0.24217587E-01 0.17607966E+03</pdfrwt>
<totfact> 0.87512811E+04</totfact>
</mgrwt>
</event>
<event>
 4    1  0.4333905E+000  0.2029284E+03  0.7546771E-02  0.1147292E+00
         21   -1    0    0  503  502  0.00000000000E+00  0.00000000000E+00  0.31784825341E+03  0.31784825341E+03  0.00000000000E+00 0. -1.
         21   -1    0    0  501  503 -0.00000000000E+00 -0.00000000000E+00 -0.17971904700E+03  0.17971904700E+03  0.00000000000E+00 0. -1.
          6    1    1    2  501    0  0.39123884687E+02  0.98591436210E+02 -0.62368821016E+02  0.21229653667E+03  0.17300000000E+03 0. -1.
         -6    1    1    2    0  502 -0.39123884687E+02 -0.98591436210E+02  0.20049802742E+03  0.28527076374E+03  0.17300000000E+03 0. -1.
<mgrwt>
<rscale>  2 0.20292843E+03</rscale>
<asrwt>0</asrwt>
<pdfrwt beam="1">  1       21 0.48899731E-01 0.20292843E+03</pdfrwt>
<pdfrwt beam="2">  1       21 0.27649084E-01 0.20292843E+03</pdfrwt>
<totfact> 0.49574957E+04</totfact>
</mgrwt>
</event>
<event>
 4    1  0.4333905E+000  0.2843525E+03  0.7546771E-02  0.1093335E+00
         21   -1    0    0  501  502  0.00000000000E+00  0.00000000000E+00  0.28817770289E+03  0.28817770289E+03  0.00000000000E+00 0. -1.
         21   -1    0    0  502  503 -0.00000000000E+00 -0.00000000000E+00 -0.77763010351E+03  0.77763010351E+03  0.00000000000E+00 0.  1.
          6    1    1    2  501    0 -0.12285893152E+03  0.18929613752E+03  0.18132647309E+03  0.33724714169E+03  0.17300000000E+03 0. -1.
         -6    1    1    2    0  503  0.12285893152E+03 -0.18929613752E+03 -0.67077887371E+03  0.72856066471E+03  0.17300000000E+03 0.  1.
<mgrwt>
<rscale>  2 0.28435250E+03</rscale>
<asrwt>0</asrwt>
<pdfrwt beam="1">  1       21 0.44335031E-01 0.28435250E+03</pdfrwt>
<pdfrwt beam="2">  1       21 0.11963540E+00 0.28435250E+03</pdfrwt>
<totfact> 0.24268663E+03</totfact>
</mgrwt>
</event>
<event>
 4    1  0.4333905E+000  0.1913900E+03  0.7546771E-02  0.1157214E+00
         21   -1    0    0  501  502  0.00000000000E+00  0.00000000000E+00  0.19301593652E+03  0.19301593652E+03  0.00000000000E+00 0.  1.
         21   -1    0    0  502  503 -0.00000000000E+00 -0.00000000000E+00 -0.18978351351E+03  0.18978351351E+03  0.00000000000E+00 0.  1.
          6    1    1    2  501    0  0.18161835744E+02  0.79820348954E+02  0.56631149964E+00  0.19139085948E+03  0.17300000000E+03 0.  1.
         -6    1    1    2    0  503 -0.18161835744E+02 -0.79820348954E+02  0.26661115094E+01  0.19140859055E+03  0.17300000000E+03 0.  1.
<mgrwt>
<rscale>  2 0.19139002E+03</rscale>
<asrwt>0</asrwt>
<pdfrwt beam="1">  1       21 0.29694759E-01 0.19139002E+03</pdfrwt>
<pdfrwt beam="2">  1       21 0.29197464E-01 0.19139002E+03</pdfrwt>
<totfact> 0.12217507E+05</totfact>
</mgrwt>
</event>
<event>
 4    1  0.4333905E+000  0.3331729E+03  0.7546771E-02  0.1069742E+00
         21   -1    0    0  503  502  0.00000000000E+00  0.00000000000E+00  0.90635099479E+02  0.90635099479E+02  0.00000000000E+00 0.  1.
         21   -1    0    0  501  503 -0.00000000000E+00 -0.00000000000E+00 -0.19954580523E+04  0.19954580523E+04  0.00000000000E+00 0. -1.
          6    1    1    2  501    0  0.89776889115E+01 -0.28459548862E+03 -0.16006441454E+04  0.16349513360E+04  0.17300000000E+03 0. -1.
         -6    1    1    2    0  502 -0.89776889115E+01  0.28459548862E+03 -0.30417880751E+03  0.45114181582E+03  0.17300000000E+03 0.  1.
<mgrwt>
<rscale>  2 0.33317291E+03</rscale>
<asrwt>0</asrwt>
<pdfrwt beam="1">  1       21 0.13943863E-01 0.33317291E+03</pdfrwt>
<pdfrwt beam="2">  1       21 0.30699351E+00 0.33317291E+03</pdfrwt>
<totfact> 0.12112162E+03</totfact>
</mgrwt>
</event>
<event>
 4    1  0.4333905E+000  0.1772370E+03  0.7546771E-02  0.1170504E+00
         21   -1    0    0  503  502  0.00000000000E+00  0.00000000000E+00  0.92111937589E+02  0.92111937589E+02  0.00000000000E+00 0.  1.
         21   -1    0    0  501  503 -0.00000000000E+00 -0.00000000000E+00 -0.34183818134E+03  0.34183818134E+03  0.00000000000E+00 0.  1.
          6    1    1    2  501    0  0.14890421636E+02 -0.35527996357E+02 -0.11431514850E+03  0.21090499368E+03  0.17300000000E+03 0.  1.
         -6    1    1    2    0  502 -0.14890421636E+02  0.35527996357E+02 -0.13541109526E+03  0.22304512525E+03  0.17300000000E+03 0.  1.
<mgrwt>
<rscale>  2 0.17723703E+03</rscale>
<asrwt>0</asrwt>
<pdfrwt beam="1">  1       21 0.14171067E-01 0.17723703E+03</pdfrwt>
<pdfrwt beam="2">  1       21 0.52590489E-01 0.17723703E+03</pdfrwt>
<totfact> 0.14986818E+05</totfact>
</mgrwt>
</event>
<event>
 4    1  0.4333905E+000  0.2199310E+03  0.7546771E-02  0.1133935E+00
         21   -1    0    0  503  502  0.00000000000E+00  0.00000000000E+00  0.78531570481E+03  0.78531570481E+03  0.00000000000E+00 0.  1.
         21   -1    0    0  501  503 -0.00000000000E+00 -0.00000000000E+00 -0.62417062137E+02  0.62417062137E+02  0.00000000000E+00 0.  1.
          6    1    1    2  501    0 -0.10065512603E+03  0.91154639996E+02  0.31273382545E+03  0.38232455894E+03  0.17300000000E+03 0.  1.
         -6    1    1    2    0  502  0.10065512603E+03 -0.91154639996E+02  0.41016481722E+03  0.46540820800E+03  0.17300000000E+03 0.  1.
<mgrwt>
<rscale>  2 0.21993095E+03</rscale>
<asrwt>0</asrwt>
<pdfrwt beam="1">  1       21 0.12081779E+00 0.21993095E+03</pdfrwt>
<pdfrwt beam="2">  1       21 0.96026255E-02 0.21993095E+03</pdfrwt>
<totfact> 0.44611745E+04</totfact>
</mgrwt>
</event>
<event>
 4    1  0.4333905E+000  0.2279199E+03  0.7546771E-02  0.1128112E+00
         21   -1    0    0  501  502  0.00000000000E+00  0.00000000000E+00  0.58829811417E+03  0.58829811417E+03  0.00000000000E+00 0. -1.
         21   -1    0    0  502  503 -0.00000000000E+00 -0.00000000000E+00 -0.90259680873E+02  0.90259680873E+02  0.00000000000E+00 0.  1.
          6    1    1    2  501    0 -0.99247149357E+02 -0.11031086268E+03  0.29899498832E+03  0.37595942084E+03  0.17300000000E+03 0. -1.
         -6    1    1    2    0  503  0.99247149357E+02  0.11031086268E+03  0.19904344497E+03  0.30259837420E+03  0.17300000000E+03 0.  1.
<mgrwt>
<rscale>  2 0.22791990E+03</rscale>
<asrwt>0</asrwt>
<pdfrwt beam="1">  1       21 0.90507400E-01 0.22791990E+03</pdfrwt>
<pdfrwt beam="2">  1       21 0.13886105E-01 0.22791990E+03</pdfrwt>
<totfact> 0.45989175E+04</totfact>
</mgrwt>
</event>
<event>
 4    1  0.4333905E+000  0.1907754E+03  0.7546771E-02  0.1157764E+00
         21   -1    0    0  503  502  0.00000000000E+00  0.00000000000E+00  0.19547588088E+03  0.19547588088E+03  0.00000000000E+00 0. -1.
         21   -1    0    0  501  503 -0.00000000000E+00 -0.00000000000E+00 -0.18660025414E+03  0.18660025414E+03  0.00000000000E+00 0. -1.
          6    1    1    2  501    0  0.51237030419E+02 -0.61976099009E+02 -0.45411855543E+01  0.19082948541E+03  0.17300000000E+03 0. -1.
         -6    1    1    2    0  502 -0.51237030419E+02  0.61976099009E+02  0.13416812292E+02  0.19124664961E+03  0.17300000000E+03 0. -1.
<mgrwt>
<rscale>  2 0.19077544E+03</rscale>
<asrwt>0</asrwt>
<pdfrwt beam="1">  1       21 0.30073213E-01 0.19077544E+03</pdfrwt>
<pdfrwt beam="2">  1       21 0.28707731E-01 0.19077544E+03</pdfrwt>
<totfact> 0.12320159E+05</totfact>
</mgrwt>
</event>
<event>
 4    1  0.4333905E+000  0.1954603E+03  0.7546771E-02  0.1153627E+00
         21   -1    0    0  503  502  0.00000000000E+00  0.00000000000E+00  0.34024622161E+02  0.34024622161E+02  0.00000000000E+00 0. -1.
         21   -1    0    0  501  503 -0.00000000000E+00 -0.00000000000E+00 -0.11229965185E+04  0.11229965185E+04  0.00000000000E+00 0. -1.
          6    1    1    2  501    0 -0.15428688163E+02 -0.89653171074E+02 -0.55096778407E+03  0.58461118240E+03  0.17300000000E+03 0. -1.
         -6    1    1    2    0  502  0.15428688163E+02  0.89653171074E+02 -0.53800411231E+03  0.57240995830E+03  0.17300000000E+03 0. -1.
<mgrwt>
<rscale>  2 0.19546032E+03</rscale>
<asrwt>0</asrwt>
<pdfrwt beam="1">  1       21 0.52345588E-02 0.19546032E+03</pdfrwt>
<pdfrwt beam="2">  1       21 0.17276865E+00 0.19546032E+03</pdfrwt>
<totfact> 0.50699670E+04</totfact>
</mgrwt>
</event>
<event>
 4    1  0.4333905E+000  0.3473712E+03  0.7546771E-02  0.1063699E+00
         21   -1    0    0  503  502  0.00000000000E+00  0.00000000000E+00  0.27305843728E+03  0.27305843728E+03  0.00000000000E+00 0. -1.
         21   -1    0    0  501  503 -0.00000000000E+00 -0.00000000000E+00 -0.44239358981E+03  0.44239358981E+03  0.00000000000E+00 0. -1.
          6    1    1    2  501    0  0.25708512055E+03 -0.15698725214E+03 -0.72818043808E+02  0.35492143362E+03  0.17300000000E+03 0. -1.
         -6    1    1    2    0  502 -0.25708512055E+03  0.15698725214E+03 -0.96517108724E+02  0.36053059346E+03  0.17300000000E+03 0. -1.
<mgrwt>
<rscale>  2 0.34737121E+03</rscale>
<asrwt>0</asrwt>
<pdfrwt beam="1">  1       21 0.42008990E-01 0.34737121E+03</pdfrwt>
<pdfrwt beam="2">  1       21 0.68060552E-01 0.34737121E+03</pdfrwt>
<totfact> 0.99212969E+03</totfact>
</mgrwt>
</event>
<event>
 4    1  0.4333905E+000  0.2143001E+03  0.7546771E-02  0.1138205E+00
         21   -1    0    0  503  502  0.00000000000E+00  0.00000000000E+00  0.82201546250E+02  0.82201546250E+02  0.00000000000E+00 0.  1.
         21   -1    0    0  501  503 -0.00000000000E+00 -0.00000000000E+00 -0.10181194996E+04  0.10181194996E+04  0.00000000000E+00 0. -1.
          6    1    1    2  501    0  0.97195070945E+02 -0.80923724536E+02 -0.83753452295E+03  0.86451640131E+03  0.17300000000E+03 0. -1.
         -6    1    1    2    0  502 -0.97195070945E+02  0.80923724536E+02 -0.98383430405E+02  0.23580464454E+03  0.17300000000E+03 0.  1.
<mgrwt>
<rscale>  2 0.21430010E+03</rscale>
<asrwt>0</asrwt>
<pdfrwt beam="1">  1       21 0.12646392E-01 0.21430010E+03</pdfrwt>
<pdfrwt beam="2">  1       21 0.15663376E+00 0.21430010E+03</pdfrwt>
<totfact> 0.14018058E+04</totfact>
</mgrwt>
</event>
<event>
 4    1  0.4333905E+000  0.1845272E+03  0.7546771E-02  0.1163492E+00
         21   -1    0    0  503  502  0.00000000000E+00  0.00000000000E+00  0.19232270359E+03  0.19232270359E+03  0.00000000000E+00 0.  1.
         21   -1    0    0  501  503 -0.00000000000E+00 -0.00000000000E+00 -0.18837429242E+03  0.18837429242E+03  0.00000000000E+00 0.  1.
          6    1    1    2  501    0  0.42695183683E+01  0.64055100957E+02 -0.44701299872E+02  0.18986440150E+03  0.17300000000E+03 0.  1.
         -6    1    1    2    0  502 -0.42695183683E+01 -0.64055100957E+02  0.48649711044E+02  0.19083259452E+03  0.17300000000E+03 0.  1.
<mgrwt>
<rscale>  2 0.18452719E+03</rscale>
<asrwt>0</asrwt>
<pdfrwt beam="1">  1       21 0.29588108E-01 0.18452719E+03</pdfrwt>
<pdfrwt beam="2">  1       21 0.28980660E-01 0.18452719E+03</pdfrwt>
<totfact> 0.12511581E+05</totfact>
</mgrwt>
</event>
<event>
 4    1  0.4333905E+000  0.2351258E+03  0.7546771E-02  0.1123083E+00
         21   -1    0    0  503  502  0.00000000000E+00  0.00000000000E+00  0.24945071506E+03  0.24945071506E+03  0.00000000000E+00 0. -1.
         21   -1    0    0  501  503 -0.00000000000E+00 -0.00000000000E+00 -0.23024340959E+03  0.23024340959E+03  0.00000000000E+00 0.  1.
          6    1    1    2  501    0  0.15405363960E+03  0.40281721567E+02 -0.36804268200E+02  0.23798885504E+03  0.17300000000E+03 0.  1.
         -6    1    1    2    0  502 -0.15405363960E+03 -0.40281721567E+02  0.56011573673E+02  0.24170526960E+03  0.17300000000E+03 0. -1.
<mgrwt>
<rscale>  2 0.23512580E+03</rscale>
<asrwt>0</asrwt>
<pdfrwt beam="1">  1       21 0.38377033E-01 0.23512580E+03</pdfrwt>
<pdfrwt beam="2">  1       21 0.35422063E-01 0.23512580E+03</pdfrwt>
<totfact> 0.49340631E+04</totfact>
</mgrwt>
</event>
<event>
 4    1  0.4333905E+000  0.2444756E+03  0.7546771E-02  0.1116847E+00
         21   -1    0    0  501  502  0.00000000000E+00  0.00000000000E+00  0.27480916502E+03  0.27480916502E+03  0.00000000000E+00 0.  1.
         21   -1    0    0  502  503 -0.00000000000E+00 -0.00000000000E+00 -0.27222412519E+03  0.27222412519E+03  0.00000000000E+00 0. -1.
          6    1    1    2  501    0  0.16963741543E+03 -0.32595676726E+02  0.12393708596E+03  0.27409620963E+03  0.17300000000E+03 0.  1.
         -6    1    1    2    0  503 -0.16963741543E+03  0.32595676726E+02 -0.12135204613E+03  0.27293708058E+03  0.17300000000E+03 0. -1.
<mgrwt>
<rscale>  2 0.24447562E+03</rscale>
<asrwt>0</asrwt>
<pdfrwt beam="1">  1       21 0.42278333E-01 0.24447562E+03</pdfrwt>
<pdfrwt beam="2">  1       21 0.41880634E-01 0.24447562E+03</pdfrwt>
<totfact> 0.28772279E+04</totfact>
</mgrwt>
</event>
<event>
 4    1  0.4333905E+000  0.2207393E+03  0.7546771E-02  0.1133333E+00
         21   -1    0    0  501  502  0.00000000000E+00  0.00000000000E+00  0.10418630587E+04  0.10418630587E+04  0.00000000000E+00 0. -1.
         21   -1    0    0  502  503 -0.00000000000E+00 -0.00000000000E+00 -0.62345598147E+02  0.62345598147E+02  0.00000000000E+00 0. -1.
          6    1    1    2  501    0 -0.53550889820E+02  0.12621063733E+03  0.76573318684E+03  0.79691476094E+03  0.17300000000E+03 0. -1.
         -6    1    1    2    0  503  0.53550889820E+02 -0.12621063733E+03  0.21378427371E+03  0.30729389591E+03  0.17300000000E+03 0. -1.
<mgrwt>
<rscale>  2 0.22073926E+03</rscale>
<asrwt>0</asrwt>
<pdfrwt beam="1">  1       21 0.16028661E+00 0.22073926E+03</pdfrwt>
<pdfrwt beam="2">  1       21 0.95916313E-02 0.22073926E+03</pdfrwt>
<totfact> 0.21475919E+04</totfact>
</mgrwt>
</event>
<event>
 4    1  0.4333905E+000  0.1920573E+03  0.7546771E-02  0.1156619E+00
         21   -1    0    0  501  502  0.00000000000E+00  0.00000000000E+00  0.26561043778E+03  0.26561043778E+03  0.00000000000E+00 0. -1.
         21   -1    0    0  502  503 -0.00000000000E+00 -0.00000000000E+00 -0.16046923827E+03  0.16046923827E+03  0.00000000000E+00 0. -1.
          6    1    1    2  501    0 -0.56726947553E+01 -0.83215488959E+02  0.13072592470E+03  0.23232577226E+03  0.17300000000E+03 0. -1.
         -6    1    1    2    0  503  0.56726947553E+01  0.83215488959E+02 -0.25584725204E+02  0.19375390379E+03  0.17300000000E+03 0. -1.
<mgrwt>
<rscale>  2 0.19205728E+03</rscale>
<asrwt>0</asrwt>
<pdfrwt beam="1">  1       21 0.40863144E-01 0.19205728E+03</pdfrwt>
<pdfrwt beam="2">  1       21 0.24687575E-01 0.19205728E+03</pdfrwt>
<totfact> 0.89526784E+04</totfact>
</mgrwt>
</event>
<event>
 4    1  0.4333905E+000  0.2503086E+03  0.7546771E-02  0.1113110E+00
         21   -1    0    0  501  502  0.00000000000E+00  0.00000000000E+00  0.51954128365E+03  0.51954128365E+03  0.00000000000E+00 0. -1.
         21   -1    0    0  502  503 -0.00000000000E+00 -0.00000000000E+00 -0.18828156185E+03  0.18828156185E+03  0.00000000000E+00 0. -1.
          6    1    1    2  501    0 -0.10000530369E+03  0.15074597256E+03  0.37782717691E+03  0.45321935597E+03  0.17300000000E+03 0. -1.
         -6    1    1    2    0  503  0.10000530369E+03 -0.15074597256E+03 -0.46567455110E+02  0.25460348954E+03  0.17300000000E+03 0. -1.
<mgrwt>
<rscale>  2 0.25030863E+03</rscale>
<asrwt>0</asrwt>
<pdfrwt beam="1">  1       21 0.79929428E-01 0.25030863E+03</pdfrwt>
<pdfrwt beam="2">  1       21 0.28966394E-01 0.25030863E+03</pdfrwt>
<totfact> 0.15203243E+04</totfact>
</mgrwt>
</event>
<event>
 4    1  0.4333905E+000  0.1937150E+03  0.7546771E-02  0.1155153E+00
         21   -1    0    0  501  502  0.00000000000E+00  0.00000000000E+00  0.42835404172E+03  0.42835404172E+03  0.00000000000E+00 0. -1.
         21   -1    0    0  502  503 -0.00000000000E+00 -0.00000000000E+00 -0.19488391524E+03  0.19488391524E+03  0.00000000000E+00 0. -1.
          6    1    1    2  501    0  0.36360690777E+02  0.79211142200E+02  0.34793899707E+03  0.39822989663E+03  0.17300000000E+03 0. -1.
         -6    1    1    2    0  503 -0.36360690777E+02 -0.79211142200E+02 -0.11446887060E+03  0.22500806034E+03  0.17300000000E+03 0. -1.
<mgrwt>
<rscale>  2 0.19371501E+03</rscale>
<asrwt>0</asrwt>
<pdfrwt beam="1">  1       21 0.65900622E-01 0.19371501E+03</pdfrwt>
<pdfrwt beam="2">  1       21 0.29982141E-01 0.19371501E+03</pdfrwt>
<totfact> 0.22552536E+04</totfact>
</mgrwt>
</event>
<event>
 4    1  0.4333905E+000  0.2029164E+03  0.7546771E-02  0.1147302E+00
         21   -1    0    0  501  502  0.00000000000E+00  0.00000000000E+00  0.99272969982E+02  0.99272969982E+02  0.00000000000E+00 0.  1.
         21   -1    0    0  502  503 -0.00000000000E+00 -0.00000000000E+00 -0.50243015995E+03  0.50243015995E+03  0.00000000000E+00 0. -1.
          6    1    1    2  501    0  0.10084446386E+03 -0.32809145962E+02 -0.75910326972E+02  0.21665046432E+03  0.17300000000E+03 0.  1.
         -6    1    1    2    0  503 -0.10084446386E+03  0.32809145962E+02 -0.32724686300E+03  0.38505266561E+03  0.17300000000E+03 0. -1.
<mgrwt>
<rscale>  2 0.20291635E+03</rscale>
<asrwt>0</asrwt>
<pdfrwt beam="1">  1       21 0.15272765E-01 0.20291635E+03</pdfrwt>
<pdfrwt beam="2">  1       21 0.77296947E-01 0.20291635E+03</pdfrwt>
<totfact> 0.56133198E+04</totfact>
</mgrwt>
</event>
<event>
 4    1  0.4333905E+000  0.2091544E+03  0.7546771E-02  0.1142237E+00
         21   -1    0    0  501  502  0.00000000000E+00  0.00000000000E+00  0.10062409288E+04  0.10062409288E+04  0.00000000000E+00 0.  1.
         21   -1    0    0  502  503 -0.00000000000E+00 -0.00000000000E+00 -0.16310147898E+03  0.16310147898E+03  0.00000000000E+00 0.  1.
          6    1    1    2  501    0  0.84774297634E+01 -0.11723784497E+03  0.92229297729E+03  0.94571132755E+03  0.17300000000E+03 0.  1.
         -6    1    1    2    0  503 -0.84774297634E+01  0.11723784497E+03 -0.79153527513E+02  0.22363108019E+03  0.17300000000E+03 0.  1.
<mgrwt>
<rscale>  2 0.20915444E+03</rscale>
<asrwt>0</asrwt>
<pdfrwt beam="1">  1       21 0.15480629E+00 0.20915444E+03</pdfrwt>
<pdfrwt beam="2">  1       21 0.25092536E-01 0.20915444E+03</pdfrwt>
<totfact> 0.40776837E+03</totfact>
</mgrwt>
</event>
<event>
 4    1  0.4333905E+000  0.2065816E+03  0.7546771E-02  0.1144302E+00
         21   -1    0    0  501  502  0.00000000000E+00  0.00000000000E+00  0.19312268053E+03  0.19312268053E+03  0.00000000000E+00 0. -1.
         21   -1    0    0  502  503 -0.00000000000E+00 -0.00000000000E+00 -0.22354788440E+03  0.22354788440E+03  0.00000000000E+00 0. -1.
          6    1    1    2  501    0 -0.90282498915E+02  0.67793859266E+02  0.71232375079E+01  0.20670432380E+03  0.17300000000E+03 0. -1.
         -6    1    1    2    0  503  0.90282498915E+02 -0.67793859266E+02 -0.37548441370E+02  0.20996624113E+03  0.17300000000E+03 0. -1.
<mgrwt>
<rscale>  2 0.20658155E+03</rscale>
<asrwt>0</asrwt>
<pdfrwt beam="1">  1       21 0.29711182E-01 0.20658155E+03</pdfrwt>
<pdfrwt beam="2">  1       21 0.34391982E-01 0.20658155E+03</pdfrwt>
<totfact> 0.87962330E+04</totfact>
</mgrwt>
</event>
<event>
 4    1  0.4333905E+000  0.1800919E+03  0.7546771E-02  0.1167714E+00
         21   -1    0    0  503  502  0.00000000000E+00  0.00000000000E+00  0.45632082578E+03  0.45632082578E+03  0.00000000000E+00 0. -1.
         21   -1    0    0  501  503 -0.00000000000E+00 -0.00000000000E+00 -0.11748814614E+03  0.11748814614E+03  0.00000000000E+00 0. -1.
          6    1    1    2  501    0 -0.44840299606E+02  0.22213588747E+02 -0.10910287814E+02  0.18042208948E+03  0.17300000000E+03 0. -1.
         -6    1    1    2    0  502  0.44840299606E+02 -0.22213588747E+02  0.34974296745E+03  0.39338688244E+03  0.17300000000E+03 0. -1.
<mgrwt>
<rscale>  2 0.18009191E+03</rscale>
<asrwt>0</asrwt>
<pdfrwt beam="1">  1       21 0.70203203E-01 0.18009191E+03</pdfrwt>
<pdfrwt beam="2">  1       21 0.18075100E-01 0.18009191E+03</pdfrwt>
<totfact> 0.51600375E+04</totfact>
</mgrwt>
</event>
<event>
 4    1  0.4333905E+000  0.2061093E+03  0.7546771E-02  0.1144685E+00
         21   -1    0    0  503  502  0.00000000000E+00  0.00000000000E+00  0.11655307620E+03  0.11655307620E+03  0.00000000000E+00 0. -1.
         21   -1    0    0  501  503 -0.00000000000E+00 -0.00000000000E+00 -0.36537310951E+03  0.36537310951E+03  0.00000000000E+00 0.  1.
          6    1    1    2  501    0 -0.12733725263E+02 -0.11130989014E+03 -0.11248373283E+03  0.23480551432E+03  0.17300000000E+03 0.  1.
         -6    1    1    2    0  502  0.12733725263E+02  0.11130989014E+03 -0.13633630047E+03  0.24712067139E+03  0.17300000000E+03 0. -1.
<mgrwt>
<rscale>  2 0.20610929E+03</rscale>
<asrwt>0</asrwt>
<pdfrwt beam="1">  1       21 0.17931243E-01 0.20610929E+03</pdfrwt>
<pdfrwt beam="2">  1       21 0.56211247E-01 0.20610929E+03</pdfrwt>
<totfact> 0.83733254E+04</totfact>
</mgrwt>
</event>
<event>
 4    1  0.4333905E+000  0.1906387E+03  0.7546771E-02  0.1157887E+00
         21   -1    0    0  503  502  0.00000000000E+00  0.00000000000E+00  0.54640890920E+03  0.54640890920E+03  0.00000000000E+00 0.  1.
         21   -1    0    0  501  503 -0.00000000000E+00 -0.00000000000E+00 -0.33086146043E+03  0.33086146043E+03  0.00000000000E+00 0.  1.
          6    1    1    2  501    0 -0.39617394920E+02 -0.69602896489E+02 -0.28430119282E+03  0.34230143064E+03  0.17300000000E+03 0.  1.
         -6    1    1    2    0  502  0.39617394920E+02  0.69602896489E+02  0.49984864160E+03  0.53496893899E+03  0.17300000000E+03 0.  1.
<mgrwt>
<rscale>  2 0.19063867E+03</rscale>
<asrwt>0</asrwt>
<pdfrwt beam="1">  1       21 0.84062909E-01 0.19063867E+03</pdfrwt>
<pdfrwt beam="2">  1       21 0.50901763E-01 0.19063867E+03</pdfrwt>
<totfact> 0.45188650E+03</totfact>
</mgrwt>
</event>
<event>
 4    1  0.4333905E+000  0.2583744E+03  0.7546771E-02  0.1108124E+00
         21   -1    0    0  503  502  0.00000000000E+00  0.00000000000E+00  0.73142089952E+03  0.73142089952E+03  0.00000000000E+00 0. -1.
         21   -1    0    0  501  503 -0.00000000000E+00 -0.00000000000E+00 -0.17001926255E+03  0.17001926255E+03  0.00000000000E+00 0.  1.
          6    1    1    2  501    0  0.15967866791E+02  0.19124159234E+03 -0.26045301859E+02  0.25968380227E+03  0.17300000000E+03 0.  1.
         -6    1    1    2    0  502 -0.15967866791E+02 -0.19124159234E+03  0.58744693883E+03  0.64175635981E+03  0.17300000000E+03 0. -1.
<mgrwt>
<rscale>  2 0.25837438E+03</rscale>
<asrwt>0</asrwt>
<pdfrwt beam="1">  1       21 0.11252629E+00 0.25837438E+03</pdfrwt>
<pdfrwt beam="2">  1       21 0.26156810E-01 0.25837438E+03</pdfrwt>
<totfact> 0.82241143E+03</totfact>
</mgrwt>
</event>
<event>
 4    1  0.4333905E+000  0.2763205E+03  0.7546771E-02  0.1097716E+00
         21   -1    0    0  503  502  0.00000000000E+00  0.00000000000E+00  0.17165358843E+03  0.17165358843E+03  0.00000000000E+00 0. -1.
         21   -1    0    0  501  503 -0.00000000000E+00 -0.00000000000E+00 -0.94796791501E+03  0.94796791501E+03  0.00000000000E+00 0. -1.
          6    1    1    2  501    0  0.42971934789E+02  0.21113367340E+03 -0.79600401778E+03  0.84260038662E+03  0.17300000000E+03 0. -1.
         -6    1    1    2    0  502 -0.42971934789E+02 -0.21113367340E+03  0.19689691194E+02  0.27702111682E+03  0.17300000000E+03 0. -1.
<mgrwt>
<rscale>  2 0.27632049E+03</rscale>
<asrwt>0</asrwt>
<pdfrwt beam="1">  1       21 0.26408245E-01 0.27632049E+03</pdfrwt>
<pdfrwt beam="2">  1       21 0.14584121E+00 0.27632049E+03</pdfrwt>
<totfact> 0.41278971E+03</totfact>
</mgrwt>
</event>
<event>
 4    1  0.4333905E+000  0.1925277E+03  0.7546771E-02  0.1156201E+00
         21   -1    0    0  501  502  0.00000000000E+00  0.00000000000E+00  0.43022370278E+02  0.43022370278E+02  0.00000000000E+00 0. -1.
         21   -1    0    0  502  503 -0.00000000000E+00 -0.00000000000E+00 -0.10896384115E+04  0.10896384115E+04  0.00000000000E+00 0. -1.
          6    1    1    2  501    0 -0.78010620343E+02 -0.32438581335E+02 -0.26421348763E+03  0.32691846918E+03  0.17300000000E+03 0. -1.
         -6    1    1    2    0  503  0.78010620343E+02  0.32438581335E+02 -0.78240255357E+03  0.80574231258E+03  0.17300000000E+03 0. -1.
<mgrwt>
<rscale>  2 0.19252771E+03</rscale>
<asrwt>0</asrwt>
<pdfrwt beam="1">  1       21 0.66188263E-02 0.19252771E+03</pdfrwt>
<pdfrwt beam="2">  1       21 0.16763668E+00 0.19252771E+03</pdfrwt>
<totfact> 0.36945978E+04</totfact>
</mgrwt>
</event>
<event>
 4    1  0.4333905E+000  0.1906743E+03  0.7546771E-02  0.1157855E+00
         21   -1    0    0  501  502  0.00000000000E+00  0.00000000000E+00  0.16170307316E+03  0.16170307316E+03  0.00000000000E+00 0. -1.
         21   -1    0    0  502  503 -0.00000000000E+00 -0.00000000000E+00 -0.24618341428E+03  0.24618341428E+03  0.00000000000E+00 0. -1.
          6    1    1    2  501    0  0.79647954023E+02 -0.91601225231E+01 -0.10229535936E+03  0.21638171127E+03  0.17300000000E+03 0. -1.
         -6    1    1    2    0  503 -0.79647954023E+02  0.91601225231E+01  0.17815018239E+02  0.19150477618E+03  0.17300000000E+03 0. -1.
<mgrwt>
<rscale>  2 0.19067434E+03</rscale>
<asrwt>0</asrwt>
<pdfrwt beam="1">  1       21 0.24877396E-01 0.19067434E+03</pdfrwt>
<pdfrwt beam="2">  1       21 0.37874371E-01 0.19067434E+03</pdfrwt>
<totfact> 0.10287221E+05</totfact>
</mgrwt>
</event>
<event>
 4    1  0.4333905E+000  0.2157306E+03  0.7546771E-02  0.1137107E+00
         21   -1    0    0  503  502  0.00000000000E+00  0.00000000000E+00  0.18215707337E+04  0.18215707337E+04  0.00000000000E+00 0.  1.
         21   -1    0    0  501  503 -0.00000000000E+00 -0.00000000000E+00 -0.63809301839E+02  0.63809301839E+02  0.00000000000E+00 0.  1.
          6    1    1    2  501    0  0.12540806427E+03  0.29723910687E+02  0.14891928273E+03  0.26213860117E+03  0.17300000000E+03 0.  1.
         -6    1    1    2    0  502 -0.12540806427E+03 -0.29723910687E+02  0.16088421491E+04  0.16232414343E+04  0.17300000000E+03 0.  1.
<mgrwt>
<rscale>  2 0.21573060E+03</rscale>
<asrwt>0</asrwt>
<pdfrwt beam="1">  1       21 0.28024161E+00 0.21573060E+03</pdfrwt>
<pdfrwt beam="2">  1       21 0.98168171E-02 0.21573060E+03</pdfrwt>
<totfact> 0.36259384E+03</totfact>
</mgrwt>
</event>
<event>
 4    1  0.4333905E+000  0.3326802E+03  0.7546771E-02  0.1069957E+00
         21   -1    0    0  503  502  0.00000000000E+00  0.00000000000E+00  0.14355005751E+03  0.14355005751E+03  0.00000000000E+00 0.  1.
         21   -1    0    0  501  503 -0.00000000000E+00 -0.00000000000E+00 -0.93751804492E+03  0.93751804492E+03  0.00000000000E+00 0. -1.
          6    1    1    2  501    0 -0.19859029296E+03 -0.20324617251E+03 -0.62479401434E+03  0.70784438364E+03  0.17300000000E+03 0. -1.
         -6    1    1    2    0  502  0.19859029296E+03  0.20324617251E+03 -0.16917397308E+03  0.37322371879E+03  0.17300000000E+03 0.  1.
<mgrwt>
<rscale>  2 0.33268019E+03</rscale>
<asrwt>0</asrwt>
<pdfrwt beam="1">  1       21 0.22084624E-01 0.33268019E+03</pdfrwt>
<pdfrwt beam="2">  1       21 0.14423355E+00 0.33268019E+03</pdfrwt>
<totfact> 0.58161803E+03</totfact>
</mgrwt>
</event>
<event>
 4    1  0.4333905E+000  0.2018163E+03  0.7546771E-02  0.1148216E+00
         21   -1    0    0  503  502  0.00000000000E+00  0.00000000000E+00  0.15252068551E+03  0.15252068551E+03  0.00000000000E+00 0.  1.
         21   -1    0    0  501  503 -0.00000000000E+00 -0.00000000000E+00 -0.27026312989E+03  0.27026312989E+03  0.00000000000E+00 0.  1.
          6    1    1    2  501    0  0.92701016959E+02  0.46982375218E+02 -0.81940032744E+02  0.21781641603E+03  0.17300000000E+03 0.  1.
         -6    1    1    2    0  502 -0.92701016959E+02 -0.46982375218E+02 -0.35802411638E+02  0.20496739937E+03  0.17300000000E+03 0.  1.
<mgrwt>
<rscale>  2 0.20181631E+03</rscale>
<asrwt>0</asrwt>
<pdfrwt beam="1">  1       21 0.23464721E-01 0.20181631E+03</pdfrwt>
<pdfrwt beam="2">  1       21 0.41578942E-01 0.20181631E+03</pdfrwt>
<totfact> 0.94809843E+04</totfact>
</mgrwt>
</event>
<event>
 4    1  0.4333905E+000  0.2456630E+03  0.7546771E-02  0.1116077E+00
         21   -1    0    0  501  502  0.00000000000E+00  0.00000000000E+00  0.69511019913E+03  0.69511019913E+03  0.00000000000E+00 0. -1.
         21   -1    0    0  502  503 -0.00000000000E+00 -0.00000000000E+00 -0.10216568786E+03  0.10216568786E+03  0.00000000000E+00 0.  1.
          6    1    1    2  501    0  0.11304383003E+03 -0.13282474338E+03  0.45096280855E+03  0.51353458955E+03  0.17300000000E+03 0. -1.
         -6    1    1    2    0  503 -0.11304383003E+03  0.13282474338E+03  0.14198170272E+03  0.28374129744E+03  0.17300000000E+03 0.  1.
<mgrwt>
<rscale>  2 0.24566302E+03</rscale>
<asrwt>0</asrwt>
<pdfrwt beam="1">  1       21 0.10694003E+00 0.24566302E+03</pdfrwt>
<pdfrwt beam="2">  1       21 0.15717799E-01 0.24566302E+03</pdfrwt>
<totfact> 0.24456918E+04</totfact>
</mgrwt>
</event>
<event>
 4    1  0.4333905E+000  0.2747885E+03  0.7546771E-02  0.1098570E+00
         21   -1    0    0  503  502  0.00000000000E+00  0.00000000000E+00  0.15027270939E+03  0.15027270939E+03  0.00000000000E+00 0.  1.
         21   -1    0    0  501  503 -0.00000000000E+00 -0.00000000000E+00 -0.52952747779E+03  0.52952747779E+03  0.00000000000E+00 0.  1.
          6    1    1    2  501    0  0.11131690730E+03 -0.18217646193E+03 -0.26644966356E+03  0.38275859277E+03  0.17300000000E+03 0.  1.
         -6    1    1    2    0  502 -0.11131690730E+03  0.18217646193E+03 -0.11280510484E+03  0.29704159441E+03  0.17300000000E+03 0.  1.
<mgrwt>
<rscale>  2 0.27478850E+03</rscale>
<asrwt>0</asrwt>
<pdfrwt beam="1">  1       21 0.23118878E-01 0.27478850E+03</pdfrwt>
<pdfrwt beam="2">  1       21 0.81465766E-01 0.27478850E+03</pdfrwt>
<totfact> 0.22238844E+04</totfact>
</mgrwt>
</event>
<event>
 4    1  0.4333905E+000  0.1979358E+03  0.7546771E-02  0.1151492E+00
         21   -1    0    0  503  502  0.00000000000E+00  0.00000000000E+00  0.98892572503E+02  0.98892572503E+02  0.00000000000E+00 0.  1.
         21   -1    0    0  501  503 -0.00000000000E+00 -0.00000000000E+00 -0.62361638094E+03  0.62361638094E+03  0.00000000000E+00 0.  1.
          6    1    1    2  501    0  0.76246715960E+02 -0.58617613532E+02 -0.48052985199E+03  0.51969945638E+03  0.17300000000E+03 0.  1.
         -6    1    1    2    0  502 -0.76246715960E+02  0.58617613532E+02 -0.44193956446E+02  0.20280949706E+03  0.17300000000E+03 0.  1.
<mgrwt>
<rscale>  2 0.19793581E+03</rscale>
<asrwt>0</asrwt>
<pdfrwt beam="1">  1       21 0.15214242E-01 0.19793581E+03</pdfrwt>
<pdfrwt beam="2">  1       21 0.95940983E-01 0.19793581E+03</pdfrwt>
<totfact> 0.34502508E+04</totfact>
</mgrwt>
</event>
<event>
 4    1  0.4333905E+000  0.1946310E+03  0.7546771E-02  0.1154350E+00
         21   -1    0    0  501  502  0.00000000000E+00  0.00000000000E+00  0.12249578267E+03  0.12249578267E+03  0.00000000000E+00 0.  1.
         21   -1    0    0  502  503 -0.00000000000E+00 -0.00000000000E+00 -0.38949478655E+03  0.38949478655E+03  0.00000000000E+00 0.  1.
          6    1    1    2  501    0 -0.60262347684E+02 -0.65731777421E+02 -0.24969863553E+03  0.31659220726E+03  0.17300000000E+03 0.  1.
         -6    1    1    2    0  503  0.60262347684E+02  0.65731777421E+02 -0.17300368357E+02  0.19539836196E+03  0.17300000000E+03 0.  1.
<mgrwt>
<rscale>  2 0.19463098E+03</rscale>
<asrwt>0</asrwt>
<pdfrwt beam="1">  1       21 0.18845505E-01 0.19463098E+03</pdfrwt>
<pdfrwt beam="2">  1       21 0.59922276E-01 0.19463098E+03</pdfrwt>
<totfact> 0.66947569E+04</totfact>
</mgrwt>
</event>
<event>
 4    1  0.4333905E+000  0.2168055E+03  0.7546771E-02  0.1136287E+00
         21   -1    0    0  503  502  0.00000000000E+00  0.00000000000E+00  0.38558016875E+03  0.38558016875E+03  0.00000000000E+00 0. -1.
         21   -1    0    0  501  503 -0.00000000000E+00 -0.00000000000E+00 -0.12198531985E+03  0.12198531985E+03  0.00000000000E+00 0. -1.
          6    1    1    2  501    0 -0.12796906468E+03 -0.26449275680E+02  0.12533762017E+03  0.25042796315E+03  0.17300000000E+03 0. -1.
         -6    1    1    2    0  502  0.12796906468E+03  0.26449275680E+02  0.13825722873E+03  0.25713752545E+03  0.17300000000E+03 0. -1.
<mgrwt>
<rscale>  2 0.21680555E+03</rscale>
<asrwt>0</asrwt>
<pdfrwt beam="1">  1       21 0.59320025E-01 0.21680555E+03</pdfrwt>
<pdfrwt beam="2">  1       21 0.18766973E-01 0.21680555E+03</pdfrwt>
<totfact> 0.68269664E+04</totfact>
</mgrwt>
</event>
<event>
 4    1  0.4333905E+000  0.2065068E+03  0.7546771E-02  0.1144362E+00
         21   -1    0    0  503  502  0.00000000000E+00  0.00000000000E+00  0.25958383929E+03  0.25958383929E+03  0.00000000000E+00 0.  1.
         21   -1    0    0  501  503 -0.00000000000E+00 -0.00000000000E+00 -0.17333658490E+03  0.17333658490E+03  0.00000000000E+00 0. -1.
          6    1    1    2  501    0  0.10280545434E+03  0.46336810399E+02 -0.63481087590E+01  0.20660435602E+03  0.17300000000E+03 0. -1.
         -6    1    1    2    0  502 -0.10280545434E+03 -0.46336810399E+02  0.92595363149E+02  0.22631606818E+03  0.17300000000E+03 0.  1.
<mgrwt>
<rscale>  2 0.20650681E+03</rscale>
<asrwt>0</asrwt>
<pdfrwt beam="1">  1       21 0.39935975E-01 0.20650681E+03</pdfrwt>
<pdfrwt beam="2">  1       21 0.26667167E-01 0.20650681E+03</pdfrwt>
<totfact> 0.80407046E+04</totfact>
</mgrwt>
</event>
<event>
 4    1  0.4333905E+000  0.4841555E+03  0.7546771E-02  0.1017999E+00
         21   -1    0    0  501  502  0.00000000000E+00  0.00000000000E+00  0.99944895710E+03  0.99944895710E+03  0.00000000000E+00 0.  1.
         21   -1    0    0  502  503 -0.00000000000E+00 -0.00000000000E+00 -0.23466528445E+03  0.23466528445E+03  0.00000000000E+00 0. -1.
          6    1    1    2  501    0 -0.15786353093E+03 -0.42374121948E+03  0.39688908633E+03  0.62604110275E+03  0.17300000000E+03 0. -1.
         -6    1    1    2    0  503  0.15786353093E+03  0.42374121948E+03  0.36789458632E+03  0.60807313880E+03  0.17300000000E+03 0.  1.
<mgrwt>
<rscale>  2 0.48415547E+03</rscale>
<asrwt>0</asrwt>
<pdfrwt beam="1">  1       21 0.15376138E+00 0.48415547E+03</pdfrwt>
<pdfrwt beam="2">  1       21 0.36102352E-01 0.48415547E+03</pdfrwt>
<totfact> 0.17444357E+03</totfact>
</mgrwt>
</event>
<event>
 4    1  0.4333905E+000  0.2278819E+03  0.7546771E-02  0.1128139E+00
         21   -1    0    0  501  502  0.00000000000E+00  0.00000000000E+00  0.73075348273E+02  0.73075348273E+02  0.00000000000E+00 0.  1.
         21   -1    0    0  502  503 -0.00000000000E+00 -0.00000000000E+00 -0.98713148104E+03  0.98713148104E+03  0.00000000000E+00 0. -1.
          6    1    1    2  501    0  0.14680055507E+03 -0.21231565628E+02 -0.17647509576E+03  0.28822498464E+03  0.17300000000E+03 0.  1.
         -6    1    1    2    0  503 -0.14680055507E+03  0.21231565628E+02 -0.73758103700E+03  0.77198184467E+03  0.17300000000E+03 0. -1.
<mgrwt>
<rscale>  2 0.22788195E+03</rscale>
<asrwt>0</asrwt>
<pdfrwt beam="1">  1       21 0.11242362E-01 0.22788195E+03</pdfrwt>
<pdfrwt beam="2">  1       21 0.15186637E+00 0.22788195E+03</pdfrwt>
<totfact> 0.18639559E+04</totfact>
</mgrwt>
</event>
<event>
 4    1  0.4333905E+000  0.2058910E+03  0.7546771E-02  0.1144862E+00
         21   -1    0    0  503  502  0.00000000000E+00  0.00000000000E+00  0.33553473513E+02  0.33553473513E+02  0.00000000000E+00 0. -1.
         21   -1    0    0  501  503 -0.00000000000E+00 -0.00000000000E+00 -0.13255051785E+04  0.13255051785E+04  0.00000000000E+00 0. -1.
          6    1    1    2  501    0  0.11106071972E+03 -0.11296166489E+02 -0.79307837344E+03  0.81936828915E+03  0.17300000000E+03 0. -1.
         -6    1    1    2    0  502 -0.11106071972E+03  0.11296166489E+02 -0.49887333156E+03  0.53969036288E+03  0.17300000000E+03 0. -1.
<mgrwt>
<rscale>  2 0.20589096E+03</rscale>
<asrwt>0</asrwt>
<pdfrwt beam="1">  1       21 0.51620718E-02 0.20589096E+03</pdfrwt>
<pdfrwt beam="2">  1       21 0.20392392E+00 0.20589096E+03</pdfrwt>
<totfact> 0.31994671E+04</totfact>
</mgrwt>
</event>
<event>
 4    1  0.4333905E+000  0.2194660E+03  0.7546771E-02  0.1134282E+00
         21   -1    0    0  501  502  0.00000000000E+00  0.00000000000E+00  0.10807067266E+03  0.10807067266E+03  0.00000000000E+00 0. -1.
         21   -1    0    0  502  503 -0.00000000000E+00 -0.00000000000E+00 -0.67665879339E+03  0.67665879339E+03  0.00000000000E+00 0. -1.
          6    1    1    2  501    0  0.13387420765E+03 -0.17720553105E+02 -0.55055425956E+02  0.22626626219E+03  0.17300000000E+03 0. -1.
         -6    1    1    2    0  503 -0.13387420765E+03  0.17720553105E+02 -0.51353269477E+03  0.55846320386E+03  0.17300000000E+03 0. -1.
<mgrwt>
<rscale>  2 0.21946599E+03</rscale>
<asrwt>0</asrwt>
<pdfrwt beam="1">  1       21 0.16626258E-01 0.21946599E+03</pdfrwt>
<pdfrwt beam="2">  1       21 0.10410135E+00 0.21946599E+03</pdfrwt>
<totfact> 0.23860387E+04</totfact>
</mgrwt>
</event>
<event>
 4    1  0.4333905E+000  0.2154170E+03  0.7546771E-02  0.1137347E+00
         21   -1    0    0  503  502  0.00000000000E+00  0.00000000000E+00  0.19978180591E+04  0.19978180591E+04  0.00000000000E+00 0.  1.
         21   -1    0    0  501  503 -0.00000000000E+00 -0.00000000000E+00 -0.25532754834E+02  0.25532754834E+02  0.00000000000E+00 0.  1.
          6    1    1    2  501    0  0.69251662765E+01 -0.12816985578E+03  0.68216286166E+03  0.71536748577E+03  0.17300000000E+03 0.  1.
         -6    1    1    2    0  502 -0.69251662765E+01  0.12816985578E+03  0.12901224426E+04  0.13079833281E+04  0.17300000000E+03 0.  1.
<mgrwt>
<rscale>  2 0.21541697E+03</rscale>
<asrwt>0</asrwt>
<pdfrwt beam="1">  1       21 0.30735650E+00 0.21541697E+03</pdfrwt>
<pdfrwt beam="2">  1       21 0.39281177E-02 0.21541697E+03</pdfrwt>
<totfact> 0.12218923E+04</totfact>
</mgrwt>
</event>
<event>
 4    1  0.4333905E+000  0.1884965E+03  0.7546771E-02  0.1159824E+00
         21   -1    0    0  503  502  0.00000000000E+00  0.00000000000E+00  0.12743889121E+03  0.12743889121E+03  0.00000000000E+00 0. -1.
         21   -1    0    0  501  503 -0.00000000000E+00 -0.00000000000E+00 -0.28352758582E+03  0.28352758582E+03  0.00000000000E+00 0.  1.
          6    1    1    2  501    0 -0.71451371529E+02 -0.22284916391E+02 -0.10455708976E+03  0.21555301207E+03  0.17300000000E+03 0.  1.
         -6    1    1    2    0  502  0.71451371529E+02  0.22284916391E+02 -0.51531604845E+02  0.19541346497E+03  0.17300000000E+03 0.  1.
<mgrwt>
<rscale>  2 0.18849646E+03</rscale>
<asrwt>0</asrwt>
<pdfrwt beam="1">  1       21 0.19605984E-01 0.18849646E+03</pdfrwt>
<pdfrwt beam="2">  1       21 0.43619628E-01 0.18849646E+03</pdfrwt>
<totfact> 0.12118239E+05</totfact>
</mgrwt>
</event>
<event>
 4    1  0.4333905E+000  0.2327730E+03  0.7546771E-02  0.1124703E+00
         21   -1    0    0  501  502  0.00000000000E+00  0.00000000000E+00  0.29500366019E+03  0.29500366019E+03  0.00000000000E+00 0. -1.
         21   -1    0    0  502  503 -0.00000000000E+00 -0.00000000000E+00 -0.21382510828E+03  0.21382510828E+03  0.00000000000E+00 0.  1.
          6    1    1    2  501    0  0.95320621098E+02 -0.12315944453E+03  0.13613121340E+03  0.26965714684E+03  0.17300000000E+03 0. -1.
         -6    1    1    2    0  503 -0.95320621098E+02  0.12315944453E+03 -0.54952661492E+02  0.23917162162E+03  0.17300000000E+03 0.  1.
<mgrwt>
<rscale>  2 0.23277300E+03</rscale>
<asrwt>0</asrwt>
<pdfrwt beam="1">  1       21 0.45385179E-01 0.23277300E+03</pdfrwt>
<pdfrwt beam="2">  1       21 0.32896170E-01 0.23277300E+03</pdfrwt>
<totfact> 0.40623680E+04</totfact>
</mgrwt>
</event>
<event>
 4    1  0.4333905E+000  0.2738182E+03  0.7546771E-02  0.1099114E+00
         21   -1    0    0  501  502  0.00000000000E+00  0.00000000000E+00  0.42877637842E+03  0.42877637842E+03  0.00000000000E+00 0. -1.
         21   -1    0    0  502  503 -0.00000000000E+00 -0.00000000000E+00 -0.17508698417E+03  0.17508698417E+03  0.00000000000E+00 0.  1.
          6    1    1    2  501    0  0.10142539566E+03 -0.18644120341E+03  0.11600676584E+03  0.29737855157E+03  0.17300000000E+03 0. -1.
         -6    1    1    2    0  503 -0.10142539566E+03  0.18644120341E+03  0.13768262842E+03  0.30648481102E+03  0.17300000000E+03 0.  1.
<mgrwt>
<rscale>  2 0.27381825E+03</rscale>
<asrwt>0</asrwt>
<pdfrwt beam="1">  1       21 0.65965596E-01 0.27381825E+03</pdfrwt>
<pdfrwt beam="2">  1       21 0.26936459E-01 0.27381825E+03</pdfrwt>
<totfact> 0.26624086E+04</totfact>
</mgrwt>
</event>
<event>
 4    1  0.4333905E+000  0.1932441E+03  0.7546771E-02  0.1155567E+00
         21   -1    0    0  501  502  0.00000000000E+00  0.00000000000E+00  0.17090364918E+03  0.17090364918E+03  0.00000000000E+00 0.  1.
         21   -1    0    0  502  503 -0.00000000000E+00 -0.00000000000E+00 -0.35096619494E+03  0.35096619494E+03  0.00000000000E+00 0. -1.
          6    1    1    2  501    0 -0.40162212284E+02  0.76166141222E+02  0.70272618513E+02  0.20562471952E+03  0.17300000000E+03 0.  1.
         -6    1    1    2    0  503  0.40162212284E+02 -0.76166141222E+02 -0.25033516427E+03  0.31624512460E+03  0.17300000000E+03 0. -1.
<mgrwt>
<rscale>  2 0.19324411E+03</rscale>
<asrwt>0</asrwt>
<pdfrwt beam="1">  1       21 0.26292869E-01 0.19324411E+03</pdfrwt>
<pdfrwt beam="2">  1       21 0.53994799E-01 0.19324411E+03</pdfrwt>
<totfact> 0.44593474E+04</totfact>
</mgrwt>
</event>
<event>
 4    1  0.4333905E+000  0.2018185E+03  0.7546771E-02  0.1148214E+00
         21   -1    0    0  501  502  0.00000000000E+00  0.00000000000E+00  0.45309520961E+03  0.45309520961E+03  0.00000000000E+00 0. -1.
         21   -1    0    0  502  503 -0.00000000000E+00 -0.00000000000E+00 -0.89902750500E+02  0.89902750500E+02  0.00000000000E+00 0. -1.
          6    1    1    2  501    0  0.45391268567E+02 -0.93495097033E+02  0.18422028451E+03  0.27325411920E+03  0.17300000000E+03 0. -1.
         -6    1    1    2    0  503 -0.45391268567E+02  0.93495097033E+02  0.17897217460E+03  0.26974384092E+03  0.17300000000E+03 0. -1.
<mgrwt>
<rscale>  2 0.20181848E+03</rscale>
<asrwt>0</asrwt>
<pdfrwt beam="1">  1       21 0.69706954E-01 0.20181848E+03</pdfrwt>
<pdfrwt beam="2">  1       21 0.13831193E-01 0.20181848E+03</pdfrwt>
<totfact> 0.84662928E+04</totfact>
</mgrwt>
</event>
<event>
 4    1  0.4333905E+000  0.1904222E+03  0.7546771E-02  0.1158081E+00
         21   -1    0    0  501  502  0.00000000000E+00  0.00000000000E+00  0.63468978517E+02  0.63468978517E+02  0.00000000000E+00 0. -1.
         21   -1    0    0  502  503 -0.00000000000E+00 -0.00000000000E+00 -0.58098931014E+03  0.58098931014E+03  0.00000000000E+00 0. -1.
          6    1    1    2  501    0  0.64548367447E+02 -0.46530736140E+02 -0.30034680289E+03  0.35562452552E+03  0.17300000000E+03 0. -1.
         -6    1    1    2    0  503 -0.64548367447E+02  0.46530736140E+02 -0.21717352874E+03  0.28883376314E+03  0.17300000000E+03 0. -1.
<mgrwt>
<rscale>  2 0.19042217E+03</rscale>
<asrwt>0</asrwt>
<pdfrwt beam="1">  1       21 0.97644590E-02 0.19042217E+03</pdfrwt>
<pdfrwt beam="2">  1       21 0.89382964E-01 0.19042217E+03</pdfrwt>
<totfact> 0.90424774E+04</totfact>
</mgrwt>
</event>
<event>
 4    1  0.4333905E+000  0.1765208E+03  0.7546771E-02  0.1171213E+00
         21   -1    0    0  503  502  0.00000000000E+00  0.00000000000E+00  0.56272568811E+03  0.56272568811E+03  0.00000000000E+00 0.  1.
         21   -1    0    0  501  503 -0.00000000000E+00 -0.00000000000E+00 -0.48034381333E+03  0.48034381333E+03  0.00000000000E+00 0. -1.
          6    1    1    2  501    0 -0.95214134529E+01 -0.33762972607E+02 -0.44936314808E+03  0.48279067357E+03  0.17300000000E+03 0. -1.
         -6    1    1    2    0  502  0.95214134529E+01  0.33762972607E+02  0.53174502285E+03  0.56027882787E+03  0.17300000000E+03 0.  1.
<mgrwt>
<rscale>  2 0.17652081E+03</rscale>
<asrwt>0</asrwt>
<pdfrwt beam="1">  1       21 0.86573182E-01 0.17652081E+03</pdfrwt>
<pdfrwt beam="2">  1       21 0.73899049E-01 0.17652081E+03</pdfrwt>
<totfact> 0.19169092E+03</totfact>
</mgrwt>
</event>
<event>
 4    1  0.4333905E+000  0.1942202E+03  0.7546771E-02  0.1154709E+00
         21   -1    0    0  501  502  0.00000000000E+00  0.00000000000E+00  0.14199308015E+04  0.14199308015E+04  0.00000000000E+00 0. -1.
         21   -1    0    0  502  503 -0.00000000000E+00 -0.00000000000E+00 -0.26584824897E+02  0.26584824897E+02  0.00000000000E+00 0.  1.
          6    1    1    2  501    0 -0.37677396089E+02  0.79830463417E+02  0.71605990648E+03  0.74193212542E+03  0.17300000000E+03 0. -1.
         -6    1    1    2    0  503  0.37677396089E+02 -0.79830463417E+02  0.67728607016E+03  0.70458350101E+03  0.17300000000E+03 0.  1.
<mgrwt>
<rscale>  2 0.19422021E+03</rscale>
<asrwt>0</asrwt>
<pdfrwt beam="1">  1       21 0.21845083E+00 0.19422021E+03</pdfrwt>
<pdfrwt beam="2">  1       21 0.40899742E-02 0.19422021E+03</pdfrwt>
<totfact> 0.38773902E+04</totfact>
</mgrwt>
</event>
<event>
 4    1  0.4333905E+000  0.1858150E+03  0.7546771E-02  0.1162291E+00
         21   -1    0    0  503  502  0.00000000000E+00  0.00000000000E+00  0.77029606542E+02  0.77029606542E+02  0.00000000000E+00 0. -1.
         21   -1    0    0  501  503 -0.00000000000E+00 -0.00000000000E+00 -0.44931438054E+03  0.44931438054E+03  0.00000000000E+00 0. -1.
          6    1    1    2  501    0 -0.40427519060E+02 -0.54441097937E+02 -0.19905275528E+03  0.27230353804E+03  0.17300000000E+03 0.  1.
         -6    1    1    2    0  502  0.40427519060E+02  0.54441097937E+02 -0.17323201871E+03  0.25404044904E+03  0.17300000000E+03 0.  1.
<mgrwt>
<rscale>  2 0.18581501E+03</rscale>
<asrwt>0</asrwt>
<pdfrwt beam="1">  1       21 0.11850709E-01 0.18581501E+03</pdfrwt>
<pdfrwt beam="2">  1       21 0.69125290E-01 0.18581501E+03</pdfrwt>
<totfact> 0.11460487E+05</totfact>
</mgrwt>
</event>
<event>
 4    1  0.4333905E+000  0.1757096E+03  0.7546771E-02  0.1172021E+00
         21   -1    0    0  503  502  0.00000000000E+00  0.00000000000E+00  0.63145103322E+03  0.63145103322E+03  0.00000000000E+00 0.  1.
         21   -1    0    0  501  503 -0.00000000000E+00 -0.00000000000E+00 -0.58508470876E+02  0.58508470876E+02  0.00000000000E+00 0.  1.
          6    1    1    2  501    0 -0.20378923443E+02  0.23012535893E+02  0.14662295268E+03  0.22884966153E+03  0.17300000000E+03 0.  1.
         -6    1    1    2    0  502  0.20378923443E+02 -0.23012535893E+02  0.42631960966E+03  0.46110984257E+03  0.17300000000E+03 0.  1.
<mgrwt>
<rscale>  2 0.17570964E+03</rscale>
<asrwt>0</asrwt>
<pdfrwt beam="1">  1       21 0.97146308E-01 0.17570964E+03</pdfrwt>
<pdfrwt beam="2">  1       21 0.90013037E-02 0.17570964E+03</pdfrwt>
<totfact> 0.86472238E+04</totfact>
</mgrwt>
</event>
<event>
 4    1  0.4333905E+000  0.2106790E+03  0.7546771E-02  0.1141029E+00
         21   -1    0    0  503  502  0.00000000000E+00  0.00000000000E+00  0.10464859294E+03  0.10464859294E+03  0.00000000000E+00 0. -1.
         21   -1    0    0  501  503 -0.00000000000E+00 -0.00000000000E+00 -0.42459682344E+03  0.42459682344E+03  0.00000000000E+00 0. -1.
          6    1    1    2  501    0 -0.12022086280E+03  0.18883275416E+01 -0.16865693633E+03  0.26987179142E+03  0.17300000000E+03 0. -1.
         -6    1    1    2    0  502  0.12022086280E+03 -0.18883275416E+01 -0.15129129417E+03  0.25937362496E+03  0.17300000000E+03 0. -1.
<mgrwt>
<rscale>  2 0.21067895E+03</rscale>
<asrwt>0</asrwt>
<pdfrwt beam="1">  1       21 0.16099784E-01 0.21067895E+03</pdfrwt>
<pdfrwt beam="2">  1       21 0.65322587E-01 0.21067895E+03</pdfrwt>
<totfact> 0.73738880E+04</totfact>
</mgrwt>
</event>
<event>
 4    1  0.4333905E+000  0.1915395E+03  0.7546771E-02  0.1157080E+00
         21   -1    0    0  503  502  0.00000000000E+00  0.00000000000E+00  0.43654464924E+02  0.43654464924E+02  0.00000000000E+00 0. -1.
         21   -1    0    0  501  503 -0.00000000000E+00 -0.00000000000E+00 -0.18757592232E+04  0.18757592232E+04  0.00000000000E+00 0. -1.
          6    1    1    2  501    0 -0.69231995125E+02 -0.44331834171E+02 -0.16290609759E+04  0.16402826110E+04  0.17300000000E+03 0. -1.
         -6    1    1    2    0  502  0.69231995125E+02  0.44331834171E+02 -0.20304378239E+03  0.27913107716E+03  0.17300000000E+03 0. -1.
<mgrwt>
<rscale>  2 0.19153950E+03</rscale>
<asrwt>0</asrwt>
<pdfrwt beam="1">  1       21 0.67160707E-02 0.19153950E+03</pdfrwt>
<pdfrwt beam="2">  1       21 0.28857838E+00 0.19153950E+03</pdfrwt>
<totfact> 0.64600980E+03</totfact>
</mgrwt>
</event>
<event>
 4    1  0.4333905E+000  0.2541769E+03  0.7546771E-02  0.1110693E+00
         21   -1    0    0  503  502  0.00000000000E+00  0.00000000000E+00  0.82884601990E+03  0.82884601990E+03  0.00000000000E+00 0.  1.
         21   -1    0    0  501  503 -0.00000000000E+00 -0.00000000000E+00 -0.80666892009E+02  0.80666892009E+02  0.00000000000E+00 0. -1.
          6    1    1    2  501    0  0.13239939809E+03 -0.13094773352E+03  0.29058280976E+03  0.38606253232E+03  0.17300000000E+03 0.  1.
         -6    1    1    2    0  502 -0.13239939809E+03  0.13094773352E+03  0.45759631813E+03  0.52345037959E+03  0.17300000000E+03 0. -1.
<mgrwt>
<rscale>  2 0.25417693E+03</rscale>
<asrwt>0</asrwt>
<pdfrwt beam="1">  1       21 0.12751477E+00 0.25417693E+03</pdfrwt>
<pdfrwt beam="2">  1       21 0.12410292E-01 0.25417693E+03</pdfrwt>
<totfact> 0.24221666E+04</totfact>
</mgrwt>
</event>
<event>
 4    1  0.4333905E+000  0.1980668E+03  0.7546771E-02  0.1151380E+00
         21   -1    0    0  501  502  0.00000000000E+00  0.00000000000E+00  0.86722369592E+02  0.86722369592E+02  0.00000000000E+00 0.  1.
         21   -1    0    0  502  503 -0.00000000000E+00 -0.00000000000E+00 -0.65255143145E+03  0.65255143145E+03  0.00000000000E+00 0. -1.
          6    1    1    2  501    0  0.73744391765E+02 -0.62154787147E+02 -0.78184448559E+02  0.21293957095E+03  0.17300000000E+03 0.  1.
         -6    1    1    2    0  503 -0.73744391765E+02  0.62154787147E+02 -0.48764461330E+03  0.52633423009E+03  0.17300000000E+03 0. -1.
<mgrwt>
<rscale>  2 0.19806679E+03</rscale>
<asrwt>0</asrwt>
<pdfrwt beam="1">  1       21 0.13341904E-01 0.19806679E+03</pdfrwt>
<pdfrwt beam="2">  1       21 0.10039252E+00 0.19806679E+03</pdfrwt>
<totfact> 0.39338233E+04</totfact>
</mgrwt>
</event>
<event>
 4    1  0.4333905E+000  0.2281895E+03  0.7546771E-02  0.1127921E+00
         21   -1    0    0  501  502  0.00000000000E+00  0.00000000000E+00  0.57744829243E+03  0.57744829243E+03  0.00000000000E+00 0.  1.
         21   -1    0    0  502  503 -0.00000000000E+00 -0.00000000000E+00 -0.18718985436E+03  0.18718985436E+03  0.00000000000E+00 0.  1.
          6    1    1    2  501    0  0.10190762689E+03  0.10842636107E+03  0.47036674739E+03  0.52279567447E+03  0.17300000000E+03 0.  1.
         -6    1    1    2    0  503 -0.10190762689E+03 -0.10842636107E+03 -0.80108309330E+02  0.24184247232E+03  0.17300000000E+03 0.  1.
<mgrwt>
<rscale>  2 0.22818948E+03</rscale>
<asrwt>0</asrwt>
<pdfrwt beam="1">  1       21 0.88838198E-01 0.22818948E+03</pdfrwt>
<pdfrwt beam="2">  1       21 0.28798439E-01 0.22818948E+03</pdfrwt>
<totfact> 0.12209493E+04</totfact>
</mgrwt>
</event>
<event>
 4    1  0.4333905E+000  0.1735924E+03  0.7546771E-02  0.1174153E+00
         21   -1    0    0  503  502  0.00000000000E+00  0.00000000000E+00  0.50353537680E+03  0.50353537680E+03  0.00000000000E+00 0.  1.
         21   -1    0    0  501  503 -0.00000000000E+00 -0.00000000000E+00 -0.78461324935E+02  0.78461324935E+02  0.00000000000E+00 0.  1.
          6    1    1    2  501    0 -0.12897633050E+01  0.14270496723E+02  0.70793177906E+02  0.18747262361E+03  0.17300000000E+03 0.  1.
         -6    1    1    2    0  502  0.12897633050E+01 -0.14270496723E+02  0.35428087396E+03  0.39452407813E+03  0.17300000000E+03 0.  1.
<mgrwt>
<rscale>  2 0.17359237E+03</rscale>
<asrwt>0</asrwt>
<pdfrwt beam="1">  1       21 0.77466979E-01 0.17359237E+03</pdfrwt>
<pdfrwt beam="2">  1       21 0.12070973E-01 0.17359237E+03</pdfrwt>
<totfact> 0.86550427E+04</totfact>
</mgrwt>
</event>
<event>
 4    1  0.4333905E+000  0.2392673E+03  0.7546771E-02  0.1120282E+00
         21   -1    0    0  503  502  0.00000000000E+00  0.00000000000E+00  0.46139612971E+03  0.46139612971E+03  0.00000000000E+00 0. -1.
         21   -1    0    0  501  503 -0.00000000000E+00 -0.00000000000E+00 -0.22294516215E+03  0.22294516215E+03  0.00000000000E+00 0. -1.
          6    1    1    2  501    0 -0.91968777591E+02 -0.13733741225E+03 -0.10863610913E+03  0.26277485622E+03  0.17300000000E+03 0. -1.
         -6    1    1    2    0  502  0.91968777591E+02  0.13733741225E+03  0.34708707668E+03  0.42156643564E+03  0.17300000000E+03 0. -1.
<mgrwt>
<rscale>  2 0.23926726E+03</rscale>
<asrwt>0</asrwt>
<pdfrwt beam="1">  1       21 0.70984020E-01 0.23926726E+03</pdfrwt>
<pdfrwt beam="2">  1       21 0.34299256E-01 0.23926726E+03</pdfrwt>
<totfact> 0.14311199E+04</totfact>
</mgrwt>
</event>
<event>
 4    1  0.4333905E+000  0.3683899E+03  0.7546771E-02  0.1055310E+00
         21   -1    0    0  503  502  0.00000000000E+00  0.00000000000E+00  0.33436852301E+03  0.33436852301E+03  0.00000000000E+00 0. -1.
         21   -1    0    0  501  503 -0.00000000000E+00 -0.00000000000E+00 -0.57840609158E+03  0.57840609158E+03  0.00000000000E+00 0.  1.
          6    1    1    2  501    0 -0.13815476601E+03  0.29444072867E+03  0.12724179919E+03  0.38974550354E+03  0.17300000000E+03 0. -1.
         -6    1    1    2    0  502  0.13815476601E+03 -0.29444072867E+03 -0.37127936776E+03  0.52302911104E+03  0.17300000000E+03 0.  1.
<mgrwt>
<rscale>  2 0.36838985E+03</rscale>
<asrwt>0</asrwt>
<pdfrwt beam="1">  1       21 0.51441312E-01 0.36838985E+03</pdfrwt>
<pdfrwt beam="2">  1       21 0.88985551E-01 0.36838985E+03</pdfrwt>
<totfact> 0.34869446E+03</totfact>
</mgrwt>
</event>
<event>
 4    1  0.4333905E+000  0.2634639E+03  0.7546771E-02  0.1105080E+00
         21   -1    0    0  501  502  0.00000000000E+00  0.00000000000E+00  0.61808633145E+03  0.61808633145E+03  0.00000000000E+00 0. -1.
         21   -1    0    0  502  503 -0.00000000000E+00 -0.00000000000E+00 -0.12942147599E+03  0.12942147599E+03  0.00000000000E+00 0. -1.
          6    1    1    2  501    0  0.11248340885E+03 -0.16380389404E+03  0.10840431407E+03  0.28489424051E+03  0.17300000000E+03 0. -1.
         -6    1    1    2    0  503 -0.11248340885E+03  0.16380389404E+03  0.38026054138E+03  0.46261356692E+03  0.17300000000E+03 0. -1.
<mgrwt>
<rscale>  2 0.26346391E+03</rscale>
<asrwt>0</asrwt>
<pdfrwt beam="1">  1       21 0.95090203E-01 0.26346391E+03</pdfrwt>
<pdfrwt beam="2">  1       21 0.19910997E-01 0.26346391E+03</pdfrwt>
<totfact> 0.20704787E+04</totfact>
</mgrwt>
</event>
<event>
 4    1  0.4333905E+000  0.2085718E+03  0.7546771E-02  0.1142702E+00
         21   -1    0    0  501  502  0.00000000000E+00  0.00000000000E+00  0.10430957733E+04  0.10430957733E+04  0.00000000000E+00 0. -1.
         21   -1    0    0  502  503 -0.00000000000E+00 -0.00000000000E+00 -0.95241641702E+02  0.95241641702E+02  0.00000000000E+00 0. -1.
          6    1    1    2  501    0 -0.15962872103E+00 -0.11650394215E+03  0.90065747171E+03  0.92449233386E+03  0.17300000000E+03 0. -1.
         -6    1    1    2    0  503  0.15962872103E+00  0.11650394215E+03  0.47196659867E+02  0.21384508112E+03  0.17300000000E+03 0. -1.
<mgrwt>
<rscale>  2 0.20857180E+03</rscale>
<asrwt>0</asrwt>
<pdfrwt beam="1">  1       21 0.16047626E+00 0.20857180E+03</pdfrwt>
<pdfrwt beam="2">  1       21 0.14652561E-01 0.20857180E+03</pdfrwt>
<totfact> 0.10098178E+04</totfact>
</mgrwt>
</event>
<event>
 4    1  0.4333905E+000  0.1776692E+03  0.7546771E-02  0.1170078E+00
         21   -1    0    0  501  502  0.00000000000E+00  0.00000000000E+00  0.14927925681E+03  0.14927925681E+03  0.00000000000E+00 0.  1.
         21   -1    0    0  502  503 -0.00000000000E+00 -0.00000000000E+00 -0.30251954570E+03  0.30251954570E+03  0.00000000000E+00 0.  1.
          6    1    1    2  501    0 -0.35491694045E+02  0.19434292915E+02  0.47317981942E+02  0.18386229494E+03  0.17300000000E+03 0.  1.
         -6    1    1    2    0  503  0.35491694045E+02 -0.19434292915E+02 -0.20055827083E+03  0.26793650757E+03  0.17300000000E+03 0.  1.
<mgrwt>
<rscale>  2 0.17766922E+03</rscale>
<asrwt>0</asrwt>
<pdfrwt beam="1">  1       21 0.22966040E-01 0.17766922E+03</pdfrwt>
<pdfrwt beam="2">  1       21 0.46541468E-01 0.17766922E+03</pdfrwt>
<totfact> 0.79175653E+04</totfact>
</mgrwt>
</event>
<event>
 4    1  0.4333905E+000  0.1733744E+03  0.7546771E-02  0.1174374E+00
         21   -1    0    0  501  502  0.00000000000E+00  0.00000000000E+00  0.98055551881E+02  0.98055551881E+02  0.00000000000E+00 0. -1.
         21   -1    0    0  502  503 -0.00000000000E+00 -0.00000000000E+00 -0.30937036149E+03  0.30937036149E+03  0.00000000000E+00 0. -1.
          6    1    1    2  501    0  0.25440876691E+01 -0.11099538254E+02 -0.12511699197E+03  0.21380583203E+03  0.17300000000E+03 0.  1.
         -6    1    1    2    0  503 -0.25440876691E+01  0.11099538254E+02 -0.86197817641E+02  0.19362008134E+03  0.17300000000E+03 0.  1.
<mgrwt>
<rscale>  2 0.17337437E+03</rscale>
<asrwt>0</asrwt>
<pdfrwt beam="1">  1       21 0.15085470E-01 0.17337437E+03</pdfrwt>
<pdfrwt beam="2">  1       21 0.47595440E-01 0.17337437E+03</pdfrwt>
<totfact> 0.16489111E+05</totfact>
</mgrwt>
</event>
<event>
 4    1  0.4333905E+000  0.2875125E+03  0.7546771E-02  0.1091655E+00
         21   -1    0    0  503  502  0.00000000000E+00  0.00000000000E+00  0.33437487840E+03  0.33437487840E+03  0.00000000000E+00 0.  1.
         21   -1    0    0  501  503 -0.00000000000E+00 -0.00000000000E+00 -0.32895844395E+03  0.32895844395E+03  0.00000000000E+00 0. -1.
          6    1    1    2  501    0  0.22956250922E+03  0.59575656318E+01 -0.16262122345E+03  0.33031666707E+03  0.17300000000E+03 0. -1.
         -6    1    1    2    0  502 -0.22956250922E+03 -0.59575656318E+01  0.16803765789E+03  0.33301665528E+03  0.17300000000E+03 0.  1.
<mgrwt>
<rscale>  2 0.28751250E+03</rscale>
<asrwt>0</asrwt>
<pdfrwt beam="1">  1       21 0.51442289E-01 0.28751250E+03</pdfrwt>
<pdfrwt beam="2">  1       21 0.50608992E-01 0.28751250E+03</pdfrwt>
<totfact> 0.12660262E+04</totfact>
</mgrwt>
</event>
<event>
 4    1  0.4333905E+000  0.2090706E+03  0.7546771E-02  0.1142304E+00
         21   -1    0    0  503  502  0.00000000000E+00  0.00000000000E+00  0.11087457438E+03  0.11087457438E+03  0.00000000000E+00 0.  1.
         21   -1    0    0  501  503 -0.00000000000E+00 -0.00000000000E+00 -0.44246414977E+03  0.44246414977E+03  0.00000000000E+00 0. -1.
          6    1    1    2  501    0 -0.58606212694E+02  0.10171941620E+03 -0.25713905483E+03  0.33140763618E+03  0.17300000000E+03 0.  1.
         -6    1    1    2    0  502  0.58606212694E+02 -0.10171941620E+03 -0.74450520559E+02  0.22193108797E+03  0.17300000000E+03 0. -1.
<mgrwt>
<rscale>  2 0.20907063E+03</rscale>
<asrwt>0</asrwt>
<pdfrwt beam="1">  1       21 0.17057627E-01 0.20907063E+03</pdfrwt>
<pdfrwt beam="2">  1       21 0.68071408E-01 0.20907063E+03</pdfrwt>
<totfact> 0.60619870E+04</totfact>
</mgrwt>
</event>
<event>
 4    1  0.4333905E+000  0.2459918E+03  0.7546771E-02  0.1115864E+00
         21   -1    0    0  501  502  0.00000000000E+00  0.00000000000E+00  0.50895224267E+03  0.50895224267E+03  0.00000000000E+00 0.  1.
         21   -1    0    0  502  503 -0.00000000000E+00 -0.00000000000E+00 -0.27833983360E+03  0.27833983360E+03  0.00000000000E+00 0.  1.
          6    1    1    2  501    0 -0.47170906644E+02 -0.16839797063E+03  0.41324233801E+03  0.48091704157E+03  0.17300000000E+03 0.  1.
         -6    1    1    2    0  503  0.47170906644E+02  0.16839797063E+03 -0.18262992894E+03  0.30637503470E+03  0.17300000000E+03 0.  1.
<mgrwt>
<rscale>  2 0.24599181E+03</rscale>
<asrwt>0</asrwt>
<pdfrwt beam="1">  1       21 0.78300345E-01 0.24599181E+03</pdfrwt>
<pdfrwt beam="2">  1       21 0.42821513E-01 0.24599181E+03</pdfrwt>
<totfact> 0.73070651E+03</totfact>
</mgrwt>
</event>
<event>
 4    1  0.4333905E+000  0.2272150E+03  0.7546771E-02  0.1128615E+00
         21   -1    0    0  503  502  0.00000000000E+00  0.00000000000E+00  0.76871773372E+03  0.76871773372E+03  0.00000000000E+00 0. -1.
         21   -1    0    0  501  503 -0.00000000000E+00 -0.00000000000E+00 -0.77898440535E+02  0.77898440535E+02  0.00000000000E+00 0. -1.
          6    1    1    2  501    0  0.14565515871E+03 -0.21959492615E+02  0.18823795597E+03  0.29505960862E+03  0.17300000000E+03 0.  1.
         -6    1    1    2    0  502 -0.14565515871E+03  0.21959492615E+02  0.50258133722E+03  0.55155656563E+03  0.17300000000E+03 0.  1.
<mgrwt>
<rscale>  2 0.22721497E+03</rscale>
<asrwt>0</asrwt>
<pdfrwt beam="1">  1       21 0.11826426E+00 0.22721497E+03</pdfrwt>
<pdfrwt beam="2">  1       21 0.11984376E-01 0.22721497E+03</pdfrwt>
<totfact> 0.31588443E+04</totfact>
</mgrwt>
</event>
<event>
 4    1  0.4333905E+000  0.1908686E+03  0.7546771E-02  0.1157680E+00
         21   -1    0    0  503  502  0.00000000000E+00  0.00000000000E+00  0.11001939307E+04  0.11001939307E+04  0.00000000000E+00 0.  1.
         21   -1    0    0  501  503 -0.00000000000E+00 -0.00000000000E+00 -0.95327326872E+02  0.95327326872E+02  0.00000000000E+00 0.  1.
          6    1    1    2  501    0 -0.75916548753E+02 -0.27175705281E+02  0.19526388219E+02  0.19186485131E+03  0.17300000000E+03 0.  1.
         -6    1    1    2    0  502  0.75916548753E+02  0.27175705281E+02  0.98534021561E+03  0.10036564063E+04  0.17300000000E+03 0.  1.
<mgrwt>
<rscale>  2 0.19086865E+03</rscale>
<asrwt>0</asrwt>
<pdfrwt beam="1">  1       21 0.16926060E+00 0.19086865E+03</pdfrwt>
<pdfrwt beam="2">  1       21 0.14665743E-01 0.19086865E+03</pdfrwt>
<totfact> 0.88388516E+03</totfact>
</mgrwt>
</event>
<event>
 4    1  0.4333905E+000  0.2138835E+03  0.7546771E-02  0.1138527E+00
         21   -1    0    0  501  502  0.00000000000E+00  0.00000000000E+00  0.64617274142E+03  0.64617274142E+03  0.00000000000E+00 0.  1.
         21   -1    0    0  502  503 -0.00000000000E+00 -0.00000000000E+00 -0.10413372908E+03  0.10413372908E+03  0.00000000000E+00 0. -1.
          6    1    1    2  501    0 -0.95063880094E+02  0.82340852160E+02  0.48328719770E+03  0.52850039990E+03  0.17300000000E+03 0.  1.
         -6    1    1    2    0  503  0.95063880094E+02 -0.82340852160E+02  0.58751814645E+02  0.22180607060E+03  0.17300000000E+03 0. -1.
<mgrwt>
<rscale>  2 0.21388351E+03</rscale>
<asrwt>0</asrwt>
<pdfrwt beam="1">  1       21 0.99411188E-01 0.21388351E+03</pdfrwt>
<pdfrwt beam="2">  1       21 0.16020574E-01 0.21388351E+03</pdfrwt>
<totfact> 0.28613261E+04</totfact>
</mgrwt>
</event>
<event>
 4    1  0.4333905E+000  0.2718851E+03  0.7546771E-02  0.1100206E+00
         21   -1    0    0  503  502  0.00000000000E+00  0.00000000000E+00  0.41468232696E+03  0.41468232696E+03  0.00000000000E+00 0.  1.
         21   -1    0    0  501  503 -0.00000000000E+00 -0.00000000000E+00 -0.26474610810E+03  0.26474610810E+03  0.00000000000E+00 0. -1.
          6    1    1    2  501    0  0.18377713509E+03  0.10108642189E+03 -0.11919679110E+03  0.29686592105E+03  0.17300000000E+03 0. -1.
         -6    1    1    2    0  502 -0.18377713509E+03 -0.10108642189E+03  0.26913300996E+03  0.38256251401E+03  0.17300000000E+03 0.  1.
<mgrwt>
<rscale>  2 0.27188509E+03</rscale>
<asrwt>0</asrwt>
<pdfrwt beam="1">  1       21 0.63797281E-01 0.27188509E+03</pdfrwt>
<pdfrwt beam="2">  1       21 0.40730170E-01 0.27188509E+03</pdfrwt>
<totfact> 0.12597776E+04</totfact>
</mgrwt>
</event>
<event>
 4    1  0.4333905E+000  0.1758741E+03  0.7546771E-02  0.1171857E+00
         21   -1    0    0  503  502  0.00000000000E+00  0.00000000000E+00  0.44283953166E+03  0.44283953166E+03  0.00000000000E+00 0.  1.
         21   -1    0    0  501  503 -0.00000000000E+00 -0.00000000000E+00 -0.10605361981E+03  0.10605361981E+03  0.00000000000E+00 0.  1.
          6    1    1    2  501    0  0.31577027981E+02 -0.23673817255E+01  0.80390389376E+01  0.17605777273E+03  0.17300000000E+03 0.  1.
         -6    1    1    2    0  502 -0.31577027981E+02  0.23673817255E+01  0.32874687291E+03  0.37283537874E+03  0.17300000000E+03 0.  1.
<mgrwt>
<rscale>  2 0.17587414E+03</rscale>
<asrwt>0</asrwt>
<pdfrwt beam="1">  1       21 0.68129158E-01 0.17587414E+03</pdfrwt>
<pdfrwt beam="2">  1       21 0.16315942E-01 0.17587414E+03</pdfrwt>
<totfact> 0.66655476E+04</totfact>
</mgrwt>
</event>
<event>
 4    1  0.4333905E+000  0.2591019E+03  0.7546771E-02  0.1107684E+00
         21   -1    0    0  503  502  0.00000000000E+00  0.00000000000E+00  0.24038008287E+03  0.24038008287E+03  0.00000000000E+00 0.  1.
         21   -1    0    0  501  503 -0.00000000000E+00 -0.00000000000E+00 -0.31534434422E+03  0.31534434422E+03  0.00000000000E+00 0.  1.
          6    1    1    2  501    0 -0.84872576009E+02  0.17320917841E+03 -0.13144696764E+03  0.29053756890E+03  0.17300000000E+03 0.  1.
         -6    1    1    2    0  502  0.84872576009E+02 -0.17320917841E+03  0.56482706294E+02  0.26518685818E+03  0.17300000000E+03 0.  1.
<mgrwt>
<rscale>  2 0.25910186E+03</rscale>
<asrwt>0</asrwt>
<pdfrwt beam="1">  1       21 0.36981551E-01 0.25910186E+03</pdfrwt>
<pdfrwt beam="2">  1       21 0.48514515E-01 0.25910186E+03</pdfrwt>
<totfact> 0.27677182E+04</totfact>
</mgrwt>
</event>
<event>
 4    1  0.4333905E+000  0.2082301E+03  0.7546771E-02  0.1142975E+00
         21   -1    0    0  503  502  0.00000000000E+00  0.00000000000E+00  0.97428450171E+02  0.97428450171E+02  0.00000000000E+00 0. -1.
         21   -1    0    0  501  503 -0.00000000000E+00 -0.00000000000E+00 -0.71036215879E+03  0.71036215879E+03  0.00000000000E+00 0. -1.
          6    1    1    2  501    0  0.11539152177E+03 -0.10750411601E+02 -0.55330588471E+03  0.59119131988E+03  0.17300000000E+03 0. -1.
         -6    1    1    2    0  502 -0.11539152177E+03  0.10750411601E+02 -0.59627823910E+02  0.21659928908E+03  0.17300000000E+03 0. -1.
<mgrwt>
<rscale>  2 0.20823010E+03</rscale>
<asrwt>0</asrwt>
<pdfrwt beam="1">  1       21 0.14988993E-01 0.20823010E+03</pdfrwt>
<pdfrwt beam="2">  1       21 0.10928648E+00 0.20823010E+03</pdfrwt>
<totfact> 0.25821433E+04</totfact>
</mgrwt>
</event>
<event>
 4    1  0.4333905E+000  0.2421704E+03  0.7546771E-02  0.1118355E+00
         21   -1    0    0  501  502  0.00000000000E+00  0.00000000000E+00  0.10087278720E+03  0.10087278720E+03  0.00000000000E+00 0.  1.
         21   -1    0    0  502  503 -0.00000000000E+00 -0.00000000000E+00 -0.88033351874E+03  0.88033351874E+03  0.00000000000E+00 0. -1.
          6    1    1    2  501    0  0.14251567680E+03  0.91688609876E+02 -0.10383926155E+03  0.26349404463E+03  0.17300000000E+03 0.  1.
         -6    1    1    2    0  503 -0.14251567680E+03 -0.91688609876E+02 -0.67562146999E+03  0.71771226131E+03  0.17300000000E+03 0. -1.
<mgrwt>
<rscale>  2 0.24217043E+03</rscale>
<asrwt>0</asrwt>
<pdfrwt beam="1">  1       21 0.15518890E-01 0.24217043E+03</pdfrwt>
<pdfrwt beam="2">  1       21 0.13543593E+00 0.24217043E+03</pdfrwt>
<totfact> 0.13914853E+04</totfact>
</mgrwt>
</event>
<event>
 4    1  0.4333905E+000  0.2113000E+03  0.7546771E-02  0.1140541E+00
         21   -1    0    0  503  502  0.00000000000E+00  0.00000000000E+00  0.70148216457E+03  0.70148216457E+03  0.00000000000E+00 0. -1.
         21   -1    0    0  501  503 -0.00000000000E+00 -0.00000000000E+00 -0.64460007154E+02  0.64460007154E+02  0.00000000000E+00 0.  1.
          6    1    1    2  501    0  0.74010785306E+02  0.96130663139E+02  0.27551877500E+03  0.34721505744E+03  0.17300000000E+03 0.  1.
         -6    1    1    2    0  502 -0.74010785306E+02 -0.96130663139E+02  0.36150338242E+03  0.41872711428E+03  0.17300000000E+03 0.  1.
<mgrwt>
<rscale>  2 0.21130003E+03</rscale>
<asrwt>0</asrwt>
<pdfrwt beam="1">  1       21 0.10792033E+00 0.21130003E+03</pdfrwt>
<pdfrwt beam="2">  1       21 0.99169247E-02 0.21130003E+03</pdfrwt>
<totfact> 0.55797353E+04</totfact>
</mgrwt>
</event>
<event>
 4    1  0.4333905E+000  0.1765115E+03  0.7546771E-02  0.1171223E+00
         21   -1    0    0  503  502  0.00000000000E+00  0.00000000000E+00  0.99115239121E+02  0.99115239121E+02  0.00000000000E+00 0.  1.
         21   -1    0    0  501  503 -0.00000000000E+00 -0.00000000000E+00 -0.31814475482E+03  0.31814475482E+03  0.00000000000E+00 0.  1.
          6    1    1    2  501    0  0.33206075488E+02  0.11166020016E+02 -0.86712667329E+02  0.19666064712E+03  0.17300000000E+03 0.  1.
         -6    1    1    2    0  502 -0.33206075488E+02 -0.11166020016E+02 -0.13231684837E+03  0.22059934681E+03  0.17300000000E+03 0.  1.
<mgrwt>
<rscale>  2 0.17651154E+03</rscale>
<asrwt>0</asrwt>
<pdfrwt beam="1">  1       21 0.15248499E-01 0.17651154E+03</pdfrwt>
<pdfrwt beam="2">  1       21 0.48945346E-01 0.17651154E+03</pdfrwt>
<totfact> 0.15244906E+05</totfact>
</mgrwt>
</event>
<event>
 4    1  0.4333905E+000  0.2248636E+03  0.7546771E-02  0.1130308E+00
         21   -1    0    0  503  502  0.00000000000E+00  0.00000000000E+00  0.18981075348E+03  0.18981075348E+03  0.00000000000E+00 0.  1.
         21   -1    0    0  501  503 -0.00000000000E+00 -0.00000000000E+00 -0.33911720575E+03  0.33911720575E+03  0.00000000000E+00 0.  1.
          6    1    1    2  501    0  0.11151419489E+03 -0.90549614779E+02 -0.19712631421E+03  0.29903583757E+03  0.17300000000E+03 0.  1.
         -6    1    1    2    0  502 -0.11151419489E+03  0.90549614779E+02  0.47819861941E+02  0.22989212165E+03  0.17300000000E+03 0.  1.
<mgrwt>
<rscale>  2 0.22486362E+03</rscale>
<asrwt>0</asrwt>
<pdfrwt beam="1">  1       21 0.29201654E-01 0.22486362E+03</pdfrwt>
<pdfrwt beam="2">  1       21 0.52171878E-01 0.22486362E+03</pdfrwt>
<totfact> 0.38525340E+04</totfact>
</mgrwt>
</event>
<event>
 4    1  0.4333905E+000  0.1792709E+03  0.7546771E-02  0.1168511E+00
         21   -1    0    0  501  502  0.00000000000E+00  0.00000000000E+00  0.21564311498E+03  0.21564311498E+03  0.00000000000E+00 0.  1.
         21   -1    0    0  502  503 -0.00000000000E+00 -0.00000000000E+00 -0.32253123483E+03  0.32253123483E+03  0.00000000000E+00 0.  1.
          6    1    1    2  501    0 -0.30042593789E+02  0.36145324683E+02  0.14391362870E+03  0.22988948315E+03  0.17300000000E+03 0.  1.
         -6    1    1    2    0  503  0.30042593789E+02 -0.36145324683E+02 -0.25080174855E+03  0.30828486666E+03  0.17300000000E+03 0.  1.
<mgrwt>
<rscale>  2 0.17927086E+03</rscale>
<asrwt>0</asrwt>
<pdfrwt beam="1">  1       21 0.33175864E-01 0.17927086E+03</pdfrwt>
<pdfrwt beam="2">  1       21 0.49620190E-01 0.17927086E+03</pdfrwt>
<totfact> 0.34107461E+04</totfact>
</mgrwt>
</event>
<event>
 4    1  0.4333905E+000  0.2159761E+03  0.7546771E-02  0.1136919E+00
         21   -1    0    0  503  502  0.00000000000E+00  0.00000000000E+00  0.61475582453E+03  0.61475582453E+03  0.00000000000E+00 0.  1.
         21   -1    0    0  501  503 -0.00000000000E+00 -0.00000000000E+00 -0.81691067293E+02  0.81691067293E+02  0.00000000000E+00 0. -1.
          6    1    1    2  501    0 -0.87475615102E+02 -0.95208579445E+02  0.17363121987E+03  0.27711632459E+03  0.17300000000E+03 0. -1.
         -6    1    1    2    0  502  0.87475615102E+02  0.95208579445E+02  0.35943353737E+03  0.41933056724E+03  0.17300000000E+03 0.  1.
<mgrwt>
<rscale>  2 0.21597606E+03</rscale>
<asrwt>0</asrwt>
<pdfrwt beam="1">  1       21 0.94577816E-01 0.21597606E+03</pdfrwt>
<pdfrwt beam="2">  1       21 0.12567857E-01 0.21597606E+03</pdfrwt>
<totfact> 0.49977107E+04</totfact>
</mgrwt>
</event>
<event>
 4    1  0.4333905E+000  0.3140282E+03  0.7546771E-02  0.1078431E+00
         21   -1    0    0  501  502  0.00000000000E+00  0.00000000000E+00  0.16115609541E+03  0.16115609541E+03  0.00000000000E+00 0. -1.
         21   -1    0    0  502  503 -0.00000000000E+00 -0.00000000000E+00 -0.65109414526E+03  0.65109414526E+03  0.00000000000E+00 0.  1.
          6    1    1    2  501    0 -0.22937758168E+03 -0.12676992940E+03 -0.14534356826E+03  0.34603243029E+03  0.17300000000E+03 0.  1.
         -6    1    1    2    0  503  0.22937758168E+03  0.12676992940E+03 -0.34459448159E+03  0.46621781038E+03  0.17300000000E+03 0. -1.
<mgrwt>
<rscale>  2 0.31402817E+03</rscale>
<asrwt>0</asrwt>
<pdfrwt beam="1">  1       21 0.24793245E-01 0.31402817E+03</pdfrwt>
<pdfrwt beam="2">  1       21 0.10016833E+00 0.31402817E+03</pdfrwt>
<totfact> 0.11776502E+04</totfact>
</mgrwt>
</event>
<event>
 4    1  0.4333905E+000  0.2541137E+03  0.7546771E-02  0.1110732E+00
         21   -1    0    0  503  502  0.00000000000E+00  0.00000000000E+00  0.26137407010E+03  0.26137407010E+03  0.00000000000E+00 0.  1.
         21   -1    0    0  501  503 -0.00000000000E+00 -0.00000000000E+00 -0.29990062744E+03  0.29990062744E+03  0.00000000000E+00 0.  1.
          6    1    1    2  501    0 -0.13117448211E+02  0.18566832592E+03 -0.13706752271E+03  0.28872357105E+03  0.17300000000E+03 0.  1.
         -6    1    1    2    0  502  0.13117448211E+02 -0.18566832592E+03  0.98540965375E+02  0.27255112650E+03  0.17300000000E+03 0.  1.
<mgrwt>
<rscale>  2 0.25411374E+03</rscale>
<asrwt>0</asrwt>
<pdfrwt beam="1">  1       21 0.40211396E-01 0.25411374E+03</pdfrwt>
<pdfrwt beam="2">  1       21 0.46138558E-01 0.25411374E+03</pdfrwt>
<totfact> 0.25996290E+04</totfact>
</mgrwt>
</event>
<event>
 4    1  0.4333905E+000  0.2006643E+03  0.7546771E-02  0.1149180E+00
         21   -1    0    0  503  502  0.00000000000E+00  0.00000000000E+00  0.14159622522E+03  0.14159622522E+03  0.00000000000E+00 0.  1.
         21   -1    0    0  501  503 -0.00000000000E+00 -0.00000000000E+00 -0.43078048619E+03  0.43078048619E+03  0.00000000000E+00 0.  1.
          6    1    1    2  501    0 -0.92969865472E+02 -0.41155310304E+02 -0.31143415981E+03  0.37048264648E+03  0.17300000000E+03 0.  1.
         -6    1    1    2    0  502  0.92969865472E+02  0.41155310304E+02  0.22249898833E+02  0.20189406492E+03  0.17300000000E+03 0.  1.
<mgrwt>
<rscale>  2 0.20066429E+03</rscale>
<asrwt>0</asrwt>
<pdfrwt beam="1">  1       21 0.21784035E-01 0.20066429E+03</pdfrwt>
<pdfrwt beam="2">  1       21 0.66273919E-01 0.20066429E+03</pdfrwt>
<totfact> 0.40914326E+04</totfact>
</mgrwt>
</event>
<event>
 4    1  0.4333905E+000  0.1759353E+03  0.7546771E-02  0.1171796E+00
         21   -1    0    0  503  502  0.00000000000E+00  0.00000000000E+00  0.88558783195E+02  0.88558783195E+02  0.00000000000E+00 0. -1.
         21   -1    0    0  501  503 -0.00000000000E+00 -0.00000000000E+00 -0.50688591567E+03  0.50688591567E+03  0.00000000000E+00 0. -1.
          6    1    1    2  501    0  0.83362196741E+01 -0.30898558806E+02 -0.37504942382E+03  0.41426475085E+03  0.17300000000E+03 0. -1.
         -6    1    1    2    0  502 -0.83362196741E+01  0.30898558806E+02 -0.43277708659E+02  0.18117994801E+03  0.17300000000E+03 0. -1.
<mgrwt>
<rscale>  2 0.17593525E+03</rscale>
<asrwt>0</asrwt>
<pdfrwt beam="1">  1       21 0.13624428E-01 0.17593525E+03</pdfrwt>
<pdfrwt beam="2">  1       21 0.77982450E-01 0.17593525E+03</pdfrwt>
<totfact> 0.68553885E+04</totfact>
</mgrwt>
</event>
<event>
 4    1  0.4333905E+000  0.1842927E+03  0.7546771E-02  0.1163712E+00
         21   -1    0    0  501  502  0.00000000000E+00  0.00000000000E+00  0.12813012744E+03  0.12813012744E+03  0.00000000000E+00 0. -1.
         21   -1    0    0  502  503 -0.00000000000E+00 -0.00000000000E+00 -0.36399997265E+03  0.36399997265E+03  0.00000000000E+00 0. -1.
          6    1    1    2  501    0 -0.63471772299E+02 -0.24797012062E+01  0.10344501601E+02  0.18458283645E+03  0.17300000000E+03 0. -1.
         -6    1    1    2    0  503  0.63471772299E+02  0.24797012062E+01 -0.24621434681E+03  0.30754726364E+03  0.17300000000E+03 0. -1.
<mgrwt>
<rscale>  2 0.18429274E+03</rscale>
<asrwt>0</asrwt>
<pdfrwt beam="1">  1       21 0.19712328E-01 0.18429274E+03</pdfrwt>
<pdfrwt beam="2">  1       21 0.55999995E-01 0.18429274E+03</pdfrwt>
<totfact> 0.71455649E+04</totfact>
</mgrwt>
</event>
<event>
 4    1  0.4333905E+000  0.1917468E+03  0.7546771E-02  0.1156895E+00
         21   -1    0    0  501  502  0.00000000000E+00  0.00000000000E+00  0.77164052830E+03  0.77164052830E+03  0.00000000000E+00 0. -1.
         21   -1    0    0  502  503 -0.00000000000E+00 -0.00000000000E+00 -0.99030134197E+02  0.99030134197E+02  0.00000000000E+00 0. -1.
          6    1    1    2  501    0 -0.48736019758E+02 -0.66802826107E+02  0.64988494212E+03  0.67758191770E+03  0.17300000000E+03 0. -1.
         -6    1    1    2    0  503  0.48736019758E+02  0.66802826107E+02  0.22725451976E+02  0.19308874479E+03  0.17300000000E+03 0. -1.
<mgrwt>
<rscale>  2 0.19174675E+03</rscale>
<asrwt>0</asrwt>
<pdfrwt beam="1">  1       21 0.11871392E+00 0.19174675E+03</pdfrwt>
<pdfrwt beam="2">  1       21 0.15235406E-01 0.19174675E+03</pdfrwt>
<totfact> 0.20694284E+04</totfact>
</mgrwt>
</event>
<event>
 4    1  0.4333905E+000  0.2675885E+03  0.7546771E-02  0.1102668E+00
         21   -1    0    0  501  502  0.00000000000E+00  0.00000000000E+00  0.17494110637E+03  0.17494110637E+03  0.00000000000E+00 0. -1.
         21   -1    0    0  502  503 -0.00000000000E+00 -0.00000000000E+00 -0.57113020065E+03  0.57113020065E+03  0.00000000000E+00 0.  1.
          6    1    1    2  501    0 -0.18202219170E+03  0.92425674870E+02  0.47430142925E+00  0.26758887983E+03  0.17300000000E+03 0. -1.
         -6    1    1    2    0  503  0.18202219170E+03 -0.92425674870E+02 -0.39666339571E+03  0.47848242720E+03  0.17300000000E+03 0.  1.
<mgrwt>
<rscale>  2 0.26758846E+03</rscale>
<asrwt>0</asrwt>
<pdfrwt beam="1">  1       21 0.26914016E-01 0.26758846E+03</pdfrwt>
<pdfrwt beam="2">  1       21 0.87866186E-01 0.26758846E+03</pdfrwt>
<totfact> 0.13987999E+04</totfact>
</mgrwt>
</event>
<event>
 4    1  0.4333905E+000  0.1990293E+03  0.7546771E-02  0.1150561E+00
         21   -1    0    0  501  502  0.00000000000E+00  0.00000000000E+00  0.12472121375E+04  0.12472121375E+04  0.00000000000E+00 0.  1.
         21   -1    0    0  502  503 -0.00000000000E+00 -0.00000000000E+00 -0.53605810218E+02  0.53605810218E+02  0.00000000000E+00 0. -1.
          6    1    1    2  501    0 -0.61820090534E+01  0.98211202083E+02  0.10120010242E+04  0.10313867997E+04  0.17300000000E+03 0.  1.
         -6    1    1    2    0  503  0.61820090534E+01 -0.98211202083E+02  0.18160530304E+03  0.26943114806E+03  0.17300000000E+03 0. -1.
<mgrwt>
<rscale>  2 0.19902929E+03</rscale>
<asrwt>0</asrwt>
<pdfrwt beam="1">  1       21 0.19187877E+00 0.19902929E+03</pdfrwt>
<pdfrwt beam="2">  1       21 0.82470487E-02 0.19902929E+03</pdfrwt>
<totfact> 0.17169668E+04</totfact>
</mgrwt>
</event>
<event>
 4    1  0.4333905E+000  0.2377525E+03  0.7546771E-02  0.1121299E+00
         21   -1    0    0  501  502  0.00000000000E+00  0.00000000000E+00  0.21754071332E+03  0.21754071332E+03  0.00000000000E+00 0. -1.
         21   -1    0    0  502  503 -0.00000000000E+00 -0.00000000000E+00 -0.52445821655E+03  0.52445821655E+03  0.00000000000E+00 0. -1.
          6    1    1    2  501    0  0.16281457889E+03  0.94149672298E+01  0.11006878893E+03  0.26199497515E+03  0.17300000000E+03 0. -1.
         -6    1    1    2    0  503 -0.16281457889E+03 -0.94149672298E+01 -0.41698629216E+03  0.48000395473E+03  0.17300000000E+03 0. -1.
<mgrwt>
<rscale>  2 0.23775245E+03</rscale>
<asrwt>0</asrwt>
<pdfrwt beam="1">  1       21 0.33467802E-01 0.23775245E+03</pdfrwt>
<pdfrwt beam="2">  1       21 0.80685880E-01 0.23775245E+03</pdfrwt>
<totfact> 0.11273601E+04</totfact>
</mgrwt>
</event>
<event>
 4    1  0.4333905E+000  0.2079791E+03  0.7546771E-02  0.1143176E+00
         21   -1    0    0  503  502  0.00000000000E+00  0.00000000000E+00  0.65399668496E+03  0.65399668496E+03  0.00000000000E+00 0.  1.
         21   -1    0    0  501  503 -0.00000000000E+00 -0.00000000000E+00 -0.13611429241E+03  0.13611429241E+03  0.00000000000E+00 0. -1.
          6    1    1    2  501    0 -0.31318675414E+02 -0.11111014278E+03 -0.24312493477E+02  0.20939536909E+03  0.17300000000E+03 0. -1.
         -6    1    1    2    0  502  0.31318675414E+02  0.11111014278E+03  0.54219488603E+03  0.58071560828E+03  0.17300000000E+03 0.  1.
<mgrwt>
<rscale>  2 0.20797914E+03</rscale>
<asrwt>0</asrwt>
<pdfrwt beam="1">  1       21 0.10061487E+00 0.20797914E+03</pdfrwt>
<pdfrwt beam="2">  1       21 0.20940661E-01 0.20797914E+03</pdfrwt>
<totfact> 0.16970109E+04</totfact>
</mgrwt>
</event>
<event>
 4    1  0.4333905E+000  0.1892396E+03  0.7546771E-02  0.1159149E+00
         21   -1    0    0  501  502  0.00000000000E+00  0.00000000000E+00  0.12912902087E+03  0.12912902087E+03  0.00000000000E+00 0. -1.
         21   -1    0    0  502  503 -0.00000000000E+00 -0.00000000000E+00 -0.67509057911E+03  0.67509057911E+03  0.00000000000E+00 0. -1.
          6    1    1    2  501    0  0.74311147210E+02  0.18986621622E+02  0.35674201928E+02  0.19257280982E+03  0.17300000000E+03 0. -1.
         -6    1    1    2    0  503 -0.74311147210E+02 -0.18986621622E+02 -0.58163576017E+03  0.61164679016E+03  0.17300000000E+03 0. -1.
<mgrwt>
<rscale>  2 0.18923963E+03</rscale>
<asrwt>0</asrwt>
<pdfrwt beam="1">  1       21 0.19866004E-01 0.18923963E+03</pdfrwt>
<pdfrwt beam="2">  1       21 0.10386009E+00 0.18923963E+03</pdfrwt>
<totfact> 0.17569054E+04</totfact>
</mgrwt>
</event>
<event>
 4    1  0.4333905E+000  0.1812188E+03  0.7546771E-02  0.1166629E+00
         21   -1    0    0  501  502  0.00000000000E+00  0.00000000000E+00  0.22738189620E+03  0.22738189620E+03  0.00000000000E+00 0.  1.
         21   -1    0    0  502  503 -0.00000000000E+00 -0.00000000000E+00 -0.27209482022E+03  0.27209482022E+03  0.00000000000E+00 0.  1.
          6    1    1    2  501    0  0.44115405205E+02  0.31066095521E+02  0.14870983102E+03  0.23442458299E+03  0.17300000000E+03 0.  1.
         -6    1    1    2    0  503 -0.44115405205E+02 -0.31066095521E+02 -0.19342275505E+03  0.26505213343E+03  0.17300000000E+03 0.  1.
<mgrwt>
<rscale>  2 0.18121885E+03</rscale>
<asrwt>0</asrwt>
<pdfrwt beam="1">  1       21 0.34981830E-01 0.18121885E+03</pdfrwt>
<pdfrwt beam="2">  1       21 0.41860742E-01 0.18121885E+03</pdfrwt>
<totfact> 0.43514751E+04</totfact>
</mgrwt>
</event>
<event>
 4    1  0.4333905E+000  0.2203424E+03  0.7546771E-02  0.1133628E+00
         21   -1    0    0  503  502  0.00000000000E+00  0.00000000000E+00  0.43818784543E+03  0.43818784543E+03  0.00000000000E+00 0.  1.
         21   -1    0    0  501  503 -0.00000000000E+00 -0.00000000000E+00 -0.53082018111E+03  0.53082018111E+03  0.00000000000E+00 0. -1.
          6    1    1    2  501    0 -0.21017674051E+02 -0.13483337044E+03 -0.47729829021E+03  0.52570375521E+03  0.17300000000E+03 0. -1.
         -6    1    1    2    0  502  0.21017674051E+02  0.13483337044E+03  0.38466595453E+03  0.44330427133E+03  0.17300000000E+03 0.  1.
<mgrwt>
<rscale>  2 0.22034242E+03</rscale>
<asrwt>0</asrwt>
<pdfrwt beam="1">  1       21 0.67413515E-01 0.22034242E+03</pdfrwt>
<pdfrwt beam="2">  1       21 0.81664643E-01 0.22034242E+03</pdfrwt>
<totfact> 0.25816264E+03</totfact>
</mgrwt>
</event>
<event>
 4    1  0.4333905E+000  0.2357579E+03  0.7546771E-02  0.1122651E+00
         21   -1    0    0  501  502  0.00000000000E+00  0.00000000000E+00  0.70636060479E+02  0.70636060479E+02  0.00000000000E+00 0.  1.
         21   -1    0    0  502  503 -0.00000000000E+00 -0.00000000000E+00 -0.93070859458E+03  0.93070859458E+03  0.00000000000E+00 0. -1.
          6    1    1    2  501    0  0.14819828885E+03 -0.60745951009E+02 -0.23321330915E+03  0.33161762762E+03  0.17300000000E+03 0.  1.
         -6    1    1    2    0  503 -0.14819828885E+03  0.60745951009E+02 -0.62685922495E+03  0.66972702744E+03  0.17300000000E+03 0. -1.
<mgrwt>
<rscale>  2 0.23575793E+03</rscale>
<asrwt>0</asrwt>
<pdfrwt beam="1">  1       21 0.10867087E-01 0.23575793E+03</pdfrwt>
<pdfrwt beam="2">  1       21 0.14318593E+00 0.23575793E+03</pdfrwt>
<totfact> 0.23027275E+04</totfact>
</mgrwt>
</event>
<event>
 4    1  0.4333905E+000  0.1929265E+03  0.7546771E-02  0.1155848E+00
         21   -1    0    0  501  502  0.00000000000E+00  0.00000000000E+00  0.17239210133E+03  0.17239210133E+03  0.00000000000E+00 0.  1.
         21   -1    0    0  502  503 -0.00000000000E+00 -0.00000000000E+00 -0.21789059027E+03  0.21789059027E+03  0.00000000000E+00 0.  1.
          6    1    1    2  501    0 -0.79306147092E+02  0.31657136585E+02 -0.41296544474E+01  0.19297070583E+03  0.17300000000E+03 0.  1.
         -6    1    1    2    0  503  0.79306147092E+02 -0.31657136585E+02 -0.41368834495E+02  0.19731198578E+03  0.17300000000E+03 0.  1.
<mgrwt>
<rscale>  2 0.19292651E+03</rscale>
<asrwt>0</asrwt>
<pdfrwt beam="1">  1       21 0.26521862E-01 0.19292651E+03</pdfrwt>
<pdfrwt beam="2">  1       21 0.33521629E-01 0.19292651E+03</pdfrwt>
<totfact> 0.11593267E+05</totfact>
</mgrwt>
</event>
<event>
 4    1  0.4333905E+000  0.2675480E+03  0.7546771E-02  0.1102691E+00
         21   -1    0    0  501  502  0.00000000000E+00  0.00000000000E+00  0.10463782510E+03  0.10463782510E+03  0.00000000000E+00 0. -1.
         21   -1    0    0  502  503 -0.00000000000E+00 -0.00000000000E+00 -0.12221460315E+04  0.12221460315E+04  0.00000000000E+00 0.  1.
          6    1    1    2  501    0 -0.14921231619E+03 -0.13924303768E+03 -0.11858310609E+03  0.29264977686E+03  0.17300000000E+03 0. -1.
         -6    1    1    2    0  503  0.14921231619E+03  0.13924303768E+03 -0.99892510031E+03  0.10341340797E+04  0.17300000000E+03 0.  1.
<mgrwt>
<rscale>  2 0.26754801E+03</rscale>
<asrwt>0</asrwt>
<pdfrwt beam="1">  1       21 0.16098128E-01 0.26754801E+03</pdfrwt>
<pdfrwt beam="2">  1       21 0.18802245E+00 0.26754801E+03</pdfrwt>
<totfact> 0.52296322E+03</totfact>
</mgrwt>
</event>
<event>
 4    1  0.4333905E+000  0.1855524E+03  0.7546771E-02  0.1162535E+00
         21   -1    0    0  503  502  0.00000000000E+00  0.00000000000E+00  0.10843399487E+02  0.10843399487E+02  0.00000000000E+00 0. -1.
         21   -1    0    0  501  503 -0.00000000000E+00 -0.00000000000E+00 -0.33193808072E+04  0.33193808072E+04  0.00000000000E+00 0.  1.
          6    1    1    2  501    0 -0.66122291144E+02  0.11337804279E+02 -0.20013287462E+04  0.20099120512E+04  0.17300000000E+03 0.  1.
         -6    1    1    2    0  502  0.66122291144E+02 -0.11337804279E+02 -0.13072086616E+04  0.13203121555E+04  0.17300000000E+03 0. -1.
<mgrwt>
<rscale>  2 0.18555243E+03</rscale>
<asrwt>0</asrwt>
<pdfrwt beam="1">  1       21 0.16682151E-02 0.18555243E+03</pdfrwt>
<pdfrwt beam="2">  1       21 0.51067402E+00 0.18555243E+03</pdfrwt>
<totfact> 0.26562296E+03</totfact>
</mgrwt>
</event>
<event>
 4    1  0.4333905E+000  0.2091329E+03  0.7546771E-02  0.1142255E+00
         21   -1    0    0  501  502  0.00000000000E+00  0.00000000000E+00  0.30611499170E+02  0.30611499170E+02  0.00000000000E+00 0. -1.
         21   -1    0    0  502  503 -0.00000000000E+00 -0.00000000000E+00 -0.17111720372E+04  0.17111720372E+04  0.00000000000E+00 0. -1.
          6    1    1    2  501    0  0.36269632803E+02  0.11176794487E+03 -0.48648087397E+03  0.52952828111E+03  0.17300000000E+03 0.  1.
         -6    1    1    2    0  503 -0.36269632803E+02 -0.11176794487E+03 -0.11940796640E+04  0.12122552552E+04  0.17300000000E+03 0.  1.
<mgrwt>
<rscale>  2 0.20913288E+03</rscale>
<asrwt>0</asrwt>
<pdfrwt beam="1">  1       21 0.47094611E-02 0.20913288E+03</pdfrwt>
<pdfrwt beam="2">  1       21 0.26325725E+00 0.20913288E+03</pdfrwt>
<totfact> 0.16313736E+04</totfact>
</mgrwt>
</event>
<event>
 4    1  0.4333905E+000  0.2510053E+03  0.7546771E-02  0.1112671E+00
         21   -1    0    0  501  502  0.00000000000E+00  0.00000000000E+00  0.52810260250E+03  0.52810260250E+03  0.00000000000E+00 0.  1.
         21   -1    0    0  502  503 -0.00000000000E+00 -0.00000000000E+00 -0.19748829550E+03  0.19748829550E+03  0.00000000000E+00 0. -1.
          6    1    1    2  501    0 -0.18095184612E+03  0.18195918813E+02 -0.62966952207E+02  0.25878272575E+03  0.17300000000E+03 0. -1.
         -6    1    1    2    0  503  0.18095184612E+03 -0.18195918813E+02  0.39358125921E+03  0.46680817225E+03  0.17300000000E+03 0.  1.
<mgrwt>
<rscale>  2 0.25100530E+03</rscale>
<asrwt>0</asrwt>
<pdfrwt beam="1">  1       21 0.81246554E-01 0.25100530E+03</pdfrwt>
<pdfrwt beam="2">  1       21 0.30382815E-01 0.25100530E+03</pdfrwt>
<totfact> 0.13334785E+04</totfact>
</mgrwt>
</event>
<event>
 4    1  0.4333905E+000  0.1775667E+03  0.7546771E-02  0.1170179E+00
         21   -1    0    0  501  502  0.00000000000E+00  0.00000000000E+00  0.94746375505E+03  0.94746375505E+03  0.00000000000E+00 0. -1.
         21   -1    0    0  502  503 -0.00000000000E+00 -0.00000000000E+00 -0.43553365633E+02  0.43553365633E+02  0.00000000000E+00 0. -1.
          6    1    1    2  501    0 -0.33181073554E+02 -0.22359518704E+02  0.69263172898E+03  0.71503051942E+03  0.17300000000E+03 0. -1.
         -6    1    1    2    0  503  0.33181073554E+02  0.22359518704E+02  0.21127866044E+03  0.27598660126E+03  0.17300000000E+03 0. -1.
<mgrwt>
<rscale>  2 0.17756670E+03</rscale>
<asrwt>0</asrwt>
<pdfrwt beam="1">  1       21 0.14576364E+00 0.17756670E+03</pdfrwt>
<pdfrwt beam="2">  1       21 0.67005185E-02 0.17756670E+03</pdfrwt>
<totfact> 0.52997811E+04</totfact>
</mgrwt>
</event>
<event>
 4    1  0.4333905E+000  0.1766081E+03  0.7546771E-02  0.1171127E+00
         21   -1    0    0  501  502  0.00000000000E+00  0.00000000000E+00  0.14796587202E+04  0.14796587202E+04  0.00000000000E+00 0. -1.
         21   -1    0    0  502  503 -0.00000000000E+00 -0.00000000000E+00 -0.51249797699E+02  0.51249797699E+02  0.00000000000E+00 0. -1.
          6    1    1    2  501    0 -0.17334530686E+02  0.30998826130E+02  0.13015088155E+04  0.13134365649E+04  0.17300000000E+03 0. -1.
         -6    1    1    2    0  503  0.17334530686E+02 -0.30998826130E+02  0.12690010694E+03  0.21747195294E+03  0.17300000000E+03 0. -1.
<mgrwt>
<rscale>  2 0.17660808E+03</rscale>
<asrwt>0</asrwt>
<pdfrwt beam="1">  1       21 0.22763977E+00 0.17660808E+03</pdfrwt>
<pdfrwt beam="2">  1       21 0.78845854E-02 0.17660808E+03</pdfrwt>
<totfact> 0.11287441E+04</totfact>
</mgrwt>
</event>
<event>
 4    1  0.4333905E+000  0.2330674E+03  0.7546771E-02  0.1124499E+00
         21   -1    0    0  503  502  0.00000000000E+00  0.00000000000E+00  0.21284234898E+03  0.21284234898E+03  0.00000000000E+00 0. -1.
         21   -1    0    0  501  503 -0.00000000000E+00 -0.00000000000E+00 -0.25984738255E+03  0.25984738255E+03  0.00000000000E+00 0. -1.
          6    1    1    2  501    0 -0.57210227643E+02 -0.14532170964E+03 -0.55061455162E+02  0.23948313779E+03  0.17300000000E+03 0. -1.
         -6    1    1    2    0  502  0.57210227643E+02  0.14532170964E+03  0.80564215925E+01  0.23320659375E+03  0.17300000000E+03 0. -1.
<mgrwt>
<rscale>  2 0.23306739E+03</rscale>
<asrwt>0</asrwt>
<pdfrwt beam="1">  1       21 0.32744977E-01 0.23306739E+03</pdfrwt>
<pdfrwt beam="2">  1       21 0.39976520E-01 0.23306739E+03</pdfrwt>
<totfact> 0.53153204E+04</totfact>
</mgrwt>
</event>
<event>
 4    1  0.4333905E+000  0.2012214E+03  0.7546771E-02  0.1148713E+00
         21   -1    0    0  501  502  0.00000000000E+00  0.00000000000E+00  0.29214944028E+03  0.29214944028E+03  0.00000000000E+00 0. -1.
         21   -1    0    0  502  503 -0.00000000000E+00 -0.00000000000E+00 -0.23038387743E+03  0.23038387743E+03  0.00000000000E+00 0.  1.
          6    1    1    2  501    0  0.35319466990E+02  0.96506990003E+02  0.19579624741E+03  0.28076010110E+03  0.17300000000E+03 0. -1.
         -6    1    1    2    0  503 -0.35319466990E+02 -0.96506990003E+02 -0.13403068456E+03  0.24177321661E+03  0.17300000000E+03 0.  1.
<mgrwt>
<rscale>  2 0.20122143E+03</rscale>
<asrwt>0</asrwt>
<pdfrwt beam="1">  1       21 0.44946068E-01 0.20122143E+03</pdfrwt>
<pdfrwt beam="2">  1       21 0.35443673E-01 0.20122143E+03</pdfrwt>
<totfact> 0.36293958E+04</totfact>
</mgrwt>
</event>
<event>
 4    1  0.4333905E+000  0.2363634E+03  0.7546771E-02  0.1122239E+00
         21   -1    0    0  503  502  0.00000000000E+00  0.00000000000E+00  0.43815895290E+02  0.43815895290E+02  0.00000000000E+00 0.  1.
         21   -1    0    0  501  503 -0.00000000000E+00 -0.00000000000E+00 -0.12965866367E+04  0.12965866367E+04  0.00000000000E+00 0.  1.
          6    1    1    2  501    0 -0.10962873489E+02 -0.16068131272E+03 -0.71275175224E+03  0.75092125365E+03  0.17300000000E+03 0.  1.
         -6    1    1    2    0  502  0.10962873489E+02  0.16068131272E+03 -0.54001898913E+03  0.58948127830E+03  0.17300000000E+03 0.  1.
<mgrwt>
<rscale>  2 0.23636343E+03</rscale>
<asrwt>0</asrwt>
<pdfrwt beam="1">  1       21 0.67409073E-02 0.23636343E+03</pdfrwt>
<pdfrwt beam="2">  1       21 0.19947486E+00 0.23636343E+03</pdfrwt>
<totfact> 0.21184624E+04</totfact>
</mgrwt>
</event>
<event>
 4    1  0.4333905E+000  0.3293344E+03  0.7546771E-02  0.1071432E+00
         21   -1    0    0  503  502  0.00000000000E+00  0.00000000000E+00  0.70112922363E+03  0.70112922363E+03  0.00000000000E+00 0.  1.
         21   -1    0    0  501  503 -0.00000000000E+00 -0.00000000000E+00 -0.15517170356E+03  0.15517170356E+03  0.00000000000E+00 0. -1.
          6    1    1    2  501    0 -0.22404622969E+02 -0.27933885284E+03  0.24924702097E+03  0.41301965970E+03  0.17300000000E+03 0. -1.
         -6    1    1    2    0  502  0.22404622969E+02  0.27933885284E+03  0.29671049910E+03  0.44328126749E+03  0.17300000000E+03 0. -1.
<mgrwt>
<rscale>  2 0.32933442E+03</rscale>
<asrwt>0</asrwt>
<pdfrwt beam="1">  1       21 0.10786603E+00 0.32933442E+03</pdfrwt>
<pdfrwt beam="2">  1       21 0.23872570E-01 0.32933442E+03</pdfrwt>
<totfact> 0.10510031E+04</totfact>
</mgrwt>
</event>
<event>
 4    1  0.4333905E+000  0.2002932E+03  0.7546771E-02  0.1149492E+00
         21   -1    0    0  503  502  0.00000000000E+00  0.00000000000E+00  0.39431976624E+02  0.39431976624E+02  0.00000000000E+00 0.  1.
         21   -1    0    0  501  503 -0.00000000000E+00 -0.00000000000E+00 -0.10428902850E+04  0.10428902850E+04  0.00000000000E+00 0. -1.
          6    1    1    2  501    0 -0.98954892190E+02 -0.19907380766E+02 -0.58636411611E+03  0.61962912388E+03  0.17300000000E+03 0. -1.
         -6    1    1    2    0  502  0.98954892190E+02  0.19907380766E+02 -0.41709419229E+03  0.46269313777E+03  0.17300000000E+03 0. -1.
<mgrwt>
<rscale>  2 0.20029322E+03</rscale>
<asrwt>0</asrwt>
<pdfrwt beam="1">  1       21 0.60664589E-02 0.20029322E+03</pdfrwt>
<pdfrwt beam="2">  1       21 0.16044463E+00 0.20029322E+03</pdfrwt>
<totfact> 0.48120955E+04</totfact>
</mgrwt>
</event>
<event>
 4    1  0.4333905E+000  0.1739253E+03  0.7546771E-02  0.1173815E+00
         21   -1    0    0  503  502  0.00000000000E+00  0.00000000000E+00  0.20643625428E+03  0.20643625428E+03  0.00000000000E+00 0. -1.
         21   -1    0    0  501  503 -0.00000000000E+00 -0.00000000000E+00 -0.15512931397E+03  0.15512931397E+03  0.00000000000E+00 0. -1.
          6    1    1    2  501    0  0.17870782178E+02  0.12798785008E+01 -0.16899716707E+02  0.17474439439E+03  0.17300000000E+03 0. -1.
         -6    1    1    2    0  502 -0.17870782178E+02 -0.12798785008E+01  0.68206657013E+02  0.18682117387E+03  0.17300000000E+03 0. -1.
<mgrwt>
<rscale>  2 0.17392528E+03</rscale>
<asrwt>0</asrwt>
<pdfrwt beam="1">  1       21 0.31759424E-01 0.17392528E+03</pdfrwt>
<pdfrwt beam="2">  1       21 0.23866048E-01 0.17392528E+03</pdfrwt>
<totfact> 0.15867053E+05</totfact>
</mgrwt>
</event>
<event>
 4    1  0.4333905E+000  0.1832583E+03  0.7546771E-02  0.1164686E+00
         21   -1    0    0  503  502  0.00000000000E+00  0.00000000000E+00  0.15295475616E+03  0.15295475616E+03  0.00000000000E+00 0.  1.
         21   -1    0    0  501  503 -0.00000000000E+00 -0.00000000000E+00 -0.21988592609E+03  0.21988592609E+03  0.00000000000E+00 0.  1.
          6    1    1    2  501    0  0.45171300136E+02  0.40176690967E+02 -0.40580115065E+02  0.18769751887E+03  0.17300000000E+03 0.  1.
         -6    1    1    2    0  502 -0.45171300136E+02 -0.40176690967E+02 -0.26351054861E+02  0.18514316338E+03  0.17300000000E+03 0.  1.
<mgrwt>
<rscale>  2 0.18325832E+03</rscale>
<asrwt>0</asrwt>
<pdfrwt beam="1">  1       21 0.23531501E-01 0.18325832E+03</pdfrwt>
<pdfrwt beam="2">  1       21 0.33828604E-01 0.18325832E+03</pdfrwt>
<totfact> 0.14351910E+05</totfact>
</mgrwt>
</event>
<event>
 4    1  0.4333905E+000  0.2382475E+03  0.7546771E-02  0.1120966E+00
         21   -1    0    0  501  502  0.00000000000E+00  0.00000000000E+00  0.22809814611E+03  0.22809814611E+03  0.00000000000E+00 0. -1.
         21   -1    0    0  502  503 -0.00000000000E+00 -0.00000000000E+00 -0.33418568573E+03  0.33418568573E+03  0.00000000000E+00 0.  1.
          6    1    1    2  501    0  0.94181524924E+02 -0.13402495996E+03  0.89025841843E+02  0.25433727616E+03  0.17300000000E+03 0. -1.
         -6    1    1    2    0  503 -0.94181524924E+02  0.13402495996E+03 -0.19511338147E+03  0.30794655568E+03  0.17300000000E+03 0.  1.
<mgrwt>
<rscale>  2 0.23824745E+03</rscale>
<asrwt>0</asrwt>
<pdfrwt beam="1">  1       21 0.35092023E-01 0.23824745E+03</pdfrwt>
<pdfrwt beam="2">  1       21 0.51413182E-01 0.23824745E+03</pdfrwt>
<totfact> 0.27478286E+04</totfact>
</mgrwt>
</event>
<event>
 4    1  0.4333905E+000  0.2083813E+03  0.7546771E-02  0.1142854E+00
         21   -1    0    0  501  502  0.00000000000E+00  0.00000000000E+00  0.34070841006E+02  0.34070841006E+02  0.00000000000E+00 0.  1.
         21   -1    0    0  502  503 -0.00000000000E+00 -0.00000000000E+00 -0.13145367101E+04  0.13145367101E+04  0.00000000000E+00 0.  1.
          6    1    1    2  501    0  0.41598449948E+02  0.10845884003E+03 -0.52253097112E+03  0.56254899057E+03  0.17300000000E+03 0. -1.
         -6    1    1    2    0  503 -0.41598449948E+02 -0.10845884003E+03 -0.75793489800E+03  0.78605856056E+03  0.17300000000E+03 0. -1.
<mgrwt>
<rscale>  2 0.20838126E+03</rscale>
<asrwt>0</asrwt>
<pdfrwt beam="1">  1       21 0.52416672E-02 0.20838126E+03</pdfrwt>
<pdfrwt beam="2">  1       21 0.20223644E+00 0.20838126E+03</pdfrwt>
<totfact> 0.31901252E+04</totfact>
</mgrwt>
</event>
<event>
 4    1  0.4333905E+000  0.2028513E+03  0.7546771E-02  0.1147355E+00
         21   -1    0    0  503  502  0.00000000000E+00  0.00000000000E+00  0.22796066590E+03  0.22796066590E+03  0.00000000000E+00 0. -1.
         21   -1    0    0  501  503 -0.00000000000E+00 -0.00000000000E+00 -0.18546613590E+03  0.18546613590E+03  0.00000000000E+00 0.  1.
          6    1    1    2  501    0  0.77490519151E+02  0.72214057644E+02  0.55046712109E+02  0.21018751436E+03  0.17300000000E+03 0.  1.
         -6    1    1    2    0  502 -0.77490519151E+02 -0.72214057644E+02 -0.12552182110E+02  0.20323928743E+03  0.17300000000E+03 0.  1.
<mgrwt>
<rscale>  2 0.20285130E+03</rscale>
<asrwt>0</asrwt>
<pdfrwt beam="1">  1       21 0.35070872E-01 0.20285130E+03</pdfrwt>
<pdfrwt beam="2">  1       21 0.28533252E-01 0.20285130E+03</pdfrwt>
<totfact> 0.91680740E+04</totfact>
</mgrwt>
</event>
<event>
 4    1  0.4333905E+000  0.2657132E+03  0.7546771E-02  0.1103758E+00
         21   -1    0    0  503  502  0.00000000000E+00  0.00000000000E+00  0.13876783177E+04  0.13876783177E+04  0.00000000000E+00 0.  1.
         21   -1    0    0  501  503 -0.00000000000E+00 -0.00000000000E+00 -0.64112750941E+02  0.64112750941E+02  0.00000000000E+00 0.  1.
          6    1    1    2  501    0  0.18679095297E+03 -0.76050366154E+02  0.33198679413E+03  0.42522787983E+03  0.17300000000E+03 0.  1.
         -6    1    1    2    0  502 -0.18679095297E+03  0.76050366154E+02  0.99157877268E+03  0.10265631889E+04  0.17300000000E+03 0.  1.
<mgrwt>
<rscale>  2 0.26571323E+03</rscale>
<asrwt>0</asrwt>
<pdfrwt beam="1">  1       21 0.21348895E+00 0.26571323E+03</pdfrwt>
<pdfrwt beam="2">  1       21 0.98635012E-02 0.26571323E+03</pdfrwt>
<totfact> 0.86743381E+03</totfact>
</mgrwt>
</event>
<event>
 4    1  0.4333905E+000  0.1801291E+03  0.7546771E-02  0.1167678E+00
         21   -1    0    0  503  502  0.00000000000E+00  0.00000000000E+00  0.18041694518E+03  0.18041694518E+03  0.00000000000E+00 0. -1.
         21   -1    0    0  501  503 -0.00000000000E+00 -0.00000000000E+00 -0.35094246189E+03  0.35094246189E+03  0.00000000000E+00 0. -1.
          6    1    1    2  501    0  0.22392539475E+02  0.44900588583E+02 -0.27077236335E+03  0.32521402404E+03  0.17300000000E+03 0. -1.
         -6    1    1    2    0  502 -0.22392539475E+02 -0.44900588583E+02  0.10024684664E+03  0.20614538302E+03  0.17300000000E+03 0. -1.
<mgrwt>
<rscale>  2 0.18012909E+03</rscale>
<asrwt>0</asrwt>
<pdfrwt beam="1">  1       21 0.27756453E-01 0.18012909E+03</pdfrwt>
<pdfrwt beam="2">  1       21 0.53991148E-01 0.18012909E+03</pdfrwt>
<totfact> 0.40444109E+04</totfact>
</mgrwt>
</event>
<event>
 4    1  0.4333905E+000  0.1893164E+03  0.7546771E-02  0.1159079E+00
         21   -1    0    0  503  502  0.00000000000E+00  0.00000000000E+00  0.87195581554E+03  0.87195581554E+03  0.00000000000E+00 0.  1.
         21   -1    0    0  501  503 -0.00000000000E+00 -0.00000000000E+00 -0.40590854791E+03  0.40590854791E+03  0.00000000000E+00 0.  1.
          6    1    1    2  501    0 -0.76435408905E+02 -0.83268272789E+01 -0.37269495046E+03  0.41802181030E+03  0.17300000000E+03 0.  1.
         -6    1    1    2    0  502  0.76435408905E+02  0.83268272789E+01  0.83874221809E+03  0.85984255314E+03  0.17300000000E+03 0.  1.
<mgrwt>
<rscale>  2 0.18931642E+03</rscale>
<asrwt>0</asrwt>
<pdfrwt beam="1">  1       21 0.13414705E+00 0.18931642E+03</pdfrwt>
<pdfrwt beam="2">  1       21 0.62447469E-01 0.18931642E+03</pdfrwt>
<totfact> 0.95242835E+02</totfact>
</mgrwt>
</event>
<event>
 4    1  0.4333905E+000  0.1979553E+03  0.7546771E-02  0.1151476E+00
         21   -1    0    0  503  502  0.00000000000E+00  0.00000000000E+00  0.39071206172E+03  0.39071206172E+03  0.00000000000E+00 0.  1.
         21   -1    0    0  501  503 -0.00000000000E+00 -0.00000000000E+00 -0.10761954304E+03  0.10761954304E+03  0.00000000000E+00 0.  1.
          6    1    1    2  501    0  0.88317113723E+02  0.38175510224E+02  0.20655130958E+03  0.28609391054E+03  0.17300000000E+03 0.  1.
         -6    1    1    2    0  502 -0.88317113723E+02 -0.38175510224E+02  0.76541209100E+02  0.21223769422E+03  0.17300000000E+03 0.  1.
<mgrwt>
<rscale>  2 0.19795525E+03</rscale>
<asrwt>0</asrwt>
<pdfrwt beam="1">  1       21 0.60109547E-01 0.19795525E+03</pdfrwt>
<pdfrwt beam="2">  1       21 0.16556853E-01 0.19795525E+03</pdfrwt>
<totfact> 0.84335695E+04</totfact>
</mgrwt>
</event>
<event>
 4    1  0.4333905E+000  0.2635480E+03  0.7546771E-02  0.1105030E+00
         21   -1    0    0  501  502  0.00000000000E+00  0.00000000000E+00  0.11900481917E+04  0.11900481917E+04  0.00000000000E+00 0. -1.
         21   -1    0    0  502  503 -0.00000000000E+00 -0.00000000000E+00 -0.58366701798E+02  0.58366701798E+02  0.00000000000E+00 0.  1.
          6    1    1    2  501    0  0.15354757685E+01  0.19881191585E+03  0.56279624322E+03  0.62144762205E+03  0.17300000000E+03 0. -1.
         -6    1    1    2    0  503 -0.15354757685E+01 -0.19881191585E+03  0.56888524664E+03  0.62696727140E+03  0.17300000000E+03 0.  1.
<mgrwt>
<rscale>  2 0.26354798E+03</rscale>
<asrwt>0</asrwt>
<pdfrwt beam="1">  1       21 0.18308432E+00 0.26354798E+03</pdfrwt>
<pdfrwt beam="2">  1       21 0.89794935E-02 0.26354798E+03</pdfrwt>
<totfact> 0.16230357E+04</totfact>
</mgrwt>
</event>
<event>
 4    1  0.4333905E+000  0.2120519E+03  0.7546771E-02  0.1139951E+00
         21   -1    0    0  501  502  0.00000000000E+00  0.00000000000E+00  0.97107160354E+02  0.97107160354E+02  0.00000000000E+00 0.  1.
         21   -1    0    0  502  503 -0.00000000000E+00 -0.00000000000E+00 -0.48422096584E+03  0.48422096584E+03  0.00000000000E+00 0. -1.
          6    1    1    2  501    0 -0.11516408954E+03  0.42121488266E+02 -0.25432635182E+03  0.33113121346E+03  0.17300000000E+03 0. -1.
         -6    1    1    2    0  503  0.11516408954E+03 -0.42121488266E+02 -0.13278745367E+03  0.25019691274E+03  0.17300000000E+03 0. -1.
<mgrwt>
<rscale>  2 0.21205185E+03</rscale>
<asrwt>0</asrwt>
<pdfrwt beam="1">  1       21 0.14939563E-01 0.21205185E+03</pdfrwt>
<pdfrwt beam="2">  1       21 0.74495534E-01 0.21205185E+03</pdfrwt>
<totfact> 0.63212960E+04</totfact>
</mgrwt>
</event>
<event>
 4    1  0.4333905E+000  0.1917592E+03  0.7546771E-02  0.1156884E+00
         21   -1    0    0  503  502  0.00000000000E+00  0.00000000000E+00  0.57021510326E+02  0.57021510326E+02  0.00000000000E+00 0.  1.
         21   -1    0    0  501  503 -0.00000000000E+00 -0.00000000000E+00 -0.10858725490E+04  0.10858725490E+04  0.00000000000E+00 0.  1.
          6    1    1    2  501    0 -0.14444568617E+02 -0.81449029193E+02 -0.87859705061E+03  0.89927991597E+03  0.17300000000E+03 0.  1.
         -6    1    1    2    0  502  0.14444568617E+02  0.81449029193E+02 -0.15025398808E+03  0.24361414338E+03  0.17300000000E+03 0.  1.
<mgrwt>
<rscale>  2 0.19175920E+03</rscale>
<asrwt>0</asrwt>
<pdfrwt beam="1">  1       21 0.87725410E-02 0.19175920E+03</pdfrwt>
<pdfrwt beam="2">  1       21 0.16705730E+00 0.19175920E+03</pdfrwt>
<totfact> 0.22884153E+04</totfact>
</mgrwt>
</event>
<event>
 4    1  0.4333905E+000  0.2221760E+03  0.7546771E-02  0.1132271E+00
         21   -1    0    0  501  502  0.00000000000E+00  0.00000000000E+00  0.95407748805E+02  0.95407748805E+02  0.00000000000E+00 0.  1.
         21   -1    0    0  502  503 -0.00000000000E+00 -0.00000000000E+00 -0.63460092925E+03  0.63460092925E+03  0.00000000000E+00 0.  1.
          6    1    1    2  501    0 -0.10995286490E+03  0.85694355023E+02 -0.11272350714E+03  0.24913599508E+03  0.17300000000E+03 0.  1.
         -6    1    1    2    0  503  0.10995286490E+03 -0.85694355023E+02 -0.42646967330E+03  0.48087268297E+03  0.17300000000E+03 0.  1.
<mgrwt>
<rscale>  2 0.22217596E+03</rscale>
<asrwt>0</asrwt>
<pdfrwt beam="1">  1       21 0.14678116E-01 0.22217596E+03</pdfrwt>
<pdfrwt beam="2">  1       21 0.97630909E-01 0.22217596E+03</pdfrwt>
<totfact> 0.34897761E+04</totfact>
</mgrwt>
</event>
<event>
 4    1  0.4333905E+000  0.3141456E+03  0.7546771E-02  0.1078376E+00
         21   -1    0    0  503  502  0.00000000000E+00  0.00000000000E+00  0.13367729449E+04  0.13367729449E+04  0.00000000000E+00 0. -1.
         21   -1    0    0  501  503 -0.00000000000E+00 -0.00000000000E+00 -0.94646259656E+02  0.94646259656E+02  0.00000000000E+00 0. -1.
          6    1    1    2  501    0  0.18532058882E+02  0.26156259358E+03  0.28537417316E+03  0.42441235405E+03  0.17300000000E+03 0. -1.
         -6    1    1    2    0  502 -0.18532058882E+02 -0.26156259358E+03  0.95675251204E+03  0.10070068505E+04  0.17300000000E+03 0. -1.
<mgrwt>
<rscale>  2 0.31414555E+03</rscale>
<asrwt>0</asrwt>
<pdfrwt beam="1">  1       21 0.20565736E+00 0.31414555E+03</pdfrwt>
<pdfrwt beam="2">  1       21 0.14560964E-01 0.31414555E+03</pdfrwt>
<totfact> 0.46759696E+03</totfact>
</mgrwt>
</event>
<event>
 4    1  0.4333905E+000  0.1823489E+03  0.7546771E-02  0.1165549E+00
         21   -1    0    0  503  502  0.00000000000E+00  0.00000000000E+00  0.14636926394E+03  0.14636926394E+03  0.00000000000E+00 0. -1.
         21   -1    0    0  501  503 -0.00000000000E+00 -0.00000000000E+00 -0.30459978147E+03  0.30459978147E+03  0.00000000000E+00 0. -1.
          6    1    1    2  501    0 -0.57635863808E+02  0.46698444327E+00 -0.19279895796E+03  0.26537247231E+03  0.17300000000E+03 0. -1.
         -6    1    1    2    0  502  0.57635863808E+02 -0.46698444327E+00  0.34568440426E+02  0.18559657310E+03  0.17300000000E+03 0. -1.
<mgrwt>
<rscale>  2 0.18234887E+03</rscale>
<asrwt>0</asrwt>
<pdfrwt beam="1">  1       21 0.22518348E-01 0.18234887E+03</pdfrwt>
<pdfrwt beam="2">  1       21 0.46861505E-01 0.18234887E+03</pdfrwt>
<totfact> 0.80863615E+04</totfact>
</mgrwt>
</event>
<event>
 4    1  0.4333905E+000  0.2987362E+03  0.7546771E-02  0.1085874E+00
         21   -1    0    0  503  502  0.00000000000E+00  0.00000000000E+00  0.69790215562E+03  0.69790215562E+03  0.00000000000E+00 0.  1.
         21   -1    0    0  501  503 -0.00000000000E+00 -0.00000000000E+00 -0.15474924145E+03  0.15474924145E+03  0.00000000000E+00 0.  1.
          6    1    1    2  501    0 -0.47428784191E+02  0.23888250107E+03  0.93909867276E+02  0.31314916902E+03  0.17300000000E+03 0.  1.
         -6    1    1    2    0  502  0.47428784191E+02 -0.23888250107E+03  0.44924304689E+03  0.53950222805E+03  0.17300000000E+03 0.  1.
<mgrwt>
<rscale>  2 0.29873624E+03</rscale>
<asrwt>0</asrwt>
<pdfrwt beam="1">  1       21 0.10736956E+00 0.29873624E+03</pdfrwt>
<pdfrwt beam="2">  1       21 0.23807576E-01 0.29873624E+03</pdfrwt>
<totfact> 0.10830470E+04</totfact>
</mgrwt>
</event>
<event>
 4    1  0.4333905E+000  0.1804718E+03  0.7546771E-02  0.1167347E+00
         21   -1    0    0  501  502  0.00000000000E+00  0.00000000000E+00  0.12625547597E+04  0.12625547597E+04  0.00000000000E+00 0.  1.
         21   -1    0    0  502  503 -0.00000000000E+00 -0.00000000000E+00 -0.25853768525E+02  0.25853768525E+02  0.00000000000E+00 0.  1.
          6    1    1    2  501    0  0.51380619393E+02  0.10492304233E+01  0.58815197418E+03  0.61521769615E+03  0.17300000000E+03 0.  1.
         -6    1    1    2    0  503 -0.51380619393E+02 -0.10492304233E+01  0.64854901698E+03  0.67319083205E+03  0.17300000000E+03 0.  1.
<mgrwt>
<rscale>  2 0.18047180E+03</rscale>
<asrwt>0</asrwt>
<pdfrwt beam="1">  1       21 0.19423915E+00 0.18047180E+03</pdfrwt>
<pdfrwt beam="2">  1       21 0.39775038E-02 0.18047180E+03</pdfrwt>
<totfact> 0.58317720E+04</totfact>
</mgrwt>
</event>
<event>
 4    1  0.4333905E+000  0.2247469E+03  0.7546771E-02  0.1130393E+00
         21   -1    0    0  503  502  0.00000000000E+00  0.00000000000E+00  0.26558352828E+03  0.26558352828E+03  0.00000000000E+00 0.  1.
         21   -1    0    0  501  503 -0.00000000000E+00 -0.00000000000E+00 -0.52758165216E+03  0.52758165216E+03  0.00000000000E+00 0.  1.
          6    1    1    2  501    0 -0.13209628117E+03 -0.55970975838E+02 -0.44814294689E+03  0.50134147892E+03  0.17300000000E+03 0.  1.
         -6    1    1    2    0  502  0.13209628117E+03  0.55970975838E+02  0.18614482301E+03  0.29182370152E+03  0.17300000000E+03 0.  1.
<mgrwt>
<rscale>  2 0.22474692E+03</rscale>
<asrwt>0</asrwt>
<pdfrwt beam="1">  1       21 0.40859005E-01 0.22474692E+03</pdfrwt>
<pdfrwt beam="2">  1       21 0.81166407E-01 0.22474692E+03</pdfrwt>
<totfact> 0.75097173E+03</totfact>
</mgrwt>
</event>
<event>
 4    1  0.4333905E+000  0.2129622E+03  0.7546771E-02  0.1139241E+00
         21   -1    0    0  503  502  0.00000000000E+00  0.00000000000E+00  0.27964408140E+02  0.27964408140E+02  0.00000000000E+00 0.  1.
         21   -1    0    0  501  503 -0.00000000000E+00 -0.00000000000E+00 -0.19345352883E+04  0.19345352883E+04  0.00000000000E+00 0.  1.
          6    1    1    2  501    0 -0.10271617004E+03  0.69808913417E+02 -0.13478102184E+04  0.13645311579E+04  0.17300000000E+03 0.  1.
         -6    1    1    2    0  502  0.10271617004E+03 -0.69808913417E+02 -0.55876066170E+03  0.59796853850E+03  0.17300000000E+03 0.  1.
<mgrwt>
<rscale>  2 0.21296219E+03</rscale>
<asrwt>0</asrwt>
<pdfrwt beam="1">  1       21 0.43022161E-02 0.21296219E+03</pdfrwt>
<pdfrwt beam="2">  1       21 0.29762085E+00 0.21296219E+03</pdfrwt>
<totfact> 0.11967164E+04</totfact>
</mgrwt>
</event>
<event>
 4    1  0.4333905E+000  0.1840540E+03  0.7546771E-02  0.1163936E+00
         21   -1    0    0  503  502  0.00000000000E+00  0.00000000000E+00  0.33187331866E+02  0.33187331866E+02  0.00000000000E+00 0. -1.
         21   -1    0    0  501  503 -0.00000000000E+00 -0.00000000000E+00 -0.10715972126E+04  0.10715972126E+04  0.00000000000E+00 0. -1.
          6    1    1    2  501    0 -0.19917560631E+02  0.59583118500E+02 -0.63953656058E+03  0.66549445493E+03  0.17300000000E+03 0. -1.
         -6    1    1    2    0  502  0.19917560631E+02 -0.59583118500E+02 -0.39887332018E+03  0.43929008956E+03  0.17300000000E+03 0. -1.
<mgrwt>
<rscale>  2 0.18405395E+03</rscale>
<asrwt>0</asrwt>
<pdfrwt beam="1">  1       21 0.51057427E-02 0.18405395E+03</pdfrwt>
<pdfrwt beam="2">  1       21 0.16486113E+00 0.18405395E+03</pdfrwt>
<totfact> 0.60542116E+04</totfact>
</mgrwt>
</event>
<event>
 4    1  0.4333905E+000  0.1879573E+03  0.7546771E-02  0.1160317E+00
         21   -1    0    0  501  502  0.00000000000E+00  0.00000000000E+00  0.37017216000E+03  0.37017216000E+03  0.00000000000E+00 0. -1.
         21   -1    0    0  502  503 -0.00000000000E+00 -0.00000000000E+00 -0.31920691901E+03  0.31920691901E+03  0.00000000000E+00 0. -1.
          6    1    1    2  501    0  0.71630755982E+02  0.16370322719E+02  0.31408057443E+03  0.36602535418E+03  0.17300000000E+03 0. -1.
         -6    1    1    2    0  503 -0.71630755982E+02 -0.16370322719E+02 -0.26311533344E+03  0.32335372483E+03  0.17300000000E+03 0. -1.
<mgrwt>
<rscale>  2 0.18795732E+03</rscale>
<asrwt>0</asrwt>
<pdfrwt beam="1">  1       21 0.56949563E-01 0.18795732E+03</pdfrwt>
<pdfrwt beam="2">  1       21 0.49108757E-01 0.18795732E+03</pdfrwt>
<totfact> 0.11496084E+04</totfact>
</mgrwt>
</event>
<event>
 4    1  0.4333905E+000  0.2293479E+03  0.7546771E-02  0.1127100E+00
         21   -1    0    0  501  502  0.00000000000E+00  0.00000000000E+00  0.35754503156E+03  0.35754503156E+03  0.00000000000E+00 0. -1.
         21   -1    0    0  502  503 -0.00000000000E+00 -0.00000000000E+00 -0.14901172972E+03  0.14901172972E+03  0.00000000000E+00 0. -1.
          6    1    1    2  501    0 -0.15050675396E+03  0.43768671909E+01  0.75695632239E+02  0.24151660128E+03  0.17300000000E+03 0.  1.
         -6    1    1    2    0  503  0.15050675396E+03 -0.43768671909E+01  0.13283766960E+03  0.26504016001E+03  0.17300000000E+03 0.  1.
<mgrwt>
<rscale>  2 0.22934786E+03</rscale>
<asrwt>0</asrwt>
<pdfrwt beam="1">  1       21 0.55006928E-01 0.22934786E+03</pdfrwt>
<pdfrwt beam="2">  1       21 0.22924882E-01 0.22934786E+03</pdfrwt>
<totfact> 0.54765343E+04</totfact>
</mgrwt>
</event>
<event>
 4    1  0.4333905E+000  0.2237844E+03  0.7546771E-02  0.1131093E+00
         21   -1    0    0  503  502  0.00000000000E+00  0.00000000000E+00  0.21931815093E+03  0.21931815093E+03  0.00000000000E+00 0.  1.
         21   -1    0    0  501  503 -0.00000000000E+00 -0.00000000000E+00 -0.30174284047E+03  0.30174284047E+03  0.00000000000E+00 0. -1.
          6    1    1    2  501    0 -0.28972934556E+02  0.13896404437E+03 -0.16970907029E+03  0.28085691215E+03  0.17300000000E+03 0. -1.
         -6    1    1    2    0  502  0.28972934556E+02 -0.13896404437E+03  0.87284380754E+02  0.24020407925E+03  0.17300000000E+03 0. -1.
<mgrwt>
<rscale>  2 0.22378435E+03</rscale>
<asrwt>0</asrwt>
<pdfrwt beam="1">  1       21 0.33741254E-01 0.22378435E+03</pdfrwt>
<pdfrwt beam="2">  1       21 0.46421975E-01 0.22378435E+03</pdfrwt>
<totfact> 0.37022178E+04</totfact>
</mgrwt>
</event>
<event>
 4    1  0.4333905E+000  0.1981854E+03  0.7546771E-02  0.1151279E+00
         21   -1    0    0  503  502  0.00000000000E+00  0.00000000000E+00  0.13133045247E+03  0.13133045247E+03  0.00000000000E+00 0.  1.
         21   -1    0    0  501  503 -0.00000000000E+00 -0.00000000000E+00 -0.33707316949E+03  0.33707316949E+03  0.00000000000E+00 0.  1.
          6    1    1    2  501    0 -0.83527663032E+02 -0.48698980437E+02 -0.24235989181E+02  0.19966182499E+03  0.17300000000E+03 0.  1.
         -6    1    1    2    0  502  0.83527663032E+02  0.48698980437E+02 -0.18150672783E+03  0.26874179697E+03  0.17300000000E+03 0.  1.
<mgrwt>
<rscale>  2 0.19818542E+03</rscale>
<asrwt>0</asrwt>
<pdfrwt beam="1">  1       21 0.20204685E-01 0.19818542E+03</pdfrwt>
<pdfrwt beam="2">  1       21 0.51857411E-01 0.19818542E+03</pdfrwt>
<totfact> 0.79771450E+04</totfact>
</mgrwt>
</event>
<event>
 4    1  0.4333905E+000  0.2663862E+03  0.7546771E-02  0.1103366E+00
         21   -1    0    0  503  502  0.00000000000E+00  0.00000000000E+00  0.10001873065E+04  0.10001873065E+04  0.00000000000E+00 0. -1.
         21   -1    0    0  501  503 -0.00000000000E+00 -0.00000000000E+00 -0.30724343751E+03  0.30724343751E+03  0.00000000000E+00 0. -1.
          6    1    1    2  501    0  0.17933790230E+03  0.94183548239E+02  0.91976244100E+03  0.95756178486E+03  0.17300000000E+03 0. -1.
         -6    1    1    2    0  502 -0.17933790230E+03 -0.94183548239E+02 -0.22681857202E+03  0.34986895914E+03  0.17300000000E+03 0. -1.
<mgrwt>
<rscale>  2 0.26638623E+03</rscale>
<asrwt>0</asrwt>
<pdfrwt beam="1">  1       21 0.15387497E+00 0.26638623E+03</pdfrwt>
<pdfrwt beam="2">  1       21 0.47268221E-01 0.26638623E+03</pdfrwt>
<totfact> 0.11203340E+03</totfact>
</mgrwt>
</event>
<event>
 4    1  0.4333905E+000  0.1885110E+03  0.7546771E-02  0.1159811E+00
         21   -1    0    0  503  502  0.00000000000E+00  0.00000000000E+00  0.12240514601E+03  0.12240514601E+03  0.00000000000E+00 0. -1.
         21   -1    0    0  501  503 -0.00000000000E+00 -0.00000000000E+00 -0.34556040003E+03  0.34556040003E+03  0.00000000000E+00 0. -1.
          6    1    1    2  501    0  0.74601346012E+02 -0.64830660068E+01 -0.20513090527E+03  0.27859482994E+03  0.17300000000E+03 0. -1.
         -6    1    1    2    0  502 -0.74601346012E+02  0.64830660068E+01 -0.18024348748E+02  0.18937071611E+03  0.17300000000E+03 0. -1.
<mgrwt>
<rscale>  2 0.18851098E+03</rscale>
<asrwt>0</asrwt>
<pdfrwt beam="1">  1       21 0.18831561E-01 0.18851098E+03</pdfrwt>
<pdfrwt beam="2">  1       21 0.53163137E-01 0.18851098E+03</pdfrwt>
<totfact> 0.86672107E+04</totfact>
</mgrwt>
</event>
<event>
 4    1  0.4333905E+000  0.2580434E+03  0.7546771E-02  0.1108325E+00
         21   -1    0    0  501  502  0.00000000000E+00  0.00000000000E+00  0.15723819928E+03  0.15723819928E+03  0.00000000000E+00 0.  1.
         21   -1    0    0  502  503 -0.00000000000E+00 -0.00000000000E+00 -0.44859976335E+03  0.44859976335E+03  0.00000000000E+00 0. -1.
          6    1    1    2  501    0  0.18929437174E+03 -0.28723241176E+02 -0.73991966827E+02  0.26844216306E+03  0.17300000000E+03 0.  1.
         -6    1    1    2    0  503 -0.18929437174E+03  0.28723241176E+02 -0.21736959724E+03  0.33739579956E+03  0.17300000000E+03 0. -1.
<mgrwt>
<rscale>  2 0.25804338E+03</rscale>
<asrwt>0</asrwt>
<pdfrwt beam="1">  1       21 0.24190493E-01 0.25804338E+03</pdfrwt>
<pdfrwt beam="2">  1       21 0.69015347E-01 0.25804338E+03</pdfrwt>
<totfact> 0.29843808E+04</totfact>
</mgrwt>
</event>
<event>
 4    1  0.4333905E+000  0.1730583E+03  0.7546771E-02  0.1174696E+00
         21   -1    0    0  503  502  0.00000000000E+00  0.00000000000E+00  0.11639148345E+03  0.11639148345E+03  0.00000000000E+00 0. -1.
         21   -1    0    0  501  503 -0.00000000000E+00 -0.00000000000E+00 -0.30563256622E+03  0.30563256622E+03  0.00000000000E+00 0. -1.
          6    1    1    2  501    0 -0.31149930204E+01 -0.32345209874E+01 -0.17852096138E+03  0.24863406637E+03  0.17300000000E+03 0. -1.
         -6    1    1    2    0  502  0.31149930204E+01  0.32345209874E+01 -0.10720121396E+02  0.17338998330E+03  0.17300000000E+03 0. -1.
<mgrwt>
<rscale>  2 0.17305827E+03</rscale>
<asrwt>0</asrwt>
<pdfrwt beam="1">  1       21 0.17906382E-01 0.17305827E+03</pdfrwt>
<pdfrwt beam="2">  1       21 0.47020395E-01 0.17305827E+03</pdfrwt>
<totfact> 0.12356609E+05</totfact>
</mgrwt>
</event>
<event>
 4    1  0.4333905E+000  0.1979809E+03  0.7546771E-02  0.1151454E+00
         21   -1    0    0  503  502  0.00000000000E+00  0.00000000000E+00  0.13160268511E+04  0.13160268511E+04  0.00000000000E+00 0.  1.
         21   -1    0    0  501  503 -0.00000000000E+00 -0.00000000000E+00 -0.46886263258E+02  0.46886263258E+02  0.00000000000E+00 0.  1.
          6    1    1    2  501    0 -0.88201216050E+02 -0.38574459848E+02  0.22300084911E+03  0.29820432956E+03  0.17300000000E+03 0.  1.
         -6    1    1    2    0  502  0.88201216050E+02  0.38574459848E+02  0.10461397387E+04  0.10647087848E+04  0.17300000000E+03 0.  1.
<mgrwt>
<rscale>  2 0.19798092E+03</rscale>
<asrwt>0</asrwt>
<pdfrwt beam="1">  1       21 0.20246564E+00 0.19798092E+03</pdfrwt>
<pdfrwt beam="2">  1       21 0.72132723E-02 0.19798092E+03</pdfrwt>
<totfact> 0.18518981E+04</totfact>
</mgrwt>
</event>
<event>
 4    1  0.4333905E+000  0.2194613E+03  0.7546771E-02  0.1134285E+00
         21   -1    0    0  503  502  0.00000000000E+00  0.00000000000E+00  0.36360502769E+03  0.36360502769E+03  0.00000000000E+00 0.  1.
         21   -1    0    0  501  503 -0.00000000000E+00 -0.00000000000E+00 -0.18143630723E+03  0.18143630723E+03  0.00000000000E+00 0.  1.
          6    1    1    2  501    0 -0.12107252190E+02  0.13449036503E+03 -0.50504431962E+02  0.22519756102E+03  0.17300000000E+03 0.  1.
         -6    1    1    2    0  502  0.12107252190E+02 -0.13449036503E+03  0.23267315243E+03  0.31984377390E+03  0.17300000000E+03 0.  1.
<mgrwt>
<rscale>  2 0.21946126E+03</rscale>
<asrwt>0</asrwt>
<pdfrwt beam="1">  1       21 0.55939235E-01 0.21946126E+03</pdfrwt>
<pdfrwt beam="2">  1       21 0.27913278E-01 0.21946126E+03</pdfrwt>
<totfact> 0.36380101E+04</totfact>
</mgrwt>
</event>
<event>
 4    1  0.4333905E+000  0.1793286E+03  0.7546771E-02  0.1168454E+00
         21   -1    0    0  503  502  0.00000000000E+00  0.00000000000E+00  0.19828469749E+04  0.19828469749E+04  0.00000000000E+00 0. -1.
         21   -1    0    0  501  503 -0.00000000000E+00 -0.00000000000E+00 -0.27432749037E+02  0.27432749037E+02  0.00000000000E+00 0. -1.
          6    1    1    2  501    0  0.47086666353E+02  0.35496131181E+01  0.33505281624E+03  0.38002518808E+03  0.17300000000E+03 0. -1.
         -6    1    1    2    0  502 -0.47086666353E+02 -0.35496131181E+01  0.16203614096E+04  0.16302545358E+04  0.17300000000E+03 0. -1.
<mgrwt>
<rscale>  2 0.17932862E+03</rscale>
<asrwt>0</asrwt>
<pdfrwt beam="1">  1       21 0.30505327E+00 0.17932862E+03</pdfrwt>
<pdfrwt beam="2">  1       21 0.42204245E-02 0.17932862E+03</pdfrwt>
<totfact> 0.11602570E+04</totfact>
</mgrwt>
</event>
<event>
 4    1  0.4333905E+000  0.2117511E+03  0.7546771E-02  0.1140187E+00
         21   -1    0    0  501  502  0.00000000000E+00  0.00000000000E+00  0.12600296086E+04  0.12600296086E+04  0.00000000000E+00 0. -1.
         21   -1    0    0  502  503 -0.00000000000E+00 -0.00000000000E+00 -0.88594227807E+02  0.88594227807E+02  0.00000000000E+00 0. -1.
          6    1    1    2  501    0  0.96503135528E+02 -0.74810993870E+02  0.11073117121E+04  0.11273764978E+04  0.17300000000E+03 0. -1.
         -6    1    1    2    0  503 -0.96503135528E+02  0.74810993870E+02  0.64123668705E+02  0.22124733865E+03  0.17300000000E+03 0. -1.
<mgrwt>
<rscale>  2 0.21175113E+03</rscale>
<asrwt>0</asrwt>
<pdfrwt beam="1">  1       21 0.19385070E+00 0.21175113E+03</pdfrwt>
<pdfrwt beam="2">  1       21 0.13629882E-01 0.21175113E+03</pdfrwt>
<totfact> 0.67568450E+03</totfact>
</mgrwt>
</event>
<event>
 4    1  0.4333905E+000  0.2407751E+03  0.7546771E-02  0.1119278E+00
         21   -1    0    0  501  502  0.00000000000E+00  0.00000000000E+00  0.56918111062E+02  0.56918111062E+02  0.00000000000E+00 0.  1.
         21   -1    0    0  502  503 -0.00000000000E+00 -0.00000000000E+00 -0.10364142101E+04  0.10364142101E+04  0.00000000000E+00 0.  1.
          6    1    1    2  501    0  0.55613034299E+02  0.15795837590E+03 -0.41793201146E+03  0.48232750731E+03  0.17300000000E+03 0.  1.
         -6    1    1    2    0  503 -0.55613034299E+02 -0.15795837590E+03 -0.56156408762E+03  0.61100481390E+03  0.17300000000E+03 0.  1.
<mgrwt>
<rscale>  2 0.24077512E+03</rscale>
<asrwt>0</asrwt>
<pdfrwt beam="1">  1       21 0.87566322E-02 0.24077512E+03</pdfrwt>
<pdfrwt beam="2">  1       21 0.15944834E+00 0.24077512E+03</pdfrwt>
<totfact> 0.25281435E+04</totfact>
</mgrwt>
</event>
<event>
 4    1  0.4333905E+000  0.2191758E+03  0.7546771E-02  0.1134499E+00
         21   -1    0    0  503  502  0.00000000000E+00  0.00000000000E+00  0.24422130149E+03  0.24422130149E+03  0.00000000000E+00 0.  1.
         21   -1    0    0  501  503 -0.00000000000E+00 -0.00000000000E+00 -0.20597992114E+03  0.20597992114E+03  0.00000000000E+00 0.  1.
          6    1    1    2  501    0 -0.44694589891E+01 -0.13449563701E+03 -0.28661160456E+02  0.22104188417E+03  0.17300000000E+03 0.  1.
         -6    1    1    2    0  502  0.44694589891E+01  0.13449563701E+03  0.66902540798E+02  0.22915933846E+03  0.17300000000E+03 0.  1.
<mgrwt>
<rscale>  2 0.21917585E+03</rscale>
<asrwt>0</asrwt>
<pdfrwt beam="1">  1       21 0.37572508E-01 0.21917585E+03</pdfrwt>
<pdfrwt beam="2">  1       21 0.31689219E-01 0.21917585E+03</pdfrwt>
<totfact> 0.64641615E+04</totfact>
</mgrwt>
</event>
<event>
 4    1  0.4333905E+000  0.2254351E+03  0.7546771E-02  0.1129895E+00
         21   -1    0    0  501  502  0.00000000000E+00  0.00000000000E+00  0.69302106905E+03  0.69302106905E+03  0.00000000000E+00 0. -1.
         21   -1    0    0  502  503 -0.00000000000E+00 -0.00000000000E+00 -0.77722669684E+02  0.77722669684E+02  0.00000000000E+00 0. -1.
          6    1    1    2  501    0 -0.46644398448E+02 -0.13680739658E+03  0.39923899425E+03  0.45848962715E+03  0.17300000000E+03 0.  1.
         -6    1    1    2    0  503  0.46644398448E+02  0.13680739658E+03  0.21605940511E+03  0.31225411159E+03  0.17300000000E+03 0.  1.
<mgrwt>
<rscale>  2 0.22543505E+03</rscale>
<asrwt>0</asrwt>
<pdfrwt beam="1">  1       21 0.10661862E+00 0.22543505E+03</pdfrwt>
<pdfrwt beam="2">  1       21 0.11957334E-01 0.22543505E+03</pdfrwt>
<totfact> 0.40885520E+04</totfact>
</mgrwt>
</event>
<event>
 4    1  0.4333905E+000  0.1914929E+03  0.7546771E-02  0.1157122E+00
         21   -1    0    0  501  502  0.00000000000E+00  0.00000000000E+00  0.34305064706E+02  0.34305064706E+02  0.00000000000E+00 0. -1.
         21   -1    0    0  502  503 -0.00000000000E+00 -0.00000000000E+00 -0.12242865004E+04  0.12242865004E+04  0.00000000000E+00 0.  1.
          6    1    1    2  501    0 -0.28742898367E+02 -0.76905024050E+02 -0.37081675361E+03  0.41734230757E+03  0.17300000000E+03 0. -1.
         -6    1    1    2    0  503  0.28742898367E+02  0.76905024050E+02 -0.81916468209E+03  0.84124925755E+03  0.17300000000E+03 0.  1.
<mgrwt>
<rscale>  2 0.19149292E+03</rscale>
<asrwt>0</asrwt>
<pdfrwt beam="1">  1       21 0.52777023E-02 0.19149292E+03</pdfrwt>
<pdfrwt beam="2">  1       21 0.18835177E+00 0.19149292E+03</pdfrwt>
<totfact> 0.39277646E+04</totfact>
</mgrwt>
</event>
<event>
 4    1  0.4333905E+000  0.2166888E+03  0.7546771E-02  0.1136376E+00
         21   -1    0    0  503  502  0.00000000000E+00  0.00000000000E+00  0.75932340014E+02  0.75932340014E+02  0.00000000000E+00 0.  1.
         21   -1    0    0  501  503 -0.00000000000E+00 -0.00000000000E+00 -0.69428951239E+03  0.69428951239E+03  0.00000000000E+00 0. -1.
          6    1    1    2  501    0 -0.38652137730E+02 -0.12462367957E+03 -0.43652918035E+03  0.48735179753E+03  0.17300000000E+03 0. -1.
         -6    1    1    2    0  502  0.38652137730E+02  0.12462367957E+03 -0.18182799203E+03  0.28287005488E+03  0.17300000000E+03 0.  1.
<mgrwt>
<rscale>  2 0.21668883E+03</rscale>
<asrwt>0</asrwt>
<pdfrwt beam="1">  1       21 0.11681899E-01 0.21668883E+03</pdfrwt>
<pdfrwt beam="2">  1       21 0.10681377E+00 0.21668883E+03</pdfrwt>
<totfact> 0.42626007E+04</totfact>
</mgrwt>
</event>
<event>
 4    1  0.4333905E+000  0.2219223E+03  0.7546771E-02  0.1132458E+00
         21   -1    0    0  501  502  0.00000000000E+00  0.00000000000E+00  0.58635090764E+03  0.58635090764E+03  0.00000000000E+00 0. -1.
         21   -1    0    0  502  503 -0.00000000000E+00 -0.00000000000E+00 -0.34516041273E+03  0.34516041273E+03  0.00000000000E+00 0. -1.
          6    1    1    2  501    0 -0.29997799431E+02  0.13572264985E+03  0.52573695591E+03  0.57065651005E+03  0.17300000000E+03 0. -1.
         -6    1    1    2    0  503  0.29997799431E+02 -0.13572264985E+03 -0.28454646100E+03  0.36085481031E+03  0.17300000000E+03 0. -1.
<mgrwt>
<rscale>  2 0.22192230E+03</rscale>
<asrwt>0</asrwt>
<pdfrwt beam="1">  1       21 0.90207832E-01 0.22192230E+03</pdfrwt>
<pdfrwt beam="2">  1       21 0.53101602E-01 0.22192230E+03</pdfrwt>
<totfact> 0.34289258E+03</totfact>
</mgrwt>
</event>
<event>
 4    1  0.4333905E+000  0.2956131E+03  0.7546771E-02  0.1087454E+00
         21   -1    0    0  503  502  0.00000000000E+00  0.00000000000E+00  0.11278942142E+04  0.11278942142E+04  0.00000000000E+00 0.  1.
         21   -1    0    0  501  503 -0.00000000000E+00 -0.00000000000E+00 -0.77523316941E+02  0.77523316941E+02  0.00000000000E+00 0.  1.
          6    1    1    2  501    0 -0.23421117974E+03 -0.51021644528E+02  0.53974369777E+03  0.61539446229E+03  0.17300000000E+03 0.  1.
         -6    1    1    2    0  502  0.23421117974E+03  0.51021644528E+02  0.51062719950E+03  0.59002306887E+03  0.17300000000E+03 0.  1.
<mgrwt>
<rscale>  2 0.29561307E+03</rscale>
<asrwt>0</asrwt>
<pdfrwt beam="1">  1       21 0.17352218E+00 0.29561307E+03</pdfrwt>
<pdfrwt beam="2">  1       21 0.11926665E-01 0.29561307E+03</pdfrwt>
<totfact> 0.11199240E+04</totfact>
</mgrwt>
</event>
<event>
 4    1  0.4333905E+000  0.1886829E+03  0.7546771E-02  0.1159655E+00
         21   -1    0    0  503  502  0.00000000000E+00  0.00000000000E+00  0.25242621132E+03  0.25242621132E+03  0.00000000000E+00 0.  1.
         21   -1    0    0  501  503 -0.00000000000E+00 -0.00000000000E+00 -0.21868154127E+03  0.21868154127E+03  0.00000000000E+00 0.  1.
          6    1    1    2  501    0  0.25481686972E+02 -0.70872642643E+02 -0.12348714038E+03  0.22550015895E+03  0.17300000000E+03 0.  1.
         -6    1    1    2    0  502 -0.25481686972E+02  0.70872642643E+02  0.15723181042E+03  0.24560759364E+03  0.17300000000E+03 0.  1.
<mgrwt>
<rscale>  2 0.18868293E+03</rscale>
<asrwt>0</asrwt>
<pdfrwt beam="1">  1       21 0.38834802E-01 0.18868293E+03</pdfrwt>
<pdfrwt beam="2">  1       21 0.33643314E-01 0.18868293E+03</pdfrwt>
<totfact> 0.54508009E+04</totfact>
</mgrwt>
</event>
<event>
 4    1  0.4333905E+000  0.3008459E+03  0.7546771E-02  0.1084818E+00
         21   -1    0    0  503  502  0.00000000000E+00  0.00000000000E+00  0.93504413532E+02  0.93504413532E+02  0.00000000000E+00 0. -1.
         21   -1    0    0  501  503 -0.00000000000E+00 -0.00000000000E+00 -0.97246188568E+03  0.97246188568E+03  0.00000000000E+00 0. -1.
          6    1    1    2  501    0  0.23875035166E+03  0.59812630346E+02 -0.40320403563E+03  0.50307233627E+03  0.17300000000E+03 0. -1.
         -6    1    1    2    0  502 -0.23875035166E+03 -0.59812630346E+02 -0.47575343651E+03  0.56289396294E+03  0.17300000000E+03 0. -1.
<mgrwt>
<rscale>  2 0.30084594E+03</rscale>
<asrwt>0</asrwt>
<pdfrwt beam="1">  1       21 0.14385294E-01 0.30084594E+03</pdfrwt>
<pdfrwt beam="2">  1       21 0.14960952E+00 0.30084594E+03</pdfrwt>
<totfact> 0.11939472E+04</totfact>
</mgrwt>
</event>
<event>
 4    1  0.4333905E+000  0.2096109E+03  0.7546771E-02  0.1141874E+00
         21   -1    0    0  503  502  0.00000000000E+00  0.00000000000E+00  0.38456459957E+03  0.38456459957E+03  0.00000000000E+00 0.  1.
         21   -1    0    0  501  503 -0.00000000000E+00 -0.00000000000E+00 -0.13094457717E+03  0.13094457717E+03  0.00000000000E+00 0.  1.
          6    1    1    2  501    0  0.28599144868E+02 -0.11484697634E+03  0.34777248653E+02  0.21247634241E+03  0.17300000000E+03 0.  1.
         -6    1    1    2    0  502 -0.28599144868E+02  0.11484697634E+03  0.21884277375E+03  0.30303283433E+03  0.17300000000E+03 0.  1.
<mgrwt>
<rscale>  2 0.20961092E+03</rscale>
<asrwt>0</asrwt>
<pdfrwt beam="1">  1       21 0.59163784E-01 0.20961092E+03</pdfrwt>
<pdfrwt beam="2">  1       21 0.20145320E-01 0.20961092E+03</pdfrwt>
<totfact> 0.60335505E+04</totfact>
</mgrwt>
</event>
<event>
 4    1  0.4333905E+000  0.1852741E+03  0.7546771E-02  0.1162794E+00
         21   -1    0    0  501  502  0.00000000000E+00  0.00000000000E+00  0.23053721899E+03  0.23053721899E+03  0.00000000000E+00 0. -1.
         21   -1    0    0  502  503 -0.00000000000E+00 -0.00000000000E+00 -0.28570501862E+03  0.28570501862E+03  0.00000000000E+00 0. -1.
          6    1    1    2  501    0  0.59728021308E+02  0.28810801090E+02  0.15103154694E+03  0.23903352685E+03  0.17300000000E+03 0. -1.
         -6    1    1    2    0  503 -0.59728021308E+02 -0.28810801090E+02 -0.20619934657E+03  0.27720871075E+03  0.17300000000E+03 0. -1.
<mgrwt>
<rscale>  2 0.18527412E+03</rscale>
<asrwt>0</asrwt>
<pdfrwt beam="1">  1       21 0.35467264E-01 0.18527412E+03</pdfrwt>
<pdfrwt beam="2">  1       21 0.43954618E-01 0.18527412E+03</pdfrwt>
<totfact> 0.38255632E+04</totfact>
</mgrwt>
</event>
<event>
 4    1  0.4333905E+000  0.2050154E+03  0.7546771E-02  0.1145575E+00
         21   -1    0    0  503  502  0.00000000000E+00  0.00000000000E+00  0.10006026988E+03  0.10006026988E+03  0.00000000000E+00 0. -1.
         21   -1    0    0  501  503 -0.00000000000E+00 -0.00000000000E+00 -0.99544813454E+03  0.99544813454E+03  0.00000000000E+00 0. -1.
          6    1    1    2  501    0 -0.11000100631E+03 -0.14444179280E+01 -0.86413819691E+03  0.88812506501E+03  0.17300000000E+03 0. -1.
         -6    1    1    2    0  502  0.11000100631E+03  0.14444179280E+01 -0.31249667744E+02  0.20738333941E+03  0.17300000000E+03 0. -1.
<mgrwt>
<rscale>  2 0.20501538E+03</rscale>
<asrwt>0</asrwt>
<pdfrwt beam="1">  1       21 0.15393887E-01 0.20501538E+03</pdfrwt>
<pdfrwt beam="2">  1       21 0.15314587E+00 0.20501538E+03</pdfrwt>
<totfact> 0.10490110E+04</totfact>
</mgrwt>
</event>
<event>
 4    1  0.4333905E+000  0.2832498E+03  0.7546771E-02  0.1093927E+00
         21   -1    0    0  503  502  0.00000000000E+00  0.00000000000E+00  0.37061824198E+03  0.37061824198E+03  0.00000000000E+00 0. -1.
         21   -1    0    0  501  503 -0.00000000000E+00 -0.00000000000E+00 -0.31437467624E+03  0.31437467624E+03  0.00000000000E+00 0. -1.
          6    1    1    2  501    0  0.15017118693E+03  0.16658349584E+03 -0.16300333840E+03  0.32680351100E+03  0.17300000000E+03 0. -1.
         -6    1    1    2    0  502 -0.15017118693E+03 -0.16658349584E+03  0.21924690414E+03  0.35818940722E+03  0.17300000000E+03 0. -1.
<mgrwt>
<rscale>  2 0.28324980E+03</rscale>
<asrwt>0</asrwt>
<pdfrwt beam="1">  1       21 0.57018191E-01 0.28324980E+03</pdfrwt>
<pdfrwt beam="2">  1       21 0.48365335E-01 0.28324980E+03</pdfrwt>
<totfact> 0.11205607E+04</totfact>
</mgrwt>
</event>
<event>
 4    1  0.4333905E+000  0.2956582E+03  0.7546771E-02  0.1087431E+00
         21   -1    0    0  501  502  0.00000000000E+00  0.00000000000E+00  0.18209055061E+03  0.18209055061E+03  0.00000000000E+00 0. -1.
         21   -1    0    0  502  503 -0.00000000000E+00 -0.00000000000E+00 -0.48929304607E+03  0.48929304607E+03  0.00000000000E+00 0. -1.
          6    1    1    2  501    0  0.16145830622E+03  0.17724558494E+03 -0.19972314719E+03  0.35679562435E+03  0.17300000000E+03 0. -1.
         -6    1    1    2    0  503 -0.16145830622E+03 -0.17724558494E+03 -0.10747934826E+03  0.31458797233E+03  0.17300000000E+03 0. -1.
<mgrwt>
<rscale>  2 0.29565822E+03</rscale>
<asrwt>0</asrwt>
<pdfrwt beam="1">  1       21 0.28013931E-01 0.29565822E+03</pdfrwt>
<pdfrwt beam="2">  1       21 0.75275853E-01 0.29565822E+03</pdfrwt>
<totfact> 0.18209607E+04</totfact>
</mgrwt>
</event>
<event>
 4    1  0.4333905E+000  0.1816051E+03  0.7546771E-02  0.1166259E+00
         21   -1    0    0  503  502  0.00000000000E+00  0.00000000000E+00  0.54188487369E+02  0.54188487369E+02  0.00000000000E+00 0. -1.
         21   -1    0    0  501  503 -0.00000000000E+00 -0.00000000000E+00 -0.10932832989E+04  0.10932832989E+04  0.00000000000E+00 0. -1.
          6    1    1    2  501    0  0.53885792034E+02  0.12153911171E+02 -0.90154804135E+03  0.91965714644E+03  0.17300000000E+03 0. -1.
         -6    1    1    2    0  502 -0.53885792034E+02 -0.12153911171E+02 -0.13754677022E+03  0.22781463987E+03  0.17300000000E+03 0. -1.
<mgrwt>
<rscale>  2 0.18160506E+03</rscale>
<asrwt>0</asrwt>
<pdfrwt beam="1">  1       21 0.83366911E-02 0.18160506E+03</pdfrwt>
<pdfrwt beam="2">  1       21 0.16819741E+00 0.18160506E+03</pdfrwt>
<totfact> 0.24723791E+04</totfact>
</mgrwt>
</event>
<event>
 4    1  0.4333905E+000  0.2442117E+03  0.7546771E-02  0.1117018E+00
         21   -1    0    0  503  502  0.00000000000E+00  0.00000000000E+00  0.67183205875E+03  0.67183205875E+03  0.00000000000E+00 0.  1.
         21   -1    0    0  501  503 -0.00000000000E+00 -0.00000000000E+00 -0.15413636295E+03  0.15413636295E+03  0.00000000000E+00 0.  1.
          6    1    1    2  501    0 -0.15947502086E+03 -0.65407082699E+02 -0.10091233346E+02  0.24442013365E+03  0.17300000000E+03 0.  1.
         -6    1    1    2    0  502  0.15947502086E+03  0.65407082699E+02  0.52778692915E+03  0.58154828804E+03  0.17300000000E+03 0.  1.
<mgrwt>
<rscale>  2 0.24421173E+03</rscale>
<asrwt>0</asrwt>
<pdfrwt beam="1">  1       21 0.10335878E+00 0.24421173E+03</pdfrwt>
<pdfrwt beam="2">  1       21 0.23713287E-01 0.24421173E+03</pdfrwt>
<totfact> 0.12305106E+04</totfact>
</mgrwt>
</event>
<event>
 4    1  0.4333905E+000  0.2595430E+03  0.7546771E-02  0.1107418E+00
         21   -1    0    0  501  502  0.00000000000E+00  0.00000000000E+00  0.19289813737E+04  0.19289813737E+04  0.00000000000E+00 0.  1.
         21   -1    0    0  502  503 -0.00000000000E+00 -0.00000000000E+00 -0.46825316325E+02  0.46825316325E+02  0.00000000000E+00 0.  1.
          6    1    1    2  501    0  0.16843688404E+03 -0.95197612571E+02  0.14391826251E+04  0.14623984402E+04  0.17300000000E+03 0.  1.
         -6    1    1    2    0  503 -0.16843688404E+03  0.95197612571E+02  0.44297343225E+03  0.51340824986E+03  0.17300000000E+03 0.  1.
<mgrwt>
<rscale>  2 0.25954300E+03</rscale>
<asrwt>0</asrwt>
<pdfrwt beam="1">  1       21 0.29676630E+00 0.25954300E+03</pdfrwt>
<pdfrwt beam="2">  1       21 0.72038963E-02 0.25954300E+03</pdfrwt>
<totfact> 0.47974363E+03</totfact>
</mgrwt>
</event>
<event>
 4    1  0.4333905E+000  0.3095224E+03  0.7546771E-02  0.1080575E+00
         21   -1    0    0  503  502  0.00000000000E+00  0.00000000000E+00  0.28910792410E+03  0.28910792410E+03  0.00000000000E+00 0.  1.
         21   -1    0    0  501  503 -0.00000000000E+00 -0.00000000000E+00 -0.40937204005E+03  0.40937204005E+03  0.00000000000E+00 0. -1.
          6    1    1    2  501    0  0.25090815758E+03 -0.54039092793E+02 -0.21257046718E+03  0.37548679152E+03  0.17300000000E+03 0. -1.
         -6    1    1    2    0  502 -0.25090815758E+03  0.54039092793E+02  0.92306351230E+02  0.32299317263E+03  0.17300000000E+03 0. -1.
<mgrwt>
<rscale>  2 0.30952242E+03</rscale>
<asrwt>0</asrwt>
<pdfrwt beam="1">  1       21 0.44478142E-01 0.30952242E+03</pdfrwt>
<pdfrwt beam="2">  1       21 0.62980314E-01 0.30952242E+03</pdfrwt>
<totfact> 0.10627238E+04</totfact>
</mgrwt>
</event>
<event>
 4    1  0.4333905E+000  0.2088852E+03  0.7546771E-02  0.1142452E+00
         21   -1    0    0  503  502  0.00000000000E+00  0.00000000000E+00  0.16771758920E+04  0.16771758920E+04  0.00000000000E+00 0. -1.
         21   -1    0    0  501  503 -0.00000000000E+00 -0.00000000000E+00 -0.33202376884E+02  0.33202376884E+02  0.00000000000E+00 0.  1.
          6    1    1    2  501    0 -0.10853946310E+03 -0.43854515656E+02  0.42411846778E+03  0.47276792224E+03  0.17300000000E+03 0.  1.
         -6    1    1    2    0  502  0.10853946310E+03  0.43854515656E+02  0.12198550473E+04  0.12376103466E+04  0.17300000000E+03 0.  1.
<mgrwt>
<rscale>  2 0.20888522E+03</rscale>
<asrwt>0</asrwt>
<pdfrwt beam="1">  1       21 0.25802699E+00 0.20888522E+03</pdfrwt>
<pdfrwt beam="2">  1       21 0.51080593E-02 0.20888522E+03</pdfrwt>
<totfact> 0.15253696E+04</totfact>
</mgrwt>
</event>
<event>
 4    1  0.4333905E+000  0.1943516E+03  0.7546771E-02  0.1154594E+00
         21   -1    0    0  503  502  0.00000000000E+00  0.00000000000E+00  0.14696945109E+03  0.14696945109E+03  0.00000000000E+00 0.  1.
         21   -1    0    0  501  503 -0.00000000000E+00 -0.00000000000E+00 -0.33765957399E+03  0.33765957399E+03  0.00000000000E+00 0.  1.
          6    1    1    2  501    0 -0.41268901573E+02 -0.78360780880E+02 -0.21376981142E+03  0.28891186631E+03  0.17300000000E+03 0. -1.
         -6    1    1    2    0  502  0.41268901573E+02  0.78360780880E+02  0.23079688525E+02  0.19571715878E+03  0.17300000000E+03 0. -1.
<mgrwt>
<rscale>  2 0.19435157E+03</rscale>
<asrwt>0</asrwt>
<pdfrwt beam="1">  1       21 0.22610685E-01 0.19435157E+03</pdfrwt>
<pdfrwt beam="2">  1       21 0.51947626E-01 0.19435157E+03</pdfrwt>
<totfact> 0.64437874E+04</totfact>
</mgrwt>
</event>
<event>
 4    1  0.4333905E+000  0.2421993E+03  0.7546771E-02  0.1118336E+00
         21   -1    0    0  503  502  0.00000000000E+00  0.00000000000E+00  0.63780701197E+03  0.63780701197E+03  0.00000000000E+00 0.  1.
         21   -1    0    0  501  503 -0.00000000000E+00 -0.00000000000E+00 -0.27168566872E+03  0.27168566872E+03  0.00000000000E+00 0. -1.
          6    1    1    2  501    0 -0.44783897871E+02 -0.16348055659E+03 -0.18678982547E+03  0.30586096317E+03  0.17300000000E+03 0. -1.
         -6    1    1    2    0  502  0.44783897871E+02  0.16348055659E+03  0.55291116872E+03  0.60363171752E+03  0.17300000000E+03 0.  1.
<mgrwt>
<rscale>  2 0.24219928E+03</rscale>
<asrwt>0</asrwt>
<pdfrwt beam="1">  1       21 0.98124155E-01 0.24219928E+03</pdfrwt>
<pdfrwt beam="2">  1       21 0.41797795E-01 0.24219928E+03</pdfrwt>
<totfact> 0.45612568E+03</totfact>
</mgrwt>
</event>
<event>
 4    1  0.4333905E+000  0.1876887E+03  0.7546771E-02  0.1160563E+00
         21   -1    0    0  501  502  0.00000000000E+00  0.00000000000E+00  0.11612273807E+04  0.11612273807E+04  0.00000000000E+00 0.  1.
         21   -1    0    0  502  503 -0.00000000000E+00 -0.00000000000E+00 -0.71066479042E+02  0.71066479042E+02  0.00000000000E+00 0.  1.
          6    1    1    2  501    0 -0.24334504606E+02 -0.68599356975E+02  0.10115372596E+04  0.10288025406E+04  0.17300000000E+03 0.  1.
         -6    1    1    2    0  503  0.24334504606E+02  0.68599356975E+02  0.78623642047E+02  0.20349131918E+03  0.17300000000E+03 0.  1.
<mgrwt>
<rscale>  2 0.18768868E+03</rscale>
<asrwt>0</asrwt>
<pdfrwt beam="1">  1       21 0.17865035E+00 0.18768868E+03</pdfrwt>
<pdfrwt beam="2">  1       21 0.10933305E-01 0.18768868E+03</pdfrwt>
<totfact> 0.12925544E+04</totfact>
</mgrwt>
</event>
<event>
 4    1  0.4333905E+000  0.1765047E+03  0.7546771E-02  0.1171229E+00
         21   -1    0    0  501  502  0.00000000000E+00  0.00000000000E+00  0.14941629554E+03  0.14941629554E+03  0.00000000000E+00 0. -1.
         21   -1    0    0  502  503 -0.00000000000E+00 -0.00000000000E+00 -0.27717477520E+03  0.27717477520E+03  0.00000000000E+00 0. -1.
          6    1    1    2  501    0  0.18803549558E+02  0.29518443253E+02  0.42288002050E+02  0.18149982668E+03  0.17300000000E+03 0. -1.
         -6    1    1    2    0  503 -0.18803549558E+02 -0.29518443253E+02 -0.17004648172E+03  0.24509124405E+03  0.17300000000E+03 0. -1.
<mgrwt>
<rscale>  2 0.17650471E+03</rscale>
<asrwt>0</asrwt>
<pdfrwt beam="1">  1       21 0.22987122E-01 0.17650471E+03</pdfrwt>
<pdfrwt beam="2">  1       21 0.42642273E-01 0.17650471E+03</pdfrwt>
<totfact> 0.94581476E+04</totfact>
</mgrwt>
</event>
<event>
 4    1  0.4333905E+000  0.1749624E+03  0.7546771E-02  0.1172769E+00
         21   -1    0    0  503  502  0.00000000000E+00  0.00000000000E+00  0.26423718760E+02  0.26423718760E+02  0.00000000000E+00 0.  1.
         21   -1    0    0  501  503 -0.00000000000E+00 -0.00000000000E+00 -0.11981072113E+04  0.11981072113E+04  0.00000000000E+00 0.  1.
          6    1    1    2  501    0 -0.21432288619E+02 -0.14950360095E+02 -0.69716441357E+03  0.71878374760E+03  0.17300000000E+03 0.  1.
         -6    1    1    2    0  502  0.21432288619E+02  0.14950360095E+02 -0.47451907897E+03  0.50574718246E+03  0.17300000000E+03 0.  1.
<mgrwt>
<rscale>  2 0.17496244E+03</rscale>
<asrwt>0</asrwt>
<pdfrwt beam="1">  1       21 0.40651883E-02 0.17496244E+03</pdfrwt>
<pdfrwt beam="2">  1       21 0.18432415E+00 0.17496244E+03</pdfrwt>
<totfact> 0.65571185E+04</totfact>
</mgrwt>
</event>
<event>
 4    1  0.4333905E+000  0.2296949E+03  0.7546771E-02  0.1126855E+00
         21   -1    0    0  501  502  0.00000000000E+00  0.00000000000E+00  0.39306835252E+03  0.39306835252E+03  0.00000000000E+00 0. -1.
         21   -1    0    0  502  503 -0.00000000000E+00 -0.00000000000E+00 -0.19309621919E+03  0.19309621919E+03  0.00000000000E+00 0.  1.
          6    1    1    2  501    0  0.12106968797E+03 -0.90404069673E+02  0.26181368645E+03  0.34829035527E+03  0.17300000000E+03 0. -1.
         -6    1    1    2    0  503 -0.12106968797E+03  0.90404069673E+02 -0.61841553118E+02  0.23787421645E+03  0.17300000000E+03 0.  1.
<mgrwt>
<rscale>  2 0.22969494E+03</rscale>
<asrwt>0</asrwt>
<pdfrwt beam="1">  1       21 0.60472054E-01 0.22969494E+03</pdfrwt>
<pdfrwt beam="2">  1       21 0.29707111E-01 0.22969494E+03</pdfrwt>
<totfact> 0.27130092E+04</totfact>
</mgrwt>
</event>
<event>
 4    1  0.4333905E+000  0.1830223E+03  0.7546771E-02  0.1164910E+00
         21   -1    0    0  503  502  0.00000000000E+00  0.00000000000E+00  0.50070242393E+03  0.50070242393E+03  0.00000000000E+00 0.  1.
         21   -1    0    0  501  503 -0.00000000000E+00 -0.00000000000E+00 -0.10004306031E+03  0.10004306031E+03  0.00000000000E+00 0.  1.
          6    1    1    2  501    0  0.24753861939E+02 -0.54363674019E+02  0.27443172109E+02  0.18506833989E+03  0.17300000000E+03 0.  1.
         -6    1    1    2    0  502 -0.24753861939E+02  0.54363674019E+02  0.37321619150E+03  0.41567714435E+03  0.17300000000E+03 0.  1.
<mgrwt>
<rscale>  2 0.18302230E+03</rscale>
<asrwt>0</asrwt>
<pdfrwt beam="1">  1       21 0.77031141E-01 0.18302230E+03</pdfrwt>
<pdfrwt beam="2">  1       21 0.15391240E-01 0.18302230E+03</pdfrwt>
<totfact> 0.56306729E+04</totfact>
</mgrwt>
</event>
<event>
 4    1  0.4333905E+000  0.2073929E+03  0.7546771E-02  0.1143647E+00
         21   -1    0    0  501  502  0.00000000000E+00  0.00000000000E+00  0.71141746221E+03  0.71141746221E+03  0.00000000000E+00 0.  1.
         21   -1    0    0  502  503 -0.00000000000E+00 -0.00000000000E+00 -0.87393179588E+02  0.87393179588E+02  0.00000000000E+00 0.  1.
          6    1    1    2  501    0 -0.77900264795E+02  0.83751749725E+02  0.53374215091E+03  0.57261897497E+03  0.17300000000E+03 0.  1.
         -6    1    1    2    0  503  0.77900264795E+02 -0.83751749725E+02  0.90282131714E+02  0.22619166683E+03  0.17300000000E+03 0.  1.
<mgrwt>
<rscale>  2 0.20739288E+03</rscale>
<asrwt>0</asrwt>
<pdfrwt beam="1">  1       21 0.10944884E+00 0.20739288E+03</pdfrwt>
<pdfrwt beam="2">  1       21 0.13445105E-01 0.20739288E+03</pdfrwt>
<totfact> 0.31359102E+04</totfact>
</mgrwt>
</event>
<event>
 4    1  0.4333905E+000  0.2381115E+03  0.7546771E-02  0.1121057E+00
         21   -1    0    0  503  502  0.00000000000E+00  0.00000000000E+00  0.45924469732E+03  0.45924469732E+03  0.00000000000E+00 0. -1.
         21   -1    0    0  501  503 -0.00000000000E+00 -0.00000000000E+00 -0.16489681154E+03  0.16489681154E+03  0.00000000000E+00 0. -1.
          6    1    1    2  501    0  0.58389746696E+02 -0.15283566686E+03 -0.92684078090E+01  0.23829185250E+03  0.17300000000E+03 0. -1.
         -6    1    1    2    0  502 -0.58389746696E+02  0.15283566686E+03  0.30361629358E+03  0.38584965636E+03  0.17300000000E+03 0. -1.
<mgrwt>
<rscale>  2 0.23811154E+03</rscale>
<asrwt>0</asrwt>
<pdfrwt beam="1">  1       21 0.70653030E-01 0.23811154E+03</pdfrwt>
<pdfrwt beam="2">  1       21 0.25368740E-01 0.23811154E+03</pdfrwt>
<totfact> 0.26096071E+04</totfact>
</mgrwt>
</event>
<event>
 4    1  0.4333905E+000  0.1836433E+03  0.7546771E-02  0.1164323E+00
         21   -1    0    0  503  502  0.00000000000E+00  0.00000000000E+00  0.20247575798E+02  0.20247575798E+02  0.00000000000E+00 0. -1.
         21   -1    0    0  501  503 -0.00000000000E+00 -0.00000000000E+00 -0.17404154644E+04  0.17404154644E+04  0.00000000000E+00 0. -1.
          6    1    1    2  501    0  0.58538886478E+01 -0.61331897806E+02 -0.10425754771E+04  0.10586257578E+04  0.17300000000E+03 0. -1.
         -6    1    1    2    0  502 -0.58538886478E+01  0.61331897806E+02 -0.67759241147E+03  0.70203728233E+03  0.17300000000E+03 0. -1.
<mgrwt>
<rscale>  2 0.18364332E+03</rscale>
<asrwt>0</asrwt>
<pdfrwt beam="1">  1       21 0.31150117E-02 0.18364332E+03</pdfrwt>
<pdfrwt beam="2">  1       21 0.26775622E+00 0.18364332E+03</pdfrwt>
<totfact> 0.31389011E+04</totfact>
</mgrwt>
</event>
<event>
 4    1  0.4333905E+000  0.2023754E+03  0.7546771E-02  0.1147750E+00
         21   -1    0    0  501  502  0.00000000000E+00  0.00000000000E+00  0.15493640960E+03  0.15493640960E+03  0.00000000000E+00 0.  1.
         21   -1    0    0  502  503 -0.00000000000E+00 -0.00000000000E+00 -0.32738031571E+03  0.32738031571E+03  0.00000000000E+00 0.  1.
          6    1    1    2  501    0  0.44641049778E+02 -0.95047253252E+02  0.19602776024E+02  0.20332258238E+03  0.17300000000E+03 0.  1.
         -6    1    1    2    0  503 -0.44641049778E+02  0.95047253252E+02 -0.19204668213E+03  0.27899414294E+03  0.17300000000E+03 0.  1.
<mgrwt>
<rscale>  2 0.20237540E+03</rscale>
<asrwt>0</asrwt>
<pdfrwt beam="1">  1       21 0.23836371E-01 0.20237540E+03</pdfrwt>
<pdfrwt beam="2">  1       21 0.50366201E-01 0.20237540E+03</pdfrwt>
<totfact> 0.61965143E+04</totfact>
</mgrwt>
</event>
<event>
 4    1  0.4333905E+000  0.2051542E+03  0.7546771E-02  0.1145462E+00
         21   -1    0    0  501  502  0.00000000000E+00  0.00000000000E+00  0.24737014616E+04  0.24737014616E+04  0.00000000000E+00 0. -1.
         21   -1    0    0  502  503 -0.00000000000E+00 -0.00000000000E+00 -0.18950105678E+02  0.18950105678E+02  0.00000000000E+00 0.  1.
          6    1    1    2  501    0 -0.11002234198E+03 -0.73700855479E+01  0.16257208735E+04  0.16386142292E+04  0.17300000000E+03 0. -1.
         -6    1    1    2    0  503  0.11002234198E+03  0.73700855479E+01  0.82903048244E+03  0.85403733800E+03  0.17300000000E+03 0.  1.
<mgrwt>
<rscale>  2 0.20515417E+03</rscale>
<asrwt>0</asrwt>
<pdfrwt beam="1">  1       21 0.38056920E+00 0.20515417E+03</pdfrwt>
<pdfrwt beam="2">  1       21 0.29154028E-02 0.20515417E+03</pdfrwt>
<totfact> 0.74934319E+03</totfact>
</mgrwt>
</event>
<event>
 4    1  0.4333905E+000  0.2110718E+03  0.7546771E-02  0.1140720E+00
         21   -1    0    0  503  502  0.00000000000E+00  0.00000000000E+00  0.17614899843E+03  0.17614899843E+03  0.00000000000E+00 0. -1.
         21   -1    0    0  501  503 -0.00000000000E+00 -0.00000000000E+00 -0.52934097333E+03  0.52934097333E+03  0.00000000000E+00 0. -1.
          6    1    1    2  501    0 -0.87044356166E+01 -0.12060901956E+03 -0.43150191557E+03  0.48035945493E+03  0.17300000000E+03 0. -1.
         -6    1    1    2    0  502  0.87044356166E+01  0.12060901956E+03  0.78309940676E+02  0.22513051683E+03  0.17300000000E+03 0. -1.
<mgrwt>
<rscale>  2 0.21107180E+03</rscale>
<asrwt>0</asrwt>
<pdfrwt beam="1">  1       21 0.27099846E-01 0.21107180E+03</pdfrwt>
<pdfrwt beam="2">  1       21 0.81437071E-01 0.21107180E+03</pdfrwt>
<totfact> 0.16947380E+04</totfact>
</mgrwt>
</event>
<event>
 4    1  0.4333905E+000  0.1952790E+03  0.7546771E-02  0.1153784E+00
         21   -1    0    0  501  502  0.00000000000E+00  0.00000000000E+00  0.33657403893E+02  0.33657403893E+02  0.00000000000E+00 0.  1.
         21   -1    0    0  502  503 -0.00000000000E+00 -0.00000000000E+00 -0.12005307272E+04  0.12005307272E+04  0.00000000000E+00 0. -1.
          6    1    1    2  501    0 -0.84893389953E+02  0.31591204289E+02 -0.43708072044E+03  0.47872063673E+03  0.17300000000E+03 0.  1.
         -6    1    1    2    0  503  0.84893389953E+02 -0.31591204289E+02 -0.72979260287E+03  0.75546749437E+03  0.17300000000E+03 0. -1.
<mgrwt>
<rscale>  2 0.19527901E+03</rscale>
<asrwt>0</asrwt>
<pdfrwt beam="1">  1       21 0.51780622E-02 0.19527901E+03</pdfrwt>
<pdfrwt beam="2">  1       21 0.18469703E+00 0.19527901E+03</pdfrwt>
<totfact> 0.42803746E+04</totfact>
</mgrwt>
</event>
<event>
 4    1  0.4333905E+000  0.1966604E+03  0.7546771E-02  0.1152588E+00
         21   -1    0    0  501  502  0.00000000000E+00  0.00000000000E+00  0.12980903279E+04  0.12980903279E+04  0.00000000000E+00 0. -1.
         21   -1    0    0  502  503 -0.00000000000E+00 -0.00000000000E+00 -0.45581187439E+02  0.45581187439E+02  0.00000000000E+00 0.  1.
          6    1    1    2  501    0  0.63731326449E+01  0.93304381340E+02  0.10216416339E+04  0.10403974973E+04  0.17300000000E+03 0. -1.
         -6    1    1    2    0  503 -0.63731326449E+01 -0.93304381340E+02  0.23086750657E+03  0.30327401799E+03  0.17300000000E+03 0.  1.
<mgrwt>
<rscale>  2 0.19666043E+03</rscale>
<asrwt>0</asrwt>
<pdfrwt beam="1">  1       21 0.19970618E+00 0.19666043E+03</pdfrwt>
<pdfrwt beam="2">  1       21 0.70124914E-02 0.19666043E+03</pdfrwt>
<totfact> 0.20274297E+04</totfact>
</mgrwt>
</event>
<event>
 4    1  0.4333905E+000  0.1778340E+03  0.7546771E-02  0.1169916E+00
         21   -1    0    0  501  502  0.00000000000E+00  0.00000000000E+00  0.45920308700E+02  0.45920308700E+02  0.00000000000E+00 0.  1.
         21   -1    0    0  502  503 -0.00000000000E+00 -0.00000000000E+00 -0.69123841734E+03  0.69123841734E+03  0.00000000000E+00 0.  1.
          6    1    1    2  501    0  0.25861030557E+02  0.32049021434E+02 -0.34503145703E+03  0.38816444842E+03  0.17300000000E+03 0.  1.
         -6    1    1    2    0  503 -0.25861030557E+02 -0.32049021434E+02 -0.30028665161E+03  0.34899427762E+03  0.17300000000E+03 0.  1.
<mgrwt>
<rscale>  2 0.17783400E+03</rscale>
<asrwt>0</asrwt>
<pdfrwt beam="1">  1       21 0.70646632E-02 0.17783400E+03</pdfrwt>
<pdfrwt beam="2">  1       21 0.10634437E+00 0.17783400E+03</pdfrwt>
<totfact> 0.10614493E+05</totfact>
</mgrwt>
</event>
<event>
 4    1  0.4333905E+000  0.2489378E+03  0.7546771E-02  0.1113978E+00
         21   -1    0    0  501  502  0.00000000000E+00  0.00000000000E+00  0.63860425543E+03  0.63860425543E+03  0.00000000000E+00 0.  1.
         21   -1    0    0  502  503 -0.00000000000E+00 -0.00000000000E+00 -0.14719643460E+03  0.14719643460E+03  0.00000000000E+00 0.  1.
          6    1    1    2  501    0 -0.11355054770E+03 -0.13837372539E+03  0.47505354748E+03  0.53632628850E+03  0.17300000000E+03 0.  1.
         -6    1    1    2    0  503  0.11355054770E+03  0.13837372539E+03  0.16354273346E+02  0.24947440153E+03  0.17300000000E+03 0.  1.
<mgrwt>
<rscale>  2 0.24893777E+03</rscale>
<asrwt>0</asrwt>
<pdfrwt beam="1">  1       21 0.98246807E-01 0.24893777E+03</pdfrwt>
<pdfrwt beam="2">  1       21 0.22645606E-01 0.24893777E+03</pdfrwt>
<totfact> 0.15131574E+04</totfact>
</mgrwt>
</event>
<event>
 4    1  0.4333905E+000  0.2487441E+03  0.7546771E-02  0.1114101E+00
         21   -1    0    0  501  502  0.00000000000E+00  0.00000000000E+00  0.89861796528E+03  0.89861796528E+03  0.00000000000E+00 0.  1.
         21   -1    0    0  502  503 -0.00000000000E+00 -0.00000000000E+00 -0.72748752394E+02  0.72748752394E+02  0.00000000000E+00 0.  1.
          6    1    1    2  501    0  0.13285515883E+03 -0.11955801740E+03  0.30055959675E+03  0.39014059510E+03  0.17300000000E+03 0.  1.
         -6    1    1    2    0  503 -0.13285515883E+03  0.11955801740E+03  0.52530961614E+03  0.58122612257E+03  0.17300000000E+03 0.  1.
<mgrwt>
<rscale>  2 0.24874407E+03</rscale>
<asrwt>0</asrwt>
<pdfrwt beam="1">  1       21 0.13824891E+00 0.24874407E+03</pdfrwt>
<pdfrwt beam="2">  1       21 0.11192116E-01 0.24874407E+03</pdfrwt>
<totfact> 0.23776701E+04</totfact>
</mgrwt>
</event>
<event>
 4    1  0.4333905E+000  0.2081318E+03  0.7546771E-02  0.1143054E+00
         21   -1    0    0  501  502  0.00000000000E+00  0.00000000000E+00  0.74239657164E+02  0.74239657164E+02  0.00000000000E+00 0.  1.
         21   -1    0    0  502  503 -0.00000000000E+00 -0.00000000000E+00 -0.64370491869E+03  0.64370491869E+03  0.00000000000E+00 0.  1.
          6    1    1    2  501    0 -0.54292379584E+02 -0.10218693745E+03 -0.17494994521E+03  0.27189394255E+03  0.17300000000E+03 0.  1.
         -6    1    1    2    0  503  0.54292379584E+02  0.10218693745E+03 -0.39451531632E+03  0.44605063331E+03  0.17300000000E+03 0.  1.
<mgrwt>
<rscale>  2 0.20813177E+03</rscale>
<asrwt>0</asrwt>
<pdfrwt beam="1">  1       21 0.11421485E-01 0.20813177E+03</pdfrwt>
<pdfrwt beam="2">  1       21 0.99031528E-01 0.20813177E+03</pdfrwt>
<totfact> 0.53429543E+04</totfact>
</mgrwt>
</event>
<event>
 4    1  0.4333905E+000  0.1790383E+03  0.7546771E-02  0.1168737E+00
         21   -1    0    0  501  502  0.00000000000E+00  0.00000000000E+00  0.17275742448E+03  0.17275742448E+03  0.00000000000E+00 0.  1.
         21   -1    0    0  502  503 -0.00000000000E+00 -0.00000000000E+00 -0.19895030409E+03  0.19895030409E+03  0.00000000000E+00 0.  1.
          6    1    1    2  501    0  0.10941591018E-01 -0.46105550807E+02  0.35142287395E+02  0.18245465820E+03  0.17300000000E+03 0.  1.
         -6    1    1    2    0  503 -0.10941591018E-01  0.46105550807E+02 -0.61335167005E+02  0.18925307038E+03  0.17300000000E+03 0.  1.
<mgrwt>
<rscale>  2 0.17903833E+03</rscale>
<asrwt>0</asrwt>
<pdfrwt beam="1">  1       21 0.26578065E-01 0.17903833E+03</pdfrwt>
<pdfrwt beam="2">  1       21 0.30607739E-01 0.17903833E+03</pdfrwt>
<totfact> 0.13866723E+05</totfact>
</mgrwt>
</event>
<event>
 4    1  0.4333905E+000  0.2100879E+03  0.7546771E-02  0.1141496E+00
         21   -1    0    0  501  502  0.00000000000E+00  0.00000000000E+00  0.27078315708E+03  0.27078315708E+03  0.00000000000E+00 0.  1.
         21   -1    0    0  502  503 -0.00000000000E+00 -0.00000000000E+00 -0.22676614629E+03  0.22676614629E+03  0.00000000000E+00 0.  1.
          6    1    1    2  501    0 -0.11917207806E+03  0.24345053559E+01  0.15393178943E+03  0.26044559279E+03  0.17300000000E+03 0.  1.
         -6    1    1    2    0  503  0.11917207806E+03 -0.24345053559E+01 -0.10991477865E+03  0.23710371058E+03  0.17300000000E+03 0.  1.
<mgrwt>
<rscale>  2 0.21008786E+03</rscale>
<asrwt>0</asrwt>
<pdfrwt beam="1">  1       21 0.41658947E-01 0.21008786E+03</pdfrwt>
<pdfrwt beam="2">  1       21 0.34887100E-01 0.21008786E+03</pdfrwt>
<totfact> 0.43554898E+04</totfact>
</mgrwt>
</event>
<event>
 4    1  0.4333905E+000  0.1804159E+03  0.7546771E-02  0.1167401E+00
         21   -1    0    0  501  502  0.00000000000E+00  0.00000000000E+00  0.82566278930E+02  0.82566278930E+02  0.00000000000E+00 0. -1.
         21   -1    0    0  502  503 -0.00000000000E+00 -0.00000000000E+00 -0.39834897535E+03  0.39834897535E+03  0.00000000000E+00 0. -1.
          6    1    1    2  501    0  0.33418889525E+02 -0.38782381077E+02 -0.13343257708E+03  0.22439729920E+03  0.17300000000E+03 0. -1.
         -6    1    1    2    0  503 -0.33418889525E+02  0.38782381077E+02 -0.18235011934E+03  0.25651795509E+03  0.17300000000E+03 0. -1.
<mgrwt>
<rscale>  2 0.18041590E+03</rscale>
<asrwt>0</asrwt>
<pdfrwt beam="1">  1       21 0.12702504E-01 0.18041590E+03</pdfrwt>
<pdfrwt beam="2">  1       21 0.61284460E-01 0.18041590E+03</pdfrwt>
<totfact> 0.13175536E+05</totfact>
</mgrwt>
</event>
<event>
 4    1  0.4333905E+000  0.1880066E+03  0.7546771E-02  0.1160272E+00
         21   -1    0    0  501  502  0.00000000000E+00  0.00000000000E+00  0.88896135916E+03  0.88896135916E+03  0.00000000000E+00 0.  1.
         21   -1    0    0  502  503 -0.00000000000E+00 -0.00000000000E+00 -0.41521177944E+02  0.41521177944E+02  0.00000000000E+00 0.  1.
          6    1    1    2  501    0 -0.12498382832E+02 -0.72534502533E+02  0.51949600526E+03  0.55246951329E+03  0.17300000000E+03 0.  1.
         -6    1    1    2    0  503  0.12498382832E+02  0.72534502533E+02  0.32794417596E+03  0.37801302382E+03  0.17300000000E+03 0.  1.
<mgrwt>
<rscale>  2 0.18800655E+03</rscale>
<asrwt>0</asrwt>
<pdfrwt beam="1">  1       21 0.13676327E+00 0.18800655E+03</pdfrwt>
<pdfrwt beam="2">  1       21 0.63878742E-02 0.18800655E+03</pdfrwt>
<totfact> 0.67462811E+04</totfact>
</mgrwt>
</event>
<event>
 4    1  0.4333905E+000  0.1753514E+03  0.7546771E-02  0.1172379E+00
         21   -1    0    0  503  502  0.00000000000E+00  0.00000000000E+00  0.35292078789E+02  0.35292078789E+02  0.00000000000E+00 0.  1.
         21   -1    0    0  501  503 -0.00000000000E+00 -0.00000000000E+00 -0.94857905542E+03  0.94857905542E+03  0.00000000000E+00 0.  1.
          6    1    1    2  501    0 -0.25638761122E+02 -0.12718108764E+02 -0.31618339984E+03  0.36155226275E+03  0.17300000000E+03 0. -1.
         -6    1    1    2    0  502  0.25638761122E+02  0.12718108764E+02 -0.59710357678E+03  0.62231887146E+03  0.17300000000E+03 0. -1.
<mgrwt>
<rscale>  2 0.17535135E+03</rscale>
<asrwt>0</asrwt>
<pdfrwt beam="1">  1       21 0.54295506E-02 0.17535135E+03</pdfrwt>
<pdfrwt beam="2">  1       21 0.14593524E+00 0.17535135E+03</pdfrwt>
<totfact> 0.75781260E+04</totfact>
</mgrwt>
</event>
<event>
 4    1  0.4333905E+000  0.2007560E+03  0.7546771E-02  0.1149103E+00
         21   -1    0    0  501  502  0.00000000000E+00  0.00000000000E+00  0.14230307253E+03  0.14230307253E+03  0.00000000000E+00 0.  1.
         21   -1    0    0  502  503 -0.00000000000E+00 -0.00000000000E+00 -0.29806554623E+03  0.29806554623E+03  0.00000000000E+00 0. -1.
          6    1    1    2  501    0  0.45925410827E+02  0.90911034555E+02 -0.12702184851E+03  0.23756580049E+03  0.17300000000E+03 0. -1.
         -6    1    1    2    0  503 -0.45925410827E+02 -0.90911034555E+02 -0.28740625187E+02  0.20280281827E+03  0.17300000000E+03 0. -1.
<mgrwt>
<rscale>  2 0.20075597E+03</rscale>
<asrwt>0</asrwt>
<pdfrwt beam="1">  1       21 0.21892781E-01 0.20075597E+03</pdfrwt>
<pdfrwt beam="2">  1       21 0.45856237E-01 0.20075597E+03</pdfrwt>
<totfact> 0.88505972E+04</totfact>
</mgrwt>
</event>
<event>
 4    1  0.4333905E+000  0.1797213E+03  0.7546771E-02  0.1168073E+00
         21   -1    0    0  501  502  0.00000000000E+00  0.00000000000E+00  0.48904186579E+03  0.48904186579E+03  0.00000000000E+00 0. -1.
         21   -1    0    0  502  503 -0.00000000000E+00 -0.00000000000E+00 -0.72340697593E+02  0.72340697593E+02  0.00000000000E+00 0.  1.
          6    1    1    2  501    0  0.48165081844E+02  0.71332472589E+01  0.29114285453E+03  0.34214605078E+03  0.17300000000E+03 0. -1.
         -6    1    1    2    0  503 -0.48165081844E+02 -0.71332472589E+01  0.12555831367E+03  0.21923651260E+03  0.17300000000E+03 0.  1.
<mgrwt>
<rscale>  2 0.17972134E+03</rscale>
<asrwt>0</asrwt>
<pdfrwt beam="1">  1       21 0.75237208E-01 0.17972134E+03</pdfrwt>
<pdfrwt beam="2">  1       21 0.11129338E-01 0.17972134E+03</pdfrwt>
<totfact> 0.10649674E+05</totfact>
</mgrwt>
</event>
<event>
 4    1  0.4333905E+000  0.1816933E+03  0.7546771E-02  0.1166174E+00
         21   -1    0    0  503  502  0.00000000000E+00  0.00000000000E+00  0.52988949268E+03  0.52988949268E+03  0.00000000000E+00 0. -1.
         21   -1    0    0  501  503 -0.00000000000E+00 -0.00000000000E+00 -0.10023877463E+03  0.10023877463E+03  0.00000000000E+00 0. -1.
          6    1    1    2  501    0 -0.41721337377E+02 -0.36643965252E+02  0.40865452442E+03  0.44722586074E+03  0.17300000000E+03 0. -1.
         -6    1    1    2    0  502  0.41721337377E+02  0.36643965252E+02  0.20996193625E+02  0.18290240657E+03  0.17300000000E+03 0. -1.
<mgrwt>
<rscale>  2 0.18169329E+03</rscale>
<asrwt>0</asrwt>
<pdfrwt beam="1">  1       21 0.81521459E-01 0.18169329E+03</pdfrwt>
<pdfrwt beam="2">  1       21 0.15421350E-01 0.18169329E+03</pdfrwt>
<totfact> 0.49415731E+04</totfact>
</mgrwt>
</event>
<event>
 4    1  0.4333905E+000  0.1980328E+03  0.7546771E-02  0.1151409E+00
         21   -1    0    0  501  502  0.00000000000E+00  0.00000000000E+00  0.42805042073E+03  0.42805042073E+03  0.00000000000E+00 0. -1.
         21   -1    0    0  502  503 -0.00000000000E+00 -0.00000000000E+00 -0.10540028269E+03  0.10540028269E+03  0.00000000000E+00 0. -1.
          6    1    1    2  501    0 -0.18766474685E+02  0.94529410578E+02  0.25777654897E+03  0.32506266970E+03  0.17300000000E+03 0. -1.
         -6    1    1    2    0  503  0.18766474685E+02 -0.94529410578E+02  0.64873589070E+02  0.20838803371E+03  0.17300000000E+03 0. -1.
<mgrwt>
<rscale>  2 0.19803280E+03</rscale>
<asrwt>0</asrwt>
<pdfrwt beam="1">  1       21 0.65853910E-01 0.19803280E+03</pdfrwt>
<pdfrwt beam="2">  1       21 0.16215428E-01 0.19803280E+03</pdfrwt>
<totfact> 0.71903359E+04</totfact>
</mgrwt>
</event>
<event>
 4    1  0.4333905E+000  0.1739610E+03  0.7546771E-02  0.1173779E+00
         21   -1    0    0  501  502  0.00000000000E+00  0.00000000000E+00  0.65671392104E+03  0.65671392104E+03  0.00000000000E+00 0. -1.
         21   -1    0    0  502  503 -0.00000000000E+00 -0.00000000000E+00 -0.48000105877E+02  0.48000105877E+02  0.00000000000E+00 0. -1.
          6    1    1    2  501    0 -0.17181575613E+02  0.61827497081E+01  0.37480067553E+03  0.41320452479E+03  0.17300000000E+03 0. -1.
         -6    1    1    2    0  503  0.17181575613E+02 -0.61827497081E+01  0.23391313964E+03  0.29150950213E+03  0.17300000000E+03 0. -1.
<mgrwt>
<rscale>  2 0.17396101E+03</rscale>
<asrwt>0</asrwt>
<pdfrwt beam="1">  1       21 0.10103290E+00 0.17396101E+03</pdfrwt>
<pdfrwt beam="2">  1       21 0.73846322E-02 0.17396101E+03</pdfrwt>
<totfact> 0.11131001E+05</totfact>
</mgrwt>
</event>
<event>
 4    1  0.4333905E+000  0.2169368E+03  0.7546771E-02  0.1136188E+00
         21   -1    0    0  503  502  0.00000000000E+00  0.00000000000E+00  0.77208202454E+02  0.77208202454E+02  0.00000000000E+00 0.  1.
         21   -1    0    0  501  503 -0.00000000000E+00 -0.00000000000E+00 -0.92995539773E+03  0.92995539773E+03  0.00000000000E+00 0. -1.
          6    1    1    2  501    0  0.10883569658E+03 -0.72714254505E+02 -0.72196712394E+03  0.75385548994E+03  0.17300000000E+03 0.  1.
         -6    1    1    2    0  502 -0.10883569658E+03  0.72714254505E+02 -0.13078007133E+03  0.25330811024E+03  0.17300000000E+03 0.  1.
<mgrwt>
<rscale>  2 0.21693679E+03</rscale>
<asrwt>0</asrwt>
<pdfrwt beam="1">  1       21 0.11878185E-01 0.21693679E+03</pdfrwt>
<pdfrwt beam="2">  1       21 0.14307006E+00 0.21693679E+03</pdfrwt>
<totfact> 0.19899795E+04</totfact>
</mgrwt>
</event>
<event>
 4    1  0.4333905E+000  0.2264434E+03  0.7546771E-02  0.1129168E+00
         21   -1    0    0  503  502  0.00000000000E+00  0.00000000000E+00  0.14268782720E+03  0.14268782720E+03  0.00000000000E+00 0. -1.
         21   -1    0    0  501  503 -0.00000000000E+00 -0.00000000000E+00 -0.38624285497E+03  0.38624285497E+03  0.00000000000E+00 0.  1.
          6    1    1    2  501    0  0.13195656181E+03 -0.62730207813E+02 -0.19154584961E+03  0.29659134458E+03  0.17300000000E+03 0.  1.
         -6    1    1    2    0  502 -0.13195656181E+03  0.62730207813E+02 -0.52009178165E+02  0.23233933759E+03  0.17300000000E+03 0.  1.
<mgrwt>
<rscale>  2 0.22644340E+03</rscale>
<asrwt>0</asrwt>
<pdfrwt beam="1">  1       21 0.21951974E-01 0.22644340E+03</pdfrwt>
<pdfrwt beam="2">  1       21 0.59421977E-01 0.22644340E+03</pdfrwt>
<totfact> 0.50471841E+04</totfact>
</mgrwt>
</event>
<event>
 4    1  0.4333905E+000  0.2608231E+03  0.7546771E-02  0.1106650E+00
         21   -1    0    0  503  502  0.00000000000E+00  0.00000000000E+00  0.97118705636E+03  0.97118705636E+03  0.00000000000E+00 0. -1.
         21   -1    0    0  501  503 -0.00000000000E+00 -0.00000000000E+00 -0.70288212689E+02  0.70288212689E+02  0.00000000000E+00 0. -1.
          6    1    1    2  501    0 -0.15576411695E+03 -0.11763184445E+03  0.41994207317E+03  0.49434811194E+03  0.17300000000E+03 0. -1.
         -6    1    1    2    0  502  0.15576411695E+03  0.11763184445E+03  0.48095677050E+03  0.54712715711E+03  0.17300000000E+03 0. -1.
<mgrwt>
<rscale>  2 0.26082314E+03</rscale>
<asrwt>0</asrwt>
<pdfrwt beam="1">  1       21 0.14941338E+00 0.26082314E+03</pdfrwt>
<pdfrwt beam="2">  1       21 0.10813572E-01 0.26082314E+03</pdfrwt>
<totfact> 0.20488270E+04</totfact>
</mgrwt>
</event>
<event>
 4    1  0.4333905E+000  0.1984126E+03  0.7546771E-02  0.1151085E+00
         21   -1    0    0  503  502  0.00000000000E+00  0.00000000000E+00  0.16854249003E+03  0.16854249003E+03  0.00000000000E+00 0.  1.
         21   -1    0    0  501  503 -0.00000000000E+00 -0.00000000000E+00 -0.35393924416E+03  0.35393924416E+03  0.00000000000E+00 0.  1.
          6    1    1    2  501    0  0.28077396797E+02 -0.93006626967E+02 -0.24504145026E+03  0.31529808946E+03  0.17300000000E+03 0.  1.
         -6    1    1    2    0  502 -0.28077396797E+02  0.93006626967E+02  0.59644696126E+02  0.20718364474E+03  0.17300000000E+03 0.  1.
<mgrwt>
<rscale>  2 0.19841263E+03</rscale>
<asrwt>0</asrwt>
<pdfrwt beam="1">  1       21 0.25929614E-01 0.19841263E+03</pdfrwt>
<pdfrwt beam="2">  1       21 0.54452191E-01 0.19841263E+03</pdfrwt>
<totfact> 0.44871026E+04</totfact>
</mgrwt>
</event>
<event>
 4    1  0.4333905E+000  0.2173079E+03  0.7546771E-02  0.1135906E+00
         21   -1    0    0  503  502  0.00000000000E+00  0.00000000000E+00  0.77983497619E+02  0.77983497619E+02  0.00000000000E+00 0.  1.
         21   -1    0    0  501  503 -0.00000000000E+00 -0.00000000000E+00 -0.72626673727E+03  0.72626673727E+03  0.00000000000E+00 0. -1.
          6    1    1    2  501    0 -0.66499286031E+02  0.11345296772E+03 -0.48808765907E+03  0.53427735668E+03  0.17300000000E+03 0. -1.
         -6    1    1    2    0  502  0.66499286031E+02 -0.11345296772E+03 -0.16019558058E+03  0.26997287820E+03  0.17300000000E+03 0.  1.
<mgrwt>
<rscale>  2 0.21730792E+03</rscale>
<asrwt>0</asrwt>
<pdfrwt beam="1">  1       21 0.11997462E-01 0.21730792E+03</pdfrwt>
<pdfrwt beam="2">  1       21 0.11173334E+00 0.21730792E+03</pdfrwt>
<totfact> 0.36420312E+04</totfact>
</mgrwt>
</event>
<event>
 4    1  0.4333905E+000  0.1842869E+03  0.7546771E-02  0.1163717E+00
         21   -1    0    0  503  502  0.00000000000E+00  0.00000000000E+00  0.11281011793E+02  0.11281011793E+02  0.00000000000E+00 0. -1.
         21   -1    0    0  501  503 -0.00000000000E+00 -0.00000000000E+00 -0.30267507687E+04  0.30267507687E+04  0.00000000000E+00 0. -1.
          6    1    1    2  501    0 -0.31389249601E+02 -0.55203046063E+02 -0.16189856982E+04  0.16294405028E+04  0.17300000000E+03 0. -1.
         -6    1    1    2    0  502  0.31389249601E+02  0.55203046063E+02 -0.13964840587E+04  0.14085912777E+04  0.17300000000E+03 0. -1.
<mgrwt>
<rscale>  2 0.18428690E+03</rscale>
<asrwt>0</asrwt>
<pdfrwt beam="1">  1       21 0.17355392E-02 0.18428690E+03</pdfrwt>
<pdfrwt beam="2">  1       21 0.46565426E+00 0.18428690E+03</pdfrwt>
<totfact> 0.51281388E+03</totfact>
</mgrwt>
</event>
<event>
 4    1  0.4333905E+000  0.1944128E+03  0.7546771E-02  0.1154540E+00
         21   -1    0    0  501  502  0.00000000000E+00  0.00000000000E+00  0.14732574483E+03  0.14732574483E+03  0.00000000000E+00 0. -1.
         21   -1    0    0  502  503 -0.00000000000E+00 -0.00000000000E+00 -0.44326896987E+03  0.44326896987E+03  0.00000000000E+00 0. -1.
          6    1    1    2  501    0  0.66888907460E+02  0.58251362041E+02  0.43683624324E+02  0.19926014693E+03  0.17300000000E+03 0. -1.
         -6    1    1    2    0  503 -0.66888907460E+02 -0.58251362041E+02 -0.33962684937E+03  0.39133456777E+03  0.17300000000E+03 0. -1.
<mgrwt>
<rscale>  2 0.19441283E+03</rscale>
<asrwt>0</asrwt>
<pdfrwt beam="1">  1       21 0.22665499E-01 0.19441283E+03</pdfrwt>
<pdfrwt beam="2">  1       21 0.68195226E-01 0.19441283E+03</pdfrwt>
<totfact> 0.35778264E+04</totfact>
</mgrwt>
</event>
<event>
 4    1  0.4333905E+000  0.2413645E+03  0.7546771E-02  0.1118887E+00
         21   -1    0    0  503  502  0.00000000000E+00  0.00000000000E+00  0.84058631321E+03  0.84058631321E+03  0.00000000000E+00 0. -1.
         21   -1    0    0  501  503 -0.00000000000E+00 -0.00000000000E+00 -0.85364513357E+02  0.85364513357E+02  0.00000000000E+00 0. -1.
          6    1    1    2  501    0  0.93407157330E+02 -0.14001049832E+03  0.17680087132E+03  0.29919121775E+03  0.17300000000E+03 0. -1.
         -6    1    1    2    0  502 -0.93407157330E+02  0.14001049832E+03  0.57842092854E+03  0.62675960882E+03  0.17300000000E+03 0. -1.
<mgrwt>
<rscale>  2 0.24136453E+03</rscale>
<asrwt>0</asrwt>
<pdfrwt beam="1">  1       21 0.12932097E+00 0.24136453E+03</pdfrwt>
<pdfrwt beam="2">  1       21 0.13133003E-01 0.24136453E+03</pdfrwt>
<totfact> 0.21236862E+04</totfact>
</mgrwt>
</event>
<event>
 4    1  0.4333905E+000  0.1798193E+03  0.7546771E-02  0.1167978E+00
         21   -1    0    0  503  502  0.00000000000E+00  0.00000000000E+00  0.26242262203E+03  0.26242262203E+03  0.00000000000E+00 0. -1.
         21   -1    0    0  501  503 -0.00000000000E+00 -0.00000000000E+00 -0.11091689707E+04  0.11091689707E+04  0.00000000000E+00 0. -1.
          6    1    1    2  501    0  0.48081125168E+02  0.97057202331E+01 -0.10699554361E+04  0.10849606587E+04  0.17300000000E+03 0. -1.
         -6    1    1    2    0  502 -0.48081125168E+02 -0.97057202331E+01  0.22320908748E+03  0.28663093402E+03  0.17300000000E+03 0. -1.
<mgrwt>
<rscale>  2 0.17981934E+03</rscale>
<asrwt>0</asrwt>
<pdfrwt beam="1">  1       21 0.40372711E-01 0.17981934E+03</pdfrwt>
<pdfrwt beam="2">  1       21 0.17064138E+00 0.17981934E+03</pdfrwt>
<totfact> 0.12658191E+03</totfact>
</mgrwt>
</event>
<event>
 4    1  0.4333905E+000  0.1747211E+03  0.7546771E-02  0.1173012E+00
         21   -1    0    0  501  502  0.00000000000E+00  0.00000000000E+00  0.18110570329E+04  0.18110570329E+04  0.00000000000E+00 0. -1.
         21   -1    0    0  502  503 -0.00000000000E+00 -0.00000000000E+00 -0.36775617699E+02  0.36775617699E+02  0.00000000000E+00 0. -1.
          6    1    1    2  501    0 -0.12180296233E+01 -0.24432988842E+02  0.15671134191E+04  0.15768233645E+04  0.17300000000E+03 0. -1.
         -6    1    1    2    0  503  0.12180296233E+01  0.24432988842E+02  0.20716799611E+03  0.27100928610E+03  0.17300000000E+03 0. -1.
<mgrwt>
<rscale>  2 0.17472108E+03</rscale>
<asrwt>0</asrwt>
<pdfrwt beam="1">  1       21 0.27862409E+00 0.17472108E+03</pdfrwt>
<pdfrwt beam="2">  1       21 0.56577888E-02 0.17472108E+03</pdfrwt>
<totfact> 0.10070793E+04</totfact>
</mgrwt>
</event>
<event>
 4    1  0.4333905E+000  0.2170199E+03  0.7546771E-02  0.1136124E+00
         21   -1    0    0  501  502  0.00000000000E+00  0.00000000000E+00  0.60299837848E+02  0.60299837848E+02  0.00000000000E+00 0. -1.
         21   -1    0    0  502  503 -0.00000000000E+00 -0.00000000000E+00 -0.83728573871E+03  0.83728573871E+03  0.00000000000E+00 0. -1.
          6    1    1    2  501    0  0.11479302834E+03 -0.63176088389E+02 -0.27219148685E+03  0.34811759940E+03  0.17300000000E+03 0.  1.
         -6    1    1    2    0  503 -0.11479302834E+03  0.63176088389E+02 -0.50479441401E+03  0.54946797716E+03  0.17300000000E+03 0.  1.
<mgrwt>
<rscale>  2 0.21701995E+03</rscale>
<asrwt>0</asrwt>
<pdfrwt beam="1">  1       21 0.92768987E-02 0.21701995E+03</pdfrwt>
<pdfrwt beam="2">  1       21 0.12881318E+00 0.21701995E+03</pdfrwt>
<totfact> 0.40424073E+04</totfact>
</mgrwt>
</event>
<event>
 4    1  0.4333905E+000  0.2068884E+03  0.7546771E-02  0.1144054E+00
         21   -1    0    0  503  502  0.00000000000E+00  0.00000000000E+00  0.38895790264E+03  0.38895790264E+03  0.00000000000E+00 0.  1.
         21   -1    0    0  501  503 -0.00000000000E+00 -0.00000000000E+00 -0.26189360935E+03  0.26189360935E+03  0.00000000000E+00 0. -1.
          6    1    1    2  501    0 -0.94186035819E+02 -0.63267733086E+02 -0.18426430946E+03  0.27704900493E+03  0.17300000000E+03 0. -1.
         -6    1    1    2    0  502  0.94186035819E+02  0.63267733086E+02  0.31132860275E+03  0.37380250706E+03  0.17300000000E+03 0.  1.
<mgrwt>
<rscale>  2 0.20688841E+03</rscale>
<asrwt>0</asrwt>
<pdfrwt beam="1">  1       21 0.59839677E-01 0.20688841E+03</pdfrwt>
<pdfrwt beam="2">  1       21 0.40291325E-01 0.20688841E+03</pdfrwt>
<totfact> 0.15331011E+04</totfact>
</mgrwt>
</event>
<event>
 4    1  0.4333905E+000  0.1799648E+03  0.7546771E-02  0.1167837E+00
         21   -1    0    0  503  502  0.00000000000E+00  0.00000000000E+00  0.12924481109E+04  0.12924481109E+04  0.00000000000E+00 0. -1.
         21   -1    0    0  501  503 -0.00000000000E+00 -0.00000000000E+00 -0.27523220312E+02  0.27523220312E+02  0.00000000000E+00 0. -1.
          6    1    1    2  501    0  0.48105455013E+02 -0.12008491228E+02  0.43497807528E+03  0.47073693783E+03  0.17300000000E+03 0. -1.
         -6    1    1    2    0  502 -0.48105455013E+02  0.12008491228E+02  0.82994681533E+03  0.84923439340E+03  0.17300000000E+03 0. -1.
<mgrwt>
<rscale>  2 0.17996483E+03</rscale>
<asrwt>0</asrwt>
<pdfrwt beam="1">  1       21 0.19883812E+00 0.17996483E+03</pdfrwt>
<pdfrwt beam="2">  1       21 0.42343426E-02 0.17996483E+03</pdfrwt>
<totfact> 0.49056301E+04</totfact>
</mgrwt>
</event>
<event>
 4    1  0.4333905E+000  0.2066213E+03  0.7546771E-02  0.1144270E+00
         21   -1    0    0  501  502  0.00000000000E+00  0.00000000000E+00  0.29223800677E+03  0.29223800677E+03  0.00000000000E+00 0. -1.
         21   -1    0    0  502  503 -0.00000000000E+00 -0.00000000000E+00 -0.20258065047E+03  0.20258065047E+03  0.00000000000E+00 0. -1.
          6    1    1    2  501    0 -0.94038453178E+02  0.62611037566E+02  0.17548014557E+03  0.27108237529E+03  0.17300000000E+03 0. -1.
         -6    1    1    2    0  503  0.94038453178E+02 -0.62611037566E+02 -0.85822789274E+02  0.22373628195E+03  0.17300000000E+03 0. -1.
<mgrwt>
<rscale>  2 0.20662133E+03</rscale>
<asrwt>0</asrwt>
<pdfrwt beam="1">  1       21 0.44959693E-01 0.20662133E+03</pdfrwt>
<pdfrwt beam="2">  1       21 0.31166254E-01 0.20662133E+03</pdfrwt>
<totfact> 0.46634267E+04</totfact>
</mgrwt>
</event>
<event>
 4    1  0.4333905E+000  0.1910584E+03  0.7546771E-02  0.1157510E+00
         21   -1    0    0  501  502  0.00000000000E+00  0.00000000000E+00  0.27218299200E+04  0.27218299200E+04  0.00000000000E+00 0.  1.
         21   -1    0    0  502  503 -0.00000000000E+00 -0.00000000000E+00 -0.27004161483E+02  0.27004161483E+02  0.00000000000E+00 0.  1.
          6    1    1    2  501    0  0.67338742891E+02 -0.45164023956E+02  0.23225339129E+04  0.23303791692E+04  0.17300000000E+03 0.  1.
         -6    1    1    2    0  503 -0.67338742891E+02  0.45164023956E+02  0.37229184558E+03  0.41845491232E+03  0.17300000000E+03 0.  1.
<mgrwt>
<rscale>  2 0.19105836E+03</rscale>
<asrwt>0</asrwt>
<pdfrwt beam="1">  1       21 0.41874285E+00 0.19105836E+03</pdfrwt>
<pdfrwt beam="2">  1       21 0.41544885E-02 0.19105836E+03</pdfrwt>
<totfact> 0.24473605E+03</totfact>
</mgrwt>
</event>
<event>
 4    1  0.4333905E+000  0.1854405E+03  0.7546771E-02  0.1162639E+00
         21   -1    0    0  501  502  0.00000000000E+00  0.00000000000E+00  0.75083873320E+02  0.75083873320E+02  0.00000000000E+00 0. -1.
         21   -1    0    0  502  503 -0.00000000000E+00 -0.00000000000E+00 -0.45921095349E+03  0.45921095349E+03  0.00000000000E+00 0. -1.
          6    1    1    2  501    0  0.63046760547E+02  0.22006244017E+02 -0.20580058672E+03  0.27702355547E+03  0.17300000000E+03 0.  1.
         -6    1    1    2    0  503 -0.63046760547E+02 -0.22006244017E+02 -0.17832649346E+03  0.25727127135E+03  0.17300000000E+03 0.  1.
<mgrwt>
<rscale>  2 0.18544047E+03</rscale>
<asrwt>0</asrwt>
<pdfrwt beam="1">  1       21 0.11551365E-01 0.18544047E+03</pdfrwt>
<pdfrwt beam="2">  1       21 0.70647839E-01 0.18544047E+03</pdfrwt>
<totfact> 0.11435429E+05</totfact>
</mgrwt>
</event>
<event>
 4    1  0.4333905E+000  0.1774352E+03  0.7546771E-02  0.1170309E+00
         21   -1    0    0  503  502  0.00000000000E+00  0.00000000000E+00  0.16944482531E+03  0.16944482531E+03  0.00000000000E+00 0. -1.
         21   -1    0    0  501  503 -0.00000000000E+00 -0.00000000000E+00 -0.19797699750E+03  0.19797699750E+03  0.00000000000E+00 0. -1.
          6    1    1    2  501    0  0.39370212110E+02 -0.20570236647E+01  0.31291003461E+02  0.18017317183E+03  0.17300000000E+03 0. -1.
         -6    1    1    2    0  502 -0.39370212110E+02  0.20570236647E+01 -0.59823175655E+02  0.18724865098E+03  0.17300000000E+03 0. -1.
<mgrwt>
<rscale>  2 0.17743519E+03</rscale>
<asrwt>0</asrwt>
<pdfrwt beam="1">  1       21 0.26068435E-01 0.17743519E+03</pdfrwt>
<pdfrwt beam="2">  1       21 0.30458000E-01 0.17743519E+03</pdfrwt>
<totfact> 0.14536779E+05</totfact>
</mgrwt>
</event>
<event>
 4    1  0.4333905E+000  0.1893371E+03  0.7546771E-02  0.1159061E+00
         21   -1    0    0  501  502  0.00000000000E+00  0.00000000000E+00  0.29248841824E+03  0.29248841824E+03  0.00000000000E+00 0. -1.
         21   -1    0    0  502  503 -0.00000000000E+00 -0.00000000000E+00 -0.14024525079E+03  0.14024525079E+03  0.00000000000E+00 0. -1.
          6    1    1    2  501    0  0.62933396935E+02  0.44259603139E+02  0.15294686793E+03  0.24339529439E+03  0.17300000000E+03 0. -1.
         -6    1    1    2    0  503 -0.62933396935E+02 -0.44259603139E+02 -0.70370048128E+00  0.18933837465E+03  0.17300000000E+03 0. -1.
<mgrwt>
<rscale>  2 0.18933707E+03</rscale>
<asrwt>0</asrwt>
<pdfrwt beam="1">  1       21 0.44998218E-01 0.18933707E+03</pdfrwt>
<pdfrwt beam="2">  1       21 0.21576192E-01 0.18933707E+03</pdfrwt>
<totfact> 0.95013700E+04</totfact>
</mgrwt>
</event>
<event>
 4    1  0.4333905E+000  0.2717086E+03  0.7546771E-02  0.1100306E+00
         21   -1    0    0  503  502  0.00000000000E+00  0.00000000000E+00  0.24145657775E+03  0.24145657775E+03  0.00000000000E+00 0.  1.
         21   -1    0    0  501  503 -0.00000000000E+00 -0.00000000000E+00 -0.58607898256E+03  0.58607898256E+03  0.00000000000E+00 0.  1.
          6    1    1    2  501    0 -0.18341054407E+03 -0.10127749598E+03 -0.45847317554E+03  0.53293828119E+03  0.17300000000E+03 0.  1.
         -6    1    1    2    0  502  0.18341054407E+03  0.10127749598E+03  0.11385077073E+03  0.29459727912E+03  0.17300000000E+03 0.  1.
<mgrwt>
<rscale>  2 0.27170859E+03</rscale>
<asrwt>0</asrwt>
<pdfrwt beam="1">  1       21 0.37147167E-01 0.27170859E+03</pdfrwt>
<pdfrwt beam="2">  1       21 0.90165995E-01 0.27170859E+03</pdfrwt>
<totfact> 0.69497696E+03</totfact>
</mgrwt>
</event>
<event>
 4    1  0.4333905E+000  0.2016000E+03  0.7546771E-02  0.1148396E+00
         21   -1    0    0  501  502  0.00000000000E+00  0.00000000000E+00  0.33757396836E+03  0.33757396836E+03  0.00000000000E+00 0.  1.
         21   -1    0    0  502  503 -0.00000000000E+00 -0.00000000000E+00 -0.15177756262E+03  0.15177756262E+03  0.00000000000E+00 0.  1.
          6    1    1    2  501    0 -0.66752200167E+02 -0.79105633115E+02  0.20415445139E+03  0.28691740526E+03  0.17300000000E+03 0.  1.
         -6    1    1    2    0  503  0.66752200167E+02  0.79105633115E+02 -0.18358045654E+02  0.20243412572E+03  0.17300000000E+03 0.  1.
<mgrwt>
<rscale>  2 0.20159999E+03</rscale>
<asrwt>0</asrwt>
<pdfrwt beam="1">  1       21 0.51934457E-01 0.20159999E+03</pdfrwt>
<pdfrwt beam="2">  1       21 0.23350394E-01 0.20159999E+03</pdfrwt>
<totfact> 0.60451637E+04</totfact>
</mgrwt>
</event>
<event>
 4    1  0.4333905E+000  0.2681451E+03  0.7546771E-02  0.1102346E+00
         21   -1    0    0  503  502  0.00000000000E+00  0.00000000000E+00  0.29493718009E+03  0.29493718009E+03  0.00000000000E+00 0.  1.
         21   -1    0    0  501  503 -0.00000000000E+00 -0.00000000000E+00 -0.24887439037E+03  0.24887439037E+03  0.00000000000E+00 0. -1.
          6    1    1    2  501    0 -0.20388328855E+03 -0.20109756887E+02 -0.15844777098E+02  0.26861283408E+03  0.17300000000E+03 0. -1.
         -6    1    1    2    0  502  0.20388328855E+03  0.20109756887E+02  0.61907566816E+02  0.27519873637E+03  0.17300000000E+03 0. -1.
<mgrwt>
<rscale>  2 0.26814511E+03</rscale>
<asrwt>0</asrwt>
<pdfrwt beam="1">  1       21 0.45374951E-01 0.26814511E+03</pdfrwt>
<pdfrwt beam="2">  1       21 0.38288368E-01 0.26814511E+03</pdfrwt>
<totfact> 0.29546895E+04</totfact>
</mgrwt>
</event>
<event>
 4    1  0.4333905E+000  0.2932747E+03  0.7546771E-02  0.1088652E+00
         21   -1    0    0  503  502  0.00000000000E+00  0.00000000000E+00  0.47337022845E+03  0.47337022845E+03  0.00000000000E+00 0. -1.
         21   -1    0    0  501  503 -0.00000000000E+00 -0.00000000000E+00 -0.20202301003E+03  0.20202301003E+03  0.00000000000E+00 0.  1.
          6    1    1    2  501    0 -0.21887487679E+03 -0.90414944760E+02  0.28558786327E+02  0.29466197278E+03  0.17300000000E+03 0. -1.
         -6    1    1    2    0  502  0.21887487679E+03  0.90414944760E+02  0.24278843210E+03  0.38073126571E+03  0.17300000000E+03 0.  1.
<mgrwt>
<rscale>  2 0.29327474E+03</rscale>
<asrwt>0</asrwt>
<pdfrwt beam="1">  1       21 0.72826189E-01 0.29327474E+03</pdfrwt>
<pdfrwt beam="2">  1       21 0.31080463E-01 0.29327474E+03</pdfrwt>
<totfact> 0.16012131E+04</totfact>
</mgrwt>
</event>
<event>
 4    1  0.4333905E+000  0.2321444E+03  0.7546771E-02  0.1125139E+00
         21   -1    0    0  503  502  0.00000000000E+00  0.00000000000E+00  0.79819745080E+02  0.79819745080E+02  0.00000000000E+00 0.  1.
         21   -1    0    0  501  503 -0.00000000000E+00 -0.00000000000E+00 -0.74677245279E+03  0.74677245279E+03  0.00000000000E+00 0. -1.
          6    1    1    2  501    0  0.11127182547E+03  0.10761329934E+03 -0.46146269680E+03  0.51656447988E+03  0.17300000000E+03 0.  1.
         -6    1    1    2    0  502 -0.11127182547E+03 -0.10761329934E+03 -0.20549001091E+03  0.31002771799E+03  0.17300000000E+03 0. -1.
<mgrwt>
<rscale>  2 0.23214444E+03</rscale>
<asrwt>0</asrwt>
<pdfrwt beam="1">  1       21 0.12279961E-01 0.23214444E+03</pdfrwt>
<pdfrwt beam="2">  1       21 0.11488807E+00 0.23214444E+03</pdfrwt>
<totfact> 0.32383466E+04</totfact>
</mgrwt>
</event>
<event>
 4    1  0.4333905E+000  0.1794815E+03  0.7546771E-02  0.1168306E+00
         21   -1    0    0  501  502  0.00000000000E+00  0.00000000000E+00  0.25843306509E+03  0.25843306509E+03  0.00000000000E+00 0. -1.
         21   -1    0    0  502  503 -0.00000000000E+00 -0.00000000000E+00 -0.12467530654E+03  0.12467530654E+03  0.00000000000E+00 0. -1.
          6    1    1    2  501    0 -0.45738263493E+02  0.13879309491E+02  0.69619957394E+02  0.19251120083E+03  0.17300000000E+03 0. -1.
         -6    1    1    2    0  503  0.45738263493E+02 -0.13879309491E+02  0.64137801153E+02  0.19059717080E+03  0.17300000000E+03 0. -1.
<mgrwt>
<rscale>  2 0.17948154E+03</rscale>
<asrwt>0</asrwt>
<pdfrwt beam="1">  1       21 0.39758933E-01 0.17948154E+03</pdfrwt>
<pdfrwt beam="2">  1       21 0.19180816E-01 0.17948154E+03</pdfrwt>
<totfact> 0.15280492E+05</totfact>
</mgrwt>
</event>
<event>
 4    1  0.4333905E+000  0.2340563E+03  0.7546771E-02  0.1123817E+00
         21   -1    0    0  501  502  0.00000000000E+00  0.00000000000E+00  0.37060455062E+03  0.37060455062E+03  0.00000000000E+00 0.  1.
         21   -1    0    0  502  503 -0.00000000000E+00 -0.00000000000E+00 -0.22081057336E+03  0.22081057336E+03  0.00000000000E+00 0. -1.
          6    1    1    2  501    0 -0.39992543868E+02 -0.15249252426E+03 -0.95118710416E+02  0.25264588378E+03  0.17300000000E+03 0. -1.
         -6    1    1    2    0  503  0.39992543868E+02  0.15249252426E+03  0.24491268767E+03  0.33876924020E+03  0.17300000000E+03 0. -1.
<mgrwt>
<rscale>  2 0.23405635E+03</rscale>
<asrwt>0</asrwt>
<pdfrwt beam="1">  1       21 0.57016085E-01 0.23405635E+03</pdfrwt>
<pdfrwt beam="2">  1       21 0.33970857E-01 0.23405635E+03</pdfrwt>
<totfact> 0.23585953E+04</totfact>
</mgrwt>
</event>
<event>
 4    1  0.4333905E+000  0.2561922E+03  0.7546771E-02  0.1109453E+00
         21   -1    0    0  501  502  0.00000000000E+00  0.00000000000E+00  0.35596228103E+03  0.35596228103E+03  0.00000000000E+00 0. -1.
         21   -1    0    0  502  503 -0.00000000000E+00 -0.00000000000E+00 -0.21345361490E+03  0.21345361490E+03  0.00000000000E+00 0. -1.
          6    1    1    2  501    0 -0.12913169829E+03  0.13795092332E+03 -0.33809371344E+02  0.25841347940E+03  0.17300000000E+03 0. -1.
         -6    1    1    2    0  503  0.12913169829E+03 -0.13795092332E+03  0.17631803747E+03  0.31100241652E+03  0.17300000000E+03 0. -1.
<mgrwt>
<rscale>  2 0.25619222E+03</rscale>
<asrwt>0</asrwt>
<pdfrwt beam="1">  1       21 0.54763428E-01 0.25619222E+03</pdfrwt>
<pdfrwt beam="2">  1       21 0.32839018E-01 0.25619222E+03</pdfrwt>
<totfact> 0.27210091E+04</totfact>
</mgrwt>
</event>
<event>
 4    1  0.4333905E+000  0.1816906E+03  0.7546771E-02  0.1166177E+00
         21   -1    0    0  503  502  0.00000000000E+00  0.00000000000E+00  0.56798754623E+03  0.56798754623E+03  0.00000000000E+00 0. -1.
         21   -1    0    0  501  503 -0.00000000000E+00 -0.00000000000E+00 -0.58210752355E+02  0.58210752355E+02  0.00000000000E+00 0. -1.
          6    1    1    2  501    0 -0.19176785046E+02 -0.52102996725E+02  0.26724676261E+03  0.32315987294E+03  0.17300000000E+03 0. -1.
         -6    1    1    2    0  502  0.19176785046E+02  0.52102996725E+02  0.24253003126E+03  0.30303842564E+03  0.17300000000E+03 0. -1.
<mgrwt>
<rscale>  2 0.18169059E+03</rscale>
<asrwt>0</asrwt>
<pdfrwt beam="1">  1       21 0.87382696E-01 0.18169059E+03</pdfrwt>
<pdfrwt beam="2">  1       21 0.89555007E-02 0.18169059E+03</pdfrwt>
<totfact> 0.11128406E+05</totfact>
</mgrwt>
</event>
<event>
 4    1  0.4333905E+000  0.2678349E+03  0.7546771E-02  0.1102525E+00
         21   -1    0    0  501  502  0.00000000000E+00  0.00000000000E+00  0.10866942009E+04  0.10866942009E+04  0.00000000000E+00 0. -1.
         21   -1    0    0  502  503 -0.00000000000E+00 -0.00000000000E+00 -0.66267394252E+02  0.66267394252E+02  0.00000000000E+00 0. -1.
          6    1    1    2  501    0  0.18952565779E+03  0.76723969374E+02  0.54595747001E+03  0.60811602635E+03  0.17300000000E+03 0. -1.
         -6    1    1    2    0  503 -0.18952565779E+03 -0.76723969374E+02  0.47446933662E+03  0.54484556879E+03  0.17300000000E+03 0. -1.
<mgrwt>
<rscale>  2 0.26783492E+03</rscale>
<asrwt>0</asrwt>
<pdfrwt beam="1">  1       21 0.16718371E+00 0.26783492E+03</pdfrwt>
<pdfrwt beam="2">  1       21 0.10194985E-01 0.26783492E+03</pdfrwt>
<totfact> 0.16709532E+04</totfact>
</mgrwt>
</event>
<event>
 4    1  0.4333905E+000  0.2381208E+03  0.7546771E-02  0.1121051E+00
         21   -1    0    0  503  502  0.00000000000E+00  0.00000000000E+00  0.16054188725E+03  0.16054188725E+03  0.00000000000E+00 0.  1.
         21   -1    0    0  501  503 -0.00000000000E+00 -0.00000000000E+00 -0.35349062159E+03  0.35349062159E+03  0.00000000000E+00 0. -1.
          6    1    1    2  501    0  0.93268077157E+02 -0.13443808946E+03 -0.10398931945E+03  0.25983708872E+03  0.17300000000E+03 0. -1.
         -6    1    1    2    0  502 -0.93268077157E+02  0.13443808946E+03 -0.88959414883E+02  0.25419542012E+03  0.17300000000E+03 0. -1.
<mgrwt>
<rscale>  2 0.23812084E+03</rscale>
<asrwt>0</asrwt>
<pdfrwt beam="1">  1       21 0.24698752E-01 0.23812084E+03</pdfrwt>
<pdfrwt beam="2">  1       21 0.54383173E-01 0.23812084E+03</pdfrwt>
<totfact> 0.48490741E+04</totfact>
</mgrwt>
</event>
<event>
 4    1  0.4333905E+000  0.3344791E+03  0.7546771E-02  0.1069172E+00
         21   -1    0    0  501  502  0.00000000000E+00  0.00000000000E+00  0.73052292681E+03  0.73052292681E+03  0.00000000000E+00 0.  1.
         21   -1    0    0  502  503 -0.00000000000E+00 -0.00000000000E+00 -0.16487994661E+03  0.16487994661E+03  0.00000000000E+00 0. -1.
          6    1    1    2  501    0  0.46458558526E+02  0.28246920319E+03  0.16338496641E+03  0.37225111909E+03  0.17300000000E+03 0.  1.
         -6    1    1    2    0  503 -0.46458558526E+02 -0.28246920319E+03  0.40225801379E+03  0.52315175434E+03  0.17300000000E+03 0. -1.
<mgrwt>
<rscale>  2 0.33447907E+03</rscale>
<asrwt>0</asrwt>
<pdfrwt beam="1">  1       21 0.11238814E+00 0.33447907E+03</pdfrwt>
<pdfrwt beam="2">  1       21 0.25366146E-01 0.33447907E+03</pdfrwt>
<totfact> 0.84312135E+03</totfact>
</mgrwt>
</event>
<event>
 4    1  0.4333905E+000  0.2305449E+03  0.7546771E-02  0.1126257E+00
         21   -1    0    0  501  502  0.00000000000E+00  0.00000000000E+00  0.26437785230E+04  0.26437785230E+04  0.00000000000E+00 0.  1.
         21   -1    0    0  502  503 -0.00000000000E+00 -0.00000000000E+00 -0.16621943088E+03  0.16621943088E+03  0.00000000000E+00 0.  1.
          6    1    1    2  501    0  0.11403490511E+03  0.10108408740E+03  0.25560741505E+04  0.25664500804E+04  0.17300000000E+03 0.  1.
         -6    1    1    2    0  503 -0.11403490511E+03 -0.10108408740E+03 -0.78515058350E+02  0.24354787352E+03  0.17300000000E+03 0.  1.
<mgrwt>
<rscale>  2 0.23054490E+03</rscale>
<asrwt>0</asrwt>
<pdfrwt beam="1">  1       21 0.40673513E+00 0.23054490E+03</pdfrwt>
<pdfrwt beam="2">  1       21 0.25572222E-01 0.23054490E+03</pdfrwt>
<totfact> 0.10764301E+02</totfact>
</mgrwt>
</event>
<event>
 4    1  0.4333905E+000  0.1943836E+03  0.7546771E-02  0.1154566E+00
         21   -1    0    0  501  502  0.00000000000E+00  0.00000000000E+00  0.19462110065E+03  0.19462110065E+03  0.00000000000E+00 0.  1.
         21   -1    0    0  502  503 -0.00000000000E+00 -0.00000000000E+00 -0.19749551527E+03  0.19749551527E+03  0.00000000000E+00 0.  1.
          6    1    1    2  501    0 -0.80413317871E+02  0.37278382181E+02  0.24094148193E+02  0.19587115011E+03  0.17300000000E+03 0.  1.
         -6    1    1    2    0  503  0.80413317871E+02 -0.37278382181E+02 -0.26968562815E+02  0.19624546581E+03  0.17300000000E+03 0.  1.
<mgrwt>
<rscale>  2 0.19438359E+03</rscale>
<asrwt>0</asrwt>
<pdfrwt beam="1">  1       21 0.29941708E-01 0.19438359E+03</pdfrwt>
<pdfrwt beam="2">  1       21 0.30383925E-01 0.19438359E+03</pdfrwt>
<totfact> 0.11112539E+05</totfact>
</mgrwt>
</event>
<event>
 4    1  0.4333905E+000  0.1976446E+03  0.7546771E-02  0.1151742E+00
         21   -1    0    0  503  502  0.00000000000E+00  0.00000000000E+00  0.79437823201E+02  0.79437823201E+02  0.00000000000E+00 0.  1.
         21   -1    0    0  501  503 -0.00000000000E+00 -0.00000000000E+00 -0.54097191536E+03  0.54097191536E+03  0.00000000000E+00 0.  1.
          6    1    1    2  501    0  0.33422257382E+02 -0.89539658265E+02 -0.32433969836E+03  0.37981526776E+03  0.17300000000E+03 0.  1.
         -6    1    1    2    0  502 -0.33422257382E+02  0.89539658265E+02 -0.13719439380E+03  0.24059447080E+03  0.17300000000E+03 0.  1.
<mgrwt>
<rscale>  2 0.19764462E+03</rscale>
<asrwt>0</asrwt>
<pdfrwt beam="1">  1       21 0.12221203E-01 0.19764462E+03</pdfrwt>
<pdfrwt beam="2">  1       21 0.83226452E-01 0.19764462E+03</pdfrwt>
<totfact> 0.71246923E+04</totfact>
</mgrwt>
</event>
<event>
 4    1  0.4333905E+000  0.1981507E+03  0.7546771E-02  0.1151309E+00
         21   -1    0    0  501  502  0.00000000000E+00  0.00000000000E+00  0.13939512201E+04  0.13939512201E+04  0.00000000000E+00 0. -1.
         21   -1    0    0  502  503 -0.00000000000E+00 -0.00000000000E+00 -0.44257154801E+02  0.44257154801E+02  0.00000000000E+00 0. -1.
          6    1    1    2  501    0 -0.92366051988E+02  0.28341294554E+02  0.11084351299E+04  0.11260071730E+04  0.17300000000E+03 0. -1.
         -6    1    1    2    0  503  0.92366051988E+02 -0.28341294554E+02  0.24125893542E+03  0.31220120188E+03  0.17300000000E+03 0. -1.
<mgrwt>
<rscale>  2 0.19815074E+03</rscale>
<asrwt>0</asrwt>
<pdfrwt beam="1">  1       21 0.21445400E+00 0.19815074E+03</pdfrwt>
<pdfrwt beam="2">  1       21 0.68087941E-02 0.19815074E+03</pdfrwt>
<totfact> 0.17194551E+04</totfact>
</mgrwt>
</event>
<event>
 4    1  0.4333905E+000  0.1754240E+03  0.7546771E-02  0.1172307E+00
         21   -1    0    0  501  502  0.00000000000E+00  0.00000000000E+00  0.40070925354E+02  0.40070925354E+02  0.00000000000E+00 0.  1.
         21   -1    0    0  502  503 -0.00000000000E+00 -0.00000000000E+00 -0.12056727575E+04  0.12056727575E+04  0.00000000000E+00 0.  1.
          6    1    1    2  501    0  0.32661213180E+01 -0.28877342976E+02 -0.20750840199E+03  0.27172284663E+03  0.17300000000E+03 0.  1.
         -6    1    1    2    0  503 -0.32661213180E+01  0.28877342976E+02 -0.95809343020E+03  0.97402083627E+03  0.17300000000E+03 0.  1.
<mgrwt>
<rscale>  2 0.17542397E+03</rscale>
<asrwt>0</asrwt>
<pdfrwt beam="1">  1       21 0.61647586E-02 0.17542397E+03</pdfrwt>
<pdfrwt beam="2">  1       21 0.18548809E+00 0.17542397E+03</pdfrwt>
<totfact> 0.31830529E+04</totfact>
</mgrwt>
</event>
<event>
 4    1  0.4333905E+000  0.2452578E+03  0.7546771E-02  0.1116339E+00
         21   -1    0    0  503  502  0.00000000000E+00  0.00000000000E+00  0.80794954430E+03  0.80794954430E+03  0.00000000000E+00 0.  1.
         21   -1    0    0  501  503 -0.00000000000E+00 -0.00000000000E+00 -0.77648297939E+02  0.77648297939E+02  0.00000000000E+00 0. -1.
          6    1    1    2  501    0 -0.17239591148E+03  0.22406176292E+02  0.27527572645E+03  0.36868429937E+03  0.17300000000E+03 0.  1.
         -6    1    1    2    0  502  0.17239591148E+03 -0.22406176292E+02  0.45502551991E+03  0.51691354287E+03  0.17300000000E+03 0.  1.
<mgrwt>
<rscale>  2 0.24525780E+03</rscale>
<asrwt>0</asrwt>
<pdfrwt beam="1">  1       21 0.12429992E+00 0.24525780E+03</pdfrwt>
<pdfrwt beam="2">  1       21 0.11945893E-01 0.24525780E+03</pdfrwt>
<totfact> 0.27796321E+04</totfact>
</mgrwt>
</event>
<event>
 4    1  0.4333905E+000  0.2779606E+03  0.7546771E-02  0.1096808E+00
         21   -1    0    0  501  502  0.00000000000E+00  0.00000000000E+00  0.31444141454E+03  0.31444141454E+03  0.00000000000E+00 0.  1.
         21   -1    0    0  502  503 -0.00000000000E+00 -0.00000000000E+00 -0.24648035671E+03  0.24648035671E+03  0.00000000000E+00 0. -1.
          6    1    1    2  501    0  0.17390248426E+03  0.13073261289E+03  0.49637491906E+02  0.28235787701E+03  0.17300000000E+03 0.  1.
         -6    1    1    2    0  503 -0.17390248426E+03 -0.13073261289E+03  0.18323565924E+02  0.27856389424E+03  0.17300000000E+03 0. -1.
<mgrwt>
<rscale>  2 0.27796059E+03</rscale>
<asrwt>0</asrwt>
<pdfrwt beam="1">  1       21 0.48375602E-01 0.27796059E+03</pdfrwt>
<pdfrwt beam="2">  1       21 0.37920055E-01 0.27796059E+03</pdfrwt>
<totfact> 0.26261304E+04</totfact>
</mgrwt>
</event>
<event>
 4    1  0.4333905E+000  0.1789355E+03  0.7546771E-02  0.1168837E+00
         21   -1    0    0  503  502  0.00000000000E+00  0.00000000000E+00  0.65488473327E+03  0.65488473327E+03  0.00000000000E+00 0.  1.
         21   -1    0    0  501  503 -0.00000000000E+00 -0.00000000000E+00 -0.95109609830E+02  0.95109609830E+02  0.00000000000E+00 0.  1.
          6    1    1    2  501    0  0.80259168710E+01  0.44994383581E+02  0.18476079936E+02  0.17988684061E+03  0.17300000000E+03 0. -1.
         -6    1    1    2    0  502 -0.80259168710E+01 -0.44994383581E+02  0.54129904350E+03  0.57010750249E+03  0.17300000000E+03 0. -1.
<mgrwt>
<rscale>  2 0.17893549E+03</rscale>
<asrwt>0</asrwt>
<pdfrwt beam="1">  1       21 0.10075149E+00 0.17893549E+03</pdfrwt>
<pdfrwt beam="2">  1       21 0.14632248E-01 0.17893549E+03</pdfrwt>
<totfact> 0.33350225E+04</totfact>
</mgrwt>
</event>
<event>
 4    1  0.4333905E+000  0.1945542E+03  0.7546771E-02  0.1154417E+00
         21   -1    0    0  503  502  0.00000000000E+00  0.00000000000E+00  0.20769439640E+03  0.20769439640E+03  0.00000000000E+00 0. -1.
         21   -1    0    0  501  503 -0.00000000000E+00 -0.00000000000E+00 -0.18560171539E+03  0.18560171539E+03  0.00000000000E+00 0.  1.
          6    1    1    2  501    0 -0.37874770601E+01  0.88926965945E+02 -0.15397799825E+02  0.19516260527E+03  0.17300000000E+03 0. -1.
         -6    1    1    2    0  502  0.37874770601E+01 -0.88926965945E+02  0.37490480832E+02  0.19813350652E+03  0.17300000000E+03 0. -1.
<mgrwt>
<rscale>  2 0.19455423E+03</rscale>
<asrwt>0</asrwt>
<pdfrwt beam="1">  1       21 0.31952984E-01 0.19455423E+03</pdfrwt>
<pdfrwt beam="2">  1       21 0.28554110E-01 0.19455423E+03</pdfrwt>
<totfact> 0.11041397E+05</totfact>
</mgrwt>
</event>
<event>
 4    1  0.4333905E+000  0.2038455E+03  0.7546771E-02  0.1146535E+00
         21   -1    0    0  501  502  0.00000000000E+00  0.00000000000E+00  0.37795302882E+03  0.37795302882E+03  0.00000000000E+00 0. -1.
         21   -1    0    0  502  503 -0.00000000000E+00 -0.00000000000E+00 -0.24907487551E+03  0.24907487551E+03  0.00000000000E+00 0. -1.
          6    1    1    2  501    0  0.66910551800E+02 -0.84539772774E+02  0.29875750657E+03  0.36167532796E+03  0.17300000000E+03 0. -1.
         -6    1    1    2    0  503 -0.66910551800E+02  0.84539772774E+02 -0.16987935326E+03  0.26535257637E+03  0.17300000000E+03 0. -1.
<mgrwt>
<rscale>  2 0.20384552E+03</rscale>
<asrwt>0</asrwt>
<pdfrwt beam="1">  1       21 0.58146620E-01 0.20384552E+03</pdfrwt>
<pdfrwt beam="2">  1       21 0.38319212E-01 0.20384552E+03</pdfrwt>
<totfact> 0.18075776E+04</totfact>
</mgrwt>
</event>
<event>
 4    1  0.4333905E+000  0.1817621E+03  0.7546771E-02  0.1166108E+00
         21   -1    0    0  503  502  0.00000000000E+00  0.00000000000E+00  0.18835697267E+02  0.18835697267E+02  0.00000000000E+00 0.  1.
         21   -1    0    0  501  503 -0.00000000000E+00 -0.00000000000E+00 -0.17799415378E+04  0.17799415378E+04  0.00000000000E+00 0. -1.
          6    1    1    2  501    0 -0.73009827832E+00 -0.55748934138E+02 -0.98916841382E+03  0.10057294008E+04  0.17300000000E+03 0. -1.
         -6    1    1    2    0  502  0.73009827832E+00  0.55748934138E+02 -0.77193742671E+03  0.79304783428E+03  0.17300000000E+03 0.  1.
<mgrwt>
<rscale>  2 0.18176214E+03</rscale>
<asrwt>0</asrwt>
<pdfrwt beam="1">  1       21 0.28977989E-02 0.18176214E+03</pdfrwt>
<pdfrwt beam="2">  1       21 0.27383722E+00 0.18176214E+03</pdfrwt>
<totfact> 0.32682694E+04</totfact>
</mgrwt>
</event>
<event>
 4    1  0.4333905E+000  0.2432928E+03  0.7546771E-02  0.1117618E+00
         21   -1    0    0  501  502  0.00000000000E+00  0.00000000000E+00  0.16811674304E+04  0.16811674304E+04  0.00000000000E+00 0. -1.
         21   -1    0    0  502  503 -0.00000000000E+00 -0.00000000000E+00 -0.54560183196E+02  0.54560183196E+02  0.00000000000E+00 0.  1.
          6    1    1    2  501    0 -0.16281311522E+03 -0.52481286088E+02  0.13301636638E+04  0.13522302942E+04  0.17300000000E+03 0. -1.
         -6    1    1    2    0  503  0.16281311522E+03  0.52481286088E+02  0.29644358332E+03  0.38349731938E+03  0.17300000000E+03 0.  1.
<mgrwt>
<rscale>  2 0.24329282E+03</rscale>
<asrwt>0</asrwt>
<pdfrwt beam="1">  1       21 0.25864110E+00 0.24329282E+03</pdfrwt>
<pdfrwt beam="2">  1       21 0.83938756E-02 0.24329282E+03</pdfrwt>
<totfact> 0.62299158E+03</totfact>
</mgrwt>
</event>
<event>
 4    1  0.4333905E+000  0.2407390E+03  0.7546771E-02  0.1119301E+00
         21   -1    0    0  503  502  0.00000000000E+00  0.00000000000E+00  0.11752720399E+04  0.11752720399E+04  0.00000000000E+00 0.  1.
         21   -1    0    0  501  503 -0.00000000000E+00 -0.00000000000E+00 -0.50993464882E+02  0.50993464882E+02  0.00000000000E+00 0.  1.
          6    1    1    2  501    0 -0.11939723099E+03 -0.11734807928E+03  0.45080906871E+03  0.51106172514E+03  0.17300000000E+03 0.  1.
         -6    1    1    2    0  502  0.11939723099E+03  0.11734807928E+03  0.67346950628E+03  0.71520377961E+03  0.17300000000E+03 0.  1.
<mgrwt>
<rscale>  2 0.24073901E+03</rscale>
<asrwt>0</asrwt>
<pdfrwt beam="1">  1       21 0.18081106E+00 0.24073901E+03</pdfrwt>
<pdfrwt beam="2">  1       21 0.78451493E-02 0.24073901E+03</pdfrwt>
<totfact> 0.21608399E+04</totfact>
</mgrwt>
</event>
<event>
 4    1  0.4333905E+000  0.1847093E+03  0.7546771E-02  0.1163322E+00
         21   -1    0    0  501  502  0.00000000000E+00  0.00000000000E+00  0.53821002409E+02  0.53821002409E+02  0.00000000000E+00 0.  1.
         21   -1    0    0  502  503 -0.00000000000E+00 -0.00000000000E+00 -0.96590216217E+03  0.96590216217E+03  0.00000000000E+00 0.  1.
          6    1    1    2  501    0 -0.46840559107E+02  0.44659577561E+02 -0.15712295075E+03  0.24249770617E+03  0.17300000000E+03 0.  1.
         -6    1    1    2    0  503  0.46840559107E+02 -0.44659577561E+02 -0.75495820901E+03  0.77722545840E+03  0.17300000000E+03 0.  1.
<mgrwt>
<rscale>  2 0.18470927E+03</rscale>
<asrwt>0</asrwt>
<pdfrwt beam="1">  1       21 0.82801550E-02 0.18470927E+03</pdfrwt>
<pdfrwt beam="2">  1       21 0.14860032E+00 0.18470927E+03</pdfrwt>
<totfact> 0.34789151E+04</totfact>
</mgrwt>
</event>
<event>
 4    1  0.4333905E+000  0.2376654E+03  0.7546771E-02  0.1121358E+00
         21   -1    0    0  501  502  0.00000000000E+00  0.00000000000E+00  0.12763473247E+04  0.12763473247E+04  0.00000000000E+00 0.  1.
         21   -1    0    0  502  503 -0.00000000000E+00 -0.00000000000E+00 -0.57928035670E+02  0.57928035670E+02  0.00000000000E+00 0.  1.
          6    1    1    2  501    0 -0.16233828776E+03  0.14216690346E+02  0.93332716570E+03  0.96311184823E+03  0.17300000000E+03 0.  1.
         -6    1    1    2    0  503  0.16233828776E+03 -0.14216690346E+02  0.28509212330E+03  0.37116351212E+03  0.17300000000E+03 0.  1.
<mgrwt>
<rscale>  2 0.23766538E+03</rscale>
<asrwt>0</asrwt>
<pdfrwt beam="1">  1       21 0.19636111E+00 0.23766538E+03</pdfrwt>
<pdfrwt beam="2">  1       21 0.89120064E-02 0.23766538E+03</pdfrwt>
<totfact> 0.13623162E+04</totfact>
</mgrwt>
</event>
<event>
 4    1  0.4333905E+000  0.1787519E+03  0.7546771E-02  0.1169016E+00
         21   -1    0    0  501  502  0.00000000000E+00  0.00000000000E+00  0.63076052752E+03  0.63076052752E+03  0.00000000000E+00 0.  1.
         21   -1    0    0  502  503 -0.00000000000E+00 -0.00000000000E+00 -0.85209277815E+02  0.85209277815E+02  0.00000000000E+00 0.  1.
          6    1    1    2  501    0  0.44451847822E+01  0.44760143830E+02  0.50073720685E+03  0.53168597919E+03  0.17300000000E+03 0.  1.
         -6    1    1    2    0  503 -0.44451847822E+01 -0.44760143830E+02  0.44814042862E+02  0.18428382615E+03  0.17300000000E+03 0.  1.
<mgrwt>
<rscale>  2 0.17875187E+03</rscale>
<asrwt>0</asrwt>
<pdfrwt beam="1">  1       21 0.97040078E-01 0.17875187E+03</pdfrwt>
<pdfrwt beam="2">  1       21 0.13109120E-01 0.17875187E+03</pdfrwt>
<totfact> 0.44443660E+04</totfact>
</mgrwt>
</event>
<event>
 4    1  0.4333905E+000  0.2272086E+03  0.7546771E-02  0.1128620E+00
         21   -1    0    0  501  502  0.00000000000E+00  0.00000000000E+00  0.21135350110E+03  0.21135350110E+03  0.00000000000E+00 0. -1.
         21   -1    0    0  502  503 -0.00000000000E+00 -0.00000000000E+00 -0.13666411519E+04  0.13666411519E+04  0.00000000000E+00 0. -1.
          6    1    1    2  501    0 -0.94892304206E+02 -0.11265087564E+03  0.13737879702E+03  0.26551215236E+03  0.17300000000E+03 0. -1.
         -6    1    1    2    0  503  0.94892304206E+02  0.11265087564E+03 -0.12926664478E+04  0.13124825006E+04  0.17300000000E+03 0. -1.
<mgrwt>
<rscale>  2 0.22720865E+03</rscale>
<asrwt>0</asrwt>
<pdfrwt beam="1">  1       21 0.32515924E-01 0.22720865E+03</pdfrwt>
<pdfrwt beam="2">  1       21 0.21025248E+00 0.22720865E+03</pdfrwt>
<totfact> 0.10139805E+03</totfact>
</mgrwt>
</event>
<event>
 4    1  0.4333905E+000  0.1788788E+03  0.7546771E-02  0.1168893E+00
         21   -1    0    0  503  502  0.00000000000E+00  0.00000000000E+00  0.81829043525E+03  0.81829043525E+03  0.00000000000E+00 0.  1.
         21   -1    0    0  501  503 -0.00000000000E+00 -0.00000000000E+00 -0.11515868430E+03  0.11515868430E+03  0.00000000000E+00 0.  1.
          6    1    1    2  501    0  0.38633834833E+02  0.24000735662E+02 -0.27730030419E+02  0.18101536701E+03  0.17300000000E+03 0.  1.
         -6    1    1    2    0  502 -0.38633834833E+02 -0.24000735662E+02  0.73086178137E+03  0.75243375255E+03  0.17300000000E+03 0.  1.
<mgrwt>
<rscale>  2 0.17887875E+03</rscale>
<asrwt>0</asrwt>
<pdfrwt beam="1">  1       21 0.12589083E+00 0.17887875E+03</pdfrwt>
<pdfrwt beam="2">  1       21 0.17716721E-01 0.17887875E+03</pdfrwt>
<totfact> 0.13678587E+04</totfact>
</mgrwt>
</event>
<event>
 4    1  0.4333905E+000  0.2784470E+03  0.7546771E-02  0.1096540E+00
         21   -1    0    0  503  502  0.00000000000E+00  0.00000000000E+00  0.21492259914E+03  0.21492259914E+03  0.00000000000E+00 0. -1.
         21   -1    0    0  501  503 -0.00000000000E+00 -0.00000000000E+00 -0.41295592894E+03  0.41295592894E+03  0.00000000000E+00 0. -1.
          6    1    1    2  501    0  0.11396017241E+03  0.18605598118E+03 -0.21064254462E+03  0.34914614509E+03  0.17300000000E+03 0. -1.
         -6    1    1    2    0  502 -0.11396017241E+03 -0.18605598118E+03  0.12609214828E+02  0.27873238299E+03  0.17300000000E+03 0. -1.
<mgrwt>
<rscale>  2 0.27844703E+03</rscale>
<asrwt>0</asrwt>
<pdfrwt beam="1">  1       21 0.33065016E-01 0.27844703E+03</pdfrwt>
<pdfrwt beam="2">  1       21 0.63531680E-01 0.27844703E+03</pdfrwt>
<totfact> 0.19290307E+04</totfact>
</mgrwt>
</event>
<event>
 4    1  0.4333905E+000  0.2573417E+03  0.7546771E-02  0.1108751E+00
         21   -1    0    0  501  502  0.00000000000E+00  0.00000000000E+00  0.61397777844E+03  0.61397777844E+03  0.00000000000E+00 0. -1.
         21   -1    0    0  502  503 -0.00000000000E+00 -0.00000000000E+00 -0.13262338773E+03  0.13262338773E+03  0.00000000000E+00 0.  1.
          6    1    1    2  501    0  0.18755130431E+03 -0.33470548381E+02  0.40197837878E+03  0.47729591069E+03  0.17300000000E+03 0. -1.
         -6    1    1    2    0  503 -0.18755130431E+03  0.33470548381E+02  0.79376011943E+02  0.26930525548E+03  0.17300000000E+03 0.  1.
<mgrwt>
<rscale>  2 0.25734174E+03</rscale>
<asrwt>0</asrwt>
<pdfrwt beam="1">  1       21 0.94458118E-01 0.25734174E+03</pdfrwt>
<pdfrwt beam="2">  1       21 0.20403598E-01 0.25734174E+03</pdfrwt>
<totfact> 0.20145810E+04</totfact>
</mgrwt>
</event>
<event>
 4    1  0.4333905E+000  0.2510039E+03  0.7546771E-02  0.1112672E+00
         21   -1    0    0  503  502  0.00000000000E+00  0.00000000000E+00  0.48574992931E+03  0.48574992931E+03  0.00000000000E+00 0. -1.
         21   -1    0    0  501  503 -0.00000000000E+00 -0.00000000000E+00 -0.20254476410E+03  0.20254476410E+03  0.00000000000E+00 0. -1.
          6    1    1    2  501    0 -0.78841635871E+02  0.16388397078E+03 -0.64781291620E+02  0.25922880853E+03  0.17300000000E+03 0. -1.
         -6    1    1    2    0  502  0.78841635871E+02 -0.16388397078E+03  0.34798645683E+03  0.42906588488E+03  0.17300000000E+03 0. -1.
<mgrwt>
<rscale>  2 0.25100390E+03</rscale>
<asrwt>0</asrwt>
<pdfrwt beam="1">  1       21 0.74730758E-01 0.25100390E+03</pdfrwt>
<pdfrwt beam="2">  1       21 0.31160733E-01 0.25100390E+03</pdfrwt>
<totfact> 0.15332602E+04</totfact>
</mgrwt>
</event>
<event>
 4    1  0.4333905E+000  0.2118873E+03  0.7546771E-02  0.1140080E+00
         21   -1    0    0  503  502  0.00000000000E+00  0.00000000000E+00  0.70669257036E+03  0.70669257036E+03  0.00000000000E+00 0. -1.
         21   -1    0    0  501  503 -0.00000000000E+00 -0.00000000000E+00 -0.63670259099E+02  0.63670259099E+02  0.00000000000E+00 0. -1.
          6    1    1    2  501    0  0.32580890080E+02  0.11792246548E+03  0.30343659600E+03  0.37009456907E+03  0.17300000000E+03 0. -1.
         -6    1    1    2    0  502 -0.32580890080E+02 -0.11792246548E+03  0.33958571526E+03  0.40026826039E+03  0.17300000000E+03 0. -1.
<mgrwt>
<rscale>  2 0.21188729E+03</rscale>
<asrwt>0</asrwt>
<pdfrwt beam="1">  1       21 0.10872193E+00 0.21188729E+03</pdfrwt>
<pdfrwt beam="2">  1       21 0.97954250E-02 0.21188729E+03</pdfrwt>
<totfact> 0.55998758E+04</totfact>
</mgrwt>
</event>
<event>
 4    1  0.4333905E+000  0.1904821E+03  0.7546771E-02  0.1158027E+00
         21   -1    0    0  501  502  0.00000000000E+00  0.00000000000E+00  0.64164864939E+03  0.64164864939E+03  0.00000000000E+00 0.  1.
         21   -1    0    0  502  503 -0.00000000000E+00 -0.00000000000E+00 -0.87260390429E+02  0.87260390429E+02  0.00000000000E+00 0. -1.
          6    1    1    2  501    0 -0.78339517599E+02 -0.14743172119E+02  0.49341477415E+03  0.52890602236E+03  0.17300000000E+03 0. -1.
         -6    1    1    2    0  503  0.78339517599E+02  0.14743172119E+02  0.60973484811E+02  0.20000301746E+03  0.17300000000E+03 0. -1.
<mgrwt>
<rscale>  2 0.19048213E+03</rscale>
<asrwt>0</asrwt>
<pdfrwt beam="1">  1       21 0.98715174E-01 0.19048213E+03</pdfrwt>
<pdfrwt beam="2">  1       21 0.13424676E-01 0.19048213E+03</pdfrwt>
<totfact> 0.40650789E+04</totfact>
</mgrwt>
</event>
<event>
 4    1  0.4333905E+000  0.1856563E+03  0.7546771E-02  0.1162438E+00
         21   -1    0    0  501  502  0.00000000000E+00  0.00000000000E+00  0.35697517020E+02  0.35697517020E+02  0.00000000000E+00 0.  1.
         21   -1    0    0  502  503 -0.00000000000E+00 -0.00000000000E+00 -0.19877174882E+04  0.19877174882E+04  0.00000000000E+00 0.  1.
          6    1    1    2  501    0  0.43272240695E+02 -0.51640753575E+02 -0.25051302371E+03  0.31180928352E+03  0.17300000000E+03 0.  1.
         -6    1    1    2    0  503 -0.43272240695E+02  0.51640753575E+02 -0.17015069474E+04  0.17116057217E+04  0.17300000000E+03 0.  1.
<mgrwt>
<rscale>  2 0.18565628E+03</rscale>
<asrwt>0</asrwt>
<pdfrwt beam="1">  1       21 0.54919245E-02 0.18565628E+03</pdfrwt>
<pdfrwt beam="2">  1       21 0.30580276E+00 0.18565628E+03</pdfrwt>
<totfact> 0.73074982E+03</totfact>
</mgrwt>
</event>
<event>
 4    1  0.4333905E+000  0.1903577E+03  0.7546771E-02  0.1158139E+00
         21   -1    0    0  501  502  0.00000000000E+00  0.00000000000E+00  0.41302360813E+03  0.41302360813E+03  0.00000000000E+00 0.  1.
         21   -1    0    0  502  503 -0.00000000000E+00 -0.00000000000E+00 -0.90463630712E+02  0.90463630712E+02  0.00000000000E+00 0.  1.
          6    1    1    2  501    0 -0.14389585551E+02 -0.78102422965E+02  0.11754740741E+03  0.22372626496E+03  0.17300000000E+03 0.  1.
         -6    1    1    2    0  503  0.14389585551E+02  0.78102422965E+02  0.20501257001E+03  0.27976097388E+03  0.17300000000E+03 0.  1.
<mgrwt>
<rscale>  2 0.19035769E+03</rscale>
<asrwt>0</asrwt>
<pdfrwt beam="1">  1       21 0.63542093E-01 0.19035769E+03</pdfrwt>
<pdfrwt beam="2">  1       21 0.13917482E-01 0.19035769E+03</pdfrwt>
<totfact> 0.10299235E+05</totfact>
</mgrwt>
</event>
<event>
 4    1  0.4333905E+000  0.1758347E+03  0.7546771E-02  0.1171896E+00
         21   -1    0    0  501  502  0.00000000000E+00  0.00000000000E+00  0.13495794874E+03  0.13495794874E+03  0.00000000000E+00 0.  1.
         21   -1    0    0  502  503 -0.00000000000E+00 -0.00000000000E+00 -0.32212062512E+03  0.32212062512E+03  0.00000000000E+00 0.  1.
          6    1    1    2  501    0  0.12833214394E+01 -0.31419460189E+02  0.29235852435E+02  0.17824860297E+03  0.17300000000E+03 0.  1.
         -6    1    1    2    0  503 -0.12833214394E+01  0.31419460189E+02 -0.21639852881E+03  0.27882997089E+03  0.17300000000E+03 0.  1.
<mgrwt>
<rscale>  2 0.17583466E+03</rscale>
<asrwt>0</asrwt>
<pdfrwt beam="1">  1       21 0.20762761E-01 0.17583466E+03</pdfrwt>
<pdfrwt beam="2">  1       21 0.49557019E-01 0.17583466E+03</pdfrwt>
<totfact> 0.84112895E+04</totfact>
</mgrwt>
</event>
<event>
 4    1  0.4333905E+000  0.1836276E+03  0.7546771E-02  0.1164338E+00
         21   -1    0    0  501  502  0.00000000000E+00  0.00000000000E+00  0.81438525719E+03  0.81438525719E+03  0.00000000000E+00 0.  1.
         21   -1    0    0  502  503 -0.00000000000E+00 -0.00000000000E+00 -0.41779882520E+02  0.41779882520E+02  0.00000000000E+00 0. -1.
          6    1    1    2  501    0  0.61455943220E+02  0.36409794378E+01  0.42688805773E+03  0.46470690066E+03  0.17300000000E+03 0.  1.
         -6    1    1    2    0  503 -0.61455943220E+02 -0.36409794378E+01  0.34571731694E+03  0.39145823905E+03  0.17300000000E+03 0. -1.
<mgrwt>
<rscale>  2 0.18362758E+03</rscale>
<asrwt>0</asrwt>
<pdfrwt beam="1">  1       21 0.12529003E+00 0.18362758E+03</pdfrwt>
<pdfrwt beam="2">  1       21 0.64276749E-02 0.18362758E+03</pdfrwt>
<totfact> 0.83443393E+04</totfact>
</mgrwt>
</event>
<event>
 4    1  0.4333905E+000  0.1808842E+03  0.7546771E-02  0.1166950E+00
         21   -1    0    0  503  502  0.00000000000E+00  0.00000000000E+00  0.21543778380E+03  0.21543778380E+03  0.00000000000E+00 0. -1.
         21   -1    0    0  501  503 -0.00000000000E+00 -0.00000000000E+00 -0.18417733068E+03  0.18417733068E+03  0.00000000000E+00 0.  1.
          6    1    1    2  501    0  0.49965051957E+02  0.17134542471E+02 -0.68050762459E+02  0.19326149444E+03  0.17300000000E+03 0.  1.
         -6    1    1    2    0  502 -0.49965051957E+02 -0.17134542471E+02  0.99311215578E+02  0.20635362004E+03  0.17300000000E+03 0. -1.
<mgrwt>
<rscale>  2 0.18088421E+03</rscale>
<asrwt>0</asrwt>
<pdfrwt beam="1">  1       21 0.33144274E-01 0.18088421E+03</pdfrwt>
<pdfrwt beam="2">  1       21 0.28334974E-01 0.18088421E+03</pdfrwt>
<totfact> 0.10481124E+05</totfact>
</mgrwt>
</event>
<event>
 4    1  0.4333905E+000  0.2234870E+03  0.7546771E-02  0.1131310E+00
         21   -1    0    0  503  502  0.00000000000E+00  0.00000000000E+00  0.11917179919E+04  0.11917179919E+04  0.00000000000E+00 0. -1.
         21   -1    0    0  501  503 -0.00000000000E+00 -0.00000000000E+00 -0.42170195529E+02  0.42170195529E+02  0.00000000000E+00 0.  1.
          6    1    1    2  501    0 -0.14090209785E+03 -0.12808102643E+02  0.52643392482E+03  0.57190831946E+03  0.17300000000E+03 0.  1.
         -6    1    1    2    0  502  0.14090209785E+03  0.12808102643E+02  0.62311387158E+03  0.66197986799E+03  0.17300000000E+03 0. -1.
<mgrwt>
<rscale>  2 0.22348702E+03</rscale>
<asrwt>0</asrwt>
<pdfrwt beam="1">  1       21 0.18334120E+00 0.22348702E+03</pdfrwt>
<pdfrwt beam="2">  1       21 0.64877233E-02 0.22348702E+03</pdfrwt>
<totfact> 0.29186276E+04</totfact>
</mgrwt>
</event>
<event>
 4    1  0.4333905E+000  0.1929760E+03  0.7546771E-02  0.1155804E+00
         21   -1    0    0  501  502  0.00000000000E+00  0.00000000000E+00  0.27395793616E+03  0.27395793616E+03  0.00000000000E+00 0.  1.
         21   -1    0    0  502  503 -0.00000000000E+00 -0.00000000000E+00 -0.13970103740E+03  0.13970103740E+03  0.00000000000E+00 0.  1.
          6    1    1    2  501    0 -0.66730176538E+02 -0.53458532115E+02  0.10109964562E+03  0.21785515707E+03  0.17300000000E+03 0.  1.
         -6    1    1    2    0  503  0.66730176538E+02  0.53458532115E+02  0.33157253144E+02  0.19580381649E+03  0.17300000000E+03 0.  1.
<mgrwt>
<rscale>  2 0.19297599E+03</rscale>
<asrwt>0</asrwt>
<pdfrwt beam="1">  1       21 0.42147375E-01 0.19297599E+03</pdfrwt>
<pdfrwt beam="2">  1       21 0.21492467E-01 0.19297599E+03</pdfrwt>
<totfact> 0.10926701E+05</totfact>
</mgrwt>
</event>
<event>
 4    1  0.4333905E+000  0.2570243E+03  0.7546771E-02  0.1108944E+00
         21   -1    0    0  501  502  0.00000000000E+00  0.00000000000E+00  0.49659887160E+03  0.49659887160E+03  0.00000000000E+00 0. -1.
         21   -1    0    0  502  503 -0.00000000000E+00 -0.00000000000E+00 -0.19801667611E+03  0.19801667611E+03  0.00000000000E+00 0.  1.
          6    1    1    2  501    0  0.27274430441E+02  0.18811856390E+03  0.34825894938E+03  0.43283459249E+03  0.17300000000E+03 0. -1.
         -6    1    1    2    0  503 -0.27274430441E+02 -0.18811856390E+03 -0.49676753888E+02  0.26178095522E+03  0.17300000000E+03 0.  1.
<mgrwt>
<rscale>  2 0.25702430E+03</rscale>
<asrwt>0</asrwt>
<pdfrwt beam="1">  1       21 0.76399826E-01 0.25702430E+03</pdfrwt>
<pdfrwt beam="2">  1       21 0.30464104E-01 0.25702430E+03</pdfrwt>
<totfact> 0.15206189E+04</totfact>
</mgrwt>
</event>
<event>
 4    1  0.4333905E+000  0.1867364E+03  0.7546771E-02  0.1161438E+00
         21   -1    0    0  501  502  0.00000000000E+00  0.00000000000E+00  0.14154080720E+03  0.14154080720E+03  0.00000000000E+00 0. -1.
         21   -1    0    0  502  503 -0.00000000000E+00 -0.00000000000E+00 -0.26280492049E+03  0.26280492049E+03  0.00000000000E+00 0. -1.
          6    1    1    2  501    0 -0.63152505201E+02  0.30874833709E+02 -0.10064116728E+02  0.18700743492E+03  0.17300000000E+03 0. -1.
         -6    1    1    2    0  503  0.63152505201E+02 -0.30874833709E+02 -0.11119999656E+03  0.21733829277E+03  0.17300000000E+03 0. -1.
<mgrwt>
<rscale>  2 0.18673643E+03</rscale>
<asrwt>0</asrwt>
<pdfrwt beam="1">  1       21 0.21775509E-01 0.18673643E+03</pdfrwt>
<pdfrwt beam="2">  1       21 0.40431525E-01 0.18673643E+03</pdfrwt>
<totfact> 0.11624124E+05</totfact>
</mgrwt>
</event>
<event>
 4    1  0.4333905E+000  0.2393991E+03  0.7546771E-02  0.1120194E+00
         21   -1    0    0  501  502  0.00000000000E+00  0.00000000000E+00  0.14684068693E+03  0.14684068693E+03  0.00000000000E+00 0.  1.
         21   -1    0    0  502  503 -0.00000000000E+00 -0.00000000000E+00 -0.44492929262E+03  0.44492929262E+03  0.00000000000E+00 0. -1.
          6    1    1    2  501    0  0.14135744631E+03 -0.86028976716E+02 -0.25272321457E+03  0.34811052216E+03  0.17300000000E+03 0. -1.
         -6    1    1    2    0  503 -0.14135744631E+03  0.86028976716E+02 -0.45365391129E+02  0.24365945738E+03  0.17300000000E+03 0.  1.
<mgrwt>
<rscale>  2 0.23939907E+03</rscale>
<asrwt>0</asrwt>
<pdfrwt beam="1">  1       21 0.22590875E-01 0.23939907E+03</pdfrwt>
<pdfrwt beam="2">  1       21 0.68450660E-01 0.23939907E+03</pdfrwt>
<totfact> 0.34913813E+04</totfact>
</mgrwt>
</event>
<event>
 4    1  0.4333905E+000  0.1896855E+03  0.7546771E-02  0.1158745E+00
         21   -1    0    0  501  502  0.00000000000E+00  0.00000000000E+00  0.36618197869E+03  0.36618197869E+03  0.00000000000E+00 0. -1.
         21   -1    0    0  502  503 -0.00000000000E+00 -0.00000000000E+00 -0.14374351027E+03  0.14374351027E+03  0.00000000000E+00 0. -1.
          6    1    1    2  501    0  0.77106173280E+02 -0.10305782058E+02  0.25464121588E+03  0.31752593583E+03  0.17300000000E+03 0. -1.
         -6    1    1    2    0  503 -0.77106173280E+02  0.10305782058E+02 -0.32202747460E+02  0.19239955313E+03  0.17300000000E+03 0. -1.
<mgrwt>
<rscale>  2 0.18968545E+03</rscale>
<asrwt>0</asrwt>
<pdfrwt beam="1">  1       21 0.56335689E-01 0.18968545E+03</pdfrwt>
<pdfrwt beam="2">  1       21 0.22114386E-01 0.18968545E+03</pdfrwt>
<totfact> 0.56745037E+04</totfact>
</mgrwt>
</event>
<event>
 4    1  0.4333905E+000  0.1791572E+03  0.7546771E-02  0.1168621E+00
         21   -1    0    0  503  502  0.00000000000E+00  0.00000000000E+00  0.72928166435E+03  0.72928166435E+03  0.00000000000E+00 0.  1.
         21   -1    0    0  501  503 -0.00000000000E+00 -0.00000000000E+00 -0.71477957126E+02  0.71477957126E+02  0.00000000000E+00 0.  1.
          6    1    1    2  501    0 -0.36364873950E+02  0.29084200028E+02  0.80713244399E+02  0.19649916684E+03  0.17300000000E+03 0.  1.
         -6    1    1    2    0  502  0.36364873950E+02 -0.29084200028E+02  0.57709046282E+03  0.60426045463E+03  0.17300000000E+03 0.  1.
<mgrwt>
<rscale>  2 0.17915718E+03</rscale>
<asrwt>0</asrwt>
<pdfrwt beam="1">  1       21 0.11219717E+00 0.17915718E+03</pdfrwt>
<pdfrwt beam="2">  1       21 0.10996609E-01 0.17915718E+03</pdfrwt>
<totfact> 0.42995050E+04</totfact>
</mgrwt>
</event>
<event>
 4    1  0.4333905E+000  0.2278084E+03  0.7546771E-02  0.1128192E+00
         21   -1    0    0  503  502  0.00000000000E+00  0.00000000000E+00  0.50475324096E+03  0.50475324096E+03  0.00000000000E+00 0. -1.
         21   -1    0    0  501  503 -0.00000000000E+00 -0.00000000000E+00 -0.13896152995E+03  0.13896152995E+03  0.00000000000E+00 0. -1.
          6    1    1    2  501    0 -0.94507517987E+02  0.11417529681E+03  0.18744694670E+02  0.22857828623E+03  0.17300000000E+03 0. -1.
         -6    1    1    2    0  502  0.94507517987E+02 -0.11417529681E+03  0.34704701634E+03  0.41513648468E+03  0.17300000000E+03 0. -1.
<mgrwt>
<rscale>  2 0.22780840E+03</rscale>
<asrwt>0</asrwt>
<pdfrwt beam="1">  1       21 0.77654344E-01 0.22780840E+03</pdfrwt>
<pdfrwt beam="2">  1       21 0.21378697E-01 0.22780840E+03</pdfrwt>
<totfact> 0.29403774E+04</totfact>
</mgrwt>
</event>
<event>
 4    1  0.4333905E+000  0.1867503E+03  0.7546771E-02  0.1161425E+00
         21   -1    0    0  501  502  0.00000000000E+00  0.00000000000E+00  0.61913608433E+02  0.61913608433E+02  0.00000000000E+00 0. -1.
         21   -1    0    0  502  503 -0.00000000000E+00 -0.00000000000E+00 -0.62112379306E+03  0.62112379306E+03  0.00000000000E+00 0. -1.
          6    1    1    2  501    0  0.42119734148E+02 -0.56325976550E+02 -0.17539884983E+03  0.25620391129E+03  0.17300000000E+03 0. -1.
         -6    1    1    2    0  503 -0.42119734148E+02  0.56325976550E+02 -0.38381133479E+03  0.42683349020E+03  0.17300000000E+03 0. -1.
<mgrwt>
<rscale>  2 0.18675034E+03</rscale>
<asrwt>0</asrwt>
<pdfrwt beam="1">  1       21 0.95251705E-02 0.18675034E+03</pdfrwt>
<pdfrwt beam="2">  1       21 0.95557507E-01 0.18675034E+03</pdfrwt>
<totfact> 0.80993916E+04</totfact>
</mgrwt>
</event>
<event>
 4    1  0.4333905E+000  0.1748807E+03  0.7546771E-02  0.1172852E+00
         21   -1    0    0  501  502  0.00000000000E+00  0.00000000000E+00  0.55883677732E+03  0.55883677732E+03  0.00000000000E+00 0.  1.
         21   -1    0    0  502  503 -0.00000000000E+00 -0.00000000000E+00 -0.12967882738E+03  0.12967882738E+03  0.00000000000E+00 0.  1.
          6    1    1    2  501    0 -0.11225766204E+02 -0.22983347754E+02  0.47630170810E+03  0.50739192863E+03  0.17300000000E+03 0.  1.
         -6    1    1    2    0  503  0.11225766204E+02  0.22983347754E+02 -0.47143758161E+02  0.18112367607E+03  0.17300000000E+03 0.  1.
<mgrwt>
<rscale>  2 0.17488068E+03</rscale>
<asrwt>0</asrwt>
<pdfrwt beam="1">  1       21 0.85974887E-01 0.17488068E+03</pdfrwt>
<pdfrwt beam="2">  1       21 0.19950589E-01 0.17488068E+03</pdfrwt>
<totfact> 0.27348560E+04</totfact>
</mgrwt>
</event>
<event>
 4    1  0.4333905E+000  0.2067014E+03  0.7546771E-02  0.1144205E+00
         21   -1    0    0  503  502  0.00000000000E+00  0.00000000000E+00  0.51837525427E+03  0.51837525427E+03  0.00000000000E+00 0. -1.
         21   -1    0    0  501  503 -0.00000000000E+00 -0.00000000000E+00 -0.11326766081E+03  0.11326766081E+03  0.00000000000E+00 0. -1.
          6    1    1    2  501    0 -0.77046867871E+02  0.82826643673E+02  0.37742711379E+02  0.21011897823E+03  0.17300000000E+03 0. -1.
         -6    1    1    2    0  502  0.77046867871E+02 -0.82826643673E+02  0.36736488208E+03  0.42152393685E+03  0.17300000000E+03 0. -1.
<mgrwt>
<rscale>  2 0.20670141E+03</rscale>
<asrwt>0</asrwt>
<pdfrwt beam="1">  1       21 0.79750038E-01 0.20670141E+03</pdfrwt>
<pdfrwt beam="2">  1       21 0.17425794E-01 0.20670141E+03</pdfrwt>
<totfact> 0.40985883E+04</totfact>
</mgrwt>
</event>
<event>
 4    1  0.4333905E+000  0.1932381E+03  0.7546771E-02  0.1155573E+00
         21   -1    0    0  501  502  0.00000000000E+00  0.00000000000E+00  0.29177589418E+02  0.29177589418E+02  0.00000000000E+00 0. -1.
         21   -1    0    0  502  503 -0.00000000000E+00 -0.00000000000E+00 -0.24539137423E+04  0.24539137423E+04  0.00000000000E+00 0. -1.
          6    1    1    2  501    0  0.59078904405E+02 -0.62623165939E+02 -0.35356950460E+03  0.40292973636E+03  0.17300000000E+03 0. -1.
         -6    1    1    2    0  503 -0.59078904405E+02  0.62623165939E+02 -0.20711666483E+04  0.20801615954E+04  0.17300000000E+03 0. -1.
<mgrwt>
<rscale>  2 0.19323814E+03</rscale>
<asrwt>0</asrwt>
<pdfrwt beam="1">  1       21 0.44888597E-02 0.19323814E+03</pdfrwt>
<pdfrwt beam="2">  1       21 0.37752521E+00 0.19323814E+03</pdfrwt>
<totfact> 0.38607939E+03</totfact>
</mgrwt>
</event>
<event>
 4    1  0.4333905E+000  0.1908866E+03  0.7546771E-02  0.1157664E+00
         21   -1    0    0  503  502  0.00000000000E+00  0.00000000000E+00  0.98615200987E+02  0.98615200987E+02  0.00000000000E+00 0. -1.
         21   -1    0    0  501  503 -0.00000000000E+00 -0.00000000000E+00 -0.39159284495E+03  0.39159284495E+03  0.00000000000E+00 0.  1.
          6    1    1    2  501    0  0.47284698029E+02 -0.65367137492E+02 -0.20471520597E+03  0.27990359213E+03  0.17300000000E+03 0.  1.
         -6    1    1    2    0  502 -0.47284698029E+02  0.65367137492E+02 -0.88262437995E+02  0.21030445381E+03  0.17300000000E+03 0. -1.
<mgrwt>
<rscale>  2 0.19088663E+03</rscale>
<asrwt>0</asrwt>
<pdfrwt beam="1">  1       21 0.15171570E-01 0.19088663E+03</pdfrwt>
<pdfrwt beam="2">  1       21 0.60245053E-01 0.19088663E+03</pdfrwt>
<totfact> 0.98766657E+04</totfact>
</mgrwt>
</event>
<event>
 4    1  0.4333905E+000  0.1875778E+03  0.7546771E-02  0.1160664E+00
         21   -1    0    0  503  502  0.00000000000E+00  0.00000000000E+00  0.12354458657E+03  0.12354458657E+03  0.00000000000E+00 0. -1.
         21   -1    0    0  501  503 -0.00000000000E+00 -0.00000000000E+00 -0.28814607501E+03  0.28814607501E+03  0.00000000000E+00 0. -1.
          6    1    1    2  501    0 -0.25186382624E+02  0.67985742453E+02 -0.60116419834E+02  0.19697563042E+03  0.17300000000E+03 0. -1.
         -6    1    1    2    0  502  0.25186382624E+02 -0.67985742453E+02 -0.10448506861E+03  0.21471503117E+03  0.17300000000E+03 0. -1.
<mgrwt>
<rscale>  2 0.18757776E+03</rscale>
<asrwt>0</asrwt>
<pdfrwt beam="1">  1       21 0.19006860E-01 0.18757776E+03</pdfrwt>
<pdfrwt beam="2">  1       21 0.44330165E-01 0.18757776E+03</pdfrwt>
<totfact> 0.12425067E+05</totfact>
</mgrwt>
</event>
<event>
 4    1  0.4333905E+000  0.2161236E+03  0.7546771E-02  0.1136807E+00
         21   -1    0    0  503  502  0.00000000000E+00  0.00000000000E+00  0.25846067382E+03  0.25846067382E+03  0.00000000000E+00 0. -1.
         21   -1    0    0  501  503 -0.00000000000E+00 -0.00000000000E+00 -0.19567277249E+03  0.19567277249E+03  0.00000000000E+00 0. -1.
          6    1    1    2  501    0  0.10805767985E+03 -0.71441791909E+02 -0.31372543165E+02  0.21838870912E+03  0.17300000000E+03 0. -1.
         -6    1    1    2    0  502 -0.10805767985E+03  0.71441791909E+02  0.94160444496E+02  0.23574473719E+03  0.17300000000E+03 0. -1.
<mgrwt>
<rscale>  2 0.21612356E+03</rscale>
<asrwt>0</asrwt>
<pdfrwt beam="1">  1       21 0.39763181E-01 0.21612356E+03</pdfrwt>
<pdfrwt beam="2">  1       21 0.30103503E-01 0.21612356E+03</pdfrwt>
<totfact> 0.63852985E+04</totfact>
</mgrwt>
</event>
<event>
 4    1  0.4333905E+000  0.2167434E+03  0.7546771E-02  0.1136335E+00
         21   -1    0    0  501  502  0.00000000000E+00  0.00000000000E+00  0.31844543995E+03  0.31844543995E+03  0.00000000000E+00 0.  1.
         21   -1    0    0  502  503 -0.00000000000E+00 -0.00000000000E+00 -0.23378823731E+03  0.23378823731E+03  0.00000000000E+00 0.  1.
          6    1    1    2  501    0 -0.12338752411E+03 -0.42710687534E+02  0.21005529410E+03  0.30182927379E+03  0.17300000000E+03 0.  1.
         -6    1    1    2    0  503  0.12338752411E+03  0.42710687534E+02 -0.12539809146E+03  0.25040440347E+03  0.17300000000E+03 0.  1.
<mgrwt>
<rscale>  2 0.21674336E+03</rscale>
<asrwt>0</asrwt>
<pdfrwt beam="1">  1       21 0.48991606E-01 0.21674336E+03</pdfrwt>
<pdfrwt beam="2">  1       21 0.35967421E-01 0.21674336E+03</pdfrwt>
<totfact> 0.29250647E+04</totfact>
</mgrwt>
</event>
<event>
 4    1  0.4333905E+000  0.2025681E+03  0.7546771E-02  0.1147590E+00
         21   -1    0    0  503  502  0.00000000000E+00  0.00000000000E+00  0.98117812073E+02  0.98117812073E+02  0.00000000000E+00 0.  1.
         21   -1    0    0  501  503 -0.00000000000E+00 -0.00000000000E+00 -0.49360980477E+03  0.49360980477E+03  0.00000000000E+00 0. -1.
          6    1    1    2  501    0  0.39064968665E+02 -0.97871098829E+02 -0.31338007403E+03  0.37314996257E+03  0.17300000000E+03 0. -1.
         -6    1    1    2    0  502 -0.39064968665E+02  0.97871098829E+02 -0.82111918665E+02  0.21857765428E+03  0.17300000000E+03 0.  1.
<mgrwt>
<rscale>  2 0.20256807E+03</rscale>
<asrwt>0</asrwt>
<pdfrwt beam="1">  1       21 0.15095048E-01 0.20256807E+03</pdfrwt>
<pdfrwt beam="2">  1       21 0.75939969E-01 0.20256807E+03</pdfrwt>
<totfact> 0.59680717E+04</totfact>
</mgrwt>
</event>
<event>
 4    1  0.4333905E+000  0.1841253E+03  0.7546771E-02  0.1163869E+00
         21   -1    0    0  503  502  0.00000000000E+00  0.00000000000E+00  0.51639752134E+02  0.51639752134E+02  0.00000000000E+00 0. -1.
         21   -1    0    0  501  503 -0.00000000000E+00 -0.00000000000E+00 -0.73436115604E+03  0.73436115604E+03  0.00000000000E+00 0. -1.
          6    1    1    2  501    0 -0.68166475643E+00 -0.63029106284E+02 -0.46931777476E+03  0.50414413278E+03  0.17300000000E+03 0. -1.
         -6    1    1    2    0  502  0.68166475643E+00  0.63029106284E+02 -0.21340362915E+03  0.28185677540E+03  0.17300000000E+03 0. -1.
<mgrwt>
<rscale>  2 0.18412532E+03</rscale>
<asrwt>0</asrwt>
<pdfrwt beam="1">  1       21 0.79445769E-02 0.18412532E+03</pdfrwt>
<pdfrwt beam="2">  1       21 0.11297864E+00 0.18412532E+03</pdfrwt>
<totfact> 0.74641940E+04</totfact>
</mgrwt>
</event>
<event>
 4    1  0.4333905E+000  0.2175367E+03  0.7546771E-02  0.1135733E+00
         21   -1    0    0  501  502  0.00000000000E+00  0.00000000000E+00  0.22338062740E+03  0.22338062740E+03  0.00000000000E+00 0. -1.
         21   -1    0    0  502  503 -0.00000000000E+00 -0.00000000000E+00 -0.22331275944E+03  0.22331275944E+03  0.00000000000E+00 0.  1.
          6    1    1    2  501    0 -0.28500136287E+02 -0.12876709866E+03 -0.50577536082E+02  0.22333900381E+03  0.17300000000E+03 0.  1.
         -6    1    1    2    0  503  0.28500136287E+02  0.12876709866E+03  0.50645404044E+02  0.22335438302E+03  0.17300000000E+03 0.  1.
<mgrwt>
<rscale>  2 0.21753672E+03</rscale>
<asrwt>0</asrwt>
<pdfrwt beam="1">  1       21 0.34366250E-01 0.21753672E+03</pdfrwt>
<pdfrwt beam="2">  1       21 0.34355809E-01 0.21753672E+03</pdfrwt>
<totfact> 0.65891200E+04</totfact>
</mgrwt>
</event>
<event>
 4    1  0.4333905E+000  0.1930415E+03  0.7546771E-02  0.1155746E+00
         21   -1    0    0  503  502  0.00000000000E+00  0.00000000000E+00  0.15474445765E+03  0.15474445765E+03  0.00000000000E+00 0.  1.
         21   -1    0    0  501  503 -0.00000000000E+00 -0.00000000000E+00 -0.33688028315E+03  0.33688028315E+03  0.00000000000E+00 0. -1.
          6    1    1    2  501    0  0.84529540468E+02 -0.13812748081E+02 -0.22233188407E+03  0.29444269713E+03  0.17300000000E+03 0. -1.
         -6    1    1    2    0  502 -0.84529540468E+02  0.13812748081E+02  0.40196058565E+02  0.19718204367E+03  0.17300000000E+03 0.  1.
<mgrwt>
<rscale>  2 0.19304154E+03</rscale>
<asrwt>0</asrwt>
<pdfrwt beam="1">  1       21 0.23806840E-01 0.19304154E+03</pdfrwt>
<pdfrwt beam="2">  1       21 0.51827736E-01 0.19304154E+03</pdfrwt>
<totfact> 0.58761690E+04</totfact>
</mgrwt>
</event>
<event>
 4    1  0.4333905E+000  0.1794559E+03  0.7546771E-02  0.1168331E+00
         21   -1    0    0  501  502  0.00000000000E+00  0.00000000000E+00  0.66412952020E+03  0.66412952020E+03  0.00000000000E+00 0.  1.
         21   -1    0    0  502  503 -0.00000000000E+00 -0.00000000000E+00 -0.48524617063E+02  0.48524617063E+02  0.00000000000E+00 0.  1.
          6    1    1    2  501    0  0.32262837812E+02  0.35136121668E+02  0.31715324308E+03  0.36440446943E+03  0.17300000000E+03 0.  1.
         -6    1    1    2    0  503 -0.32262837812E+02 -0.35136121668E+02  0.29845166006E+03  0.34824966783E+03  0.17300000000E+03 0.  1.
<mgrwt>
<rscale>  2 0.17945595E+03</rscale>
<asrwt>0</asrwt>
<pdfrwt beam="1">  1       21 0.10217377E+00 0.17945595E+03</pdfrwt>
<pdfrwt beam="2">  1       21 0.74653262E-02 0.17945595E+03</pdfrwt>
<totfact> 0.10611395E+05</totfact>
</mgrwt>
</event>
<event>
 4    1  0.4333905E+000  0.1744625E+03  0.7546771E-02  0.1173273E+00
         21   -1    0    0  501  502  0.00000000000E+00  0.00000000000E+00  0.62197607369E+03  0.62197607369E+03  0.00000000000E+00 0. -1.
         21   -1    0    0  502  503 -0.00000000000E+00 -0.00000000000E+00 -0.91631148980E+02  0.91631148980E+02  0.00000000000E+00 0. -1.
          6    1    1    2  501    0  0.92029208935E+01 -0.20578172013E+02  0.50872678840E+03  0.53781046862E+03  0.17300000000E+03 0. -1.
         -6    1    1    2    0  503 -0.92029208935E+01  0.20578172013E+02  0.21618136303E+02  0.17579675405E+03  0.17300000000E+03 0. -1.
<mgrwt>
<rscale>  2 0.17446247E+03</rscale>
<asrwt>0</asrwt>
<pdfrwt beam="1">  1       21 0.95688624E-01 0.17446247E+03</pdfrwt>
<pdfrwt beam="2">  1       21 0.14097100E-01 0.17446247E+03</pdfrwt>
<totfact> 0.40381399E+04</totfact>
</mgrwt>
</event>
<event>
 4    1  0.4333905E+000  0.1769557E+03  0.7546771E-02  0.1170782E+00
         21   -1    0    0  501  502  0.00000000000E+00  0.00000000000E+00  0.58801517060E+03  0.58801517060E+03  0.00000000000E+00 0.  1.
         21   -1    0    0  502  503 -0.00000000000E+00 -0.00000000000E+00 -0.72287433308E+02  0.72287433308E+02  0.00000000000E+00 0.  1.
          6    1    1    2  501    0 -0.24522921320E+02 -0.27980867807E+02  0.42728080009E+03  0.46247398279E+03  0.17300000000E+03 0.  1.
         -6    1    1    2    0  503  0.24522921320E+02  0.27980867807E+02  0.88446937206E+02  0.19782862112E+03  0.17300000000E+03 0.  1.
<mgrwt>
<rscale>  2 0.17695565E+03</rscale>
<asrwt>0</asrwt>
<pdfrwt beam="1">  1       21 0.90463869E-01 0.17695565E+03</pdfrwt>
<pdfrwt beam="2">  1       21 0.11121144E-01 0.17695565E+03</pdfrwt>
<totfact> 0.70269960E+04</totfact>
</mgrwt>
</event>
<event>
 4    1  0.4333905E+000  0.2776109E+03  0.7546771E-02  0.1097001E+00
         21   -1    0    0  501  502  0.00000000000E+00  0.00000000000E+00  0.27751943600E+03  0.27751943600E+03  0.00000000000E+00 0.  1.
         21   -1    0    0  502  503 -0.00000000000E+00 -0.00000000000E+00 -0.29549241362E+03  0.29549241362E+03  0.00000000000E+00 0. -1.
          6    1    1    2  501    0  0.14342152643E+03  0.16300027713E+03 -0.79285317508E+02  0.28871090412E+03  0.17300000000E+03 0. -1.
         -6    1    1    2    0  503 -0.14342152643E+03 -0.16300027713E+03  0.61312339885E+02  0.28430094550E+03  0.17300000000E+03 0.  1.
<mgrwt>
<rscale>  2 0.27761092E+03</rscale>
<asrwt>0</asrwt>
<pdfrwt beam="1">  1       21 0.42695298E-01 0.27761092E+03</pdfrwt>
<pdfrwt beam="2">  1       21 0.45460371E-01 0.27761092E+03</pdfrwt>
<totfact> 0.23473050E+04</totfact>
</mgrwt>
</event>
<event>
 4    1  0.4333905E+000  0.2298173E+03  0.7546771E-02  0.1126768E+00
         21   -1    0    0  501  502  0.00000000000E+00  0.00000000000E+00  0.27184885042E+03  0.27184885042E+03  0.00000000000E+00 0.  1.
         21   -1    0    0  502  503 -0.00000000000E+00 -0.00000000000E+00 -0.25103293560E+03  0.25103293560E+03  0.00000000000E+00 0.  1.
          6    1    1    2  501    0 -0.13783223050E+03 -0.62363915458E+02  0.13471210599E+03  0.26638943901E+03  0.17300000000E+03 0.  1.
         -6    1    1    2    0  503  0.13783223050E+03  0.62363915458E+02 -0.11389619117E+03  0.25649234702E+03  0.17300000000E+03 0.  1.
<mgrwt>
<rscale>  2 0.22981728E+03</rscale>
<asrwt>0</asrwt>
<pdfrwt beam="1">  1       21 0.41822900E-01 0.22981728E+03</pdfrwt>
<pdfrwt beam="2">  1       21 0.38620452E-01 0.22981728E+03</pdfrwt>
<totfact> 0.34917194E+04</totfact>
</mgrwt>
</event>
<event>
 4    1  0.4333905E+000  0.1771514E+03  0.7546771E-02  0.1170589E+00
         21   -1    0    0  501  502  0.00000000000E+00  0.00000000000E+00  0.86600489785E+03  0.86600489785E+03  0.00000000000E+00 0. -1.
         21   -1    0    0  502  503 -0.00000000000E+00 -0.00000000000E+00 -0.52030949401E+02  0.52030949401E+02  0.00000000000E+00 0. -1.
          6    1    1    2  501    0 -0.22409483863E+02  0.30845264988E+02  0.65987318770E+03  0.68323878636E+03  0.17300000000E+03 0. -1.
         -6    1    1    2    0  503  0.22409483863E+02 -0.30845264988E+02  0.15410076074E+03  0.23479706088E+03  0.17300000000E+03 0. -1.
<mgrwt>
<rscale>  2 0.17715139E+03</rscale>
<asrwt>0</asrwt>
<pdfrwt beam="1">  1       21 0.13323151E+00 0.17715139E+03</pdfrwt>
<pdfrwt beam="2">  1       21 0.80047621E-02 0.17715139E+03</pdfrwt>
<totfact> 0.49107691E+04</totfact>
</mgrwt>
</event>
<event>
 4    1  0.4333905E+000  0.1742193E+03  0.7546771E-02  0.1173518E+00
         21   -1    0    0  501  502  0.00000000000E+00  0.00000000000E+00  0.51217449492E+02  0.51217449492E+02  0.00000000000E+00 0. -1.
         21   -1    0    0  502  503 -0.00000000000E+00 -0.00000000000E+00 -0.70781854297E+03  0.70781854297E+03  0.00000000000E+00 0. -1.
          6    1    1    2  501    0  0.50554715940E+01  0.19945150264E+02 -0.17519206631E+03  0.24707210873E+03  0.17300000000E+03 0. -1.
         -6    1    1    2    0  503 -0.50554715940E+01 -0.19945150264E+02 -0.48140902717E+03  0.51196388374E+03  0.17300000000E+03 0. -1.
<mgrwt>
<rscale>  2 0.17421931E+03</rscale>
<asrwt>0</asrwt>
<pdfrwt beam="1">  1       21 0.78796086E-02 0.17421931E+03</pdfrwt>
<pdfrwt beam="2">  1       21 0.10889515E+00 0.17421931E+03</pdfrwt>
<totfact> 0.83142700E+04</totfact>
</mgrwt>
</event>
<event>
 4    1  0.4333905E+000  0.2530637E+03  0.7546771E-02  0.1111384E+00
         21   -1    0    0  501  502  0.00000000000E+00  0.00000000000E+00  0.39180457395E+03  0.39180457395E+03  0.00000000000E+00 0.  1.
         21   -1    0    0  502  503 -0.00000000000E+00 -0.00000000000E+00 -0.32222980415E+03  0.32222980415E+03  0.00000000000E+00 0.  1.
          6    1    1    2  501    0 -0.94642767002E+02 -0.15860327186E+03  0.28539896432E+03  0.38143652162E+03  0.17300000000E+03 0.  1.
         -6    1    1    2    0  503  0.94642767002E+02  0.15860327186E+03 -0.21582419452E+03  0.33259785648E+03  0.17300000000E+03 0.  1.
<mgrwt>
<rscale>  2 0.25306373E+03</rscale>
<asrwt>0</asrwt>
<pdfrwt beam="1">  1       21 0.60277627E-01 0.25306373E+03</pdfrwt>
<pdfrwt beam="2">  1       21 0.49573816E-01 0.25306373E+03</pdfrwt>
<totfact> 0.95842914E+03</totfact>
</mgrwt>
</event>
<event>
 4    1  0.4333905E+000  0.2800355E+03  0.7546771E-02  0.1095670E+00
         21   -1    0    0  503  502  0.00000000000E+00  0.00000000000E+00  0.25176333540E+03  0.25176333540E+03  0.00000000000E+00 0.  1.
         21   -1    0    0  501  503 -0.00000000000E+00 -0.00000000000E+00 -0.54551057396E+03  0.54551057396E+03  0.00000000000E+00 0. -1.
          6    1    1    2  501    0  0.21342488273E+03 -0.54228466040E+02 -0.40797539405E+03  0.49483717448E+03  0.17300000000E+03 0. -1.
         -6    1    1    2    0  502 -0.21342488273E+03  0.54228466040E+02  0.11422815550E+03  0.30243673488E+03  0.17300000000E+03 0.  1.
<mgrwt>
<rscale>  2 0.28003555E+03</rscale>
<asrwt>0</asrwt>
<pdfrwt beam="1">  1       21 0.38732821E-01 0.28003555E+03</pdfrwt>
<pdfrwt beam="2">  1       21 0.83924702E-01 0.28003555E+03</pdfrwt>
<totfact> 0.75103086E+03</totfact>
</mgrwt>
</event>
<event>
 4    1  0.4333905E+000  0.3023473E+03  0.7546771E-02  0.1084073E+00
         21   -1    0    0  501  502  0.00000000000E+00  0.00000000000E+00  0.11346720965E+03  0.11346720965E+03  0.00000000000E+00 0. -1.
         21   -1    0    0  502  503 -0.00000000000E+00 -0.00000000000E+00 -0.81840501212E+03  0.81840501212E+03  0.00000000000E+00 0.  1.
          6    1    1    2  501    0 -0.24140941250E+03 -0.56624880280E+02 -0.29428148839E+03  0.42191880252E+03  0.17300000000E+03 0. -1.
         -6    1    1    2    0  503  0.24140941250E+03  0.56624880280E+02 -0.41065631409E+03  0.50995341926E+03  0.17300000000E+03 0. -1.
<mgrwt>
<rscale>  2 0.30234729E+03</rscale>
<asrwt>0</asrwt>
<pdfrwt beam="1">  1       21 0.17456494E-01 0.30234729E+03</pdfrwt>
<pdfrwt beam="2">  1       21 0.12590846E+00 0.30234729E+03</pdfrwt>
<totfact> 0.13080187E+04</totfact>
</mgrwt>
</event>
<event>
 4    1  0.4333905E+000  0.2318219E+03  0.7546771E-02  0.1125364E+00
         21   -1    0    0  501  502  0.00000000000E+00  0.00000000000E+00  0.29051019331E+03  0.29051019331E+03  0.00000000000E+00 0.  1.
         21   -1    0    0  502  503 -0.00000000000E+00 -0.00000000000E+00 -0.22279482294E+03  0.22279482294E+03  0.00000000000E+00 0. -1.
          6    1    1    2  501    0  0.23069427136E+02  0.15257847459E+03  0.13958041644E+03  0.27059948639E+03  0.17300000000E+03 0. -1.
         -6    1    1    2    0  503 -0.23069427136E+02 -0.15257847459E+03 -0.71865046080E+02  0.24270552986E+03  0.17300000000E+03 0. -1.
<mgrwt>
<rscale>  2 0.23182189E+03</rscale>
<asrwt>0</asrwt>
<pdfrwt beam="1">  1       21 0.44693876E-01 0.23182189E+03</pdfrwt>
<pdfrwt beam="2">  1       21 0.34276127E-01 0.23182189E+03</pdfrwt>
<totfact> 0.38664675E+04</totfact>
</mgrwt>
</event>
<event>
 4    1  0.4333905E+000  0.1911354E+03  0.7546771E-02  0.1157441E+00
         21   -1    0    0  501  502  0.00000000000E+00  0.00000000000E+00  0.18193792632E+04  0.18193792632E+04  0.00000000000E+00 0.  1.
         21   -1    0    0  502  503 -0.00000000000E+00 -0.00000000000E+00 -0.20636672371E+02  0.20636672371E+02  0.00000000000E+00 0.  1.
          6    1    1    2  501    0  0.77898323893E+02 -0.23142861878E+02  0.10505032129E+04  0.10677498495E+04  0.17300000000E+03 0.  1.
         -6    1    1    2    0  503 -0.77898323893E+02  0.23142861878E+02  0.74823937799E+03  0.77226608607E+03  0.17300000000E+03 0.  1.
<mgrwt>
<rscale>  2 0.19113540E+03</rscale>
<asrwt>0</asrwt>
<pdfrwt beam="1">  1       21 0.27990438E+00 0.19113540E+03</pdfrwt>
<pdfrwt beam="2">  1       21 0.31748741E-02 0.19113540E+03</pdfrwt>
<totfact> 0.25702738E+04</totfact>
</mgrwt>
</event>
<event>
 4    1  0.4333905E+000  0.2403298E+03  0.7546771E-02  0.1119573E+00
         21   -1    0    0  503  502  0.00000000000E+00  0.00000000000E+00  0.12008409468E+03  0.12008409468E+03  0.00000000000E+00 0.  1.
         21   -1    0    0  501  503 -0.00000000000E+00 -0.00000000000E+00 -0.52223890366E+03  0.52223890366E+03  0.00000000000E+00 0.  1.
          6    1    1    2  501    0  0.72970448819E+02  0.15001574336E+03 -0.29134499505E+03  0.37767752885E+03  0.17300000000E+03 0.  1.
         -6    1    1    2    0  502 -0.72970448819E+02 -0.15001574336E+03 -0.11080981393E+03  0.26464546949E+03  0.17300000000E+03 0.  1.
<mgrwt>
<rscale>  2 0.24032979E+03</rscale>
<asrwt>0</asrwt>
<pdfrwt beam="1">  1       21 0.18474476E-01 0.24032979E+03</pdfrwt>
<pdfrwt beam="2">  1       21 0.80344448E-01 0.24032979E+03</pdfrwt>
<totfact> 0.35581236E+04</totfact>
</mgrwt>
</event>
<event>
 4    1  0.4333905E+000  0.2649960E+03  0.7546771E-02  0.1104178E+00
         21   -1    0    0  503  502  0.00000000000E+00  0.00000000000E+00  0.10711778763E+04  0.10711778763E+04  0.00000000000E+00 0.  1.
         21   -1    0    0  501  503 -0.00000000000E+00 -0.00000000000E+00 -0.67645781245E+02  0.67645781245E+02  0.00000000000E+00 0. -1.
          6    1    1    2  501    0  0.77238579560E+02 -0.18527845655E+03  0.60183101285E+03  0.65758913667E+03  0.17300000000E+03 0. -1.
         -6    1    1    2    0  502 -0.77238579560E+02  0.18527845655E+03  0.40170108216E+03  0.48123452083E+03  0.17300000000E+03 0. -1.
<mgrwt>
<rscale>  2 0.26499605E+03</rscale>
<asrwt>0</asrwt>
<pdfrwt beam="1">  1       21 0.16479658E+00 0.26499605E+03</pdfrwt>
<pdfrwt beam="2">  1       21 0.10407044E-01 0.26499605E+03</pdfrwt>
<totfact> 0.16786711E+04</totfact>
</mgrwt>
</event>
<event>
 4    1  0.4333905E+000  0.1800894E+03  0.7546771E-02  0.1167717E+00
         21   -1    0    0  503  502  0.00000000000E+00  0.00000000000E+00  0.28762449787E+02  0.28762449787E+02  0.00000000000E+00 0. -1.
         21   -1    0    0  501  503 -0.00000000000E+00 -0.00000000000E+00 -0.14160259588E+04  0.14160259588E+04  0.00000000000E+00 0. -1.
          6    1    1    2  501    0 -0.42955694442E+02 -0.25651230373E+02 -0.10196675389E+04  0.10354487275E+04  0.17300000000E+03 0. -1.
         -6    1    1    2    0  502  0.42955694442E+02  0.25651230373E+02 -0.36759597012E+03  0.40933968113E+03  0.17300000000E+03 0. -1.
<mgrwt>
<rscale>  2 0.18008936E+03</rscale>
<asrwt>0</asrwt>
<pdfrwt beam="1">  1       21 0.44249933E-02 0.18008936E+03</pdfrwt>
<pdfrwt beam="2">  1       21 0.21785010E+00 0.18008936E+03</pdfrwt>
<totfact> 0.34617732E+04</totfact>
</mgrwt>
</event>
<event>
 4    1  0.4333905E+000  0.2028300E+03  0.7546771E-02  0.1147373E+00
         21   -1    0    0  501  502  0.00000000000E+00  0.00000000000E+00  0.12339523036E+02  0.12339523036E+02  0.00000000000E+00 0.  1.
         21   -1    0    0  502  503 -0.00000000000E+00 -0.00000000000E+00 -0.36361629381E+04  0.36361629381E+04  0.00000000000E+00 0.  1.
          6    1    1    2  501    0  0.88439161616E+02 -0.58219452091E+02 -0.12860368513E+04  0.13019334748E+04  0.17300000000E+03 0. -1.
         -6    1    1    2    0  503 -0.88439161616E+02  0.58219452091E+02 -0.23377865638E+04  0.23465689863E+04  0.17300000000E+03 0. -1.
<mgrwt>
<rscale>  2 0.20282995E+03</rscale>
<asrwt>0</asrwt>
<pdfrwt beam="1">  1       21 0.18983886E-02 0.20282995E+03</pdfrwt>
<pdfrwt beam="2">  1       21 0.55940956E+00 0.20282995E+03</pdfrwt>
<totfact> 0.92149550E+02</totfact>
</mgrwt>
</event>
<event>
 4    1  0.4333905E+000  0.1964793E+03  0.7546771E-02  0.1152744E+00
         21   -1    0    0  503  502  0.00000000000E+00  0.00000000000E+00  0.15713514243E+04  0.15713514243E+04  0.00000000000E+00 0.  1.
         21   -1    0    0  501  503 -0.00000000000E+00 -0.00000000000E+00 -0.31103964416E+02  0.31103964416E+02  0.00000000000E+00 0.  1.
          6    1    1    2  501    0  0.12145614036E+02  0.92344927165E+02  0.40282357893E+03  0.44818627517E+03  0.17300000000E+03 0.  1.
         -6    1    1    2    0  502 -0.12145614036E+02 -0.92344927165E+02  0.11374238810E+04  0.11542691136E+04  0.17300000000E+03 0.  1.
<mgrwt>
<rscale>  2 0.19647926E+03</rscale>
<asrwt>0</asrwt>
<pdfrwt beam="1">  1       21 0.24174631E+00 0.19647926E+03</pdfrwt>
<pdfrwt beam="2">  1       21 0.47852265E-02 0.19647926E+03</pdfrwt>
<totfact> 0.21485092E+04</totfact>
</mgrwt>
</event>
<event>
 4    1  0.4333905E+000  0.2027947E+03  0.7546771E-02  0.1147402E+00
         21   -1    0    0  503  502  0.00000000000E+00  0.00000000000E+00  0.82235271766E+02  0.82235271766E+02  0.00000000000E+00 0.  1.
         21   -1    0    0  501  503 -0.00000000000E+00 -0.00000000000E+00 -0.50425345599E+03  0.50425345599E+03  0.00000000000E+00 0.  1.
          6    1    1    2  501    0 -0.52221999043E+01  0.10568545665E+03 -0.18438838758E+03  0.27408897204E+03  0.17300000000E+03 0.  1.
         -6    1    1    2    0  502  0.52221999043E+01 -0.10568545665E+03 -0.23762979664E+03  0.31239975572E+03  0.17300000000E+03 0.  1.
<mgrwt>
<rscale>  2 0.20279469E+03</rscale>
<asrwt>0</asrwt>
<pdfrwt beam="1">  1       21 0.12651580E-01 0.20279469E+03</pdfrwt>
<pdfrwt beam="2">  1       21 0.77577454E-01 0.20279469E+03</pdfrwt>
<totfact> 0.78322830E+04</totfact>
</mgrwt>
</event>
<event>
 4    1  0.4333905E+000  0.2024011E+03  0.7546771E-02  0.1147729E+00
         21   -1    0    0  503  502  0.00000000000E+00  0.00000000000E+00  0.99596611193E+02  0.99596611193E+02  0.00000000000E+00 0. -1.
         21   -1    0    0  501  503 -0.00000000000E+00 -0.00000000000E+00 -0.10762610011E+04  0.10762610011E+04  0.00000000000E+00 0. -1.
          6    1    1    2  501    0  0.52080190615E+02 -0.91240691190E+02 -0.95045463908E+03  0.97176655166E+03  0.17300000000E+03 0. -1.
         -6    1    1    2    0  502 -0.52080190615E+02  0.91240691190E+02 -0.26209750806E+02  0.20409106061E+03  0.17300000000E+03 0. -1.
<mgrwt>
<rscale>  2 0.20240111E+03</rscale>
<asrwt>0</asrwt>
<pdfrwt beam="1">  1       21 0.15322556E-01 0.20240111E+03</pdfrwt>
<pdfrwt beam="2">  1       21 0.16557861E+00 0.20240111E+03</pdfrwt>
<totfact> 0.85880408E+03</totfact>
</mgrwt>
</event>
<event>
 4    1  0.4333905E+000  0.2457410E+03  0.7546771E-02  0.1116026E+00
         21   -1    0    0  503  502  0.00000000000E+00  0.00000000000E+00  0.85267083120E+02  0.85267083120E+02  0.00000000000E+00 0.  1.
         21   -1    0    0  501  503 -0.00000000000E+00 -0.00000000000E+00 -0.12020293106E+04  0.12020293106E+04  0.00000000000E+00 0.  1.
          6    1    1    2  501    0 -0.17263073958E+03 -0.25656548441E+02 -0.97092167709E+03  0.10015375848E+04  0.17300000000E+03 0.  1.
         -6    1    1    2    0  502  0.17263073958E+03  0.25656548441E+02 -0.14584055036E+03  0.28575880889E+03  0.17300000000E+03 0.  1.
<mgrwt>
<rscale>  2 0.24574098E+03</rscale>
<asrwt>0</asrwt>
<pdfrwt beam="1">  1       21 0.13118014E-01 0.24574098E+03</pdfrwt>
<pdfrwt beam="2">  1       21 0.18492757E+00 0.24574098E+03</pdfrwt>
<totfact> 0.80951537E+03</totfact>
</mgrwt>
</event>
<event>
 4    1  0.4333905E+000  0.2025872E+03  0.7546771E-02  0.1147574E+00
         21   -1    0    0  501  502  0.00000000000E+00  0.00000000000E+00  0.63770965763E+03  0.63770965763E+03  0.00000000000E+00 0.  1.
         21   -1    0    0  502  503 -0.00000000000E+00 -0.00000000000E+00 -0.66575515232E+02  0.66575515232E+02  0.00000000000E+00 0. -1.
          6    1    1    2  501    0  0.84153949425E+02  0.63487773448E+02  0.34983807695E+03  0.40426261844E+03  0.17300000000E+03 0.  1.
         -6    1    1    2    0  503 -0.84153949425E+02 -0.63487773448E+02  0.22129606545E+03  0.30002255442E+03  0.17300000000E+03 0. -1.
<mgrwt>
<rscale>  2 0.20258723E+03</rscale>
<asrwt>0</asrwt>
<pdfrwt beam="1">  1       21 0.98109174E-01 0.20258723E+03</pdfrwt>
<pdfrwt beam="2">  1       21 0.10242387E-01 0.20258723E+03</pdfrwt>
<totfact> 0.66484713E+04</totfact>
</mgrwt>
</event>
<event>
 4    1  0.4333905E+000  0.2709925E+03  0.7546771E-02  0.1100713E+00
         21   -1    0    0  501  502  0.00000000000E+00  0.00000000000E+00  0.59324334101E+03  0.59324334101E+03  0.00000000000E+00 0. -1.
         21   -1    0    0  502  503 -0.00000000000E+00 -0.00000000000E+00 -0.17887709230E+03  0.17887709230E+03  0.00000000000E+00 0. -1.
          6    1    1    2  501    0 -0.29957709906E+02 -0.20642304494E+03  0.42142628452E+03  0.50103597790E+03  0.17300000000E+03 0. -1.
         -6    1    1    2    0  503  0.29957709906E+02  0.20642304494E+03 -0.70600358015E+01  0.27108445542E+03  0.17300000000E+03 0. -1.
<mgrwt>
<rscale>  2 0.27099251E+03</rscale>
<asrwt>0</asrwt>
<pdfrwt beam="1">  1       21 0.91268205E-01 0.27099251E+03</pdfrwt>
<pdfrwt beam="2">  1       21 0.27519553E-01 0.27099251E+03</pdfrwt>
<totfact> 0.12239064E+04</totfact>
</mgrwt>
</event>
<event>
 4    1  0.4333905E+000  0.1947109E+03  0.7546771E-02  0.1154280E+00
         21   -1    0    0  501  502  0.00000000000E+00  0.00000000000E+00  0.16305320676E+03  0.16305320676E+03  0.00000000000E+00 0.  1.
         21   -1    0    0  502  503 -0.00000000000E+00 -0.00000000000E+00 -0.25160860111E+03  0.25160860111E+03  0.00000000000E+00 0.  1.
          6    1    1    2  501    0  0.67849888559E+02 -0.58135380213E+02  0.12836527393E+02  0.19513356002E+03  0.17300000000E+03 0.  1.
         -6    1    1    2    0  503 -0.67849888559E+02  0.58135380213E+02 -0.10139192174E+03  0.21952824785E+03  0.17300000000E+03 0.  1.
<mgrwt>
<rscale>  2 0.19471089E+03</rscale>
<asrwt>0</asrwt>
<pdfrwt beam="1">  1       21 0.25085109E-01 0.19471089E+03</pdfrwt>
<pdfrwt beam="2">  1       21 0.38709015E-01 0.19471089E+03</pdfrwt>
<totfact> 0.96766813E+04</totfact>
</mgrwt>
</event>
<event>
 4    1  0.4333905E+000  0.2109860E+03  0.7546771E-02  0.1140788E+00
         21   -1    0    0  501  502  0.00000000000E+00  0.00000000000E+00  0.71483621698E+02  0.71483621698E+02  0.00000000000E+00 0. -1.
         21   -1    0    0  502  503 -0.00000000000E+00 -0.00000000000E+00 -0.91076047176E+03  0.91076047176E+03  0.00000000000E+00 0.  1.
          6    1    1    2  501    0  0.97416114212E+02  0.71387527118E+02 -0.14344986208E+03  0.25513318339E+03  0.17300000000E+03 0. -1.
         -6    1    1    2    0  503 -0.97416114212E+02 -0.71387527118E+02 -0.69582698798E+03  0.72711091006E+03  0.17300000000E+03 0.  1.
<mgrwt>
<rscale>  2 0.21098597E+03</rscale>
<asrwt>0</asrwt>
<pdfrwt beam="1">  1       21 0.10997480E-01 0.21098597E+03</pdfrwt>
<pdfrwt beam="2">  1       21 0.14011700E+00 0.21098597E+03</pdfrwt>
<totfact> 0.24199214E+04</totfact>
</mgrwt>
</event>
<event>
 4    1  0.4333905E+000  0.2957658E+03  0.7546771E-02  0.1087377E+00
         21   -1    0    0  501  502  0.00000000000E+00  0.00000000000E+00  0.18826041167E+03  0.18826041167E+03  0.00000000000E+00 0.  1.
         21   -1    0    0  502  503 -0.00000000000E+00 -0.00000000000E+00 -0.62110332707E+03  0.62110332707E+03  0.00000000000E+00 0. -1.
          6    1    1    2  501    0 -0.18593081473E+03 -0.15158541521E+03 -0.13322376202E+02  0.29606568811E+03  0.17300000000E+03 0.  1.
         -6    1    1    2    0  503  0.18593081473E+03  0.15158541521E+03 -0.41952053919E+03  0.51329805063E+03  0.17300000000E+03 0. -1.
<mgrwt>
<rscale>  2 0.29576580E+03</rscale>
<asrwt>0</asrwt>
<pdfrwt beam="1">  1       21 0.28963140E-01 0.29576580E+03</pdfrwt>
<pdfrwt beam="2">  1       21 0.95554358E-01 0.29576580E+03</pdfrwt>
<totfact> 0.98218404E+03</totfact>
</mgrwt>
</event>
<event>
 4    1  0.4333905E+000  0.1822717E+03  0.7546771E-02  0.1165622E+00
         21   -1    0    0  503  502  0.00000000000E+00  0.00000000000E+00  0.40241980301E+03  0.40241980301E+03  0.00000000000E+00 0. -1.
         21   -1    0    0  501  503 -0.00000000000E+00 -0.00000000000E+00 -0.12031399649E+03  0.12031399649E+03  0.00000000000E+00 0. -1.
          6    1    1    2  501    0 -0.47738962005E+02 -0.31858736942E+02 -0.53620001219E+01  0.18235059270E+03  0.17300000000E+03 0. -1.
         -6    1    1    2    0  502  0.47738962005E+02  0.31858736942E+02  0.28746780664E+03  0.34038320679E+03  0.17300000000E+03 0. -1.
<mgrwt>
<rscale>  2 0.18227174E+03</rscale>
<asrwt>0</asrwt>
<pdfrwt beam="1">  1       21 0.61910738E-01 0.18227174E+03</pdfrwt>
<pdfrwt beam="2">  1       21 0.18509846E-01 0.18227174E+03</pdfrwt>
<totfact> 0.64870120E+04</totfact>
</mgrwt>
</event>
<event>
 4    1  0.4333905E+000  0.1805235E+03  0.7546771E-02  0.1167297E+00
         21   -1    0    0  501  502  0.00000000000E+00  0.00000000000E+00  0.83315831400E+03  0.83315831400E+03  0.00000000000E+00 0. -1.
         21   -1    0    0  502  503 -0.00000000000E+00 -0.00000000000E+00 -0.11784295781E+03  0.11784295781E+03  0.00000000000E+00 0.  1.
          6    1    1    2  501    0  0.31442846226E+02  0.40878907666E+02  0.74631298728E+03  0.76783579797E+03  0.17300000000E+03 0. -1.
         -6    1    1    2    0  503 -0.31442846226E+02 -0.40878907666E+02 -0.30997631085E+02  0.18316547383E+03  0.17300000000E+03 0.  1.
<mgrwt>
<rscale>  2 0.18052351E+03</rscale>
<asrwt>0</asrwt>
<pdfrwt beam="1">  1       21 0.12817820E+00 0.18052351E+03</pdfrwt>
<pdfrwt beam="2">  1       21 0.18129686E-01 0.18052351E+03</pdfrwt>
<totfact> 0.12516284E+04</totfact>
</mgrwt>
</event>
<event>
 4    1  0.4333905E+000  0.2291889E+03  0.7546771E-02  0.1127212E+00
         21   -1    0    0  503  502  0.00000000000E+00  0.00000000000E+00  0.41091151350E+03  0.41091151350E+03  0.00000000000E+00 0. -1.
         21   -1    0    0  501  503 -0.00000000000E+00 -0.00000000000E+00 -0.13784932638E+03  0.13784932638E+03  0.00000000000E+00 0. -1.
          6    1    1    2  501    0 -0.13923400874E+03 -0.56678289007E+02  0.62565093111E+02  0.23757510078E+03  0.17300000000E+03 0. -1.
         -6    1    1    2    0  502  0.13923400874E+03  0.56678289007E+02  0.21049709401E+03  0.31118573910E+03  0.17300000000E+03 0. -1.
<mgrwt>
<rscale>  2 0.22918887E+03</rscale>
<asrwt>0</asrwt>
<pdfrwt beam="1">  1       21 0.63217155E-01 0.22918887E+03</pdfrwt>
<pdfrwt beam="2">  1       21 0.21207589E-01 0.22918887E+03</pdfrwt>
<totfact> 0.47057986E+04</totfact>
</mgrwt>
</event>
<event>
 4    1  0.4333905E+000  0.2055609E+03  0.7546771E-02  0.1145130E+00
         21   -1    0    0  501  502  0.00000000000E+00  0.00000000000E+00  0.54936206764E+02  0.54936206764E+02  0.00000000000E+00 0. -1.
         21   -1    0    0  502  503 -0.00000000000E+00 -0.00000000000E+00 -0.95900260847E+03  0.95900260847E+03  0.00000000000E+00 0. -1.
          6    1    1    2  501    0  0.11099060103E+03 -0.27113537249E+01 -0.22647551780E+03  0.30585360080E+03  0.17300000000E+03 0. -1.
         -6    1    1    2    0  503 -0.11099060103E+03  0.27113537249E+01 -0.67759088391E+03  0.70808521444E+03  0.17300000000E+03 0. -1.
<mgrwt>
<rscale>  2 0.20556085E+03</rscale>
<asrwt>0</asrwt>
<pdfrwt beam="1">  1       21 0.84517247E-02 0.20556085E+03</pdfrwt>
<pdfrwt beam="2">  1       21 0.14753885E+00 0.20556085E+03</pdfrwt>
<totfact> 0.33774121E+04</totfact>
</mgrwt>
</event>
<event>
 4    1  0.4333905E+000  0.2148074E+03  0.7546771E-02  0.1137815E+00
         21   -1    0    0  503  502  0.00000000000E+00  0.00000000000E+00  0.62249109757E+03  0.62249109757E+03  0.00000000000E+00 0.  1.
         21   -1    0    0  501  503 -0.00000000000E+00 -0.00000000000E+00 -0.20760487551E+03  0.20760487551E+03  0.00000000000E+00 0. -1.
          6    1    1    2  501    0  0.98658946975E+02  0.80496130329E+02 -0.12535991847E+03  0.24871132659E+03  0.17300000000E+03 0. -1.
         -6    1    1    2    0  502 -0.98658946975E+02 -0.80496130329E+02  0.54024614053E+03  0.58138464649E+03  0.17300000000E+03 0.  1.
<mgrwt>
<rscale>  2 0.21480739E+03</rscale>
<asrwt>0</asrwt>
<pdfrwt beam="1">  1       21 0.95767861E-01 0.21480739E+03</pdfrwt>
<pdfrwt beam="2">  1       21 0.31939212E-01 0.21480739E+03</pdfrwt>
<totfact> 0.84366339E+03</totfact>
</mgrwt>
</event>
<event>
 4    1  0.4333905E+000  0.1864635E+03  0.7546771E-02  0.1161690E+00
         21   -1    0    0  501  502  0.00000000000E+00  0.00000000000E+00  0.41564694274E+03  0.41564694274E+03  0.00000000000E+00 0.  1.
         21   -1    0    0  502  503 -0.00000000000E+00 -0.00000000000E+00 -0.11711954260E+03  0.11711954260E+03  0.00000000000E+00 0.  1.
          6    1    1    2  501    0 -0.38806152000E+02 -0.57738237109E+02  0.29166728908E+03  0.34617687528E+03  0.17300000000E+03 0.  1.
         -6    1    1    2    0  503  0.38806152000E+02  0.57738237109E+02  0.68601110643E+01  0.18658961006E+03  0.17300000000E+03 0.  1.
<mgrwt>
<rscale>  2 0.18646346E+03</rscale>
<asrwt>0</asrwt>
<pdfrwt beam="1">  1       21 0.63945683E-01 0.18646346E+03</pdfrwt>
<pdfrwt beam="2">  1       21 0.18018391E-01 0.18646346E+03</pdfrwt>
<totfact> 0.63458476E+04</totfact>
</mgrwt>
</event>
<event>
 4    1  0.4333905E+000  0.2929718E+03  0.7546771E-02  0.1088808E+00
         21   -1    0    0  501  502  0.00000000000E+00  0.00000000000E+00  0.26251090459E+03  0.26251090459E+03  0.00000000000E+00 0.  1.
         21   -1    0    0  502  503 -0.00000000000E+00 -0.00000000000E+00 -0.59312226990E+03  0.59312226990E+03  0.00000000000E+00 0. -1.
          6    1    1    2  501    0 -0.99301586104E+02  0.21457559370E+03  0.12127886275E+03  0.31708209184E+03  0.17300000000E+03 0.  1.
         -6    1    1    2    0  503  0.99301586104E+02 -0.21457559370E+03 -0.45189022806E+03  0.53855108266E+03  0.17300000000E+03 0.  1.
<mgrwt>
<rscale>  2 0.29297183E+03</rscale>
<asrwt>0</asrwt>
<pdfrwt beam="1">  1       21 0.40386293E-01 0.29297183E+03</pdfrwt>
<pdfrwt beam="2">  1       21 0.91249579E-01 0.29297183E+03</pdfrwt>
<totfact> 0.56396663E+03</totfact>
</mgrwt>
</event>
<event>
 4    1  0.4333905E+000  0.1736401E+03  0.7546771E-02  0.1174104E+00
         21   -1    0    0  503  502  0.00000000000E+00  0.00000000000E+00  0.13736468464E+03  0.13736468464E+03  0.00000000000E+00 0.  1.
         21   -1    0    0  501  503 -0.00000000000E+00 -0.00000000000E+00 -0.37141259923E+03  0.37141259923E+03  0.00000000000E+00 0.  1.
          6    1    1    2  501    0  0.14611861646E+02 -0.28942912186E+01 -0.27971858653E+03  0.32923148554E+03  0.17300000000E+03 0.  1.
         -6    1    1    2    0  502 -0.14611861646E+02  0.28942912186E+01  0.45670671937E+02  0.17954579833E+03  0.17300000000E+03 0.  1.
<mgrwt>
<rscale>  2 0.17364010E+03</rscale>
<asrwt>0</asrwt>
<pdfrwt beam="1">  1       21 0.21133028E-01 0.17364010E+03</pdfrwt>
<pdfrwt beam="2">  1       21 0.57140400E-01 0.17364010E+03</pdfrwt>
<totfact> 0.60406438E+04</totfact>
</mgrwt>
</event>
<event>
 4    1  0.4333905E+000  0.1814826E+03  0.7546771E-02  0.1166376E+00
         21   -1    0    0  503  502  0.00000000000E+00  0.00000000000E+00  0.56872590287E+02  0.56872590287E+02  0.00000000000E+00 0.  1.
         21   -1    0    0  501  503 -0.00000000000E+00 -0.00000000000E+00 -0.78245091478E+03  0.78245091478E+03  0.00000000000E+00 0.  1.
          6    1    1    2  501    0  0.29147534028E+02  0.46447375067E+02 -0.57672066640E+03  0.60460124416E+03  0.17300000000E+03 0.  1.
         -6    1    1    2    0  502 -0.29147534028E+02 -0.46447375067E+02 -0.14885765809E+03  0.23472226090E+03  0.17300000000E+03 0.  1.
<mgrwt>
<rscale>  2 0.18148261E+03</rscale>
<asrwt>0</asrwt>
<pdfrwt beam="1">  1       21 0.87496303E-02 0.18148261E+03</pdfrwt>
<pdfrwt beam="2">  1       21 0.12037705E+00 0.18148261E+03</pdfrwt>
<totfact> 0.54086956E+04</totfact>
</mgrwt>
</event>
<event>
 4    1  0.4333905E+000  0.2764323E+03  0.7546771E-02  0.1097654E+00
         21   -1    0    0  501  502  0.00000000000E+00  0.00000000000E+00  0.19141769579E+03  0.19141769579E+03  0.00000000000E+00 0.  1.
         21   -1    0    0  502  503 -0.00000000000E+00 -0.00000000000E+00 -0.10529705688E+04  0.10529705688E+04  0.00000000000E+00 0. -1.
          6    1    1    2  501    0  0.78630964219E+02  0.20075600920E+03  0.59486414183E+02  0.28276038838E+03  0.17300000000E+03 0.  1.
         -6    1    1    2    0  503 -0.78630964219E+02 -0.20075600920E+03 -0.92103928721E+03  0.96162787624E+03  0.17300000000E+03 0. -1.
<mgrwt>
<rscale>  2 0.27643228E+03</rscale>
<asrwt>0</asrwt>
<pdfrwt beam="1">  1       21 0.29448876E-01 0.27643228E+03</pdfrwt>
<pdfrwt beam="2">  1       21 0.16199547E+00 0.27643228E+03</pdfrwt>
<totfact> 0.25147947E+03</totfact>
</mgrwt>
</event>
<event>
 4    1  0.4333905E+000  0.2633436E+03  0.7546771E-02  0.1105151E+00
         21   -1    0    0  503  502  0.00000000000E+00  0.00000000000E+00  0.29355928219E+03  0.29355928219E+03  0.00000000000E+00 0.  1.
         21   -1    0    0  501  503 -0.00000000000E+00 -0.00000000000E+00 -0.24163699769E+03  0.24163699769E+03  0.00000000000E+00 0.  1.
          6    1    1    2  501    0 -0.14951304226E+03  0.13063955812E+03 -0.14038842923E+02  0.26371752513E+03  0.17300000000E+03 0.  1.
         -6    1    1    2    0  502  0.14951304226E+03 -0.13063955812E+03  0.65961127421E+02  0.27147875475E+03  0.17300000000E+03 0.  1.
<mgrwt>
<rscale>  2 0.26334359E+03</rscale>
<asrwt>0</asrwt>
<pdfrwt beam="1">  1       21 0.45162967E-01 0.26334359E+03</pdfrwt>
<pdfrwt beam="2">  1       21 0.37174923E-01 0.26334359E+03</pdfrwt>
<totfact> 0.31729797E+04</totfact>
</mgrwt>
</event>
<event>
 4    1  0.4333905E+000  0.3213587E+03  0.7546771E-02  0.1075026E+00
         21   -1    0    0  503  502  0.00000000000E+00  0.00000000000E+00  0.46696987067E+02  0.46696987067E+02  0.00000000000E+00 0.  1.
         21   -1    0    0  501  503 -0.00000000000E+00 -0.00000000000E+00 -0.27524851088E+04  0.27524851088E+04  0.00000000000E+00 0. -1.
          6    1    1    2  501    0 -0.20725580825E+03 -0.17432002668E+03 -0.73242196503E+03  0.79982084032E+03  0.17300000000E+03 0.  1.
         -6    1    1    2    0  502  0.20725580825E+03  0.17432002668E+03 -0.19733661567E+04  0.19993612556E+04  0.17300000000E+03 0. -1.
<mgrwt>
<rscale>  2 0.32135874E+03</rscale>
<asrwt>0</asrwt>
<pdfrwt beam="1">  1       21 0.71841529E-02 0.32135874E+03</pdfrwt>
<pdfrwt beam="2">  1       21 0.42345919E+00 0.32135874E+03</pdfrwt>
<totfact> 0.76757534E+02</totfact>
</mgrwt>
</event>
<event>
 4    1  0.4333905E+000  0.2034887E+03  0.7546771E-02  0.1146828E+00
         21   -1    0    0  501  502  0.00000000000E+00  0.00000000000E+00  0.44192847853E+03  0.44192847853E+03  0.00000000000E+00 0.  1.
         21   -1    0    0  502  503 -0.00000000000E+00 -0.00000000000E+00 -0.97743888554E+02  0.97743888554E+02  0.00000000000E+00 0.  1.
          6    1    1    2  501    0 -0.15803564821E+02 -0.10596656923E+03  0.22699330398E+03  0.30485017058E+03  0.17300000000E+03 0.  1.
         -6    1    1    2    0  503  0.15803564821E+02  0.10596656923E+03  0.11719128600E+03  0.23482219650E+03  0.17300000000E+03 0.  1.
<mgrwt>
<rscale>  2 0.20348874E+03</rscale>
<asrwt>0</asrwt>
<pdfrwt beam="1">  1       21 0.67988996E-01 0.20348874E+03</pdfrwt>
<pdfrwt beam="2">  1       21 0.15037522E-01 0.20348874E+03</pdfrwt>
<totfact> 0.76777186E+04</totfact>
</mgrwt>
</event>
<event>
 4    1  0.4333905E+000  0.1758669E+03  0.7546771E-02  0.1171864E+00
         21   -1    0    0  501  502  0.00000000000E+00  0.00000000000E+00  0.22705449550E+03  0.22705449550E+03  0.00000000000E+00 0. -1.
         21   -1    0    0  502  503 -0.00000000000E+00 -0.00000000000E+00 -0.15410672698E+03  0.15410672698E+03  0.00000000000E+00 0. -1.
          6    1    1    2  501    0 -0.28888415007E+02 -0.12869712158E+02  0.10140362887E+03  0.20300705889E+03  0.17300000000E+03 0. -1.
         -6    1    1    2    0  503  0.28888415007E+02  0.12869712158E+02 -0.28455860351E+02  0.17815416358E+03  0.17300000000E+03 0. -1.
<mgrwt>
<rscale>  2 0.17586691E+03</rscale>
<asrwt>0</asrwt>
<pdfrwt beam="1">  1       21 0.34931461E-01 0.17586691E+03</pdfrwt>
<pdfrwt beam="2">  1       21 0.23708727E-01 0.17586691E+03</pdfrwt>
<totfact> 0.13313065E+05</totfact>
</mgrwt>
</event>
<event>
 4    1  0.4333905E+000  0.1998542E+03  0.7546771E-02  0.1149862E+00
         21   -1    0    0  501  502  0.00000000000E+00  0.00000000000E+00  0.34186426597E+03  0.34186426597E+03  0.00000000000E+00 0.  1.
         21   -1    0    0  502  503 -0.00000000000E+00 -0.00000000000E+00 -0.14324481283E+03  0.14324481283E+03  0.00000000000E+00 0. -1.
          6    1    1    2  501    0 -0.94185312312E+01 -0.99619236269E+02  0.20345819076E+03  0.28519631195E+03  0.17300000000E+03 0.  1.
         -6    1    1    2    0  503  0.94185312312E+01  0.99619236269E+02 -0.48387376260E+01  0.19991276684E+03  0.17300000000E+03 0.  1.
<mgrwt>
<rscale>  2 0.19985420E+03</rscale>
<asrwt>0</asrwt>
<pdfrwt beam="1">  1       21 0.52594502E-01 0.19985420E+03</pdfrwt>
<pdfrwt beam="2">  1       21 0.22037664E-01 0.19985420E+03</pdfrwt>
<totfact> 0.65733754E+04</totfact>
</mgrwt>
</event>
<event>
 4    1  0.4333905E+000  0.6348049E+03  0.7546771E-02  0.9835717E-01
         21   -1    0    0  501  502  0.00000000000E+00  0.00000000000E+00  0.49824785021E+03  0.49824785021E+03  0.00000000000E+00 0. -1.
         21   -1    0    0  502  503 -0.00000000000E+00 -0.00000000000E+00 -0.83332339383E+03  0.83332339383E+03  0.00000000000E+00 0.  1.
          6    1    1    2  501    0 -0.27097118883E+03 -0.54737813846E+03 -0.53297746336E+02  0.63703835160E+03  0.17300000000E+03 0.  1.
         -6    1    1    2    0  503  0.27097118883E+03  0.54737813846E+03 -0.28177779728E+03  0.69453289244E+03  0.17300000000E+03 0. -1.
<mgrwt>
<rscale>  2 0.63480486E+03</rscale>
<asrwt>0</asrwt>
<pdfrwt beam="1">  1       21 0.76653516E-01 0.63480486E+03</pdfrwt>
<pdfrwt beam="2">  1       21 0.12820360E+00 0.63480486E+03</pdfrwt>
<totfact> 0.53025659E+02</totfact>
</mgrwt>
</event>
<event>
 4    1  0.4333905E+000  0.1985102E+03  0.7546771E-02  0.1151002E+00
         21   -1    0    0  501  502  0.00000000000E+00  0.00000000000E+00  0.23011326959E+03  0.23011326959E+03  0.00000000000E+00 0. -1.
         21   -1    0    0  502  503 -0.00000000000E+00 -0.00000000000E+00 -0.17281686420E+03  0.17281686420E+03  0.00000000000E+00 0.  1.
          6    1    1    2  501    0  0.89136646109E+02  0.39140078253E+02  0.47847681750E+02  0.20419522045E+03  0.17300000000E+03 0. -1.
         -6    1    1    2    0  503 -0.89136646109E+02 -0.39140078253E+02  0.94487236400E+01  0.19873491335E+03  0.17300000000E+03 0.  1.
<mgrwt>
<rscale>  2 0.19851017E+03</rscale>
<asrwt>0</asrwt>
<pdfrwt beam="1">  1       21 0.35402041E-01 0.19851017E+03</pdfrwt>
<pdfrwt beam="2">  1       21 0.26587210E-01 0.19851017E+03</pdfrwt>
<totfact> 0.10332344E+05</totfact>
</mgrwt>
</event>
<event>
 4    1  0.4333905E+000  0.2453098E+03  0.7546771E-02  0.1116305E+00
         21   -1    0    0  501  502  0.00000000000E+00  0.00000000000E+00  0.11296958076E+03  0.11296958076E+03  0.00000000000E+00 0.  1.
         21   -1    0    0  502  503 -0.00000000000E+00 -0.00000000000E+00 -0.54851808181E+03  0.54851808181E+03  0.00000000000E+00 0. -1.
          6    1    1    2  501    0 -0.82950110139E+02  0.15286322599E+03 -0.16157672620E+03  0.29374125532E+03  0.17300000000E+03 0.  1.
         -6    1    1    2    0  503  0.82950110139E+02 -0.15286322599E+03 -0.27397177484E+03  0.36774640725E+03  0.17300000000E+03 0. -1.
<mgrwt>
<rscale>  2 0.24530978E+03</rscale>
<asrwt>0</asrwt>
<pdfrwt beam="1">  1       21 0.17379936E-01 0.24530978E+03</pdfrwt>
<pdfrwt beam="2">  1       21 0.84387396E-01 0.24530978E+03</pdfrwt>
<totfact> 0.35544023E+04</totfact>
</mgrwt>
</event>
<event>
 4    1  0.4333905E+000  0.2469046E+03  0.7546771E-02  0.1115277E+00
         21   -1    0    0  503  502  0.00000000000E+00  0.00000000000E+00  0.14077603166E+03  0.14077603166E+03  0.00000000000E+00 0. -1.
         21   -1    0    0  501  503 -0.00000000000E+00 -0.00000000000E+00 -0.45201743716E+03  0.45201743716E+03  0.00000000000E+00 0. -1.
          6    1    1    2  501    0 -0.16318565441E+03 -0.66357672924E+02 -0.94891913768E+02  0.26451157604E+03  0.17300000000E+03 0. -1.
         -6    1    1    2    0  502  0.16318565441E+03  0.66357672924E+02 -0.21634949172E+03  0.32828189278E+03  0.17300000000E+03 0. -1.
<mgrwt>
<rscale>  2 0.24690463E+03</rscale>
<asrwt>0</asrwt>
<pdfrwt beam="1">  1       21 0.21657851E-01 0.24690463E+03</pdfrwt>
<pdfrwt beam="2">  1       21 0.69541144E-01 0.24690463E+03</pdfrwt>
<totfact> 0.36400512E+04</totfact>
</mgrwt>
</event>
<event>
 4    1  0.4333905E+000  0.1807672E+03  0.7546771E-02  0.1167063E+00
         21   -1    0    0  501  502  0.00000000000E+00  0.00000000000E+00  0.12766970061E+03  0.12766970061E+03  0.00000000000E+00 0. -1.
         21   -1    0    0  502  503 -0.00000000000E+00 -0.00000000000E+00 -0.30946209457E+03  0.30946209457E+03  0.00000000000E+00 0. -1.
          6    1    1    2  501    0 -0.14316035502E+02 -0.50426615915E+02 -0.68161600422E-02  0.18076723296E+03  0.17300000000E+03 0. -1.
         -6    1    1    2    0  503  0.14316035502E+02  0.50426615915E+02 -0.18178557780E+03  0.25636456222E+03  0.17300000000E+03 0. -1.
<mgrwt>
<rscale>  2 0.18076723E+03</rscale>
<asrwt>0</asrwt>
<pdfrwt beam="1">  1       21 0.19641492E-01 0.18076723E+03</pdfrwt>
<pdfrwt beam="2">  1       21 0.47609553E-01 0.18076723E+03</pdfrwt>
<totfact> 0.10117491E+05</totfact>
</mgrwt>
</event>
<event>
 4    1  0.4333905E+000  0.2627966E+03  0.7546771E-02  0.1105475E+00
         21   -1    0    0  501  502  0.00000000000E+00  0.00000000000E+00  0.10739319768E+04  0.10739319768E+04  0.00000000000E+00 0. -1.
         21   -1    0    0  502  503 -0.00000000000E+00 -0.00000000000E+00 -0.70607506500E+02  0.70607506500E+02  0.00000000000E+00 0. -1.
          6    1    1    2  501    0  0.19613704838E+03 -0.25755294094E+02  0.67260059947E+03  0.72211747197E+03  0.17300000000E+03 0. -1.
         -6    1    1    2    0  503 -0.19613704838E+03  0.25755294094E+02  0.33072387084E+03  0.42242201134E+03  0.17300000000E+03 0. -1.
<mgrwt>
<rscale>  2 0.26279665E+03</rscale>
<asrwt>0</asrwt>
<pdfrwt beam="1">  1       21 0.16522029E+00 0.26279665E+03</pdfrwt>
<pdfrwt beam="2">  1       21 0.10862694E-01 0.26279665E+03</pdfrwt>
<totfact> 0.15458286E+04</totfact>
</mgrwt>
</event>
<event>
 4    1  0.4333905E+000  0.1755386E+03  0.7546771E-02  0.1172192E+00
         21   -1    0    0  501  502  0.00000000000E+00  0.00000000000E+00  0.44030059596E+03  0.44030059596E+03  0.00000000000E+00 0. -1.
         21   -1    0    0  502  503 -0.00000000000E+00 -0.00000000000E+00 -0.71612454281E+02  0.71612454281E+02  0.00000000000E+00 0.  1.
          6    1    1    2  501    0 -0.15061234703E+02 -0.25651014597E+02  0.14574163654E+03  0.22815442131E+03  0.17300000000E+03 0.  1.
         -6    1    1    2    0  503  0.15061234703E+02  0.25651014597E+02  0.22294650514E+03  0.28375862893E+03  0.17300000000E+03 0. -1.
<mgrwt>
<rscale>  2 0.17553864E+03</rscale>
<asrwt>0</asrwt>
<pdfrwt beam="1">  1       21 0.67738552E-01 0.17553864E+03</pdfrwt>
<pdfrwt beam="2">  1       21 0.11017301E-01 0.17553864E+03</pdfrwt>
<totfact> 0.13692748E+05</totfact>
</mgrwt>
</event>
<event>
 4    1  0.4333905E+000  0.2160358E+03  0.7546771E-02  0.1136874E+00
         21   -1    0    0  501  502  0.00000000000E+00  0.00000000000E+00  0.35272236069E+03  0.35272236069E+03  0.00000000000E+00 0.  1.
         21   -1    0    0  502  503 -0.00000000000E+00 -0.00000000000E+00 -0.14492390344E+03  0.14492390344E+03  0.00000000000E+00 0. -1.
          6    1    1    2  501    0  0.75094808738E+02 -0.10537180357E+03  0.17728487929E+03  0.27946623358E+03  0.17300000000E+03 0. -1.
         -6    1    1    2    0  503 -0.75094808738E+02  0.10537180357E+03  0.30513577965E+02  0.21818003054E+03  0.17300000000E+03 0.  1.
<mgrwt>
<rscale>  2 0.21603575E+03</rscale>
<asrwt>0</asrwt>
<pdfrwt beam="1">  1       21 0.54264978E-01 0.21603575E+03</pdfrwt>
<pdfrwt beam="2">  1       21 0.22295985E-01 0.21603575E+03</pdfrwt>
<totfact> 0.59760453E+04</totfact>
</mgrwt>
</event>
<event>
 4    1  0.4333905E+000  0.1908863E+03  0.7546771E-02  0.1157664E+00
         21   -1    0    0  501  502  0.00000000000E+00  0.00000000000E+00  0.61419649752E+03  0.61419649752E+03  0.00000000000E+00 0. -1.
         21   -1    0    0  502  503 -0.00000000000E+00 -0.00000000000E+00 -0.60179593627E+02  0.60179593627E+02  0.00000000000E+00 0. -1.
          6    1    1    2  501    0 -0.60316957024E+02  0.53576635384E+02  0.23684153757E+03  0.30418991614E+03  0.17300000000E+03 0. -1.
         -6    1    1    2    0  503  0.60316957024E+02 -0.53576635384E+02  0.31717536632E+03  0.37018617501E+03  0.17300000000E+03 0. -1.
<mgrwt>
<rscale>  2 0.19088633E+03</rscale>
<asrwt>0</asrwt>
<pdfrwt beam="1">  1       21 0.94491765E-01 0.19088633E+03</pdfrwt>
<pdfrwt beam="2">  1       21 0.92583994E-02 0.19088633E+03</pdfrwt>
<totfact> 0.87255137E+04</totfact>
</mgrwt>
</event>
<event>
 4    1  0.4333905E+000  0.2172630E+03  0.7546771E-02  0.1135940E+00
         21   -1    0    0  503  502  0.00000000000E+00  0.00000000000E+00  0.66723596082E+03  0.66723596082E+03  0.00000000000E+00 0.  1.
         21   -1    0    0  501  503 -0.00000000000E+00 -0.00000000000E+00 -0.10340907484E+03  0.10340907484E+03  0.00000000000E+00 0.  1.
          6    1    1    2  501    0 -0.11120910824E+03  0.70048229478E+02  0.65350518174E+02  0.22687862490E+03  0.17300000000E+03 0.  1.
         -6    1    1    2    0  502  0.11120910824E+03 -0.70048229478E+02  0.49847636780E+03  0.54376641076E+03  0.17300000000E+03 0.  1.
<mgrwt>
<rscale>  2 0.21726302E+03</rscale>
<asrwt>0</asrwt>
<pdfrwt beam="1">  1       21 0.10265168E+00 0.21726302E+03</pdfrwt>
<pdfrwt beam="2">  1       21 0.15909089E-01 0.21726302E+03</pdfrwt>
<totfact> 0.26794435E+04</totfact>
</mgrwt>
</event>
<event>
 4    1  0.4333905E+000  0.1962438E+03  0.7546771E-02  0.1152947E+00
         21   -1    0    0  501  502  0.00000000000E+00  0.00000000000E+00  0.31689924470E+03  0.31689924470E+03  0.00000000000E+00 0.  1.
         21   -1    0    0  502  503 -0.00000000000E+00 -0.00000000000E+00 -0.22406836165E+03  0.22406836165E+03  0.00000000000E+00 0.  1.
          6    1    1    2  501    0  0.59953939165E+02  0.70626853584E+02  0.22939466754E+03  0.30188332309E+03  0.17300000000E+03 0.  1.
         -6    1    1    2    0  503 -0.59953939165E+02 -0.70626853584E+02 -0.13656378448E+03  0.23908428326E+03  0.17300000000E+03 0.  1.
<mgrwt>
<rscale>  2 0.19624380E+03</rscale>
<asrwt>0</asrwt>
<pdfrwt beam="1">  1       21 0.48753730E-01 0.19624380E+03</pdfrwt>
<pdfrwt beam="2">  1       21 0.34472056E-01 0.19624380E+03</pdfrwt>
<totfact> 0.32507657E+04</totfact>
</mgrwt>
</event>
<event>
 4    1  0.4333905E+000  0.1853184E+03  0.7546771E-02  0.1162753E+00
         21   -1    0    0  503  502  0.00000000000E+00  0.00000000000E+00  0.10032761922E+04  0.10032761922E+04  0.00000000000E+00 0. -1.
         21   -1    0    0  501  503 -0.00000000000E+00 -0.00000000000E+00 -0.37724347311E+02  0.37724347311E+02  0.00000000000E+00 0.  1.
          6    1    1    2  501    0 -0.62166894261E+02  0.23434462232E+02  0.64117275712E+03  0.66741696206E+03  0.17300000000E+03 0. -1.
         -6    1    1    2    0  502  0.62166894261E+02 -0.23434462232E+02  0.32437908773E+03  0.37358357743E+03  0.17300000000E+03 0.  1.
<mgrwt>
<rscale>  2 0.18531837E+03</rscale>
<asrwt>0</asrwt>
<pdfrwt beam="1">  1       21 0.15435016E+00 0.18531837E+03</pdfrwt>
<pdfrwt beam="2">  1       21 0.58037465E-02 0.18531837E+03</pdfrwt>
<totfact> 0.58078536E+04</totfact>
</mgrwt>
</event>
<event>
 4    1  0.4333905E+000  0.1969783E+03  0.7546771E-02  0.1152314E+00
         21   -1    0    0  501  502  0.00000000000E+00  0.00000000000E+00  0.43142962729E+02  0.43142962729E+02  0.00000000000E+00 0. -1.
         21   -1    0    0  502  503 -0.00000000000E+00 -0.00000000000E+00 -0.90336307708E+03  0.90336307708E+03  0.00000000000E+00 0.  1.
          6    1    1    2  501    0 -0.48321224307E+02 -0.80848587498E+02 -0.39855001829E+03  0.44457007535E+03  0.17300000000E+03 0.  1.
         -6    1    1    2    0  503  0.48321224307E+02  0.80848587498E+02 -0.46167009607E+03  0.50193596446E+03  0.17300000000E+03 0. -1.
<mgrwt>
<rscale>  2 0.19697826E+03</rscale>
<asrwt>0</asrwt>
<pdfrwt beam="1">  1       21 0.66373785E-02 0.19697826E+03</pdfrwt>
<pdfrwt beam="2">  1       21 0.13897894E+00 0.19697826E+03</pdfrwt>
<totfact> 0.60321087E+04</totfact>
</mgrwt>
</event>
<event>
 4    1  0.4333905E+000  0.1943692E+03  0.7546771E-02  0.1154579E+00
         21   -1    0    0  503  502  0.00000000000E+00  0.00000000000E+00  0.54196217368E+03  0.54196217368E+03  0.00000000000E+00 0. -1.
         21   -1    0    0  501  503 -0.00000000000E+00 -0.00000000000E+00 -0.73957220071E+02  0.73957220071E+02  0.00000000000E+00 0. -1.
          6    1    1    2  501    0 -0.31371249813E+02  0.82862796852E+02  0.16018996389E+03  0.25187342644E+03  0.17300000000E+03 0. -1.
         -6    1    1    2    0  502  0.31371249813E+02 -0.82862796852E+02  0.30781498972E+03  0.36404596731E+03  0.17300000000E+03 0. -1.
<mgrwt>
<rscale>  2 0.19436923E+03</rscale>
<asrwt>0</asrwt>
<pdfrwt beam="1">  1       21 0.83378794E-01 0.19436923E+03</pdfrwt>
<pdfrwt beam="2">  1       21 0.11378034E-01 0.19436923E+03</pdfrwt>
<totfact> 0.80744651E+04</totfact>
</mgrwt>
</event>
<event>
 4    1  0.4333905E+000  0.1962995E+03  0.7546771E-02  0.1152899E+00
         21   -1    0    0  503  502  0.00000000000E+00  0.00000000000E+00  0.18261097460E+04  0.18261097460E+04  0.00000000000E+00 0.  1.
         21   -1    0    0  501  503 -0.00000000000E+00 -0.00000000000E+00 -0.25100819710E+02  0.25100819710E+02  0.00000000000E+00 0.  1.
          6    1    1    2  501    0 -0.82396530134E+02 -0.42606374951E+02  0.53103394147E+03  0.56615416483E+03  0.17300000000E+03 0.  1.
         -6    1    1    2    0  502  0.82396530134E+02  0.42606374951E+02  0.12699749848E+04  0.12850564009E+04  0.17300000000E+03 0.  1.
<mgrwt>
<rscale>  2 0.19629949E+03</rscale>
<asrwt>0</asrwt>
<pdfrwt beam="1">  1       21 0.28093986E+00 0.19629949E+03</pdfrwt>
<pdfrwt beam="2">  1       21 0.38616660E-02 0.19629949E+03</pdfrwt>
<totfact> 0.18203748E+04</totfact>
</mgrwt>
</event>
<event>
 4    1  0.4333905E+000  0.2072700E+03  0.7546771E-02  0.1143746E+00
         21   -1    0    0  501  502  0.00000000000E+00  0.00000000000E+00  0.31448781711E+04  0.31448781711E+04  0.00000000000E+00 0.  1.
         21   -1    0    0  502  503 -0.00000000000E+00 -0.00000000000E+00 -0.72861447477E+02  0.72861447477E+02  0.00000000000E+00 0.  1.
          6    1    1    2  501    0 -0.48132178812E+02  0.10351393527E+03  0.29862356124E+04  0.29934201133E+04  0.17300000000E+03 0.  1.
         -6    1    1    2    0  503  0.48132178812E+02 -0.10351393527E+03  0.85781111185E+02  0.22431950532E+03  0.17300000000E+03 0.  1.
<mgrwt>
<rscale>  2 0.20726997E+03</rscale>
<asrwt>0</asrwt>
<pdfrwt beam="1">  1       21 0.48382731E+00 0.20726997E+03</pdfrwt>
<pdfrwt beam="2">  1       21 0.11209456E-01 0.20726997E+03</pdfrwt>
<totfact> 0.15863454E+02</totfact>
</mgrwt>
</event>
<event>
 4    1  0.4333905E+000  0.1730649E+03  0.7546771E-02  0.1174689E+00
         21   -1    0    0  501  502  0.00000000000E+00  0.00000000000E+00  0.17509369687E+02  0.17509369687E+02  0.00000000000E+00 0. -1.
         21   -1    0    0  502  503 -0.00000000000E+00 -0.00000000000E+00 -0.19104965622E+04  0.19104965622E+04  0.00000000000E+00 0. -1.
          6    1    1    2  501    0 -0.34118567543E+01 -0.32878233039E+01 -0.63466733019E+03  0.65784045981E+03  0.17300000000E+03 0. -1.
         -6    1    1    2    0  503  0.34118567543E+01  0.32878233039E+01 -0.12583198624E+04  0.12701654721E+04  0.17300000000E+03 0. -1.
<mgrwt>
<rscale>  2 0.17306487E+03</rscale>
<asrwt>0</asrwt>
<pdfrwt beam="1">  1       21 0.26937495E-02 0.17306487E+03</pdfrwt>
<pdfrwt beam="2">  1       21 0.29392251E+00 0.17306487E+03</pdfrwt>
<totfact> 0.28510043E+04</totfact>
</mgrwt>
</event>
<event>
 4    1  0.4333905E+000  0.1786980E+03  0.7546771E-02  0.1169069E+00
         21   -1    0    0  503  502  0.00000000000E+00  0.00000000000E+00  0.22239873751E+03  0.22239873751E+03  0.00000000000E+00 0. -1.
         21   -1    0    0  501  503 -0.00000000000E+00 -0.00000000000E+00 -0.14358617730E+03  0.14358617730E+03  0.00000000000E+00 0. -1.
          6    1    1    2  501    0  0.20820771308E+02  0.39629114437E+02  0.38747928272E+02  0.18285068546E+03  0.17300000000E+03 0.  1.
         -6    1    1    2    0  502 -0.20820771308E+02 -0.39629114437E+02  0.40064631936E+02  0.18313422935E+03  0.17300000000E+03 0.  1.
<mgrwt>
<rscale>  2 0.17869799E+03</rscale>
<asrwt>0</asrwt>
<pdfrwt beam="1">  1       21 0.34215190E-01 0.17869799E+03</pdfrwt>
<pdfrwt beam="2">  1       21 0.22090181E-01 0.17869799E+03</pdfrwt>
<totfact> 0.15836061E+05</totfact>
</mgrwt>
</event>
<event>
 4    1  0.4333905E+000  0.2152664E+03  0.7546771E-02  0.1137462E+00
         21   -1    0    0  503  502  0.00000000000E+00  0.00000000000E+00  0.61495411858E+03  0.61495411858E+03  0.00000000000E+00 0.  1.
         21   -1    0    0  501  503 -0.00000000000E+00 -0.00000000000E+00 -0.77449050022E+02  0.77449050022E+02  0.00000000000E+00 0. -1.
          6    1    1    2  501    0 -0.17698810131E+00 -0.12810389946E+03  0.32568406249E+03  0.39039691205E+03  0.17300000000E+03 0.  1.
         -6    1    1    2    0  502  0.17698810131E+00  0.12810389946E+03  0.21182100607E+03  0.30200625655E+03  0.17300000000E+03 0. -1.
<mgrwt>
<rscale>  2 0.21526644E+03</rscale>
<asrwt>0</asrwt>
<pdfrwt beam="1">  1       21 0.94608323E-01 0.21526644E+03</pdfrwt>
<pdfrwt beam="2">  1       21 0.11915239E-01 0.21526644E+03</pdfrwt>
<totfact> 0.54977727E+04</totfact>
</mgrwt>
</event>
<event>
 4    1  0.4333905E+000  0.1967021E+03  0.7546771E-02  0.1152552E+00
         21   -1    0    0  501  502  0.00000000000E+00  0.00000000000E+00  0.22140793285E+03  0.22140793285E+03  0.00000000000E+00 0.  1.
         21   -1    0    0  502  503 -0.00000000000E+00 -0.00000000000E+00 -0.17656692436E+03  0.17656692436E+03  0.00000000000E+00 0. -1.
          6    1    1    2  501    0  0.12723986205E+02  0.92740650431E+02  0.42588634552E+02  0.20125983171E+03  0.17300000000E+03 0.  1.
         -6    1    1    2    0  503 -0.12723986205E+02 -0.92740650431E+02  0.22523739369E+01  0.19671502550E+03  0.17300000000E+03 0. -1.
<mgrwt>
<rscale>  2 0.19670213E+03</rscale>
<asrwt>0</asrwt>
<pdfrwt beam="1">  1       21 0.34062759E-01 0.19670213E+03</pdfrwt>
<pdfrwt beam="2">  1       21 0.27164142E-01 0.19670213E+03</pdfrwt>
<totfact> 0.10710344E+05</totfact>
</mgrwt>
</event>
<event>
 4    1  0.4333905E+000  0.2083447E+03  0.7546771E-02  0.1142884E+00
         21   -1    0    0  503  502  0.00000000000E+00  0.00000000000E+00  0.43244655075E+03  0.43244655075E+03  0.00000000000E+00 0. -1.
         21   -1    0    0  501  503 -0.00000000000E+00 -0.00000000000E+00 -0.23489658900E+03  0.23489658900E+03  0.00000000000E+00 0. -1.
          6    1    1    2  501    0  0.50710599288E+02 -0.10443629537E+03 -0.15373252810E+03  0.25892314471E+03  0.17300000000E+03 0. -1.
         -6    1    1    2    0  502 -0.50710599288E+02  0.10443629537E+03  0.35128248985E+03  0.40841999504E+03  0.17300000000E+03 0. -1.
<mgrwt>
<rscale>  2 0.20834468E+03</rscale>
<asrwt>0</asrwt>
<pdfrwt beam="1">  1       21 0.66530238E-01 0.20834468E+03</pdfrwt>
<pdfrwt beam="2">  1       21 0.36137937E-01 0.20834468E+03</pdfrwt>
<totfact> 0.15146412E+04</totfact>
</mgrwt>
</event>
<event>
 4    1  0.4333905E+000  0.1755761E+03  0.7546771E-02  0.1172154E+00
         21   -1    0    0  501  502  0.00000000000E+00  0.00000000000E+00  0.62947022200E+02  0.62947022200E+02  0.00000000000E+00 0.  1.
         21   -1    0    0  502  503 -0.00000000000E+00 -0.00000000000E+00 -0.66063440045E+03  0.66063440045E+03  0.00000000000E+00 0.  1.
          6    1    1    2  501    0 -0.47496738051E+01  0.29587532743E+02 -0.11482805257E+03  0.20979147540E+03  0.17300000000E+03 0.  1.
         -6    1    1    2    0  503  0.47496738051E+01 -0.29587532743E+02 -0.48285932568E+03  0.51378994724E+03  0.17300000000E+03 0.  1.
<mgrwt>
<rscale>  2 0.17557614E+03</rscale>
<asrwt>0</asrwt>
<pdfrwt beam="1">  1       21 0.96841566E-02 0.17557614E+03</pdfrwt>
<pdfrwt beam="2">  1       21 0.10163607E+00 0.17557614E+03</pdfrwt>
<totfact> 0.68366947E+04</totfact>
</mgrwt>
</event>
<event>
 4    1  0.4333905E+000  0.1846608E+03  0.7546771E-02  0.1163367E+00
         21   -1    0    0  503  502  0.00000000000E+00  0.00000000000E+00  0.10315100525E+04  0.10315100525E+04  0.00000000000E+00 0. -1.
         21   -1    0    0  501  503 -0.00000000000E+00 -0.00000000000E+00 -0.15545148993E+03  0.15545148993E+03  0.00000000000E+00 0. -1.
          6    1    1    2  501    0  0.40190262358E+02  0.50550622157E+02 -0.88579904446E+02  0.20480728029E+03  0.17300000000E+03 0. -1.
         -6    1    1    2    0  502 -0.40190262358E+02 -0.50550622157E+02  0.96463846702E+03  0.98215426214E+03  0.17300000000E+03 0. -1.
<mgrwt>
<rscale>  2 0.18466083E+03</rscale>
<asrwt>0</asrwt>
<pdfrwt beam="1">  1       21 0.15869385E+00 0.18466083E+03</pdfrwt>
<pdfrwt beam="2">  1       21 0.23915614E-01 0.18466083E+03</pdfrwt>
<totfact> 0.42711295E+03</totfact>
</mgrwt>
</event>
<event>
 4    1  0.4333905E+000  0.2065919E+03  0.7546771E-02  0.1144294E+00
         21   -1    0    0  501  502  0.00000000000E+00  0.00000000000E+00  0.50593920538E+02  0.50593920538E+02  0.00000000000E+00 0. -1.
         21   -1    0    0  502  503 -0.00000000000E+00 -0.00000000000E+00 -0.85606324596E+03  0.85606324596E+03  0.00000000000E+00 0.  1.
          6    1    1    2  501    0 -0.47312841777E+02 -0.10253141071E+03 -0.34799986387E+03  0.40470248385E+03  0.17300000000E+03 0. -1.
         -6    1    1    2    0  503  0.47312841777E+02  0.10253141071E+03 -0.45746946155E+03  0.50195468265E+03  0.17300000000E+03 0.  1.
<mgrwt>
<rscale>  2 0.20659186E+03</rscale>
<asrwt>0</asrwt>
<pdfrwt beam="1">  1       21 0.77836807E-02 0.20659186E+03</pdfrwt>
<pdfrwt beam="2">  1       21 0.13170203E+00 0.20659186E+03</pdfrwt>
<totfact> 0.52252836E+04</totfact>
</mgrwt>
</event>
<event>
 4    1  0.4333905E+000  0.1804160E+03  0.7546771E-02  0.1167401E+00
         21   -1    0    0  501  502  0.00000000000E+00  0.00000000000E+00  0.92461450341E+03  0.92461450341E+03  0.00000000000E+00 0. -1.
         21   -1    0    0  502  503 -0.00000000000E+00 -0.00000000000E+00 -0.35206305803E+02  0.35206305803E+02  0.00000000000E+00 0. -1.
          6    1    1    2  501    0 -0.50742253397E+02 -0.67926841528E+01  0.44877658303E+03  0.48368413072E+03  0.17300000000E+03 0. -1.
         -6    1    1    2    0  503  0.50742253397E+02  0.67926841528E+01  0.44063161458E+03  0.47613667849E+03  0.17300000000E+03 0. -1.
<mgrwt>
<rscale>  2 0.18041596E+03</rscale>
<asrwt>0</asrwt>
<pdfrwt beam="1">  1       21 0.14224837E+00 0.18041596E+03</pdfrwt>
<pdfrwt beam="2">  1       21 0.54163554E-02 0.18041596E+03</pdfrwt>
<totfact> 0.81111062E+04</totfact>
</mgrwt>
</event>
<event>
 4    1  0.4333905E+000  0.1899022E+03  0.7546771E-02  0.1158550E+00
         21   -1    0    0  501  502  0.00000000000E+00  0.00000000000E+00  0.26829124055E+03  0.26829124055E+03  0.00000000000E+00 0.  1.
         21   -1    0    0  502  503 -0.00000000000E+00 -0.00000000000E+00 -0.38223761824E+03  0.38223761824E+03  0.00000000000E+00 0.  1.
          6    1    1    2  501    0 -0.63787532953E+02 -0.45442027251E+02  0.20492881817E+03  0.27938977740E+03  0.17300000000E+03 0.  1.
         -6    1    1    2    0  503  0.63787532953E+02  0.45442027251E+02 -0.31887519586E+03  0.37113908139E+03  0.17300000000E+03 0.  1.
<mgrwt>
<rscale>  2 0.18990215E+03</rscale>
<asrwt>0</asrwt>
<pdfrwt beam="1">  1       21 0.41275576E-01 0.18990215E+03</pdfrwt>
<pdfrwt beam="2">  1       21 0.58805787E-01 0.18990215E+03</pdfrwt>
<totfact> 0.15318719E+04</totfact>
</mgrwt>
</event>
<event>
 4    1  0.4333905E+000  0.1775022E+03  0.7546771E-02  0.1170243E+00
         21   -1    0    0  501  502  0.00000000000E+00  0.00000000000E+00  0.58729207680E+03  0.58729207680E+03  0.00000000000E+00 0. -1.
         21   -1    0    0  502  503 -0.00000000000E+00 -0.00000000000E+00 -0.58896638647E+02  0.58896638647E+02  0.00000000000E+00 0. -1.
          6    1    1    2  501    0 -0.11627777336E+01 -0.39707205427E+02  0.36064936618E+03  0.40196390328E+03  0.17300000000E+03 0. -1.
         -6    1    1    2    0  503  0.11627777336E+01  0.39707205427E+02  0.16774607197E+03  0.24422481216E+03  0.17300000000E+03 0. -1.
<mgrwt>
<rscale>  2 0.17750215E+03</rscale>
<asrwt>0</asrwt>
<pdfrwt beam="1">  1       21 0.90352623E-01 0.17750215E+03</pdfrwt>
<pdfrwt beam="2">  1       21 0.90610217E-02 0.17750215E+03</pdfrwt>
<totfact> 0.10111501E+05</totfact>
</mgrwt>
</event>
<event>
 4    1  0.4333905E+000  0.1852671E+03  0.7546771E-02  0.1162801E+00
         21   -1    0    0  503  502  0.00000000000E+00  0.00000000000E+00  0.63492713216E+03  0.63492713216E+03  0.00000000000E+00 0.  1.
         21   -1    0    0  501  503 -0.00000000000E+00 -0.00000000000E+00 -0.69079036275E+02  0.69079036275E+02  0.00000000000E+00 0.  1.
          6    1    1    2  501    0 -0.24306519269E+02  0.61677374503E+02  0.44705866326E+03  0.48392701289E+03  0.17300000000E+03 0.  1.
         -6    1    1    2    0  502  0.24306519269E+02 -0.61677374503E+02  0.11878943263E+03  0.22007915555E+03  0.17300000000E+03 0.  1.
<mgrwt>
<rscale>  2 0.18526712E+03</rscale>
<asrwt>0</asrwt>
<pdfrwt beam="1">  1       21 0.97681094E-01 0.18526712E+03</pdfrwt>
<pdfrwt beam="2">  1       21 0.10627544E-01 0.18526712E+03</pdfrwt>
<totfact> 0.63437906E+04</totfact>
</mgrwt>
</event>
<event>
 4    1  0.4333905E+000  0.1907956E+03  0.7546771E-02  0.1157746E+00
         21   -1    0    0  501  502  0.00000000000E+00  0.00000000000E+00  0.26642341746E+02  0.26642341746E+02  0.00000000000E+00 0. -1.
         21   -1    0    0  502  503 -0.00000000000E+00 -0.00000000000E+00 -0.16658976086E+04  0.16658976086E+04  0.00000000000E+00 0. -1.
          6    1    1    2  501    0  0.79500438558E+02  0.12395518430E+02 -0.46077830991E+03  0.49871797591E+03  0.17300000000E+03 0. -1.
         -6    1    1    2    0  503 -0.79500438558E+02 -0.12395518430E+02 -0.11784769570E+04  0.11938219745E+04  0.17300000000E+03 0. -1.
<mgrwt>
<rscale>  2 0.19079562E+03</rscale>
<asrwt>0</asrwt>
<pdfrwt beam="1">  1       21 0.40988224E-02 0.19079562E+03</pdfrwt>
<pdfrwt beam="2">  1       21 0.25629190E+00 0.19079562E+03</pdfrwt>
<totfact> 0.23010822E+04</totfact>
</mgrwt>
</event>
<event>
 4    1  0.4333905E+000  0.1752399E+03  0.7546771E-02  0.1172491E+00
         21   -1    0    0  501  502  0.00000000000E+00  0.00000000000E+00  0.19939695170E+03  0.19939695170E+03  0.00000000000E+00 0. -1.
         21   -1    0    0  502  503 -0.00000000000E+00 -0.00000000000E+00 -0.44105623796E+03  0.44105623796E+03  0.00000000000E+00 0. -1.
          6    1    1    2  501    0  0.71993954269E+01 -0.26985115464E+02  0.13750741504E+03  0.22274944880E+03  0.17300000000E+03 0. -1.
         -6    1    1    2    0  503 -0.71993954269E+01  0.26985115464E+02 -0.37916670130E+03  0.41770374085E+03  0.17300000000E+03 0. -1.
<mgrwt>
<rscale>  2 0.17523991E+03</rscale>
<asrwt>0</asrwt>
<pdfrwt beam="1">  1       21 0.30676454E-01 0.17523991E+03</pdfrwt>
<pdfrwt beam="2">  1       21 0.67854806E-01 0.17523991E+03</pdfrwt>
<totfact> 0.20457146E+04</totfact>
</mgrwt>
</event>
<event>
 4    1  0.4333905E+000  0.1883286E+03  0.7546771E-02  0.1159978E+00
         21   -1    0    0  503  502  0.00000000000E+00  0.00000000000E+00  0.17664446058E+03  0.17664446058E+03  0.00000000000E+00 0. -1.
         21   -1    0    0  501  503 -0.00000000000E+00 -0.00000000000E+00 -0.30936583038E+03  0.30936583038E+03  0.00000000000E+00 0. -1.
          6    1    1    2  501    0  0.42684764054E+02 -0.60964540197E+02 -0.21032493995E+03  0.28231940176E+03  0.17300000000E+03 0. -1.
         -6    1    1    2    0  502 -0.42684764054E+02  0.60964540197E+02  0.77603570155E+02  0.20369088920E+03  0.17300000000E+03 0. -1.
<mgrwt>
<rscale>  2 0.18832861E+03</rscale>
<asrwt>0</asrwt>
<pdfrwt beam="1">  1       21 0.27176071E-01 0.18832861E+03</pdfrwt>
<pdfrwt beam="2">  1       21 0.47594742E-01 0.18832861E+03</pdfrwt>
<totfact> 0.54592644E+04</totfact>
</mgrwt>
</event>
<event>
 4    1  0.4333905E+000  0.1809691E+03  0.7546771E-02  0.1166868E+00
         21   -1    0    0  501  502  0.00000000000E+00  0.00000000000E+00  0.16807091350E+03  0.16807091350E+03  0.00000000000E+00 0. -1.
         21   -1    0    0  502  503 -0.00000000000E+00 -0.00000000000E+00 -0.21647491358E+03  0.21647491358E+03  0.00000000000E+00 0. -1.
          6    1    1    2  501    0  0.38143806680E+02  0.36957575347E+02  0.36558328013E+02  0.18462481878E+03  0.17300000000E+03 0. -1.
         -6    1    1    2    0  503 -0.38143806680E+02 -0.36957575347E+02 -0.84962328092E+02  0.19992100830E+03  0.17300000000E+03 0. -1.
<mgrwt>
<rscale>  2 0.18096909E+03</rscale>
<asrwt>0</asrwt>
<pdfrwt beam="1">  1       21 0.25857064E-01 0.18096909E+03</pdfrwt>
<pdfrwt beam="2">  1       21 0.33303833E-01 0.18096909E+03</pdfrwt>
<totfact> 0.12379742E+05</totfact>
</mgrwt>
</event>
<event>
 4    1  0.4333905E+000  0.1951530E+03  0.7546771E-02  0.1153894E+00
         21   -1    0    0  501  502  0.00000000000E+00  0.00000000000E+00  0.78905312746E+02  0.78905312746E+02  0.00000000000E+00 0. -1.
         21   -1    0    0  502  503 -0.00000000000E+00 -0.00000000000E+00 -0.56343235776E+03  0.56343235776E+03  0.00000000000E+00 0. -1.
          6    1    1    2  501    0  0.84838234748E+02  0.30954270795E+02 -0.36386397924E+03  0.41289428228E+03  0.17300000000E+03 0. -1.
         -6    1    1    2    0  503 -0.84838234748E+02 -0.30954270795E+02 -0.12066306577E+03  0.22944338822E+03  0.17300000000E+03 0. -1.
<mgrwt>
<rscale>  2 0.19515300E+03</rscale>
<asrwt>0</asrwt>
<pdfrwt beam="1">  1       21 0.12139279E-01 0.19515300E+03</pdfrwt>
<pdfrwt beam="2">  1       21 0.86681900E-01 0.19515300E+03</pdfrwt>
<totfact> 0.65778477E+04</totfact>
</mgrwt>
</event>
<event>
 4    1  0.4333905E+000  0.1830112E+03  0.7546771E-02  0.1164920E+00
         21   -1    0    0  503  502  0.00000000000E+00  0.00000000000E+00  0.19272806838E+03  0.19272806838E+03  0.00000000000E+00 0. -1.
         21   -1    0    0  501  503 -0.00000000000E+00 -0.00000000000E+00 -0.22787242883E+03  0.22787242883E+03  0.00000000000E+00 0. -1.
          6    1    1    2  501    0  0.25655747773E+02  0.53906064843E+02 -0.12003009779E+03  0.21886138443E+03  0.17300000000E+03 0. -1.
         -6    1    1    2    0  502 -0.25655747773E+02 -0.53906064843E+02  0.84885737333E+02  0.20173911278E+03  0.17300000000E+03 0. -1.
<mgrwt>
<rscale>  2 0.18301115E+03</rscale>
<asrwt>0</asrwt>
<pdfrwt beam="1">  1       21 0.29650472E-01 0.18301115E+03</pdfrwt>
<pdfrwt beam="2">  1       21 0.35057297E-01 0.18301115E+03</pdfrwt>
<totfact> 0.85841596E+04</totfact>
</mgrwt>
</event>
<event>
 4    1  0.4333905E+000  0.1743243E+03  0.7546771E-02  0.1173412E+00
         21   -1    0    0  501  502  0.00000000000E+00  0.00000000000E+00  0.25316405174E+03  0.25316405174E+03  0.00000000000E+00 0.  1.
         21   -1    0    0  502  503 -0.00000000000E+00 -0.00000000000E+00 -0.20378110655E+03  0.20378110655E+03  0.00000000000E+00 0.  1.
          6    1    1    2  501    0  0.14188809857E+02 -0.16081967800E+02  0.17115527006E+03  0.24430120442E+03  0.17300000000E+03 0.  1.
         -6    1    1    2    0  503 -0.14188809857E+02  0.16081967800E+02 -0.12177232487E+03  0.21264395387E+03  0.17300000000E+03 0.  1.
<mgrwt>
<rscale>  2 0.17432427E+03</rscale>
<asrwt>0</asrwt>
<pdfrwt beam="1">  1       21 0.38948316E-01 0.17432427E+03</pdfrwt>
<pdfrwt beam="2">  1       21 0.31350940E-01 0.17432427E+03</pdfrwt>
<totfact> 0.62653268E+04</totfact>
</mgrwt>
</event>
<event>
 4    1  0.4333905E+000  0.2255833E+03  0.7546771E-02  0.1129788E+00
         21   -1    0    0  503  502  0.00000000000E+00  0.00000000000E+00  0.54531777653E+03  0.54531777653E+03  0.00000000000E+00 0. -1.
         21   -1    0    0  501  503 -0.00000000000E+00 -0.00000000000E+00 -0.94049957455E+02  0.94049957455E+02  0.00000000000E+00 0.  1.
          6    1    1    2  501    0 -0.39170500742E+01  0.14471868422E+03  0.25384055721E+03  0.33959221035E+03  0.17300000000E+03 0. -1.
         -6    1    1    2    0  502  0.39170500742E+01 -0.14471868422E+03  0.19742726186E+03  0.29977552364E+03  0.17300000000E+03 0.  1.
<mgrwt>
<rscale>  2 0.22558333E+03</rscale>
<asrwt>0</asrwt>
<pdfrwt beam="1">  1       21 0.83895040E-01 0.22558333E+03</pdfrwt>
<pdfrwt beam="2">  1       21 0.14469225E-01 0.22558333E+03</pdfrwt>
<totfact> 0.50899771E+04</totfact>
</mgrwt>
</event>
<event>
 4    1  0.4333905E+000  0.2225166E+03  0.7546771E-02  0.1132021E+00
         21   -1    0    0  501  502  0.00000000000E+00  0.00000000000E+00  0.24074490028E+03  0.24074490028E+03  0.00000000000E+00 0. -1.
         21   -1    0    0  502  503 -0.00000000000E+00 -0.00000000000E+00 -0.32672347266E+03  0.32672347266E+03  0.00000000000E+00 0.  1.
          6    1    1    2  501    0  0.71172649150E+02 -0.12049514157E+03  0.12971890846E+03  0.25756672988E+03  0.17300000000E+03 0. -1.
         -6    1    1    2    0  503 -0.71172649150E+02  0.12049514157E+03 -0.21569748084E+03  0.30990164306E+03  0.17300000000E+03 0.  1.
<mgrwt>
<rscale>  2 0.22251657E+03</rscale>
<asrwt>0</asrwt>
<pdfrwt beam="1">  1       21 0.37037677E-01 0.22251657E+03</pdfrwt>
<pdfrwt beam="2">  1       21 0.50265150E-01 0.22251657E+03</pdfrwt>
<totfact> 0.26065407E+04</totfact>
</mgrwt>
</event>
<event>
 4    1  0.4333905E+000  0.1761879E+03  0.7546771E-02  0.1171544E+00
         21   -1    0    0  501  502  0.00000000000E+00  0.00000000000E+00  0.74386784131E+03  0.74386784131E+03  0.00000000000E+00 0.  1.
         21   -1    0    0  502  503 -0.00000000000E+00 -0.00000000000E+00 -0.42686563533E+02  0.42686563533E+02  0.00000000000E+00 0.  1.
          6    1    1    2  501    0  0.30728552345E+02  0.12997542954E+02  0.29174225643E+03  0.34081626170E+03  0.17300000000E+03 0. -1.
         -6    1    1    2    0  503 -0.30728552345E+02 -0.12997542954E+02  0.40943902135E+03  0.44573814315E+03  0.17300000000E+03 0. -1.
<mgrwt>
<rscale>  2 0.17618791E+03</rscale>
<asrwt>0</asrwt>
<pdfrwt beam="1">  1       21 0.11444120E+00 0.17618791E+03</pdfrwt>
<pdfrwt beam="2">  1       21 0.65671642E-02 0.17618791E+03</pdfrwt>
<totfact> 0.10088845E+05</totfact>
</mgrwt>
</event>
<event>
 4    1  0.4333905E+000  0.2121607E+03  0.7546771E-02  0.1139866E+00
         21   -1    0    0  501  502  0.00000000000E+00  0.00000000000E+00  0.24673646906E+03  0.24673646906E+03  0.00000000000E+00 0. -1.
         21   -1    0    0  502  503 -0.00000000000E+00 -0.00000000000E+00 -0.18584343672E+03  0.18584343672E+03  0.00000000000E+00 0. -1.
          6    1    1    2  501    0  0.96311640418E+02 -0.76205141877E+02  0.11340019432E+01  0.21216371436E+03  0.17300000000E+03 0. -1.
         -6    1    1    2    0  503 -0.96311640418E+02  0.76205141877E+02  0.59759030397E+02  0.22041619143E+03  0.17300000000E+03 0. -1.
<mgrwt>
<rscale>  2 0.21216068E+03</rscale>
<asrwt>0</asrwt>
<pdfrwt beam="1">  1       21 0.37959457E-01 0.21216068E+03</pdfrwt>
<pdfrwt beam="2">  1       21 0.28591298E-01 0.21216068E+03</pdfrwt>
<totfact> 0.77658783E+04</totfact>
</mgrwt>
</event>
<event>
 4    1  0.4333905E+000  0.1795965E+03  0.7546771E-02  0.1168194E+00
         21   -1    0    0  503  502  0.00000000000E+00  0.00000000000E+00  0.45110638140E+02  0.45110638140E+02  0.00000000000E+00 0. -1.
         21   -1    0    0  501  503 -0.00000000000E+00 -0.00000000000E+00 -0.11076416479E+04  0.11076416479E+04  0.00000000000E+00 0. -1.
          6    1    1    2  501    0 -0.63158790752E+01  0.47812289276E+02 -0.87442399107E+03  0.89267699730E+03  0.17300000000E+03 0. -1.
         -6    1    1    2    0  502  0.63158790752E+01 -0.47812289276E+02 -0.18810701867E+03  0.26007528873E+03  0.17300000000E+03 0. -1.
<mgrwt>
<rscale>  2 0.17959651E+03</rscale>
<asrwt>0</asrwt>
<pdfrwt beam="1">  1       21 0.69400985E-02 0.17959651E+03</pdfrwt>
<pdfrwt beam="2">  1       21 0.17040640E+00 0.17959651E+03</pdfrwt>
<totfact> 0.32822909E+04</totfact>
</mgrwt>
</event>
<event>
 4    1  0.4333905E+000  0.1818478E+03  0.7546771E-02  0.1166027E+00
         21   -1    0    0  503  502  0.00000000000E+00  0.00000000000E+00  0.87226703134E+03  0.87226703134E+03  0.00000000000E+00 0.  1.
         21   -1    0    0  501  503 -0.00000000000E+00 -0.00000000000E+00 -0.42085442563E+02  0.42085442563E+02  0.00000000000E+00 0.  1.
          6    1    1    2  501    0 -0.21110145453E+02 -0.51903729486E+02  0.27110826760E+03  0.32644804815E+03  0.17300000000E+03 0. -1.
         -6    1    1    2    0  502  0.21110145453E+02  0.51903729486E+02  0.55907332118E+03  0.58790442576E+03  0.17300000000E+03 0. -1.
<mgrwt>
<rscale>  2 0.18184784E+03</rscale>
<asrwt>0</asrwt>
<pdfrwt beam="1">  1       21 0.13419491E+00 0.18184784E+03</pdfrwt>
<pdfrwt beam="2">  1       21 0.64746842E-02 0.18184784E+03</pdfrwt>
<totfact> 0.69385669E+04</totfact>
</mgrwt>
</event>
<event>
 4    1  0.4333905E+000  0.1880107E+03  0.7546771E-02  0.1160268E+00
         21   -1    0    0  503  502  0.00000000000E+00  0.00000000000E+00  0.22557346773E+03  0.22557346773E+03  0.00000000000E+00 0.  1.
         21   -1    0    0  501  503 -0.00000000000E+00 -0.00000000000E+00 -0.23980356750E+03  0.23980356750E+03  0.00000000000E+00 0.  1.
          6    1    1    2  501    0 -0.52351203278E+02 -0.51753023815E+02 -0.14409257127E+03  0.23687695762E+03  0.17300000000E+03 0.  1.
         -6    1    1    2    0  502  0.52351203278E+02  0.51753023815E+02  0.12986247150E+03  0.22850007760E+03  0.17300000000E+03 0.  1.
<mgrwt>
<rscale>  2 0.18801070E+03</rscale>
<asrwt>0</asrwt>
<pdfrwt beam="1">  1       21 0.34703611E-01 0.18801070E+03</pdfrwt>
<pdfrwt beam="2">  1       21 0.36892856E-01 0.18801070E+03</pdfrwt>
<totfact> 0.56828749E+04</totfact>
</mgrwt>
</event>
<event>
 4    1  0.4333905E+000  0.2494602E+03  0.7546771E-02  0.1113646E+00
         21   -1    0    0  501  502  0.00000000000E+00  0.00000000000E+00  0.30230816810E+03  0.30230816810E+03  0.00000000000E+00 0. -1.
         21   -1    0    0  502  503 -0.00000000000E+00 -0.00000000000E+00 -0.21791847731E+03  0.21791847731E+03  0.00000000000E+00 0.  1.
          6    1    1    2  501    0  0.16166088803E+03 -0.78531040669E+02 -0.19015957903E+02  0.25018387982E+03  0.17300000000E+03 0.  1.
         -6    1    1    2    0  503 -0.16166088803E+03  0.78531040669E+02  0.10340564869E+03  0.27004276559E+03  0.17300000000E+03 0. -1.
<mgrwt>
<rscale>  2 0.24946015E+03</rscale>
<asrwt>0</asrwt>
<pdfrwt beam="1">  1       21 0.46508949E-01 0.24946015E+03</pdfrwt>
<pdfrwt beam="2">  1       21 0.33525920E-01 0.24946015E+03</pdfrwt>
<totfact> 0.36924644E+04</totfact>
</mgrwt>
</event>
<event>
 4    1  0.4333905E+000  0.1797266E+03  0.7546771E-02  0.1168068E+00
         21   -1    0    0  503  502  0.00000000000E+00  0.00000000000E+00  0.58692157491E+02  0.58692157491E+02  0.00000000000E+00 0.  1.
         21   -1    0    0  501  503 -0.00000000000E+00 -0.00000000000E+00 -0.70530647523E+03  0.70530647523E+03  0.00000000000E+00 0.  1.
          6    1    1    2  501    0  0.30439084255E+02  0.38027798468E+02 -0.50235472771E+03  0.53353718124E+03  0.17300000000E+03 0.  1.
         -6    1    1    2    0  502 -0.30439084255E+02 -0.38027798468E+02 -0.14425959003E+03  0.23046145149E+03  0.17300000000E+03 0.  1.
<mgrwt>
<rscale>  2 0.17972660E+03</rscale>
<asrwt>0</asrwt>
<pdfrwt beam="1">  1       21 0.90295630E-02 0.17972660E+03</pdfrwt>
<pdfrwt beam="2">  1       21 0.10850869E+00 0.17972660E+03</pdfrwt>
<totfact> 0.65960671E+04</totfact>
</mgrwt>
</event>
<event>
 4    1  0.4333905E+000  0.2598585E+03  0.7546771E-02  0.1107228E+00
         21   -1    0    0  503  502  0.00000000000E+00  0.00000000000E+00  0.14294080589E+03  0.14294080589E+03  0.00000000000E+00 0. -1.
         21   -1    0    0  501  503 -0.00000000000E+00 -0.00000000000E+00 -0.47242995415E+03  0.47242995415E+03  0.00000000000E+00 0.  1.
          6    1    1    2  501    0 -0.18658040474E+03  0.52775116557E+02 -0.16267405374E+03  0.30657675730E+03  0.17300000000E+03 0.  1.
         -6    1    1    2    0  502  0.18658040474E+03 -0.52775116557E+02 -0.16681509453E+03  0.30879400273E+03  0.17300000000E+03 0.  1.
<mgrwt>
<rscale>  2 0.25985854E+03</rscale>
<asrwt>0</asrwt>
<pdfrwt beam="1">  1       21 0.21990894E-01 0.25985854E+03</pdfrwt>
<pdfrwt beam="2">  1       21 0.72681530E-01 0.25985854E+03</pdfrwt>
<totfact> 0.31872363E+04</totfact>
</mgrwt>
</event>
<event>
 4    1  0.4333905E+000  0.2129751E+03  0.7546771E-02  0.1139231E+00
         21   -1    0    0  503  502  0.00000000000E+00  0.00000000000E+00  0.91865710635E+02  0.91865710635E+02  0.00000000000E+00 0. -1.
         21   -1    0    0  501  503 -0.00000000000E+00 -0.00000000000E+00 -0.14653278844E+04  0.14653278844E+04  0.00000000000E+00 0.  1.
          6    1    1    2  501    0 -0.12320361851E+03 -0.15819924555E+02 -0.13207244758E+04  0.13377860601E+04  0.17300000000E+03 0.  1.
         -6    1    1    2    0  502  0.12320361851E+03  0.15819924555E+02 -0.52737698051E+02  0.21940753502E+03  0.17300000000E+03 0. -1.
<mgrwt>
<rscale>  2 0.21297512E+03</rscale>
<asrwt>0</asrwt>
<pdfrwt beam="1">  1       21 0.14133186E-01 0.21297512E+03</pdfrwt>
<pdfrwt beam="2">  1       21 0.22543507E+00 0.21297512E+03</pdfrwt>
<totfact> 0.39936213E+03</totfact>
</mgrwt>
</event>
<event>
 4    1  0.4333905E+000  0.2051138E+03  0.7546771E-02  0.1145495E+00
         21   -1    0    0  503  502  0.00000000000E+00  0.00000000000E+00  0.55522501234E+03  0.55522501234E+03  0.00000000000E+00 0.  1.
         21   -1    0    0  501  503 -0.00000000000E+00 -0.00000000000E+00 -0.83259217034E+02  0.83259217034E+02  0.00000000000E+00 0. -1.
          6    1    1    2  501    0 -0.11255050798E+02  0.10961743462E+03  0.14026255869E+03  0.24848590204E+03  0.17300000000E+03 0. -1.
         -6    1    1    2    0  502  0.11255050798E+02 -0.10961743462E+03  0.33170323662E+03  0.38999832733E+03  0.17300000000E+03 0.  1.
<mgrwt>
<rscale>  2 0.20511377E+03</rscale>
<asrwt>0</asrwt>
<pdfrwt beam="1">  1       21 0.85419230E-01 0.20511377E+03</pdfrwt>
<pdfrwt beam="2">  1       21 0.12809111E-01 0.20511377E+03</pdfrwt>
<totfact> 0.61483727E+04</totfact>
</mgrwt>
</event>
<event>
 4    1  0.4333905E+000  0.1996203E+03  0.7546771E-02  0.1150060E+00
         21   -1    0    0  503  502  0.00000000000E+00  0.00000000000E+00  0.82505128224E+03  0.82505128224E+03  0.00000000000E+00 0. -1.
         21   -1    0    0  501  503 -0.00000000000E+00 -0.00000000000E+00 -0.50551786052E+02  0.50551786052E+02  0.00000000000E+00 0. -1.
          6    1    1    2  501    0 -0.73424705793E+02  0.67290961978E+02  0.29480695489E+03  0.35603286595E+03  0.17300000000E+03 0. -1.
         -6    1    1    2    0  502  0.73424705793E+02 -0.67290961978E+02  0.47969254130E+03  0.51957020234E+03  0.17300000000E+03 0. -1.
<mgrwt>
<rscale>  2 0.19962029E+03</rscale>
<asrwt>0</asrwt>
<pdfrwt beam="1">  1       21 0.12693096E+00 0.19962029E+03</pdfrwt>
<pdfrwt beam="2">  1       21 0.77771984E-02 0.19962029E+03</pdfrwt>
<totfact> 0.57649214E+04</totfact>
</mgrwt>
</event>
<event>
 4    1  0.4333905E+000  0.2441813E+03  0.7546771E-02  0.1117038E+00
         21   -1    0    0  503  502  0.00000000000E+00  0.00000000000E+00  0.40547498255E+03  0.40547498255E+03  0.00000000000E+00 0. -1.
         21   -1    0    0  501  503 -0.00000000000E+00 -0.00000000000E+00 -0.42870744914E+03  0.42870744914E+03  0.00000000000E+00 0. -1.
          6    1    1    2  501    0 -0.72193504082E+02  0.15647244874E+03 -0.34969058773E+03  0.42650678353E+03  0.17300000000E+03 0. -1.
         -6    1    1    2    0  502  0.72193504082E+02 -0.15647244874E+03  0.32645812114E+03  0.40767564816E+03  0.17300000000E+03 0. -1.
<mgrwt>
<rscale>  2 0.24418135E+03</rscale>
<asrwt>0</asrwt>
<pdfrwt beam="1">  1       21 0.62380767E-01 0.24418135E+03</pdfrwt>
<pdfrwt beam="2">  1       21 0.65954992E-01 0.24418135E+03</pdfrwt>
<totfact> 0.48489356E+03</totfact>
</mgrwt>
</event>
<event>
 4    1  0.4333905E+000  0.2277579E+03  0.7546771E-02  0.1128228E+00
         21   -1    0    0  503  502  0.00000000000E+00  0.00000000000E+00  0.53737626121E+03  0.53737626121E+03  0.00000000000E+00 0. -1.
         21   -1    0    0  501  503 -0.00000000000E+00 -0.00000000000E+00 -0.98645251192E+02  0.98645251192E+02  0.00000000000E+00 0.  1.
          6    1    1    2  501    0  0.13368629512E+03 -0.63817050079E+02  0.17281237943E+03  0.28589816345E+03  0.17300000000E+03 0. -1.
         -6    1    1    2    0  502 -0.13368629512E+03  0.63817050079E+02  0.26591863060E+03  0.35012334895E+03  0.17300000000E+03 0.  1.
<mgrwt>
<rscale>  2 0.22775786E+03</rscale>
<asrwt>0</asrwt>
<pdfrwt beam="1">  1       21 0.82673269E-01 0.22775786E+03</pdfrwt>
<pdfrwt beam="2">  1       21 0.15176193E-01 0.22775786E+03</pdfrwt>
<totfact> 0.48199313E+04</totfact>
</mgrwt>
</event>
<event>
 4    1  0.4333905E+000  0.2013987E+03  0.7546771E-02  0.1148564E+00
         21   -1    0    0  501  502  0.00000000000E+00  0.00000000000E+00  0.11307620837E+03  0.11307620837E+03  0.00000000000E+00 0.  1.
         21   -1    0    0  502  503 -0.00000000000E+00 -0.00000000000E+00 -0.36763606707E+03  0.36763606707E+03  0.00000000000E+00 0.  1.
          6    1    1    2  501    0 -0.18246538212E+02 -0.10148642775E+03 -0.16473454890E+03  0.26019012813E+03  0.17300000000E+03 0.  1.
         -6    1    1    2    0  503  0.18246538212E+02  0.10148642775E+03 -0.89825309799E+02  0.22052214731E+03  0.17300000000E+03 0.  1.
<mgrwt>
<rscale>  2 0.20139869E+03</rscale>
<asrwt>0</asrwt>
<pdfrwt beam="1">  1       21 0.17396340E-01 0.20139869E+03</pdfrwt>
<pdfrwt beam="2">  1       21 0.56559395E-01 0.20139869E+03</pdfrwt>
<totfact> 0.87572577E+04</totfact>
</mgrwt>
</event>
<event>
 4    1  0.4333905E+000  0.1802192E+03  0.7546771E-02  0.1167591E+00
         21   -1    0    0  503  502  0.00000000000E+00  0.00000000000E+00  0.12285617380E+03  0.12285617380E+03  0.00000000000E+00 0. -1.
         21   -1    0    0  501  503 -0.00000000000E+00 -0.00000000000E+00 -0.28606607879E+03  0.28606607879E+03  0.00000000000E+00 0. -1.
          6    1    1    2  501    0  0.49005266837E+02  0.12184066994E+02 -0.13791818646E+03  0.22693698205E+03  0.17300000000E+03 0. -1.
         -6    1    1    2    0  502 -0.49005266837E+02 -0.12184066994E+02 -0.25291718532E+02  0.18198527054E+03  0.17300000000E+03 0. -1.
<mgrwt>
<rscale>  2 0.18021922E+03</rscale>
<asrwt>0</asrwt>
<pdfrwt beam="1">  1       21 0.18900950E-01 0.18021922E+03</pdfrwt>
<pdfrwt beam="2">  1       21 0.44010166E-01 0.18021922E+03</pdfrwt>
<totfact> 0.12774526E+05</totfact>
</mgrwt>
</event>
<event>
 4    1  0.4333905E+000  0.1828883E+03  0.7546771E-02  0.1165037E+00
         21   -1    0    0  503  502  0.00000000000E+00  0.00000000000E+00  0.39940669066E+03  0.39940669066E+03  0.00000000000E+00 0. -1.
         21   -1    0    0  501  503 -0.00000000000E+00 -0.00000000000E+00 -0.16989457651E+03  0.16989457651E+03  0.00000000000E+00 0.  1.
          6    1    1    2  501    0 -0.37162302358E+02 -0.46239670623E+02 -0.87942211977E+02  0.20293342875E+03  0.17300000000E+03 0.  1.
         -6    1    1    2    0  502  0.37162302358E+02  0.46239670623E+02  0.31745432613E+03  0.36636783842E+03  0.17300000000E+03 0. -1.
<mgrwt>
<rscale>  2 0.18288834E+03</rscale>
<asrwt>0</asrwt>
<pdfrwt beam="1">  1       21 0.61447183E-01 0.18288834E+03</pdfrwt>
<pdfrwt beam="2">  1       21 0.26137627E-01 0.18288834E+03</pdfrwt>
<totfact> 0.34417862E+04</totfact>
</mgrwt>
</event>
<event>
 4    1  0.4333905E+000  0.1914522E+03  0.7546771E-02  0.1157158E+00
         21   -1    0    0  503  502  0.00000000000E+00  0.00000000000E+00  0.74152197391E+02  0.74152197391E+02  0.00000000000E+00 0. -1.
         21   -1    0    0  501  503 -0.00000000000E+00 -0.00000000000E+00 -0.82556435586E+03  0.82556435586E+03  0.00000000000E+00 0. -1.
          6    1    1    2  501    0  0.33923822082E+01 -0.81935468558E+02 -0.66066561796E+03  0.68784663118E+03  0.17300000000E+03 0. -1.
         -6    1    1    2    0  502 -0.33923822082E+01  0.81935468558E+02 -0.90746540504E+02  0.21186992207E+03  0.17300000000E+03 0. -1.
<mgrwt>
<rscale>  2 0.19145216E+03</rscale>
<asrwt>0</asrwt>
<pdfrwt beam="1">  1       21 0.11408030E-01 0.19145216E+03</pdfrwt>
<pdfrwt beam="2">  1       21 0.12700990E+00 0.19145216E+03</pdfrwt>
<totfact> 0.29460310E+04</totfact>
</mgrwt>
</event>
<event>
 4    1  0.4333905E+000  0.1916674E+03  0.7546771E-02  0.1156966E+00
         21   -1    0    0  501  502  0.00000000000E+00  0.00000000000E+00  0.40211613257E+03  0.40211613257E+03  0.00000000000E+00 0.  1.
         21   -1    0    0  502  503 -0.00000000000E+00 -0.00000000000E+00 -0.24315773646E+03  0.24315773646E+03  0.00000000000E+00 0.  1.
          6    1    1    2  501    0  0.27741227152E+02 -0.77703405354E+02  0.33440043118E+03  0.38543487551E+03  0.17300000000E+03 0.  1.
         -6    1    1    2    0  503 -0.27741227152E+02  0.77703405354E+02 -0.17544203506E+03  0.25983899352E+03  0.17300000000E+03 0.  1.
<mgrwt>
<rscale>  2 0.19166741E+03</rscale>
<asrwt>0</asrwt>
<pdfrwt beam="1">  1       21 0.61864021E-01 0.19166741E+03</pdfrwt>
<pdfrwt beam="2">  1       21 0.37408882E-01 0.19166741E+03</pdfrwt>
<totfact> 0.16730521E+04</totfact>
</mgrwt>
</event>
<event>
 4    1  0.4333905E+000  0.2554498E+03  0.7546771E-02  0.1109908E+00
         21   -1    0    0  501  502  0.00000000000E+00  0.00000000000E+00  0.71670481438E+03  0.71670481438E+03  0.00000000000E+00 0. -1.
         21   -1    0    0  502  503 -0.00000000000E+00 -0.00000000000E+00 -0.31324547153E+03  0.31324547153E+03  0.00000000000E+00 0.  1.
          6    1    1    2  501    0  0.11794868277E+03  0.14633415653E+03  0.63545358894E+03  0.68487651502E+03  0.17300000000E+03 0. -1.
         -6    1    1    2    0  503 -0.11794868277E+03 -0.14633415653E+03 -0.23199424609E+03  0.34507377089E+03  0.17300000000E+03 0.  1.
<mgrwt>
<rscale>  2 0.25544975E+03</rscale>
<asrwt>0</asrwt>
<pdfrwt beam="1">  1       21 0.11026228E+00 0.25544975E+03</pdfrwt>
<pdfrwt beam="2">  1       21 0.48191611E-01 0.25544975E+03</pdfrwt>
<totfact> 0.25428050E+03</totfact>
</mgrwt>
</event>
<event>
 4    1  0.4333905E+000  0.2458148E+03  0.7546771E-02  0.1115979E+00
         21   -1    0    0  503  502  0.00000000000E+00  0.00000000000E+00  0.35331252118E+02  0.35331252118E+02  0.00000000000E+00 0.  1.
         21   -1    0    0  501  503 -0.00000000000E+00 -0.00000000000E+00 -0.19567534983E+04  0.19567534983E+04  0.00000000000E+00 0. -1.
          6    1    1    2  501    0  0.26339881159E+02 -0.17263294710E+03 -0.13142441811E+04  0.13370350374E+04  0.17300000000E+03 0.  1.
         -6    1    1    2    0  502 -0.26339881159E+02  0.17263294710E+03 -0.60717806510E+03  0.65504971300E+03  0.17300000000E+03 0.  1.
<mgrwt>
<rscale>  2 0.24581482E+03</rscale>
<asrwt>0</asrwt>
<pdfrwt beam="1">  1       21 0.54355774E-02 0.24581482E+03</pdfrwt>
<pdfrwt beam="2">  1       21 0.30103899E+00 0.24581482E+03</pdfrwt>
<totfact> 0.74537562E+03</totfact>
</mgrwt>
</event>
<event>
 4    1  0.4333905E+000  0.1810581E+03  0.7546771E-02  0.1166783E+00
         21   -1    0    0  501  502  0.00000000000E+00  0.00000000000E+00  0.15082016959E+04  0.15082016959E+04  0.00000000000E+00 0. -1.
         21   -1    0    0  502  503 -0.00000000000E+00 -0.00000000000E+00 -0.53302984161E+02  0.53302984161E+02  0.00000000000E+00 0. -1.
          6    1    1    2  501    0 -0.52012286463E+02  0.12155595766E+02  0.13282842592E+04  0.13405674581E+04  0.17300000000E+03 0. -1.
         -6    1    1    2    0  503  0.52012286463E+02 -0.12155595766E+02  0.12661445249E+03  0.22093722192E+03  0.17300000000E+03 0. -1.
<mgrwt>
<rscale>  2 0.18105810E+03</rscale>
<asrwt>0</asrwt>
<pdfrwt beam="1">  1       21 0.23203100E+00 0.18105810E+03</pdfrwt>
<pdfrwt beam="2">  1       21 0.82004603E-02 0.18105810E+03</pdfrwt>
<totfact> 0.98789581E+03</totfact>
</mgrwt>
</event>
<event>
 4    1  0.4333905E+000  0.1769960E+03  0.7546771E-02  0.1170742E+00
         21   -1    0    0  503  502  0.00000000000E+00  0.00000000000E+00  0.18100176964E+04  0.18100176964E+04  0.00000000000E+00 0. -1.
         21   -1    0    0  501  503 -0.00000000000E+00 -0.00000000000E+00 -0.45871422896E+02  0.45871422896E+02  0.00000000000E+00 0. -1.
          6    1    1    2  501    0 -0.37647832425E+01  0.37207536756E+02  0.14982725307E+03  0.23189605461E+03  0.17300000000E+03 0. -1.
         -6    1    1    2    0  502  0.37647832425E+01 -0.37207536756E+02  0.16143190204E+04  0.16239930646E+04  0.17300000000E+03 0. -1.
<mgrwt>
<rscale>  2 0.17699597E+03</rscale>
<asrwt>0</asrwt>
<pdfrwt beam="1">  1       21 0.27846421E+00 0.17699597E+03</pdfrwt>
<pdfrwt beam="2">  1       21 0.70571434E-02 0.17699597E+03</pdfrwt>
<totfact> 0.68930762E+03</totfact>
</mgrwt>
</event>
<event>
 4    1  0.4333905E+000  0.2496864E+03  0.7546771E-02  0.1113503E+00
         21   -1    0    0  503  502  0.00000000000E+00  0.00000000000E+00  0.29803745036E+03  0.29803745036E+03  0.00000000000E+00 0. -1.
         21   -1    0    0  501  503 -0.00000000000E+00 -0.00000000000E+00 -0.46941590050E+03  0.46941590050E+03  0.00000000000E+00 0.  1.
          6    1    1    2  501    0  0.10723091835E+03  0.14462306708E+03 -0.37140036910E+03  0.44752825112E+03  0.17300000000E+03 0.  1.
         -6    1    1    2    0  502 -0.10723091835E+03 -0.14462306708E+03  0.20002191895E+03  0.31992509974E+03  0.17300000000E+03 0. -1.
<mgrwt>
<rscale>  2 0.24968641E+03</rscale>
<asrwt>0</asrwt>
<pdfrwt beam="1">  1       21 0.45851916E-01 0.24968641E+03</pdfrwt>
<pdfrwt beam="2">  1       21 0.72217831E-01 0.24968641E+03</pdfrwt>
<totfact> 0.75955172E+03</totfact>
</mgrwt>
</event>
<event>
 4    1  0.4333905E+000  0.3103169E+03  0.7546771E-02  0.1080194E+00
         21   -1    0    0  503  502  0.00000000000E+00  0.00000000000E+00  0.10813072031E+03  0.10813072031E+03  0.00000000000E+00 0.  1.
         21   -1    0    0  501  503 -0.00000000000E+00 -0.00000000000E+00 -0.91473117757E+03  0.91473117757E+03  0.00000000000E+00 0.  1.
          6    1    1    2  501    0  0.25543815106E+03  0.33450791242E+02 -0.32015961091E+03  0.44586856910E+03  0.17300000000E+03 0.  1.
         -6    1    1    2    0  502 -0.25543815106E+03 -0.33450791242E+02 -0.48644084636E+03  0.57699332878E+03  0.17300000000E+03 0.  1.
<mgrwt>
<rscale>  2 0.31031694E+03</rscale>
<asrwt>0</asrwt>
<pdfrwt beam="1">  1       21 0.16635496E-01 0.31031694E+03</pdfrwt>
<pdfrwt beam="2">  1       21 0.14072787E+00 0.31031694E+03</pdfrwt>
<totfact> 0.10693998E+04</totfact>
</mgrwt>
</event>
<event>
 4    1  0.4333905E+000  0.2901559E+03  0.7546771E-02  0.1090268E+00
         21   -1    0    0  503  502  0.00000000000E+00  0.00000000000E+00  0.40885733048E+03  0.40885733048E+03  0.00000000000E+00 0.  1.
         21   -1    0    0  501  503 -0.00000000000E+00 -0.00000000000E+00 -0.10326281649E+04  0.10326281649E+04  0.00000000000E+00 0. -1.
          6    1    1    2  501    0 -0.14481188989E+03  0.18245807947E+03 -0.95677498880E+03  0.99980438758E+03  0.17300000000E+03 0. -1.
         -6    1    1    2    0  502  0.14481188989E+03 -0.18245807947E+03  0.33300415434E+03  0.44168110785E+03  0.17300000000E+03 0.  1.
<mgrwt>
<rscale>  2 0.29015588E+03</rscale>
<asrwt>0</asrwt>
<pdfrwt beam="1">  1       21 0.62901128E-01 0.29015588E+03</pdfrwt>
<pdfrwt beam="2">  1       21 0.15886587E+00 0.29015588E+03</pdfrwt>
<totfact> 0.54850527E+02</totfact>
</mgrwt>
</event>
<event>
 4    1  0.4333905E+000  0.2540858E+03  0.7546771E-02  0.1110750E+00
         21   -1    0    0  503  502  0.00000000000E+00  0.00000000000E+00  0.46636156411E+03  0.46636156411E+03  0.00000000000E+00 0.  1.
         21   -1    0    0  501  503 -0.00000000000E+00 -0.00000000000E+00 -0.13943827831E+03  0.13943827831E+03  0.00000000000E+00 0.  1.
          6    1    1    2  501    0  0.12005561384E+03 -0.14218734285E+03  0.18918704803E+03  0.31678278050E+03  0.17300000000E+03 0.  1.
         -6    1    1    2    0  502 -0.12005561384E+03  0.14218734285E+03  0.13773623777E+03  0.28901706191E+03  0.17300000000E+03 0.  1.
<mgrwt>
<rscale>  2 0.25408579E+03</rscale>
<asrwt>0</asrwt>
<pdfrwt beam="1">  1       21 0.71747932E-01 0.25408579E+03</pdfrwt>
<pdfrwt beam="2">  1       21 0.21452043E-01 0.25408579E+03</pdfrwt>
<totfact> 0.34470416E+04</totfact>
</mgrwt>
</event>
<event>
 4    1  0.4333905E+000  0.2527700E+03  0.7546771E-02  0.1111567E+00
         21   -1    0    0  501  502  0.00000000000E+00  0.00000000000E+00  0.48603452114E+03  0.48603452114E+03  0.00000000000E+00 0. -1.
         21   -1    0    0  502  503 -0.00000000000E+00 -0.00000000000E+00 -0.32433720763E+03  0.32433720763E+03  0.00000000000E+00 0.  1.
          6    1    1    2  501    0  0.12000048771E+03 -0.13986983869E+03  0.39331239094E+03  0.46753323485E+03  0.17300000000E+03 0. -1.
         -6    1    1    2    0  503 -0.12000048771E+03  0.13986983869E+03 -0.23161507742E+03  0.34283849392E+03  0.17300000000E+03 0.  1.
<mgrwt>
<rscale>  2 0.25277003E+03</rscale>
<asrwt>0</asrwt>
<pdfrwt beam="1">  1       21 0.74774541E-01 0.25277003E+03</pdfrwt>
<pdfrwt beam="2">  1       21 0.49898032E-01 0.25277003E+03</pdfrwt>
<totfact> 0.58795717E+03</totfact>
</mgrwt>
</event>
<event>
 4    1  0.4333905E+000  0.2568959E+03  0.7546771E-02  0.1109023E+00
         21   -1    0    0  503  502  0.00000000000E+00  0.00000000000E+00  0.11220729499E+03  0.11220729499E+03  0.00000000000E+00 0. -1.
         21   -1    0    0  501  503 -0.00000000000E+00 -0.00000000000E+00 -0.59608661213E+03  0.59608661213E+03  0.00000000000E+00 0.  1.
          6    1    1    2  501    0 -0.10772532374E+03  0.15640259996E+03 -0.28278586353E+03  0.38205151912E+03  0.17300000000E+03 0.  1.
         -6    1    1    2    0  502  0.10772532374E+03 -0.15640259996E+03 -0.20109345361E+03  0.32624238801E+03  0.17300000000E+03 0.  1.
<mgrwt>
<rscale>  2 0.25689593E+03</rscale>
<asrwt>0</asrwt>
<pdfrwt beam="1">  1       21 0.17262661E-01 0.25689593E+03</pdfrwt>
<pdfrwt beam="2">  1       21 0.91705632E-01 0.25689593E+03</pdfrwt>
<totfact> 0.29522482E+04</totfact>
</mgrwt>
</event>
<event>
 4    1  0.4333905E+000  0.2918183E+03  0.7546771E-02  0.1089404E+00
         21   -1    0    0  501  502  0.00000000000E+00  0.00000000000E+00  0.12246687742E+03  0.12246687742E+03  0.00000000000E+00 0.  1.
         21   -1    0    0  502  503 -0.00000000000E+00 -0.00000000000E+00 -0.18152231242E+04  0.18152231242E+04  0.00000000000E+00 0. -1.
          6    1    1    2  501    0 -0.20587384348E+03 -0.11333518472E+03 -0.85398866231E+02  0.30405734637E+03  0.17300000000E+03 0.  1.
         -6    1    1    2    0  503  0.20587384348E+03  0.11333518472E+03 -0.16073573806E+04  0.16336326553E+04  0.17300000000E+03 0. -1.
<mgrwt>
<rscale>  2 0.29181827E+03</rscale>
<asrwt>0</asrwt>
<pdfrwt beam="1">  1       21 0.18841058E-01 0.29181827E+03</pdfrwt>
<pdfrwt beam="2">  1       21 0.27926510E+00 0.29181827E+03</pdfrwt>
<totfact> 0.10451533E+03</totfact>
</mgrwt>
</event>
<event>
 4    1  0.4333905E+000  0.2054289E+03  0.7546771E-02  0.1145238E+00
         21   -1    0    0  501  502  0.00000000000E+00  0.00000000000E+00  0.47884717863E+02  0.47884717863E+02  0.00000000000E+00 0.  1.
         21   -1    0    0  502  503 -0.00000000000E+00 -0.00000000000E+00 -0.12554939442E+04  0.12554939442E+04  0.00000000000E+00 0. -1.
          6    1    1    2  501    0 -0.10878422993E+03  0.20928870901E+02 -0.24802672156E+03  0.32205322685E+03  0.17300000000E+03 0.  1.
         -6    1    1    2    0  503  0.10878422993E+03 -0.20928870901E+02 -0.95958250482E+03  0.98132543525E+03  0.17300000000E+03 0. -1.
<mgrwt>
<rscale>  2 0.20542888E+03</rscale>
<asrwt>0</asrwt>
<pdfrwt beam="1">  1       21 0.73668789E-02 0.20542888E+03</pdfrwt>
<pdfrwt beam="2">  1       21 0.19315293E+00 0.20542888E+03</pdfrwt>
<totfact> 0.20399360E+04</totfact>
</mgrwt>
</event>
<event>
 4    1  0.4333905E+000  0.2095282E+03  0.7546771E-02  0.1141940E+00
         21   -1    0    0  501  502  0.00000000000E+00  0.00000000000E+00  0.62790328966E+02  0.62790328966E+02  0.00000000000E+00 0. -1.
         21   -1    0    0  502  503 -0.00000000000E+00 -0.00000000000E+00 -0.89659806573E+03  0.89659806573E+03  0.00000000000E+00 0. -1.
          6    1    1    2  501    0 -0.11409001709E+03  0.30928156817E+02 -0.19181550444E+03  0.28406913001E+03  0.17300000000E+03 0. -1.
         -6    1    1    2    0  503  0.11409001709E+03 -0.30928156817E+02 -0.64199223233E+03  0.67531926468E+03  0.17300000000E+03 0. -1.
<mgrwt>
<rscale>  2 0.20952824E+03</rscale>
<asrwt>0</asrwt>
<pdfrwt beam="1">  1       21 0.96600509E-02 0.20952824E+03</pdfrwt>
<pdfrwt beam="2">  1       21 0.13793816E+00 0.20952824E+03</pdfrwt>
<totfact> 0.31745447E+04</totfact>
</mgrwt>
</event>
<event>
 4    1  0.4333905E+000  0.2634941E+03  0.7546771E-02  0.1105062E+00
         21   -1    0    0  501  502  0.00000000000E+00  0.00000000000E+00  0.37862550461E+03  0.37862550461E+03  0.00000000000E+00 0.  1.
         21   -1    0    0  502  503 -0.00000000000E+00 -0.00000000000E+00 -0.18487255698E+03  0.18487255698E+03  0.00000000000E+00 0.  1.
          6    1    1    2  501    0  0.24760186822E+02 -0.19719803805E+03  0.12226411624E+03  0.29047830759E+03  0.17300000000E+03 0.  1.
         -6    1    1    2    0  503 -0.24760186822E+02  0.19719803805E+03  0.71488831391E+02  0.27301975400E+03  0.17300000000E+03 0.  1.
<mgrwt>
<rscale>  2 0.26349409E+03</rscale>
<asrwt>0</asrwt>
<pdfrwt beam="1">  1       21 0.58250077E-01 0.26349409E+03</pdfrwt>
<pdfrwt beam="2">  1       21 0.28441932E-01 0.26349409E+03</pdfrwt>
<totfact> 0.31535373E+04</totfact>
</mgrwt>
</event>
<event>
 4    1  0.4333905E+000  0.2670784E+03  0.7546771E-02  0.1102963E+00
         21   -1    0    0  501  502  0.00000000000E+00  0.00000000000E+00  0.11693557058E+04  0.11693557058E+04  0.00000000000E+00 0.  1.
         21   -1    0    0  502  503 -0.00000000000E+00 -0.00000000000E+00 -0.44101426286E+03  0.44101426286E+03  0.00000000000E+00 0. -1.
          6    1    1    2  501    0  0.73455624714E+02 -0.18975287388E+03  0.11115984547E+04  0.11432331374E+04  0.17300000000E+03 0.  1.
         -6    1    1    2    0  503 -0.73455624714E+02  0.18975287388E+03 -0.38325701183E+03  0.46713683120E+03  0.17300000000E+03 0. -1.
<mgrwt>
<rscale>  2 0.26707842E+03</rscale>
<asrwt>0</asrwt>
<pdfrwt beam="1">  1       21 0.17990088E+00 0.26707842E+03</pdfrwt>
<pdfrwt beam="2">  1       21 0.67848349E-01 0.26707842E+03</pdfrwt>
<totfact> 0.33438801E+02</totfact>
</mgrwt>
</event>
<event>
 4    1  0.4333905E+000  0.2166840E+03  0.7546771E-02  0.1136380E+00
         21   -1    0    0  501  502  0.00000000000E+00  0.00000000000E+00  0.10583218798E+04  0.10583218798E+04  0.00000000000E+00 0. -1.
         21   -1    0    0  502  503 -0.00000000000E+00 -0.00000000000E+00 -0.88576199138E+02  0.88576199138E+02  0.00000000000E+00 0. -1.
          6    1    1    2  501    0  0.93218157143E+02 -0.91287104386E+02  0.89001247333E+03  0.91600991421E+03  0.17300000000E+03 0. -1.
         -6    1    1    2    0  503 -0.93218157143E+02  0.91287104386E+02  0.79733207295E+02  0.23088816469E+03  0.17300000000E+03 0. -1.
<mgrwt>
<rscale>  2 0.21668401E+03</rscale>
<asrwt>0</asrwt>
<pdfrwt beam="1">  1       21 0.16281874E+00 0.21668401E+03</pdfrwt>
<pdfrwt beam="2">  1       21 0.13627108E-01 0.21668401E+03</pdfrwt>
<totfact> 0.11011045E+04</totfact>
</mgrwt>
</event>
<event>
 4    1  0.4333905E+000  0.1797512E+03  0.7546771E-02  0.1168044E+00
         21   -1    0    0  501  502  0.00000000000E+00  0.00000000000E+00  0.12970601596E+03  0.12970601596E+03  0.00000000000E+00 0. -1.
         21   -1    0    0  502  503 -0.00000000000E+00 -0.00000000000E+00 -0.28625138847E+03  0.28625138847E+03  0.00000000000E+00 0. -1.
          6    1    1    2  501    0 -0.48415955047E+02  0.61152446966E+01 -0.33523731729E+01  0.17978247781E+03  0.17300000000E+03 0. -1.
         -6    1    1    2    0  503  0.48415955047E+02 -0.61152446966E+01 -0.15319299934E+03  0.23617492663E+03  0.17300000000E+03 0. -1.
<mgrwt>
<rscale>  2 0.17975122E+03</rscale>
<asrwt>0</asrwt>
<pdfrwt beam="1">  1       21 0.19954772E-01 0.17975122E+03</pdfrwt>
<pdfrwt beam="2">  1       21 0.44038675E-01 0.17975122E+03</pdfrwt>
<totfact> 0.11535129E+05</totfact>
</mgrwt>
</event>
<event>
 4    1  0.4333905E+000  0.1780944E+03  0.7546771E-02  0.1169660E+00
         21   -1    0    0  503  502  0.00000000000E+00  0.00000000000E+00  0.81346459580E+03  0.81346459580E+03  0.00000000000E+00 0.  1.
         21   -1    0    0  501  503 -0.00000000000E+00 -0.00000000000E+00 -0.67816617466E+02  0.67816617466E+02  0.00000000000E+00 0.  1.
          6    1    1    2  501    0 -0.38905054049E+02 -0.16583704746E+02  0.85542667886E+02  0.19757320295E+03  0.17300000000E+03 0.  1.
         -6    1    1    2    0  502  0.38905054049E+02  0.16583704746E+02  0.66010531045E+03  0.68370801032E+03  0.17300000000E+03 0.  1.
<mgrwt>
<rscale>  2 0.17809442E+03</rscale>
<asrwt>0</asrwt>
<pdfrwt beam="1">  1       21 0.12514839E+00 0.17809442E+03</pdfrwt>
<pdfrwt beam="2">  1       21 0.10433326E-01 0.17809442E+03</pdfrwt>
<totfact> 0.36101418E+04</totfact>
</mgrwt>
</event>
<event>
 4    1  0.4333905E+000  0.2078343E+03  0.7546771E-02  0.1143293E+00
         21   -1    0    0  501  502  0.00000000000E+00  0.00000000000E+00  0.16425280878E+03  0.16425280878E+03  0.00000000000E+00 0. -1.
         21   -1    0    0  502  503 -0.00000000000E+00 -0.00000000000E+00 -0.10187909478E+04  0.10187909478E+04  0.00000000000E+00 0. -1.
          6    1    1    2  501    0 -0.80680492399E+02 -0.82199452930E+02  0.82220219328E+02  0.22350672559E+03  0.17300000000E+03 0. -1.
         -6    1    1    2    0  503  0.80680492399E+02  0.82199452930E+02 -0.93675835839E+03  0.95953703103E+03  0.17300000000E+03 0. -1.
<mgrwt>
<rscale>  2 0.20783429E+03</rscale>
<asrwt>0</asrwt>
<pdfrwt beam="1">  1       21 0.25269663E-01 0.20783429E+03</pdfrwt>
<pdfrwt beam="2">  1       21 0.15673707E+00 0.20783429E+03</pdfrwt>
<totfact> 0.38959905E+03</totfact>
</mgrwt>
</event>
<event>
 4    1  0.4333905E+000  0.1844382E+03  0.7546771E-02  0.1163576E+00
         21   -1    0    0  503  502  0.00000000000E+00  0.00000000000E+00  0.10327735916E+04  0.10327735916E+04  0.00000000000E+00 0.  1.
         21   -1    0    0  501  503 -0.00000000000E+00 -0.00000000000E+00 -0.29098569607E+03  0.29098569607E+03  0.00000000000E+00 0.  1.
          6    1    1    2  501    0  0.56822115129E+02  0.29320302871E+02 -0.25240048648E+03  0.31260748312E+03  0.17300000000E+03 0.  1.
         -6    1    1    2    0  502 -0.56822115129E+02 -0.29320302871E+02  0.99418838204E+03  0.10111518046E+04  0.17300000000E+03 0.  1.
<mgrwt>
<rscale>  2 0.18443815E+03</rscale>
<asrwt>0</asrwt>
<pdfrwt beam="1">  1       21 0.15888824E+00 0.18443815E+03</pdfrwt>
<pdfrwt beam="2">  1       21 0.44767031E-01 0.18443815E+03</pdfrwt>
<totfact> 0.12390055E+03</totfact>
</mgrwt>
</event>
<event>
 4    1  0.4333905E+000  0.1844447E+03  0.7546771E-02  0.1163569E+00
         21   -1    0    0  503  502  0.00000000000E+00  0.00000000000E+00  0.28152969122E+03  0.28152969122E+03  0.00000000000E+00 0.  1.
         21   -1    0    0  501  503 -0.00000000000E+00 -0.00000000000E+00 -0.17759054594E+03  0.17759054594E+03  0.00000000000E+00 0.  1.
          6    1    1    2  501    0 -0.13859509141E+02  0.62440147168E+02 -0.77800372876E+02  0.20018180734E+03  0.17300000000E+03 0.  1.
         -6    1    1    2    0  502  0.13859509141E+02 -0.62440147168E+02  0.18173951816E+03  0.25893842981E+03  0.17300000000E+03 0.  1.
<mgrwt>
<rscale>  2 0.18444473E+03</rscale>
<asrwt>0</asrwt>
<pdfrwt beam="1">  1       21 0.43312260E-01 0.18444473E+03</pdfrwt>
<pdfrwt beam="2">  1       21 0.27321622E-01 0.18444473E+03</pdfrwt>
<totfact> 0.65695595E+04</totfact>
</mgrwt>
</event>
<event>
 4    1  0.4333905E+000  0.2070792E+03  0.7546771E-02  0.1143900E+00
         21   -1    0    0  501  502  0.00000000000E+00  0.00000000000E+00  0.39739470302E+02  0.39739470302E+02  0.00000000000E+00 0. -1.
         21   -1    0    0  502  503 -0.00000000000E+00 -0.00000000000E+00 -0.11147967008E+04  0.11147967008E+04  0.00000000000E+00 0. -1.
          6    1    1    2  501    0 -0.11069100871E+03 -0.26463181520E+02 -0.43419148176E+03  0.48104474035E+03  0.17300000000E+03 0. -1.
         -6    1    1    2    0  503  0.11069100871E+03  0.26463181520E+02 -0.64086574869E+03  0.67349143071E+03  0.17300000000E+03 0. -1.
<mgrwt>
<rscale>  2 0.20707921E+03</rscale>
<asrwt>0</asrwt>
<pdfrwt beam="1">  1       21 0.61137649E-02 0.20707921E+03</pdfrwt>
<pdfrwt beam="2">  1       21 0.17150718E+00 0.20707921E+03</pdfrwt>
<totfact> 0.39406398E+04</totfact>
</mgrwt>
</event>
<event>
 4    1  0.4333905E+000  0.2425817E+03  0.7546771E-02  0.1118085E+00
         21   -1    0    0  503  502  0.00000000000E+00  0.00000000000E+00  0.14235787666E+04  0.14235787666E+04  0.00000000000E+00 0.  1.
         21   -1    0    0  501  503 -0.00000000000E+00 -0.00000000000E+00 -0.41337199397E+02  0.41337199397E+02  0.00000000000E+00 0.  1.
          6    1    1    2  501    0  0.14395579971E+03 -0.90518513927E+02  0.69396239263E+03  0.73513922221E+03  0.17300000000E+03 0.  1.
         -6    1    1    2    0  502 -0.14395579971E+03  0.90518513927E+02  0.68827917456E+03  0.72977674378E+03  0.17300000000E+03 0.  1.
<mgrwt>
<rscale>  2 0.24258168E+03</rscale>
<asrwt>0</asrwt>
<pdfrwt beam="1">  1       21 0.21901208E+00 0.24258168E+03</pdfrwt>
<pdfrwt beam="2">  1       21 0.63595702E-02 0.24258168E+03</pdfrwt>
<totfact> 0.17538107E+04</totfact>
</mgrwt>
</event>
<event>
 4    1  0.4333905E+000  0.4017787E+03  0.7546771E-02  0.1043166E+00
         21   -1    0    0  503  502  0.00000000000E+00  0.00000000000E+00  0.21582002949E+03  0.21582002949E+03  0.00000000000E+00 0.  1.
         21   -1    0    0  501  503 -0.00000000000E+00 -0.00000000000E+00 -0.25684264164E+04  0.25684264164E+04  0.00000000000E+00 0. -1.
          6    1    1    2  501    0 -0.12377148952E+03 -0.34084855100E+03 -0.23483223075E+04  0.23824449157E+04  0.17300000000E+03 0. -1.
         -6    1    1    2    0  502  0.12377148952E+03  0.34084855100E+03 -0.42840793931E+01  0.40180153020E+03  0.17300000000E+03 0.  1.
<mgrwt>
<rscale>  2 0.40177869E+03</rscale>
<asrwt>0</asrwt>
<pdfrwt beam="1">  1       21 0.33203082E-01 0.40177869E+03</pdfrwt>
<pdfrwt beam="2">  1       21 0.39514252E+00 0.40177869E+03</pdfrwt>
<totfact> 0.63194516E+01</totfact>
</mgrwt>
</event>
<event>
 4    1  0.4333905E+000  0.1843181E+03  0.7546771E-02  0.1163688E+00
         21   -1    0    0  503  502  0.00000000000E+00  0.00000000000E+00  0.12481599736E+03  0.12481599736E+03  0.00000000000E+00 0. -1.
         21   -1    0    0  501  503 -0.00000000000E+00 -0.00000000000E+00 -0.30411618575E+03  0.30411618575E+03  0.00000000000E+00 0. -1.
          6    1    1    2  501    0 -0.56125758785E+02  0.29901060556E+02 -0.15914279682E+03  0.24351510015E+03  0.17300000000E+03 0. -1.
         -6    1    1    2    0  502  0.56125758785E+02 -0.29901060556E+02 -0.20157391577E+02  0.18541708297E+03  0.17300000000E+03 0. -1.
<mgrwt>
<rscale>  2 0.18431813E+03</rscale>
<asrwt>0</asrwt>
<pdfrwt beam="1">  1       21 0.19202461E-01 0.18431813E+03</pdfrwt>
<pdfrwt beam="2">  1       21 0.46787105E-01 0.18431813E+03</pdfrwt>
<totfact> 0.10924129E+05</totfact>
</mgrwt>
</event>
<event>
 4    1  0.4333905E+000  0.1803991E+03  0.7546771E-02  0.1167417E+00
         21   -1    0    0  503  502  0.00000000000E+00  0.00000000000E+00  0.17465564437E+04  0.17465564437E+04  0.00000000000E+00 0. -1.
         21   -1    0    0  501  503 -0.00000000000E+00 -0.00000000000E+00 -0.18913818771E+02  0.18913818771E+02  0.00000000000E+00 0. -1.
          6    1    1    2  501    0  0.18399188900E+02  0.47710502488E+02  0.75628643049E+03  0.77750433256E+03  0.17300000000E+03 0. -1.
         -6    1    1    2    0  502 -0.18399188900E+02 -0.47710502488E+02  0.97135619448E+03  0.98796592995E+03  0.17300000000E+03 0. -1.
<mgrwt>
<rscale>  2 0.18039906E+03</rscale>
<asrwt>0</asrwt>
<pdfrwt beam="1">  1       21 0.26870087E+00 0.18039906E+03</pdfrwt>
<pdfrwt beam="2">  1       21 0.29098196E-02 0.18039906E+03</pdfrwt>
<totfact> 0.34794674E+04</totfact>
</mgrwt>
</event>
<event>
 4    1  0.4333905E+000  0.1734750E+03  0.7546771E-02  0.1174272E+00
         21   -1    0    0  503  502  0.00000000000E+00  0.00000000000E+00  0.39014924742E+02  0.39014924742E+02  0.00000000000E+00 0.  1.
         21   -1    0    0  501  503 -0.00000000000E+00 -0.00000000000E+00 -0.10852963304E+04  0.10852963304E+04  0.00000000000E+00 0.  1.
          6    1    1    2  501    0 -0.12375546533E+02 -0.33773986801E+01 -0.82549821232E+03  0.84352881369E+03  0.17300000000E+03 0.  1.
         -6    1    1    2    0  502  0.12375546533E+02  0.33773986801E+01 -0.22078319338E+03  0.28078244149E+03  0.17300000000E+03 0.  1.
<mgrwt>
<rscale>  2 0.17347496E+03</rscale>
<asrwt>0</asrwt>
<pdfrwt beam="1">  1       21 0.60022968E-02 0.17347496E+03</pdfrwt>
<pdfrwt beam="2">  1       21 0.16696865E+00 0.17347496E+03</pdfrwt>
<totfact> 0.44696896E+04</totfact>
</mgrwt>
</event>
<event>
 4    1  0.4333905E+000  0.2298465E+03  0.7546771E-02  0.1126748E+00
         21   -1    0    0  503  502  0.00000000000E+00  0.00000000000E+00  0.56208582573E+03  0.56208582573E+03  0.00000000000E+00 0. -1.
         21   -1    0    0  501  503 -0.00000000000E+00 -0.00000000000E+00 -0.10229232651E+03  0.10229232651E+03  0.00000000000E+00 0. -1.
          6    1    1    2  501    0 -0.14591933473E+03  0.40099248137E+02  0.32454494435E+03  0.39769186923E+03  0.17300000000E+03 0. -1.
         -6    1    1    2    0  502  0.14591933473E+03 -0.40099248137E+02  0.13524855487E+03  0.26668628301E+03  0.17300000000E+03 0. -1.
<mgrwt>
<rscale>  2 0.22984647E+03</rscale>
<asrwt>0</asrwt>
<pdfrwt beam="1">  1       21 0.86474741E-01 0.22984647E+03</pdfrwt>
<pdfrwt beam="2">  1       21 0.15737281E-01 0.22984647E+03</pdfrwt>
<totfact> 0.40634679E+04</totfact>
</mgrwt>
</event>
<event>
 4    1  0.4333905E+000  0.2437468E+03  0.7546771E-02  0.1117322E+00
         21   -1    0    0  501  502  0.00000000000E+00  0.00000000000E+00  0.49086742157E+02  0.49086742157E+02  0.00000000000E+00 0. -1.
         21   -1    0    0  502  503 -0.00000000000E+00 -0.00000000000E+00 -0.12544085190E+04  0.12544085190E+04  0.00000000000E+00 0. -1.
          6    1    1    2  501    0  0.83774852339E+02 -0.14988427343E+03 -0.48052692289E+03  0.53881225388E+03  0.17300000000E+03 0. -1.
         -6    1    1    2    0  503 -0.83774852339E+02  0.14988427343E+03 -0.72479485397E+03  0.76468300730E+03  0.17300000000E+03 0. -1.
<mgrwt>
<rscale>  2 0.24374684E+03</rscale>
<asrwt>0</asrwt>
<pdfrwt beam="1">  1       21 0.75518061E-02 0.24374684E+03</pdfrwt>
<pdfrwt beam="2">  1       21 0.19298594E+00 0.24374684E+03</pdfrwt>
<totfact> 0.19092369E+04</totfact>
</mgrwt>
</event>
<event>
 4    1  0.4333905E+000  0.1730589E+03  0.7546771E-02  0.1174695E+00
         21   -1    0    0  501  502  0.00000000000E+00  0.00000000000E+00  0.24107494332E+03  0.24107494332E+03  0.00000000000E+00 0.  1.
         21   -1    0    0  502  503 -0.00000000000E+00 -0.00000000000E+00 -0.23760504361E+03  0.23760504361E+03  0.00000000000E+00 0.  1.
          6    1    1    2  501    0  0.45123827757E+01 -0.69082957367E-01  0.16706096803E+03  0.24053842398E+03  0.17300000000E+03 0.  1.
         -6    1    1    2    0  503 -0.45123827757E+01  0.69082957367E-01 -0.16359106832E+03  0.23814156295E+03  0.17300000000E+03 0.  1.
<mgrwt>
<rscale>  2 0.17305885E+03</rscale>
<asrwt>0</asrwt>
<pdfrwt beam="1">  1       21 0.37088453E-01 0.17305885E+03</pdfrwt>
<pdfrwt beam="2">  1       21 0.36554622E-01 0.17305885E+03</pdfrwt>
<totfact> 0.51075217E+04</totfact>
</mgrwt>
</event>
<event>
 4    1  0.4333905E+000  0.1889577E+03  0.7546771E-02  0.1159405E+00
         21   -1    0    0  503  502  0.00000000000E+00  0.00000000000E+00  0.19314950955E+03  0.19314950955E+03  0.00000000000E+00 0. -1.
         21   -1    0    0  501  503 -0.00000000000E+00 -0.00000000000E+00 -0.39865802305E+03  0.39865802305E+03  0.00000000000E+00 0. -1.
          6    1    1    2  501    0 -0.10872176924E+02 -0.75218414862E+02 -0.31945243389E+03  0.37115343416E+03  0.17300000000E+03 0. -1.
         -6    1    1    2    0  502  0.10872176924E+02  0.75218414862E+02  0.11394392039E+03  0.22065409844E+03  0.17300000000E+03 0. -1.
<mgrwt>
<rscale>  2 0.18895770E+03</rscale>
<asrwt>0</asrwt>
<pdfrwt beam="1">  1       21 0.29715309E-01 0.18895770E+03</pdfrwt>
<pdfrwt beam="2">  1       21 0.61332003E-01 0.18895770E+03</pdfrwt>
<totfact> 0.26887530E+04</totfact>
</mgrwt>
</event>
<event>
 4    1  0.4333905E+000  0.2065648E+03  0.7546771E-02  0.1144316E+00
         21   -1    0    0  503  502  0.00000000000E+00  0.00000000000E+00  0.84345733724E+03  0.84345733724E+03  0.00000000000E+00 0. -1.
         21   -1    0    0  501  503 -0.00000000000E+00 -0.00000000000E+00 -0.54037304704E+02  0.54037304704E+02  0.00000000000E+00 0.  1.
          6    1    1    2  501    0 -0.47326245510E+02 -0.10247063907E+03  0.28133771668E+03  0.34902709954E+03  0.17300000000E+03 0.  1.
         -6    1    1    2    0  502  0.47326245510E+02  0.10247063907E+03  0.50808231585E+03  0.54846754240E+03  0.17300000000E+03 0. -1.
<mgrwt>
<rscale>  2 0.20656477E+03</rscale>
<asrwt>0</asrwt>
<pdfrwt beam="1">  1       21 0.12976266E+00 0.20656477E+03</pdfrwt>
<pdfrwt beam="2">  1       21 0.83134321E-02 0.20656477E+03</pdfrwt>
<totfact> 0.48367933E+04</totfact>
</mgrwt>
</event>
<event>
 4    1  0.4333905E+000  0.2439987E+03  0.7546771E-02  0.1117157E+00
         21   -1    0    0  503  502  0.00000000000E+00  0.00000000000E+00  0.10612526818E+04  0.10612526818E+04  0.00000000000E+00 0. -1.
         21   -1    0    0  501  503 -0.00000000000E+00 -0.00000000000E+00 -0.11420402531E+03  0.11420402531E+03  0.00000000000E+00 0.  1.
          6    1    1    2  501    0  0.49316494993E+02  0.16484617579E+03  0.54304123055E+02  0.24996863029E+03  0.17300000000E+03 0.  1.
         -6    1    1    2    0  502 -0.49316494993E+02 -0.16484617579E+03  0.89274453345E+03  0.92548807683E+03  0.17300000000E+03 0. -1.
<mgrwt>
<rscale>  2 0.24399873E+03</rscale>
<asrwt>0</asrwt>
<pdfrwt beam="1">  1       21 0.16326964E+00 0.24399873E+03</pdfrwt>
<pdfrwt beam="2">  1       21 0.17569851E-01 0.24399873E+03</pdfrwt>
<totfact> 0.67305719E+03</totfact>
</mgrwt>
</event>
<event>
 4    1  0.4333905E+000  0.1916037E+03  0.7546771E-02  0.1157023E+00
         21   -1    0    0  503  502  0.00000000000E+00  0.00000000000E+00  0.78867301505E+03  0.78867301505E+03  0.00000000000E+00 0.  1.
         21   -1    0    0  501  503 -0.00000000000E+00 -0.00000000000E+00 -0.56485904421E+02  0.56485904421E+02  0.00000000000E+00 0. -1.
          6    1    1    2  501    0  0.81032263512E+02  0.14722884935E+02  0.18885325133E+03  0.26903074472E+03  0.17300000000E+03 0. -1.
         -6    1    1    2    0  502 -0.81032263512E+02 -0.14722884935E+02  0.54333385930E+03  0.57612817474E+03  0.17300000000E+03 0.  1.
<mgrwt>
<rscale>  2 0.19160373E+03</rscale>
<asrwt>0</asrwt>
<pdfrwt beam="1">  1       21 0.12133430E+00 0.19160373E+03</pdfrwt>
<pdfrwt beam="2">  1       21 0.86901397E-02 0.19160373E+03</pdfrwt>
<totfact> 0.53396096E+04</totfact>
</mgrwt>
</event>
<event>
 4    1  0.4333905E+000  0.2023792E+03  0.7546771E-02  0.1147747E+00
         21   -1    0    0  503  502  0.00000000000E+00  0.00000000000E+00  0.10592362113E+03  0.10592362113E+03  0.00000000000E+00 0. -1.
         21   -1    0    0  501  503 -0.00000000000E+00 -0.00000000000E+00 -0.38843637986E+03  0.38843637986E+03  0.00000000000E+00 0.  1.
          6    1    1    2  501    0  0.85797964065E+01  0.10466482700E+03 -0.15793141401E+03  0.25670931118E+03  0.17300000000E+03 0. -1.
         -6    1    1    2    0  502 -0.85797964065E+01 -0.10466482700E+03 -0.12458134472E+03  0.23765068981E+03  0.17300000000E+03 0. -1.
<mgrwt>
<rscale>  2 0.20237920E+03</rscale>
<asrwt>0</asrwt>
<pdfrwt beam="1">  1       21 0.16295942E-01 0.20237920E+03</pdfrwt>
<pdfrwt beam="2">  1       21 0.59759442E-01 0.20237920E+03</pdfrwt>
<totfact> 0.87761121E+04</totfact>
</mgrwt>
</event>
<event>
 4    1  0.4333905E+000  0.2511861E+03  0.7546771E-02  0.1112558E+00
         21   -1    0    0  501  502  0.00000000000E+00  0.00000000000E+00  0.12617296120E+04  0.12617296120E+04  0.00000000000E+00 0. -1.
         21   -1    0    0  502  503 -0.00000000000E+00 -0.00000000000E+00 -0.62373545806E+02  0.62373545806E+02  0.00000000000E+00 0.  1.
          6    1    1    2  501    0  0.15070139512E+03  0.10224754266E+03  0.89447807099E+03  0.92907776314E+03  0.17300000000E+03 0. -1.
         -6    1    1    2    0  503 -0.15070139512E+03 -0.10224754266E+03  0.30487799517E+03  0.39502539464E+03  0.17300000000E+03 0.  1.
<mgrwt>
<rscale>  2 0.25118613E+03</rscale>
<asrwt>0</asrwt>
<pdfrwt beam="1">  1       21 0.19411223E+00 0.25118613E+03</pdfrwt>
<pdfrwt beam="2">  1       21 0.95959311E-02 0.25118613E+03</pdfrwt>
<totfact> 0.12261490E+04</totfact>
</mgrwt>
</event>
<event>
 4    1  0.4333905E+000  0.2118106E+03  0.7546771E-02  0.1140140E+00
         21   -1    0    0  503  502  0.00000000000E+00  0.00000000000E+00  0.36864215739E+03  0.36864215739E+03  0.00000000000E+00 0.  1.
         21   -1    0    0  501  503 -0.00000000000E+00 -0.00000000000E+00 -0.63219522274E+03  0.63219522274E+03  0.00000000000E+00 0. -1.
          6    1    1    2  501    0 -0.12200777323E+03 -0.69881572854E+01 -0.58145674825E+03  0.61883413057E+03  0.17300000000E+03 0. -1.
         -6    1    1    2    0  502  0.12200777323E+03  0.69881572854E+01  0.31790368291E+03  0.38200324956E+03  0.17300000000E+03 0.  1.
<mgrwt>
<rscale>  2 0.21181060E+03</rscale>
<asrwt>0</asrwt>
<pdfrwt beam="1">  1       21 0.56714179E-01 0.21181060E+03</pdfrwt>
<pdfrwt beam="2">  1       21 0.97260803E-01 0.21181060E+03</pdfrwt>
<totfact> 0.25201186E+03</totfact>
</mgrwt>
</event>
<event>
 4    1  0.4333905E+000  0.1908279E+03  0.7546771E-02  0.1157717E+00
         21   -1    0    0  503  502  0.00000000000E+00  0.00000000000E+00  0.39205184812E+03  0.39205184812E+03  0.00000000000E+00 0. -1.
         21   -1    0    0  501  503 -0.00000000000E+00 -0.00000000000E+00 -0.12159798736E+03  0.12159798736E+03  0.00000000000E+00 0. -1.
          6    1    1    2  501    0 -0.75110903279E+02  0.29062516903E+02  0.10424801579E+02  0.19111241239E+03  0.17300000000E+03 0. -1.
         -6    1    1    2    0  502  0.75110903279E+02 -0.29062516903E+02  0.26002905918E+03  0.32253742309E+03  0.17300000000E+03 0. -1.
<mgrwt>
<rscale>  2 0.19082787E+03</rscale>
<asrwt>0</asrwt>
<pdfrwt beam="1">  1       21 0.60315668E-01 0.19082787E+03</pdfrwt>
<pdfrwt beam="2">  1       21 0.18707383E-01 0.19082787E+03</pdfrwt>
<totfact> 0.67033356E+04</totfact>
</mgrwt>
</event>
<event>
 4    1  0.4333905E+000  0.2099511E+03  0.7546771E-02  0.1141605E+00
         21   -1    0    0  501  502  0.00000000000E+00  0.00000000000E+00  0.14683792304E+03  0.14683792304E+03  0.00000000000E+00 0.  1.
         21   -1    0    0  502  503 -0.00000000000E+00 -0.00000000000E+00 -0.31897623805E+03  0.31897623805E+03  0.00000000000E+00 0.  1.
          6    1    1    2  501    0  0.66370845428E+02  0.98718675446E+02 -0.14258998198E+03  0.25379394982E+03  0.17300000000E+03 0.  1.
         -6    1    1    2    0  503 -0.66370845428E+02 -0.98718675446E+02 -0.29548333029E+02  0.21202021128E+03  0.17300000000E+03 0.  1.
<mgrwt>
<rscale>  2 0.20995110E+03</rscale>
<asrwt>0</asrwt>
<pdfrwt beam="1">  1       21 0.22590450E-01 0.20995110E+03</pdfrwt>
<pdfrwt beam="2">  1       21 0.49073267E-01 0.20995110E+03</pdfrwt>
<totfact> 0.72194388E+04</totfact>
</mgrwt>
</event>
<event>
 4    1  0.4333905E+000  0.2067933E+03  0.7546771E-02  0.1144131E+00
         21   -1    0    0  503  502  0.00000000000E+00  0.00000000000E+00  0.20209003094E+03  0.20209003094E+03  0.00000000000E+00 0.  1.
         21   -1    0    0  501  503 -0.00000000000E+00 -0.00000000000E+00 -0.29743474490E+03  0.29743474490E+03  0.00000000000E+00 0. -1.
          6    1    1    2  501    0  0.23790208028E+02 -0.11076328193E+03 -0.18183987157E+03  0.27537105424E+03  0.17300000000E+03 0. -1.
         -6    1    1    2    0  502 -0.23790208028E+02  0.11076328193E+03  0.86495157610E+02  0.22415372161E+03  0.17300000000E+03 0.  1.
<mgrwt>
<rscale>  2 0.20679332E+03</rscale>
<asrwt>0</asrwt>
<pdfrwt beam="1">  1       21 0.31090774E-01 0.20679332E+03</pdfrwt>
<pdfrwt beam="2">  1       21 0.45759191E-01 0.20679332E+03</pdfrwt>
<totfact> 0.45182260E+04</totfact>
</mgrwt>
</event>
<event>
 4    1  0.4333905E+000  0.1849709E+03  0.7546771E-02  0.1163077E+00
         21   -1    0    0  503  502  0.00000000000E+00  0.00000000000E+00  0.61263068374E+02  0.61263068374E+02  0.00000000000E+00 0. -1.
         21   -1    0    0  501  503 -0.00000000000E+00 -0.00000000000E+00 -0.60000157113E+03  0.60000157113E+03  0.00000000000E+00 0. -1.
          6    1    1    2  501    0 -0.40052141019E+02  0.51778997282E+02 -0.18239262197E+03  0.25977164416E+03  0.17300000000E+03 0. -1.
         -6    1    1    2    0  502  0.40052141019E+02 -0.51778997282E+02 -0.35634588079E+03  0.40149299535E+03  0.17300000000E+03 0. -1.
<mgrwt>
<rscale>  2 0.18497091E+03</rscale>
<asrwt>0</asrwt>
<pdfrwt beam="1">  1       21 0.94250876E-02 0.18497091E+03</pdfrwt>
<pdfrwt beam="2">  1       21 0.92307933E-01 0.18497091E+03</pdfrwt>
<totfact> 0.89515837E+04</totfact>
</mgrwt>
</event>
<event>
 4    1  0.4333905E+000  0.1941688E+03  0.7546771E-02  0.1154754E+00
         21   -1    0    0  501  502  0.00000000000E+00  0.00000000000E+00  0.26887997022E+03  0.26887997022E+03  0.00000000000E+00 0. -1.
         21   -1    0    0  502  503 -0.00000000000E+00 -0.00000000000E+00 -0.14554366932E+03  0.14554366932E+03  0.00000000000E+00 0. -1.
          6    1    1    2  501    0  0.60615761814E+02  0.64017572786E+02  0.10130956620E+03  0.21900947105E+03  0.17300000000E+03 0. -1.
         -6    1    1    2    0  503 -0.60615761814E+02 -0.64017572786E+02  0.22026734710E+02  0.19541416849E+03  0.17300000000E+03 0. -1.
<mgrwt>
<rscale>  2 0.19416879E+03</rscale>
<asrwt>0</asrwt>
<pdfrwt beam="1">  1       21 0.41366149E-01 0.19416879E+03</pdfrwt>
<pdfrwt beam="2">  1       21 0.22391334E-01 0.19416879E+03</pdfrwt>
<totfact> 0.10501720E+05</totfact>
</mgrwt>
</event>
<event>
 4    1  0.4333905E+000  0.2221584E+03  0.7546771E-02  0.1132284E+00
         21   -1    0    0  501  502  0.00000000000E+00  0.00000000000E+00  0.18854263759E+03  0.18854263759E+03  0.00000000000E+00 0. -1.
         21   -1    0    0  502  503 -0.00000000000E+00 -0.00000000000E+00 -0.29301327780E+03  0.29301327780E+03  0.00000000000E+00 0.  1.
          6    1    1    2  501    0 -0.53083503634E+02  0.12887013482E+03  0.26390909728E+02  0.22372047319E+03  0.17300000000E+03 0. -1.
         -6    1    1    2    0  503  0.53083503634E+02 -0.12887013482E+03 -0.13086154994E+03  0.25783544221E+03  0.17300000000E+03 0. -1.
<mgrwt>
<rscale>  2 0.22215843E+03</rscale>
<asrwt>0</asrwt>
<pdfrwt beam="1">  1       21 0.29006560E-01 0.22215843E+03</pdfrwt>
<pdfrwt beam="2">  1       21 0.45078966E-01 0.22215843E+03</pdfrwt>
<totfact> 0.52989220E+04</totfact>
</mgrwt>
</event>
<event>
 4    1  0.4333905E+000  0.1820867E+03  0.7546771E-02  0.1165799E+00
         21   -1    0    0  501  502  0.00000000000E+00  0.00000000000E+00  0.86543008988E+02  0.86543008988E+02  0.00000000000E+00 0. -1.
         21   -1    0    0  502  503 -0.00000000000E+00 -0.00000000000E+00 -0.39132364089E+03  0.39132364089E+03  0.00000000000E+00 0.  1.
          6    1    1    2  501    0 -0.44400729701E+02  0.35427797869E+02 -0.18700479147E+03  0.26101024059E+03  0.17300000000E+03 0.  1.
         -6    1    1    2    0  503  0.44400729701E+02 -0.35427797869E+02 -0.11777584043E+03  0.21685640929E+03  0.17300000000E+03 0. -1.
<mgrwt>
<rscale>  2 0.18208667E+03</rscale>
<asrwt>0</asrwt>
<pdfrwt beam="1">  1       21 0.13314309E-01 0.18208667E+03</pdfrwt>
<pdfrwt beam="2">  1       21 0.60203636E-01 0.18208667E+03</pdfrwt>
<totfact> 0.12571445E+05</totfact>
</mgrwt>
</event>
<event>
 4    1  0.4333905E+000  0.1933907E+03  0.7546771E-02  0.1155438E+00
         21   -1    0    0  503  502  0.00000000000E+00  0.00000000000E+00  0.71655304074E+02  0.71655304074E+02  0.00000000000E+00 0.  1.
         21   -1    0    0  501  503 -0.00000000000E+00 -0.00000000000E+00 -0.63597481176E+03  0.63597481176E+03  0.00000000000E+00 0. -1.
          6    1    1    2  501    0 -0.83870877254E+02 -0.20895971543E+02 -0.13233972947E+03  0.23433687220E+03  0.17300000000E+03 0.  1.
         -6    1    1    2    0  502  0.83870877254E+02  0.20895971543E+02 -0.43197977822E+03  0.47329324363E+03  0.17300000000E+03 0. -1.
<mgrwt>
<rscale>  2 0.19339071E+03</rscale>
<asrwt>0</asrwt>
<pdfrwt beam="1">  1       21 0.11023893E-01 0.19339071E+03</pdfrwt>
<pdfrwt beam="2">  1       21 0.97842278E-01 0.19339071E+03</pdfrwt>
<totfact> 0.58993023E+04</totfact>
</mgrwt>
</event>
<event>
 4    1  0.4333905E+000  0.1921674E+03  0.7546771E-02  0.1156521E+00
         21   -1    0    0  503  502  0.00000000000E+00  0.00000000000E+00  0.77049677155E+03  0.77049677155E+03  0.00000000000E+00 0.  1.
         21   -1    0    0  501  503 -0.00000000000E+00 -0.00000000000E+00 -0.64849062051E+02  0.64849062051E+02  0.00000000000E+00 0.  1.
          6    1    1    2  501    0  0.70927794354E+02  0.44368551331E+02  0.13947069001E+03  0.23744555951E+03  0.17300000000E+03 0.  1.
         -6    1    1    2    0  502 -0.70927794354E+02 -0.44368551331E+02  0.56617701950E+03  0.59790027410E+03  0.17300000000E+03 0.  1.
<mgrwt>
<rscale>  2 0.19216743E+03</rscale>
<asrwt>0</asrwt>
<pdfrwt beam="1">  1       21 0.11853796E+00 0.19216743E+03</pdfrwt>
<pdfrwt beam="2">  1       21 0.99767793E-02 0.19216743E+03</pdfrwt>
<totfact> 0.44368948E+04</totfact>
</mgrwt>
</event>
<event>
 4    1  0.4333905E+000  0.1880871E+03  0.7546771E-02  0.1160198E+00
         21   -1    0    0  501  502  0.00000000000E+00  0.00000000000E+00  0.13380880081E+03  0.13380880081E+03  0.00000000000E+00 0.  1.
         21   -1    0    0  502  503 -0.00000000000E+00 -0.00000000000E+00 -0.27523757690E+03  0.27523757690E+03  0.00000000000E+00 0.  1.
          6    1    1    2  501    0  0.23627961621E+02  0.69924888485E+02 -0.30098553658E+02  0.19048016572E+03  0.17300000000E+03 0.  1.
         -6    1    1    2    0  503 -0.23627961621E+02 -0.69924888485E+02 -0.11133022243E+03  0.21856621200E+03  0.17300000000E+03 0.  1.
<mgrwt>
<rscale>  2 0.18808714E+03</rscale>
<asrwt>0</asrwt>
<pdfrwt beam="1">  1       21 0.20585970E-01 0.18808714E+03</pdfrwt>
<pdfrwt beam="2">  1       21 0.42344242E-01 0.18808714E+03</pdfrwt>
<totfact> 0.11754954E+05</totfact>
</mgrwt>
</event>
<event>
 4    1  0.4333905E+000  0.2194739E+03  0.7546771E-02  0.1134276E+00
         21   -1    0    0  501  502  0.00000000000E+00  0.00000000000E+00  0.82752890342E+03  0.82752890342E+03  0.00000000000E+00 0.  1.
         21   -1    0    0  502  503 -0.00000000000E+00 -0.00000000000E+00 -0.59220359029E+02  0.59220359029E+02  0.00000000000E+00 0. -1.
          6    1    1    2  501    0 -0.12513711416E+03  0.50798428563E+02  0.44212503450E+03  0.49360239446E+03  0.17300000000E+03 0. -1.
         -6    1    1    2    0  503  0.12513711416E+03 -0.50798428563E+02  0.32618350989E+03  0.39314686799E+03  0.17300000000E+03 0.  1.
<mgrwt>
<rscale>  2 0.21947387E+03</rscale>
<asrwt>0</asrwt>
<pdfrwt beam="1">  1       21 0.12731213E+00 0.21947387E+03</pdfrwt>
<pdfrwt beam="2">  1       21 0.91108251E-02 0.21947387E+03</pdfrwt>
<totfact> 0.42930486E+04</totfact>
</mgrwt>
</event>
<event>
 4    1  0.4333905E+000  0.2473880E+03  0.7546771E-02  0.1114967E+00
         21   -1    0    0  503  502  0.00000000000E+00  0.00000000000E+00  0.92449909950E+03  0.92449909950E+03  0.00000000000E+00 0.  1.
         21   -1    0    0  501  503 -0.00000000000E+00 -0.00000000000E+00 -0.68910669911E+02  0.68910669911E+02  0.00000000000E+00 0.  1.
          6    1    1    2  501    0 -0.11905103976E+02  0.17643723718E+03  0.32926136782E+03  0.41184205529E+03  0.17300000000E+03 0.  1.
         -6    1    1    2    0  502  0.11905103976E+02 -0.17643723718E+03  0.52632706177E+03  0.58156771413E+03  0.17300000000E+03 0.  1.
<mgrwt>
<rscale>  2 0.24738802E+03</rscale>
<asrwt>0</asrwt>
<pdfrwt beam="1">  1       21 0.14223062E+00 0.24738802E+03</pdfrwt>
<pdfrwt beam="2">  1       21 0.10601642E-01 0.24738802E+03</pdfrwt>
<totfact> 0.24341160E+04</totfact>
</mgrwt>
</event>
<event>
 4    1  0.4333905E+000  0.1740036E+03  0.7546771E-02  0.1173736E+00
         21   -1    0    0  503  502  0.00000000000E+00  0.00000000000E+00  0.18579560628E+03  0.18579560628E+03  0.00000000000E+00 0.  1.
         21   -1    0    0  501  503 -0.00000000000E+00 -0.00000000000E+00 -0.27616309274E+03  0.27616309274E+03  0.00000000000E+00 0.  1.
          6    1    1    2  501    0 -0.89583714340E+01 -0.16370918423E+02 -0.19306713571E+03  0.25990801888E+03  0.17300000000E+03 0.  1.
         -6    1    1    2    0  502  0.89583714340E+01  0.16370918423E+02  0.10269964925E+03  0.20205068014E+03  0.17300000000E+03 0.  1.
<mgrwt>
<rscale>  2 0.17400362E+03</rscale>
<asrwt>0</asrwt>
<pdfrwt beam="1">  1       21 0.28583939E-01 0.17400362E+03</pdfrwt>
<pdfrwt beam="2">  1       21 0.42486630E-01 0.17400362E+03</pdfrwt>
<totfact> 0.62910926E+04</totfact>
</mgrwt>
</event>
<event>
 4    1  0.4333905E+000  0.1806755E+03  0.7546771E-02  0.1167151E+00
         21   -1    0    0  501  502  0.00000000000E+00  0.00000000000E+00  0.43107564721E+03  0.43107564721E+03  0.00000000000E+00 0. -1.
         21   -1    0    0  502  503 -0.00000000000E+00 -0.00000000000E+00 -0.24064730549E+03  0.24064730549E+03  0.00000000000E+00 0. -1.
          6    1    1    2  501    0  0.82794031193E+01  0.51440221607E+02  0.37325465822E+03  0.41468383716E+03  0.17300000000E+03 0. -1.
         -6    1    1    2    0  503 -0.82794031193E+01 -0.51440221607E+02 -0.18282631650E+03  0.25703911554E+03  0.17300000000E+03 0. -1.
<mgrwt>
<rscale>  2 0.18067552E+03</rscale>
<asrwt>0</asrwt>
<pdfrwt beam="1">  1       21 0.66319330E-01 0.18067552E+03</pdfrwt>
<pdfrwt beam="2">  1       21 0.37022662E-01 0.18067552E+03</pdfrwt>
<totfact> 0.14791075E+04</totfact>
</mgrwt>
</event>
<event>
 4    1  0.4333905E+000  0.1995766E+03  0.7546771E-02  0.1150097E+00
         21   -1    0    0  501  502  0.00000000000E+00  0.00000000000E+00  0.73644215622E+02  0.73644215622E+02  0.00000000000E+00 0.  1.
         21   -1    0    0  502  503 -0.00000000000E+00 -0.00000000000E+00 -0.61718835384E+03  0.61718835384E+03  0.00000000000E+00 0.  1.
          6    1    1    2  501    0 -0.14028461420E+02 -0.98514015235E+02 -0.15029553111E+03  0.24983905939E+03  0.17300000000E+03 0.  1.
         -6    1    1    2    0  503  0.14028461420E+02  0.98514015235E+02 -0.39324860711E+03  0.44099351007E+03  0.17300000000E+03 0.  1.
<mgrwt>
<rscale>  2 0.19957657E+03</rscale>
<asrwt>0</asrwt>
<pdfrwt beam="1">  1       21 0.11329879E-01 0.19957657E+03</pdfrwt>
<pdfrwt beam="2">  1       21 0.94952054E-01 0.19957657E+03</pdfrwt>
<totfact> 0.60100695E+04</totfact>
</mgrwt>
</event>
<event>
 4    1  0.4333905E+000  0.2017223E+03  0.7546771E-02  0.1148294E+00
         21   -1    0    0  503  502  0.00000000000E+00  0.00000000000E+00  0.47515830107E+02  0.47515830107E+02  0.00000000000E+00 0. -1.
         21   -1    0    0  501  503 -0.00000000000E+00 -0.00000000000E+00 -0.85664258236E+03  0.85664258236E+03  0.00000000000E+00 0. -1.
          6    1    1    2  501    0 -0.22768628983E+02 -0.10121507005E+03 -0.41238441348E+03  0.45907821267E+03  0.17300000000E+03 0. -1.
         -6    1    1    2    0  502  0.22768628983E+02  0.10121507005E+03 -0.39674233878E+03  0.44508019980E+03  0.17300000000E+03 0. -1.
<mgrwt>
<rscale>  2 0.20172234E+03</rscale>
<asrwt>0</asrwt>
<pdfrwt beam="1">  1       21 0.73101275E-02 0.20172234E+03</pdfrwt>
<pdfrwt beam="2">  1       21 0.13179117E+00 0.20172234E+03</pdfrwt>
<totfact> 0.58321112E+04</totfact>
</mgrwt>
</event>
<event>
 4    1  0.4333905E+000  0.2279574E+03  0.7546771E-02  0.1128086E+00
         21   -1    0    0  503  502  0.00000000000E+00  0.00000000000E+00  0.54456184515E+03  0.54456184515E+03  0.00000000000E+00 0. -1.
         21   -1    0    0  501  503 -0.00000000000E+00 -0.00000000000E+00 -0.99006422512E+02  0.99006422512E+02  0.00000000000E+00 0.  1.
          6    1    1    2  501    0  0.90114336042E+02 -0.11796180986E+03  0.16157276190E+03  0.27941070047E+03  0.17300000000E+03 0. -1.
         -6    1    1    2    0  502 -0.90114336042E+02  0.11796180986E+03  0.28398266073E+03  0.36415756719E+03  0.17300000000E+03 0. -1.
<mgrwt>
<rscale>  2 0.22795741E+03</rscale>
<asrwt>0</asrwt>
<pdfrwt beam="1">  1       21 0.83778743E-01 0.22795741E+03</pdfrwt>
<pdfrwt beam="2">  1       21 0.15231758E-01 0.22795741E+03</pdfrwt>
<totfact> 0.46440255E+04</totfact>
</mgrwt>
</event>
<event>
 4    1  0.4333905E+000  0.2255197E+03  0.7546771E-02  0.1129834E+00
         21   -1    0    0  501  502  0.00000000000E+00  0.00000000000E+00  0.38027467574E+03  0.38027467574E+03  0.00000000000E+00 0.  1.
         21   -1    0    0  502  503 -0.00000000000E+00 -0.00000000000E+00 -0.26944893380E+03  0.26944893380E+03  0.00000000000E+00 0.  1.
          6    1    1    2  501    0  0.59912598552E+02 -0.13168369714E+03  0.28595997445E+03  0.36418707081E+03  0.17300000000E+03 0.  1.
         -6    1    1    2    0  503 -0.59912598552E+02  0.13168369714E+03 -0.17513423250E+03  0.28553653873E+03  0.17300000000E+03 0.  1.
<mgrwt>
<rscale>  2 0.22551966E+03</rscale>
<asrwt>0</asrwt>
<pdfrwt beam="1">  1       21 0.58503797E-01 0.22551966E+03</pdfrwt>
<pdfrwt beam="2">  1       21 0.41453682E-01 0.22551966E+03</pdfrwt>
<totfact> 0.15022446E+04</totfact>
</mgrwt>
</event>
<event>
 4    1  0.4333905E+000  0.2342402E+03  0.7546771E-02  0.1123690E+00
         21   -1    0    0  501  502  0.00000000000E+00  0.00000000000E+00  0.39365605320E+03  0.39365605320E+03  0.00000000000E+00 0.  1.
         21   -1    0    0  502  503 -0.00000000000E+00 -0.00000000000E+00 -0.15995310328E+03  0.15995310328E+03  0.00000000000E+00 0.  1.
          6    1    1    2  501    0 -0.10198811808E+03 -0.12057312897E+03  0.17583596872E+02  0.23489920932E+03  0.17300000000E+03 0.  1.
         -6    1    1    2    0  503  0.10198811808E+03  0.12057312897E+03  0.21611935304E+03  0.31870994716E+03  0.17300000000E+03 0.  1.
<mgrwt>
<rscale>  2 0.23424017E+03</rscale>
<asrwt>0</asrwt>
<pdfrwt beam="1">  1       21 0.60562469E-01 0.23424017E+03</pdfrwt>
<pdfrwt beam="2">  1       21 0.24608170E-01 0.23424017E+03</pdfrwt>
<totfact> 0.38844131E+04</totfact>
</mgrwt>
</event>
<event>
 4    1  0.4333905E+000  0.2632013E+03  0.7546771E-02  0.1105235E+00
         21   -1    0    0  503  502  0.00000000000E+00  0.00000000000E+00  0.58700616847E+03  0.58700616847E+03  0.00000000000E+00 0. -1.
         21   -1    0    0  501  503 -0.00000000000E+00 -0.00000000000E+00 -0.22422716247E+03  0.22422716247E+03  0.00000000000E+00 0.  1.
          6    1    1    2  501    0 -0.14143135283E+03  0.13907948189E+03 -0.97775457065E+02  0.28077565751E+03  0.17300000000E+03 0.  1.
         -6    1    1    2    0  502  0.14143135283E+03 -0.13907948189E+03  0.46055446307E+03  0.53045767343E+03  0.17300000000E+03 0. -1.
<mgrwt>
<rscale>  2 0.26320131E+03</rscale>
<asrwt>0</asrwt>
<pdfrwt beam="1">  1       21 0.90308641E-01 0.26320131E+03</pdfrwt>
<pdfrwt beam="2">  1       21 0.34496487E-01 0.26320131E+03</pdfrwt>
<totfact> 0.80701798E+03</totfact>
</mgrwt>
</event>
<event>
 4    1  0.4333905E+000  0.1820729E+03  0.7546771E-02  0.1165812E+00
         21   -1    0    0  501  502  0.00000000000E+00  0.00000000000E+00  0.45831944163E+03  0.45831944163E+03  0.00000000000E+00 0.  1.
         21   -1    0    0  502  503 -0.00000000000E+00 -0.00000000000E+00 -0.73833804880E+02  0.73833804880E+02  0.00000000000E+00 0. -1.
          6    1    1    2  501    0 -0.56093574616E+02  0.86642315347E+01  0.23020719425E+03  0.29350623555E+03  0.17300000000E+03 0. -1.
         -6    1    1    2    0  503  0.56093574616E+02 -0.86642315347E+01  0.15427844251E+03  0.23864701097E+03  0.17300000000E+03 0. -1.
<mgrwt>
<rscale>  2 0.18207295E+03</rscale>
<asrwt>0</asrwt>
<pdfrwt beam="1">  1       21 0.70510682E-01 0.18207295E+03</pdfrwt>
<pdfrwt beam="2">  1       21 0.11359047E-01 0.18207295E+03</pdfrwt>
<totfact> 0.11847837E+05</totfact>
</mgrwt>
</event>
