<event>
 5    1  0.3858846E+001  0.9169283E+02  0.7546771E-02  0.1298803E+00
         -2   -1    0    0    0  501 -0.00000000000E+00  0.00000000000E+00  0.11579133300E+01  0.11579133300E+01  0.00000000000E+00 0.  1.
          2   -1    0    0  501    0  0.00000000000E+00 -0.00000000000E+00 -0.18152428192E+04  0.18152428192E+04  0.00000000000E+00 0. -1.
         23    2    1    2    0    0  0.00000000000E+00  0.00000000000E+00 -0.18140849059E+04  0.18164007325E+04  0.91692831944E+02 0.  0.
          2    1    3    3  502    0  0.79543279644E+01  0.34314286890E+02 -0.14883637713E+04  0.14887805270E+04  0.00000000000E+00 0. -1.
         -2    1    3    3    0  502 -0.79543279644E+01 -0.34314286890E+02 -0.32572113453E+03  0.32762020557E+03  0.00000000000E+00 0.  1.
<mgrwt>
<rscale>  0 0.91692832E+02</rscale>
<asrwt>0</asrwt>
<pdfrwt beam="2">  1        2 0.27927003E+00 0.91692832E+02</pdfrwt>
<pdfrwt beam="1">  1       -2 0.17813930E-03 0.91692832E+02</pdfrwt>
<totfact> 0.20991274E+05</totfact>
</mgrwt>
</event>
<event>
 5    1  0.3858846E+001  0.9263197E+02  0.7546771E-02  0.1296600E+00
          1   -1    0    0  501    0  0.00000000000E+00  0.00000000000E+00  0.25967718807E+03  0.25967718807E+03  0.00000000000E+00 0. -1.
         -1   -1    0    0    0  501 -0.00000000000E+00 -0.00000000000E+00 -0.82609116690E+01  0.82609116690E+01  0.00000000000E+00 0.  1.
         23    2    1    2    0    0  0.00000000000E+00  0.00000000000E+00  0.25141627640E+03  0.26793809974E+03  0.92631966687E+02 0.  0.
          2    1    3    3  502    0  0.28459065317E+02  0.36471559861E+02  0.13222573137E+03  0.14008474975E+03  0.00000000000E+00 0. -1.
         -2    1    3    3    0  502 -0.28459065317E+02 -0.36471559861E+02  0.11919054503E+03  0.12785334999E+03  0.00000000000E+00 0.  1.
<mgrwt>
<rscale>  0 0.92631967E+02</rscale>
<asrwt>0</asrwt>
<pdfrwt beam="1">  1        1 0.39950330E-01 0.92631967E+02</pdfrwt>
<pdfrwt beam="2">  1       -1 0.12709097E-02 0.92631967E+02</pdfrwt>
<totfact> 0.11942466E+05</totfact>
</mgrwt>
</event>
<event>
 5    1  0.3858846E+001  0.8972921E+02  0.7546771E-02  0.1303509E+00
          1   -1    0    0  501    0  0.00000000000E+00  0.00000000000E+00  0.10930650361E+04  0.10930650361E+04  0.00000000000E+00 0. -1.
         -1   -1    0    0    0  501 -0.00000000000E+00 -0.00000000000E+00 -0.18414576608E+01  0.18414576608E+01  0.00000000000E+00 0.  1.
         23    2    1    2    0    0  0.00000000000E+00  0.00000000000E+00  0.10912235784E+04  0.10949064937E+04  0.89729214515E+02 0.  0.
          2    1    3    3  502    0 -0.12851660134E+02  0.40614870587E+02  0.37386622991E+03  0.37628538471E+03  0.00000000000E+00 0. -1.
         -2    1    3    3    0  502  0.12851660134E+02 -0.40614870587E+02  0.71735734849E+03  0.71862110900E+03  0.00000000000E+00 0.  1.
<mgrwt>
<rscale>  0 0.89729215E+02</rscale>
<asrwt>0</asrwt>
<pdfrwt beam="1">  1        1 0.16816333E+00 0.89729215E+02</pdfrwt>
<pdfrwt beam="2">  1       -1 0.28330205E-03 0.89729215E+02</pdfrwt>
<totfact> 0.13801807E+05</totfact>
</mgrwt>
</event>
<event>
 5    1  0.3858846E+001  0.9501528E+02  0.7546771E-02  0.1291142E+00
          1   -1    0    0  501    0  0.00000000000E+00  0.00000000000E+00  0.60848300642E+01  0.60848300642E+01  0.00000000000E+00 0. -1.
         -1   -1    0    0    0  501 -0.00000000000E+00 -0.00000000000E+00 -0.37091845704E+03  0.37091845704E+03  0.00000000000E+00 0.  1.
         23    2    1    2    0    0  0.00000000000E+00  0.00000000000E+00 -0.36483362697E+03  0.37700328710E+03  0.95015278324E+02 0.  0.
          2    1    3    3  502    0  0.13300533881E+02  0.41738308542E+02 -0.10947097527E+03  0.11791049584E+03  0.00000000000E+00 0. -1.
         -2    1    3    3    0  502 -0.13300533881E+02 -0.41738308542E+02 -0.25536265170E+03  0.25909279127E+03  0.00000000000E+00 0.  1.
<mgrwt>
<rscale>  0 0.95015278E+02</rscale>
<asrwt>0</asrwt>
<pdfrwt beam="1">  1        1 0.93612749E-03 0.95015278E+02</pdfrwt>
<pdfrwt beam="2">  1       -1 0.57064391E-01 0.95015278E+02</pdfrwt>
<totfact> 0.49621910E+04</totfact>
</mgrwt>
</event>
<event>
 5    1  0.3858846E+001  0.9002354E+02  0.7546771E-02  0.1302795E+00
         -2   -1    0    0    0  501 -0.00000000000E+00  0.00000000000E+00  0.27903168174E+01  0.27903168174E+01  0.00000000000E+00 0.  1.
          2   -1    0    0  501    0  0.00000000000E+00 -0.00000000000E+00 -0.72610366129E+03  0.72610366129E+03  0.00000000000E+00 0. -1.
         23    2    1    2    0    0  0.00000000000E+00  0.00000000000E+00 -0.72331334447E+03  0.72889397810E+03  0.90023535972E+02 0.  0.
          2    1    3    3  502    0  0.75992760745E+01  0.35032546225E+02 -0.58206422526E+03  0.58316703492E+03  0.00000000000E+00 0. -1.
         -2    1    3    3    0  502 -0.75992760745E+01 -0.35032546225E+02 -0.14124911921E+03  0.14572694318E+03  0.00000000000E+00 0.  1.
<mgrwt>
<rscale>  0 0.90023536E+02</rscale>
<asrwt>0</asrwt>
<pdfrwt beam="2">  1        2 0.11170834E+00 0.90023536E+02</pdfrwt>
<pdfrwt beam="1">  1       -2 0.42927917E-03 0.90023536E+02</pdfrwt>
<totfact> 0.24726790E+05</totfact>
</mgrwt>
</event>
<event>
 5    1  0.3858846E+001  0.9100605E+02  0.7546771E-02  0.1300434E+00
          2   -1    0    0  501    0  0.00000000000E+00  0.00000000000E+00  0.13014368743E+02  0.13014368743E+02  0.00000000000E+00 0. -1.
         -2   -1    0    0    0  501 -0.00000000000E+00 -0.00000000000E+00 -0.15909534348E+03  0.15909534348E+03  0.00000000000E+00 0.  1.
         23    2    1    2    0    0  0.00000000000E+00  0.00000000000E+00 -0.14608097473E+03  0.17210971222E+03  0.91006053983E+02 0.  0.
          2    1    3    3  502    0 -0.36269226588E+02 -0.20383148644E+01 -0.12486439757E+03  0.13004126001E+03  0.00000000000E+00 0.  1.
         -2    1    3    3    0  502  0.36269226588E+02  0.20383148644E+01 -0.21216577164E+02  0.42068452210E+02  0.00000000000E+00 0. -1.
<mgrwt>
<rscale>  0 0.91006054E+02</rscale>
<asrwt>0</asrwt>
<pdfrwt beam="1">  1        2 0.20022105E-02 0.91006054E+02</pdfrwt>
<pdfrwt beam="2">  1       -2 0.24476207E-01 0.91006054E+02</pdfrwt>
<totfact> 0.68676978E+04</totfact>
</mgrwt>
</event>
<event>
 5    1  0.3858846E+001  0.9087019E+02  0.7546771E-02  0.1300758E+00
         -1   -1    0    0    0  501 -0.00000000000E+00  0.00000000000E+00  0.54989041413E+01  0.54989041413E+01  0.00000000000E+00 0.  1.
          1   -1    0    0  501    0  0.00000000000E+00 -0.00000000000E+00 -0.37541074869E+03  0.37541074869E+03  0.00000000000E+00 0. -1.
         23    2    1    2    0    0  0.00000000000E+00  0.00000000000E+00 -0.36991184455E+03  0.38090965283E+03  0.90870186985E+02 0.  0.
          2    1    3    3  502    0  0.15028541135E+02 -0.42104818344E+02 -0.21892630291E+03  0.22344439774E+03  0.00000000000E+00 0.  1.
         -2    1    3    3    0  502 -0.15028541135E+02  0.42104818344E+02 -0.15098554164E+03  0.15746525509E+03  0.00000000000E+00 0. -1.
<mgrwt>
<rscale>  0 0.90870187E+02</rscale>
<asrwt>0</asrwt>
<pdfrwt beam="2">  1        1 0.57755502E-01 0.90870187E+02</pdfrwt>
<pdfrwt beam="1">  1       -1 0.84598522E-03 0.90870187E+02</pdfrwt>
<totfact> 0.13465921E+05</totfact>
</mgrwt>
</event>
<event>
 5    1  0.3858846E+001  0.9336138E+02  0.7546771E-02  0.1294910E+00
          3   -1    0    0  501    0  0.00000000000E+00  0.00000000000E+00  0.11162229141E+02  0.11162229141E+02  0.00000000000E+00 0. -1.
         -3   -1    0    0    0  501 -0.00000000000E+00 -0.00000000000E+00 -0.19521966556E+03  0.19521966556E+03  0.00000000000E+00 0.  1.
         23    2    1    2    0    0  0.00000000000E+00  0.00000000000E+00 -0.18405743642E+03  0.20638189470E+03  0.93361376162E+02 0.  0.
          2    1    3    3  502    0  0.40134502424E+02  0.23808332908E+02 -0.89347050296E+02  0.10079935713E+03  0.00000000000E+00 0.  1.
         -2    1    3    3    0  502 -0.40134502424E+02 -0.23808332908E+02 -0.94710386123E+02  0.10558253757E+03  0.00000000000E+00 0. -1.
<mgrwt>
<rscale>  0 0.93361376E+02</rscale>
<asrwt>0</asrwt>
<pdfrwt beam="1">  1        3 0.17172660E-02 0.93361376E+02</pdfrwt>
<pdfrwt beam="2">  1       -3 0.30033795E-01 0.93361376E+02</pdfrwt>
<totfact> 0.26423075E+04</totfact>
</mgrwt>
</event>
<event>
 5    1  0.3858846E+001  0.9197897E+02  0.7546771E-02  0.1298129E+00
          2   -1    0    0  501    0  0.00000000000E+00  0.00000000000E+00  0.18326537335E+04  0.18326537335E+04  0.00000000000E+00 0. -1.
         -2   -1    0    0    0  501 -0.00000000000E+00 -0.00000000000E+00 -0.11540821361E+01  0.11540821361E+01  0.00000000000E+00 0.  1.
         23    2    1    2    0    0  0.00000000000E+00  0.00000000000E+00  0.18314996513E+04  0.18338078156E+04  0.91978974454E+02 0.  0.
          2    1    3    3  502    0  0.10672778337E+02 -0.38343727290E+02  0.13751221160E+04  0.13756979987E+04  0.00000000000E+00 0. -1.
         -2    1    3    3    0  502 -0.10672778337E+02  0.38343727290E+02  0.45637753535E+03  0.45810981695E+03  0.00000000000E+00 0.  1.
<mgrwt>
<rscale>  0 0.91978974E+02</rscale>
<asrwt>0</asrwt>
<pdfrwt beam="1">  1        2 0.28194440E+00 0.91978974E+02</pdfrwt>
<pdfrwt beam="2">  1       -2 0.17755256E-03 0.91978974E+02</pdfrwt>
<totfact> 0.20676562E+05</totfact>
</mgrwt>
</event>
<event>
 5    1  0.3858846E+001  0.9191112E+02  0.7546771E-02  0.1298289E+00
          2   -1    0    0  501    0  0.00000000000E+00  0.00000000000E+00  0.11462325664E+04  0.11462325664E+04  0.00000000000E+00 0. -1.
         -2   -1    0    0    0  501 -0.00000000000E+00 -0.00000000000E+00 -0.18424823715E+01  0.18424823715E+01  0.00000000000E+00 0.  1.
         23    2    1    2    0    0  0.00000000000E+00  0.00000000000E+00  0.11443900841E+04  0.11480750488E+04  0.91911115699E+02 0.  0.
          2    1    3    3  502    0  0.91363944225E+00  0.43816444074E+02  0.74491545721E+03  0.74620356063E+03  0.00000000000E+00 0. -1.
         -2    1    3    3    0  502 -0.91363944225E+00 -0.43816444074E+02  0.39947462685E+03  0.40187148817E+03  0.00000000000E+00 0.  1.
<mgrwt>
<rscale>  0 0.91911116E+02</rscale>
<asrwt>0</asrwt>
<pdfrwt beam="1">  1        2 0.17634290E+00 0.91911116E+02</pdfrwt>
<pdfrwt beam="2">  1       -2 0.28345974E-03 0.91911116E+02</pdfrwt>
<totfact> 0.24447149E+05</totfact>
</mgrwt>
</event>
<event>
 5    1  0.3858846E+001  0.9147024E+02  0.7546771E-02  0.1299330E+00
          4   -1    0    0  501    0  0.00000000000E+00  0.00000000000E+00  0.12716850466E+02  0.12716850466E+02  0.00000000000E+00 0. -1.
         -4   -1    0    0    0  501 -0.00000000000E+00 -0.00000000000E+00 -0.16448264982E+03  0.16448264982E+03  0.00000000000E+00 0.  1.
         23    2    1    2    0    0  0.00000000000E+00  0.00000000000E+00 -0.15176579935E+03  0.17719950028E+03  0.91470241323E+02 0.  0.
          2    1    3    3  502    0  0.31787381842E+02 -0.84406875721E+01 -0.14315995932E+02  0.35869633265E+02  0.00000000000E+00 0. -1.
         -2    1    3    3    0  502 -0.31787381842E+02  0.84406875721E+01 -0.13744980342E+03  0.14132986702E+03  0.00000000000E+00 0.  1.
<mgrwt>
<rscale>  0 0.91470241E+02</rscale>
<asrwt>0</asrwt>
<pdfrwt beam="1">  1        4 0.19564386E-02 0.91470241E+02</pdfrwt>
<pdfrwt beam="2">  1       -4 0.25305022E-01 0.91470241E+02</pdfrwt>
<totfact> 0.22184989E+04</totfact>
</mgrwt>
</event>
<event>
 5    1  0.3858846E+001  0.9373451E+02  0.7546771E-02  0.1294052E+00
          2   -1    0    0  501    0  0.00000000000E+00  0.00000000000E+00  0.22398536492E+04  0.22398536492E+04  0.00000000000E+00 0. -1.
         -2   -1    0    0    0  501 -0.00000000000E+00 -0.00000000000E+00 -0.98066214851E+00  0.98066214851E+00  0.00000000000E+00 0.  1.
         23    2    1    2    0    0  0.00000000000E+00  0.00000000000E+00  0.22388729870E+04  0.22408343113E+04  0.93734512149E+02 0.  0.
          2    1    3    3  502    0  0.27774970018E+02 -0.56615735961E+01  0.20116968501E+04  0.20118965478E+04  0.00000000000E+00 0. -1.
         -2    1    3    3    0  502 -0.27774970018E+02  0.56615735961E+01  0.22717613690E+03  0.22893776349E+03  0.00000000000E+00 0.  1.
<mgrwt>
<rscale>  0 0.93734512E+02</rscale>
<asrwt>0</asrwt>
<pdfrwt beam="1">  1        2 0.34458877E+00 0.93734512E+02</pdfrwt>
<pdfrwt beam="2">  1       -2 0.15087289E-03 0.93734512E+02</pdfrwt>
<totfact> 0.16172077E+05</totfact>
</mgrwt>
</event>
<event>
 5    1  0.3858846E+001  0.8616715E+02  0.7546771E-02  0.1312408E+00
          1   -1    0    0  501    0  0.00000000000E+00  0.00000000000E+00  0.16508762626E+01  0.16508762626E+01  0.00000000000E+00 0. -1.
         -1   -1    0    0    0  501 -0.00000000000E+00 -0.00000000000E+00 -0.11243691794E+04  0.11243691794E+04  0.00000000000E+00 0.  1.
         23    2    1    2    0    0  0.00000000000E+00  0.00000000000E+00 -0.11227183031E+04  0.11260200556E+04  0.86167148929E+02 0.  0.
          2    1    3    3  502    0 -0.12651594227E+02  0.21020741627E+02 -0.98554000520E+02  0.10156192906E+03  0.00000000000E+00 0. -1.
         -2    1    3    3    0  502  0.12651594227E+02 -0.21020741627E+02 -0.10241643026E+04  0.10244581266E+04  0.00000000000E+00 0.  1.
<mgrwt>
<rscale>  0 0.86167149E+02</rscale>
<asrwt>0</asrwt>
<pdfrwt beam="1">  1        1 0.25398128E-03 0.86167149E+02</pdfrwt>
<pdfrwt beam="2">  1       -1 0.17297966E+00 0.86167149E+02</pdfrwt>
<totfact> 0.25576174E+04</totfact>
</mgrwt>
</event>
<event>
 5    1  0.3858846E+001  0.8644427E+02  0.7546771E-02  0.1311698E+00
          1   -1    0    0  501    0  0.00000000000E+00  0.00000000000E+00  0.49737603710E+03  0.49737603710E+03  0.00000000000E+00 0. -1.
         -1   -1    0    0    0  501 -0.00000000000E+00 -0.00000000000E+00 -0.37560173738E+01  0.37560173738E+01  0.00000000000E+00 0.  1.
         23    2    1    2    0    0  0.00000000000E+00  0.00000000000E+00  0.49362001972E+03  0.50113205447E+03  0.86444271913E+02 0.  0.
          2    1    3    3  502    0  0.73381355819E+01  0.42114962011E+02  0.28376430355E+03  0.28696637125E+03  0.00000000000E+00 0. -1.
         -2    1    3    3    0  502 -0.73381355819E+01 -0.42114962011E+02  0.20985571618E+03  0.21416568322E+03  0.00000000000E+00 0.  1.
<mgrwt>
<rscale>  0 0.86444272E+02</rscale>
<asrwt>0</asrwt>
<pdfrwt beam="1">  1        1 0.76519338E-01 0.86444272E+02</pdfrwt>
<pdfrwt beam="2">  1       -1 0.57784922E-03 0.86444272E+02</pdfrwt>
<totfact> 0.16022676E+05</totfact>
</mgrwt>
</event>
<event>
 5    1  0.3858846E+001  0.9219183E+02  0.7546771E-02  0.1297629E+00
         -2   -1    0    0    0  501 -0.00000000000E+00  0.00000000000E+00  0.18773100853E+01  0.18773100853E+01  0.00000000000E+00 0. -1.
          2   -1    0    0  501    0  0.00000000000E+00 -0.00000000000E+00 -0.11318500530E+04  0.11318500530E+04  0.00000000000E+00 0.  1.
         23    2    1    2    0    0  0.00000000000E+00  0.00000000000E+00 -0.11299727429E+04  0.11337273631E+04  0.92191833033E+02 0.  0.
          2    1    3    3  502    0 -0.26884933937E+02 -0.24140313501E+02 -0.91697782553E+03  0.91768942836E+03  0.00000000000E+00 0.  1.
         -2    1    3    3    0  502  0.26884933937E+02  0.24140313501E+02 -0.21299491735E+03  0.21603793469E+03  0.00000000000E+00 0. -1.
<mgrwt>
<rscale>  0 0.92191833E+02</rscale>
<asrwt>0</asrwt>
<pdfrwt beam="2">  1        2 0.17413120E+00 0.92191833E+02</pdfrwt>
<pdfrwt beam="1">  1       -2 0.28881623E-03 0.92191833E+02</pdfrwt>
<totfact> 0.24270177E+05</totfact>
</mgrwt>
</event>
<event>
 5    1  0.3858846E+001  0.8942125E+02  0.7546771E-02  0.1304259E+00
          4   -1    0    0  501    0  0.00000000000E+00  0.00000000000E+00  0.12421982116E+03  0.12421982116E+03  0.00000000000E+00 0. -1.
         -4   -1    0    0    0  501 -0.00000000000E+00 -0.00000000000E+00 -0.16092760249E+02  0.16092760249E+02  0.00000000000E+00 0.  1.
         23    2    1    2    0    0  0.00000000000E+00  0.00000000000E+00  0.10812706091E+03  0.14031258141E+03  0.89421245801E+02 0.  0.
          2    1    3    3  502    0  0.43365721238E+02  0.10428064029E+02  0.58952917101E+02  0.73924128217E+02  0.00000000000E+00 0. -1.
         -2    1    3    3    0  502 -0.43365721238E+02 -0.10428064029E+02  0.49174143811E+02  0.66388453194E+02  0.00000000000E+00 0.  1.
<mgrwt>
<rscale>  0 0.89421246E+02</rscale>
<asrwt>0</asrwt>
<pdfrwt beam="1">  1        4 0.19110741E-01 0.89421246E+02</pdfrwt>
<pdfrwt beam="2">  1       -4 0.24758093E-02 0.89421246E+02</pdfrwt>
<totfact> 0.25464510E+04</totfact>
</mgrwt>
</event>
<event>
 5    1  0.3858846E+001  0.9070347E+02  0.7546771E-02  0.1301157E+00
         -2   -1    0    0    0  501 -0.00000000000E+00  0.00000000000E+00  0.14625020714E+01  0.14625020714E+01  0.00000000000E+00 0. -1.
          2   -1    0    0  501    0  0.00000000000E+00 -0.00000000000E+00 -0.14063432257E+04  0.14063432257E+04  0.00000000000E+00 0.  1.
         23    2    1    2    0    0  0.00000000000E+00  0.00000000000E+00 -0.14048807236E+04  0.14078057278E+04  0.90703470291E+02 0.  0.
          2    1    3    3  502    0 -0.16838318316E+02  0.39100810174E+02 -0.45980757452E+03  0.46177419580E+03  0.00000000000E+00 0. -1.
         -2    1    3    3    0  502  0.16838318316E+02 -0.39100810174E+02 -0.94507314912E+03  0.94603153198E+03  0.00000000000E+00 0.  1.
<mgrwt>
<rscale>  0 0.90703470E+02</rscale>
<asrwt>0</asrwt>
<pdfrwt beam="2">  1        2 0.21636084E+00 0.90703470E+02</pdfrwt>
<pdfrwt beam="1">  1       -2 0.22499996E-03 0.90703470E+02</pdfrwt>
<totfact> 0.24441434E+05</totfact>
</mgrwt>
</event>
<event>
 5    1  0.3858846E+001  0.9067184E+02  0.7546771E-02  0.1301233E+00
          2   -1    0    0  501    0  0.00000000000E+00  0.00000000000E+00  0.39692017185E+03  0.39692017185E+03  0.00000000000E+00 0. -1.
         -2   -1    0    0    0  501 -0.00000000000E+00 -0.00000000000E+00 -0.51782342875E+01  0.51782342875E+01  0.00000000000E+00 0.  1.
         23    2    1    2    0    0  0.00000000000E+00  0.00000000000E+00  0.39174193757E+03  0.40209840614E+03  0.90671840023E+02 0.  0.
          2    1    3    3  502    0 -0.31555057028E+02 -0.32433444192E+02  0.18356872103E+03  0.18906381269E+03  0.00000000000E+00 0.  1.
         -2    1    3    3    0  502  0.31555057028E+02  0.32433444192E+02  0.20817321653E+03  0.21303459345E+03  0.00000000000E+00 0. -1.
<mgrwt>
<rscale>  0 0.90671840E+02</rscale>
<asrwt>0</asrwt>
<pdfrwt beam="1">  1        2 0.61064618E-01 0.90671840E+02</pdfrwt>
<pdfrwt beam="2">  1       -2 0.79665174E-03 0.90671840E+02</pdfrwt>
<totfact> 0.20202933E+05</totfact>
</mgrwt>
</event>
<event>
 5    1  0.3858846E+001  0.9218999E+02  0.7546771E-02  0.1297633E+00
         -1   -1    0    0    0  501 -0.00000000000E+00  0.00000000000E+00  0.13610975769E+02  0.13610975769E+02  0.00000000000E+00 0.  1.
          1   -1    0    0  501    0  0.00000000000E+00 -0.00000000000E+00 -0.15610552227E+03  0.15610552227E+03  0.00000000000E+00 0. -1.
         23    2    1    2    0    0  0.00000000000E+00  0.00000000000E+00 -0.14249454650E+03  0.16971649804E+03  0.92189988199E+02 0.  0.
          2    1    3    3  502    0 -0.37473484699E+02  0.18706629247E+02 -0.10668475084E+03  0.11461167522E+03  0.00000000000E+00 0.  1.
         -2    1    3    3    0  502  0.37473484699E+02 -0.18706629247E+02 -0.35809795657E+02  0.55104822823E+02  0.00000000000E+00 0. -1.
<mgrwt>
<rscale>  0 0.92189988E+02</rscale>
<asrwt>0</asrwt>
<pdfrwt beam="2">  1        1 0.24016234E-01 0.92189988E+02</pdfrwt>
<pdfrwt beam="1">  1       -1 0.20939963E-02 0.92189988E+02</pdfrwt>
<totfact> 0.10964179E+05</totfact>
</mgrwt>
</event>
<event>
 5    1  0.3858846E+001  0.9452163E+02  0.7546771E-02  0.1292257E+00
         -1   -1    0    0    0  501 -0.00000000000E+00  0.00000000000E+00  0.24914756926E+01  0.24914756926E+01  0.00000000000E+00 0.  1.
          1   -1    0    0  501    0  0.00000000000E+00 -0.00000000000E+00 -0.89649064301E+03  0.89649064301E+03  0.00000000000E+00 0. -1.
         23    2    1    2    0    0  0.00000000000E+00  0.00000000000E+00 -0.89399916732E+03  0.89898211870E+03  0.94521630237E+02 0.  0.
          2    1    3    3  502    0 -0.25954574938E+02  0.17571788544E+02 -0.78341757583E+03  0.78404432645E+03  0.00000000000E+00 0. -1.
         -2    1    3    3    0  502  0.25954574938E+02 -0.17571788544E+02 -0.11058159148E+03  0.11493779225E+03  0.00000000000E+00 0.  1.
<mgrwt>
<rscale>  0 0.94521630E+02</rscale>
<asrwt>0</asrwt>
<pdfrwt beam="2">  1        1 0.13792169E+00 0.94521630E+02</pdfrwt>
<pdfrwt beam="1">  1       -1 0.38330381E-03 0.94521630E+02</pdfrwt>
<totfact> 0.12659711E+05</totfact>
</mgrwt>
</event>
<event>
 5    1  0.3858846E+001  0.6827168E+02  0.7546771E-02  0.1366071E+00
          2   -1    0    0  501    0  0.00000000000E+00  0.00000000000E+00  0.17777385006E+03  0.17777385006E+03  0.00000000000E+00 0. -1.
         -2   -1    0    0    0  501 -0.00000000000E+00 -0.00000000000E+00 -0.65547072547E+01  0.65547072547E+01  0.00000000000E+00 0.  1.
         23    2    1    2    0    0  0.00000000000E+00  0.00000000000E+00  0.17121914280E+03  0.18432855731E+03  0.68271679185E+02 0.  0.
          2    1    3    3  502    0 -0.31468305803E+02  0.12111585665E+02  0.99975306657E+02  0.10550832535E+03  0.00000000000E+00 0. -1.
         -2    1    3    3    0  502  0.31468305803E+02 -0.12111585665E+02  0.71243836147E+02  0.78820231961E+02  0.00000000000E+00 0.  1.
<mgrwt>
<rscale>  0 0.68271679E+02</rscale>
<asrwt>0</asrwt>
<pdfrwt beam="1">  1        2 0.27349819E-01 0.68271679E+02</pdfrwt>
<pdfrwt beam="2">  1       -2 0.10084166E-02 0.68271679E+02</pdfrwt>
<totfact> 0.31940932E+05</totfact>
</mgrwt>
</event>
<event>
 5    1  0.3858846E+001  0.9583274E+02  0.7546771E-02  0.1289311E+00
         -3   -1    0    0    0  501 -0.00000000000E+00  0.00000000000E+00  0.12675491847E+03  0.12675491847E+03  0.00000000000E+00 0.  1.
          3   -1    0    0  501    0  0.00000000000E+00 -0.00000000000E+00 -0.18113524674E+02  0.18113524674E+02  0.00000000000E+00 0. -1.
         23    2    1    2    0    0  0.00000000000E+00  0.00000000000E+00  0.10864139379E+03  0.14486844314E+03  0.95832736436E+02 0.  0.
          2    1    3    3  502    0  0.13347813958E+02 -0.45966459964E+02  0.57666521486E+02  0.74943360476E+02  0.00000000000E+00 0. -1.
         -2    1    3    3    0  502 -0.13347813958E+02  0.45966459964E+02  0.50974872305E+02  0.69925082664E+02  0.00000000000E+00 0.  1.
<mgrwt>
<rscale>  0 0.95832736E+02</rscale>
<asrwt>0</asrwt>
<pdfrwt beam="2">  1        3 0.27866962E-02 0.95832736E+02</pdfrwt>
<pdfrwt beam="1">  1       -3 0.19500756E-01 0.95832736E+02</pdfrwt>
<totfact> 0.27617439E+04</totfact>
</mgrwt>
</event>
<event>
 5    1  0.3858846E+001  0.9019389E+02  0.7546771E-02  0.1302383E+00
          1   -1    0    0  501    0  0.00000000000E+00  0.00000000000E+00  0.13959962695E+03  0.13959962695E+03  0.00000000000E+00 0. -1.
         -1   -1    0    0    0  501 -0.00000000000E+00 -0.00000000000E+00 -0.14568337214E+02  0.14568337214E+02  0.00000000000E+00 0.  1.
         23    2    1    2    0    0  0.00000000000E+00  0.00000000000E+00  0.12503128974E+03  0.15416796416E+03  0.90193889823E+02 0.  0.
          2    1    3    3  502    0 -0.64710704538E+01  0.39498020504E+02  0.98033053535E+02  0.10588884720E+03  0.00000000000E+00 0. -1.
         -2    1    3    3    0  502  0.64710704538E+01 -0.39498020504E+02  0.26998236201E+02  0.48279116961E+02  0.00000000000E+00 0.  1.
<mgrwt>
<rscale>  0 0.90193890E+02</rscale>
<asrwt>0</asrwt>
<pdfrwt beam="1">  1        1 0.21476865E-01 0.90193890E+02</pdfrwt>
<pdfrwt beam="2">  1       -1 0.22412828E-02 0.90193890E+02</pdfrwt>
<totfact> 0.11395788E+05</totfact>
</mgrwt>
</event>
<event>
 5    1  0.3858846E+001  0.7199513E+02  0.7546771E-02  0.1353437E+00
         -2   -1    0    0    0  501 -0.00000000000E+00  0.00000000000E+00  0.23749454355E+01  0.23749454355E+01  0.00000000000E+00 0. -1.
          2   -1    0    0  501    0  0.00000000000E+00 -0.00000000000E+00 -0.54562292809E+03  0.54562292809E+03  0.00000000000E+00 0.  1.
         23    2    1    2    0    0  0.00000000000E+00  0.00000000000E+00 -0.54324798265E+03  0.54799787352E+03  0.71995129907E+02 0.  0.
          2    1    3    3  502    0 -0.26413694336E+02 -0.12963912127E+02 -0.42947580550E+03  0.43048253597E+03  0.00000000000E+00 0.  1.
         -2    1    3    3    0  502  0.26413694336E+02  0.12963912127E+02 -0.11377217716E+03  0.11751533756E+03  0.00000000000E+00 0. -1.
<mgrwt>
<rscale>  0 0.71995130E+02</rscale>
<asrwt>0</asrwt>
<pdfrwt beam="2">  1        2 0.83942038E-01 0.71995130E+02</pdfrwt>
<pdfrwt beam="1">  1       -2 0.36537601E-03 0.71995130E+02</pdfrwt>
<totfact> 0.41048830E+05</totfact>
</mgrwt>
</event>
<event>
 5    1  0.3858846E+001  0.8996940E+02  0.7546771E-02  0.1302926E+00
         -2   -1    0    0    0  501 -0.00000000000E+00  0.00000000000E+00  0.83477671885E+00  0.83477671885E+00  0.00000000000E+00 0.  1.
          2   -1    0    0  501    0  0.00000000000E+00 -0.00000000000E+00 -0.24241489750E+04  0.24241489750E+04  0.00000000000E+00 0. -1.
         23    2    1    2    0    0  0.00000000000E+00  0.00000000000E+00 -0.24233141983E+04  0.24249837517E+04  0.89969397627E+02 0.  0.
          2    1    3    3  502    0 -0.20602605247E+02  0.26319592250E+02 -0.40016869718E+03  0.40156216764E+03  0.00000000000E+00 0.  1.
         -2    1    3    3    0  502  0.20602605247E+02 -0.26319592250E+02 -0.20231455011E+04  0.20234215841E+04  0.00000000000E+00 0. -1.
<mgrwt>
<rscale>  0 0.89969398E+02</rscale>
<asrwt>0</asrwt>
<pdfrwt beam="2">  1        2 0.37293969E+00 0.89969398E+02</pdfrwt>
<pdfrwt beam="1">  1       -2 0.12842936E-03 0.89969398E+02</pdfrwt>
<totfact> 0.16159459E+05</totfact>
</mgrwt>
</event>
<event>
 5    1  0.3858846E+001  0.9142270E+02  0.7546771E-02  0.1299443E+00
         -2   -1    0    0    0  501 -0.00000000000E+00  0.00000000000E+00  0.25448334817E+01  0.25448334817E+01  0.00000000000E+00 0.  1.
          2   -1    0    0  501    0  0.00000000000E+00 -0.00000000000E+00 -0.82108617045E+03  0.82108617045E+03  0.00000000000E+00 0. -1.
         23    2    1    2    0    0  0.00000000000E+00  0.00000000000E+00 -0.81854133697E+03  0.82363100393E+03  0.91422701292E+02 0.  0.
          2    1    3    3  502    0 -0.33205684697E+02 -0.31372038919E+02 -0.39445290015E+03  0.39708930073E+03  0.00000000000E+00 0. -1.
         -2    1    3    3    0  502  0.33205684697E+02  0.31372038919E+02 -0.42408843682E+03  0.42654170320E+03  0.00000000000E+00 0.  1.
<mgrwt>
<rscale>  0 0.91422701E+02</rscale>
<asrwt>0</asrwt>
<pdfrwt beam="2">  1        2 0.12632094E+00 0.91422701E+02</pdfrwt>
<pdfrwt beam="1">  1       -2 0.39151288E-03 0.91422701E+02</pdfrwt>
<totfact> 0.24308378E+05</totfact>
</mgrwt>
</event>
<event>
 5    1  0.3858846E+001  0.9071599E+02  0.7546771E-02  0.1301127E+00
          4   -1    0    0  501    0  0.00000000000E+00  0.00000000000E+00  0.33905138057E+03  0.33905138057E+03  0.00000000000E+00 0. -1.
         -4   -1    0    0    0  501 -0.00000000000E+00 -0.00000000000E+00 -0.60679522997E+01  0.60679522997E+01  0.00000000000E+00 0.  1.
         23    2    1    2    0    0  0.00000000000E+00  0.00000000000E+00  0.33298342827E+03  0.34511933287E+03  0.90715987664E+02 0.  0.
          2    1    3    3  502    0  0.18660093250E+02  0.23134057661E+02  0.29684225161E+03  0.29832650912E+03  0.00000000000E+00 0. -1.
         -2    1    3    3    0  502 -0.18660093250E+02 -0.23134057661E+02  0.36141176662E+02  0.46792823749E+02  0.00000000000E+00 0.  1.
<mgrwt>
<rscale>  0 0.90715988E+02</rscale>
<asrwt>0</asrwt>
<pdfrwt beam="1">  1        4 0.52161736E-01 0.90715988E+02</pdfrwt>
<pdfrwt beam="2">  1       -4 0.93353139E-03 0.90715988E+02</pdfrwt>
<totfact> 0.16750472E+04</totfact>
</mgrwt>
</event>
<event>
 5    1  0.3858846E+001  0.9575157E+02  0.7546771E-02  0.1289492E+00
         -2   -1    0    0    0  501 -0.00000000000E+00  0.00000000000E+00  0.54526767753E+01  0.54526767753E+01  0.00000000000E+00 0.  1.
          2   -1    0    0  501    0  0.00000000000E+00 -0.00000000000E+00 -0.42036062995E+03  0.42036062995E+03  0.00000000000E+00 0. -1.
         23    2    1    2    0    0  0.00000000000E+00  0.00000000000E+00 -0.41490795317E+03  0.42581330672E+03  0.95751566966E+02 0.  0.
          2    1    3    3  502    0  0.74068298324E+01  0.34875173376E+02 -0.34954804802E+03  0.35136160394E+03  0.00000000000E+00 0. -1.
         -2    1    3    3    0  502 -0.74068298324E+01 -0.34875173376E+02 -0.65359905146E+02  0.74451702780E+02  0.00000000000E+00 0.  1.
<mgrwt>
<rscale>  0 0.95751567E+02</rscale>
<asrwt>0</asrwt>
<pdfrwt beam="2">  1        2 0.64670896E-01 0.95751567E+02</pdfrwt>
<pdfrwt beam="1">  1       -2 0.83887296E-03 0.95751567E+02</pdfrwt>
<totfact> 0.17835695E+05</totfact>
</mgrwt>
</event>
<event>
 5    1  0.3858846E+001  0.9377364E+02  0.7546771E-02  0.1293962E+00
         -2   -1    0    0    0  501 -0.00000000000E+00  0.00000000000E+00  0.27784105396E+01  0.27784105396E+01  0.00000000000E+00 0.  1.
          2   -1    0    0  501    0  0.00000000000E+00 -0.00000000000E+00 -0.79123435360E+03  0.79123435360E+03  0.00000000000E+00 0. -1.
         23    2    1    2    0    0  0.00000000000E+00  0.00000000000E+00 -0.78845594306E+03  0.79401276414E+03  0.93773639522E+02 0.  0.
          2    1    3    3  502    0 -0.61115396250E+01 -0.44492244213E+02 -0.28016598228E+03  0.28374264456E+03  0.00000000000E+00 0. -1.
         -2    1    3    3    0  502  0.61115396250E+01  0.44492244213E+02 -0.50828996077E+03  0.51027011958E+03  0.00000000000E+00 0.  1.
<mgrwt>
<rscale>  0 0.93773640E+02</rscale>
<asrwt>0</asrwt>
<pdfrwt beam="2">  1        2 0.12172831E+00 0.93773640E+02</pdfrwt>
<pdfrwt beam="1">  1       -2 0.42744795E-03 0.93773640E+02</pdfrwt>
<totfact> 0.22588094E+05</totfact>
</mgrwt>
</event>
<event>
 5    1  0.3858846E+001  0.9245752E+02  0.7546771E-02  0.1297007E+00
         -2   -1    0    0    0  501 -0.00000000000E+00  0.00000000000E+00  0.24223590660E+03  0.24223590660E+03  0.00000000000E+00 0.  1.
          2   -1    0    0  501    0  0.00000000000E+00 -0.00000000000E+00 -0.88223851509E+01  0.88223851509E+01  0.00000000000E+00 0. -1.
         23    2    1    2    0    0  0.00000000000E+00  0.00000000000E+00  0.23341352145E+03  0.25105829175E+03  0.92457524635E+02 0.  0.
          2    1    3    3  502    0 -0.39594247325E+02 -0.17346098203E+02  0.72211879677E+02  0.84161434818E+02  0.00000000000E+00 0. -1.
         -2    1    3    3    0  502  0.39594247325E+02  0.17346098203E+02  0.16120164177E+03  0.16689685693E+03  0.00000000000E+00 0.  1.
<mgrwt>
<rscale>  0 0.92457525E+02</rscale>
<asrwt>0</asrwt>
<pdfrwt beam="2">  1        2 0.13572902E-02 0.92457525E+02</pdfrwt>
<pdfrwt beam="1">  1       -2 0.37267057E-01 0.92457525E+02</pdfrwt>
<totfact> 0.55052049E+04</totfact>
</mgrwt>
</event>
<event>
 5    1  0.3858846E+001  0.8987653E+02  0.7546771E-02  0.1303151E+00
          1   -1    0    0  501    0  0.00000000000E+00  0.00000000000E+00  0.39967912040E+01  0.39967912040E+01  0.00000000000E+00 0. -1.
         -1   -1    0    0    0  501 -0.00000000000E+00 -0.00000000000E+00 -0.50526725944E+03  0.50526725944E+03  0.00000000000E+00 0.  1.
         23    2    1    2    0    0  0.00000000000E+00  0.00000000000E+00 -0.50127046824E+03  0.50926405064E+03  0.89876531713E+02 0.  0.
          2    1    3    3  502    0  0.39321148646E+01  0.44761863574E+02 -0.24722708052E+03  0.25127736726E+03  0.00000000000E+00 0. -1.
         -2    1    3    3    0  502 -0.39321148646E+01 -0.44761863574E+02 -0.25404338772E+03  0.25798668338E+03  0.00000000000E+00 0.  1.
<mgrwt>
<rscale>  0 0.89876532E+02</rscale>
<asrwt>0</asrwt>
<pdfrwt beam="1">  1        1 0.61489095E-03 0.89876532E+02</pdfrwt>
<pdfrwt beam="2">  1       -1 0.77733425E-01 0.89876532E+02</pdfrwt>
<totfact> 0.48530924E+04</totfact>
</mgrwt>
</event>
<event>
 5    1  0.3858846E+001  0.9285609E+02  0.7546771E-02  0.1296079E+00
          4   -1    0    0  501    0  0.00000000000E+00  0.00000000000E+00  0.32734949242E+02  0.32734949242E+02  0.00000000000E+00 0. -1.
         -4   -1    0    0    0  501 -0.00000000000E+00 -0.00000000000E+00 -0.65848997149E+02  0.65848997149E+02  0.00000000000E+00 0.  1.
         23    2    1    2    0    0  0.00000000000E+00  0.00000000000E+00 -0.33114047907E+02  0.98583946391E+02  0.92856094669E+02 0.  0.
          2    1    3    3  502    0 -0.19412641253E+02  0.37851557566E+02  0.31906793238E+01  0.42658779696E+02  0.00000000000E+00 0. -1.
         -2    1    3    3    0  502  0.19412641253E+02 -0.37851557566E+02 -0.36304727231E+02  0.55925166695E+02  0.00000000000E+00 0.  1.
<mgrwt>
<rscale>  0 0.92856095E+02</rscale>
<asrwt>0</asrwt>
<pdfrwt beam="1">  1        4 0.50361461E-02 0.92856095E+02</pdfrwt>
<pdfrwt beam="2">  1       -4 0.10130615E-01 0.92856095E+02</pdfrwt>
<totfact> 0.25260803E+04</totfact>
</mgrwt>
</event>
<event>
 5    1  0.3858846E+001  0.9446351E+02  0.7546771E-02  0.1292389E+00
         -1   -1    0    0    0  501 -0.00000000000E+00  0.00000000000E+00  0.17816404220E+01  0.17816404220E+01  0.00000000000E+00 0.  1.
          1   -1    0    0  501    0  0.00000000000E+00 -0.00000000000E+00 -0.12521262502E+04  0.12521262502E+04  0.00000000000E+00 0. -1.
         23    2    1    2    0    0  0.00000000000E+00  0.00000000000E+00 -0.12503446098E+04  0.12539078906E+04  0.94463511280E+02 0.  0.
          2    1    3    3  502    0  0.30892419800E+02 -0.95802226716E+01 -0.10820592663E+04  0.10825425526E+04  0.00000000000E+00 0. -1.
         -2    1    3    3    0  502 -0.30892419800E+02  0.95802226716E+01 -0.16828534348E+03  0.17136533809E+03  0.00000000000E+00 0.  1.
<mgrwt>
<rscale>  0 0.94463511E+02</rscale>
<asrwt>0</asrwt>
<pdfrwt beam="2">  1        1 0.19263488E+00 0.94463511E+02</pdfrwt>
<pdfrwt beam="1">  1       -1 0.27409843E-03 0.94463511E+02</pdfrwt>
<totfact> 0.11347219E+05</totfact>
</mgrwt>
</event>
<event>
 5    1  0.3858846E+001  0.9140822E+02  0.7546771E-02  0.1299477E+00
         -2   -1    0    0    0  501 -0.00000000000E+00  0.00000000000E+00  0.68833798557E+02  0.68833798557E+02  0.00000000000E+00 0.  1.
          2   -1    0    0  501    0  0.00000000000E+00 -0.00000000000E+00 -0.30346510911E+02  0.30346510911E+02  0.00000000000E+00 0. -1.
         23    2    1    2    0    0  0.00000000000E+00  0.00000000000E+00  0.38487287647E+02  0.99180309468E+02  0.91408218863E+02 0.  0.
          2    1    3    3  502    0 -0.20520869265E+02  0.40706521944E+02  0.15688031986E+02  0.48210386348E+02  0.00000000000E+00 0. -1.
         -2    1    3    3    0  502  0.20520869265E+02 -0.40706521944E+02  0.22799255661E+02  0.50969923120E+02  0.00000000000E+00 0.  1.
<mgrwt>
<rscale>  0 0.91408219E+02</rscale>
<asrwt>0</asrwt>
<pdfrwt beam="2">  1        2 0.46686940E-02 0.91408219E+02</pdfrwt>
<pdfrwt beam="1">  1       -2 0.10589815E-01 0.91408219E+02</pdfrwt>
<totfact> 0.88072333E+04</totfact>
</mgrwt>
</event>
<event>
 5    1  0.3858846E+001  0.9313524E+02  0.7546771E-02  0.1295432E+00
         -3   -1    0    0    0  501 -0.00000000000E+00  0.00000000000E+00  0.43897928391E+01  0.43897928391E+01  0.00000000000E+00 0.  1.
          3   -1    0    0  501    0  0.00000000000E+00 -0.00000000000E+00 -0.49399671456E+03  0.49399671456E+03  0.00000000000E+00 0. -1.
         23    2    1    2    0    0  0.00000000000E+00  0.00000000000E+00 -0.48960692172E+03  0.49838650740E+03  0.93135240164E+02 0.  0.
          2    1    3    3  502    0  0.25930710396E+02 -0.30182121692E+02 -0.37425206048E+03  0.37636148446E+03  0.00000000000E+00 0. -1.
         -2    1    3    3    0  502 -0.25930710396E+02  0.30182121692E+02 -0.11535486125E+03  0.12202502295E+03  0.00000000000E+00 0.  1.
<mgrwt>
<rscale>  0 0.93135240E+02</rscale>
<asrwt>0</asrwt>
<pdfrwt beam="2">  1        3 0.75999466E-01 0.93135240E+02</pdfrwt>
<pdfrwt beam="1">  1       -3 0.67535300E-03 0.93135240E+02</pdfrwt>
<totfact> 0.16959474E+04</totfact>
</mgrwt>
</event>
<event>
 5    1  0.3858846E+001  0.9206823E+02  0.7546771E-02  0.1297919E+00
         -4   -1    0    0    0  501 -0.00000000000E+00  0.00000000000E+00  0.39666025644E+01  0.39666025644E+01  0.00000000000E+00 0.  1.
          4   -1    0    0  501    0  0.00000000000E+00 -0.00000000000E+00 -0.53424556254E+03  0.53424556254E+03  0.00000000000E+00 0. -1.
         23    2    1    2    0    0  0.00000000000E+00  0.00000000000E+00 -0.53027895997E+03  0.53821216510E+03  0.92068231620E+02 0.  0.
          2    1    3    3  502    0  0.32852190810E+02 -0.19706077792E+02 -0.41435553077E+03  0.41612270044E+03  0.00000000000E+00 0. -1.
         -2    1    3    3    0  502 -0.32852190810E+02  0.19706077792E+02 -0.11592342920E+03  0.12208946466E+03  0.00000000000E+00 0.  1.
<mgrwt>
<rscale>  0 0.92068232E+02</rscale>
<asrwt>0</asrwt>
<pdfrwt beam="2">  1        4 0.82191647E-01 0.92068232E+02</pdfrwt>
<pdfrwt beam="1">  1       -4 0.61024638E-03 0.92068232E+02</pdfrwt>
<totfact> 0.12078209E+04</totfact>
</mgrwt>
</event>
<event>
 5    1  0.3858846E+001  0.8904429E+02  0.7546771E-02  0.1305183E+00
         -1   -1    0    0    0  501 -0.00000000000E+00  0.00000000000E+00  0.22610481733E+01  0.22610481733E+01  0.00000000000E+00 0.  1.
          1   -1    0    0  501    0  0.00000000000E+00 -0.00000000000E+00 -0.87668250002E+03  0.87668250002E+03  0.00000000000E+00 0. -1.
         23    2    1    2    0    0  0.00000000000E+00  0.00000000000E+00 -0.87442145185E+03  0.87894354819E+03  0.89044289323E+02 0.  0.
          2    1    3    3  502    0 -0.23592941733E+02  0.37338592022E+02 -0.38187753405E+03  0.38442326720E+03  0.00000000000E+00 0. -1.
         -2    1    3    3    0  502  0.23592941733E+02 -0.37338592022E+02 -0.49254391780E+03  0.49452028099E+03  0.00000000000E+00 0.  1.
<mgrwt>
<rscale>  0 0.89044289E+02</rscale>
<asrwt>0</asrwt>
<pdfrwt beam="2">  1        1 0.13487435E+00 0.89044289E+02</pdfrwt>
<pdfrwt beam="1">  1       -1 0.34785325E-03 0.89044289E+02</pdfrwt>
<totfact> 0.14878432E+05</totfact>
</mgrwt>
</event>
<event>
 5    1  0.3858846E+001  0.9135407E+02  0.7546771E-02  0.1299605E+00
          1   -1    0    0  501    0  0.00000000000E+00  0.00000000000E+00  0.92522062153E+03  0.92522062153E+03  0.00000000000E+00 0. -1.
         -1   -1    0    0    0  501 -0.00000000000E+00 -0.00000000000E+00 -0.22550207608E+01  0.22550207608E+01  0.00000000000E+00 0.  1.
         23    2    1    2    0    0  0.00000000000E+00  0.00000000000E+00  0.92296560077E+03  0.92747564229E+03  0.91354074017E+02 0.  0.
          2    1    3    3  502    0  0.17819853520E+02 -0.16209531781E+02  0.85548701210E+03  0.85582610615E+03  0.00000000000E+00 0. -1.
         -2    1    3    3    0  502 -0.17819853520E+02  0.16209531781E+02  0.67478588665E+02  0.71649536134E+02  0.00000000000E+00 0.  1.
<mgrwt>
<rscale>  0 0.91354074E+02</rscale>
<asrwt>0</asrwt>
<pdfrwt beam="1">  1        1 0.14234133E+00 0.91354074E+02</pdfrwt>
<pdfrwt beam="2">  1       -1 0.34692701E-03 0.91354074E+02</pdfrwt>
<totfact> 0.13775976E+05</totfact>
</mgrwt>
</event>
<event>
 5    1  0.3858846E+001  0.8965709E+02  0.7546771E-02  0.1303684E+00
         -1   -1    0    0    0  501 -0.00000000000E+00  0.00000000000E+00  0.32998645351E+03  0.32998645351E+03  0.00000000000E+00 0.  1.
          1   -1    0    0  501    0  0.00000000000E+00 -0.00000000000E+00 -0.60899418377E+01  0.60899418377E+01  0.00000000000E+00 0. -1.
         23    2    1    2    0    0  0.00000000000E+00  0.00000000000E+00  0.32389651168E+03  0.33607639535E+03  0.89657086929E+02 0.  0.
          2    1    3    3  502    0  0.35136603000E+02  0.11074164707E+02  0.66205965933E+02  0.75765743707E+02  0.00000000000E+00 0. -1.
         -2    1    3    3    0  502 -0.35136603000E+02 -0.11074164707E+02  0.25769054574E+03  0.26031065164E+03  0.00000000000E+00 0.  1.
<mgrwt>
<rscale>  0 0.89657087E+02</rscale>
<asrwt>0</asrwt>
<pdfrwt beam="2">  1        1 0.93691438E-03 0.89657087E+02</pdfrwt>
<pdfrwt beam="1">  1       -1 0.50767133E-01 0.89657087E+02</pdfrwt>
<totfact> 0.60884609E+04</totfact>
</mgrwt>
</event>
<event>
 5    1  0.3858846E+001  0.8900469E+02  0.7546771E-02  0.1305280E+00
          1   -1    0    0  501    0  0.00000000000E+00  0.00000000000E+00  0.43327451156E+03  0.43327451156E+03  0.00000000000E+00 0. -1.
         -1   -1    0    0    0  501 -0.00000000000E+00 -0.00000000000E+00 -0.45709094664E+01  0.45709094664E+01  0.00000000000E+00 0.  1.
         23    2    1    2    0    0  0.00000000000E+00  0.00000000000E+00  0.42870360209E+03  0.43784542102E+03  0.89004686762E+02 0.  0.
          2    1    3    3  502    0 -0.69526072229E+01 -0.43880733510E+02  0.20171275459E+03  0.20654755599E+03  0.00000000000E+00 0. -1.
         -2    1    3    3    0  502  0.69526072229E+01  0.43880733510E+02  0.22699084750E+03  0.23129786504E+03  0.00000000000E+00 0.  1.
<mgrwt>
<rscale>  0 0.89004687E+02</rscale>
<asrwt>0</asrwt>
<pdfrwt beam="1">  1        1 0.66657585E-01 0.89004687E+02</pdfrwt>
<pdfrwt beam="2">  1       -1 0.70321718E-03 0.89004687E+02</pdfrwt>
<totfact> 0.14560675E+05</totfact>
</mgrwt>
</event>
<event>
 5    1  0.3858846E+001  0.9066770E+02  0.7546771E-02  0.1301243E+00
         -1   -1    0    0    0  501 -0.00000000000E+00  0.00000000000E+00  0.35842287486E+02  0.35842287486E+02  0.00000000000E+00 0.  1.
          1   -1    0    0  501    0  0.00000000000E+00 -0.00000000000E+00 -0.57338916571E+02  0.57338916571E+02  0.00000000000E+00 0. -1.
         23    2    1    2    0    0  0.00000000000E+00  0.00000000000E+00 -0.21496629085E+02  0.93181204057E+02  0.90667699471E+02 0.  0.
          2    1    3    3  502    0 -0.30583281932E+01 -0.40000498811E+02 -0.32446755799E+02  0.51596368461E+02  0.00000000000E+00 0. -1.
         -2    1    3    3    0  502  0.30583281932E+01  0.40000498811E+02  0.10950126715E+02  0.41584835596E+02  0.00000000000E+00 0.  1.
<mgrwt>
<rscale>  0 0.90667699E+02</rscale>
<asrwt>0</asrwt>
<pdfrwt beam="2">  1        1 0.88213717E-02 0.90667699E+02</pdfrwt>
<pdfrwt beam="1">  1       -1 0.55141981E-02 0.90667699E+02</pdfrwt>
<totfact> 0.97212899E+04</totfact>
</mgrwt>
</event>
<event>
 5    1  0.3858846E+001  0.9803348E+02  0.7546771E-02  0.1284486E+00
         -1   -1    0    0    0  501 -0.00000000000E+00  0.00000000000E+00  0.98339068763E+00  0.98339068763E+00  0.00000000000E+00 0.  1.
          1   -1    0    0  501    0  0.00000000000E+00 -0.00000000000E+00 -0.24432207746E+04  0.24432207746E+04  0.00000000000E+00 0. -1.
         23    2    1    2    0    0  0.00000000000E+00  0.00000000000E+00 -0.24422373839E+04  0.24442041652E+04  0.98033475049E+02 0.  0.
          2    1    3    3  502    0  0.20023234416E+02  0.38772514292E+02 -0.17777316451E+04  0.17782671453E+04  0.00000000000E+00 0. -1.
         -2    1    3    3    0  502 -0.20023234416E+02 -0.38772514292E+02 -0.66450573872E+03  0.66593701998E+03  0.00000000000E+00 0.  1.
<mgrwt>
<rscale>  0 0.98033475E+02</rscale>
<asrwt>0</asrwt>
<pdfrwt beam="2">  1        1 0.37587637E+00 0.98033475E+02</pdfrwt>
<pdfrwt beam="1">  1       -1 0.15129238E-03 0.98033475E+02</pdfrwt>
<totfact> 0.45408094E+04</totfact>
</mgrwt>
</event>
<event>
 5    1  0.3858846E+001  0.9114206E+02  0.7546771E-02  0.1300109E+00
          2   -1    0    0  501    0  0.00000000000E+00  0.00000000000E+00  0.20441522560E+04  0.20441522560E+04  0.00000000000E+00 0. -1.
         -2   -1    0    0    0  501 -0.00000000000E+00 -0.00000000000E+00 -0.10159316158E+01  0.10159316158E+01  0.00000000000E+00 0.  1.
         23    2    1    2    0    0  0.00000000000E+00  0.00000000000E+00  0.20431363243E+04  0.20451681876E+04  0.91142062832E+02 0.  0.
          2    1    3    3  502    0 -0.30399750762E+02 -0.17832808286E+01  0.17823228402E+04  0.17825829663E+04  0.00000000000E+00 0. -1.
         -2    1    3    3    0  502  0.30399750762E+02  0.17832808286E+01  0.26081348417E+03  0.26258522133E+03  0.00000000000E+00 0.  1.
<mgrwt>
<rscale>  0 0.91142063E+02</rscale>
<asrwt>0</asrwt>
<pdfrwt beam="1">  1        2 0.31448167E+00 0.91142063E+02</pdfrwt>
<pdfrwt beam="2">  1       -2 0.15629881E-03 0.91142063E+02</pdfrwt>
<totfact> 0.19291642E+05</totfact>
</mgrwt>
</event>
<event>
 5    1  0.3858846E+001  0.9267744E+02  0.7546771E-02  0.1296494E+00
          2   -1    0    0  501    0  0.00000000000E+00  0.00000000000E+00  0.43277138044E+02  0.43277138044E+02  0.00000000000E+00 0. -1.
         -2   -1    0    0    0  501 -0.00000000000E+00 -0.00000000000E+00 -0.49616889159E+02  0.49616889159E+02  0.00000000000E+00 0.  1.
         23    2    1    2    0    0  0.00000000000E+00  0.00000000000E+00 -0.63397511149E+01  0.92894027203E+02  0.92677439789E+02 0.  0.
          2    1    3    3  502    0 -0.38896016628E+02  0.24632943066E+02  0.20954921928E+01  0.46087667344E+02  0.00000000000E+00 0. -1.
         -2    1    3    3    0  502  0.38896016628E+02 -0.24632943066E+02 -0.84352433078E+01  0.46806359860E+02  0.00000000000E+00 0.  1.
<mgrwt>
<rscale>  0 0.92677440E+02</rscale>
<asrwt>0</asrwt>
<pdfrwt beam="1">  1        2 0.66580213E-02 0.92677440E+02</pdfrwt>
<pdfrwt beam="2">  1       -2 0.76333675E-02 0.92677440E+02</pdfrwt>
<totfact> 0.92869841E+04</totfact>
</mgrwt>
</event>
<event>
 5    1  0.3858846E+001  0.8248919E+02  0.7546771E-02  0.1322132E+00
         -2   -1    0    0    0  501 -0.00000000000E+00  0.00000000000E+00  0.14738940587E+01  0.14738940587E+01  0.00000000000E+00 0.  1.
          2   -1    0    0  501    0  0.00000000000E+00 -0.00000000000E+00 -0.11541649105E+04  0.11541649105E+04  0.00000000000E+00 0. -1.
         23    2    1    2    0    0  0.00000000000E+00  0.00000000000E+00 -0.11526910164E+04  0.11556388045E+04  0.82489194547E+02 0.  0.
          2    1    3    3  502    0 -0.71634538182E+00  0.32920733542E+02 -0.22840304801E+03  0.23076446907E+03  0.00000000000E+00 0.  1.
         -2    1    3    3    0  502  0.71634538182E+00 -0.32920733542E+02 -0.92428796840E+03  0.92487433545E+03  0.00000000000E+00 0. -1.
<mgrwt>
<rscale>  0 0.82489195E+02</rscale>
<asrwt>0</asrwt>
<pdfrwt beam="2">  1        2 0.17756423E+00 0.82489195E+02</pdfrwt>
<pdfrwt beam="1">  1       -2 0.22675242E-03 0.82489195E+02</pdfrwt>
<totfact> 0.32442956E+05</totfact>
</mgrwt>
</event>
<event>
 5    1  0.3858846E+001  0.9251852E+02  0.7546771E-02  0.1296865E+00
         -1   -1    0    0    0  501 -0.00000000000E+00  0.00000000000E+00  0.70856530024E+02  0.70856530024E+02  0.00000000000E+00 0.  1.
          1   -1    0    0  501    0  0.00000000000E+00 -0.00000000000E+00 -0.30200729915E+02  0.30200729915E+02  0.00000000000E+00 0. -1.
         23    2    1    2    0    0  0.00000000000E+00  0.00000000000E+00  0.40655800109E+02  0.10105725994E+03  0.92518515466E+02 0.  0.
          2    1    3    3  502    0 -0.38220865391E+01  0.37027268768E+02 -0.96712257280E+01  0.38459843799E+02  0.00000000000E+00 0. -1.
         -2    1    3    3    0  502  0.38220865391E+01 -0.37027268768E+02  0.50327025837E+02  0.62597416141E+02  0.00000000000E+00 0.  1.
<mgrwt>
<rscale>  0 0.92518515E+02</rscale>
<asrwt>0</asrwt>
<pdfrwt beam="2">  1        1 0.46462662E-02 0.92518515E+02</pdfrwt>
<pdfrwt beam="1">  1       -1 0.10901005E-01 0.92518515E+02</pdfrwt>
<totfact> 0.83206840E+04</totfact>
</mgrwt>
</event>
<event>
 5    1  0.3858846E+001  0.9000167E+02  0.7546771E-02  0.1302848E+00
         -3   -1    0    0    0  501 -0.00000000000E+00  0.00000000000E+00  0.41333957835E+02  0.41333957835E+02  0.00000000000E+00 0.  1.
          3   -1    0    0  501    0  0.00000000000E+00 -0.00000000000E+00 -0.48993015174E+02  0.48993015174E+02  0.00000000000E+00 0. -1.
         23    2    1    2    0    0  0.00000000000E+00  0.00000000000E+00 -0.76590573385E+01  0.90326973009E+02  0.90001671616E+02 0.  0.
          2    1    3    3  502    0 -0.27927024487E+02 -0.14037774419E+02 -0.36320874898E+02  0.47918511670E+02  0.00000000000E+00 0. -1.
         -2    1    3    3    0  502  0.27927024487E+02  0.14037774419E+02  0.28661817559E+02  0.42408461339E+02  0.00000000000E+00 0.  1.
<mgrwt>
<rscale>  0 0.90001672E+02</rscale>
<asrwt>0</asrwt>
<pdfrwt beam="2">  1        3 0.75373870E-02 0.90001672E+02</pdfrwt>
<pdfrwt beam="1">  1       -3 0.63590704E-02 0.90001672E+02</pdfrwt>
<totfact> 0.36675495E+04</totfact>
</mgrwt>
</event>
<event>
 5    1  0.3858846E+001  0.9211299E+02  0.7546771E-02  0.1297814E+00
          2   -1    0    0  501    0  0.00000000000E+00  0.00000000000E+00  0.99919849850E+01  0.99919849850E+01  0.00000000000E+00 0.  1.
         -2   -1    0    0    0  501 -0.00000000000E+00 -0.00000000000E+00 -0.21229020259E+03  0.21229020259E+03  0.00000000000E+00 0. -1.
         23    2    1    2    0    0  0.00000000000E+00  0.00000000000E+00 -0.20229821761E+03  0.22228218758E+03  0.92112985334E+02 0.  0.
          2    1    3    3  502    0 -0.35699375857E+02 -0.10518998050E+02 -0.16662085325E+03  0.17072669239E+03  0.00000000000E+00 0. -1.
         -2    1    3    3    0  502  0.35699375857E+02  0.10518998050E+02 -0.35677364357E+02  0.51555495187E+02  0.00000000000E+00 0.  1.
<mgrwt>
<rscale>  0 0.92112985E+02</rscale>
<asrwt>0</asrwt>
<pdfrwt beam="1">  1        2 0.15372287E-02 0.92112985E+02</pdfrwt>
<pdfrwt beam="2">  1       -2 0.32660027E-01 0.92112985E+02</pdfrwt>
<totfact> 0.59134241E+04</totfact>
</mgrwt>
</event>
<event>
 5    1  0.3858846E+001  0.8844177E+02  0.7546771E-02  0.1306670E+00
         -2   -1    0    0    0  501 -0.00000000000E+00  0.00000000000E+00  0.21792991056E+04  0.21792991056E+04  0.00000000000E+00 0.  1.
          2   -1    0    0  501    0  0.00000000000E+00 -0.00000000000E+00 -0.89730066459E+00  0.89730066459E+00  0.00000000000E+00 0. -1.
         23    2    1    2    0    0  0.00000000000E+00  0.00000000000E+00  0.21784018050E+04  0.21801964063E+04  0.88441766962E+02 0.  0.
          2    1    3    3  502    0 -0.32187291418E+02  0.28111188531E+02  0.80897197244E+03  0.81009994003E+03  0.00000000000E+00 0. -1.
         -2    1    3    3    0  502  0.32187291418E+02 -0.28111188531E+02  0.13694298325E+04  0.13700964663E+04  0.00000000000E+00 0.  1.
<mgrwt>
<rscale>  0 0.88441767E+02</rscale>
<asrwt>0</asrwt>
<pdfrwt beam="2">  1        2 0.13804800E-03 0.88441767E+02</pdfrwt>
<pdfrwt beam="1">  1       -2 0.33527255E+00 0.88441767E+02</pdfrwt>
<totfact> 0.48938994E+03</totfact>
</mgrwt>
</event>
<event>
 5    1  0.3858846E+001  0.9550951E+02  0.7546771E-02  0.1290033E+00
          1   -1    0    0  501    0  0.00000000000E+00  0.00000000000E+00  0.50204751837E+03  0.50204751837E+03  0.00000000000E+00 0. -1.
         -1   -1    0    0    0  501 -0.00000000000E+00 -0.00000000000E+00 -0.45424317663E+01  0.45424317663E+01  0.00000000000E+00 0.  1.
         23    2    1    2    0    0  0.00000000000E+00  0.00000000000E+00  0.49750508660E+03  0.50658995013E+03  0.95509509382E+02 0.  0.
          2    1    3    3  502    0  0.13708849297E+02 -0.29255303017E+02  0.43528057988E+03  0.43647793590E+03  0.00000000000E+00 0. -1.
         -2    1    3    3    0  502 -0.13708849297E+02  0.29255303017E+02  0.62224506718E+02  0.70112014235E+02  0.00000000000E+00 0.  1.
<mgrwt>
<rscale>  0 0.95509509E+02</rscale>
<asrwt>0</asrwt>
<pdfrwt beam="1">  1        1 0.77238036E-01 0.95509509E+02</pdfrwt>
<pdfrwt beam="2">  1       -1 0.69883605E-03 0.95509509E+02</pdfrwt>
<totfact> 0.12316402E+05</totfact>
</mgrwt>
</event>
<event>
 5    1  0.3858846E+001  0.9314541E+02  0.7546771E-02  0.1295409E+00
         -1   -1    0    0    0  501 -0.00000000000E+00  0.00000000000E+00  0.17480469294E+01  0.17480469294E+01  0.00000000000E+00 0.  1.
          1   -1    0    0  501    0  0.00000000000E+00 -0.00000000000E+00 -0.12408229042E+04  0.12408229042E+04  0.00000000000E+00 0. -1.
         23    2    1    2    0    0  0.00000000000E+00  0.00000000000E+00 -0.12390748572E+04  0.12425709511E+04  0.93145406060E+02 0.  0.
          2    1    3    3  502    0  0.21077357764E+02  0.21745727670E+02 -0.10915373991E+04  0.10919574283E+04  0.00000000000E+00 0. -1.
         -2    1    3    3    0  502 -0.21077357764E+02 -0.21745727670E+02 -0.14753745816E+03  0.15061352277E+03  0.00000000000E+00 0.  1.
<mgrwt>
<rscale>  0 0.93145406E+02</rscale>
<asrwt>0</asrwt>
<pdfrwt beam="2">  1        1 0.19089591E+00 0.93145406E+02</pdfrwt>
<pdfrwt beam="1">  1       -1 0.26893019E-03 0.93145406E+02</pdfrwt>
<totfact> 0.11833808E+05</totfact>
</mgrwt>
</event>
<event>
 5    1  0.3858846E+001  0.9051307E+02  0.7546771E-02  0.1301614E+00
         -4   -1    0    0    0  501 -0.00000000000E+00  0.00000000000E+00  0.22137817721E+03  0.22137817721E+03  0.00000000000E+00 0.  1.
          4   -1    0    0  501    0  0.00000000000E+00 -0.00000000000E+00 -0.92518336072E+01  0.92518336072E+01  0.00000000000E+00 0. -1.
         23    2    1    2    0    0  0.00000000000E+00  0.00000000000E+00  0.21212634361E+03  0.23063001082E+03  0.90513072202E+02 0.  0.
          2    1    3    3  502    0 -0.57074616544E+01  0.28665319486E+02  0.18022254097E+02  0.34337695067E+02  0.00000000000E+00 0. -1.
         -2    1    3    3    0  502  0.57074616544E+01 -0.28665319486E+02  0.19410408951E+03  0.19629231575E+03  0.00000000000E+00 0.  1.
<mgrwt>
<rscale>  0 0.90513072E+02</rscale>
<asrwt>0</asrwt>
<pdfrwt beam="2">  1        4 0.14233592E-02 0.90513072E+02</pdfrwt>
<pdfrwt beam="1">  1       -4 0.34058177E-01 0.90513072E+02</pdfrwt>
<totfact> 0.20568086E+04</totfact>
</mgrwt>
</event>
<event>
 5    1  0.3858846E+001  0.8894174E+02  0.7546771E-02  0.1305435E+00
         -1   -1    0    0    0  501 -0.00000000000E+00  0.00000000000E+00  0.12051481898E+03  0.12051481898E+03  0.00000000000E+00 0.  1.
          1   -1    0    0  501    0  0.00000000000E+00 -0.00000000000E+00 -0.16410084597E+02  0.16410084597E+02  0.00000000000E+00 0. -1.
         23    2    1    2    0    0  0.00000000000E+00  0.00000000000E+00  0.10410473438E+03  0.13692490358E+03  0.88941742160E+02 0.  0.
          2    1    3    3  502    0 -0.18879698309E+02  0.36634989479E+02  0.26333536735E+02  0.48908287839E+02  0.00000000000E+00 0. -1.
         -2    1    3    3    0  502  0.18879698309E+02 -0.36634989479E+02  0.77771197646E+02  0.88016615736E+02  0.00000000000E+00 0.  1.
<mgrwt>
<rscale>  0 0.88941742E+02</rscale>
<asrwt>0</asrwt>
<pdfrwt beam="2">  1        1 0.25246285E-02 0.88941742E+02</pdfrwt>
<pdfrwt beam="1">  1       -1 0.18540741E-01 0.88941742E+02</pdfrwt>
<totfact> 0.83654413E+04</totfact>
</mgrwt>
</event>
<event>
 5    1  0.3858846E+001  0.8688813E+02  0.7546771E-02  0.1310567E+00
          2   -1    0    0  501    0  0.00000000000E+00  0.00000000000E+00  0.33167055366E+03  0.33167055366E+03  0.00000000000E+00 0. -1.
         -2   -1    0    0    0  501 -0.00000000000E+00 -0.00000000000E+00 -0.56905471555E+01  0.56905471555E+01  0.00000000000E+00 0.  1.
         23    2    1    2    0    0  0.00000000000E+00  0.00000000000E+00  0.32598000650E+03  0.33736110082E+03  0.86888133268E+02 0.  0.
          2    1    3    3  502    0 -0.26821327516E+02  0.35350123893E+01  0.31006142116E+02  0.41149249947E+02  0.00000000000E+00 0.  1.
         -2    1    3    3    0  502  0.26821327516E+02 -0.35350123893E+01  0.29497386439E+03  0.29621185087E+03  0.00000000000E+00 0. -1.
<mgrwt>
<rscale>  0 0.86888133E+02</rscale>
<asrwt>0</asrwt>
<pdfrwt beam="1">  1        2 0.51026224E-01 0.86888133E+02</pdfrwt>
<pdfrwt beam="2">  1       -2 0.87546905E-03 0.86888133E+02</pdfrwt>
<totfact> 0.21191706E+05</totfact>
</mgrwt>
</event>
<event>
 5    1  0.3858846E+001  0.8996501E+02  0.7546771E-02  0.1302936E+00
          1   -1    0    0  501    0  0.00000000000E+00  0.00000000000E+00  0.45493020043E+02  0.45493020043E+02  0.00000000000E+00 0. -1.
         -1   -1    0    0    0  501 -0.00000000000E+00 -0.00000000000E+00 -0.44477720799E+02  0.44477720799E+02  0.00000000000E+00 0.  1.
         23    2    1    2    0    0  0.00000000000E+00  0.00000000000E+00  0.10152992447E+01  0.89970740842E+02  0.89965011950E+02 0.  0.
          2    1    3    3  502    0 -0.31514585600E+02  0.24780314907E+02  0.20909750951E+02  0.45215603471E+02  0.00000000000E+00 0. -1.
         -2    1    3    3    0  502  0.31514585600E+02 -0.24780314907E+02 -0.19894451706E+02  0.44755137371E+02  0.00000000000E+00 0.  1.
<mgrwt>
<rscale>  0 0.89965012E+02</rscale>
<asrwt>0</asrwt>
<pdfrwt beam="1">  1        1 0.69989262E-02 0.89965012E+02</pdfrwt>
<pdfrwt beam="2">  1       -1 0.68427263E-02 0.89965012E+02</pdfrwt>
<totfact> 0.95974673E+04</totfact>
</mgrwt>
</event>
<event>
 5    1  0.3858846E+001  0.8819890E+02  0.7546771E-02  0.1307273E+00
          2   -1    0    0  501    0  0.00000000000E+00  0.00000000000E+00  0.96649481195E+01  0.96649481195E+01  0.00000000000E+00 0. -1.
         -2   -1    0    0    0  501 -0.00000000000E+00 -0.00000000000E+00 -0.20121800188E+03  0.20121800188E+03  0.00000000000E+00 0.  1.
         23    2    1    2    0    0  0.00000000000E+00  0.00000000000E+00 -0.19155305376E+03  0.21088295000E+03  0.88198901328E+02 0.  0.
          2    1    3    3  502    0  0.29546799468E+02 -0.31277266200E+02 -0.11889395545E+03  0.12643992005E+03  0.00000000000E+00 0. -1.
         -2    1    3    3    0  502 -0.29546799468E+02  0.31277266200E+02 -0.72659098309E+02  0.84443029948E+02  0.00000000000E+00 0.  1.
<mgrwt>
<rscale>  0 0.88198901E+02</rscale>
<asrwt>0</asrwt>
<pdfrwt beam="1">  1        2 0.14869151E-02 0.88198901E+02</pdfrwt>
<pdfrwt beam="2">  1       -2 0.30956617E-01 0.88198901E+02</pdfrwt>
<totfact> 0.67649557E+04</totfact>
</mgrwt>
</event>
<event>
 5    1  0.3858846E+001  0.9267821E+02  0.7546771E-02  0.1296493E+00
         -2   -1    0    0    0  501 -0.00000000000E+00  0.00000000000E+00  0.92141964263E+00  0.92141964263E+00  0.00000000000E+00 0.  1.
          2   -1    0    0  501    0  0.00000000000E+00 -0.00000000000E+00 -0.23304392910E+04  0.23304392910E+04  0.00000000000E+00 0. -1.
         23    2    1    2    0    0  0.00000000000E+00  0.00000000000E+00 -0.23295178714E+04  0.23313607107E+04  0.92678207551E+02 0.  0.
          2    1    3    3  502    0 -0.88193297104E+00  0.29838817276E+02 -0.20563336351E+04  0.20565503037E+04  0.00000000000E+00 0. -1.
         -2    1    3    3    0  502  0.88193297104E+00 -0.29838817276E+02 -0.27318423627E+03  0.27481040696E+03  0.00000000000E+00 0.  1.
<mgrwt>
<rscale>  0 0.92678208E+02</rscale>
<asrwt>0</asrwt>
<pdfrwt beam="2">  1        2 0.35853101E+00 0.92678208E+02</pdfrwt>
<pdfrwt beam="1">  1       -2 0.14175612E-03 0.92678208E+02</pdfrwt>
<totfact> 0.15816943E+05</totfact>
</mgrwt>
</event>
<event>
 5    1  0.3858846E+001  0.9136333E+02  0.7546771E-02  0.1299583E+00
          1   -1    0    0  501    0  0.00000000000E+00  0.00000000000E+00  0.67522962415E+02  0.67522962415E+02  0.00000000000E+00 0. -1.
         -1   -1    0    0    0  501 -0.00000000000E+00 -0.00000000000E+00 -0.30905260277E+02  0.30905260277E+02  0.00000000000E+00 0.  1.
         23    2    1    2    0    0  0.00000000000E+00  0.00000000000E+00  0.36617702138E+02  0.98428222693E+02  0.91363334618E+02 0.  0.
          2    1    3    3  502    0  0.17521596407E+02  0.17932235324E+02  0.59448700636E+02  0.64519139886E+02  0.00000000000E+00 0. -1.
         -2    1    3    3    0  502 -0.17521596407E+02 -0.17932235324E+02 -0.22830998498E+02  0.33909082806E+02  0.00000000000E+00 0.  1.
<mgrwt>
<rscale>  0 0.91363335E+02</rscale>
<asrwt>0</asrwt>
<pdfrwt beam="1">  1        1 0.10388148E-01 0.91363335E+02</pdfrwt>
<pdfrwt beam="2">  1       -1 0.47546554E-02 0.91363335E+02</pdfrwt>
<totfact> 0.97568591E+04</totfact>
</mgrwt>
</event>
<event>
 5    1  0.3858846E+001  0.9032112E+02  0.7546771E-02  0.1302076E+00
         -1   -1    0    0    0  501 -0.00000000000E+00  0.00000000000E+00  0.48910214765E+01  0.48910214765E+01  0.00000000000E+00 0.  1.
          1   -1    0    0  501    0  0.00000000000E+00 -0.00000000000E+00 -0.41698370104E+03  0.41698370104E+03  0.00000000000E+00 0. -1.
         23    2    1    2    0    0  0.00000000000E+00  0.00000000000E+00 -0.41209267956E+03  0.42187472252E+03  0.90321121276E+02 0.  0.
          2    1    3    3  502    0  0.22070623770E+02 -0.18671708541E+02 -0.36810003013E+03  0.36923349972E+03  0.00000000000E+00 0. -1.
         -2    1    3    3    0  502 -0.22070623770E+02  0.18671708541E+02 -0.43992649436E+02  0.52641222799E+02  0.00000000000E+00 0.  1.
<mgrwt>
<rscale>  0 0.90321121E+02</rscale>
<asrwt>0</asrwt>
<pdfrwt beam="2">  1        1 0.64151348E-01 0.90321121E+02</pdfrwt>
<pdfrwt beam="1">  1       -1 0.75246473E-03 0.90321121E+02</pdfrwt>
<totfact> 0.13923352E+05</totfact>
</mgrwt>
</event>
<event>
 5    1  0.3858846E+001  0.9018281E+02  0.7546771E-02  0.1302410E+00
          2   -1    0    0  501    0  0.00000000000E+00  0.00000000000E+00  0.24532499292E+02  0.24532499292E+02  0.00000000000E+00 0. -1.
         -2   -1    0    0    0  501 -0.00000000000E+00 -0.00000000000E+00 -0.82879227405E+02  0.82879227405E+02  0.00000000000E+00 0.  1.
         23    2    1    2    0    0  0.00000000000E+00  0.00000000000E+00 -0.58346728113E+02  0.10741172670E+03  0.90182805183E+02 0.  0.
          2    1    3    3  502    0 -0.71289453861E+01 -0.22661127531E+02  0.16474662545E+02  0.28909567089E+02  0.00000000000E+00 0. -1.
         -2    1    3    3    0  502  0.71289453861E+01  0.22661127531E+02 -0.74821390658E+02  0.78502159609E+02  0.00000000000E+00 0.  1.
<mgrwt>
<rscale>  0 0.90182805E+02</rscale>
<asrwt>0</asrwt>
<pdfrwt beam="1">  1        2 0.37742307E-02 0.90182805E+02</pdfrwt>
<pdfrwt beam="2">  1       -2 0.12750650E-01 0.90182805E+02</pdfrwt>
<totfact> 0.86551339E+04</totfact>
</mgrwt>
</event>
<event>
 5    1  0.3858846E+001  0.7197532E+02  0.7546771E-02  0.1353502E+00
         -3   -1    0    0    0  501 -0.00000000000E+00  0.00000000000E+00  0.22806441221E+03  0.22806441221E+03  0.00000000000E+00 0.  1.
          3   -1    0    0  501    0  0.00000000000E+00 -0.00000000000E+00 -0.56787100766E+01  0.56787100766E+01  0.00000000000E+00 0. -1.
         23    2    1    2    0    0  0.00000000000E+00  0.00000000000E+00  0.22238570213E+03  0.23374312228E+03  0.71975320095E+02 0.  0.
          2    1    3    3  502    0 -0.71529473500E+01 -0.31293739629E+02  0.58361676516E+02  0.66607417617E+02  0.00000000000E+00 0. -1.
         -2    1    3    3    0  502  0.71529473500E+01  0.31293739629E+02  0.16402402562E+03  0.16713570467E+03  0.00000000000E+00 0.  1.
<mgrwt>
<rscale>  0 0.71975320E+02</rscale>
<asrwt>0</asrwt>
<pdfrwt beam="2">  1        3 0.87364788E-03 0.71975320E+02</pdfrwt>
<pdfrwt beam="1">  1       -3 0.35086825E-01 0.71975320E+02</pdfrwt>
<totfact> 0.50256843E+04</totfact>
</mgrwt>
</event>
<event>
 5    1  0.3858846E+001  0.9056201E+02  0.7546771E-02  0.1301496E+00
          2   -1    0    0  501    0  0.00000000000E+00  0.00000000000E+00  0.66312444541E+01  0.66312444541E+01  0.00000000000E+00 0. -1.
         -2   -1    0    0    0  501 -0.00000000000E+00 -0.00000000000E+00 -0.30919828334E+03  0.30919828334E+03  0.00000000000E+00 0.  1.
         23    2    1    2    0    0  0.00000000000E+00  0.00000000000E+00 -0.30256703888E+03  0.31582952779E+03  0.90562009730E+02 0.  0.
          2    1    3    3  502    0 -0.55478754309E+01  0.39129434217E+02 -0.74205753141E+02  0.84073689958E+02  0.00000000000E+00 0. -1.
         -2    1    3    3    0  502  0.55478754309E+01 -0.39129434217E+02 -0.22836128574E+03  0.23175583783E+03  0.00000000000E+00 0.  1.
<mgrwt>
<rscale>  0 0.90562010E+02</rscale>
<asrwt>0</asrwt>
<pdfrwt beam="1">  1        2 0.10201917E-02 0.90562010E+02</pdfrwt>
<pdfrwt beam="2">  1       -2 0.47568956E-01 0.90562010E+02</pdfrwt>
<totfact> 0.51015151E+04</totfact>
</mgrwt>
</event>
<event>
 5    1  0.3858846E+001  0.9044048E+02  0.7546771E-02  0.1301789E+00
          1   -1    0    0  501    0  0.00000000000E+00  0.00000000000E+00  0.56996895614E+02  0.56996895614E+02  0.00000000000E+00 0. -1.
         -1   -1    0    0    0  501 -0.00000000000E+00 -0.00000000000E+00 -0.35876866499E+02  0.35876866499E+02  0.00000000000E+00 0.  1.
         23    2    1    2    0    0  0.00000000000E+00  0.00000000000E+00  0.21120029115E+02  0.92873762112E+02  0.90440477990E+02 0.  0.
          2    1    3    3  502    0  0.16940098347E+02  0.27344930894E+02  0.43198109996E+02  0.53858972186E+02  0.00000000000E+00 0. -1.
         -2    1    3    3    0  502 -0.16940098347E+02 -0.27344930894E+02 -0.22078080881E+02  0.39014789927E+02  0.00000000000E+00 0.  1.
<mgrwt>
<rscale>  0 0.90440478E+02</rscale>
<asrwt>0</asrwt>
<pdfrwt beam="1">  1        1 0.87687532E-02 0.90440478E+02</pdfrwt>
<pdfrwt beam="2">  1       -1 0.55195179E-02 0.90440478E+02</pdfrwt>
<totfact> 0.97804007E+04</totfact>
</mgrwt>
</event>
<event>
 5    1  0.3858846E+001  0.1012822E+03  0.7546771E-02  0.1277623E+00
          4   -1    0    0  501    0  0.00000000000E+00  0.00000000000E+00  0.26281073572E+03  0.26281073572E+03  0.00000000000E+00 0. -1.
         -4   -1    0    0    0  501 -0.00000000000E+00 -0.00000000000E+00 -0.97580525542E+01  0.97580525542E+01  0.00000000000E+00 0.  1.
         23    2    1    2    0    0  0.00000000000E+00  0.00000000000E+00  0.25305268317E+03  0.27256878828E+03  0.10128219925E+03 0.  0.
          2    1    3    3  502    0  0.10460760327E+02  0.49414968028E+02  0.13632401644E+03  0.14538054901E+03  0.00000000000E+00 0. -1.
         -2    1    3    3    0  502 -0.10460760327E+02 -0.49414968028E+02  0.11672866673E+03  0.12718823927E+03  0.00000000000E+00 0.  1.
<mgrwt>
<rscale>  0 0.10128220E+03</rscale>
<asrwt>0</asrwt>
<pdfrwt beam="1">  1        4 0.40432415E-01 0.10128220E+03</pdfrwt>
<pdfrwt beam="2">  1       -4 0.15012391E-02 0.10128220E+03</pdfrwt>
<totfact> 0.14096348E+04</totfact>
</mgrwt>
</event>
<event>
 5    1  0.3858846E+001  0.9111551E+02  0.7546771E-02  0.1300173E+00
          2   -1    0    0  501    0  0.00000000000E+00  0.00000000000E+00  0.16021015205E+04  0.16021015205E+04  0.00000000000E+00 0. -1.
         -2   -1    0    0    0  501 -0.00000000000E+00 -0.00000000000E+00 -0.12954916815E+01  0.12954916815E+01  0.00000000000E+00 0.  1.
         23    2    1    2    0    0  0.00000000000E+00  0.00000000000E+00  0.16008060288E+04  0.16033970122E+04  0.91115513337E+02 0.  0.
          2    1    3    3  502    0 -0.35781865196E+02 -0.26333155962E+02  0.97789468997E+03  0.97890336686E+03  0.00000000000E+00 0. -1.
         -2    1    3    3    0  502  0.35781865196E+02  0.26333155962E+02  0.62291133885E+03  0.62449364532E+03  0.00000000000E+00 0.  1.
<mgrwt>
<rscale>  0 0.91115513E+02</rscale>
<asrwt>0</asrwt>
<pdfrwt beam="1">  1        2 0.24647557E+00 0.91115513E+02</pdfrwt>
<pdfrwt beam="2">  1       -2 0.19930769E-03 0.91115513E+02</pdfrwt>
<totfact> 0.22980885E+05</totfact>
</mgrwt>
</event>
<event>
 5    1  0.3858846E+001  0.9256158E+02  0.7546771E-02  0.1296764E+00
         -1   -1    0    0    0  501 -0.00000000000E+00  0.00000000000E+00  0.54274347805E+02  0.54274347805E+02  0.00000000000E+00 0.  1.
          1   -1    0    0  501    0  0.00000000000E+00 -0.00000000000E+00 -0.39464525431E+02  0.39464525431E+02  0.00000000000E+00 0. -1.
         23    2    1    2    0    0  0.00000000000E+00  0.00000000000E+00  0.14809822374E+02  0.93738873236E+02  0.92561576893E+02 0.  0.
          2    1    3    3  502    0  0.82721465487E+01 -0.20706338835E+02 -0.33666190982E+02  0.40380605391E+02  0.00000000000E+00 0. -1.
         -2    1    3    3    0  502 -0.82721465487E+01  0.20706338835E+02  0.48476013357E+02  0.53358267845E+02  0.00000000000E+00 0.  1.
<mgrwt>
<rscale>  0 0.92561577E+02</rscale>
<asrwt>0</asrwt>
<pdfrwt beam="2">  1        1 0.60714655E-02 0.92561577E+02</pdfrwt>
<pdfrwt beam="1">  1       -1 0.83498996E-02 0.92561577E+02</pdfrwt>
<totfact> 0.86695582E+04</totfact>
</mgrwt>
</event>
<event>
 5    1  0.3858846E+001  0.8435181E+02  0.7546771E-02  0.1317136E+00
         -2   -1    0    0    0  501 -0.00000000000E+00  0.00000000000E+00  0.26311174722E+01  0.26311174722E+01  0.00000000000E+00 0. -1.
          2   -1    0    0  501    0  0.00000000000E+00 -0.00000000000E+00 -0.67606515391E+03  0.67606515391E+03  0.00000000000E+00 0.  1.
         23    2    1    2    0    0  0.00000000000E+00  0.00000000000E+00 -0.67343403644E+03  0.67869627138E+03  0.84351807066E+02 0.  0.
          2    1    3    3  502    0 -0.23948434745E+02 -0.29540920856E+02 -0.18997621819E+03  0.19374508254E+03  0.00000000000E+00 0. -1.
         -2    1    3    3    0  502  0.23948434745E+02  0.29540920856E+02 -0.48345781825E+03  0.48495118884E+03  0.00000000000E+00 0.  1.
<mgrwt>
<rscale>  0 0.84351807E+02</rscale>
<asrwt>0</asrwt>
<pdfrwt beam="2">  1        2 0.10400996E+00 0.84351807E+02</pdfrwt>
<pdfrwt beam="1">  1       -2 0.40478755E-03 0.84351807E+02</pdfrwt>
<totfact> 0.28852197E+05</totfact>
</mgrwt>
</event>
<event>
 5    1  0.3858846E+001  0.9323314E+02  0.7546771E-02  0.1295206E+00
         -2   -1    0    0    0  501 -0.00000000000E+00  0.00000000000E+00  0.37819855865E+02  0.37819855865E+02  0.00000000000E+00 0. -1.
          2   -1    0    0  501    0  0.00000000000E+00 -0.00000000000E+00 -0.57459359432E+02  0.57459359432E+02  0.00000000000E+00 0.  1.
         23    2    1    2    0    0  0.00000000000E+00  0.00000000000E+00 -0.19639503567E+02  0.95279215296E+02  0.93233142000E+02 0.  0.
          2    1    3    3  502    0 -0.23537829690E+02  0.17183311040E+02  0.27362914624E+02  0.39975301144E+02  0.00000000000E+00 0. -1.
         -2    1    3    3    0  502  0.23537829690E+02 -0.17183311040E+02 -0.47002418191E+02  0.55303914153E+02  0.00000000000E+00 0.  1.
<mgrwt>
<rscale>  0 0.93233142E+02</rscale>
<asrwt>0</asrwt>
<pdfrwt beam="2">  1        2 0.88399014E-02 0.93233142E+02</pdfrwt>
<pdfrwt beam="1">  1       -2 0.58184394E-02 0.93233142E+02</pdfrwt>
<totfact> 0.98423486E+04</totfact>
</mgrwt>
</event>
<event>
 5    1  0.3858846E+001  0.8820185E+02  0.7546771E-02  0.1307266E+00
          2   -1    0    0  501    0  0.00000000000E+00  0.00000000000E+00  0.52150348574E+01  0.52150348574E+01  0.00000000000E+00 0. -1.
         -2   -1    0    0    0  501 -0.00000000000E+00 -0.00000000000E+00 -0.37293930630E+03  0.37293930630E+03  0.00000000000E+00 0.  1.
         23    2    1    2    0    0  0.00000000000E+00  0.00000000000E+00 -0.36772427144E+03  0.37815434115E+03  0.88201847646E+02 0.  0.
          2    1    3    3  502    0  0.14001277758E+02 -0.37805852751E+02 -0.10721841424E+03  0.11454739907E+03  0.00000000000E+00 0. -1.
         -2    1    3    3    0  502 -0.14001277758E+02  0.37805852751E+02 -0.26050585719E+03  0.26360694208E+03  0.00000000000E+00 0.  1.
<mgrwt>
<rscale>  0 0.88201848E+02</rscale>
<asrwt>0</asrwt>
<pdfrwt beam="1">  1        2 0.80231273E-03 0.88201848E+02</pdfrwt>
<pdfrwt beam="2">  1       -2 0.57375301E-01 0.88201848E+02</pdfrwt>
<totfact> 0.48711430E+04</totfact>
</mgrwt>
</event>
<event>
 5    1  0.3858846E+001  0.8998209E+02  0.7546771E-02  0.1302895E+00
          1   -1    0    0  501    0  0.00000000000E+00  0.00000000000E+00  0.40710753075E+03  0.40710753075E+03  0.00000000000E+00 0. -1.
         -1   -1    0    0    0  501 -0.00000000000E+00 -0.00000000000E+00 -0.49721359247E+01  0.49721359247E+01  0.00000000000E+00 0.  1.
         23    2    1    2    0    0  0.00000000000E+00  0.00000000000E+00  0.40213539482E+03  0.41207966667E+03  0.89982086637E+02 0.  0.
          2    1    3    3  502    0 -0.10815233614E+02 -0.20354014785E+02  0.37801588783E+03  0.37871792491E+03  0.00000000000E+00 0. -1.
         -2    1    3    3    0  502  0.10815233614E+02  0.20354014785E+02  0.24119506999E+02  0.33361741769E+02  0.00000000000E+00 0.  1.
<mgrwt>
<rscale>  0 0.89982087E+02</rscale>
<asrwt>0</asrwt>
<pdfrwt beam="1">  1        1 0.62631901E-01 0.89982087E+02</pdfrwt>
<pdfrwt beam="2">  1       -1 0.76494431E-03 0.89982087E+02</pdfrwt>
<totfact> 0.14009394E+05</totfact>
</mgrwt>
</event>
<event>
 5    1  0.3858846E+001  0.9185844E+02  0.7546771E-02  0.1298413E+00
         -2   -1    0    0    0  501 -0.00000000000E+00  0.00000000000E+00  0.31786944052E+01  0.31786944052E+01  0.00000000000E+00 0.  1.
          2   -1    0    0  501    0  0.00000000000E+00 -0.00000000000E+00 -0.66363505535E+03  0.66363505535E+03  0.00000000000E+00 0. -1.
         23    2    1    2    0    0  0.00000000000E+00  0.00000000000E+00 -0.66045636094E+03  0.66681374975E+03  0.91858435378E+02 0.  0.
          2    1    3    3  502    0  0.11410692030E+02 -0.43366964397E+02 -0.40230807560E+03  0.40479956174E+03  0.00000000000E+00 0. -1.
         -2    1    3    3    0  502 -0.11410692030E+02  0.43366964397E+02 -0.25814828534E+03  0.26201418801E+03  0.00000000000E+00 0.  1.
<mgrwt>
<rscale>  0 0.91858435E+02</rscale>
<asrwt>0</asrwt>
<pdfrwt beam="2">  1        2 0.10209766E+00 0.91858435E+02</pdfrwt>
<pdfrwt beam="1">  1       -2 0.48903010E-03 0.91858435E+02</pdfrwt>
<totfact> 0.22953453E+05</totfact>
</mgrwt>
</event>
<event>
 5    1  0.3858846E+001  0.9135996E+02  0.7546771E-02  0.1299591E+00
         -2   -1    0    0    0  501 -0.00000000000E+00  0.00000000000E+00  0.60496057482E+01  0.60496057482E+01  0.00000000000E+00 0.  1.
          2   -1    0    0  501    0  0.00000000000E+00 -0.00000000000E+00 -0.34492502517E+03  0.34492502517E+03  0.00000000000E+00 0. -1.
         23    2    1    2    0    0  0.00000000000E+00  0.00000000000E+00 -0.33887541942E+03  0.35097463091E+03  0.91359956544E+02 0.  0.
          2    1    3    3  502    0  0.21269232212E+02  0.17081451648E+02 -0.31019719363E+03  0.31139437241E+03  0.00000000000E+00 0. -1.
         -2    1    3    3    0  502 -0.21269232212E+02 -0.17081451648E+02 -0.28678225784E+02  0.39580258506E+02  0.00000000000E+00 0.  1.
<mgrwt>
<rscale>  0 0.91359957E+02</rscale>
<asrwt>0</asrwt>
<pdfrwt beam="2">  1        2 0.53065389E-01 0.91359957E+02</pdfrwt>
<pdfrwt beam="1">  1       -2 0.93070856E-03 0.91359957E+02</pdfrwt>
<totfact> 0.18817350E+05</totfact>
</mgrwt>
</event>
<event>
 5    1  0.3858846E+001  0.8944684E+02  0.7546771E-02  0.1304197E+00
         -2   -1    0    0    0  501 -0.00000000000E+00  0.00000000000E+00  0.10476143951E+03  0.10476143951E+03  0.00000000000E+00 0.  1.
          2   -1    0    0  501    0  0.00000000000E+00 -0.00000000000E+00 -0.19092752354E+02  0.19092752354E+02  0.00000000000E+00 0. -1.
         23    2    1    2    0    0  0.00000000000E+00  0.00000000000E+00  0.85668687155E+02  0.12385419186E+03  0.89446838309E+02 0.  0.
          2    1    3    3  502    0  0.11670677645E+02 -0.40831425645E+02  0.23410741339E+02  0.48491987451E+02  0.00000000000E+00 0. -1.
         -2    1    3    3    0  502 -0.11670677645E+02  0.40831425645E+02  0.62257945816E+02  0.75362204413E+02  0.00000000000E+00 0.  1.
<mgrwt>
<rscale>  0 0.89446838E+02</rscale>
<asrwt>0</asrwt>
<pdfrwt beam="2">  1        2 0.29373466E-02 0.89446838E+02</pdfrwt>
<pdfrwt beam="1">  1       -2 0.16117144E-01 0.89446838E+02</pdfrwt>
<totfact> 0.82544458E+04</totfact>
</mgrwt>
</event>
<event>
 5    1  0.3858846E+001  0.8943182E+02  0.7546771E-02  0.1304233E+00
          1   -1    0    0  501    0  0.00000000000E+00  0.00000000000E+00  0.57440258486E+01  0.57440258486E+01  0.00000000000E+00 0. -1.
         -1   -1    0    0    0  501 -0.00000000000E+00 -0.00000000000E+00 -0.34810297459E+03  0.34810297459E+03  0.00000000000E+00 0.  1.
         23    2    1    2    0    0  0.00000000000E+00  0.00000000000E+00 -0.34235894875E+03  0.35384700044E+03  0.89431817248E+02 0.  0.
          2    1    3    3  502    0  0.30142637713E+01  0.24052189821E+02 -0.22507765647E+02  0.33078590292E+02  0.00000000000E+00 0. -1.
         -2    1    3    3    0  502 -0.30142637713E+01 -0.24052189821E+02 -0.31985118310E+03  0.32076841015E+03  0.00000000000E+00 0.  1.
<mgrwt>
<rscale>  0 0.89431817E+02</rscale>
<asrwt>0</asrwt>
<pdfrwt beam="1">  1        1 0.88369652E-03 0.89431817E+02</pdfrwt>
<pdfrwt beam="2">  1       -1 0.53554290E-01 0.89431817E+02</pdfrwt>
<totfact> 0.59875300E+04</totfact>
</mgrwt>
</event>
<event>
 5    1  0.3858846E+001  0.9057196E+02  0.7546771E-02  0.1301472E+00
         -1   -1    0    0    0  501 -0.00000000000E+00  0.00000000000E+00  0.18780994407E+03  0.18780994407E+03  0.00000000000E+00 0.  1.
          1   -1    0    0  501    0  0.00000000000E+00 -0.00000000000E+00 -0.10919656151E+02  0.10919656151E+02  0.00000000000E+00 0. -1.
         23    2    1    2    0    0  0.00000000000E+00  0.00000000000E+00  0.17689028792E+03  0.19872960022E+03  0.90571960584E+02 0.  0.
          2    1    3    3  502    0  0.81067945089E+01 -0.30379870099E+02  0.16935526719E+02  0.35713704508E+02  0.00000000000E+00 0. -1.
         -2    1    3    3    0  502 -0.81067945089E+01  0.30379870099E+02  0.15995476120E+03  0.16301589571E+03  0.00000000000E+00 0.  1.
<mgrwt>
<rscale>  0 0.90571961E+02</rscale>
<asrwt>0</asrwt>
<pdfrwt beam="2">  1        1 0.16799472E-02 0.90571961E+02</pdfrwt>
<pdfrwt beam="1">  1       -1 0.28893835E-01 0.90571961E+02</pdfrwt>
<totfact> 0.71890663E+04</totfact>
</mgrwt>
</event>
<event>
 5    1  0.3858846E+001  0.8442491E+02  0.7546771E-02  0.1316943E+00
         -1   -1    0    0    0  501 -0.00000000000E+00  0.00000000000E+00  0.26460560730E+01  0.26460560730E+01  0.00000000000E+00 0.  1.
          1   -1    0    0  501    0  0.00000000000E+00 -0.00000000000E+00 -0.67341399559E+03  0.67341399559E+03  0.00000000000E+00 0. -1.
         23    2    1    2    0    0  0.00000000000E+00  0.00000000000E+00 -0.67076793952E+03  0.67606005167E+03  0.84424906104E+02 0.  0.
          2    1    3    3  502    0  0.28620121334E+02 -0.18978386875E+01 -0.58339117888E+03  0.58409586604E+03  0.00000000000E+00 0. -1.
         -2    1    3    3    0  502 -0.28620121334E+02  0.18978386875E+01 -0.87376760644E+02  0.91964185624E+02  0.00000000000E+00 0.  1.
<mgrwt>
<rscale>  0 0.84424906E+02</rscale>
<asrwt>0</asrwt>
<pdfrwt beam="2">  1        1 0.10360225E+00 0.84424906E+02</pdfrwt>
<pdfrwt beam="1">  1       -1 0.40708517E-03 0.84424906E+02</pdfrwt>
<totfact> 0.17412543E+05</totfact>
</mgrwt>
</event>
<event>
 5    1  0.3858846E+001  0.9345534E+02  0.7546771E-02  0.1294693E+00
          2   -1    0    0  501    0  0.00000000000E+00  0.00000000000E+00  0.51593884964E+03  0.51593884964E+03  0.00000000000E+00 0. -1.
         -2   -1    0    0    0  501 -0.00000000000E+00 -0.00000000000E+00 -0.42320422092E+01  0.42320422092E+01  0.00000000000E+00 0.  1.
         23    2    1    2    0    0  0.00000000000E+00  0.00000000000E+00  0.51170680743E+03  0.52017089185E+03  0.93455336691E+02 0.  0.
          2    1    3    3  502    0 -0.12761246539E+02 -0.43326283976E+02  0.18918725392E+03  0.19450407025E+03  0.00000000000E+00 0. -1.
         -2    1    3    3    0  502  0.12761246539E+02  0.43326283976E+02  0.32251955351E+03  0.32566682160E+03  0.00000000000E+00 0.  1.
<mgrwt>
<rscale>  0 0.93455337E+02</rscale>
<asrwt>0</asrwt>
<pdfrwt beam="1">  1        2 0.79375158E-01 0.93455337E+02</pdfrwt>
<pdfrwt beam="2">  1       -2 0.65108382E-03 0.93455337E+02</pdfrwt>
<totfact> 0.20390186E+05</totfact>
</mgrwt>
</event>
<event>
 5    1  0.3858846E+001  0.9128212E+02  0.7546771E-02  0.1299776E+00
          1   -1    0    0  501    0  0.00000000000E+00  0.00000000000E+00  0.93576346717E+03  0.93576346717E+03  0.00000000000E+00 0. -1.
         -1   -1    0    0    0  501 -0.00000000000E+00 -0.00000000000E+00 -0.22261033126E+01  0.22261033126E+01  0.00000000000E+00 0.  1.
         23    2    1    2    0    0  0.00000000000E+00  0.00000000000E+00  0.93353736386E+03  0.93798957048E+03  0.91282115535E+02 0.  0.
          2    1    3    3  502    0 -0.43797551334E+02  0.12032731485E+02  0.42070636554E+03  0.42315110556E+03  0.00000000000E+00 0. -1.
         -2    1    3    3    0  502  0.43797551334E+02 -0.12032731485E+02  0.51283099831E+03  0.51483846492E+03  0.00000000000E+00 0.  1.
<mgrwt>
<rscale>  0 0.91282116E+02</rscale>
<asrwt>0</asrwt>
<pdfrwt beam="1">  1        1 0.14396330E+00 0.91282116E+02</pdfrwt>
<pdfrwt beam="2">  1       -1 0.34247818E-03 0.91282116E+02</pdfrwt>
<totfact> 0.13773358E+05</totfact>
</mgrwt>
</event>
<event>
 5    1  0.3858846E+001  0.9179880E+02  0.7546771E-02  0.1298553E+00
         -1   -1    0    0    0  501 -0.00000000000E+00  0.00000000000E+00  0.21900080212E+02  0.21900080212E+02  0.00000000000E+00 0.  1.
          1   -1    0    0  501    0  0.00000000000E+00 -0.00000000000E+00 -0.96198496606E+02  0.96198496606E+02  0.00000000000E+00 0. -1.
         23    2    1    2    0    0  0.00000000000E+00  0.00000000000E+00 -0.74298416393E+02  0.11809857682E+03  0.91798797203E+02 0.  0.
          2    1    3    3  502    0  0.31647297125E+02 -0.74693025685E+01  0.45262968505E+01  0.32830310071E+02  0.00000000000E+00 0.  1.
         -2    1    3    3    0  502 -0.31647297125E+02  0.74693025685E+01 -0.78824713244E+02  0.85268266747E+02  0.00000000000E+00 0. -1.
<mgrwt>
<rscale>  0 0.91798797E+02</rscale>
<asrwt>0</asrwt>
<pdfrwt beam="2">  1        1 0.14799769E-01 0.91798797E+02</pdfrwt>
<pdfrwt beam="1">  1       -1 0.33692431E-02 0.91798797E+02</pdfrwt>
<totfact> 0.10187353E+05</totfact>
</mgrwt>
</event>
<event>
 5    1  0.3858846E+001  0.9112492E+02  0.7546771E-02  0.1300150E+00
         -3   -1    0    0    0  501 -0.00000000000E+00  0.00000000000E+00  0.10612449879E+02  0.10612449879E+02  0.00000000000E+00 0.  1.
          3   -1    0    0  501    0  0.00000000000E+00 -0.00000000000E+00 -0.19561342542E+03  0.19561342542E+03  0.00000000000E+00 0. -1.
         23    2    1    2    0    0  0.00000000000E+00  0.00000000000E+00 -0.18500097554E+03  0.20622587530E+03  0.91124918060E+02 0.  0.
          2    1    3    3  502    0 -0.16544641172E+02 -0.11833077829E+02 -0.18476749639E+03  0.18588376639E+03  0.00000000000E+00 0. -1.
         -2    1    3    3    0  502  0.16544641172E+02  0.11833077829E+02 -0.23347914573E+00  0.20342108911E+02  0.00000000000E+00 0.  1.
<mgrwt>
<rscale>  0 0.91124918E+02</rscale>
<asrwt>0</asrwt>
<pdfrwt beam="2">  1        3 0.30094371E-01 0.91124918E+02</pdfrwt>
<pdfrwt beam="1">  1       -3 0.16326847E-02 0.91124918E+02</pdfrwt>
<totfact> 0.28223238E+04</totfact>
</mgrwt>
</event>
<event>
 5    1  0.3858846E+001  0.9177150E+02  0.7546771E-02  0.1298618E+00
         -1   -1    0    0    0  501 -0.00000000000E+00  0.00000000000E+00  0.46029586067E+01  0.46029586067E+01  0.00000000000E+00 0.  1.
          1   -1    0    0  501    0  0.00000000000E+00 -0.00000000000E+00 -0.45742365760E+03  0.45742365760E+03  0.00000000000E+00 0. -1.
         23    2    1    2    0    0  0.00000000000E+00  0.00000000000E+00 -0.45282069899E+03  0.46202661620E+03  0.91771502366E+02 0.  0.
          2    1    3    3  502    0  0.27589035455E+01  0.42781506402E+02 -0.14404790147E+03  0.15029193843E+03  0.00000000000E+00 0.  1.
         -2    1    3    3    0  502 -0.27589035455E+01 -0.42781506402E+02 -0.30877279752E+03  0.31173467777E+03  0.00000000000E+00 0. -1.
<mgrwt>
<rscale>  0 0.91771502E+02</rscale>
<asrwt>0</asrwt>
<pdfrwt beam="2">  1        1 0.70372898E-01 0.91771502E+02</pdfrwt>
<pdfrwt beam="1">  1       -1 0.70814720E-03 0.91771502E+02</pdfrwt>
<totfact> 0.13531986E+05</totfact>
</mgrwt>
</event>
<event>
 5    1  0.3858846E+001  0.9120245E+02  0.7546771E-02  0.1299966E+00
         -2   -1    0    0    0  501 -0.00000000000E+00  0.00000000000E+00  0.56348827042E+01  0.56348827042E+01  0.00000000000E+00 0.  1.
          2   -1    0    0  501    0  0.00000000000E+00 -0.00000000000E+00 -0.36903550214E+03  0.36903550214E+03  0.00000000000E+00 0. -1.
         23    2    1    2    0    0  0.00000000000E+00  0.00000000000E+00 -0.36340061944E+03  0.37467038485E+03  0.91202451025E+02 0.  0.
          2    1    3    3  502    0  0.97327381401E+01 -0.31319516088E+02 -0.51541461628E+02  0.61091411397E+02  0.00000000000E+00 0.  1.
         -2    1    3    3    0  502 -0.97327381401E+01  0.31319516088E+02 -0.31185915781E+03  0.31357897345E+03  0.00000000000E+00 0. -1.
<mgrwt>
<rscale>  0 0.91202451E+02</rscale>
<asrwt>0</asrwt>
<pdfrwt beam="2">  1        2 0.56774716E-01 0.91202451E+02</pdfrwt>
<pdfrwt beam="1">  1       -2 0.86690468E-03 0.91202451E+02</pdfrwt>
<totfact> 0.19375688E+05</totfact>
</mgrwt>
</event>
<event>
 5    1  0.3858846E+001  0.9088931E+02  0.7546771E-02  0.1300712E+00
         -2   -1    0    0    0  501 -0.00000000000E+00  0.00000000000E+00  0.26458224673E+02  0.26458224673E+02  0.00000000000E+00 0.  1.
          2   -1    0    0  501    0  0.00000000000E+00 -0.00000000000E+00 -0.78055751264E+02  0.78055751264E+02  0.00000000000E+00 0. -1.
         23    2    1    2    0    0  0.00000000000E+00  0.00000000000E+00 -0.51597526591E+02  0.10451397594E+03  0.90889308590E+02 0.  0.
          2    1    3    3  502    0 -0.33565503670E+02 -0.99413273382E+01 -0.59121059113E+02  0.68707879145E+02  0.00000000000E+00 0. -1.
         -2    1    3    3    0  502  0.33565503670E+02  0.99413273382E+01  0.75235325224E+01  0.35806096792E+02  0.00000000000E+00 0.  1.
<mgrwt>
<rscale>  0 0.90889309E+02</rscale>
<asrwt>0</asrwt>
<pdfrwt beam="2">  1        2 0.12008577E-01 0.90889309E+02</pdfrwt>
<pdfrwt beam="1">  1       -2 0.40704961E-02 0.90889309E+02</pdfrwt>
<totfact> 0.11505930E+05</totfact>
</mgrwt>
</event>
<event>
 5    1  0.3858846E+001  0.8928748E+02  0.7546771E-02  0.1304586E+00
          3   -1    0    0  501    0  0.00000000000E+00  0.00000000000E+00  0.80111125334E+01  0.80111125334E+01  0.00000000000E+00 0. -1.
         -3   -1    0    0    0  501 -0.00000000000E+00 -0.00000000000E+00 -0.24878734709E+03  0.24878734709E+03  0.00000000000E+00 0.  1.
         23    2    1    2    0    0  0.00000000000E+00  0.00000000000E+00 -0.24077623455E+03  0.25679845962E+03  0.89287478056E+02 0.  0.
          2    1    3    3  502    0  0.79420891333E+00  0.40549610877E+02 -0.17405327008E+03  0.17871609478E+03  0.00000000000E+00 0. -1.
         -2    1    3    3    0  502 -0.79420891333E+00 -0.40549610877E+02 -0.66722964479E+02  0.78082364839E+02  0.00000000000E+00 0.  1.
<mgrwt>
<rscale>  0 0.89287478E+02</rscale>
<asrwt>0</asrwt>
<pdfrwt beam="1">  1        3 0.12324788E-02 0.89287478E+02</pdfrwt>
<pdfrwt beam="2">  1       -3 0.38274978E-01 0.89287478E+02</pdfrwt>
<totfact> 0.27290672E+04</totfact>
</mgrwt>
</event>
<event>
 5    1  0.3858846E+001  0.8527662E+02  0.7546771E-02  0.1314711E+00
          2   -1    0    0  501    0  0.00000000000E+00  0.00000000000E+00  0.11952749817E+04  0.11952749817E+04  0.00000000000E+00 0. -1.
         -2   -1    0    0    0  501 -0.00000000000E+00 -0.00000000000E+00 -0.15210103712E+01  0.15210103712E+01  0.00000000000E+00 0.  1.
         23    2    1    2    0    0  0.00000000000E+00  0.00000000000E+00  0.11937539713E+04  0.11967959920E+04  0.85276623843E+02 0.  0.
          2    1    3    3  502    0  0.18070833674E+02  0.32157364501E+02  0.89701852974E+03  0.89777663916E+03  0.00000000000E+00 0. -1.
         -2    1    3    3    0  502 -0.18070833674E+02 -0.32157364501E+02  0.29673544155E+03  0.29901935288E+03  0.00000000000E+00 0.  1.
<mgrwt>
<rscale>  0 0.85276624E+02</rscale>
<asrwt>0</asrwt>
<pdfrwt beam="1">  1        2 0.18388771E+00 0.85276624E+02</pdfrwt>
<pdfrwt beam="2">  1       -2 0.23400255E-03 0.85276624E+02</pdfrwt>
<totfact> 0.29654047E+05</totfact>
</mgrwt>
</event>
<event>
 5    1  0.3858846E+001  0.9167555E+02  0.7546771E-02  0.1298844E+00
          4   -1    0    0  501    0  0.00000000000E+00  0.00000000000E+00  0.39931573863E+02  0.39931573863E+02  0.00000000000E+00 0. -1.
         -4   -1    0    0    0  501 -0.00000000000E+00 -0.00000000000E+00 -0.52617551145E+02  0.52617551145E+02  0.00000000000E+00 0.  1.
         23    2    1    2    0    0  0.00000000000E+00  0.00000000000E+00 -0.12685977282E+02  0.92549125008E+02  0.91675550285E+02 0.  0.
          2    1    3    3  502    0  0.34919487567E+02 -0.20979351773E+02  0.14871484505E+02  0.43366633073E+02  0.00000000000E+00 0.  1.
         -2    1    3    3    0  502 -0.34919487567E+02  0.20979351773E+02 -0.27557461787E+02  0.49182491935E+02  0.00000000000E+00 0. -1.
<mgrwt>
<rscale>  0 0.91675550E+02</rscale>
<asrwt>0</asrwt>
<pdfrwt beam="1">  1        4 0.61433191E-02 0.91675550E+02</pdfrwt>
<pdfrwt beam="2">  1       -4 0.80950078E-02 0.91675550E+02</pdfrwt>
<totfact> 0.26531795E+04</totfact>
</mgrwt>
</event>
<event>
 5    1  0.3858846E+001  0.8857430E+02  0.7546771E-02  0.1306341E+00
         -3   -1    0    0    0  501 -0.00000000000E+00  0.00000000000E+00  0.15704578491E+02  0.15704578491E+02  0.00000000000E+00 0.  1.
          3   -1    0    0  501    0  0.00000000000E+00 -0.00000000000E+00 -0.12489044254E+03  0.12489044254E+03  0.00000000000E+00 0. -1.
         23    2    1    2    0    0  0.00000000000E+00  0.00000000000E+00 -0.10918586405E+03  0.14059502103E+03  0.88574302315E+02 0.  0.
          2    1    3    3  502    0  0.17841725161E+02  0.40053495503E+02 -0.64472859891E+02  0.77970246384E+02  0.00000000000E+00 0. -1.
         -2    1    3    3    0  502 -0.17841725161E+02 -0.40053495503E+02 -0.44713004162E+02  0.62624774650E+02  0.00000000000E+00 0.  1.
<mgrwt>
<rscale>  0 0.88574302E+02</rscale>
<asrwt>0</asrwt>
<pdfrwt beam="2">  1        3 0.19213914E-01 0.88574302E+02</pdfrwt>
<pdfrwt beam="1">  1       -3 0.24160891E-02 0.88574302E+02</pdfrwt>
<totfact> 0.34487777E+04</totfact>
</mgrwt>
</event>
<event>
 5    1  0.3858846E+001  0.9261144E+02  0.7546771E-02  0.1296648E+00
         -4   -1    0    0    0  501 -0.00000000000E+00  0.00000000000E+00  0.65163404502E+02  0.65163404502E+02  0.00000000000E+00 0.  1.
          4   -1    0    0  501    0  0.00000000000E+00 -0.00000000000E+00 -0.32905277894E+02  0.32905277894E+02  0.00000000000E+00 0. -1.
         23    2    1    2    0    0  0.00000000000E+00  0.00000000000E+00  0.32258126607E+02  0.98068682396E+02  0.92611444944E+02 0.  0.
          2    1    3    3  502    0  0.43387705326E+02  0.11430071937E+02  0.40053799456E+01  0.45046449211E+02  0.00000000000E+00 0. -1.
         -2    1    3    3    0  502 -0.43387705326E+02 -0.11430071937E+02  0.28252746662E+02  0.53022233185E+02  0.00000000000E+00 0.  1.
<mgrwt>
<rscale>  0 0.92611445E+02</rscale>
<asrwt>0</asrwt>
<pdfrwt beam="2">  1        4 0.50623505E-02 0.92611445E+02</pdfrwt>
<pdfrwt beam="1">  1       -4 0.10025139E-01 0.92611445E+02</pdfrwt>
<totfact> 0.25473627E+04</totfact>
</mgrwt>
</event>
<event>
 5    1  0.3858846E+001  0.9259338E+02  0.7546771E-02  0.1296690E+00
          2   -1    0    0  501    0  0.00000000000E+00  0.00000000000E+00  0.35165587572E+03  0.35165587572E+03  0.00000000000E+00 0. -1.
         -2   -1    0    0    0  501 -0.00000000000E+00 -0.00000000000E+00 -0.60951159314E+01  0.60951159314E+01  0.00000000000E+00 0.  1.
         23    2    1    2    0    0  0.00000000000E+00  0.00000000000E+00  0.34556075979E+03  0.35775099165E+03  0.92593376231E+02 0.  0.
          2    1    3    3  502    0 -0.34153457133E+02  0.95775563876E+01  0.28773341151E+03  0.28991154568E+03  0.00000000000E+00 0. -1.
         -2    1    3    3    0  502  0.34153457133E+02 -0.95775563876E+01  0.57827348277E+02  0.67839445968E+02  0.00000000000E+00 0.  1.
<mgrwt>
<rscale>  0 0.92593376E+02</rscale>
<asrwt>0</asrwt>
<pdfrwt beam="1">  1        2 0.54100888E-01 0.92593376E+02</pdfrwt>
<pdfrwt beam="2">  1       -2 0.93771042E-03 0.92593376E+02</pdfrwt>
<totfact> 0.18285896E+05</totfact>
</mgrwt>
</event>
<event>
 5    1  0.3858846E+001  0.9112980E+02  0.7546771E-02  0.1300139E+00
         -2   -1    0    0    0  501 -0.00000000000E+00  0.00000000000E+00  0.17254368411E+02  0.17254368411E+02  0.00000000000E+00 0.  1.
          2   -1    0    0  501    0  0.00000000000E+00 -0.00000000000E+00 -0.12032662400E+03  0.12032662400E+03  0.00000000000E+00 0. -1.
         23    2    1    2    0    0  0.00000000000E+00  0.00000000000E+00 -0.10307225559E+03  0.13758099241E+03  0.91129795349E+02 0.  0.
          2    1    3    3  502    0 -0.26445690391E+02 -0.35519668559E+02 -0.35336376896E+02  0.56654045989E+02  0.00000000000E+00 0. -1.
         -2    1    3    3    0  502  0.26445690391E+02  0.35519668559E+02 -0.67735878690E+02  0.80926946419E+02  0.00000000000E+00 0.  1.
<mgrwt>
<rscale>  0 0.91129795E+02</rscale>
<asrwt>0</asrwt>
<pdfrwt beam="2">  1        2 0.18511788E-01 0.91129795E+02</pdfrwt>
<pdfrwt beam="1">  1       -2 0.26545183E-02 0.91129795E+02</pdfrwt>
<totfact> 0.13016093E+05</totfact>
</mgrwt>
</event>
<event>
 5    1  0.3858846E+001  0.9325466E+02  0.7546771E-02  0.1295156E+00
          2   -1    0    0  501    0  0.00000000000E+00  0.00000000000E+00  0.10277251377E+02  0.10277251377E+02  0.00000000000E+00 0. -1.
         -2   -1    0    0    0  501 -0.00000000000E+00 -0.00000000000E+00 -0.21154565339E+03  0.21154565339E+03  0.00000000000E+00 0.  1.
         23    2    1    2    0    0  0.00000000000E+00  0.00000000000E+00 -0.20126840201E+03  0.22182290477E+03  0.93254659026E+02 0.  0.
          2    1    3    3  502    0  0.39419846480E+02  0.25293332695E+01 -0.41703127714E+02  0.57441036589E+02  0.00000000000E+00 0. -1.
         -2    1    3    3    0  502 -0.39419846480E+02 -0.25293332695E+01 -0.15956527430E+03  0.16438186818E+03  0.00000000000E+00 0.  1.
<mgrwt>
<rscale>  0 0.93254659E+02</rscale>
<asrwt>0</asrwt>
<pdfrwt beam="1">  1        2 0.15811156E-02 0.93254659E+02</pdfrwt>
<pdfrwt beam="2">  1       -2 0.32545486E-01 0.93254659E+02</pdfrwt>
<totfact> 0.57388789E+04</totfact>
</mgrwt>
</event>
<event>
 5    1  0.3858846E+001  0.9200414E+02  0.7546771E-02  0.1298070E+00
         -2   -1    0    0    0  501 -0.00000000000E+00  0.00000000000E+00  0.41118728159E+02  0.41118728159E+02  0.00000000000E+00 0.  1.
          2   -1    0    0  501    0  0.00000000000E+00 -0.00000000000E+00 -0.51465371586E+02  0.51465371586E+02  0.00000000000E+00 0. -1.
         23    2    1    2    0    0  0.00000000000E+00  0.00000000000E+00 -0.10346643427E+02  0.92584099745E+02  0.92004143904E+02 0.  0.
          2    1    3    3  502    0  0.78459551212E+01 -0.22508390896E+02 -0.44766015574E+02  0.50716691758E+02  0.00000000000E+00 0. -1.
         -2    1    3    3    0  502 -0.78459551212E+01  0.22508390896E+02  0.34419372147E+02  0.41867407987E+02  0.00000000000E+00 0.  1.
<mgrwt>
<rscale>  0 0.92004144E+02</rscale>
<asrwt>0</asrwt>
<pdfrwt beam="2">  1        2 0.79177494E-02 0.92004144E+02</pdfrwt>
<pdfrwt beam="1">  1       -2 0.63259582E-02 0.92004144E+02</pdfrwt>
<totfact> 0.99254268E+04</totfact>
</mgrwt>
</event>
<event>
 5    1  0.3858846E+001  0.9489723E+02  0.7546771E-02  0.1291408E+00
          3   -1    0    0  501    0  0.00000000000E+00  0.00000000000E+00  0.79251042621E+02  0.79251042621E+02  0.00000000000E+00 0. -1.
         -3   -1    0    0    0  501 -0.00000000000E+00 -0.00000000000E+00 -0.28408095614E+02  0.28408095614E+02  0.00000000000E+00 0.  1.
         23    2    1    2    0    0  0.00000000000E+00  0.00000000000E+00  0.50842947008E+02  0.10765913824E+03  0.94897232758E+02 0.  0.
          2    1    3    3  502    0  0.25549020641E+02 -0.79353759999E+01  0.69878792350E+02  0.74824917430E+02  0.00000000000E+00 0. -1.
         -2    1    3    3    0  502 -0.25549020641E+02  0.79353759999E+01 -0.19035845343E+02  0.32834220806E+02  0.00000000000E+00 0.  1.
<mgrwt>
<rscale>  0 0.94897233E+02</rscale>
<asrwt>0</asrwt>
<pdfrwt beam="1">  1        3 0.12192468E-01 0.94897233E+02</pdfrwt>
<pdfrwt beam="2">  1       -3 0.43704763E-02 0.94897233E+02</pdfrwt>
<totfact> 0.30584209E+04</totfact>
</mgrwt>
</event>
<event>
 5    1  0.3858846E+001  0.9093129E+02  0.7546771E-02  0.1300612E+00
          2   -1    0    0  501    0  0.00000000000E+00  0.00000000000E+00  0.89574208925E+03  0.89574208925E+03  0.00000000000E+00 0. -1.
         -2   -1    0    0    0  501 -0.00000000000E+00 -0.00000000000E+00 -0.23077233804E+01  0.23077233804E+01  0.00000000000E+00 0.  1.
         23    2    1    2    0    0  0.00000000000E+00  0.00000000000E+00  0.89343436587E+03  0.89804981263E+03  0.90931291912E+02 0.  0.
          2    1    3    3  502    0  0.17824158815E+02 -0.36154972882E+02  0.65440794789E+03  0.65564826314E+03  0.00000000000E+00 0. -1.
         -2    1    3    3    0  502 -0.17824158815E+02  0.36154972882E+02  0.23902641798E+03  0.24240154949E+03  0.00000000000E+00 0.  1.
<mgrwt>
<rscale>  0 0.90931292E+02</rscale>
<asrwt>0</asrwt>
<pdfrwt beam="1">  1        2 0.13780620E+00 0.90931292E+02</pdfrwt>
<pdfrwt beam="2">  1       -2 0.35503508E-03 0.90931292E+02</pdfrwt>
<totfact> 0.24957398E+05</totfact>
</mgrwt>
</event>
<event>
 5    1  0.3858846E+001  0.9217146E+02  0.7546771E-02  0.1297677E+00
         -1   -1    0    0    0  501 -0.00000000000E+00  0.00000000000E+00  0.57443241772E+01  0.57443241772E+01  0.00000000000E+00 0.  1.
          1   -1    0    0  501    0  0.00000000000E+00 -0.00000000000E+00 -0.36973791100E+03  0.36973791100E+03  0.00000000000E+00 0. -1.
         23    2    1    2    0    0  0.00000000000E+00  0.00000000000E+00 -0.36399358683E+03  0.37548223518E+03  0.92171458086E+02 0.  0.
          2    1    3    3  502    0  0.19458737548E+02  0.41357857804E+02 -0.20602132508E+03  0.21103056949E+03  0.00000000000E+00 0. -1.
         -2    1    3    3    0  502 -0.19458737548E+02 -0.41357857804E+02 -0.15797226174E+03  0.16445166569E+03  0.00000000000E+00 0.  1.
<mgrwt>
<rscale>  0 0.92171458E+02</rscale>
<asrwt>0</asrwt>
<pdfrwt beam="2">  1        1 0.56882748E-01 0.92171458E+02</pdfrwt>
<pdfrwt beam="1">  1       -1 0.88374230E-03 0.92171458E+02</pdfrwt>
<totfact> 0.12932182E+05</totfact>
</mgrwt>
</event>
<event>
 5    1  0.3858846E+001  0.9191947E+02  0.7546771E-02  0.1298269E+00
         -1   -1    0    0    0  501 -0.00000000000E+00  0.00000000000E+00  0.35814553517E+01  0.35814553517E+01  0.00000000000E+00 0.  1.
          1   -1    0    0  501    0  0.00000000000E+00 -0.00000000000E+00 -0.58978739642E+03  0.58978739642E+03  0.00000000000E+00 0. -1.
         23    2    1    2    0    0  0.00000000000E+00  0.00000000000E+00 -0.58620594106E+03  0.59336885177E+03  0.91919469695E+02 0.  0.
          2    1    3    3  502    0 -0.23986092516E+02  0.35686180513E+02 -0.18832366971E+03  0.19316997874E+03  0.00000000000E+00 0.  1.
         -2    1    3    3    0  502  0.23986092516E+02 -0.35686180513E+02 -0.39788227136E+03  0.40019887303E+03  0.00000000000E+00 0. -1.
<mgrwt>
<rscale>  0 0.91919470E+02</rscale>
<asrwt>0</asrwt>
<pdfrwt beam="2">  1        1 0.90736627E-01 0.91919470E+02</pdfrwt>
<pdfrwt beam="1">  1       -1 0.55099250E-03 0.91919470E+02</pdfrwt>
<totfact> 0.13842770E+05</totfact>
</mgrwt>
</event>
<event>
 5    1  0.3858846E+001  0.9080043E+02  0.7546771E-02  0.1300925E+00
         -2   -1    0    0    0  501 -0.00000000000E+00  0.00000000000E+00  0.11755401294E+02  0.11755401294E+02  0.00000000000E+00 0.  1.
          2   -1    0    0  501    0  0.00000000000E+00 -0.00000000000E+00 -0.17533894202E+03  0.17533894202E+03  0.00000000000E+00 0. -1.
         23    2    1    2    0    0  0.00000000000E+00  0.00000000000E+00 -0.16358354073E+03  0.18709434332E+03  0.90800432287E+02 0.  0.
          2    1    3    3  502    0 -0.39258552714E+02 -0.12465442416E+02 -0.12113375837E+03  0.12794533455E+03  0.00000000000E+00 0. -1.
         -2    1    3    3    0  502  0.39258552714E+02  0.12465442416E+02 -0.42449782357E+02  0.59149008766E+02  0.00000000000E+00 0.  1.
<mgrwt>
<rscale>  0 0.90800432E+02</rscale>
<asrwt>0</asrwt>
<pdfrwt beam="2">  1        2 0.26975222E-01 0.90800432E+02</pdfrwt>
<pdfrwt beam="1">  1       -2 0.18085233E-02 0.90800432E+02</pdfrwt>
<totfact> 0.14922829E+05</totfact>
</mgrwt>
</event>
<event>
 5    1  0.3858846E+001  0.8633470E+02  0.7546771E-02  0.1311979E+00
          1   -1    0    0  501    0  0.00000000000E+00  0.00000000000E+00  0.13978242912E+03  0.13978242912E+03  0.00000000000E+00 0. -1.
         -1   -1    0    0    0  501 -0.00000000000E+00 -0.00000000000E+00 -0.13330859881E+02  0.13330859881E+02  0.00000000000E+00 0.  1.
         23    2    1    2    0    0  0.00000000000E+00  0.00000000000E+00  0.12645156923E+03  0.15311328900E+03  0.86334696997E+02 0.  0.
          2    1    3    3  502    0  0.15701088013E+02  0.28560104823E+02  0.13025938728E+02  0.35098131461E+02  0.00000000000E+00 0.  1.
         -2    1    3    3    0  502 -0.15701088013E+02 -0.28560104823E+02  0.11342563051E+03  0.11801515754E+03  0.00000000000E+00 0. -1.
<mgrwt>
<rscale>  0 0.86334697E+02</rscale>
<asrwt>0</asrwt>
<pdfrwt beam="1">  1        1 0.21504988E-01 0.86334697E+02</pdfrwt>
<pdfrwt beam="2">  1       -1 0.20509016E-02 0.86334697E+02</pdfrwt>
<totfact> 0.12821190E+05</totfact>
</mgrwt>
</event>
<event>
 5    1  0.3858846E+001  0.9134743E+02  0.7546771E-02  0.1299621E+00
         -2   -1    0    0    0  501 -0.00000000000E+00  0.00000000000E+00  0.69194350487E+01  0.69194350487E+01  0.00000000000E+00 0.  1.
          2   -1    0    0  501    0  0.00000000000E+00 -0.00000000000E+00 -0.30148243852E+03  0.30148243852E+03  0.00000000000E+00 0. -1.
         23    2    1    2    0    0  0.00000000000E+00  0.00000000000E+00 -0.29456300347E+03  0.30840187357E+03  0.91347428024E+02 0.  0.
          2    1    3    3  502    0  0.31373883426E+02  0.17332396276E+02 -0.24285408614E+03  0.24548490723E+03  0.00000000000E+00 0. -1.
         -2    1    3    3    0  502 -0.31373883426E+02 -0.17332396276E+02 -0.51708917331E+02  0.62916966340E+02  0.00000000000E+00 0.  1.
<mgrwt>
<rscale>  0 0.91347428E+02</rscale>
<asrwt>0</asrwt>
<pdfrwt beam="2">  1        2 0.46381912E-01 0.91347428E+02</pdfrwt>
<pdfrwt beam="1">  1       -2 0.10645285E-02 0.91347428E+02</pdfrwt>
<totfact> 0.17909414E+05</totfact>
</mgrwt>
</event>
<event>
 4    1  0.3858846E+001  0.3517860E+03  0.7546771E-02  0.1061884E+00
          1   -1    0    0  501    0  0.00000000000E+00  0.00000000000E+00  0.72246392557E+03  0.72246392557E+03  0.00000000000E+00 0. -1.
         -1   -1    0    0    0  501 -0.00000000000E+00 -0.00000000000E+00 -0.42823376267E+02  0.42823376267E+02  0.00000000000E+00 0.  1.
          2    1    1    2  502    0  0.10958342047E+03 -0.13200839643E+03  0.42417557731E+03  0.45755837131E+03  0.00000000000E+00 0. -1.
         -2    1    1    2    0  502 -0.10958342047E+03  0.13200839643E+03  0.25546497199E+03  0.30772893053E+03  0.00000000000E+00 0.  1.
<mgrwt>
<rscale>  0 0.35178598E+03</rscale>
<asrwt>0</asrwt>
<pdfrwt beam="1">  1        1 0.11114829E+00 0.35178598E+03</pdfrwt>
<pdfrwt beam="2">  1       -1 0.65882122E-02 0.35178598E+03</pdfrwt>
<totfact> 0.31273181E+03</totfact>
</mgrwt>
</event>
<event>
 5    1  0.3858846E+001  0.9078859E+02  0.7546771E-02  0.1300953E+00
         -2   -1    0    0    0  501 -0.00000000000E+00  0.00000000000E+00  0.39008654883E+01  0.39008654883E+01  0.00000000000E+00 0.  1.
          2   -1    0    0  501    0  0.00000000000E+00 -0.00000000000E+00 -0.52825246969E+03  0.52825246969E+03  0.00000000000E+00 0. -1.
         23    2    1    2    0    0  0.00000000000E+00  0.00000000000E+00 -0.52435160421E+03  0.53215333518E+03  0.90788585805E+02 0.  0.
          2    1    3    3  502    0 -0.37475955087E+01 -0.33134785723E+02 -0.81638822645E+02  0.88186483431E+02  0.00000000000E+00 0.  1.
         -2    1    3    3    0  502  0.37475955087E+01  0.33134785723E+02 -0.44271278156E+03  0.44396685175E+03  0.00000000000E+00 0. -1.
<mgrwt>
<rscale>  0 0.90788586E+02</rscale>
<asrwt>0</asrwt>
<pdfrwt beam="2">  1        2 0.81269554E-01 0.90788586E+02</pdfrwt>
<pdfrwt beam="1">  1       -2 0.60013357E-03 0.90788586E+02</pdfrwt>
<totfact> 0.22180373E+05</totfact>
</mgrwt>
</event>
<event>
 5    1  0.3858846E+001  0.9676010E+02  0.7546771E-02  0.1287260E+00
          1   -1    0    0  501    0  0.00000000000E+00  0.00000000000E+00  0.16713997889E+03  0.16713997889E+03  0.00000000000E+00 0. -1.
         -1   -1    0    0    0  501 -0.00000000000E+00 -0.00000000000E+00 -0.14004005917E+02  0.14004005917E+02  0.00000000000E+00 0.  1.
         23    2    1    2    0    0  0.00000000000E+00  0.00000000000E+00  0.15313597298E+03  0.18114398481E+03  0.96760100317E+02 0.  0.
          2    1    3    3  502    0  0.46703162057E+01 -0.35451282074E+02  0.15558864821E+02  0.38995942464E+02  0.00000000000E+00 0.  1.
         -2    1    3    3    0  502 -0.46703162057E+01  0.35451282074E+02  0.13757710816E+03  0.14214804235E+03  0.00000000000E+00 0. -1.
<mgrwt>
<rscale>  0 0.96760100E+02</rscale>
<asrwt>0</asrwt>
<pdfrwt beam="1">  1        1 0.25713842E-01 0.96760100E+02</pdfrwt>
<pdfrwt beam="2">  1       -1 0.21544626E-02 0.96760100E+02</pdfrwt>
<totfact> 0.97433759E+04</totfact>
</mgrwt>
</event>
<event>
 5    1  0.3858846E+001  0.9214277E+02  0.7546771E-02  0.1297744E+00
         -4   -1    0    0    0  501 -0.00000000000E+00  0.00000000000E+00  0.95893751968E+03  0.95893751968E+03  0.00000000000E+00 0.  1.
          4   -1    0    0  501    0  0.00000000000E+00 -0.00000000000E+00 -0.22134629106E+01  0.22134629106E+01  0.00000000000E+00 0. -1.
         23    2    1    2    0    0  0.00000000000E+00  0.00000000000E+00  0.95672405677E+03  0.96115098259E+03  0.92142772551E+02 0.  0.
          2    1    3    3  502    0 -0.33242281779E+02  0.31189154108E+02  0.40857489090E+03  0.41110978352E+03  0.00000000000E+00 0. -1.
         -2    1    3    3    0  502  0.33242281779E+02 -0.31189154108E+02  0.54814916587E+03  0.55004119907E+03  0.00000000000E+00 0.  1.
<mgrwt>
<rscale>  0 0.92142773E+02</rscale>
<asrwt>0</asrwt>
<pdfrwt beam="2">  1        4 0.34053352E-03 0.92142773E+02</pdfrwt>
<pdfrwt beam="1">  1       -4 0.14752852E+00 0.92142773E+02</pdfrwt>
<totfact> 0.72224291E+03</totfact>
</mgrwt>
</event>
<event>
 5    1  0.3858846E+001  0.9107920E+02  0.7546771E-02  0.1300259E+00
         -1   -1    0    0    0  501 -0.00000000000E+00  0.00000000000E+00  0.57928425170E+02  0.57928425170E+02  0.00000000000E+00 0.  1.
          1   -1    0    0  501    0  0.00000000000E+00 -0.00000000000E+00 -0.35800302900E+02  0.35800302900E+02  0.00000000000E+00 0. -1.
         23    2    1    2    0    0  0.00000000000E+00  0.00000000000E+00  0.22128122270E+02  0.93728728070E+02  0.91079199988E+02 0.  0.
          2    1    3    3  502    0  0.16774934290E+02  0.14906003640E+02 -0.29715296390E+02  0.37236893056E+02  0.00000000000E+00 0. -1.
         -2    1    3    3    0  502 -0.16774934290E+02 -0.14906003640E+02  0.51843418660E+02  0.56491835014E+02  0.00000000000E+00 0.  1.
<mgrwt>
<rscale>  0 0.91079200E+02</rscale>
<asrwt>0</asrwt>
<pdfrwt beam="2">  1        1 0.55077389E-02 0.91079200E+02</pdfrwt>
<pdfrwt beam="1">  1       -1 0.89120654E-02 0.91079200E+02</pdfrwt>
<totfact> 0.89408022E+04</totfact>
</mgrwt>
</event>
<event>
 5    1  0.3858846E+001  0.8813099E+02  0.7546771E-02  0.1307442E+00
         -1   -1    0    0    0  501 -0.00000000000E+00  0.00000000000E+00  0.63645892337E+01  0.63645892337E+01  0.00000000000E+00 0.  1.
          1   -1    0    0  501    0  0.00000000000E+00 -0.00000000000E+00 -0.30508929006E+03  0.30508929006E+03  0.00000000000E+00 0. -1.
         23    2    1    2    0    0  0.00000000000E+00  0.00000000000E+00 -0.29872470082E+03  0.31145387929E+03  0.88130993659E+02 0.  0.
          2    1    3    3  502    0  0.38361101314E+02 -0.12192813934E+02 -0.21273112243E+03  0.21650581806E+03  0.00000000000E+00 0. -1.
         -2    1    3    3    0  502 -0.38361101314E+02  0.12192813934E+02 -0.85993578396E+02  0.94948061228E+02  0.00000000000E+00 0.  1.
<mgrwt>
<rscale>  0 0.88130994E+02</rscale>
<asrwt>0</asrwt>
<pdfrwt beam="2">  1        1 0.46936803E-01 0.88130994E+02</pdfrwt>
<pdfrwt beam="1">  1       -1 0.97916780E-03 0.88130994E+02</pdfrwt>
<totfact> 0.14067989E+05</totfact>
</mgrwt>
</event>
<event>
 5    1  0.3858846E+001  0.9159487E+02  0.7546771E-02  0.1299035E+00
         -1   -1    0    0    0  501 -0.00000000000E+00  0.00000000000E+00  0.24557416604E+02  0.24557416604E+02  0.00000000000E+00 0.  1.
          1   -1    0    0  501    0  0.00000000000E+00 -0.00000000000E+00 -0.85408207872E+02  0.85408207872E+02  0.00000000000E+00 0. -1.
         23    2    1    2    0    0  0.00000000000E+00  0.00000000000E+00 -0.60850791268E+02  0.10996562448E+03  0.91594867588E+02 0.  0.
          2    1    3    3  502    0  0.12744699429E+01 -0.45777542995E+02 -0.29892223206E+02  0.54687774909E+02  0.00000000000E+00 0.  1.
         -2    1    3    3    0  502 -0.12744699429E+01  0.45777542995E+02 -0.30958568062E+02  0.55277849567E+02  0.00000000000E+00 0. -1.
<mgrwt>
<rscale>  0 0.91594868E+02</rscale>
<asrwt>0</asrwt>
<pdfrwt beam="2">  1        1 0.13139725E-01 0.91594868E+02</pdfrwt>
<pdfrwt beam="1">  1       -1 0.37780640E-02 0.91594868E+02</pdfrwt>
<totfact> 0.10052826E+05</totfact>
</mgrwt>
</event>
<event>
 5    1  0.3858846E+001  0.8998791E+02  0.7546771E-02  0.1302881E+00
         -1   -1    0    0    0  501 -0.00000000000E+00  0.00000000000E+00  0.60281095959E+02  0.60281095959E+02  0.00000000000E+00 0.  1.
          1   -1    0    0  501    0  0.00000000000E+00 -0.00000000000E+00 -0.33583598696E+02  0.33583598696E+02  0.00000000000E+00 0. -1.
         23    2    1    2    0    0  0.00000000000E+00  0.00000000000E+00  0.26697497264E+02  0.93864694655E+02  0.89987913313E+02 0.  0.
          2    1    3    3  502    0  0.98931218912E+01  0.36179630184E+02 -0.12573793124E+02  0.39559319693E+02  0.00000000000E+00 0. -1.
         -2    1    3    3    0  502 -0.98931218912E+01 -0.36179630184E+02  0.39271290388E+02  0.54305374962E+02  0.00000000000E+00 0.  1.
<mgrwt>
<rscale>  0 0.89987913E+02</rscale>
<asrwt>0</asrwt>
<pdfrwt beam="2">  1        1 0.51667075E-02 0.89987913E+02</pdfrwt>
<pdfrwt beam="1">  1       -1 0.92740148E-02 0.89987913E+02</pdfrwt>
<totfact> 0.91612432E+04</totfact>
</mgrwt>
</event>
<event>
 5    1  0.3858846E+001  0.8685330E+02  0.7546771E-02  0.1310656E+00
         -1   -1    0    0    0  501 -0.00000000000E+00  0.00000000000E+00  0.17872736826E+04  0.17872736826E+04  0.00000000000E+00 0.  1.
          1   -1    0    0  501    0  0.00000000000E+00 -0.00000000000E+00 -0.10551679261E+01  0.10551679261E+01  0.00000000000E+00 0. -1.
         23    2    1    2    0    0  0.00000000000E+00  0.00000000000E+00  0.17862185147E+04  0.17883288505E+04  0.86853298497E+02 0.  0.
          2    1    3    3  502    0 -0.23813962848E+02  0.27367980273E+02  0.40162674312E+03  0.40326189004E+03  0.00000000000E+00 0. -1.
         -2    1    3    3    0  502  0.23813962848E+02 -0.27367980273E+02  0.13845917715E+04  0.13850669605E+04  0.00000000000E+00 0.  1.
<mgrwt>
<rscale>  0 0.86853298E+02</rscale>
<asrwt>0</asrwt>
<pdfrwt beam="2">  1        1 0.16233496E-03 0.86853298E+02</pdfrwt>
<pdfrwt beam="1">  1       -1 0.27496276E+00 0.86853298E+02</pdfrwt>
<totfact> 0.10707867E+04</totfact>
</mgrwt>
</event>
<event>
 5    1  0.3858846E+001  0.8543934E+02  0.7546771E-02  0.1314288E+00
         -1   -1    0    0    0  501 -0.00000000000E+00  0.00000000000E+00  0.75884998784E+02  0.75884998784E+02  0.00000000000E+00 0.  1.
          1   -1    0    0  501    0  0.00000000000E+00 -0.00000000000E+00 -0.24049157865E+02  0.24049157865E+02  0.00000000000E+00 0. -1.
         23    2    1    2    0    0  0.00000000000E+00  0.00000000000E+00  0.51835840919E+02  0.99934156648E+02  0.85439342585E+02 0.  0.
          2    1    3    3  502    0 -0.22883318400E+02 -0.22410826469E+02 -0.71457366494E+01  0.32816961412E+02  0.00000000000E+00 0. -1.
         -2    1    3    3    0  502  0.22883318400E+02  0.22410826469E+02  0.58981577568E+02  0.67117195237E+02  0.00000000000E+00 0.  1.
<mgrwt>
<rscale>  0 0.85439343E+02</rscale>
<asrwt>0</asrwt>
<pdfrwt beam="2">  1        1 0.36998705E-02 0.85439343E+02</pdfrwt>
<pdfrwt beam="1">  1       -1 0.11674615E-01 0.85439343E+02</pdfrwt>
<totfact> 0.10080974E+05</totfact>
</mgrwt>
</event>
<event>
 5    1  0.3858846E+001  0.9334341E+02  0.7546771E-02  0.1294951E+00
          1   -1    0    0  501    0  0.00000000000E+00  0.00000000000E+00  0.23912825071E+04  0.23912825071E+04  0.00000000000E+00 0. -1.
         -1   -1    0    0    0  501 -0.00000000000E+00 -0.00000000000E+00 -0.91091207508E+00  0.91091207508E+00  0.00000000000E+00 0.  1.
         23    2    1    2    0    0  0.00000000000E+00  0.00000000000E+00  0.23903715950E+04  0.23921934192E+04  0.93343411350E+02 0.  0.
          2    1    3    3  502    0 -0.44156687994E+02 -0.10158143214E+02  0.90837431408E+03  0.90950365334E+03  0.00000000000E+00 0. -1.
         -2    1    3    3    0  502  0.44156687994E+02  0.10158143214E+02  0.14819972809E+04  0.14826897658E+04  0.00000000000E+00 0.  1.
<mgrwt>
<rscale>  0 0.93343411E+02</rscale>
<asrwt>0</asrwt>
<pdfrwt beam="1">  1        1 0.36788459E+00 0.93343411E+02</pdfrwt>
<pdfrwt beam="2">  1       -1 0.14014223E-03 0.93343411E+02</pdfrwt>
<totfact> 0.54259673E+04</totfact>
</mgrwt>
</event>
<event>
 5    1  0.3858846E+001  0.8698366E+02  0.7546771E-02  0.1310325E+00
          2   -1    0    0  501    0  0.00000000000E+00  0.00000000000E+00  0.21563311373E+02  0.21563311373E+02  0.00000000000E+00 0. -1.
         -2   -1    0    0    0  501 -0.00000000000E+00 -0.00000000000E+00 -0.87720259495E+02  0.87720259495E+02  0.00000000000E+00 0.  1.
         23    2    1    2    0    0  0.00000000000E+00  0.00000000000E+00 -0.66156948122E+02  0.10928357087E+03  0.86983659827E+02 0.  0.
          2    1    3    3  502    0 -0.89712409388E+01  0.29650170690E+02 -0.71432179494E+02  0.77859951536E+02  0.00000000000E+00 0.  1.
         -2    1    3    3    0  502  0.89712409388E+01 -0.29650170690E+02  0.52752313719E+01  0.31423619332E+02  0.00000000000E+00 0. -1.
<mgrwt>
<rscale>  0 0.86983660E+02</rscale>
<asrwt>0</asrwt>
<pdfrwt beam="1">  1        2 0.33174325E-02 0.86983660E+02</pdfrwt>
<pdfrwt beam="2">  1       -2 0.13495425E-01 0.86983660E+02</pdfrwt>
<totfact> 0.93135232E+04</totfact>
</mgrwt>
</event>
<event>
 5    1  0.3858846E+001  0.9143240E+02  0.7546771E-02  0.1299420E+00
         -3   -1    0    0    0  501 -0.00000000000E+00  0.00000000000E+00  0.55890770042E+03  0.55890770042E+03  0.00000000000E+00 0.  1.
          3   -1    0    0  501    0  0.00000000000E+00 -0.00000000000E+00 -0.37393851289E+01  0.37393851289E+01  0.00000000000E+00 0. -1.
         23    2    1    2    0    0  0.00000000000E+00  0.00000000000E+00  0.55516831529E+03  0.56264708555E+03  0.91432404395E+02 0.  0.
          2    1    3    3  502    0  0.42005112021E+02 -0.14982101276E+02  0.33945200460E+03  0.34236903514E+03  0.00000000000E+00 0.  1.
         -2    1    3    3    0  502 -0.42005112021E+02  0.14982101276E+02  0.21571631069E+03  0.22027805041E+03  0.00000000000E+00 0. -1.
<mgrwt>
<rscale>  0 0.91432404E+02</rscale>
<asrwt>0</asrwt>
<pdfrwt beam="2">  1        3 0.57529046E-03 0.91432404E+02</pdfrwt>
<pdfrwt beam="1">  1       -3 0.85985734E-01 0.91432404E+02</pdfrwt>
<totfact> 0.16344755E+04</totfact>
</mgrwt>
</event>
<event>
 5    1  0.3858846E+001  0.9014834E+02  0.7546771E-02  0.1302493E+00
          1   -1    0    0  501    0  0.00000000000E+00  0.00000000000E+00  0.86287404568E+02  0.86287404568E+02  0.00000000000E+00 0.  1.
         -1   -1    0    0    0  501 -0.00000000000E+00 -0.00000000000E+00 -0.23545506146E+02  0.23545506146E+02  0.00000000000E+00 0. -1.
         23    2    1    2    0    0  0.00000000000E+00  0.00000000000E+00  0.62741898422E+02  0.10983291071E+03  0.90148335860E+02 0.  0.
          2    1    3    3  502    0 -0.38387769131E+02 -0.13470036811E+02  0.77267145943E+01  0.41409719016E+02  0.00000000000E+00 0. -1.
         -2    1    3    3    0  502  0.38387769131E+02  0.13470036811E+02  0.55015183828E+02  0.68423191698E+02  0.00000000000E+00 0.  1.
<mgrwt>
<rscale>  0 0.90148336E+02</rscale>
<asrwt>0</asrwt>
<pdfrwt beam="1">  1        1 0.13274985E-01 0.90148336E+02</pdfrwt>
<pdfrwt beam="2">  1       -1 0.36223856E-02 0.90148336E+02</pdfrwt>
<totfact> 0.10517696E+05</totfact>
</mgrwt>
</event>
<event>
 5    1  0.3858846E+001  0.6986833E+02  0.7546771E-02  0.1360541E+00
          1   -1    0    0  501    0  0.00000000000E+00  0.00000000000E+00  0.26782563333E+03  0.26782563333E+03  0.00000000000E+00 0. -1.
         -1   -1    0    0    0  501 -0.00000000000E+00 -0.00000000000E+00 -0.45566801640E+01  0.45566801640E+01  0.00000000000E+00 0.  1.
         23    2    1    2    0    0  0.00000000000E+00  0.00000000000E+00  0.26326895317E+03  0.27238231350E+03  0.69868326181E+02 0.  0.
          2    1    3    3  502    0  0.31268553534E+02 -0.10299682198E+01  0.71036483204E+02  0.77620649447E+02  0.00000000000E+00 0.  1.
         -2    1    3    3    0  502 -0.31268553534E+02  0.10299682198E+01  0.19223246996E+03  0.19476166405E+03  0.00000000000E+00 0. -1.
<mgrwt>
<rscale>  0 0.69868326E+02</rscale>
<asrwt>0</asrwt>
<pdfrwt beam="1">  1        1 0.41203931E-01 0.69868326E+02</pdfrwt>
<pdfrwt beam="2">  1       -1 0.70102793E-03 0.69868326E+02</pdfrwt>
<totfact> 0.25246911E+05</totfact>
</mgrwt>
</event>
<event>
 5    1  0.3858846E+001  0.8962789E+02  0.7546771E-02  0.1303755E+00
          1   -1    0    0  501    0  0.00000000000E+00  0.00000000000E+00  0.43848836575E+03  0.43848836575E+03  0.00000000000E+00 0. -1.
         -1   -1    0    0    0  501 -0.00000000000E+00 -0.00000000000E+00 -0.45800300064E+01  0.45800300064E+01  0.00000000000E+00 0.  1.
         23    2    1    2    0    0  0.00000000000E+00  0.00000000000E+00  0.43390833574E+03  0.44306839576E+03  0.89627894600E+02 0.  0.
          2    1    3    3  502    0 -0.11598724600E+02  0.18857090817E+02  0.40956811071E+03  0.41016601224E+03  0.00000000000E+00 0. -1.
         -2    1    3    3    0  502  0.11598724600E+02 -0.18857090817E+02  0.24340225037E+02  0.32902383520E+02  0.00000000000E+00 0.  1.
<mgrwt>
<rscale>  0 0.89627895E+02</rscale>
<asrwt>0</asrwt>
<pdfrwt beam="1">  1        1 0.67459715E-01 0.89627895E+02</pdfrwt>
<pdfrwt beam="2">  1       -1 0.70462035E-03 0.89627895E+02</pdfrwt>
<totfact> 0.14319688E+05</totfact>
</mgrwt>
</event>
<event>
 5    1  0.3858846E+001  0.9304916E+02  0.7546771E-02  0.1295631E+00
         -2   -1    0    0    0  501 -0.00000000000E+00  0.00000000000E+00  0.98019233676E+01  0.98019233676E+01  0.00000000000E+00 0. -1.
          2   -1    0    0  501    0  0.00000000000E+00 -0.00000000000E+00 -0.22082771430E+03  0.22082771430E+03  0.00000000000E+00 0.  1.
         23    2    1    2    0    0  0.00000000000E+00  0.00000000000E+00 -0.21102579093E+03  0.23062963766E+03  0.93049155461E+02 0.  0.
          2    1    3    3  502    0  0.23628394260E+02  0.31427804719E+02 -0.16715571662E+03  0.17171791264E+03  0.00000000000E+00 0.  1.
         -2    1    3    3    0  502 -0.23628394260E+02 -0.31427804719E+02 -0.43870074311E+02  0.58911725020E+02  0.00000000000E+00 0. -1.
<mgrwt>
<rscale>  0 0.93049155E+02</rscale>
<asrwt>0</asrwt>
<pdfrwt beam="2">  1        2 0.33973496E-01 0.93049155E+02</pdfrwt>
<pdfrwt beam="1">  1       -2 0.15079882E-02 0.93049155E+02</pdfrwt>
<totfact> 0.15182444E+05</totfact>
</mgrwt>
</event>
<event>
 5    1  0.3858846E+001  0.9118211E+02  0.7546771E-02  0.1300014E+00
         -1   -1    0    0    0  501 -0.00000000000E+00  0.00000000000E+00  0.38969820564E+01  0.38969820564E+01  0.00000000000E+00 0.  1.
          1   -1    0    0  501    0  0.00000000000E+00 -0.00000000000E+00 -0.53337279301E+03  0.53337279301E+03  0.00000000000E+00 0. -1.
         23    2    1    2    0    0  0.00000000000E+00  0.00000000000E+00 -0.52947581095E+03  0.53726977506E+03  0.91182107976E+02 0.  0.
          2    1    3    3  502    0 -0.99704216946E+01 -0.18353976886E+02 -0.25954254294E+02  0.33315178106E+02  0.00000000000E+00 0.  1.
         -2    1    3    3    0  502  0.99704216946E+01  0.18353976886E+02 -0.50352155666E+03  0.50395459696E+03  0.00000000000E+00 0. -1.
<mgrwt>
<rscale>  0 0.91182108E+02</rscale>
<asrwt>0</asrwt>
<pdfrwt beam="2">  1        1 0.82057352E-01 0.91182108E+02</pdfrwt>
<pdfrwt beam="1">  1       -1 0.59953570E-03 0.91182108E+02</pdfrwt>
<totfact> 0.14022899E+05</totfact>
</mgrwt>
</event>
<event>
 5    1  0.3858846E+001  0.8886968E+02  0.7546771E-02  0.1305612E+00
         -1   -1    0    0    0  501 -0.00000000000E+00  0.00000000000E+00  0.14488331945E+01  0.14488331945E+01  0.00000000000E+00 0.  1.
          1   -1    0    0  501    0  0.00000000000E+00 -0.00000000000E+00 -0.13627896297E+04  0.13627896297E+04  0.00000000000E+00 0. -1.
         23    2    1    2    0    0  0.00000000000E+00  0.00000000000E+00 -0.13613407965E+04  0.13642384629E+04  0.88869676554E+02 0.  0.
          2    1    3    3  502    0  0.18591929869E+02 -0.27413530161E+02 -0.11353538115E+04  0.11358368892E+04  0.00000000000E+00 0. -1.
         -2    1    3    3    0  502 -0.18591929869E+02  0.27413530161E+02 -0.22598698504E+03  0.22840157377E+03  0.00000000000E+00 0.  1.
<mgrwt>
<rscale>  0 0.88869677E+02</rscale>
<asrwt>0</asrwt>
<pdfrwt beam="2">  1        1 0.20965952E+00 0.88869677E+02</pdfrwt>
<pdfrwt beam="1">  1       -1 0.22289787E-03 0.88869677E+02</pdfrwt>
<totfact> 0.12688263E+05</totfact>
</mgrwt>
</event>
<event>
 5    1  0.3858846E+001  0.9464814E+02  0.7546771E-02  0.1291971E+00
         -3   -1    0    0    0  501 -0.00000000000E+00  0.00000000000E+00  0.73022551279E+02  0.73022551279E+02  0.00000000000E+00 0.  1.
          3   -1    0    0  501    0  0.00000000000E+00 -0.00000000000E+00 -0.30669533532E+02  0.30669533532E+02  0.00000000000E+00 0. -1.
         23    2    1    2    0    0  0.00000000000E+00  0.00000000000E+00  0.42353017747E+02  0.10369208481E+03  0.94648139656E+02 0.  0.
          2    1    3    3  502    0 -0.43571264382E+02  0.16992259323E+02  0.29105138799E+02  0.55084490206E+02  0.00000000000E+00 0. -1.
         -2    1    3    3    0  502  0.43571264382E+02 -0.16992259323E+02  0.13247878948E+02  0.48607594606E+02  0.00000000000E+00 0.  1.
<mgrwt>
<rscale>  0 0.94648140E+02</rscale>
<asrwt>0</asrwt>
<pdfrwt beam="2">  1        3 0.47183898E-02 0.94648140E+02</pdfrwt>
<pdfrwt beam="1">  1       -3 0.11234239E-01 0.94648140E+02</pdfrwt>
<totfact> 0.31063592E+04</totfact>
</mgrwt>
</event>
<event>
 5    1  0.3858846E+001  0.9127569E+02  0.7546771E-02  0.1299792E+00
          2   -1    0    0  501    0  0.00000000000E+00  0.00000000000E+00  0.79512132022E+01  0.79512132022E+01  0.00000000000E+00 0. -1.
         -2   -1    0    0    0  501 -0.00000000000E+00 -0.00000000000E+00 -0.26194906114E+03  0.26194906114E+03  0.00000000000E+00 0.  1.
         23    2    1    2    0    0  0.00000000000E+00  0.00000000000E+00 -0.25399784794E+03  0.26990027434E+03  0.91275688619E+02 0.  0.
          2    1    3    3  502    0  0.18119622646E+01  0.32640209080E+02 -0.32831968439E+02  0.46331464553E+02  0.00000000000E+00 0. -1.
         -2    1    3    3    0  502 -0.18119622646E+01 -0.32640209080E+02 -0.22116587950E+03  0.22356880979E+03  0.00000000000E+00 0.  1.
<mgrwt>
<rscale>  0 0.91275689E+02</rscale>
<asrwt>0</asrwt>
<pdfrwt beam="1">  1        2 0.12232637E-02 0.91275689E+02</pdfrwt>
<pdfrwt beam="2">  1       -2 0.40299852E-01 0.91275689E+02</pdfrwt>
<totfact> 0.54710636E+04</totfact>
</mgrwt>
</event>
<event>
 5    1  0.3858846E+001  0.9197502E+02  0.7546771E-02  0.1298138E+00
          2   -1    0    0  501    0  0.00000000000E+00  0.00000000000E+00  0.15245253012E+04  0.15245253012E+04  0.00000000000E+00 0. -1.
         -2   -1    0    0    0  501 -0.00000000000E+00 -0.00000000000E+00 -0.13872192686E+01  0.13872192686E+01  0.00000000000E+00 0.  1.
         23    2    1    2    0    0  0.00000000000E+00  0.00000000000E+00  0.15231380819E+04  0.15259125204E+04  0.91975015591E+02 0.  0.
          2    1    3    3  502    0 -0.19778110079E+02 -0.14816887610E+02  0.14050022539E+04  0.14052195726E+04  0.00000000000E+00 0. -1.
         -2    1    3    3    0  502  0.19778110079E+02  0.14816887610E+02  0.11813582801E+03  0.12069294783E+03  0.00000000000E+00 0.  1.
<mgrwt>
<rscale>  0 0.91975016E+02</rscale>
<asrwt>0</asrwt>
<pdfrwt beam="1">  1        2 0.23454101E+00 0.91975016E+02</pdfrwt>
<pdfrwt beam="2">  1       -2 0.21341957E-03 0.91975016E+02</pdfrwt>
<totfact> 0.22915218E+05</totfact>
</mgrwt>
</event>
<event>
 5    1  0.3858846E+001  0.8546664E+02  0.7546771E-02  0.1314217E+00
         -2   -1    0    0    0  501 -0.00000000000E+00  0.00000000000E+00  0.34079234235E+02  0.34079234235E+02  0.00000000000E+00 0.  1.
          2   -1    0    0  501    0  0.00000000000E+00 -0.00000000000E+00 -0.53585029281E+02  0.53585029281E+02  0.00000000000E+00 0. -1.
         23    2    1    2    0    0  0.00000000000E+00  0.00000000000E+00 -0.19505795046E+02  0.87664263516E+02  0.85466642951E+02 0.  0.
          2    1    3    3  502    0 -0.17047217170E+02  0.20220073425E+02 -0.44182008453E+02  0.51492803900E+02  0.00000000000E+00 0. -1.
         -2    1    3    3    0  502  0.17047217170E+02 -0.20220073425E+02  0.24676213408E+02  0.36171459615E+02  0.00000000000E+00 0.  1.
<mgrwt>
<rscale>  0 0.85466643E+02</rscale>
<asrwt>0</asrwt>
<pdfrwt beam="2">  1        2 0.82438506E-02 0.85466643E+02</pdfrwt>
<pdfrwt beam="1">  1       -2 0.52429591E-02 0.85466643E+02</pdfrwt>
<totfact> 0.12352461E+05</totfact>
</mgrwt>
</event>
<event>
 5    1  0.3858846E+001  0.8954607E+02  0.7546771E-02  0.1303955E+00
         -2   -1    0    0    0  501 -0.00000000000E+00  0.00000000000E+00  0.12037138290E+01  0.12037138290E+01  0.00000000000E+00 0.  1.
          2   -1    0    0  501    0  0.00000000000E+00 -0.00000000000E+00 -0.16653664603E+04  0.16653664603E+04  0.00000000000E+00 0. -1.
         23    2    1    2    0    0  0.00000000000E+00  0.00000000000E+00 -0.16641627465E+04  0.16665701741E+04  0.89546069451E+02 0.  0.
          2    1    3    3  502    0 -0.16430338333E+02  0.18668367128E+02 -0.15250026019E+04  0.15252053631E+04  0.00000000000E+00 0. -1.
         -2    1    3    3    0  502  0.16430338333E+02 -0.18668367128E+02 -0.13916014458E+03  0.14136481100E+03  0.00000000000E+00 0.  1.
<mgrwt>
<rscale>  0 0.89546069E+02</rscale>
<asrwt>0</asrwt>
<pdfrwt beam="2">  1        2 0.25621061E+00 0.89546069E+02</pdfrwt>
<pdfrwt beam="1">  1       -2 0.18518646E-03 0.89546069E+02</pdfrwt>
<totfact> 0.23584553E+05</totfact>
</mgrwt>
</event>
<event>
 5    1  0.3858846E+001  0.9503473E+02  0.7546771E-02  0.1291098E+00
          1   -1    0    0  501    0  0.00000000000E+00  0.00000000000E+00  0.88985468062E+02  0.88985468062E+02  0.00000000000E+00 0. -1.
         -1   -1    0    0    0  501 -0.00000000000E+00 -0.00000000000E+00 -0.25373807409E+02  0.25373807409E+02  0.00000000000E+00 0.  1.
         23    2    1    2    0    0  0.00000000000E+00  0.00000000000E+00  0.63611660653E+02  0.11435927547E+03  0.95034733204E+02 0.  0.
          2    1    3    3  502    0  0.10225961938E+02 -0.44254217769E+02  0.48605019299E+02  0.66524085781E+02  0.00000000000E+00 0. -1.
         -2    1    3    3    0  502 -0.10225961938E+02  0.44254217769E+02  0.15006641354E+02  0.47835189690E+02  0.00000000000E+00 0.  1.
<mgrwt>
<rscale>  0 0.95034733E+02</rscale>
<asrwt>0</asrwt>
<pdfrwt beam="1">  1        1 0.13690072E-01 0.95034733E+02</pdfrwt>
<pdfrwt beam="2">  1       -1 0.39036627E-02 0.95034733E+02</pdfrwt>
<totfact> 0.91452062E+04</totfact>
</mgrwt>
</event>
<event>
 5    1  0.3858846E+001  0.9152427E+02  0.7546771E-02  0.1299202E+00
         -1   -1    0    0    0  501 -0.00000000000E+00  0.00000000000E+00  0.31321534715E+01  0.31321534715E+01  0.00000000000E+00 0.  1.
          1   -1    0    0  501    0  0.00000000000E+00 -0.00000000000E+00 -0.66860487256E+03  0.66860487256E+03  0.00000000000E+00 0. -1.
         23    2    1    2    0    0  0.00000000000E+00  0.00000000000E+00 -0.66547271909E+03  0.67173702603E+03  0.91524271592E+02 0.  0.
          2    1    3    3  502    0 -0.18974554327E+02 -0.18276006372E+02 -0.60736556084E+03  0.60793665017E+03  0.00000000000E+00 0. -1.
         -2    1    3    3    0  502  0.18974554327E+02  0.18276006372E+02 -0.58107158250E+02  0.63800375866E+02  0.00000000000E+00 0.  1.
<mgrwt>
<rscale>  0 0.91524272E+02</rscale>
<asrwt>0</asrwt>
<pdfrwt beam="2">  1        1 0.10286230E+00 0.91524272E+02</pdfrwt>
<pdfrwt beam="1">  1       -1 0.48186970E-03 0.91524272E+02</pdfrwt>
<totfact> 0.14073734E+05</totfact>
</mgrwt>
</event>
<event>
 5    1  0.3858846E+001  0.9519225E+02  0.7546771E-02  0.1290744E+00
          4   -1    0    0  501    0  0.00000000000E+00  0.00000000000E+00  0.29841197367E+02  0.29841197367E+02  0.00000000000E+00 0. -1.
         -4   -1    0    0    0  501 -0.00000000000E+00 -0.00000000000E+00 -0.75914889111E+02  0.75914889111E+02  0.00000000000E+00 0.  1.
         23    2    1    2    0    0  0.00000000000E+00  0.00000000000E+00 -0.46073691745E+02  0.10575608648E+03  0.95192251555E+02 0.  0.
          2    1    3    3  502    0 -0.24270973084E+02  0.14764989429E+01  0.22419915645E+02  0.33074352618E+02  0.00000000000E+00 0. -1.
         -2    1    3    3    0  502  0.24270973084E+02 -0.14764989429E+01 -0.68493607390E+02  0.72681733860E+02  0.00000000000E+00 0.  1.
<mgrwt>
<rscale>  0 0.95192252E+02</rscale>
<asrwt>0</asrwt>
<pdfrwt beam="1">  1        4 0.45909535E-02 0.95192252E+02</pdfrwt>
<pdfrwt beam="2">  1       -4 0.11679213E-01 0.95192252E+02</pdfrwt>
<totfact> 0.23218180E+04</totfact>
</mgrwt>
</event>
<event>
 5    1  0.3858846E+001  0.9244700E+02  0.7546771E-02  0.1297032E+00
          1   -1    0    0  501    0  0.00000000000E+00  0.00000000000E+00  0.21582126077E+02  0.21582126077E+02  0.00000000000E+00 0. -1.
         -1   -1    0    0    0  501 -0.00000000000E+00 -0.00000000000E+00 -0.98999147862E+02  0.98999147862E+02  0.00000000000E+00 0.  1.
         23    2    1    2    0    0  0.00000000000E+00  0.00000000000E+00 -0.77417021786E+02  0.12058127394E+03  0.92447002994E+02 0.  0.
          2    1    3    3  502    0  0.25279637311E+02  0.18948111135E+02  0.53021181148E+01  0.32034410166E+02  0.00000000000E+00 0. -1.
         -2    1    3    3    0  502 -0.25279637311E+02 -0.18948111135E+02 -0.82719139900E+02  0.88546863773E+02  0.00000000000E+00 0.  1.
<mgrwt>
<rscale>  0 0.92447003E+02</rscale>
<asrwt>0</asrwt>
<pdfrwt beam="1">  1        1 0.33203271E-02 0.92447003E+02</pdfrwt>
<pdfrwt beam="2">  1       -1 0.15230638E-01 0.92447003E+02</pdfrwt>
<totfact> 0.78666615E+04</totfact>
</mgrwt>
</event>
<event>
 5    1  0.3858846E+001  0.9391913E+02  0.7546771E-02  0.1293629E+00
         -1   -1    0    0    0  501 -0.00000000000E+00  0.00000000000E+00  0.60890496670E+02  0.60890496670E+02  0.00000000000E+00 0.  1.
          1   -1    0    0  501    0  0.00000000000E+00 -0.00000000000E+00 -0.36215841971E+02  0.36215841971E+02  0.00000000000E+00 0. -1.
         23    2    1    2    0    0  0.00000000000E+00  0.00000000000E+00  0.24674654699E+02  0.97106338641E+02  0.93919127017E+02 0.  0.
          2    1    3    3  502    0  0.32602188851E+02  0.33768672992E+02  0.10884431924E+02  0.48183989580E+02  0.00000000000E+00 0. -1.
         -2    1    3    3    0  502 -0.32602188851E+02 -0.33768672992E+02  0.13790222775E+02  0.48922349061E+02  0.00000000000E+00 0.  1.
<mgrwt>
<rscale>  0 0.93919127E+02</rscale>
<asrwt>0</asrwt>
<pdfrwt beam="2">  1        1 0.55716680E-02 0.93919127E+02</pdfrwt>
<pdfrwt beam="1">  1       -1 0.93677687E-02 0.93919127E+02</pdfrwt>
<totfact> 0.82063309E+04</totfact>
</mgrwt>
</event>
<event>
 5    1  0.3858846E+001  0.9081438E+02  0.7546771E-02  0.1300891E+00
         -3   -1    0    0    0  501 -0.00000000000E+00  0.00000000000E+00  0.22687332994E+04  0.22687332994E+04  0.00000000000E+00 0.  1.
          3   -1    0    0  501    0  0.00000000000E+00 -0.00000000000E+00 -0.90879482606E+00  0.90879482606E+00  0.00000000000E+00 0. -1.
         23    2    1    2    0    0  0.00000000000E+00  0.00000000000E+00  0.22678245046E+04  0.22696420943E+04  0.90814383976E+02 0.  0.
          2    1    3    3  502    0  0.79108877718E+01 -0.27257468168E+02  0.20197266576E+04  0.20199260688E+04  0.00000000000E+00 0.  1.
         -2    1    3    3    0  502 -0.79108877718E+01  0.27257468168E+02  0.24809784698E+03  0.24971602550E+03  0.00000000000E+00 0. -1.
<mgrwt>
<rscale>  0 0.90814384E+02</rscale>
<asrwt>0</asrwt>
<pdfrwt beam="2">  1        3 0.13981640E-03 0.90814384E+02</pdfrwt>
<pdfrwt beam="1">  1       -3 0.34903136E+00 0.90814384E+02</pdfrwt>
<totfact> 0.26730374E+03</totfact>
</mgrwt>
</event>
<event>
 5    1  0.3858846E+001  0.7917716E+02  0.7546771E-02  0.1331403E+00
          1   -1    0    0  501    0  0.00000000000E+00  0.00000000000E+00  0.98325488071E+03  0.98325488071E+03  0.00000000000E+00 0. -1.
         -1   -1    0    0    0  501 -0.00000000000E+00 -0.00000000000E+00 -0.15939463907E+01  0.15939463907E+01  0.00000000000E+00 0.  1.
         23    2    1    2    0    0  0.00000000000E+00  0.00000000000E+00  0.98166093432E+03  0.98484882711E+03  0.79177157522E+02 0.  0.
          2    1    3    3  502    0  0.17637511393E+02 -0.11629592237E+02  0.90727599610E+03  0.90752193489E+03  0.00000000000E+00 0. -1.
         -2    1    3    3    0  502 -0.17637511393E+02  0.11629592237E+02  0.74384938229E+02  0.77326892211E+02  0.00000000000E+00 0.  1.
<mgrwt>
<rscale>  0 0.79177158E+02</rscale>
<asrwt>0</asrwt>
<pdfrwt beam="1">  1        1 0.15126950E+00 0.79177158E+02</pdfrwt>
<pdfrwt beam="2">  1       -1 0.24522331E-03 0.79177158E+02</pdfrwt>
<totfact> 0.19786883E+05</totfact>
</mgrwt>
</event>
<event>
 5    1  0.3858846E+001  0.9196775E+02  0.7546771E-02  0.1298155E+00
         -1   -1    0    0    0  501 -0.00000000000E+00  0.00000000000E+00  0.35515556945E+02  0.35515556945E+02  0.00000000000E+00 0.  1.
          1   -1    0    0  501    0  0.00000000000E+00 -0.00000000000E+00 -0.59537755892E+02  0.59537755892E+02  0.00000000000E+00 0. -1.
         23    2    1    2    0    0  0.00000000000E+00  0.00000000000E+00 -0.24022198948E+02  0.95053312837E+02  0.91967745645E+02 0.  0.
          2    1    3    3  502    0 -0.28532473607E+02 -0.16867478478E+02 -0.44953691632E+02  0.55852021196E+02  0.00000000000E+00 0. -1.
         -2    1    3    3    0  502  0.28532473607E+02  0.16867478478E+02  0.20931492684E+02  0.39201291641E+02  0.00000000000E+00 0.  1.
<mgrwt>
<rscale>  0 0.91967746E+02</rscale>
<asrwt>0</asrwt>
<pdfrwt beam="2">  1        1 0.91596546E-02 0.91967746E+02</pdfrwt>
<pdfrwt beam="1">  1       -1 0.54639319E-02 0.91967746E+02</pdfrwt>
<totfact> 0.93975508E+04</totfact>
</mgrwt>
</event>
<event>
 5    1  0.3858846E+001  0.9029072E+02  0.7546771E-02  0.1302149E+00
         -3   -1    0    0    0  501 -0.00000000000E+00  0.00000000000E+00  0.48932646819E+01  0.48932646819E+01  0.00000000000E+00 0.  1.
          3   -1    0    0  501    0  0.00000000000E+00 -0.00000000000E+00 -0.41651197342E+03  0.41651197342E+03  0.00000000000E+00 0. -1.
         23    2    1    2    0    0  0.00000000000E+00  0.00000000000E+00 -0.41161870874E+03  0.42140523810E+03  0.90290715561E+02 0.  0.
          2    1    3    3  502    0 -0.30060317526E+02  0.29946594109E+02 -0.13385532653E+03  0.14041961982E+03  0.00000000000E+00 0. -1.
         -2    1    3    3    0  502  0.30060317526E+02 -0.29946594109E+02 -0.27776338221E+03  0.28098561829E+03  0.00000000000E+00 0.  1.
<mgrwt>
<rscale>  0 0.90290716E+02</rscale>
<asrwt>0</asrwt>
<pdfrwt beam="2">  1        3 0.64078781E-01 0.90290716E+02</pdfrwt>
<pdfrwt beam="1">  1       -3 0.75280976E-03 0.90290716E+02</pdfrwt>
<totfact> 0.20512183E+04</totfact>
</mgrwt>
</event>
<event>
 5    1  0.3858846E+001  0.8917405E+02  0.7546771E-02  0.1304864E+00
          1   -1    0    0  501    0  0.00000000000E+00  0.00000000000E+00  0.78296753743E+01  0.78296753743E+01  0.00000000000E+00 0. -1.
         -1   -1    0    0    0  501 -0.00000000000E+00 -0.00000000000E+00 -0.25390616622E+03  0.25390616622E+03  0.00000000000E+00 0.  1.
         23    2    1    2    0    0  0.00000000000E+00  0.00000000000E+00 -0.24607649085E+03  0.26173584159E+03  0.89174051316E+02 0.  0.
          2    1    3    3  502    0 -0.33923398017E+02  0.18989351215E+02 -0.58960608528E+02  0.70623974333E+02  0.00000000000E+00 0. -1.
         -2    1    3    3    0  502  0.33923398017E+02 -0.18989351215E+02 -0.18711588232E+03  0.19111186726E+03  0.00000000000E+00 0.  1.
<mgrwt>
<rscale>  0 0.89174051E+02</rscale>
<asrwt>0</asrwt>
<pdfrwt beam="1">  1        1 0.12045653E-02 0.89174051E+02</pdfrwt>
<pdfrwt beam="2">  1       -1 0.39062492E-01 0.89174051E+02</pdfrwt>
<totfact> 0.68265634E+04</totfact>
</mgrwt>
</event>
<event>
 5    1  0.3858846E+001  0.8952734E+02  0.7546771E-02  0.1304000E+00
         -1   -1    0    0    0  501 -0.00000000000E+00  0.00000000000E+00  0.38440839398E+03  0.38440839398E+03  0.00000000000E+00 0.  1.
          1   -1    0    0  501    0  0.00000000000E+00 -0.00000000000E+00 -0.52126494457E+01  0.52126494457E+01  0.00000000000E+00 0. -1.
         23    2    1    2    0    0  0.00000000000E+00  0.00000000000E+00  0.37919574453E+03  0.38962104342E+03  0.89527341115E+02 0.  0.
          2    1    3    3  502    0 -0.31528252900E+01 -0.34913293778E+02  0.68451130550E+02  0.76905368234E+02  0.00000000000E+00 0. -1.
         -2    1    3    3    0  502  0.31528252900E+01  0.34913293778E+02  0.31074461398E+03  0.31271567519E+03  0.00000000000E+00 0.  1.
<mgrwt>
<rscale>  0 0.89527341E+02</rscale>
<asrwt>0</asrwt>
<pdfrwt beam="2">  1        1 0.80194637E-03 0.89527341E+02</pdfrwt>
<pdfrwt beam="1">  1       -1 0.59139730E-01 0.89527341E+02</pdfrwt>
<totfact> 0.57011438E+04</totfact>
</mgrwt>
</event>
<event>
 5    1  0.3858846E+001  0.9169410E+02  0.7546771E-02  0.1298800E+00
         -1   -1    0    0    0  501 -0.00000000000E+00  0.00000000000E+00  0.10459033480E+02  0.10459033480E+02  0.00000000000E+00 0.  1.
          1   -1    0    0  501    0  0.00000000000E+00 -0.00000000000E+00 -0.20096998205E+03  0.20096998205E+03  0.00000000000E+00 0. -1.
         23    2    1    2    0    0  0.00000000000E+00  0.00000000000E+00 -0.19051094856E+03  0.21142901553E+03  0.91694095136E+02 0.  0.
          2    1    3    3  502    0  0.20167508946E+02 -0.40724563945E+02 -0.10923050808E+03  0.11830689930E+03  0.00000000000E+00 0. -1.
         -2    1    3    3    0  502 -0.20167508946E+02  0.40724563945E+02 -0.81280440481E+02  0.93122116226E+02  0.00000000000E+00 0.  1.
<mgrwt>
<rscale>  0 0.91694095E+02</rscale>
<asrwt>0</asrwt>
<pdfrwt beam="2">  1        1 0.30918462E-01 0.91694095E+02</pdfrwt>
<pdfrwt beam="1">  1       -1 0.16090819E-02 0.91694095E+02</pdfrwt>
<totfact> 0.11673091E+05</totfact>
</mgrwt>
</event>
<event>
 5    1  0.3858846E+001  0.8782783E+02  0.7546771E-02  0.1308199E+00
          1   -1    0    0  501    0  0.00000000000E+00  0.00000000000E+00  0.12104463883E+04  0.12104463883E+04  0.00000000000E+00 0. -1.
         -1   -1    0    0    0  501 -0.00000000000E+00 -0.00000000000E+00 -0.15931575937E+01  0.15931575937E+01  0.00000000000E+00 0.  1.
         23    2    1    2    0    0  0.00000000000E+00  0.00000000000E+00  0.12088532307E+04  0.12120395459E+04  0.87827828285E+02 0.  0.
          2    1    3    3  502    0 -0.21576169856E+02 -0.24786110763E+02  0.10064239998E+04  0.10069603516E+04  0.00000000000E+00 0. -1.
         -2    1    3    3    0  502  0.21576169856E+02  0.24786110763E+02  0.20242923093E+03  0.20507919428E+03  0.00000000000E+00 0.  1.
<mgrwt>
<rscale>  0 0.87827828E+02</rscale>
<asrwt>0</asrwt>
<pdfrwt beam="1">  1        1 0.18622179E+00 0.87827828E+02</pdfrwt>
<pdfrwt beam="2">  1       -1 0.24510214E-03 0.87827828E+02</pdfrwt>
<totfact> 0.13994638E+05</totfact>
</mgrwt>
</event>
<event>
 5    1  0.3858846E+001  0.9348443E+02  0.7546771E-02  0.1294626E+00
          2   -1    0    0  501    0  0.00000000000E+00  0.00000000000E+00  0.22546314904E+03  0.22546314904E+03  0.00000000000E+00 0.  1.
         -2   -1    0    0    0  501 -0.00000000000E+00 -0.00000000000E+00 -0.96904300317E+01  0.96904300317E+01  0.00000000000E+00 0. -1.
         23    2    1    2    0    0  0.00000000000E+00  0.00000000000E+00  0.21577271901E+03  0.23515357908E+03  0.93484434438E+02 0.  0.
          2    1    3    3  502    0  0.34316441880E+02  0.39839213390E+01  0.28686445300E+02  0.44904364559E+02  0.00000000000E+00 0. -1.
         -2    1    3    3    0  502 -0.34316441880E+02 -0.39839213390E+01  0.18708627371E+03  0.19024921452E+03  0.00000000000E+00 0.  1.
<mgrwt>
<rscale>  0 0.93484434E+02</rscale>
<asrwt>0</asrwt>
<pdfrwt beam="1">  1        2 0.34686634E-01 0.93484434E+02</pdfrwt>
<pdfrwt beam="2">  1       -2 0.14908356E-02 0.93484434E+02</pdfrwt>
<totfact> 0.15107864E+05</totfact>
</mgrwt>
</event>
<event>
 5    1  0.3858846E+001  0.9718668E+02  0.7546771E-02  0.1286326E+00
          2   -1    0    0  501    0  0.00000000000E+00  0.00000000000E+00  0.31206494536E+04  0.31206494536E+04  0.00000000000E+00 0. -1.
         -2   -1    0    0    0  501 -0.00000000000E+00 -0.00000000000E+00 -0.75667348803E+00  0.75667348803E+00  0.00000000000E+00 0.  1.
         23    2    1    2    0    0  0.00000000000E+00  0.00000000000E+00  0.31198927801E+04  0.31214061271E+04  0.97186680301E+02 0.  0.
          2    1    3    3  502    0  0.34936454022E+02 -0.33199061290E+02  0.13604568017E+04  0.13613101934E+04  0.00000000000E+00 0. -1.
         -2    1    3    3    0  502 -0.34936454022E+02  0.33199061290E+02  0.17594359785E+04  0.17600959337E+04  0.00000000000E+00 0.  1.
<mgrwt>
<rscale>  0 0.97186680E+02</rscale>
<asrwt>0</asrwt>
<pdfrwt beam="1">  1        2 0.48008961E+00 0.97186680E+02</pdfrwt>
<pdfrwt beam="2">  1       -2 0.11641380E-03 0.97186680E+02</pdfrwt>
<totfact> 0.77272615E+04</totfact>
</mgrwt>
</event>
<event>
 5    1  0.3858846E+001  0.8251003E+02  0.7546771E-02  0.1322076E+00
          4   -1    0    0  501    0  0.00000000000E+00  0.00000000000E+00  0.66694625762E+02  0.66694625762E+02  0.00000000000E+00 0. -1.
         -4   -1    0    0    0  501 -0.00000000000E+00 -0.00000000000E+00 -0.25518939452E+02  0.25518939452E+02  0.00000000000E+00 0.  1.
         23    2    1    2    0    0  0.00000000000E+00  0.00000000000E+00  0.41175686310E+02  0.92213565213E+02  0.82510026459E+02 0.  0.
          2    1    3    3  502    0  0.16237805590E+02  0.28382890252E+02  0.48700010126E+02  0.58659575312E+02  0.00000000000E+00 0. -1.
         -2    1    3    3    0  502 -0.16237805590E+02 -0.28382890252E+02 -0.75243238163E+01  0.33553989902E+02  0.00000000000E+00 0.  1.
<mgrwt>
<rscale>  0 0.82510026E+02</rscale>
<asrwt>0</asrwt>
<pdfrwt beam="1">  1        4 0.10260712E-01 0.82510026E+02</pdfrwt>
<pdfrwt beam="2">  1       -4 0.39259907E-02 0.82510026E+02</pdfrwt>
<totfact> 0.35259867E+04</totfact>
</mgrwt>
</event>
<event>
 5    1  0.3858846E+001  0.9124148E+02  0.7546771E-02  0.1299873E+00
         -2   -1    0    0    0  501 -0.00000000000E+00  0.00000000000E+00  0.36107925827E+01  0.36107925827E+01  0.00000000000E+00 0.  1.
          2   -1    0    0  501    0  0.00000000000E+00 -0.00000000000E+00 -0.57639746498E+03  0.57639746498E+03  0.00000000000E+00 0. -1.
         23    2    1    2    0    0  0.00000000000E+00  0.00000000000E+00 -0.57278667240E+03  0.58000825757E+03  0.91241475026E+02 0.  0.
          2    1    3    3  502    0  0.24176958977E+02 -0.98203642824E+01 -0.52426919827E+03  0.52491823854E+03  0.00000000000E+00 0. -1.
         -2    1    3    3    0  502 -0.24176958977E+02  0.98203642824E+01 -0.48517474133E+02  0.55090019026E+02  0.00000000000E+00 0.  1.
<mgrwt>
<rscale>  0 0.91241475E+02</rscale>
<asrwt>0</asrwt>
<pdfrwt beam="2">  1        2 0.88676474E-01 0.91241475E+02</pdfrwt>
<pdfrwt beam="1">  1       -2 0.55550692E-03 0.91241475E+02</pdfrwt>
<totfact> 0.22480153E+05</totfact>
</mgrwt>
</event>
<event>
 5    1  0.3858846E+001  0.9078460E+02  0.7546771E-02  0.1300963E+00
         -1   -1    0    0    0  501 -0.00000000000E+00  0.00000000000E+00  0.20219505851E+01  0.20219505851E+01  0.00000000000E+00 0.  1.
          1   -1    0    0  501    0  0.00000000000E+00 -0.00000000000E+00 -0.10190460958E+04  0.10190460958E+04  0.00000000000E+00 0. -1.
         23    2    1    2    0    0  0.00000000000E+00  0.00000000000E+00 -0.10170241452E+04  0.10210680464E+04  0.90784598907E+02 0.  0.
          2    1    3    3  502    0 -0.29211788262E+02  0.34622156291E+02 -0.54118416386E+03  0.54307671787E+03  0.00000000000E+00 0.  1.
         -2    1    3    3    0  502  0.29211788262E+02 -0.34622156291E+02 -0.47583998139E+03  0.47799132855E+03  0.00000000000E+00 0. -1.
<mgrwt>
<rscale>  0 0.90784599E+02</rscale>
<asrwt>0</asrwt>
<pdfrwt beam="2">  1        1 0.15677644E+00 0.90784599E+02</pdfrwt>
<pdfrwt beam="1">  1       -1 0.31106909E-03 0.90784599E+02</pdfrwt>
<totfact> 0.13686182E+05</totfact>
</mgrwt>
</event>
<event>
 5    1  0.3858846E+001  0.9209166E+02  0.7546771E-02  0.1297864E+00
         -2   -1    0    0    0  501 -0.00000000000E+00  0.00000000000E+00  0.21103395732E+02  0.21103395732E+02  0.00000000000E+00 0.  1.
          2   -1    0    0  501    0  0.00000000000E+00 -0.00000000000E+00 -0.10046810876E+03  0.10046810876E+03  0.00000000000E+00 0. -1.
         23    2    1    2    0    0  0.00000000000E+00  0.00000000000E+00 -0.79364713030E+02  0.12157150449E+03  0.92091655596E+02 0.  0.
          2    1    3    3  502    0 -0.23964727988E+02 -0.37554272372E+02 -0.24310721973E+02  0.50750790770E+02  0.00000000000E+00 0. -1.
         -2    1    3    3    0  502  0.23964727988E+02  0.37554272372E+02 -0.55053991057E+02  0.70820713723E+02  0.00000000000E+00 0.  1.
<mgrwt>
<rscale>  0 0.92091656E+02</rscale>
<asrwt>0</asrwt>
<pdfrwt beam="2">  1        2 0.15456632E-01 0.92091656E+02</pdfrwt>
<pdfrwt beam="1">  1       -2 0.32466763E-02 0.92091656E+02</pdfrwt>
<totfact> 0.11951557E+05</totfact>
</mgrwt>
</event>
<event>
 5    1  0.3858846E+001  0.9151896E+02  0.7546771E-02  0.1299214E+00
         -2   -1    0    0    0  501 -0.00000000000E+00  0.00000000000E+00  0.11219883111E+01  0.11219883111E+01  0.00000000000E+00 0.  1.
          2   -1    0    0  501    0  0.00000000000E+00 -0.00000000000E+00 -0.18662672006E+04  0.18662672006E+04  0.00000000000E+00 0. -1.
         23    2    1    2    0    0  0.00000000000E+00  0.00000000000E+00 -0.18651452123E+04  0.18673891889E+04  0.91518959446E+02 0.  0.
          2    1    3    3  502    0 -0.25061016122E+02  0.36682052083E+02 -0.11563731366E+04  0.11572261916E+04  0.00000000000E+00 0. -1.
         -2    1    3    3    0  502  0.25061016122E+02 -0.36682052083E+02 -0.70877207568E+03  0.71016299731E+03  0.00000000000E+00 0.  1.
<mgrwt>
<rscale>  0 0.91518959E+02</rscale>
<asrwt>0</asrwt>
<pdfrwt beam="2">  1        2 0.28711734E+00 0.91518959E+02</pdfrwt>
<pdfrwt beam="1">  1       -2 0.17261400E-03 0.91518959E+02</pdfrwt>
<totfact> 0.20667867E+05</totfact>
</mgrwt>
</event>
<event>
 5    1  0.3858846E+001  0.7727224E+02  0.7546771E-02  0.1336976E+00
         -3   -1    0    0    0  501 -0.00000000000E+00  0.00000000000E+00  0.33583111077E+03  0.33583111077E+03  0.00000000000E+00 0.  1.
          3   -1    0    0  501    0  0.00000000000E+00 -0.00000000000E+00 -0.44449422572E+01  0.44449422572E+01  0.00000000000E+00 0. -1.
         23    2    1    2    0    0  0.00000000000E+00  0.00000000000E+00  0.33138616851E+03  0.34027605303E+03  0.77272243284E+02 0.  0.
          2    1    3    3  502    0  0.11800945257E+02  0.18154539703E+02  0.24784745108E+02  0.32910989211E+02  0.00000000000E+00 0. -1.
         -2    1    3    3    0  502 -0.11800945257E+02 -0.18154539703E+02  0.30660142341E+03  0.30736506382E+03  0.00000000000E+00 0.  1.
<mgrwt>
<rscale>  0 0.77272243E+02</rscale>
<asrwt>0</asrwt>
<pdfrwt beam="2">  1        3 0.68383753E-03 0.77272243E+02</pdfrwt>
<pdfrwt beam="1">  1       -3 0.51666305E-01 0.77272243E+02</pdfrwt>
<totfact> 0.34962396E+04</totfact>
</mgrwt>
</event>
<event>
 5    1  0.3858846E+001  0.9078782E+02  0.7546771E-02  0.1300955E+00
          3   -1    0    0  501    0  0.00000000000E+00  0.00000000000E+00  0.18790801557E+03  0.18790801557E+03  0.00000000000E+00 0. -1.
         -3   -1    0    0    0  501 -0.00000000000E+00 -0.00000000000E+00 -0.10966041657E+02  0.10966041657E+02  0.00000000000E+00 0.  1.
         23    2    1    2    0    0  0.00000000000E+00  0.00000000000E+00  0.17694197392E+03  0.19887405723E+03  0.90787821354E+02 0.  0.
          2    1    3    3  502    0  0.33243579208E+02  0.17486639206E+02  0.32636400727E+02  0.49759951383E+02  0.00000000000E+00 0. -1.
         -2    1    3    3    0  502 -0.33243579208E+02 -0.17486639206E+02  0.14430557319E+03  0.14911410585E+03  0.00000000000E+00 0.  1.
<mgrwt>
<rscale>  0 0.90787821E+02</rscale>
<asrwt>0</asrwt>
<pdfrwt beam="1">  1        3 0.28908923E-01 0.90787821E+02</pdfrwt>
<pdfrwt beam="2">  1       -3 0.16870835E-02 0.90787821E+02</pdfrwt>
<totfact> 0.28887971E+04</totfact>
</mgrwt>
</event>
<event>
 5    1  0.3858846E+001  0.9056838E+02  0.7546771E-02  0.1301481E+00
         -2   -1    0    0    0  501 -0.00000000000E+00  0.00000000000E+00  0.17928820383E+01  0.17928820383E+01  0.00000000000E+00 0.  1.
          2   -1    0    0  501    0  0.00000000000E+00 -0.00000000000E+00 -0.11437773591E+04  0.11437773591E+04  0.00000000000E+00 0. -1.
         23    2    1    2    0    0  0.00000000000E+00  0.00000000000E+00 -0.11419844770E+04  0.11455702411E+04  0.90568380419E+02 0.  0.
          2    1    3    3  502    0 -0.20241191152E+02 -0.90976225368E+01 -0.10702843184E+04  0.10705143599E+04  0.00000000000E+00 0. -1.
         -2    1    3    3    0  502  0.20241191152E+02  0.90976225368E+01 -0.71700158639E+02  0.75055881208E+02  0.00000000000E+00 0.  1.
<mgrwt>
<rscale>  0 0.90568380E+02</rscale>
<asrwt>0</asrwt>
<pdfrwt beam="2">  1        2 0.17596588E+00 0.90568380E+02</pdfrwt>
<pdfrwt beam="1">  1       -2 0.27582780E-03 0.90568380E+02</pdfrwt>
<totfact> 0.25416536E+05</totfact>
</mgrwt>
</event>
<event>
 5    1  0.3858846E+001  0.9870592E+02  0.7546771E-02  0.1283041E+00
         -2   -1    0    0    0  501 -0.00000000000E+00  0.00000000000E+00  0.56072228486E+02  0.56072228486E+02  0.00000000000E+00 0.  1.
          2   -1    0    0  501    0  0.00000000000E+00 -0.00000000000E+00 -0.43438874851E+02  0.43438874851E+02  0.00000000000E+00 0. -1.
         23    2    1    2    0    0  0.00000000000E+00  0.00000000000E+00  0.12633353635E+02  0.99511103338E+02  0.98705917064E+02 0.  0.
          2    1    3    3  502    0  0.72561194525E+01  0.48774230555E+02  0.42659547239E+01  0.49495203863E+02  0.00000000000E+00 0. -1.
         -2    1    3    3    0  502 -0.72561194525E+01 -0.48774230555E+02  0.83673989109E+01  0.50015899475E+02  0.00000000000E+00 0.  1.
<mgrwt>
<rscale>  0 0.98705917E+02</rscale>
<asrwt>0</asrwt>
<pdfrwt beam="2">  1        2 0.66829038E-02 0.98705917E+02</pdfrwt>
<pdfrwt beam="1">  1       -2 0.86264968E-02 0.98705917E+02</pdfrwt>
<totfact> 0.77380596E+04</totfact>
</mgrwt>
</event>
<event>
 5    1  0.3858846E+001  0.8833184E+02  0.7546771E-02  0.1306942E+00
          2   -1    0    0  501    0  0.00000000000E+00  0.00000000000E+00  0.11783769410E+04  0.11783769410E+04  0.00000000000E+00 0. -1.
         -2   -1    0    0    0  501 -0.00000000000E+00 -0.00000000000E+00 -0.16553519454E+01  0.16553519454E+01  0.00000000000E+00 0.  1.
         23    2    1    2    0    0  0.00000000000E+00  0.00000000000E+00  0.11767215891E+04  0.11800322930E+04  0.88331841639E+02 0.  0.
          2    1    3    3  502    0  0.39895453775E+02 -0.10899939573E+02  0.79539322462E+03  0.79646772545E+03  0.00000000000E+00 0. -1.
         -2    1    3    3    0  502 -0.39895453775E+02  0.10899939573E+02  0.38132836448E+03  0.38356456754E+03  0.00000000000E+00 0.  1.
<mgrwt>
<rscale>  0 0.88331842E+02</rscale>
<asrwt>0</asrwt>
<pdfrwt beam="1">  1        2 0.18128809E+00 0.88331842E+02</pdfrwt>
<pdfrwt beam="2">  1       -2 0.25467047E-03 0.88331842E+02</pdfrwt>
<totfact> 0.27079493E+05</totfact>
</mgrwt>
</event>
<event>
 5    1  0.3858846E+001  0.9033116E+02  0.7546771E-02  0.1302052E+00
         -2   -1    0    0    0  501 -0.00000000000E+00  0.00000000000E+00  0.77139481902E+01  0.77139481902E+01  0.00000000000E+00 0.  1.
          2   -1    0    0  501    0  0.00000000000E+00 -0.00000000000E+00 -0.26444686763E+03  0.26444686763E+03  0.00000000000E+00 0. -1.
         23    2    1    2    0    0  0.00000000000E+00  0.00000000000E+00 -0.25673291944E+03  0.27216081582E+03  0.90331155997E+02 0.  0.
          2    1    3    3  502    0 -0.16944672916E+02 -0.24059580990E+02 -0.23159783925E+03  0.23345994201E+03  0.00000000000E+00 0. -1.
         -2    1    3    3    0  502  0.16944672916E+02  0.24059580990E+02 -0.25135080191E+02  0.38700873812E+02  0.00000000000E+00 0.  1.
<mgrwt>
<rscale>  0 0.90331156E+02</rscale>
<asrwt>0</asrwt>
<pdfrwt beam="2">  1        2 0.40684134E-01 0.90331156E+02</pdfrwt>
<pdfrwt beam="1">  1       -2 0.11867613E-02 0.90331156E+02</pdfrwt>
<totfact> 0.17572406E+05</totfact>
</mgrwt>
</event>
<event>
 5    1  0.3858846E+001  0.9162086E+02  0.7546771E-02  0.1298973E+00
          1   -1    0    0  501    0  0.00000000000E+00  0.00000000000E+00  0.15975739912E+02  0.15975739912E+02  0.00000000000E+00 0. -1.
         -1   -1    0    0    0  501 -0.00000000000E+00 -0.00000000000E+00 -0.13136139150E+03  0.13136139150E+03  0.00000000000E+00 0.  1.
         23    2    1    2    0    0  0.00000000000E+00  0.00000000000E+00 -0.11538565159E+03  0.14733713141E+03  0.91620858436E+02 0.  0.
          2    1    3    3  502    0 -0.31203777764E+02  0.30511191186E+02 -0.35295093749E+02  0.56127998157E+02  0.00000000000E+00 0. -1.
         -2    1    3    3    0  502  0.31203777764E+02 -0.30511191186E+02 -0.80090557838E+02  0.91209133255E+02  0.00000000000E+00 0.  1.
<mgrwt>
<rscale>  0 0.91620858E+02</rscale>
<asrwt>0</asrwt>
<pdfrwt beam="1">  1        1 0.24578062E-02 0.91620858E+02</pdfrwt>
<pdfrwt beam="2">  1       -1 0.20209445E-01 0.91620858E+02</pdfrwt>
<totfact> 0.76087603E+04</totfact>
</mgrwt>
</event>
<event>
 5    1  0.3858846E+001  0.9528096E+02  0.7546771E-02  0.1290545E+00
         -3   -1    0    0    0  501 -0.00000000000E+00  0.00000000000E+00  0.19318160055E+02  0.19318160055E+02  0.00000000000E+00 0.  1.
          3   -1    0    0  501    0  0.00000000000E+00 -0.00000000000E+00 -0.11748611408E+03  0.11748611408E+03  0.00000000000E+00 0. -1.
         23    2    1    2    0    0  0.00000000000E+00  0.00000000000E+00 -0.98167954022E+02  0.13680427413E+03  0.95280964646E+02 0.  0.
          2    1    3    3  502    0  0.33090393480E+02 -0.16753328172E+02 -0.92013332089E+02  0.99207365794E+02  0.00000000000E+00 0. -1.
         -2    1    3    3    0  502 -0.33090393480E+02  0.16753328172E+02 -0.61546219326E+01  0.37596908339E+02  0.00000000000E+00 0.  1.
<mgrwt>
<rscale>  0 0.95280965E+02</rscale>
<asrwt>0</asrwt>
<pdfrwt beam="2">  1        3 0.18074787E-01 0.95280965E+02</pdfrwt>
<pdfrwt beam="1">  1       -3 0.29720246E-02 0.95280965E+02</pdfrwt>
<totfact> 0.28504548E+04</totfact>
</mgrwt>
</event>
<event>
 5    1  0.3858846E+001  0.8138568E+02  0.7546771E-02  0.1325164E+00
         -3   -1    0    0    0  501 -0.00000000000E+00  0.00000000000E+00  0.77584489564E+02  0.77584489564E+02  0.00000000000E+00 0.  1.
          3   -1    0    0  501    0  0.00000000000E+00 -0.00000000000E+00 -0.21343274475E+02  0.21343274475E+02  0.00000000000E+00 0. -1.
         23    2    1    2    0    0  0.00000000000E+00  0.00000000000E+00  0.56241215090E+02  0.98927764039E+02  0.81385675785E+02 0.  0.
          2    1    3    3  502    0 -0.38536011420E+02  0.78342911167E+00  0.12259330058E+02  0.40446620512E+02  0.00000000000E+00 0. -1.
         -2    1    3    3    0  502  0.38536011420E+02 -0.78342911167E+00  0.43981885031E+02  0.58481143527E+02  0.00000000000E+00 0.  1.
<mgrwt>
<rscale>  0 0.81385676E+02</rscale>
<asrwt>0</asrwt>
<pdfrwt beam="2">  1        3 0.32835807E-02 0.81385676E+02</pdfrwt>
<pdfrwt beam="1">  1       -3 0.11936075E-01 0.81385676E+02</pdfrwt>
<totfact> 0.47229843E+04</totfact>
</mgrwt>
</event>
<event>
 5    1  0.3858846E+001  0.9237441E+02  0.7546771E-02  0.1297201E+00
          2   -1    0    0  501    0  0.00000000000E+00  0.00000000000E+00  0.70780836602E+02  0.70780836602E+02  0.00000000000E+00 0. -1.
         -2   -1    0    0    0  501 -0.00000000000E+00 -0.00000000000E+00 -0.30138918340E+02  0.30138918340E+02  0.00000000000E+00 0.  1.
         23    2    1    2    0    0  0.00000000000E+00  0.00000000000E+00  0.40641918261E+02  0.10091975494E+03  0.92374408889E+02 0.  0.
          2    1    3    3  502    0 -0.15335997654E+02  0.28989979225E+02  0.55850918288E+02  0.64768331715E+02  0.00000000000E+00 0. -1.
         -2    1    3    3    0  502  0.15335997654E+02 -0.28989979225E+02 -0.15209000027E+02  0.36151423227E+02  0.00000000000E+00 0.  1.
<mgrwt>
<rscale>  0 0.92374409E+02</rscale>
<asrwt>0</asrwt>
<pdfrwt beam="1">  1        2 0.10889359E-01 0.92374409E+02</pdfrwt>
<pdfrwt beam="2">  1       -2 0.46367567E-02 0.92374409E+02</pdfrwt>
<totfact> 0.10697684E+05</totfact>
</mgrwt>
</event>
<event>
 5    1  0.3858846E+001  0.9128497E+02  0.7546771E-02  0.1299769E+00
          1   -1    0    0  501    0  0.00000000000E+00  0.00000000000E+00  0.73520580587E+03  0.73520580587E+03  0.00000000000E+00 0. -1.
         -1   -1    0    0    0  501 -0.00000000000E+00 -0.00000000000E+00 -0.28335420037E+01  0.28335420037E+01  0.00000000000E+00 0.  1.
         23    2    1    2    0    0  0.00000000000E+00  0.00000000000E+00  0.73237226386E+03  0.73803934787E+03  0.91284972088E+02 0.  0.
          2    1    3    3  502    0  0.41091844568E+00  0.45354218382E+02  0.32491097727E+03  0.32806145328E+03  0.00000000000E+00 0.  1.
         -2    1    3    3    0  502 -0.41091844568E+00 -0.45354218382E+02  0.40746128660E+03  0.40997789459E+03  0.00000000000E+00 0. -1.
<mgrwt>
<rscale>  0 0.91284972E+02</rscale>
<asrwt>0</asrwt>
<pdfrwt beam="1">  1        1 0.11310843E+00 0.91284972E+02</pdfrwt>
<pdfrwt beam="2">  1       -1 0.43593013E-03 0.91284972E+02</pdfrwt>
<totfact> 0.14157769E+05</totfact>
</mgrwt>
</event>
<event>
 5    1  0.3858846E+001  0.9473634E+02  0.7546771E-02  0.1291771E+00
         -1   -1    0    0    0  501 -0.00000000000E+00  0.00000000000E+00  0.28791083281E+01  0.28791083281E+01  0.00000000000E+00 0.  1.
          1   -1    0    0  501    0  0.00000000000E+00 -0.00000000000E+00 -0.77931888135E+03  0.77931888135E+03  0.00000000000E+00 0. -1.
         23    2    1    2    0    0  0.00000000000E+00  0.00000000000E+00 -0.77643977302E+03  0.78219798968E+03  0.94736338995E+02 0.  0.
          2    1    3    3  502    0  0.29634857306E+02 -0.16828469065E+01 -0.69300806094E+03  0.69364344534E+03  0.00000000000E+00 0. -1.
         -2    1    3    3    0  502 -0.29634857306E+02  0.16828469065E+01 -0.83431712085E+02  0.88554544337E+02  0.00000000000E+00 0.  1.
<mgrwt>
<rscale>  0 0.94736339E+02</rscale>
<asrwt>0</asrwt>
<pdfrwt beam="2">  1        1 0.11989522E+00 0.94736339E+02</pdfrwt>
<pdfrwt beam="1">  1       -1 0.44293971E-03 0.94736339E+02</pdfrwt>
<totfact> 0.12793114E+05</totfact>
</mgrwt>
</event>
<event>
 5    1  0.3858846E+001  0.8797394E+02  0.7546771E-02  0.1307834E+00
          2   -1    0    0  501    0  0.00000000000E+00  0.00000000000E+00  0.66610859078E+03  0.66610859078E+03  0.00000000000E+00 0.  1.
         -2   -1    0    0    0  501 -0.00000000000E+00 -0.00000000000E+00 -0.29047117908E+01  0.29047117908E+01  0.00000000000E+00 0. -1.
         23    2    1    2    0    0  0.00000000000E+00  0.00000000000E+00  0.66320387899E+03  0.66901330257E+03  0.87973938813E+02 0.  0.
          2    1    3    3  502    0  0.37819159690E+01  0.43820043958E+02  0.32707516548E+03  0.33001918583E+03  0.00000000000E+00 0. -1.
         -2    1    3    3    0  502 -0.37819159690E+01 -0.43820043958E+02  0.33612871351E+03  0.33899411675E+03  0.00000000000E+00 0.  1.
<mgrwt>
<rscale>  0 0.87973939E+02</rscale>
<asrwt>0</asrwt>
<pdfrwt beam="1">  1        2 0.10247812E+00 0.87973939E+02</pdfrwt>
<pdfrwt beam="2">  1       -2 0.44687927E-03 0.87973939E+02</pdfrwt>
<totfact> 0.25745006E+05</totfact>
</mgrwt>
</event>
<event>
 5    1  0.3858846E+001  0.8788313E+02  0.7546771E-02  0.1308060E+00
         -3   -1    0    0    0  501 -0.00000000000E+00  0.00000000000E+00  0.45793730845E+03  0.45793730845E+03  0.00000000000E+00 0.  1.
          3   -1    0    0  501    0  0.00000000000E+00 -0.00000000000E+00 -0.42164315258E+01  0.42164315258E+01  0.00000000000E+00 0. -1.
         23    2    1    2    0    0  0.00000000000E+00  0.00000000000E+00  0.45372087693E+03  0.46215373998E+03  0.87883133858E+02 0.  0.
          2    1    3    3  502    0 -0.11162443573E+02 -0.27434985018E+02  0.56167614526E+02  0.63498657238E+02  0.00000000000E+00 0. -1.
         -2    1    3    3    0  502  0.11162443573E+02  0.27434985018E+02  0.39755326240E+03  0.39865508274E+03  0.00000000000E+00 0.  1.
<mgrwt>
<rscale>  0 0.87883134E+02</rscale>
<asrwt>0</asrwt>
<pdfrwt beam="2">  1        3 0.64868214E-03 0.87883134E+02</pdfrwt>
<pdfrwt beam="1">  1       -3 0.70451854E-01 0.87883134E+02</pdfrwt>
<totfact> 0.20786286E+04</totfact>
</mgrwt>
</event>
<event>
 5    1  0.3858846E+001  0.9138887E+02  0.7546771E-02  0.1299523E+00
         -1   -1    0    0    0  501 -0.00000000000E+00  0.00000000000E+00  0.65632182636E+01  0.65632182636E+01  0.00000000000E+00 0.  1.
          1   -1    0    0  501    0  0.00000000000E+00 -0.00000000000E+00 -0.31813379351E+03  0.31813379351E+03  0.00000000000E+00 0. -1.
         23    2    1    2    0    0  0.00000000000E+00  0.00000000000E+00 -0.31157057525E+03  0.32469701178E+03  0.91388872930E+02 0.  0.
          2    1    3    3  502    0 -0.26053120456E+02  0.35132361482E+02 -0.20277703625E+03  0.20744053205E+03  0.00000000000E+00 0. -1.
         -2    1    3    3    0  502  0.26053120456E+02 -0.35132361482E+02 -0.10879353900E+03  0.11725647973E+03  0.00000000000E+00 0.  1.
<mgrwt>
<rscale>  0 0.91388873E+02</rscale>
<asrwt>0</asrwt>
<pdfrwt beam="2">  1        1 0.48943659E-01 0.91388873E+02</pdfrwt>
<pdfrwt beam="1">  1       -1 0.10097259E-02 0.91388873E+02</pdfrwt>
<totfact> 0.12875052E+05</totfact>
</mgrwt>
</event>
<event>
 5    1  0.3858846E+001  0.9162920E+02  0.7546771E-02  0.1298954E+00
         -1   -1    0    0    0  501 -0.00000000000E+00  0.00000000000E+00  0.59891032241E+01  0.59891032241E+01  0.00000000000E+00 0.  1.
          1   -1    0    0  501    0  0.00000000000E+00 -0.00000000000E+00 -0.35046609632E+03  0.35046609632E+03  0.00000000000E+00 0. -1.
         23    2    1    2    0    0  0.00000000000E+00  0.00000000000E+00 -0.34447699310E+03  0.35645519955E+03  0.91629201184E+02 0.  0.
          2    1    3    3  502    0 -0.97550460540E+01  0.36390810332E+02 -0.70830086478E+02  0.80226885460E+02  0.00000000000E+00 0.  1.
         -2    1    3    3    0  502  0.97550460540E+01 -0.36390810332E+02 -0.27364690662E+03  0.27622831409E+03  0.00000000000E+00 0. -1.
<mgrwt>
<rscale>  0 0.91629201E+02</rscale>
<asrwt>0</asrwt>
<pdfrwt beam="2">  1        1 0.53917864E-01 0.91629201E+02</pdfrwt>
<pdfrwt beam="1">  1       -1 0.92140044E-03 0.91629201E+02</pdfrwt>
<totfact> 0.13013843E+05</totfact>
</mgrwt>
</event>
<event>
 5    1  0.3858846E+001  0.9173169E+02  0.7546771E-02  0.1298712E+00
         -4   -1    0    0    0  501 -0.00000000000E+00  0.00000000000E+00  0.14231599632E+03  0.14231599632E+03  0.00000000000E+00 0. -1.
          4   -1    0    0  501    0  0.00000000000E+00 -0.00000000000E+00 -0.14781723521E+02  0.14781723521E+02  0.00000000000E+00 0.  1.
         23    2    1    2    0    0  0.00000000000E+00  0.00000000000E+00  0.12753427280E+03  0.15709771984E+03  0.91731689405E+02 0.  0.
          2    1    3    3  502    0 -0.32424817989E+02  0.31887268497E+02  0.53561979443E+02  0.70264161247E+02  0.00000000000E+00 0. -1.
         -2    1    3    3    0  502  0.32424817989E+02 -0.31887268497E+02  0.73972293356E+02  0.86833558594E+02  0.00000000000E+00 0.  1.
<mgrwt>
<rscale>  0 0.91731689E+02</rscale>
<asrwt>0</asrwt>
<pdfrwt beam="2">  1        4 0.22741114E-02 0.91731689E+02</pdfrwt>
<pdfrwt beam="1">  1       -4 0.21894768E-01 0.91731689E+02</pdfrwt>
<totfact> 0.22943628E+04</totfact>
</mgrwt>
</event>
<event>
 5    1  0.3858846E+001  0.1023913E+03  0.7546771E-02  0.1275346E+00
          2   -1    0    0  501    0  0.00000000000E+00  0.00000000000E+00  0.32243605277E+04  0.32243605277E+04  0.00000000000E+00 0. -1.
         -2   -1    0    0    0  501 -0.00000000000E+00 -0.00000000000E+00 -0.81287330600E+00  0.81287330600E+00  0.00000000000E+00 0.  1.
         23    2    1    2    0    0  0.00000000000E+00  0.00000000000E+00  0.32235476544E+04  0.32251734010E+04  0.10239133951E+03 0.  0.
          2    1    3    3  502    0 -0.36424671591E+02 -0.32237182689E+02  0.21147684029E+04  0.21153277265E+04  0.00000000000E+00 0. -1.
         -2    1    3    3    0  502  0.36424671591E+02  0.32237182689E+02  0.11087792514E+04  0.11098456744E+04  0.00000000000E+00 0.  1.
<mgrwt>
<rscale>  0 0.10239134E+03</rscale>
<asrwt>0</asrwt>
<pdfrwt beam="1">  1        2 0.49604523E+00 0.10239134E+03</pdfrwt>
<pdfrwt beam="2">  1       -2 0.12506001E-03 0.10239134E+03</pdfrwt>
<totfact> 0.60972560E+04</totfact>
</mgrwt>
</event>
<event>
 5    1  0.3858846E+001  0.9458129E+02  0.7546771E-02  0.1292122E+00
         -1   -1    0    0    0  501 -0.00000000000E+00  0.00000000000E+00  0.10148844595E+01  0.10148844595E+01  0.00000000000E+00 0.  1.
          1   -1    0    0  501    0  0.00000000000E+00 -0.00000000000E+00 -0.22036056481E+04  0.22036056481E+04  0.00000000000E+00 0. -1.
         23    2    1    2    0    0  0.00000000000E+00  0.00000000000E+00 -0.22025907636E+04  0.22046205325E+04  0.94581290479E+02 0.  0.
          2    1    3    3  502    0  0.23439516269E+02 -0.14792312277E+02 -0.19944332761E+04  0.19946258587E+04  0.00000000000E+00 0. -1.
         -2    1    3    3    0  502 -0.23439516269E+02  0.14792312277E+02 -0.20815748754E+03  0.20999467385E+03  0.00000000000E+00 0.  1.
<mgrwt>
<rscale>  0 0.94581290E+02</rscale>
<asrwt>0</asrwt>
<pdfrwt beam="2">  1        1 0.33901336E+00 0.94581290E+02</pdfrwt>
<pdfrwt beam="1">  1       -1 0.15613740E-03 0.94581290E+02</pdfrwt>
<totfact> 0.61574365E+04</totfact>
</mgrwt>
</event>
<event>
 5    1  0.3858846E+001  0.9224809E+02  0.7546771E-02  0.1297497E+00
          1   -1    0    0  501    0  0.00000000000E+00  0.00000000000E+00  0.83632987824E+03  0.83632987824E+03  0.00000000000E+00 0. -1.
         -1   -1    0    0    0  501 -0.00000000000E+00 -0.00000000000E+00 -0.25437659862E+01  0.25437659862E+01  0.00000000000E+00 0.  1.
         23    2    1    2    0    0  0.00000000000E+00  0.00000000000E+00  0.83378611226E+03  0.83887364423E+03  0.92248089357E+02 0.  0.
          2    1    3    3  502    0  0.19670984386E+02 -0.22457566806E+02  0.73661509377E+03  0.73721983580E+03  0.00000000000E+00 0. -1.
         -2    1    3    3    0  502 -0.19670984386E+02  0.22457566806E+02  0.97171018491E+02  0.10165380843E+03  0.00000000000E+00 0.  1.
<mgrwt>
<rscale>  0 0.92248089E+02</rscale>
<asrwt>0</asrwt>
<pdfrwt beam="1">  1        1 0.12866592E+00 0.92248089E+02</pdfrwt>
<pdfrwt beam="2">  1       -1 0.39134928E-03 0.92248089E+02</pdfrwt>
<totfact> 0.13637965E+05</totfact>
</mgrwt>
</event>
<event>
 5    1  0.3858846E+001  0.8915592E+02  0.7546771E-02  0.1304909E+00
          2   -1    0    0  501    0  0.00000000000E+00  0.00000000000E+00  0.16348640549E+03  0.16348640549E+03  0.00000000000E+00 0. -1.
         -2   -1    0    0    0  501 -0.00000000000E+00 -0.00000000000E+00 -0.12155106417E+02  0.12155106417E+02  0.00000000000E+00 0.  1.
         23    2    1    2    0    0  0.00000000000E+00  0.00000000000E+00  0.15133129908E+03  0.17564151191E+03  0.89155923112E+02 0.  0.
          2    1    3    3  502    0 -0.43860064481E+02  0.64997709608E+01  0.84745496504E+02  0.95643878301E+02  0.00000000000E+00 0. -1.
         -2    1    3    3    0  502  0.43860064481E+02 -0.64997709608E+01  0.66585802572E+02  0.79997633608E+02  0.00000000000E+00 0.  1.
<mgrwt>
<rscale>  0 0.89155923E+02</rscale>
<asrwt>0</asrwt>
<pdfrwt beam="1">  1        2 0.25151753E-01 0.89155923E+02</pdfrwt>
<pdfrwt beam="2">  1       -2 0.18700165E-02 0.89155923E+02</pdfrwt>
<totfact> 0.15299444E+05</totfact>
</mgrwt>
</event>
<event>
 5    1  0.3858846E+001  0.8961670E+02  0.7546771E-02  0.1303783E+00
         -2   -1    0    0    0  501 -0.00000000000E+00  0.00000000000E+00  0.33227765096E+01  0.33227765096E+01  0.00000000000E+00 0.  1.
          2   -1    0    0  501    0  0.00000000000E+00 -0.00000000000E+00 -0.60425017085E+03  0.60425017085E+03  0.00000000000E+00 0. -1.
         23    2    1    2    0    0  0.00000000000E+00  0.00000000000E+00 -0.60092739434E+03  0.60757294736E+03  0.89616700979E+02 0.  0.
          2    1    3    3  502    0  0.34218226765E+01 -0.35675296371E+02 -0.11812262296E+03  0.12343982217E+03  0.00000000000E+00 0.  1.
         -2    1    3    3    0  502 -0.34218226765E+01  0.35675296371E+02 -0.48280477137E+03  0.48413312519E+03  0.00000000000E+00 0. -1.
<mgrwt>
<rscale>  0 0.89616701E+02</rscale>
<asrwt>0</asrwt>
<pdfrwt beam="2">  1        2 0.92961649E-01 0.89616701E+02</pdfrwt>
<pdfrwt beam="1">  1       -2 0.51119592E-03 0.89616701E+02</pdfrwt>
<totfact> 0.23893963E+05</totfact>
</mgrwt>
</event>
<event>
 5    1  0.3858846E+001  0.9368089E+02  0.7546771E-02  0.1294175E+00
         -2   -1    0    0    0  501 -0.00000000000E+00  0.00000000000E+00  0.18579901783E+02  0.18579901783E+02  0.00000000000E+00 0.  1.
          2   -1    0    0  501    0  0.00000000000E+00 -0.00000000000E+00 -0.11808604194E+03  0.11808604194E+03  0.00000000000E+00 0. -1.
         23    2    1    2    0    0  0.00000000000E+00  0.00000000000E+00 -0.99506140161E+02  0.13666594373E+03  0.93680885164E+02 0.  0.
          2    1    3    3  502    0 -0.73912283243E+01  0.44773243141E+02 -0.66687842010E+02  0.80663137984E+02  0.00000000000E+00 0. -1.
         -2    1    3    3    0  502  0.73912283243E+01 -0.44773243141E+02 -0.32818298152E+02  0.56002805743E+02  0.00000000000E+00 0.  1.
<mgrwt>
<rscale>  0 0.93680885E+02</rscale>
<asrwt>0</asrwt>
<pdfrwt beam="2">  1        2 0.18167083E-01 0.93680885E+02</pdfrwt>
<pdfrwt beam="1">  1       -2 0.28584465E-02 0.93680885E+02</pdfrwt>
<totfact> 0.11994527E+05</totfact>
</mgrwt>
</event>
<event>
 5    1  0.3858846E+001  0.9221705E+02  0.7546771E-02  0.1297570E+00
          1   -1    0    0  501    0  0.00000000000E+00  0.00000000000E+00  0.22032828109E+02  0.22032828109E+02  0.00000000000E+00 0. -1.
         -1   -1    0    0    0  501 -0.00000000000E+00 -0.00000000000E+00 -0.96492204242E+02  0.96492204242E+02  0.00000000000E+00 0.  1.
         23    2    1    2    0    0  0.00000000000E+00  0.00000000000E+00 -0.74459376132E+02  0.11852503235E+03  0.92217051568E+02 0.  0.
          2    1    3    3  502    0 -0.15613024300E+02  0.34303169502E+02 -0.30904214675E+01  0.37815666998E+02  0.00000000000E+00 0. -1.
         -2    1    3    3    0  502  0.15613024300E+02 -0.34303169502E+02 -0.71368954665E+02  0.80709365353E+02  0.00000000000E+00 0.  1.
<mgrwt>
<rscale>  0 0.92217052E+02</rscale>
<asrwt>0</asrwt>
<pdfrwt beam="1">  1        1 0.33896659E-02 0.92217052E+02</pdfrwt>
<pdfrwt beam="2">  1       -1 0.14844954E-01 0.92217052E+02</pdfrwt>
<totfact> 0.79549300E+04</totfact>
</mgrwt>
</event>
<event>
 5    1  0.3858846E+001  0.8760472E+02  0.7546771E-02  0.1308758E+00
          2   -1    0    0  501    0  0.00000000000E+00  0.00000000000E+00  0.87720250770E+03  0.87720250770E+03  0.00000000000E+00 0. -1.
         -2   -1    0    0    0  501 -0.00000000000E+00 -0.00000000000E+00 -0.21872336122E+01  0.21872336122E+01  0.00000000000E+00 0.  1.
         23    2    1    2    0    0  0.00000000000E+00  0.00000000000E+00  0.87501527409E+03  0.87938974131E+03  0.87604721552E+02 0.  0.
          2    1    3    3  502    0  0.22905095053E+02  0.14031702175E+02  0.78482122530E+03  0.78528077000E+03  0.00000000000E+00 0. -1.
         -2    1    3    3    0  502 -0.22905095053E+02 -0.14031702175E+02  0.90194048787E+02  0.94108971315E+02  0.00000000000E+00 0.  1.
<mgrwt>
<rscale>  0 0.87604722E+02</rscale>
<asrwt>0</asrwt>
<pdfrwt beam="1">  1        2 0.13495395E+00 0.87604722E+02</pdfrwt>
<pdfrwt beam="2">  1       -2 0.33649818E-03 0.87604722E+02</pdfrwt>
<totfact> 0.27456071E+05</totfact>
</mgrwt>
</event>
<event>
 5    1  0.3858846E+001  0.8943669E+02  0.7546771E-02  0.1304222E+00
         -3   -1    0    0    0  501 -0.00000000000E+00  0.00000000000E+00  0.40736210300E+03  0.40736210300E+03  0.00000000000E+00 0.  1.
          3   -1    0    0  501    0  0.00000000000E+00 -0.00000000000E+00 -0.49089750092E+01  0.49089750092E+01  0.00000000000E+00 0. -1.
         23    2    1    2    0    0  0.00000000000E+00  0.00000000000E+00  0.40245312799E+03  0.41227107801E+03  0.89436690085E+02 0.  0.
          2    1    3    3  502    0  0.13742320804E+02  0.41776072170E+02  0.16388027489E+03  0.16967862590E+03  0.00000000000E+00 0. -1.
         -2    1    3    3    0  502 -0.13742320804E+02 -0.41776072170E+02  0.23857285310E+03  0.24259245212E+03  0.00000000000E+00 0.  1.
<mgrwt>
<rscale>  0 0.89436690E+02</rscale>
<asrwt>0</asrwt>
<pdfrwt beam="2">  1        3 0.75522724E-03 0.89436690E+02</pdfrwt>
<pdfrwt beam="1">  1       -3 0.62671066E-01 0.89436690E+02</pdfrwt>
<totfact> 0.21301616E+04</totfact>
</mgrwt>
</event>
<event>
 5    1  0.3858846E+001  0.9095528E+02  0.7546771E-02  0.1300555E+00
          2   -1    0    0  501    0  0.00000000000E+00  0.00000000000E+00  0.96283872696E+03  0.96283872696E+03  0.00000000000E+00 0. -1.
         -2   -1    0    0    0  501 -0.00000000000E+00 -0.00000000000E+00 -0.21480394557E+01  0.21480394557E+01  0.00000000000E+00 0.  1.
         23    2    1    2    0    0  0.00000000000E+00  0.00000000000E+00  0.96069068751E+03  0.96498676642E+03  0.90955276373E+02 0.  0.
          2    1    3    3  502    0  0.11189160017E+02 -0.39913734139E+02  0.28188536514E+03  0.28491693975E+03  0.00000000000E+00 0. -1.
         -2    1    3    3    0  502 -0.11189160017E+02  0.39913734139E+02  0.67880532237E+03  0.68006982667E+03  0.00000000000E+00 0.  1.
<mgrwt>
<rscale>  0 0.90955276E+02</rscale>
<asrwt>0</asrwt>
<pdfrwt beam="1">  1        2 0.14812869E+00 0.90955276E+02</pdfrwt>
<pdfrwt beam="2">  1       -2 0.33046838E-03 0.90955276E+02</pdfrwt>
<totfact> 0.25108048E+05</totfact>
</mgrwt>
</event>
<event>
 5    1  0.3858846E+001  0.8841343E+02  0.7546771E-02  0.1306740E+00
          1   -1    0    0  501    0  0.00000000000E+00  0.00000000000E+00  0.11631741342E+04  0.11631741342E+04  0.00000000000E+00 0. -1.
         -1   -1    0    0    0  501 -0.00000000000E+00 -0.00000000000E+00 -0.16800868000E+01  0.16800868000E+01  0.00000000000E+00 0.  1.
         23    2    1    2    0    0  0.00000000000E+00  0.00000000000E+00  0.11614940474E+04  0.11648542210E+04  0.88413426786E+02 0.  0.
          2    1    3    3  502    0  0.33446135679E+02 -0.23149527315E+02  0.80882780111E+03  0.80984995923E+03  0.00000000000E+00 0. -1.
         -2    1    3    3    0  502 -0.33446135679E+02  0.23149527315E+02  0.35266624628E+03  0.35500426176E+03  0.00000000000E+00 0.  1.
<mgrwt>
<rscale>  0 0.88413427E+02</rscale>
<asrwt>0</asrwt>
<pdfrwt beam="1">  1        1 0.17894922E+00 0.88413427E+02</pdfrwt>
<pdfrwt beam="2">  1       -1 0.25847582E-03 0.88413427E+02</pdfrwt>
<totfact> 0.14003455E+05</totfact>
</mgrwt>
</event>
<event>
 5    1  0.3858846E+001  0.9038467E+02  0.7546771E-02  0.1301923E+00
          1   -1    0    0  501    0  0.00000000000E+00  0.00000000000E+00  0.27470122915E+03  0.27470122915E+03  0.00000000000E+00 0. -1.
         -1   -1    0    0    0  501 -0.00000000000E+00 -0.00000000000E+00 -0.74347942961E+01  0.74347942961E+01  0.00000000000E+00 0.  1.
         23    2    1    2    0    0  0.00000000000E+00  0.00000000000E+00  0.26726643485E+03  0.28213602344E+03  0.90384669753E+02 0.  0.
          2    1    3    3  502    0 -0.20715749270E+02  0.73875471178E+01  0.25686852212E+03  0.25780837026E+03  0.00000000000E+00 0. -1.
         -2    1    3    3    0  502  0.20715749270E+02 -0.73875471178E+01  0.10397912731E+02  0.24327653183E+02  0.00000000000E+00 0.  1.
<mgrwt>
<rscale>  0 0.90384670E+02</rscale>
<asrwt>0</asrwt>
<pdfrwt beam="1">  1        1 0.42261720E-01 0.90384670E+02</pdfrwt>
<pdfrwt beam="2">  1       -1 0.11438147E-02 0.90384670E+02</pdfrwt>
<totfact> 0.12892915E+05</totfact>
</mgrwt>
</event>
<event>
 5    1  0.3858846E+001  0.8701254E+02  0.7546771E-02  0.1310252E+00
         -1   -1    0    0    0  501 -0.00000000000E+00  0.00000000000E+00  0.23868829899E+01  0.23868829899E+01  0.00000000000E+00 0.  1.
          1   -1    0    0  501    0  0.00000000000E+00 -0.00000000000E+00 -0.79299879396E+03  0.79299879396E+03  0.00000000000E+00 0. -1.
         23    2    1    2    0    0  0.00000000000E+00  0.00000000000E+00 -0.79061191097E+03  0.79538567695E+03  0.87012535472E+02 0.  0.
          2    1    3    3  502    0 -0.23034735576E+02  0.35877971043E+02 -0.47445258180E+03  0.47636444055E+03  0.00000000000E+00 0. -1.
         -2    1    3    3    0  502  0.23034735576E+02 -0.35877971043E+02 -0.31615932917E+03  0.31902123639E+03  0.00000000000E+00 0.  1.
<mgrwt>
<rscale>  0 0.87012535E+02</rscale>
<asrwt>0</asrwt>
<pdfrwt beam="2">  1        1 0.12199973E+00 0.87012535E+02</pdfrwt>
<pdfrwt beam="1">  1       -1 0.36721302E-03 0.87012535E+02</pdfrwt>
<totfact> 0.15996088E+05</totfact>
</mgrwt>
</event>
<event>
 5    1  0.3858846E+001  0.9265381E+02  0.7546771E-02  0.1296549E+00
          2   -1    0    0  501    0  0.00000000000E+00  0.00000000000E+00  0.17289769793E+03  0.17289769793E+03  0.00000000000E+00 0. -1.
         -2   -1    0    0    0  501 -0.00000000000E+00 -0.00000000000E+00 -0.12413016951E+02  0.12413016951E+02  0.00000000000E+00 0.  1.
         23    2    1    2    0    0  0.00000000000E+00  0.00000000000E+00  0.16048468098E+03  0.18531071488E+03  0.92653808450E+02 0.  0.
          2    1    3    3  502    0 -0.26395437542E+02  0.28507517136E+01  0.43112048536E+01  0.26896698602E+02  0.00000000000E+00 0.  1.
         -2    1    3    3    0  502  0.26395437542E+02 -0.28507517136E+01  0.15617347612E+03  0.15841401628E+03  0.00000000000E+00 0. -1.
<mgrwt>
<rscale>  0 0.92653808E+02</rscale>
<asrwt>0</asrwt>
<pdfrwt beam="1">  1        2 0.26599644E-01 0.92653808E+02</pdfrwt>
<pdfrwt beam="2">  1       -2 0.19096950E-02 0.92653808E+02</pdfrwt>
<totfact> 0.14059331E+05</totfact>
</mgrwt>
</event>
<event>
 5    1  0.3858846E+001  0.8715848E+02  0.7546771E-02  0.1309882E+00
         -1   -1    0    0    0  501 -0.00000000000E+00  0.00000000000E+00  0.52870111255E+01  0.52870111255E+01  0.00000000000E+00 0.  1.
          1   -1    0    0  501    0  0.00000000000E+00 -0.00000000000E+00 -0.35921058404E+03  0.35921058404E+03  0.00000000000E+00 0. -1.
         23    2    1    2    0    0  0.00000000000E+00  0.00000000000E+00 -0.35392357291E+03  0.36449759516E+03  0.87158484480E+02 0.  0.
          2    1    3    3  502    0  0.94158107189E+01 -0.37685987214E+02 -0.25957729664E+03  0.26246764382E+03  0.00000000000E+00 0. -1.
         -2    1    3    3    0  502 -0.94158107189E+01  0.37685987214E+02 -0.94346276273E+02  0.10202995134E+03  0.00000000000E+00 0.  1.
<mgrwt>
<rscale>  0 0.87158484E+02</rscale>
<asrwt>0</asrwt>
<pdfrwt beam="2">  1        1 0.55263189E-01 0.87158484E+02</pdfrwt>
<pdfrwt beam="1">  1       -1 0.81338600E-03 0.87158484E+02</pdfrwt>
<totfact> 0.14925101E+05</totfact>
</mgrwt>
</event>
<event>
 5    1  0.3858846E+001  0.9104353E+02  0.7546771E-02  0.1300344E+00
          1   -1    0    0  501    0  0.00000000000E+00  0.00000000000E+00  0.75025357020E+03  0.75025357020E+03  0.00000000000E+00 0. -1.
         -1   -1    0    0    0  501 -0.00000000000E+00 -0.00000000000E+00 -0.27620408641E+01  0.27620408641E+01  0.00000000000E+00 0.  1.
         23    2    1    2    0    0  0.00000000000E+00  0.00000000000E+00  0.74749152934E+03  0.75301561107E+03  0.91043528476E+02 0.  0.
          2    1    3    3  502    0 -0.16057532047E+02  0.22844632918E+02  0.67109837769E+03  0.67167905589E+03  0.00000000000E+00 0. -1.
         -2    1    3    3    0  502  0.16057532047E+02 -0.22844632918E+02  0.76393151654E+02  0.81336555178E+02  0.00000000000E+00 0.  1.
<mgrwt>
<rscale>  0 0.91043528E+02</rscale>
<asrwt>0</asrwt>
<pdfrwt beam="1">  1        1 0.11542346E+00 0.91043528E+02</pdfrwt>
<pdfrwt beam="2">  1       -1 0.42492996E-03 0.91043528E+02</pdfrwt>
<totfact> 0.14245487E+05</totfact>
</mgrwt>
</event>
<event>
 5    1  0.3858846E+001  0.9169439E+02  0.7546771E-02  0.1298800E+00
         -1   -1    0    0    0  501 -0.00000000000E+00  0.00000000000E+00  0.77649621051E+02  0.77649621051E+02  0.00000000000E+00 0.  1.
          1   -1    0    0  501    0  0.00000000000E+00 -0.00000000000E+00 -0.27069871519E+02  0.27069871519E+02  0.00000000000E+00 0. -1.
         23    2    1    2    0    0  0.00000000000E+00  0.00000000000E+00  0.50579749532E+02  0.10471949257E+03  0.91694389477E+02 0.  0.
          2    1    3    3  502    0 -0.13592393389E+02  0.30730058349E+02 -0.10331725538E+02  0.35154433529E+02  0.00000000000E+00 0. -1.
         -2    1    3    3    0  502  0.13592393389E+02 -0.30730058349E+02  0.60911475070E+02  0.69565059041E+02  0.00000000000E+00 0.  1.
<mgrwt>
<rscale>  0 0.91694389E+02</rscale>
<asrwt>0</asrwt>
<pdfrwt beam="2">  1        1 0.41645956E-02 0.91694389E+02</pdfrwt>
<pdfrwt beam="1">  1       -1 0.11946096E-01 0.91694389E+02</pdfrwt>
<totfact> 0.83852148E+04</totfact>
</mgrwt>
</event>
<event>
 5    1  0.3858846E+001  0.9202733E+02  0.7546771E-02  0.1298015E+00
         -1   -1    0    0    0  501 -0.00000000000E+00  0.00000000000E+00  0.15776367093E+01  0.15776367093E+01  0.00000000000E+00 0.  1.
          1   -1    0    0  501    0  0.00000000000E+00 -0.00000000000E+00 -0.13420437837E+04  0.13420437837E+04  0.00000000000E+00 0. -1.
         23    2    1    2    0    0  0.00000000000E+00  0.00000000000E+00 -0.13404661470E+04  0.13436214204E+04  0.92027333736E+02 0.  0.
          2    1    3    3  502    0  0.67710428134E+01 -0.35642235687E+02 -0.25700710914E+03  0.25955513890E+03  0.00000000000E+00 0.  1.
         -2    1    3    3    0  502 -0.67710428134E+01  0.35642235687E+02 -0.10834590378E+04  0.10840662815E+04  0.00000000000E+00 0. -1.
<mgrwt>
<rscale>  0 0.92027334E+02</rscale>
<asrwt>0</asrwt>
<pdfrwt beam="2">  1        1 0.20646870E+00 0.92027334E+02</pdfrwt>
<pdfrwt beam="1">  1       -1 0.24271284E-03 0.92027334E+02</pdfrwt>
<totfact> 0.11683427E+05</totfact>
</mgrwt>
</event>
<event>
 5    1  0.3858846E+001  0.9085031E+02  0.7546771E-02  0.1300806E+00
         -4   -1    0    0    0  501 -0.00000000000E+00  0.00000000000E+00  0.24500192189E+02  0.24500192189E+02  0.00000000000E+00 0.  1.
          4   -1    0    0  501    0  0.00000000000E+00 -0.00000000000E+00 -0.84221564958E+02  0.84221564958E+02  0.00000000000E+00 0. -1.
         23    2    1    2    0    0  0.00000000000E+00  0.00000000000E+00 -0.59721372769E+02  0.10872175715E+03  0.90850306063E+02 0.  0.
          2    1    3    3  502    0 -0.35950517185E+02  0.15827564036E+02 -0.25584929583E+01  0.39363655260E+02  0.00000000000E+00 0. -1.
         -2    1    3    3    0  502  0.35950517185E+02 -0.15827564036E+02 -0.57162879810E+02  0.69358101887E+02  0.00000000000E+00 0.  1.
<mgrwt>
<rscale>  0 0.90850306E+02</rscale>
<asrwt>0</asrwt>
<pdfrwt beam="2">  1        4 0.12957164E-01 0.90850306E+02</pdfrwt>
<pdfrwt beam="1">  1       -4 0.37692604E-02 0.90850306E+02</pdfrwt>
<totfact> 0.26181632E+04</totfact>
</mgrwt>
</event>
<event>
 5    1  0.3858846E+001  0.9015565E+02  0.7546771E-02  0.1302475E+00
          2   -1    0    0  501    0  0.00000000000E+00  0.00000000000E+00  0.32147249909E+03  0.32147249909E+03  0.00000000000E+00 0. -1.
         -2   -1    0    0    0  501 -0.00000000000E+00 -0.00000000000E+00 -0.63209455104E+01  0.63209455104E+01  0.00000000000E+00 0.  1.
         23    2    1    2    0    0  0.00000000000E+00  0.00000000000E+00  0.31515155358E+03  0.32779344460E+03  0.90155646520E+02 0.  0.
          2    1    3    3  502    0 -0.32923181529E+02 -0.29592268998E+02  0.12664489727E+03  0.13415874280E+03  0.00000000000E+00 0.  1.
         -2    1    3    3    0  502  0.32923181529E+02  0.29592268998E+02  0.18850665632E+03  0.19363470180E+03  0.00000000000E+00 0. -1.
<mgrwt>
<rscale>  0 0.90155647E+02</rscale>
<asrwt>0</asrwt>
<pdfrwt beam="1">  1        2 0.49457295E-01 0.90155647E+02</pdfrwt>
<pdfrwt beam="2">  1       -2 0.97245341E-03 0.90155647E+02</pdfrwt>
<totfact> 0.18994354E+05</totfact>
</mgrwt>
</event>
<event>
 5    1  0.3858846E+001  0.9125584E+02  0.7546771E-02  0.1299839E+00
          2   -1    0    0  501    0  0.00000000000E+00  0.00000000000E+00  0.68805116010E+03  0.68805116010E+03  0.00000000000E+00 0.  1.
         -2   -1    0    0    0  501 -0.00000000000E+00 -0.00000000000E+00 -0.30258024714E+01  0.30258024714E+01  0.00000000000E+00 0. -1.
         23    2    1    2    0    0  0.00000000000E+00  0.00000000000E+00  0.68502535763E+03  0.69107696257E+03  0.91255835992E+02 0.  0.
          2    1    3    3  502    0 -0.10264191381E+02 -0.30603022930E+02  0.98291027857E+02  0.10345542419E+03  0.00000000000E+00 0. -1.
         -2    1    3    3    0  502  0.10264191381E+02  0.30603022930E+02  0.58673432977E+03  0.58762153838E+03  0.00000000000E+00 0.  1.
<mgrwt>
<rscale>  0 0.91255836E+02</rscale>
<asrwt>0</asrwt>
<pdfrwt beam="1">  1        2 0.10585390E+00 0.91255836E+02</pdfrwt>
<pdfrwt beam="2">  1       -2 0.46550862E-03 0.91255836E+02</pdfrwt>
<totfact> 0.23564191E+05</totfact>
</mgrwt>
</event>
<event>
 5    1  0.3858846E+001  0.9773990E+02  0.7546771E-02  0.1285122E+00
          1   -1    0    0  501    0  0.00000000000E+00  0.00000000000E+00  0.23954755784E+02  0.23954755784E+02  0.00000000000E+00 0. -1.
         -1   -1    0    0    0  501 -0.00000000000E+00 -0.00000000000E+00 -0.99699283579E+02  0.99699283579E+02  0.00000000000E+00 0.  1.
         23    2    1    2    0    0  0.00000000000E+00  0.00000000000E+00 -0.75744527796E+02  0.12365403936E+03  0.97739899528E+02 0.  0.
          2    1    3    3  502    0 -0.17653137064E+02 -0.45242112474E+02 -0.44777390977E+02  0.66056769010E+02  0.00000000000E+00 0. -1.
         -2    1    3    3    0  502  0.17653137064E+02  0.45242112474E+02 -0.30967136819E+02  0.57597270353E+02  0.00000000000E+00 0.  1.
<mgrwt>
<rscale>  0 0.97739900E+02</rscale>
<asrwt>0</asrwt>
<pdfrwt beam="1">  1        1 0.36853470E-02 0.97739900E+02</pdfrwt>
<pdfrwt beam="2">  1       -1 0.15338351E-01 0.97739900E+02</pdfrwt>
<totfact> 0.68051771E+04</totfact>
</mgrwt>
</event>
<event>
 5    1  0.3858846E+001  0.9078430E+02  0.7546771E-02  0.1300963E+00
         -3   -1    0    0    0  501 -0.00000000000E+00  0.00000000000E+00  0.74209602835E+01  0.74209602835E+01  0.00000000000E+00 0.  1.
          3   -1    0    0  501    0  0.00000000000E+00 -0.00000000000E+00 -0.27765240066E+03  0.27765240066E+03  0.00000000000E+00 0. -1.
         23    2    1    2    0    0  0.00000000000E+00  0.00000000000E+00 -0.27023144037E+03  0.28507336094E+03  0.90784303443E+02 0.  0.
          2    1    3    3  502    0 -0.27127103781E+02  0.21280178501E+02 -0.22782747347E+03  0.23042153421E+03  0.00000000000E+00 0. -1.
         -2    1    3    3    0  502  0.27127103781E+02 -0.21280178501E+02 -0.42403966900E+02  0.54651826735E+02  0.00000000000E+00 0.  1.
<mgrwt>
<rscale>  0 0.90784303E+02</rscale>
<asrwt>0</asrwt>
<pdfrwt beam="2">  1        3 0.42715755E-01 0.90784303E+02</pdfrwt>
<pdfrwt beam="1">  1       -3 0.11416862E-02 0.90784303E+02</pdfrwt>
<totfact> 0.24907176E+04</totfact>
</mgrwt>
</event>
<event>
 5    1  0.3858846E+001  0.9122497E+02  0.7546771E-02  0.1299912E+00
          3   -1    0    0  501    0  0.00000000000E+00  0.00000000000E+00  0.16727745928E+02  0.16727745928E+02  0.00000000000E+00 0. -1.
         -3   -1    0    0    0  501 -0.00000000000E+00 -0.00000000000E+00 -0.12437413938E+03  0.12437413938E+03  0.00000000000E+00 0.  1.
         23    2    1    2    0    0  0.00000000000E+00  0.00000000000E+00 -0.10764639345E+03  0.14110188531E+03  0.91224974729E+02 0.  0.
          2    1    3    3  502    0  0.43978054955E+02  0.39178356950E+01 -0.71531938062E+02  0.84060911945E+02  0.00000000000E+00 0.  1.
         -2    1    3    3    0  502 -0.43978054955E+02 -0.39178356950E+01 -0.36114455391E+02  0.57040973364E+02  0.00000000000E+00 0. -1.
<mgrwt>
<rscale>  0 0.91224975E+02</rscale>
<asrwt>0</asrwt>
<pdfrwt beam="1">  1        3 0.25734995E-02 0.91224975E+02</pdfrwt>
<pdfrwt beam="2">  1       -3 0.19134482E-01 0.91224975E+02</pdfrwt>
<totfact> 0.31816137E+04</totfact>
</mgrwt>
</event>
<event>
 5    1  0.3858846E+001  0.9195517E+02  0.7546771E-02  0.1298185E+00
         -2   -1    0    0    0  501 -0.00000000000E+00  0.00000000000E+00  0.14667889648E+01  0.14667889648E+01  0.00000000000E+00 0.  1.
          2   -1    0    0  501    0  0.00000000000E+00 -0.00000000000E+00 -0.14412015271E+04  0.14412015271E+04  0.00000000000E+00 0. -1.
         23    2    1    2    0    0  0.00000000000E+00  0.00000000000E+00 -0.14397347382E+04  0.14426683161E+04  0.91955173776E+02 0.  0.
          2    1    3    3  502    0  0.12532367813E+02 -0.28404477600E+02 -0.18781876126E+03  0.19036743858E+03  0.00000000000E+00 0. -1.
         -2    1    3    3    0  502 -0.12532367813E+02  0.28404477600E+02 -0.12519159769E+04  0.12523008775E+04  0.00000000000E+00 0.  1.
<mgrwt>
<rscale>  0 0.91955174E+02</rscale>
<asrwt>0</asrwt>
<pdfrwt beam="2">  1        2 0.22172336E+00 0.91955174E+02</pdfrwt>
<pdfrwt beam="1">  1       -2 0.22565979E-03 0.91955174E+02</pdfrwt>
<totfact> 0.23398953E+05</totfact>
</mgrwt>
</event>
<event>
 5    1  0.3858846E+001  0.9302754E+02  0.7546771E-02  0.1295681E+00
         -4   -1    0    0    0  501 -0.00000000000E+00  0.00000000000E+00  0.63523924653E+02  0.63523924653E+02  0.00000000000E+00 0.  1.
          4   -1    0    0  501    0  0.00000000000E+00 -0.00000000000E+00 -0.34058518260E+02  0.34058518260E+02  0.00000000000E+00 0. -1.
         23    2    1    2    0    0  0.00000000000E+00  0.00000000000E+00  0.29465406393E+02  0.97582442912E+02  0.93027538884E+02 0.  0.
          2    1    3    3  502    0  0.35793857584E+02 -0.23860040068E+02  0.33291612016E+02  0.54395157720E+02  0.00000000000E+00 0. -1.
         -2    1    3    3    0  502 -0.35793857584E+02  0.23860040068E+02 -0.38262056229E+01  0.43187285192E+02  0.00000000000E+00 0.  1.
<mgrwt>
<rscale>  0 0.93027539E+02</rscale>
<asrwt>0</asrwt>
<pdfrwt beam="2">  1        4 0.52397720E-02 0.93027539E+02</pdfrwt>
<pdfrwt beam="1">  1       -4 0.97729115E-02 0.93027539E+02</pdfrwt>
<totfact> 0.25193382E+04</totfact>
</mgrwt>
</event>
<event>
 5    1  0.3858846E+001  0.9124450E+02  0.7546771E-02  0.1299866E+00
         -2   -1    0    0    0  501 -0.00000000000E+00  0.00000000000E+00  0.56698818234E+01  0.56698818234E+01  0.00000000000E+00 0.  1.
          2   -1    0    0  501    0  0.00000000000E+00 -0.00000000000E+00 -0.36709579124E+03  0.36709579124E+03  0.00000000000E+00 0. -1.
         23    2    1    2    0    0  0.00000000000E+00  0.00000000000E+00 -0.36142590941E+03  0.37276567306E+03  0.91244501296E+02 0.  0.
          2    1    3    3  502    0 -0.17891509773E+02 -0.25613528056E+02 -0.31653044553E+03  0.31806867480E+03  0.00000000000E+00 0. -1.
         -2    1    3    3    0  502  0.17891509773E+02  0.25613528056E+02 -0.44895463885E+02  0.54696998262E+02  0.00000000000E+00 0.  1.
<mgrwt>
<rscale>  0 0.91244501E+02</rscale>
<asrwt>0</asrwt>
<pdfrwt beam="2">  1        2 0.56476282E-01 0.91244501E+02</pdfrwt>
<pdfrwt beam="1">  1       -2 0.87228942E-03 0.91244501E+02</pdfrwt>
<totfact> 0.19314995E+05</totfact>
</mgrwt>
</event>
<event>
 5    1  0.3858846E+001  0.8958036E+02  0.7546771E-02  0.1303871E+00
         -3   -1    0    0    0  501 -0.00000000000E+00  0.00000000000E+00  0.22363293458E+02  0.22363293458E+02  0.00000000000E+00 0.  1.
          3   -1    0    0  501    0  0.00000000000E+00 -0.00000000000E+00 -0.89707733408E+02  0.89707733408E+02  0.00000000000E+00 0. -1.
         23    2    1    2    0    0  0.00000000000E+00  0.00000000000E+00 -0.67344439950E+02  0.11207102687E+03  0.89580363198E+02 0.  0.
          2    1    3    3  502    0 -0.44113275430E+02  0.77537016033E+01 -0.33977157091E+02  0.56218752758E+02  0.00000000000E+00 0. -1.
         -2    1    3    3    0  502  0.44113275430E+02 -0.77537016033E+01 -0.33367282859E+02  0.55852274108E+02  0.00000000000E+00 0.  1.
<mgrwt>
<rscale>  0 0.89580363E+02</rscale>
<asrwt>0</asrwt>
<pdfrwt beam="2">  1        3 0.13801190E-01 0.89580363E+02</pdfrwt>
<pdfrwt beam="1">  1       -3 0.34405066E-02 0.89580363E+02</pdfrwt>
<totfact> 0.35455614E+04</totfact>
</mgrwt>
</event>
<event>
 5    1  0.3858846E+001  0.9197288E+02  0.7546771E-02  0.1298143E+00
          1   -1    0    0  501    0  0.00000000000E+00  0.00000000000E+00  0.18111353812E+02  0.18111353812E+02  0.00000000000E+00 0. -1.
         -1   -1    0    0    0  501 -0.00000000000E+00 -0.00000000000E+00 -0.11676391758E+03  0.11676391758E+03  0.00000000000E+00 0.  1.
         23    2    1    2    0    0  0.00000000000E+00  0.00000000000E+00 -0.98652563764E+02  0.13487527139E+03  0.91972879128E+02 0.  0.
          2    1    3    3  502    0 -0.36179576733E+02 -0.28284663760E+02 -0.45804118178E+02  0.64861400067E+02  0.00000000000E+00 0.  1.
         -2    1    3    3    0  502  0.36179576733E+02  0.28284663760E+02 -0.52848445586E+02  0.70013871322E+02  0.00000000000E+00 0. -1.
<mgrwt>
<rscale>  0 0.91972879E+02</rscale>
<asrwt>0</asrwt>
<pdfrwt beam="1">  1        1 0.27863622E-02 0.91972879E+02</pdfrwt>
<pdfrwt beam="2">  1       -1 0.17963679E-01 0.91972879E+02</pdfrwt>
<totfact> 0.77211776E+04</totfact>
</mgrwt>
</event>
<event>
 5    1  0.3858846E+001  0.8101285E+02  0.7546771E-02  0.1326201E+00
         -2   -1    0    0    0  501 -0.00000000000E+00  0.00000000000E+00  0.25220904260E+01  0.25220904260E+01  0.00000000000E+00 0.  1.
          2   -1    0    0  501    0  0.00000000000E+00 -0.00000000000E+00 -0.65055979856E+03  0.65055979856E+03  0.00000000000E+00 0. -1.
         23    2    1    2    0    0  0.00000000000E+00  0.00000000000E+00 -0.64803770813E+03  0.65308188899E+03  0.81012854276E+02 0.  0.
          2    1    3    3  502    0  0.32351809503E+02 -0.24286305534E+02 -0.34074793741E+03  0.34314081813E+03  0.00000000000E+00 0. -1.
         -2    1    3    3    0  502 -0.32351809503E+02  0.24286305534E+02 -0.30728977072E+03  0.30994107086E+03  0.00000000000E+00 0.  1.
<mgrwt>
<rscale>  0 0.81012854E+02</rscale>
<asrwt>0</asrwt>
<pdfrwt beam="2">  1        2 0.10008623E+00 0.81012854E+02</pdfrwt>
<pdfrwt beam="1">  1       -2 0.38801349E-03 0.81012854E+02</pdfrwt>
<totfact> 0.31755826E+05</totfact>
</mgrwt>
</event>
<event>
 5    1  0.3858846E+001  0.8768338E+02  0.7546771E-02  0.1308561E+00
         -1   -1    0    0    0  501 -0.00000000000E+00  0.00000000000E+00  0.93883050853E+02  0.93883050853E+02  0.00000000000E+00 0.  1.
          1   -1    0    0  501    0  0.00000000000E+00 -0.00000000000E+00 -0.20473277057E+02  0.20473277057E+02  0.00000000000E+00 0. -1.
         23    2    1    2    0    0  0.00000000000E+00  0.00000000000E+00  0.73409773797E+02  0.11435632791E+03  0.87683378381E+02 0.  0.
          2    1    3    3  502    0 -0.24190839064E+02  0.38139388047E+01 -0.10721089654E+02  0.26733585379E+02  0.00000000000E+00 0. -1.
         -2    1    3    3    0  502  0.24190839064E+02 -0.38139388047E+01  0.84130863451E+02  0.87622742532E+02  0.00000000000E+00 0.  1.
<mgrwt>
<rscale>  0 0.87683378E+02</rscale>
<asrwt>0</asrwt>
<pdfrwt beam="2">  1        1 0.31497350E-02 0.87683378E+02</pdfrwt>
<pdfrwt beam="1">  1       -1 0.14443546E-01 0.87683378E+02</pdfrwt>
<totfact> 0.91002306E+04</totfact>
</mgrwt>
</event>
<event>
 5    1  0.3858846E+001  0.8686240E+02  0.7546771E-02  0.1310633E+00
         -1   -1    0    0    0  501 -0.00000000000E+00  0.00000000000E+00  0.24864057143E+01  0.24864057143E+01  0.00000000000E+00 0.  1.
          1   -1    0    0  501    0  0.00000000000E+00 -0.00000000000E+00 -0.75863285431E+03  0.75863285431E+03  0.00000000000E+00 0. -1.
         23    2    1    2    0    0  0.00000000000E+00  0.00000000000E+00 -0.75614644859E+03  0.76111926002E+03  0.86862398401E+02 0.  0.
          2    1    3    3  502    0 -0.48796422181E+01 -0.36730088130E+02 -0.57660562443E+03  0.57779490860E+03  0.00000000000E+00 0. -1.
         -2    1    3    3    0  502  0.48796422181E+01  0.36730088130E+02 -0.17954082416E+03  0.18332435142E+03  0.00000000000E+00 0.  1.
<mgrwt>
<rscale>  0 0.86862398E+02</rscale>
<asrwt>0</asrwt>
<pdfrwt beam="2">  1        1 0.11671275E+00 0.86862398E+02</pdfrwt>
<pdfrwt beam="1">  1       -1 0.38252394E-03 0.86862398E+02</pdfrwt>
<totfact> 0.16117127E+05</totfact>
</mgrwt>
</event>
<event>
 5    1  0.3858846E+001  0.9019267E+02  0.7546771E-02  0.1302386E+00
          3   -1    0    0  501    0  0.00000000000E+00  0.00000000000E+00  0.15942326913E+03  0.15942326913E+03  0.00000000000E+00 0. -1.
         -3   -1    0    0    0  501 -0.00000000000E+00 -0.00000000000E+00 -0.12756476794E+02  0.12756476794E+02  0.00000000000E+00 0.  1.
         23    2    1    2    0    0  0.00000000000E+00  0.00000000000E+00  0.14666679234E+03  0.17217974592E+03  0.90192665623E+02 0.  0.
          2    1    3    3  502    0 -0.37540582531E+02  0.79090687817E+01  0.11858286719E+03  0.12463444587E+03  0.00000000000E+00 0. -1.
         -2    1    3    3    0  502  0.37540582531E+02 -0.79090687817E+01  0.28083925145E+02  0.47545300055E+02  0.00000000000E+00 0.  1.
<mgrwt>
<rscale>  0 0.90192666E+02</rscale>
<asrwt>0</asrwt>
<pdfrwt beam="1">  1        3 0.24526655E-01 0.90192666E+02</pdfrwt>
<pdfrwt beam="2">  1       -3 0.19625350E-02 0.90192666E+02</pdfrwt>
<totfact> 0.30894316E+04</totfact>
</mgrwt>
</event>
<event>
 5    1  0.3858846E+001  0.1009041E+03  0.7546771E-02  0.1278406E+00
          1   -1    0    0  501    0  0.00000000000E+00  0.00000000000E+00  0.23878892265E+04  0.23878892265E+04  0.00000000000E+00 0. -1.
         -1   -1    0    0    0  501 -0.00000000000E+00 -0.00000000000E+00 -0.10659658876E+01  0.10659658876E+01  0.00000000000E+00 0.  1.
         23    2    1    2    0    0  0.00000000000E+00  0.00000000000E+00  0.23868232606E+04  0.23889551923E+04  0.10090408235E+03 0.  0.
          2    1    3    3  502    0  0.22158602998E+02  0.38411362750E+02  0.62373547547E+03  0.62530982707E+03  0.00000000000E+00 0. -1.
         -2    1    3    3    0  502 -0.22158602998E+02 -0.38411362750E+02  0.17630877851E+04  0.17636453653E+04  0.00000000000E+00 0.  1.
<mgrwt>
<rscale>  0 0.10090408E+03</rscale>
<asrwt>0</asrwt>
<pdfrwt beam="1">  1        1 0.36736329E+00 0.10090408E+03</pdfrwt>
<pdfrwt beam="2">  1       -1 0.16399666E-03 0.10090408E+03</pdfrwt>
<totfact> 0.44175885E+04</totfact>
</mgrwt>
</event>
<event>
 5    1  0.3858846E+001  0.8823990E+02  0.7546771E-02  0.1307171E+00
          2   -1    0    0  501    0  0.00000000000E+00  0.00000000000E+00  0.98017995172E+01  0.98017995172E+01  0.00000000000E+00 0. -1.
         -2   -1    0    0    0  501 -0.00000000000E+00 -0.00000000000E+00 -0.19859310537E+03  0.19859310537E+03  0.00000000000E+00 0.  1.
         23    2    1    2    0    0  0.00000000000E+00  0.00000000000E+00 -0.18879130585E+03  0.20839490488E+03  0.88239895837E+02 0.  0.
          2    1    3    3  502    0 -0.67735415946E+00 -0.39727282963E+02 -0.49099653993E+02  0.63162424292E+02  0.00000000000E+00 0. -1.
         -2    1    3    3    0  502  0.67735415946E+00  0.39727282963E+02 -0.13969165186E+03  0.14523248059E+03  0.00000000000E+00 0.  1.
<mgrwt>
<rscale>  0 0.88239896E+02</rscale>
<asrwt>0</asrwt>
<pdfrwt beam="1">  1        2 0.15079692E-02 0.88239896E+02</pdfrwt>
<pdfrwt beam="2">  1       -2 0.30552784E-01 0.88239896E+02</pdfrwt>
<totfact> 0.67952694E+04</totfact>
</mgrwt>
</event>
<event>
 5    1  0.3858846E+001  0.9036466E+02  0.7546771E-02  0.1301971E+00
         -2   -1    0    0    0  501 -0.00000000000E+00  0.00000000000E+00  0.32568973825E+01  0.32568973825E+01  0.00000000000E+00 0.  1.
          2   -1    0    0  501    0  0.00000000000E+00 -0.00000000000E+00 -0.62680604545E+03  0.62680604545E+03  0.00000000000E+00 0. -1.
         23    2    1    2    0    0  0.00000000000E+00  0.00000000000E+00 -0.62354914806E+03  0.63006294283E+03  0.90364660543E+02 0.  0.
          2    1    3    3  502    0  0.35161814816E+02  0.27839620088E+02 -0.27355607778E+03  0.27720809035E+03  0.00000000000E+00 0. -1.
         -2    1    3    3    0  502 -0.35161814816E+02 -0.27839620088E+02 -0.34999307029E+03  0.35285485248E+03  0.00000000000E+00 0.  1.
<mgrwt>
<rscale>  0 0.90364661E+02</rscale>
<asrwt>0</asrwt>
<pdfrwt beam="2">  1        2 0.96431743E-01 0.90364661E+02</pdfrwt>
<pdfrwt beam="1">  1       -2 0.50106091E-03 0.90364661E+02</pdfrwt>
<totfact> 0.23613485E+05</totfact>
</mgrwt>
</event>
<event>
 5    1  0.3858846E+001  0.8706275E+02  0.7546771E-02  0.1310125E+00
          2   -1    0    0  501    0  0.00000000000E+00  0.00000000000E+00  0.98935959254E+03  0.98935959254E+03  0.00000000000E+00 0. -1.
         -2   -1    0    0    0  501 -0.00000000000E+00 -0.00000000000E+00 -0.19153607294E+01  0.19153607294E+01  0.00000000000E+00 0.  1.
         23    2    1    2    0    0  0.00000000000E+00  0.00000000000E+00  0.98744423181E+03  0.99127495327E+03  0.87062747735E+02 0.  0.
          2    1    3    3  502    0  0.27534402366E+02  0.24218585170E+02  0.76081386123E+03  0.76169706224E+03  0.00000000000E+00 0. -1.
         -2    1    3    3    0  502 -0.27534402366E+02 -0.24218585170E+02  0.22663037058E+03  0.22957789103E+03  0.00000000000E+00 0.  1.
<mgrwt>
<rscale>  0 0.87062748E+02</rscale>
<asrwt>0</asrwt>
<pdfrwt beam="1">  1        2 0.15220876E+00 0.87062748E+02</pdfrwt>
<pdfrwt beam="2">  1       -2 0.29467167E-03 0.87062748E+02</pdfrwt>
<totfact> 0.28211124E+05</totfact>
</mgrwt>
</event>
<event>
 5    1  0.3858846E+001  0.1072430E+03  0.7546771E-02  0.1265762E+00
         -3   -1    0    0    0  501 -0.00000000000E+00  0.00000000000E+00  0.34994660656E+03  0.34994660656E+03  0.00000000000E+00 0.  1.
          3   -1    0    0  501    0  0.00000000000E+00 -0.00000000000E+00 -0.82163012738E+01  0.82163012738E+01  0.00000000000E+00 0. -1.
         23    2    1    2    0    0  0.00000000000E+00  0.00000000000E+00  0.34173030529E+03  0.35816290783E+03  0.10724302773E+03 0.  0.
          2    1    3    3  502    0  0.32073478519E+02 -0.29848622567E+01  0.31403213135E+03  0.31567989633E+03  0.00000000000E+00 0.  1.
         -2    1    3    3    0  502 -0.32073478519E+02  0.29848622567E+01  0.27698173936E+02  0.42483011503E+02  0.00000000000E+00 0. -1.
<mgrwt>
<rscale>  0 0.10724303E+03</rscale>
<asrwt>0</asrwt>
<pdfrwt beam="2">  1        3 0.12640466E-02 0.10724303E+03</pdfrwt>
<pdfrwt beam="1">  1       -3 0.53837928E-01 0.10724303E+03</pdfrwt>
<totfact> 0.14138839E+04</totfact>
</mgrwt>
</event>
<event>
 5    1  0.3858846E+001  0.9986507E+02  0.7546771E-02  0.1280580E+00
          2   -1    0    0  501    0  0.00000000000E+00  0.00000000000E+00  0.82150360249E+03  0.82150360249E+03  0.00000000000E+00 0. -1.
         -2   -1    0    0    0  501 -0.00000000000E+00 -0.00000000000E+00 -0.30349933456E+01  0.30349933456E+01  0.00000000000E+00 0.  1.
         23    2    1    2    0    0  0.00000000000E+00  0.00000000000E+00  0.81846860914E+03  0.82453859583E+03  0.99865068305E+02 0.  0.
          2    1    3    3  502    0  0.47877773903E+02  0.14032660824E+02  0.42587312779E+03  0.42878563150E+03  0.00000000000E+00 0. -1.
         -2    1    3    3    0  502 -0.47877773903E+02 -0.14032660824E+02  0.39259548135E+03  0.39575296434E+03  0.00000000000E+00 0.  1.
<mgrwt>
<rscale>  0 0.99865068E+02</rscale>
<asrwt>0</asrwt>
<pdfrwt beam="1">  1        2 0.12638499E+00 0.99865068E+02</pdfrwt>
<pdfrwt beam="2">  1       -2 0.46692271E-03 0.99865068E+02</pdfrwt>
<totfact> 0.19241269E+05</totfact>
</mgrwt>
</event>
<event>
 5    1  0.3858846E+001  0.9728616E+02  0.7546771E-02  0.1286109E+00
         -2   -1    0    0    0  501 -0.00000000000E+00  0.00000000000E+00  0.17682630150E+01  0.17682630150E+01  0.00000000000E+00 0.  1.
          2   -1    0    0  501    0  0.00000000000E+00 -0.00000000000E+00 -0.13381206924E+04  0.13381206924E+04  0.00000000000E+00 0. -1.
         23    2    1    2    0    0  0.00000000000E+00  0.00000000000E+00 -0.13363524293E+04  0.13398889554E+04  0.97286162014E+02 0.  0.
          2    1    3    3  502    0  0.16825933264E+02 -0.44176961703E+02 -0.82607199816E+03  0.82742350832E+03  0.00000000000E+00 0. -1.
         -2    1    3    3    0  502 -0.16825933264E+02  0.44176961703E+02 -0.51028043118E+03  0.51246544705E+03  0.00000000000E+00 0.  1.
<mgrwt>
<rscale>  0 0.97286162E+02</rscale>
<asrwt>0</asrwt>
<pdfrwt beam="2">  1        2 0.20586439E+00 0.97286162E+02</pdfrwt>
<pdfrwt beam="1">  1       -2 0.27204090E-03 0.97286162E+02</pdfrwt>
<totfact> 0.20575293E+05</totfact>
</mgrwt>
</event>
<event>
 5    1  0.3858846E+001  0.9082324E+02  0.7546771E-02  0.1300870E+00
          2   -1    0    0  501    0  0.00000000000E+00  0.00000000000E+00  0.20273230156E+04  0.20273230156E+04  0.00000000000E+00 0.  1.
         -2   -1    0    0    0  501 -0.00000000000E+00 -0.00000000000E+00 -0.10172110383E+01  0.10172110383E+01  0.00000000000E+00 0. -1.
         23    2    1    2    0    0  0.00000000000E+00  0.00000000000E+00  0.20263058046E+04  0.20283402266E+04  0.90823242615E+02 0.  0.
          2    1    3    3  502    0 -0.51618620737E+01 -0.43819799044E+02  0.77324823813E+03  0.77450607317E+03  0.00000000000E+00 0. -1.
         -2    1    3    3    0  502  0.51618620737E+01  0.43819799044E+02  0.12530575664E+04  0.12538341535E+04  0.00000000000E+00 0.  1.
<mgrwt>
<rscale>  0 0.90823243E+02</rscale>
<asrwt>0</asrwt>
<pdfrwt beam="1">  1        2 0.31189261E+00 0.90823243E+02</pdfrwt>
<pdfrwt beam="2">  1       -2 0.15649563E-03 0.90823243E+02</pdfrwt>
<totfact> 0.19629314E+05</totfact>
</mgrwt>
</event>
<event>
 5    1  0.3858846E+001  0.8958107E+02  0.7546771E-02  0.1303869E+00
          2   -1    0    0  501    0  0.00000000000E+00  0.00000000000E+00  0.24729899071E+03  0.24729899071E+03  0.00000000000E+00 0. -1.
         -2   -1    0    0    0  501 -0.00000000000E+00 -0.00000000000E+00 -0.81124141881E+01  0.81124141881E+01  0.00000000000E+00 0.  1.
         23    2    1    2    0    0  0.00000000000E+00  0.00000000000E+00  0.23918657652E+03  0.25541140489E+03  0.89581065877E+02 0.  0.
          2    1    3    3  502    0  0.10683894724E+02  0.36880272341E+02  0.18534933356E+03  0.18928464160E+03  0.00000000000E+00 0. -1.
         -2    1    3    3    0  502 -0.10683894724E+02 -0.36880272341E+02  0.53837242957E+02  0.66126763293E+02  0.00000000000E+00 0.  1.
<mgrwt>
<rscale>  0 0.89581066E+02</rscale>
<asrwt>0</asrwt>
<pdfrwt beam="1">  1        2 0.38045993E-01 0.89581066E+02</pdfrwt>
<pdfrwt beam="2">  1       -2 0.12480639E-02 0.89581066E+02</pdfrwt>
<totfact> 0.17527145E+05</totfact>
</mgrwt>
</event>
<event>
 5    1  0.3858846E+001  0.8529040E+02  0.7546771E-02  0.1314675E+00
          3   -1    0    0  501    0  0.00000000000E+00  0.00000000000E+00  0.57440149104E+02  0.57440149104E+02  0.00000000000E+00 0. -1.
         -3   -1    0    0    0  501 -0.00000000000E+00 -0.00000000000E+00 -0.31661005978E+02  0.31661005978E+02  0.00000000000E+00 0.  1.
         23    2    1    2    0    0  0.00000000000E+00  0.00000000000E+00  0.25779143126E+02  0.89101155081E+02  0.85290395805E+02 0.  0.
          2    1    3    3  502    0  0.89336943941E+01 -0.31583860305E+02  0.41332152818E+02  0.52779711859E+02  0.00000000000E+00 0. -1.
         -2    1    3    3    0  502 -0.89336943941E+01  0.31583860305E+02 -0.15553009692E+02  0.36321443223E+02  0.00000000000E+00 0.  1.
<mgrwt>
<rscale>  0 0.85290396E+02</rscale>
<asrwt>0</asrwt>
<pdfrwt beam="1">  1        3 0.88369460E-02 0.85290396E+02</pdfrwt>
<pdfrwt beam="2">  1       -3 0.48709240E-02 0.85290396E+02</pdfrwt>
<totfact> 0.42538828E+04</totfact>
</mgrwt>
</event>
<event>
 5    1  0.3858846E+001  0.9176545E+02  0.7546771E-02  0.1298632E+00
          2   -1    0    0  501    0  0.00000000000E+00  0.00000000000E+00  0.26004747698E+04  0.26004747698E+04  0.00000000000E+00 0. -1.
         -2   -1    0    0    0  501 -0.00000000000E+00 -0.00000000000E+00 -0.80955384190E+00  0.80955384190E+00  0.00000000000E+00 0.  1.
         23    2    1    2    0    0  0.00000000000E+00  0.00000000000E+00  0.25996652160E+04  0.26012843236E+04  0.91765447542E+02 0.  0.
          2    1    3    3  502    0  0.76287111498E+00  0.39133306145E+02  0.19785232314E+04  0.19789103504E+04  0.00000000000E+00 0. -1.
         -2    1    3    3    0  502 -0.76287111498E+00 -0.39133306145E+02  0.62114198452E+03  0.62237397324E+03  0.00000000000E+00 0.  1.
<mgrwt>
<rscale>  0 0.91765448E+02</rscale>
<asrwt>0</asrwt>
<pdfrwt beam="1">  1        2 0.40006635E+00 0.91765448E+02</pdfrwt>
<pdfrwt beam="2">  1       -2 0.12454883E-03 0.91765448E+02</pdfrwt>
<totfact> 0.13644063E+05</totfact>
</mgrwt>
</event>
<event>
 5    1  0.3858846E+001  0.9181862E+02  0.7546771E-02  0.1298506E+00
         -1   -1    0    0    0  501 -0.00000000000E+00  0.00000000000E+00  0.17585901785E+02  0.17585901785E+02  0.00000000000E+00 0.  1.
          1   -1    0    0  501    0  0.00000000000E+00 -0.00000000000E+00 -0.11984967189E+03  0.11984967189E+03  0.00000000000E+00 0. -1.
         23    2    1    2    0    0  0.00000000000E+00  0.00000000000E+00 -0.10226377011E+03  0.13743557368E+03  0.91818615953E+02 0.  0.
          2    1    3    3  502    0  0.23985384870E+02  0.13765458201E+00  0.74612813060E+01  0.25119481581E+02  0.00000000000E+00 0.  1.
         -2    1    3    3    0  502 -0.23985384870E+02 -0.13765458201E+00 -0.10972505141E+03  0.11231609210E+03  0.00000000000E+00 0. -1.
<mgrwt>
<rscale>  0 0.91818616E+02</rscale>
<asrwt>0</asrwt>
<pdfrwt beam="2">  1        1 0.18438411E-01 0.91818616E+02</pdfrwt>
<pdfrwt beam="1">  1       -1 0.27055234E-02 0.91818616E+02</pdfrwt>
<totfact> 0.10568281E+05</totfact>
</mgrwt>
</event>
<event>
 5    1  0.3858846E+001  0.9094791E+02  0.7546771E-02  0.1300572E+00
         -2   -1    0    0    0  501 -0.00000000000E+00  0.00000000000E+00  0.17326070879E+01  0.17326070879E+01  0.00000000000E+00 0.  1.
          2   -1    0    0  501    0  0.00000000000E+00 -0.00000000000E+00 -0.11935081534E+04  0.11935081534E+04  0.00000000000E+00 0. -1.
         23    2    1    2    0    0  0.00000000000E+00  0.00000000000E+00 -0.11917755463E+04  0.11952407605E+04  0.90947912260E+02 0.  0.
          2    1    3    3  502    0  0.18408142787E+02  0.32671265580E+02 -0.25785135997E+03  0.26056399435E+03  0.00000000000E+00 0.  1.
         -2    1    3    3    0  502 -0.18408142787E+02 -0.32671265580E+02 -0.93392418634E+03  0.93467676613E+03  0.00000000000E+00 0. -1.
<mgrwt>
<rscale>  0 0.90947912E+02</rscale>
<asrwt>0</asrwt>
<pdfrwt beam="2">  1        2 0.18361703E+00 0.90947912E+02</pdfrwt>
<pdfrwt beam="1">  1       -2 0.26655437E-03 0.90947912E+02</pdfrwt>
<totfact> 0.25048128E+05</totfact>
</mgrwt>
</event>
<event>
 5    1  0.3858846E+001  0.9086314E+02  0.7546771E-02  0.1300775E+00
         -1   -1    0    0    0  501 -0.00000000000E+00  0.00000000000E+00  0.12381326276E+01  0.12381326276E+01  0.00000000000E+00 0.  1.
          1   -1    0    0  501    0  0.00000000000E+00 -0.00000000000E+00 -0.16670489917E+04  0.16670489917E+04  0.00000000000E+00 0. -1.
         23    2    1    2    0    0  0.00000000000E+00  0.00000000000E+00 -0.16658108591E+04  0.16682871244E+04  0.90863144312E+02 0.  0.
          2    1    3    3  502    0  0.46653443130E+01  0.42666511643E+02 -0.11063657058E+04  0.11071979370E+04  0.00000000000E+00 0. -1.
         -2    1    3    3    0  502 -0.46653443130E+01 -0.42666511643E+02 -0.55944515329E+03  0.56108918738E+03  0.00000000000E+00 0.  1.
<mgrwt>
<rscale>  0 0.90863144E+02</rscale>
<asrwt>0</asrwt>
<pdfrwt beam="2">  1        1 0.25647031E+00 0.90863144E+02</pdfrwt>
<pdfrwt beam="1">  1       -1 0.19048102E-03 0.90863144E+02</pdfrwt>
<totfact> 0.10116777E+05</totfact>
</mgrwt>
</event>
<event>
 5    1  0.3858846E+001  0.8809316E+02  0.7546771E-02  0.1307536E+00
          3   -1    0    0  501    0  0.00000000000E+00  0.00000000000E+00  0.17291555254E+01  0.17291555254E+01  0.00000000000E+00 0. -1.
         -3   -1    0    0    0  501 -0.00000000000E+00 -0.00000000000E+00 -0.11219935590E+04  0.11219935590E+04  0.00000000000E+00 0.  1.
         23    2    1    2    0    0  0.00000000000E+00  0.00000000000E+00 -0.11202644035E+04  0.11237227145E+04  0.88093163459E+02 0.  0.
          2    1    3    3  502    0 -0.30586093954E+02  0.24209339238E+02 -0.29917773014E+03  0.30170998568E+03  0.00000000000E+00 0. -1.
         -2    1    3    3    0  502  0.30586093954E+02 -0.24209339238E+02 -0.82108667334E+03  0.82201272885E+03  0.00000000000E+00 0.  1.
<mgrwt>
<rscale>  0 0.88093163E+02</rscale>
<asrwt>0</asrwt>
<pdfrwt beam="1">  1        3 0.26602391E-03 0.88093163E+02</pdfrwt>
<pdfrwt beam="2">  1       -3 0.17261440E+00 0.88093163E+02</pdfrwt>
<totfact> 0.96360259E+03</totfact>
</mgrwt>
</event>
<event>
 5    1  0.3858846E+001  0.9395256E+02  0.7546771E-02  0.1293553E+00
         -1   -1    0    0    0  501 -0.00000000000E+00  0.00000000000E+00  0.25305305470E+03  0.25305305470E+03  0.00000000000E+00 0.  1.
          1   -1    0    0  501    0  0.00000000000E+00 -0.00000000000E+00 -0.87205851737E+01  0.87205851737E+01  0.00000000000E+00 0. -1.
         23    2    1    2    0    0  0.00000000000E+00  0.00000000000E+00  0.24433246952E+03  0.26177363987E+03  0.93952556473E+02 0.  0.
          2    1    3    3  502    0  0.40858296745E+02  0.60585777040E+01  0.59822837227E+02  0.72697170720E+02  0.00000000000E+00 0. -1.
         -2    1    3    3    0  502 -0.40858296745E+02 -0.60585777040E+01  0.18450963230E+03  0.18907646915E+03  0.00000000000E+00 0.  1.
<mgrwt>
<rscale>  0 0.93952556E+02</rscale>
<asrwt>0</asrwt>
<pdfrwt beam="2">  1        1 0.13416287E-02 0.93952556E+02</pdfrwt>
<pdfrwt beam="1">  1       -1 0.38931234E-01 0.93952556E+02</pdfrwt>
<totfact> 0.59631729E+04</totfact>
</mgrwt>
</event>
<event>
 5    1  0.3858846E+001  0.8971057E+02  0.7546771E-02  0.1303554E+00
          1   -1    0    0  501    0  0.00000000000E+00  0.00000000000E+00  0.40166990839E+03  0.40166990839E+03  0.00000000000E+00 0. -1.
         -1   -1    0    0    0  501 -0.00000000000E+00 -0.00000000000E+00 -0.50090793644E+01  0.50090793644E+01  0.00000000000E+00 0.  1.
         23    2    1    2    0    0  0.00000000000E+00  0.00000000000E+00  0.39666082903E+03  0.40667898776E+03  0.89710566812E+02 0.  0.
          2    1    3    3  502    0  0.72203321977E+01  0.38634883812E+02  0.10034448072E+03  0.10776735245E+03  0.00000000000E+00 0. -1.
         -2    1    3    3    0  502 -0.72203321977E+01 -0.38634883812E+02  0.29631634831E+03  0.29891163530E+03  0.00000000000E+00 0.  1.
<mgrwt>
<rscale>  0 0.89710567E+02</rscale>
<asrwt>0</asrwt>
<pdfrwt beam="1">  1        1 0.61795346E-01 0.89710567E+02</pdfrwt>
<pdfrwt beam="2">  1       -1 0.77062791E-03 0.89710567E+02</pdfrwt>
<totfact> 0.14091359E+05</totfact>
</mgrwt>
</event>
<event>
 5    1  0.3858846E+001  0.9079160E+02  0.7546771E-02  0.1300946E+00
         -4   -1    0    0    0  501 -0.00000000000E+00  0.00000000000E+00  0.60706816283E+02  0.60706816283E+02  0.00000000000E+00 0.  1.
          4   -1    0    0  501    0  0.00000000000E+00 -0.00000000000E+00 -0.33946415508E+02  0.33946415508E+02  0.00000000000E+00 0. -1.
         23    2    1    2    0    0  0.00000000000E+00  0.00000000000E+00  0.26760400775E+02  0.94653231791E+02  0.90791603350E+02 0.  0.
          2    1    3    3  502    0 -0.44979942403E+02  0.59181159225E+01  0.15048088479E+02  0.47798161905E+02  0.00000000000E+00 0.  1.
         -2    1    3    3    0  502  0.44979942403E+02 -0.59181159225E+01  0.11712312297E+02  0.46855069886E+02  0.00000000000E+00 0. -1.
<mgrwt>
<rscale>  0 0.90791603E+02</rscale>
<asrwt>0</asrwt>
<pdfrwt beam="2">  1        4 0.52225255E-02 0.90791603E+02</pdfrwt>
<pdfrwt beam="1">  1       -4 0.93395102E-02 0.90791603E+02</pdfrwt>
<totfact> 0.27103061E+04</totfact>
</mgrwt>
</event>
<event>
 4    1  0.3858846E+001  0.5385954E+02  0.7546771E-02  0.1425570E+00
          3   -1    0    0  501    0  0.00000000000E+00  0.00000000000E+00  0.25534641897E+01  0.25534641897E+01  0.00000000000E+00 0. -1.
         -3   -1    0    0    0  501 -0.00000000000E+00 -0.00000000000E+00 -0.28401127340E+03  0.28401127340E+03  0.00000000000E+00 0.  1.
          2    1    1    2  502    0  0.17691157854E+02 -0.13541084171E+02 -0.22122204409E+03  0.22234102369E+03  0.00000000000E+00 0.  1.
         -2    1    1    2    0  502 -0.17691157854E+02  0.13541084171E+02 -0.60235765124E+02  0.64223713898E+02  0.00000000000E+00 0. -1.
<mgrwt>
<rscale>  0 0.53859544E+02</rscale>
<asrwt>0</asrwt>
<pdfrwt beam="1">  1        3 0.39284047E-03 0.53859544E+02</pdfrwt>
<pdfrwt beam="2">  1       -3 0.43694061E-01 0.53859544E+02</pdfrwt>
<totfact> 0.96429201E+04</totfact>
</mgrwt>
</event>
<event>
 5    1  0.3858846E+001  0.9093411E+02  0.7546771E-02  0.1300605E+00
         -2   -1    0    0    0  501 -0.00000000000E+00  0.00000000000E+00  0.53930151633E+01  0.53930151633E+01  0.00000000000E+00 0. -1.
          2   -1    0    0  501    0  0.00000000000E+00 -0.00000000000E+00 -0.38332047536E+03  0.38332047536E+03  0.00000000000E+00 0.  1.
         23    2    1    2    0    0  0.00000000000E+00  0.00000000000E+00 -0.37792746020E+03  0.38871349052E+03  0.90934111004E+02 0.  0.
          2    1    3    3  502    0 -0.45348035692E+02 -0.24592996864E+01 -0.19829059004E+03  0.20342480329E+03  0.00000000000E+00 0. -1.
         -2    1    3    3    0  502  0.45348035692E+02  0.24592996864E+01 -0.17963687016E+03  0.18528868723E+03  0.00000000000E+00 0.  1.
<mgrwt>
<rscale>  0 0.90934111E+02</rscale>
<asrwt>0</asrwt>
<pdfrwt beam="2">  1        2 0.58972376E-01 0.90934111E+02</pdfrwt>
<pdfrwt beam="1">  1       -2 0.82969471E-03 0.90934111E+02</pdfrwt>
<totfact> 0.19798795E+05</totfact>
</mgrwt>
</event>
<event>
 5    1  0.3858846E+001  0.9585780E+02  0.7546771E-02  0.1289256E+00
          1   -1    0    0  501    0  0.00000000000E+00  0.00000000000E+00  0.96826800873E+01  0.96826800873E+01  0.00000000000E+00 0. -1.
         -1   -1    0    0    0  501 -0.00000000000E+00 -0.00000000000E+00 -0.23724625088E+03  0.23724625088E+03  0.00000000000E+00 0.  1.
         23    2    1    2    0    0  0.00000000000E+00  0.00000000000E+00 -0.22756357079E+03  0.24692893096E+03  0.95857801960E+02 0.  0.
          2    1    3    3  502    0  0.38155298119E+02 -0.27698173923E+02 -0.91597732355E+02  0.10302019310E+03  0.00000000000E+00 0. -1.
         -2    1    3    3    0  502 -0.38155298119E+02  0.27698173923E+02 -0.13596583843E+03  0.14390873787E+03  0.00000000000E+00 0.  1.
<mgrwt>
<rscale>  0 0.95857802E+02</rscale>
<asrwt>0</asrwt>
<pdfrwt beam="1">  1        1 0.14896432E-02 0.95857802E+02</pdfrwt>
<pdfrwt beam="2">  1       -1 0.36499421E-01 0.95857802E+02</pdfrwt>
<totfact> 0.57811472E+04</totfact>
</mgrwt>
</event>
<event>
 4    1  0.3858846E+001  0.1293780E+03  0.7546771E-02  0.1228382E+00
         -1   -1    0    0    0  501 -0.00000000000E+00  0.00000000000E+00  0.61662064098E+02  0.61662064098E+02  0.00000000000E+00 0. -1.
          1   -1    0    0  501    0  0.00000000000E+00 -0.00000000000E+00 -0.67864489342E+02  0.67864489342E+02  0.00000000000E+00 0.  1.
          2    1    1    2  502    0  0.20109727245E+02  0.49772367911E+02  0.33036985339E+02  0.63032786211E+02  0.00000000000E+00 0. -1.
         -2    1    1    2    0  502 -0.20109727245E+02 -0.49772367911E+02 -0.39239410583E+02  0.66493767228E+02  0.00000000000E+00 0.  1.
<mgrwt>
<rscale>  0 0.12937797E+03</rscale>
<asrwt>0</asrwt>
<pdfrwt beam="2">  1        1 0.10440691E-01 0.12937797E+03</pdfrwt>
<pdfrwt beam="1">  1       -1 0.94864714E-02 0.12937797E+03</pdfrwt>
<totfact> 0.36370880E+04</totfact>
</mgrwt>
</event>
<event>
 5    1  0.3858846E+001  0.9168948E+02  0.7546771E-02  0.1298811E+00
         -1   -1    0    0    0  501 -0.00000000000E+00  0.00000000000E+00  0.27360482202E+02  0.27360482202E+02  0.00000000000E+00 0.  1.
          1   -1    0    0  501    0  0.00000000000E+00 -0.00000000000E+00 -0.76816639444E+02  0.76816639444E+02  0.00000000000E+00 0. -1.
         23    2    1    2    0    0  0.00000000000E+00  0.00000000000E+00 -0.49456157242E+02  0.10417712165E+03  0.91689482414E+02 0.  0.
          2    1    3    3  502    0 -0.26641816371E+01  0.41194930655E+02 -0.47384275465E+02  0.62844170269E+02  0.00000000000E+00 0. -1.
         -2    1    3    3    0  502  0.26641816371E+01 -0.41194930655E+02 -0.20718817774E+01  0.41332951377E+02  0.00000000000E+00 0.  1.
<mgrwt>
<rscale>  0 0.91689482E+02</rscale>
<asrwt>0</asrwt>
<pdfrwt beam="2">  1        1 0.11817944E-01 0.91689482E+02</pdfrwt>
<pdfrwt beam="1">  1       -1 0.42093050E-02 0.91689482E+02</pdfrwt>
<totfact> 0.98570242E+04</totfact>
</mgrwt>
</event>
<event>
 5    1  0.3858846E+001  0.9152752E+02  0.7546771E-02  0.1299194E+00
         -2   -1    0    0    0  501 -0.00000000000E+00  0.00000000000E+00  0.18548921902E+01  0.18548921902E+01  0.00000000000E+00 0.  1.
          2   -1    0    0  501    0  0.00000000000E+00 -0.00000000000E+00 -0.11290800415E+04  0.11290800415E+04  0.00000000000E+00 0. -1.
         23    2    1    2    0    0  0.00000000000E+00  0.00000000000E+00 -0.11272251493E+04  0.11309349337E+04  0.91527520474E+02 0.  0.
          2    1    3    3  502    0 -0.28934119424E+01  0.38655612849E+02 -0.86417475061E+03  0.86504371441E+03  0.00000000000E+00 0. -1.
         -2    1    3    3    0  502  0.28934119424E+01 -0.38655612849E+02 -0.26305039867E+03  0.26589121926E+03  0.00000000000E+00 0.  1.
<mgrwt>
<rscale>  0 0.91527520E+02</rscale>
<asrwt>0</asrwt>
<pdfrwt beam="2">  1        2 0.17370436E+00 0.91527520E+02</pdfrwt>
<pdfrwt beam="1">  1       -2 0.28536845E-03 0.91527520E+02</pdfrwt>
<totfact> 0.24740280E+05</totfact>
</mgrwt>
</event>
<event>
 5    1  0.3858846E+001  0.9191207E+02  0.7546771E-02  0.1298286E+00
         -2   -1    0    0    0  501 -0.00000000000E+00  0.00000000000E+00  0.52593190187E+02  0.52593190187E+02  0.00000000000E+00 0.  1.
          2   -1    0    0  501    0  0.00000000000E+00 -0.00000000000E+00 -0.40156471739E+02  0.40156471739E+02  0.00000000000E+00 0. -1.
         23    2    1    2    0    0  0.00000000000E+00  0.00000000000E+00  0.12436718449E+02  0.92749661926E+02  0.91912065702E+02 0.  0.
          2    1    3    3  502    0  0.18560163115E+02 -0.37775641078E+02 -0.12401847152E+02  0.43878064298E+02  0.00000000000E+00 0. -1.
         -2    1    3    3    0  502 -0.18560163115E+02  0.37775641078E+02  0.24838565600E+02  0.48871597629E+02  0.00000000000E+00 0.  1.
<mgrwt>
<rscale>  0 0.91912066E+02</rscale>
<asrwt>0</asrwt>
<pdfrwt beam="2">  1        2 0.61779187E-02 0.91912066E+02</pdfrwt>
<pdfrwt beam="1">  1       -2 0.80912600E-02 0.91912066E+02</pdfrwt>
<totfact> 0.93285781E+04</totfact>
</mgrwt>
</event>
<event>
 5    1  0.3858846E+001  0.9091655E+02  0.7546771E-02  0.1300647E+00
         -2   -1    0    0    0  501 -0.00000000000E+00  0.00000000000E+00  0.15547466542E+01  0.15547466542E+01  0.00000000000E+00 0.  1.
          2   -1    0    0  501    0  0.00000000000E+00 -0.00000000000E+00 -0.13291264257E+04  0.13291264257E+04  0.00000000000E+00 0. -1.
         23    2    1    2    0    0  0.00000000000E+00  0.00000000000E+00 -0.13275716791E+04  0.13306811724E+04  0.90916552142E+02 0.  0.
          2    1    3    3  502    0  0.97676100843E+00  0.37422376393E+02 -0.10412394693E+04  0.10419121943E+04  0.00000000000E+00 0. -1.
         -2    1    3    3    0  502 -0.97676100843E+00 -0.37422376393E+02 -0.28633220976E+03  0.28876897802E+03  0.00000000000E+00 0.  1.
<mgrwt>
<rscale>  0 0.90916552E+02</rscale>
<asrwt>0</asrwt>
<pdfrwt beam="2">  1        2 0.20448200E+00 0.90916552E+02</pdfrwt>
<pdfrwt beam="1">  1       -2 0.23919060E-03 0.90916552E+02</pdfrwt>
<totfact> 0.24641770E+05</totfact>
</mgrwt>
</event>
<event>
 5    1  0.3858846E+001  0.8996787E+02  0.7546771E-02  0.1302930E+00
          1   -1    0    0  501    0  0.00000000000E+00  0.00000000000E+00  0.62598468404E+02  0.62598468404E+02  0.00000000000E+00 0. -1.
         -1   -1    0    0    0  501 -0.00000000000E+00 -0.00000000000E+00 -0.32325940072E+02  0.32325940072E+02  0.00000000000E+00 0.  1.
         23    2    1    2    0    0  0.00000000000E+00  0.00000000000E+00  0.30272528332E+02  0.94924408476E+02  0.89967868447E+02 0.  0.
          2    1    3    3  502    0  0.38698475125E+02 -0.22927233602E+02  0.15737130343E+02  0.47653827643E+02  0.00000000000E+00 0. -1.
         -2    1    3    3    0  502 -0.38698475125E+02  0.22927233602E+02  0.14535397989E+02  0.47270580833E+02  0.00000000000E+00 0.  1.
<mgrwt>
<rscale>  0 0.89967868E+02</rscale>
<asrwt>0</asrwt>
<pdfrwt beam="1">  1        1 0.96305336E-02 0.89967868E+02</pdfrwt>
<pdfrwt beam="2">  1       -1 0.49732216E-02 0.89967868E+02</pdfrwt>
<totfact> 0.10063889E+05</totfact>
</mgrwt>
</event>
<event>
 5    1  0.3858846E+001  0.9147011E+02  0.7546771E-02  0.1299330E+00
          2   -1    0    0  501    0  0.00000000000E+00  0.00000000000E+00  0.20317581572E+04  0.20317581572E+04  0.00000000000E+00 0. -1.
         -2   -1    0    0    0  501 -0.00000000000E+00 -0.00000000000E+00 -0.10295001666E+01  0.10295001666E+01  0.00000000000E+00 0.  1.
         23    2    1    2    0    0  0.00000000000E+00  0.00000000000E+00  0.20307286570E+04  0.20327876573E+04  0.91470112305E+02 0.  0.
          2    1    3    3  502    0 -0.19653107903E+02 -0.39076525635E+02  0.13122590927E+04  0.13129878697E+04  0.00000000000E+00 0. -1.
         -2    1    3    3    0  502  0.19653107903E+02  0.39076525635E+02  0.71846956430E+03  0.71979978767E+03  0.00000000000E+00 0.  1.
<mgrwt>
<rscale>  0 0.91470112E+02</rscale>
<asrwt>0</asrwt>
<pdfrwt beam="1">  1        2 0.31257497E+00 0.91470112E+02</pdfrwt>
<pdfrwt beam="2">  1       -2 0.15838627E-03 0.91470112E+02</pdfrwt>
<totfact> 0.19223726E+05</totfact>
</mgrwt>
</event>
<event>
 5    1  0.3858846E+001  0.9150504E+02  0.7546771E-02  0.1299247E+00
         -2   -1    0    0    0  501 -0.00000000000E+00  0.00000000000E+00  0.89158665016E+01  0.89158665016E+01  0.00000000000E+00 0.  1.
          2   -1    0    0  501    0  0.00000000000E+00 -0.00000000000E+00 -0.23478292034E+03  0.23478292034E+03  0.00000000000E+00 0. -1.
         23    2    1    2    0    0  0.00000000000E+00  0.00000000000E+00 -0.22586705384E+03  0.24369878684E+03  0.91505041929E+02 0.  0.
          2    1    3    3  502    0  0.13845311798E+00  0.44273335817E+02 -0.82202860223E+02  0.93367326525E+02  0.00000000000E+00 0. -1.
         -2    1    3    3    0  502 -0.13845311798E+00 -0.44273335817E+02 -0.14366419361E+03  0.15033146031E+03  0.00000000000E+00 0.  1.
<mgrwt>
<rscale>  0 0.91505042E+02</rscale>
<asrwt>0</asrwt>
<pdfrwt beam="2">  1        2 0.36120444E-01 0.91505042E+02</pdfrwt>
<pdfrwt beam="1">  1       -2 0.13716720E-02 0.91505042E+02</pdfrwt>
<totfact> 0.16243805E+05</totfact>
</mgrwt>
</event>
<event>
 5    1  0.3858846E+001  0.7578600E+02  0.7546771E-02  0.1341454E+00
         -1   -1    0    0    0  501 -0.00000000000E+00  0.00000000000E+00  0.55003159379E+02  0.55003159379E+02  0.00000000000E+00 0.  1.
          1   -1    0    0  501    0  0.00000000000E+00 -0.00000000000E+00 -0.26105400520E+02  0.26105400520E+02  0.00000000000E+00 0. -1.
         23    2    1    2    0    0  0.00000000000E+00  0.00000000000E+00  0.28897758858E+02  0.81108559899E+02  0.75786001490E+02 0.  0.
          2    1    3    3  502    0 -0.18630102523E+02 -0.18707352622E+02  0.43539370823E+02  0.50918784096E+02  0.00000000000E+00 0.  1.
         -2    1    3    3    0  502  0.18630102523E+02  0.18707352622E+02 -0.14641611965E+02  0.30189775803E+02  0.00000000000E+00 0. -1.
<mgrwt>
<rscale>  0 0.75786001E+02</rscale>
<asrwt>0</asrwt>
<pdfrwt beam="2">  1        1 0.40162155E-02 0.75786001E+02</pdfrwt>
<pdfrwt beam="1">  1       -1 0.84620245E-02 0.75786001E+02</pdfrwt>
<totfact> 0.14332218E+05</totfact>
</mgrwt>
</event>
<event>
 5    1  0.3858846E+001  0.8849931E+02  0.7546771E-02  0.1306527E+00
         -2   -1    0    0    0  501 -0.00000000000E+00  0.00000000000E+00  0.93454910785E+00  0.93454910785E+00  0.00000000000E+00 0.  1.
          2   -1    0    0  501    0  0.00000000000E+00 -0.00000000000E+00 -0.20951622635E+04  0.20951622635E+04  0.00000000000E+00 0. -1.
         23    2    1    2    0    0  0.00000000000E+00  0.00000000000E+00 -0.20942277144E+04  0.20960968126E+04  0.88499311279E+02 0.  0.
          2    1    3    3  502    0 -0.31492299952E+02 -0.29692415940E+02 -0.12649987963E+04  0.12657390566E+04  0.00000000000E+00 0. -1.
         -2    1    3    3    0  502  0.31492299952E+02  0.29692415940E+02 -0.82922891808E+03  0.83035775609E+03  0.00000000000E+00 0.  1.
<mgrwt>
<rscale>  0 0.88499311E+02</rscale>
<asrwt>0</asrwt>
<pdfrwt beam="2">  1        2 0.32233457E+00 0.88499311E+02</pdfrwt>
<pdfrwt beam="1">  1       -2 0.14377593E-03 0.88499311E+02</pdfrwt>
<totfact> 0.20333105E+05</totfact>
</mgrwt>
</event>
<event>
 5    1  0.3858846E+001  0.9967449E+02  0.7546771E-02  0.1280982E+00
          3   -1    0    0  501    0  0.00000000000E+00  0.00000000000E+00  0.69727822156E+02  0.69727822156E+02  0.00000000000E+00 0. -1.
         -3   -1    0    0    0  501 -0.00000000000E+00 -0.00000000000E+00 -0.35620660552E+02  0.35620660552E+02  0.00000000000E+00 0.  1.
         23    2    1    2    0    0  0.00000000000E+00  0.00000000000E+00  0.34107161603E+02  0.10534848271E+03  0.99674491903E+02 0.  0.
          2    1    3    3  502    0 -0.26923153216E+02  0.28962661747E+02 -0.15005578097E+02  0.42294909015E+02  0.00000000000E+00 0.  1.
         -2    1    3    3    0  502  0.26923153216E+02 -0.28962661747E+02  0.49112739701E+02  0.63053573693E+02  0.00000000000E+00 0. -1.
<mgrwt>
<rscale>  0 0.99674492E+02</rscale>
<asrwt>0</asrwt>
<pdfrwt beam="1">  1        3 0.10727357E-01 0.99674492E+02</pdfrwt>
<pdfrwt beam="2">  1       -3 0.54801016E-02 0.99674492E+02</pdfrwt>
<totfact> 0.26858004E+04</totfact>
</mgrwt>
</event>
<event>
 5    1  0.3858846E+001  0.9056318E+02  0.7546771E-02  0.1301494E+00
         -1   -1    0    0    0  501 -0.00000000000E+00  0.00000000000E+00  0.23336369875E+01  0.23336369875E+01  0.00000000000E+00 0.  1.
          1   -1    0    0  501    0  0.00000000000E+00 -0.00000000000E+00 -0.87863807807E+03  0.87863807807E+03  0.00000000000E+00 0. -1.
         23    2    1    2    0    0  0.00000000000E+00  0.00000000000E+00 -0.87630444108E+03  0.88097171506E+03  0.90563178337E+02 0.  0.
          2    1    3    3  502    0  0.25440973588E+02 -0.93085313870E+01 -0.79111243858E+03  0.79157613807E+03  0.00000000000E+00 0. -1.
         -2    1    3    3    0  502 -0.25440973588E+02  0.93085313870E+01 -0.85192002504E+02  0.89395576984E+02  0.00000000000E+00 0.  1.
<mgrwt>
<rscale>  0 0.90563178E+02</rscale>
<asrwt>0</asrwt>
<pdfrwt beam="2">  1        1 0.13517514E+00 0.90563178E+02</pdfrwt>
<pdfrwt beam="1">  1       -1 0.35902093E-03 0.90563178E+02</pdfrwt>
<totfact> 0.14223929E+05</totfact>
</mgrwt>
</event>
<event>
 5    1  0.3858846E+001  0.9044109E+02  0.7546771E-02  0.1301787E+00
         -2   -1    0    0    0  501 -0.00000000000E+00  0.00000000000E+00  0.10731708175E+01  0.10731708175E+01  0.00000000000E+00 0.  1.
          2   -1    0    0  501    0  0.00000000000E+00 -0.00000000000E+00 -0.19054728576E+04  0.19054728576E+04  0.00000000000E+00 0. -1.
         23    2    1    2    0    0  0.00000000000E+00  0.00000000000E+00 -0.19043996868E+04  0.19065460284E+04  0.90441093853E+02 0.  0.
          2    1    3    3  502    0 -0.27520454569E+02  0.30580910775E+02 -0.13478911512E+04  0.13485188627E+04  0.00000000000E+00 0.  1.
         -2    1    3    3    0  502  0.27520454569E+02 -0.30580910775E+02 -0.55650853556E+03  0.55802716571E+03  0.00000000000E+00 0. -1.
<mgrwt>
<rscale>  0 0.90441094E+02</rscale>
<asrwt>0</asrwt>
<pdfrwt beam="2">  1        2 0.29314723E+00 0.90441094E+02</pdfrwt>
<pdfrwt beam="1">  1       -2 0.16510457E-03 0.90441094E+02</pdfrwt>
<totfact> 0.20975812E+05</totfact>
</mgrwt>
</event>
<event>
 5    1  0.3858846E+001  0.8927138E+02  0.7546771E-02  0.1304626E+00
          2   -1    0    0  501    0  0.00000000000E+00  0.00000000000E+00  0.46756757492E+03  0.46756757492E+03  0.00000000000E+00 0. -1.
         -2   -1    0    0    0  501 -0.00000000000E+00 -0.00000000000E+00 -0.42610845329E+01  0.42610845329E+01  0.00000000000E+00 0.  1.
         23    2    1    2    0    0  0.00000000000E+00  0.00000000000E+00  0.46330649039E+03  0.47182865946E+03  0.89271383132E+02 0.  0.
          2    1    3    3  502    0 -0.64009155897E+01  0.31513138783E+02  0.39526772584E+03  0.39657360569E+03  0.00000000000E+00 0. -1.
         -2    1    3    3    0  502  0.64009155897E+01 -0.31513138783E+02  0.68038764547E+02  0.75255053767E+02  0.00000000000E+00 0.  1.
<mgrwt>
<rscale>  0 0.89271383E+02</rscale>
<asrwt>0</asrwt>
<pdfrwt beam="1">  1        2 0.71933433E-01 0.89271383E+02</pdfrwt>
<pdfrwt beam="2">  1       -2 0.65555184E-03 0.89271383E+02</pdfrwt>
<totfact> 0.22287435E+05</totfact>
</mgrwt>
</event>
<event>
 5    1  0.3858846E+001  0.8388728E+02  0.7546771E-02  0.1318368E+00
          3   -1    0    0  501    0  0.00000000000E+00  0.00000000000E+00  0.32915721575E+02  0.32915721575E+02  0.00000000000E+00 0. -1.
         -3   -1    0    0    0  501 -0.00000000000E+00 -0.00000000000E+00 -0.53447678854E+02  0.53447678854E+02  0.00000000000E+00 0.  1.
         23    2    1    2    0    0  0.00000000000E+00  0.00000000000E+00 -0.20531957278E+02  0.86363400429E+02  0.83887279512E+02 0.  0.
          2    1    3    3  502    0  0.24426194073E+02  0.19992912597E+02  0.18170200814E+02  0.36421308442E+02  0.00000000000E+00 0. -1.
         -2    1    3    3    0  502 -0.24426194073E+02 -0.19992912597E+02 -0.38702158092E+02  0.49942091987E+02  0.00000000000E+00 0.  1.
<mgrwt>
<rscale>  0 0.83887280E+02</rscale>
<asrwt>0</asrwt>
<pdfrwt beam="1">  1        3 0.50639572E-02 0.83887280E+02</pdfrwt>
<pdfrwt beam="2">  1       -3 0.82227198E-02 0.83887280E+02</pdfrwt>
<totfact> 0.44758241E+04</totfact>
</mgrwt>
</event>
<event>
 5    1  0.3858846E+001  0.9082689E+02  0.7546771E-02  0.1300862E+00
         -1   -1    0    0    0  501 -0.00000000000E+00  0.00000000000E+00  0.97342964088E+00  0.97342964088E+00  0.00000000000E+00 0.  1.
          1   -1    0    0  501    0  0.00000000000E+00 -0.00000000000E+00 -0.21186747204E+04  0.21186747204E+04  0.00000000000E+00 0. -1.
         23    2    1    2    0    0  0.00000000000E+00  0.00000000000E+00 -0.21177012907E+04  0.21196481500E+04  0.90826885275E+02 0.  0.
          2    1    3    3  502    0  0.10028830788E+02  0.43672531728E+02 -0.88654457316E+03  0.88767626288E+03  0.00000000000E+00 0. -1.
         -2    1    3    3    0  502 -0.10028830788E+02 -0.43672531728E+02 -0.12311567176E+04  0.12319718871E+04  0.00000000000E+00 0.  1.
<mgrwt>
<rscale>  0 0.90826885E+02</rscale>
<asrwt>0</asrwt>
<pdfrwt beam="2">  1        1 0.32595126E+00 0.90826885E+02</pdfrwt>
<pdfrwt beam="1">  1       -1 0.14975781E-03 0.90826885E+02</pdfrwt>
<totfact> 0.73480585E+04</totfact>
</mgrwt>
</event>
<event>
 5    1  0.3858846E+001  0.9155294E+02  0.7546771E-02  0.1299134E+00
          1   -1    0    0  501    0  0.00000000000E+00  0.00000000000E+00  0.10388737018E+03  0.10388737018E+03  0.00000000000E+00 0. -1.
         -1   -1    0    0    0  501 -0.00000000000E+00 -0.00000000000E+00 -0.20170741851E+02  0.20170741851E+02  0.00000000000E+00 0.  1.
         23    2    1    2    0    0  0.00000000000E+00  0.00000000000E+00  0.83716628332E+02  0.12405811203E+03  0.91552942619E+02 0.  0.
          2    1    3    3  502    0 -0.21003350098E+02  0.39919994459E+02  0.52418837413E+02  0.69155485600E+02  0.00000000000E+00 0. -1.
         -2    1    3    3    0  502  0.21003350098E+02 -0.39919994459E+02  0.31297790919E+02  0.54902626434E+02  0.00000000000E+00 0.  1.
<mgrwt>
<rscale>  0 0.91552943E+02</rscale>
<asrwt>0</asrwt>
<pdfrwt beam="1">  1        1 0.15982672E-01 0.91552943E+02</pdfrwt>
<pdfrwt beam="2">  1       -1 0.31031911E-02 0.91552943E+02</pdfrwt>
<totfact> 0.10394605E+05</totfact>
</mgrwt>
</event>
<event>
 5    1  0.3858846E+001  0.9194478E+02  0.7546771E-02  0.1298209E+00
          2   -1    0    0  501    0  0.00000000000E+00  0.00000000000E+00  0.17460851369E+02  0.17460851369E+02  0.00000000000E+00 0.  1.
         -2   -1    0    0    0  501 -0.00000000000E+00 -0.00000000000E+00 -0.12103994167E+03  0.12103994167E+03  0.00000000000E+00 0. -1.
         23    2    1    2    0    0  0.00000000000E+00  0.00000000000E+00 -0.10357909031E+03  0.13850079304E+03  0.91944775409E+02 0.  0.
          2    1    3    3  502    0 -0.65435985985E+01 -0.30509027335E+02 -0.10264614735E+03  0.10728397363E+03  0.00000000000E+00 0. -1.
         -2    1    3    3    0  502  0.65435985985E+01  0.30509027335E+02 -0.93294295079E+00  0.31216819411E+02  0.00000000000E+00 0.  1.
<mgrwt>
<rscale>  0 0.91944775E+02</rscale>
<asrwt>0</asrwt>
<pdfrwt beam="1">  1        2 0.26862849E-02 0.91944775E+02</pdfrwt>
<pdfrwt beam="2">  1       -2 0.18621529E-01 0.91944775E+02</pdfrwt>
<totfact> 0.73637653E+04</totfact>
</mgrwt>
</event>
<event>
 5    1  0.3858846E+001  0.8928138E+02  0.7546771E-02  0.1304601E+00
          4   -1    0    0  501    0  0.00000000000E+00  0.00000000000E+00  0.50216373988E+03  0.50216373988E+03  0.00000000000E+00 0. -1.
         -4   -1    0    0    0  501 -0.00000000000E+00 -0.00000000000E+00 -0.39684093425E+01  0.39684093425E+01  0.00000000000E+00 0.  1.
         23    2    1    2    0    0  0.00000000000E+00  0.00000000000E+00  0.49819533054E+03  0.50613214922E+03  0.89281381639E+02 0.  0.
          2    1    3    3  502    0 -0.39094050964E+02  0.26725950646E+01  0.12786898549E+03  0.13373842019E+03  0.00000000000E+00 0.  1.
         -2    1    3    3    0  502  0.39094050964E+02 -0.26725950646E+01  0.37032634505E+03  0.37239372903E+03  0.00000000000E+00 0. -1.
<mgrwt>
<rscale>  0 0.89281382E+02</rscale>
<asrwt>0</asrwt>
<pdfrwt beam="1">  1        4 0.77255910E-01 0.89281382E+02</pdfrwt>
<pdfrwt beam="2">  1       -4 0.61052491E-03 0.89281382E+02</pdfrwt>
<totfact> 0.13693445E+04</totfact>
</mgrwt>
</event>
<event>
 5    1  0.3858846E+001  0.6829468E+02  0.7546771E-02  0.1365990E+00
          1   -1    0    0  501    0  0.00000000000E+00  0.00000000000E+00  0.39995907094E+03  0.39995907094E+03  0.00000000000E+00 0. -1.
         -1   -1    0    0    0  501 -0.00000000000E+00 -0.00000000000E+00 -0.29154002983E+01  0.29154002983E+01  0.00000000000E+00 0.  1.
         23    2    1    2    0    0  0.00000000000E+00  0.00000000000E+00  0.39704367064E+03  0.40287447124E+03  0.68294678994E+02 0.  0.
          2    1    3    3  502    0 -0.20850402576E+02  0.26689462347E+02  0.22421771858E+03  0.22676122247E+03  0.00000000000E+00 0. -1.
         -2    1    3    3    0  502  0.20850402576E+02 -0.26689462347E+02  0.17282595206E+03  0.17611324877E+03  0.00000000000E+00 0.  1.
<mgrwt>
<rscale>  0 0.68294679E+02</rscale>
<asrwt>0</asrwt>
<pdfrwt beam="1">  1        1 0.61532121E-01 0.68294679E+02</pdfrwt>
<pdfrwt beam="2">  1       -1 0.44852344E-03 0.68294679E+02</pdfrwt>
<totfact> 0.28726248E+05</totfact>
</mgrwt>
</event>
<event>
 5    1  0.3858846E+001  0.9087503E+02  0.7546771E-02  0.1300746E+00
         -1   -1    0    0    0  501 -0.00000000000E+00  0.00000000000E+00  0.35034915178E+01  0.35034915178E+01  0.00000000000E+00 0.  1.
          1   -1    0    0  501    0  0.00000000000E+00 -0.00000000000E+00 -0.58928869417E+03  0.58928869417E+03  0.00000000000E+00 0. -1.
         23    2    1    2    0    0  0.00000000000E+00  0.00000000000E+00 -0.58578520266E+03  0.59279218569E+03  0.90875033790E+02 0.  0.
          2    1    3    3  502    0  0.30090501130E+02 -0.19337186819E+02 -0.11010411806E+03  0.11576822477E+03  0.00000000000E+00 0.  1.
         -2    1    3    3    0  502 -0.30090501130E+02  0.19337186819E+02 -0.47568108459E+03  0.47702396092E+03  0.00000000000E+00 0. -1.
<mgrwt>
<rscale>  0 0.90875034E+02</rscale>
<asrwt>0</asrwt>
<pdfrwt beam="2">  1        1 0.90659727E-01 0.90875034E+02</pdfrwt>
<pdfrwt beam="1">  1       -1 0.53899912E-03 0.90875034E+02</pdfrwt>
<totfact> 0.14267278E+05</totfact>
</mgrwt>
</event>
<event>
 5    1  0.3858846E+001  0.9137283E+02  0.7546771E-02  0.1299561E+00
         -2   -1    0    0    0  501 -0.00000000000E+00  0.00000000000E+00  0.33541866365E+02  0.33541866365E+02  0.00000000000E+00 0.  1.
          2   -1    0    0  501    0  0.00000000000E+00 -0.00000000000E+00 -0.62228162023E+02  0.62228162023E+02  0.00000000000E+00 0. -1.
         23    2    1    2    0    0  0.00000000000E+00  0.00000000000E+00 -0.28686295658E+02  0.95770028388E+02  0.91372833921E+02 0.  0.
          2    1    3    3  502    0 -0.44974258113E+02 -0.42642737243E+01 -0.72050662717E+01  0.45746922335E+02  0.00000000000E+00 0. -1.
         -2    1    3    3    0  502  0.44974258113E+02  0.42642737243E+01 -0.21481229386E+02  0.50023106052E+02  0.00000000000E+00 0.  1.
<mgrwt>
<rscale>  0 0.91372834E+02</rscale>
<asrwt>0</asrwt>
<pdfrwt beam="2">  1        2 0.95735633E-02 0.91372834E+02</pdfrwt>
<pdfrwt beam="1">  1       -2 0.51602872E-02 0.91372834E+02</pdfrwt>
<totfact> 0.10646943E+05</totfact>
</mgrwt>
</event>
<event>
 5    1  0.3858846E+001  0.7846487E+02  0.7546771E-02  0.1333465E+00
          2   -1    0    0  501    0  0.00000000000E+00  0.00000000000E+00  0.65135344570E+03  0.65135344570E+03  0.00000000000E+00 0. -1.
         -2   -1    0    0    0  501 -0.00000000000E+00 -0.00000000000E+00 -0.23630546849E+01  0.23630546849E+01  0.00000000000E+00 0.  1.
         23    2    1    2    0    0  0.00000000000E+00  0.00000000000E+00  0.64899039102E+03  0.65371650039E+03  0.78464866313E+02 0.  0.
          2    1    3    3  502    0  0.32802482593E+02 -0.52176587309E+01  0.49844983970E+03  0.49955527174E+03  0.00000000000E+00 0. -1.
         -2    1    3    3    0  502 -0.32802482593E+02  0.52176587309E+01  0.15054055132E+03  0.15416122865E+03  0.00000000000E+00 0.  1.
<mgrwt>
<rscale>  0 0.78464866E+02</rscale>
<asrwt>0</asrwt>
<pdfrwt beam="1">  1        2 0.10020808E+00 0.78464866E+02</pdfrwt>
<pdfrwt beam="2">  1       -2 0.36354739E-03 0.78464866E+02</pdfrwt>
<totfact> 0.34521315E+05</totfact>
</mgrwt>
</event>
<event>
 5    1  0.3858846E+001  0.9188917E+02  0.7546771E-02  0.1298340E+00
         -1   -1    0    0    0  501 -0.00000000000E+00  0.00000000000E+00  0.62887340260E+01  0.62887340260E+01  0.00000000000E+00 0.  1.
          1   -1    0    0  501    0  0.00000000000E+00 -0.00000000000E+00 -0.33566454013E+03  0.33566454013E+03  0.00000000000E+00 0. -1.
         23    2    1    2    0    0  0.00000000000E+00  0.00000000000E+00 -0.32937580611E+03  0.34195327416E+03  0.91889172700E+02 0.  0.
          2    1    3    3  502    0 -0.42028555276E+02  0.91514539419E+01 -0.22478035880E+03  0.22885881733E+03  0.00000000000E+00 0. -1.
         -2    1    3    3    0  502  0.42028555276E+02 -0.91514539419E+01 -0.10459544731E+03  0.11309445683E+03  0.00000000000E+00 0.  1.
<mgrwt>
<rscale>  0 0.91889173E+02</rscale>
<asrwt>0</asrwt>
<pdfrwt beam="2">  1        1 0.51640710E-01 0.91889173E+02</pdfrwt>
<pdfrwt beam="1">  1       -1 0.96749732E-03 0.91889173E+02</pdfrwt>
<totfact> 0.12815667E+05</totfact>
</mgrwt>
</event>
<event>
 5    1  0.3858846E+001  0.1010917E+03  0.7546771E-02  0.1278017E+00
         -2   -1    0    0    0  501 -0.00000000000E+00  0.00000000000E+00  0.28639785276E+01  0.28639785276E+01  0.00000000000E+00 0.  1.
          2   -1    0    0  501    0  0.00000000000E+00 -0.00000000000E+00 -0.89207483908E+03  0.89207483908E+03  0.00000000000E+00 0. -1.
         23    2    1    2    0    0  0.00000000000E+00  0.00000000000E+00 -0.88921086055E+03  0.89493881761E+03  0.10109170459E+03 0.  0.
          2    1    3    3  502    0  0.12288284667E+02  0.36640832485E+02 -0.73301069046E+03  0.73402876297E+03  0.00000000000E+00 0. -1.
         -2    1    3    3    0  502 -0.12288284667E+02 -0.36640832485E+02 -0.15620017010E+03  0.16091005464E+03  0.00000000000E+00 0.  1.
<mgrwt>
<rscale>  0 0.10109170E+03</rscale>
<asrwt>0</asrwt>
<pdfrwt beam="2">  1        2 0.13724230E+00 0.10109170E+03</pdfrwt>
<pdfrwt beam="1">  1       -2 0.44061202E-03 0.10109170E+03</pdfrwt>
<totfact> 0.18845738E+05</totfact>
</mgrwt>
</event>
<event>
 5    1  0.3858846E+001  0.9056202E+02  0.7546771E-02  0.1301496E+00
         -2   -1    0    0    0  501 -0.00000000000E+00  0.00000000000E+00  0.95069401503E+01  0.95069401503E+01  0.00000000000E+00 0.  1.
          2   -1    0    0  501    0  0.00000000000E+00 -0.00000000000E+00 -0.21567087380E+03  0.21567087380E+03  0.00000000000E+00 0. -1.
         23    2    1    2    0    0  0.00000000000E+00  0.00000000000E+00 -0.20616393365E+03  0.22517781395E+03  0.90562024920E+02 0.  0.
          2    1    3    3  502    0  0.38684791974E+02  0.16156347601E+02 -0.60533216753E+02  0.73632947981E+02  0.00000000000E+00 0.  1.
         -2    1    3    3    0  502 -0.38684791974E+02 -0.16156347601E+02 -0.14563071690E+03  0.15154486597E+03  0.00000000000E+00 0. -1.
<mgrwt>
<rscale>  0 0.90562025E+02</rscale>
<asrwt>0</asrwt>
<pdfrwt beam="2">  1        2 0.33180131E-01 0.90562025E+02</pdfrwt>
<pdfrwt beam="1">  1       -2 0.14626063E-02 0.90562025E+02</pdfrwt>
<totfact> 0.16189508E+05</totfact>
</mgrwt>
</event>
<event>
 5    1  0.3858846E+001  0.8732779E+02  0.7546771E-02  0.1309455E+00
          2   -1    0    0  501    0  0.00000000000E+00  0.00000000000E+00  0.12952263629E+04  0.12952263629E+04  0.00000000000E+00 0. -1.
         -2   -1    0    0    0  501 -0.00000000000E+00 -0.00000000000E+00 -0.14719710039E+01  0.14719710039E+01  0.00000000000E+00 0.  1.
         23    2    1    2    0    0  0.00000000000E+00  0.00000000000E+00  0.12937543919E+04  0.12966983339E+04  0.87327788239E+02 0.  0.
          2    1    3    3  502    0 -0.18327826817E+02  0.16362730156E+02  0.11828465359E+04  0.11831016759E+04  0.00000000000E+00 0. -1.
         -2    1    3    3    0  502  0.18327826817E+02 -0.16362730156E+02  0.11090785602E+03  0.11359665797E+03  0.00000000000E+00 0.  1.
<mgrwt>
<rscale>  0 0.87327788E+02</rscale>
<asrwt>0</asrwt>
<pdfrwt beam="1">  1        2 0.19926468E+00 0.87327788E+02</pdfrwt>
<pdfrwt beam="2">  1       -2 0.22645811E-03 0.87327788E+02</pdfrwt>
<totfact> 0.27538076E+05</totfact>
</mgrwt>
</event>
<event>
 5    1  0.3858846E+001  0.9260936E+02  0.7546771E-02  0.1296653E+00
          2   -1    0    0  501    0  0.00000000000E+00  0.00000000000E+00  0.51311793620E+01  0.51311793620E+01  0.00000000000E+00 0. -1.
         -2   -1    0    0    0  501 -0.00000000000E+00 -0.00000000000E+00 -0.41786167875E+03  0.41786167875E+03  0.00000000000E+00 0.  1.
         23    2    1    2    0    0  0.00000000000E+00  0.00000000000E+00 -0.41273049938E+03  0.42299285811E+03  0.92609356378E+02 0.  0.
          2    1    3    3  502    0 -0.22164436499E+02 -0.17807158431E+02 -0.39431797323E+02  0.48613000080E+02  0.00000000000E+00 0. -1.
         -2    1    3    3    0  502  0.22164436499E+02  0.17807158431E+02 -0.37329870206E+03  0.37437985803E+03  0.00000000000E+00 0.  1.
<mgrwt>
<rscale>  0 0.92609356E+02</rscale>
<asrwt>0</asrwt>
<pdfrwt beam="1">  1        2 0.78941205E-03 0.92609356E+02</pdfrwt>
<pdfrwt beam="2">  1       -2 0.64286425E-01 0.92609356E+02</pdfrwt>
<totfact> 0.39793239E+04</totfact>
</mgrwt>
</event>
<event>
 5    1  0.3858846E+001  0.9073266E+02  0.7546771E-02  0.1301087E+00
          2   -1    0    0  501    0  0.00000000000E+00  0.00000000000E+00  0.76219993166E+03  0.76219993166E+03  0.00000000000E+00 0. -1.
         -2   -1    0    0    0  501 -0.00000000000E+00 -0.00000000000E+00 -0.27002151970E+01  0.27002151970E+01  0.00000000000E+00 0.  1.
         23    2    1    2    0    0  0.00000000000E+00  0.00000000000E+00  0.75949971646E+03  0.76490014686E+03  0.90732658698E+02 0.  0.
          2    1    3    3  502    0  0.27881454529E+02  0.18019704819E+02  0.64040978653E+03  0.64126966243E+03  0.00000000000E+00 0. -1.
         -2    1    3    3    0  502 -0.27881454529E+02 -0.18019704819E+02  0.11908992993E+03  0.12363048443E+03  0.00000000000E+00 0.  1.
<mgrwt>
<rscale>  0 0.90732659E+02</rscale>
<asrwt>0</asrwt>
<pdfrwt beam="1">  1        2 0.11726136E+00 0.90732659E+02</pdfrwt>
<pdfrwt beam="2">  1       -2 0.41541833E-03 0.90732659E+02</pdfrwt>
<totfact> 0.24467180E+05</totfact>
</mgrwt>
</event>
<event>
 5    1  0.3858846E+001  0.9161626E+02  0.7546771E-02  0.1298984E+00
         -1   -1    0    0    0  501 -0.00000000000E+00  0.00000000000E+00  0.44513823428E+01  0.44513823428E+01  0.00000000000E+00 0.  1.
          1   -1    0    0  501    0  0.00000000000E+00 -0.00000000000E+00 -0.47140069343E+03  0.47140069343E+03  0.00000000000E+00 0. -1.
         23    2    1    2    0    0  0.00000000000E+00  0.00000000000E+00 -0.46694931108E+03  0.47585207577E+03  0.91616258887E+02 0.  0.
          2    1    3    3  502    0 -0.18726883488E+02  0.40133348651E+02 -0.17268015858E+03  0.17826895132E+03  0.00000000000E+00 0. -1.
         -2    1    3    3    0  502  0.18726883488E+02 -0.40133348651E+02 -0.29426915250E+03  0.29758312445E+03  0.00000000000E+00 0.  1.
<mgrwt>
<rscale>  0 0.91616259E+02</rscale>
<asrwt>0</asrwt>
<pdfrwt beam="2">  1        1 0.72523172E-01 0.91616259E+02</pdfrwt>
<pdfrwt beam="1">  1       -1 0.68482816E-03 0.91616259E+02</pdfrwt>
<totfact> 0.13648748E+05</totfact>
</mgrwt>
</event>
<event>
 5    1  0.3858846E+001  0.9152075E+02  0.7546771E-02  0.1299210E+00
         -3   -1    0    0    0  501 -0.00000000000E+00  0.00000000000E+00  0.19745534215E+03  0.19745534215E+03  0.00000000000E+00 0.  1.
          3   -1    0    0  501    0  0.00000000000E+00 -0.00000000000E+00 -0.10604989809E+02  0.10604989809E+02  0.00000000000E+00 0. -1.
         23    2    1    2    0    0  0.00000000000E+00  0.00000000000E+00  0.18685035234E+03  0.20806033196E+03  0.91520749369E+02 0.  0.
          2    1    3    3  502    0  0.34353597162E+02 -0.29044872462E+02  0.11247779441E+03  0.12114053199E+03  0.00000000000E+00 0. -1.
         -2    1    3    3    0  502 -0.34353597162E+02  0.29044872462E+02  0.74372557930E+02  0.86919799973E+02  0.00000000000E+00 0.  1.
<mgrwt>
<rscale>  0 0.91520749E+02</rscale>
<asrwt>0</asrwt>
<pdfrwt beam="2">  1        3 0.16315370E-02 0.91520749E+02</pdfrwt>
<pdfrwt beam="1">  1       -3 0.30377742E-01 0.91520749E+02</pdfrwt>
<totfact> 0.27801259E+04</totfact>
</mgrwt>
</event>
<event>
 5    1  0.3858846E+001  0.9228173E+02  0.7546771E-02  0.1297418E+00
         -2   -1    0    0    0  501 -0.00000000000E+00  0.00000000000E+00  0.42346650584E+01  0.42346650584E+01  0.00000000000E+00 0.  1.
          2   -1    0    0  501    0  0.00000000000E+00 -0.00000000000E+00 -0.50275033138E+03  0.50275033138E+03  0.00000000000E+00 0. -1.
         23    2    1    2    0    0  0.00000000000E+00  0.00000000000E+00 -0.49851566632E+03  0.50698499643E+03  0.92281726499E+02 0.  0.
          2    1    3    3  502    0  0.69345368888E+01  0.23995609197E+02 -0.46239657171E+03  0.46307069287E+03  0.00000000000E+00 0. -1.
         -2    1    3    3    0  502 -0.69345368888E+01 -0.23995609197E+02 -0.36119094607E+02  0.43914303567E+02  0.00000000000E+00 0.  1.
<mgrwt>
<rscale>  0 0.92281726E+02</rscale>
<asrwt>0</asrwt>
<pdfrwt beam="2">  1        2 0.77346189E-01 0.92281726E+02</pdfrwt>
<pdfrwt beam="1">  1       -2 0.65148707E-03 0.92281726E+02</pdfrwt>
<totfact> 0.20910070E+05</totfact>
</mgrwt>
</event>
<event>
 5    1  0.3858846E+001  0.9217531E+02  0.7546771E-02  0.1297668E+00
         -2   -1    0    0    0  501 -0.00000000000E+00  0.00000000000E+00  0.12585144570E+02  0.12585144570E+02  0.00000000000E+00 0. -1.
          2   -1    0    0  501    0  0.00000000000E+00 -0.00000000000E+00 -0.16877611360E+03  0.16877611360E+03  0.00000000000E+00 0.  1.
         23    2    1    2    0    0  0.00000000000E+00  0.00000000000E+00 -0.15619096903E+03  0.18136125817E+03  0.92175306664E+02 0.  0.
          2    1    3    3  502    0 -0.34159963379E+02 -0.28640050277E+02 -0.55072725589E+02  0.70853092252E+02  0.00000000000E+00 0. -1.
         -2    1    3    3    0  502  0.34159963379E+02  0.28640050277E+02 -0.10111824344E+03  0.11050816592E+03  0.00000000000E+00 0.  1.
<mgrwt>
<rscale>  0 0.92175307E+02</rscale>
<asrwt>0</asrwt>
<pdfrwt beam="2">  1        2 0.25965558E-01 0.92175307E+02</pdfrwt>
<pdfrwt beam="1">  1       -2 0.19361759E-02 0.92175307E+02</pdfrwt>
<totfact> 0.14137771E+05</totfact>
</mgrwt>
</event>
<event>
 5    1  0.3858846E+001  0.9167588E+02  0.7546771E-02  0.1298843E+00
         -2   -1    0    0    0  501 -0.00000000000E+00  0.00000000000E+00  0.22473235031E+02  0.22473235031E+02  0.00000000000E+00 0.  1.
          2   -1    0    0  501    0  0.00000000000E+00 -0.00000000000E+00 -0.93494186664E+02  0.93494186664E+02  0.00000000000E+00 0. -1.
         23    2    1    2    0    0  0.00000000000E+00  0.00000000000E+00 -0.71020951633E+02  0.11596742170E+03  0.91675881909E+02 0.  0.
          2    1    3    3  502    0  0.15472170405E+02  0.43062400544E+02 -0.32079058154E+02  0.55882236621E+02  0.00000000000E+00 0. -1.
         -2    1    3    3    0  502 -0.15472170405E+02 -0.43062400544E+02 -0.38941893479E+02  0.60085185075E+02  0.00000000000E+00 0.  1.
<mgrwt>
<rscale>  0 0.91675882E+02</rscale>
<asrwt>0</asrwt>
<pdfrwt beam="2">  1        2 0.14383721E-01 0.91675882E+02</pdfrwt>
<pdfrwt beam="1">  1       -2 0.34574208E-02 0.91675882E+02</pdfrwt>
<totfact> 0.11841164E+05</totfact>
</mgrwt>
</event>
<event>
 5    1  0.3858846E+001  0.9126925E+02  0.7546771E-02  0.1299807E+00
         -3   -1    0    0    0  501 -0.00000000000E+00  0.00000000000E+00  0.27406756713E+02  0.27406756713E+02  0.00000000000E+00 0.  1.
          3   -1    0    0  501    0  0.00000000000E+00 -0.00000000000E+00 -0.75985597681E+02  0.75985597681E+02  0.00000000000E+00 0. -1.
         23    2    1    2    0    0  0.00000000000E+00  0.00000000000E+00 -0.48578840968E+02  0.10339235439E+03  0.91269245408E+02 0.  0.
          2    1    3    3  502    0  0.22076354435E+02  0.39707389724E+02 -0.29158810812E+02  0.53984057570E+02  0.00000000000E+00 0. -1.
         -2    1    3    3    0  502 -0.22076354435E+02 -0.39707389724E+02 -0.19420030156E+02  0.49408296824E+02  0.00000000000E+00 0.  1.
<mgrwt>
<rscale>  0 0.91269245E+02</rscale>
<asrwt>0</asrwt>
<pdfrwt beam="2">  1        3 0.11690092E-01 0.91269245E+02</pdfrwt>
<pdfrwt beam="1">  1       -3 0.42164242E-02 0.91269245E+02</pdfrwt>
<totfact> 0.34326655E+04</totfact>
</mgrwt>
</event>
<event>
 5    1  0.3858846E+001  0.9724399E+02  0.7546771E-02  0.1286201E+00
          2   -1    0    0  501    0  0.00000000000E+00  0.00000000000E+00  0.55863974138E+02  0.55863974138E+02  0.00000000000E+00 0.  1.
         -2   -1    0    0    0  501 -0.00000000000E+00 -0.00000000000E+00 -0.42318834663E+02  0.42318834663E+02  0.00000000000E+00 0. -1.
         23    2    1    2    0    0  0.00000000000E+00  0.00000000000E+00  0.13545139475E+02  0.98182808800E+02  0.97243987683E+02 0.  0.
          2    1    3    3  502    0 -0.46210211089E+02  0.15004662348E+02  0.48636063422E+01  0.48828046937E+02  0.00000000000E+00 0. -1.
         -2    1    3    3    0  502  0.46210211089E+02 -0.15004662348E+02  0.86815331329E+01  0.49354761863E+02  0.00000000000E+00 0.  1.
<mgrwt>
<rscale>  0 0.97243988E+02</rscale>
<asrwt>0</asrwt>
<pdfrwt beam="1">  1        2 0.85944576E-02 0.97243988E+02</pdfrwt>
<pdfrwt beam="2">  1       -2 0.65105899E-02 0.97243988E+02</pdfrwt>
<totfact> 0.86601365E+04</totfact>
</mgrwt>
</event>
<event>
 5    1  0.3858846E+001  0.8953078E+02  0.7546771E-02  0.1303992E+00
          3   -1    0    0  501    0  0.00000000000E+00  0.00000000000E+00  0.60963082475E+02  0.60963082475E+02  0.00000000000E+00 0. -1.
         -3   -1    0    0    0  501 -0.00000000000E+00 -0.00000000000E+00 -0.32871374461E+02  0.32871374461E+02  0.00000000000E+00 0.  1.
         23    2    1    2    0    0  0.00000000000E+00  0.00000000000E+00  0.28091708014E+02  0.93834456936E+02  0.89530783808E+02 0.  0.
          2    1    3    3  502    0  0.40531358934E+02 -0.18398724124E+02  0.90594004836E+01  0.45424408016E+02  0.00000000000E+00 0. -1.
         -2    1    3    3    0  502 -0.40531358934E+02  0.18398724124E+02  0.19032307531E+02  0.48410048920E+02  0.00000000000E+00 0.  1.
<mgrwt>
<rscale>  0 0.89530784E+02</rscale>
<asrwt>0</asrwt>
<pdfrwt beam="1">  1        3 0.93789357E-02 0.89530784E+02</pdfrwt>
<pdfrwt beam="2">  1       -3 0.50571345E-02 0.89530784E+02</pdfrwt>
<totfact> 0.36917604E+04</totfact>
</mgrwt>
</event>
<event>
 5    1  0.3858846E+001  0.9244333E+02  0.7546771E-02  0.1297040E+00
         -3   -1    0    0    0  501 -0.00000000000E+00  0.00000000000E+00  0.99662730214E+01  0.99662730214E+01  0.00000000000E+00 0.  1.
          3   -1    0    0  501    0  0.00000000000E+00 -0.00000000000E+00 -0.21436721570E+03  0.21436721570E+03  0.00000000000E+00 0. -1.
         23    2    1    2    0    0  0.00000000000E+00  0.00000000000E+00 -0.20440094268E+03  0.22433348873E+03  0.92443327473E+02 0.  0.
          2    1    3    3  502    0  0.34282151780E+02 -0.28930924766E+02 -0.75158358126E+02  0.87527385055E+02  0.00000000000E+00 0. -1.
         -2    1    3    3    0  502 -0.34282151780E+02  0.28930924766E+02 -0.12924258456E+03  0.13680610367E+03  0.00000000000E+00 0.  1.
<mgrwt>
<rscale>  0 0.92443327E+02</rscale>
<asrwt>0</asrwt>
<pdfrwt beam="2">  1        3 0.32979570E-01 0.92443327E+02</pdfrwt>
<pdfrwt beam="1">  1       -3 0.15332729E-02 0.92443327E+02</pdfrwt>
<totfact> 0.26289923E+04</totfact>
</mgrwt>
</event>
<event>
 5    1  0.3858846E+001  0.9919025E+02  0.7546771E-02  0.1282008E+00
         -2   -1    0    0    0  501 -0.00000000000E+00  0.00000000000E+00  0.82341277277E+00  0.82341277277E+00  0.00000000000E+00 0.  1.
          2   -1    0    0  501    0  0.00000000000E+00 -0.00000000000E+00 -0.29871730941E+04  0.29871730941E+04  0.00000000000E+00 0. -1.
         23    2    1    2    0    0  0.00000000000E+00  0.00000000000E+00 -0.29863496813E+04  0.29879965069E+04  0.99190251137E+02 0.  0.
          2    1    3    3  502    0  0.13207908545E+02  0.37451103215E+02 -0.23881346101E+04  0.23884647685E+04  0.00000000000E+00 0. -1.
         -2    1    3    3    0  502 -0.13207908545E+02 -0.37451103215E+02 -0.59821507117E+03  0.59953173841E+03  0.00000000000E+00 0.  1.
<mgrwt>
<rscale>  0 0.99190251E+02</rscale>
<asrwt>0</asrwt>
<pdfrwt beam="2">  1        2 0.45956900E+00 0.99190251E+02</pdfrwt>
<pdfrwt beam="1">  1       -2 0.12667781E-03 0.99190251E+02</pdfrwt>
<totfact> 0.82226647E+04</totfact>
</mgrwt>
</event>
<event>
 5    1  0.3858846E+001  0.9227434E+02  0.7546771E-02  0.1297436E+00
         -2   -1    0    0    0  501 -0.00000000000E+00  0.00000000000E+00  0.16429306767E+01  0.16429306767E+01  0.00000000000E+00 0.  1.
          2   -1    0    0  501    0  0.00000000000E+00 -0.00000000000E+00 -0.12956348450E+04  0.12956348450E+04  0.00000000000E+00 0. -1.
         23    2    1    2    0    0  0.00000000000E+00  0.00000000000E+00 -0.12939919143E+04  0.12972777757E+04  0.92274335165E+02 0.  0.
          2    1    3    3  502    0 -0.25323520650E+02 -0.34448222354E+02 -0.89077845722E+03  0.89180391374E+03  0.00000000000E+00 0. -1.
         -2    1    3    3    0  502  0.25323520650E+02  0.34448222354E+02 -0.40321345708E+03  0.40547386191E+03  0.00000000000E+00 0.  1.
<mgrwt>
<rscale>  0 0.92274335E+02</rscale>
<asrwt>0</asrwt>
<pdfrwt beam="2">  1        2 0.19932896E+00 0.92274335E+02</pdfrwt>
<pdfrwt beam="1">  1       -2 0.25275791E-03 0.92274335E+02</pdfrwt>
<totfact> 0.23822468E+05</totfact>
</mgrwt>
</event>
<event>
 5    1  0.3858846E+001  0.9053660E+02  0.7546771E-02  0.1301557E+00
          2   -1    0    0  501    0  0.00000000000E+00  0.00000000000E+00  0.22968466059E+03  0.22968466059E+03  0.00000000000E+00 0. -1.
         -2   -1    0    0    0  501 -0.00000000000E+00 -0.00000000000E+00 -0.89218809978E+01  0.89218809978E+01  0.00000000000E+00 0.  1.
         23    2    1    2    0    0  0.00000000000E+00  0.00000000000E+00  0.22076277959E+03  0.23860654159E+03  0.90536604946E+02 0.  0.
          2    1    3    3  502    0  0.94168562755E+01 -0.21842808810E+02  0.21188750713E+03  0.21321843532E+03  0.00000000000E+00 0. -1.
         -2    1    3    3    0  502 -0.94168562755E+01  0.21842808810E+02  0.88752724554E+01  0.25388106270E+02  0.00000000000E+00 0.  1.
<mgrwt>
<rscale>  0 0.90536605E+02</rscale>
<asrwt>0</asrwt>
<pdfrwt beam="1">  1        2 0.35336097E-01 0.90536605E+02</pdfrwt>
<pdfrwt beam="2">  1       -2 0.13725973E-02 0.90536605E+02</pdfrwt>
<totfact> 0.16579521E+05</totfact>
</mgrwt>
</event>
<event>
 5    1  0.3858846E+001  0.9153494E+02  0.7546771E-02  0.1299177E+00
          2   -1    0    0  501    0  0.00000000000E+00  0.00000000000E+00  0.15580588152E+03  0.15580588152E+03  0.00000000000E+00 0. -1.
         -2   -1    0    0    0  501 -0.00000000000E+00 -0.00000000000E+00 -0.13444043979E+02  0.13444043979E+02  0.00000000000E+00 0.  1.
         23    2    1    2    0    0  0.00000000000E+00  0.00000000000E+00  0.14236183754E+03  0.16924992550E+03  0.91534935917E+02 0.  0.
          2    1    3    3  502    0  0.34945372624E+02 -0.20973528045E+02  0.10968287749E+03  0.11701026263E+03  0.00000000000E+00 0. -1.
         -2    1    3    3    0  502 -0.34945372624E+02  0.20973528045E+02  0.32678960050E+02  0.52239662867E+02  0.00000000000E+00 0.  1.
<mgrwt>
<rscale>  0 0.91534936E+02</rscale>
<asrwt>0</asrwt>
<pdfrwt beam="1">  1        2 0.23970134E-01 0.91534936E+02</pdfrwt>
<pdfrwt beam="2">  1       -2 0.20683146E-02 0.91534936E+02</pdfrwt>
<totfact> 0.14013671E+05</totfact>
</mgrwt>
</event>
<event>
 4    1  0.3858846E+001  0.4462822E+02  0.7546771E-02  0.1476676E+00
          2   -1    0    0  501    0  0.00000000000E+00  0.00000000000E+00  0.11025602549E+01  0.11025602549E+01  0.00000000000E+00 0. -1.
         -2   -1    0    0    0  501 -0.00000000000E+00 -0.00000000000E+00 -0.45160290708E+03  0.45160290708E+03  0.00000000000E+00 0.  1.
          2    1    1    2  502    0 -0.14036096869E+02 -0.16520639035E+02 -0.17159666270E+03  0.17296056828E+03  0.00000000000E+00 0. -1.
         -2    1    1    2    0  502  0.14036096869E+02  0.16520639035E+02 -0.27890368412E+03  0.27974489905E+03  0.00000000000E+00 0.  1.
<mgrwt>
<rscale>  0 0.44628216E+02</rscale>
<asrwt>0</asrwt>
<pdfrwt beam="1">  1        2 0.16962438E-03 0.44628216E+02</pdfrwt>
<pdfrwt beam="2">  1       -2 0.69477484E-01 0.44628216E+02</pdfrwt>
<totfact> 0.23619911E+05</totfact>
</mgrwt>
</event>
<event>
 5    1  0.3858846E+001  0.9410826E+02  0.7546771E-02  0.1293197E+00
          3   -1    0    0  501    0  0.00000000000E+00  0.00000000000E+00  0.84902107970E+01  0.84902107970E+01  0.00000000000E+00 0. -1.
         -3   -1    0    0    0  501 -0.00000000000E+00 -0.00000000000E+00 -0.26078162966E+03  0.26078162966E+03  0.00000000000E+00 0.  1.
         23    2    1    2    0    0  0.00000000000E+00  0.00000000000E+00 -0.25229141886E+03  0.26927184046E+03  0.94108256977E+02 0.  0.
          2    1    3    3  502    0  0.12749584007E+02 -0.31740847508E+02 -0.33691761183E+02  0.48012165797E+02  0.00000000000E+00 0. -1.
         -2    1    3    3    0  502 -0.12749584007E+02  0.31740847508E+02 -0.21859965768E+03  0.22125967466E+03  0.00000000000E+00 0.  1.
<mgrwt>
<rscale>  0 0.94108257E+02</rscale>
<asrwt>0</asrwt>
<pdfrwt beam="1">  1        3 0.13061862E-02 0.94108257E+02</pdfrwt>
<pdfrwt beam="2">  1       -3 0.40120253E-01 0.94108257E+02</pdfrwt>
<totfact> 0.23199279E+04</totfact>
</mgrwt>
</event>
<event>
 5    1  0.3858846E+001  0.8973044E+02  0.7546771E-02  0.1303506E+00
          1   -1    0    0  501    0  0.00000000000E+00  0.00000000000E+00  0.12890071357E+04  0.12890071357E+04  0.00000000000E+00 0. -1.
         -1   -1    0    0    0  501 -0.00000000000E+00 -0.00000000000E+00 -0.15615803006E+01  0.15615803006E+01  0.00000000000E+00 0.  1.
         23    2    1    2    0    0  0.00000000000E+00  0.00000000000E+00  0.12874455554E+04  0.12905687160E+04  0.89730444118E+02 0.  0.
          2    1    3    3  502    0  0.18657861158E+02 -0.11502415297E+02  0.12067596731E+04  0.12069587109E+04  0.00000000000E+00 0. -1.
         -2    1    3    3    0  502 -0.18657861158E+02  0.11502415297E+02  0.80685882323E+02  0.83610005065E+02  0.00000000000E+00 0.  1.
<mgrwt>
<rscale>  0 0.89730444E+02</rscale>
<asrwt>0</asrwt>
<pdfrwt beam="1">  1        1 0.19830794E+00 0.89730444E+02</pdfrwt>
<pdfrwt beam="2">  1       -1 0.24024415E-03 0.89730444E+02</pdfrwt>
<totfact> 0.12796393E+05</totfact>
</mgrwt>
</event>
<event>
 5    1  0.3858846E+001  0.9145482E+02  0.7546771E-02  0.1299366E+00
          4   -1    0    0  501    0  0.00000000000E+00  0.00000000000E+00  0.17595160684E+02  0.17595160684E+02  0.00000000000E+00 0. -1.
         -4   -1    0    0    0  501 -0.00000000000E+00 -0.00000000000E+00 -0.11883926514E+03  0.11883926514E+03  0.00000000000E+00 0.  1.
         23    2    1    2    0    0  0.00000000000E+00  0.00000000000E+00 -0.10124410446E+03  0.13643442583E+03  0.91454818697E+02 0.  0.
          2    1    3    3  502    0 -0.42915468675E+02 -0.14345332518E+02 -0.60457903205E+02  0.75516117992E+02  0.00000000000E+00 0. -1.
         -2    1    3    3    0  502  0.42915468675E+02  0.14345332518E+02 -0.40786201253E+02  0.60918307834E+02  0.00000000000E+00 0.  1.
<mgrwt>
<rscale>  0 0.91454819E+02</rscale>
<asrwt>0</asrwt>
<pdfrwt beam="1">  1        4 0.27069478E-02 0.91454819E+02</pdfrwt>
<pdfrwt beam="2">  1       -4 0.18282964E-01 0.91454819E+02</pdfrwt>
<totfact> 0.24173126E+04</totfact>
</mgrwt>
</event>
<event>
 5    1  0.3858846E+001  0.9060341E+02  0.7546771E-02  0.1301397E+00
          2   -1    0    0  501    0  0.00000000000E+00  0.00000000000E+00  0.31952751324E+03  0.31952751324E+03  0.00000000000E+00 0.  1.
         -2   -1    0    0    0  501 -0.00000000000E+00 -0.00000000000E+00 -0.64227467879E+01  0.64227467879E+01  0.00000000000E+00 0. -1.
         23    2    1    2    0    0  0.00000000000E+00  0.00000000000E+00  0.31310476646E+03  0.32595026003E+03  0.90603406323E+02 0.  0.
          2    1    3    3  502    0 -0.23526087415E+02 -0.25736701520E+02  0.52509794861E+02  0.63032794247E+02  0.00000000000E+00 0. -1.
         -2    1    3    3    0  502  0.23526087415E+02  0.25736701520E+02  0.26059497160E+03  0.26291746579E+03  0.00000000000E+00 0.  1.
<mgrwt>
<rscale>  0 0.90603406E+02</rscale>
<asrwt>0</asrwt>
<pdfrwt beam="1">  1        2 0.49158067E-01 0.90603406E+02</pdfrwt>
<pdfrwt beam="2">  1       -2 0.98811514E-03 0.90603406E+02</pdfrwt>
<totfact> 0.18703578E+05</totfact>
</mgrwt>
</event>
<event>
 5    1  0.3858846E+001  0.9242976E+02  0.7546771E-02  0.1297072E+00
          1   -1    0    0  501    0  0.00000000000E+00  0.00000000000E+00  0.28379877284E+02  0.28379877284E+02  0.00000000000E+00 0. -1.
         -1   -1    0    0    0  501 -0.00000000000E+00 -0.00000000000E+00 -0.75258084059E+02  0.75258084059E+02  0.00000000000E+00 0.  1.
         23    2    1    2    0    0  0.00000000000E+00  0.00000000000E+00 -0.46878206775E+02  0.10363796134E+03  0.92429761229E+02 0.  0.
          2    1    3    3  502    0 -0.17302236920E+02 -0.15191231193E+02  0.21490828068E+02  0.31495977499E+02  0.00000000000E+00 0. -1.
         -2    1    3    3    0  502  0.17302236920E+02  0.15191231193E+02 -0.68369034842E+02  0.72141983843E+02  0.00000000000E+00 0.  1.
<mgrwt>
<rscale>  0 0.92429761E+02</rscale>
<asrwt>0</asrwt>
<pdfrwt beam="1">  1        1 0.43661350E-02 0.92429761E+02</pdfrwt>
<pdfrwt beam="2">  1       -1 0.11578167E-01 0.92429761E+02</pdfrwt>
<totfact> 0.82585802E+04</totfact>
</mgrwt>
</event>
<event>
 5    1  0.3858846E+001  0.9019024E+02  0.7546771E-02  0.1302392E+00
         -3   -1    0    0    0  501 -0.00000000000E+00  0.00000000000E+00  0.14925537210E+04  0.14925537210E+04  0.00000000000E+00 0.  1.
          3   -1    0    0  501    0  0.00000000000E+00 -0.00000000000E+00 -0.13624766966E+01  0.13624766966E+01  0.00000000000E+00 0. -1.
         23    2    1    2    0    0  0.00000000000E+00  0.00000000000E+00  0.14911912443E+04  0.14939161977E+04  0.90190235908E+02 0.  0.
          2    1    3    3  502    0  0.57913229806E+01  0.30508757462E+02  0.20396211651E+03  0.20631255094E+03  0.00000000000E+00 0. -1.
         -2    1    3    3    0  502 -0.57913229806E+01 -0.30508757462E+02  0.12872291278E+04  0.12876036468E+04  0.00000000000E+00 0.  1.
<mgrwt>
<rscale>  0 0.90190236E+02</rscale>
<asrwt>0</asrwt>
<pdfrwt beam="2">  1        3 0.20961299E-03 0.90190236E+02</pdfrwt>
<pdfrwt beam="1">  1       -3 0.22962234E+00 0.90190236E+02</pdfrwt>
<totfact> 0.62788039E+03</totfact>
</mgrwt>
</event>
<event>
 5    1  0.3858846E+001  0.9155144E+02  0.7546771E-02  0.1299138E+00
         -3   -1    0    0    0  501 -0.00000000000E+00  0.00000000000E+00  0.76718319978E+01  0.76718319978E+01  0.00000000000E+00 0.  1.
          3   -1    0    0  501    0  0.00000000000E+00 -0.00000000000E+00 -0.27313115464E+03  0.27313115464E+03  0.00000000000E+00 0. -1.
         23    2    1    2    0    0  0.00000000000E+00  0.00000000000E+00 -0.26545932265E+03  0.28080298664E+03  0.91551435418E+02 0.  0.
          2    1    3    3  502    0  0.34447289626E+02  0.42146151935E+00 -0.22518423775E+03  0.22780415782E+03  0.00000000000E+00 0. -1.
         -2    1    3    3    0  502 -0.34447289626E+02 -0.42146151935E+00 -0.40275084901E+02  0.52998828819E+02  0.00000000000E+00 0.  1.
<mgrwt>
<rscale>  0 0.91551435E+02</rscale>
<asrwt>0</asrwt>
<pdfrwt beam="2">  1        3 0.42020179E-01 0.91551435E+02</pdfrwt>
<pdfrwt beam="1">  1       -3 0.11802818E-02 0.91551435E+02</pdfrwt>
<totfact> 0.24521439E+04</totfact>
</mgrwt>
</event>
<event>
 5    1  0.3858846E+001  0.9053238E+02  0.7546771E-02  0.1301568E+00
         -1   -1    0    0    0  501 -0.00000000000E+00  0.00000000000E+00  0.51930741742E+02  0.51930741742E+02  0.00000000000E+00 0.  1.
          1   -1    0    0  501    0  0.00000000000E+00 -0.00000000000E+00 -0.39456938260E+02  0.39456938260E+02  0.00000000000E+00 0. -1.
         23    2    1    2    0    0  0.00000000000E+00  0.00000000000E+00  0.12473803481E+02  0.91387680002E+02  0.90532382510E+02 0.  0.
          2    1    3    3  502    0  0.27503916612E+02  0.31362810849E+02 -0.11505748053E+02  0.43272087673E+02  0.00000000000E+00 0. -1.
         -2    1    3    3    0  502 -0.27503916612E+02 -0.31362810849E+02  0.23979551534E+02  0.48115592329E+02  0.00000000000E+00 0.  1.
<mgrwt>
<rscale>  0 0.90532383E+02</rscale>
<asrwt>0</asrwt>
<pdfrwt beam="2">  1        1 0.60702981E-02 0.90532383E+02</pdfrwt>
<pdfrwt beam="1">  1       -1 0.79893449E-02 0.90532383E+02</pdfrwt>
<totfact> 0.92305622E+04</totfact>
</mgrwt>
</event>
<event>
 5    1  0.3858846E+001  0.9216380E+02  0.7546771E-02  0.1297695E+00
         -1   -1    0    0    0  501 -0.00000000000E+00  0.00000000000E+00  0.74234692770E+02  0.74234692770E+02  0.00000000000E+00 0.  1.
          1   -1    0    0  501    0  0.00000000000E+00 -0.00000000000E+00 -0.28605784133E+02  0.28605784133E+02  0.00000000000E+00 0. -1.
         23    2    1    2    0    0  0.00000000000E+00  0.00000000000E+00  0.45628908637E+02  0.10284047690E+03  0.92163801930E+02 0.  0.
          2    1    3    3  502    0 -0.40175664734E+02  0.62248690478E+01 -0.13947073387E+01  0.40678965572E+02  0.00000000000E+00 0. -1.
         -2    1    3    3    0  502  0.40175664734E+02 -0.62248690478E+01  0.47023615976E+02  0.62161511331E+02  0.00000000000E+00 0.  1.
<mgrwt>
<rscale>  0 0.92163802E+02</rscale>
<asrwt>0</asrwt>
<pdfrwt beam="2">  1        1 0.44008899E-02 0.92163802E+02</pdfrwt>
<pdfrwt beam="1">  1       -1 0.11420722E-01 0.92163802E+02</pdfrwt>
<totfact> 0.83386108E+04</totfact>
</mgrwt>
</event>
<event>
 5    1  0.3858846E+001  0.9284419E+02  0.7546771E-02  0.1296107E+00
          2   -1    0    0  501    0  0.00000000000E+00  0.00000000000E+00  0.99400992833E+03  0.99400992833E+03  0.00000000000E+00 0.  1.
         -2   -1    0    0    0  501 -0.00000000000E+00 -0.00000000000E+00 -0.21679972318E+01  0.21679972318E+01  0.00000000000E+00 0. -1.
         23    2    1    2    0    0  0.00000000000E+00  0.00000000000E+00  0.99184193110E+03  0.99617792556E+03  0.92844187174E+02 0.  0.
          2    1    3    3  502    0 -0.41371660727E+02  0.14058626561E+02  0.32771930954E+03  0.33061942644E+03  0.00000000000E+00 0. -1.
         -2    1    3    3    0  502  0.41371660727E+02 -0.14058626561E+02  0.66412262156E+03  0.66555849912E+03  0.00000000000E+00 0.  1.
<mgrwt>
<rscale>  0 0.92844187E+02</rscale>
<asrwt>0</asrwt>
<pdfrwt beam="1">  1        2 0.15292424E+00 0.92844187E+02</pdfrwt>
<pdfrwt beam="2">  1       -2 0.33353883E-03 0.92844187E+02</pdfrwt>
<totfact> 0.23828859E+05</totfact>
</mgrwt>
</event>
<event>
 5    1  0.3858846E+001  0.9201669E+02  0.7546771E-02  0.1298040E+00
          1   -1    0    0  501    0  0.00000000000E+00  0.00000000000E+00  0.28321934744E+03  0.28321934744E+03  0.00000000000E+00 0. -1.
         -1   -1    0    0    0  501 -0.00000000000E+00 -0.00000000000E+00 -0.74739519643E+01  0.74739519643E+01  0.00000000000E+00 0.  1.
         23    2    1    2    0    0  0.00000000000E+00  0.00000000000E+00  0.27574539548E+03  0.29069329941E+03  0.92016689750E+02 0.  0.
          2    1    3    3  502    0  0.78050780314E+01  0.27750580264E+02  0.25115115670E+03  0.25280015320E+03  0.00000000000E+00 0. -1.
         -2    1    3    3    0  502 -0.78050780314E+01 -0.27750580264E+02  0.24594238778E+02  0.37893146203E+02  0.00000000000E+00 0.  1.
<mgrwt>
<rscale>  0 0.92016690E+02</rscale>
<asrwt>0</asrwt>
<pdfrwt beam="1">  1        1 0.43572199E-01 0.92016690E+02</pdfrwt>
<pdfrwt beam="2">  1       -1 0.11498390E-02 0.92016690E+02</pdfrwt>
<totfact> 0.12364917E+05</totfact>
</mgrwt>
</event>
<event>
 5    1  0.3858846E+001  0.9206249E+02  0.7546771E-02  0.1297933E+00
          3   -1    0    0  501    0  0.00000000000E+00  0.00000000000E+00  0.16593904825E+03  0.16593904825E+03  0.00000000000E+00 0. -1.
         -3   -1    0    0    0  501 -0.00000000000E+00 -0.00000000000E+00 -0.12768997959E+02  0.12768997959E+02  0.00000000000E+00 0.  1.
         23    2    1    2    0    0  0.00000000000E+00  0.00000000000E+00  0.15317005029E+03  0.17870804621E+03  0.92062486788E+02 0.  0.
          2    1    3    3  502    0 -0.47104365240E+01 -0.32234744997E+02  0.13971328888E+03  0.14346104031E+03  0.00000000000E+00 0. -1.
         -2    1    3    3    0  502  0.47104365240E+01  0.32234744997E+02  0.13456761414E+02  0.35247005901E+02  0.00000000000E+00 0.  1.
<mgrwt>
<rscale>  0 0.92062487E+02</rscale>
<asrwt>0</asrwt>
<pdfrwt beam="1">  1        3 0.25529083E-01 0.92062487E+02</pdfrwt>
<pdfrwt beam="2">  1       -3 0.19644613E-02 0.92062487E+02</pdfrwt>
<totfact> 0.28871883E+04</totfact>
</mgrwt>
</event>
<event>
 5    1  0.3858846E+001  0.9762597E+02  0.7546771E-02  0.1285369E+00
         -2   -1    0    0    0  501 -0.00000000000E+00  0.00000000000E+00  0.18577718945E+01  0.18577718945E+01  0.00000000000E+00 0.  1.
          2   -1    0    0  501    0  0.00000000000E+00 -0.00000000000E+00 -0.12825620395E+04  0.12825620395E+04  0.00000000000E+00 0. -1.
         23    2    1    2    0    0  0.00000000000E+00  0.00000000000E+00 -0.12807042676E+04  0.12844198113E+04  0.97625974204E+02 0.  0.
          2    1    3    3  502    0  0.19520269152E+02 -0.40612106609E+02 -0.88730409618E+03  0.88844749041E+03  0.00000000000E+00 0. -1.
         -2    1    3    3    0  502 -0.19520269152E+02  0.40612106609E+02 -0.39340017137E+03  0.39597232094E+03  0.00000000000E+00 0.  1.
<mgrwt>
<rscale>  0 0.97625974E+02</rscale>
<asrwt>0</asrwt>
<pdfrwt beam="2">  1        2 0.19731685E+00 0.97625974E+02</pdfrwt>
<pdfrwt beam="1">  1       -2 0.28581162E-03 0.97625974E+02</pdfrwt>
<totfact> 0.20562830E+05</totfact>
</mgrwt>
</event>
<event>
 5    1  0.3858846E+001  0.9434228E+02  0.7546771E-02  0.1292664E+00
         -1   -1    0    0    0  501 -0.00000000000E+00  0.00000000000E+00  0.16783792204E+01  0.16783792204E+01  0.00000000000E+00 0.  1.
          1   -1    0    0  501    0  0.00000000000E+00 -0.00000000000E+00 -0.13257532341E+04  0.13257532341E+04  0.00000000000E+00 0. -1.
         23    2    1    2    0    0  0.00000000000E+00  0.00000000000E+00 -0.13240748549E+04  0.13274316133E+04  0.94342284888E+02 0.  0.
          2    1    3    3  502    0 -0.28985078320E+02 -0.35417407791E+00 -0.11856476888E+04  0.11860019824E+04  0.00000000000E+00 0. -1.
         -2    1    3    3    0  502  0.28985078320E+02  0.35417407791E+00 -0.13842716602E+03  0.14142963090E+03  0.00000000000E+00 0.  1.
<mgrwt>
<rscale>  0 0.94342285E+02</rscale>
<asrwt>0</asrwt>
<pdfrwt beam="2">  1        1 0.20396141E+00 0.94342285E+02</pdfrwt>
<pdfrwt beam="1">  1       -1 0.25821298E-03 0.94342285E+02</pdfrwt>
<totfact> 0.11022019E+05</totfact>
</mgrwt>
</event>
<event>
 5    1  0.3858846E+001  0.9176856E+02  0.7546771E-02  0.1298625E+00
          1   -1    0    0  501    0  0.00000000000E+00  0.00000000000E+00  0.19144746108E+04  0.19144746108E+04  0.00000000000E+00 0. -1.
         -1   -1    0    0    0  501 -0.00000000000E+00 -0.00000000000E+00 -0.10997100432E+01  0.10997100432E+01  0.00000000000E+00 0.  1.
         23    2    1    2    0    0  0.00000000000E+00  0.00000000000E+00  0.19133749007E+04  0.19155743208E+04  0.91768555768E+02 0.  0.
          2    1    3    3  502    0  0.16234851847E+02  0.29790330944E+02  0.16015319767E+04  0.16018912905E+04  0.00000000000E+00 0. -1.
         -2    1    3    3    0  502 -0.16234851847E+02 -0.29790330944E+02  0.31184292408E+03  0.31368303035E+03  0.00000000000E+00 0.  1.
<mgrwt>
<rscale>  0 0.91768556E+02</rscale>
<asrwt>0</asrwt>
<pdfrwt beam="1">  1        1 0.29453189E+00 0.91768556E+02</pdfrwt>
<pdfrwt beam="2">  1       -1 0.16918769E-03 0.91768556E+02</pdfrwt>
<totfact> 0.83474608E+04</totfact>
</mgrwt>
</event>
<event>
 5    1  0.3858846E+001  0.9994130E+02  0.7546771E-02  0.1280419E+00
         -1   -1    0    0    0  501 -0.00000000000E+00  0.00000000000E+00  0.81015559904E+01  0.81015559904E+01  0.00000000000E+00 0.  1.
          1   -1    0    0  501    0  0.00000000000E+00 -0.00000000000E+00 -0.30822052907E+03  0.30822052907E+03  0.00000000000E+00 0. -1.
         23    2    1    2    0    0  0.00000000000E+00  0.00000000000E+00 -0.30011897308E+03  0.31632208506E+03  0.99941300244E+02 0.  0.
          2    1    3    3  502    0 -0.49479612789E+02 -0.66176505324E+01 -0.15716541841E+03  0.16490298397E+03  0.00000000000E+00 0. -1.
         -2    1    3    3    0  502  0.49479612789E+02  0.66176505324E+01 -0.14295355467E+03  0.15141910109E+03  0.00000000000E+00 0.  1.
<mgrwt>
<rscale>  0 0.99941300E+02</rscale>
<asrwt>0</asrwt>
<pdfrwt beam="2">  1        1 0.47418541E-01 0.99941300E+02</pdfrwt>
<pdfrwt beam="1">  1       -1 0.12463933E-02 0.99941300E+02</pdfrwt>
<totfact> 0.10072385E+05</totfact>
</mgrwt>
</event>
<event>
 5    1  0.3858846E+001  0.9017959E+02  0.7546771E-02  0.1302417E+00
         -4   -1    0    0    0  501 -0.00000000000E+00  0.00000000000E+00  0.90538481366E+02  0.90538481366E+02  0.00000000000E+00 0. -1.
          4   -1    0    0  501    0  0.00000000000E+00 -0.00000000000E+00 -0.22455528736E+02  0.22455528736E+02  0.00000000000E+00 0.  1.
         23    2    1    2    0    0  0.00000000000E+00  0.00000000000E+00  0.68082952630E+02  0.11299401010E+03  0.90179586825E+02 0.  0.
          2    1    3    3  502    0  0.15062503002E+01  0.31424925746E+02  0.74513105361E+02  0.80882616294E+02  0.00000000000E+00 0. -1.
         -2    1    3    3    0  502 -0.15062503002E+01 -0.31424925746E+02 -0.64301527309E+01  0.32111393807E+02  0.00000000000E+00 0.  1.
<mgrwt>
<rscale>  0 0.90179587E+02</rscale>
<asrwt>0</asrwt>
<pdfrwt beam="2">  1        4 0.34546968E-02 0.90179587E+02</pdfrwt>
<pdfrwt beam="1">  1       -4 0.13928997E-01 0.90179587E+02</pdfrwt>
<totfact> 0.26449606E+04</totfact>
</mgrwt>
</event>
<event>
 5    1  0.3858846E+001  0.9013355E+02  0.7546771E-02  0.1302529E+00
         -2   -1    0    0    0  501 -0.00000000000E+00  0.00000000000E+00  0.47696652947E+01  0.47696652947E+01  0.00000000000E+00 0.  1.
          2   -1    0    0  501    0  0.00000000000E+00 -0.00000000000E+00 -0.42581901525E+03  0.42581901525E+03  0.00000000000E+00 0. -1.
         23    2    1    2    0    0  0.00000000000E+00  0.00000000000E+00 -0.42104934995E+03  0.43058868054E+03  0.90133549333E+02 0.  0.
          2    1    3    3  502    0  0.37447788811E+02  0.17199039297E+02 -0.12336538479E+03  0.13006599096E+03  0.00000000000E+00 0. -1.
         -2    1    3    3    0  502 -0.37447788811E+02 -0.17199039297E+02 -0.29768396517E+03  0.30052268959E+03  0.00000000000E+00 0.  1.
<mgrwt>
<rscale>  0 0.90133549E+02</rscale>
<asrwt>0</asrwt>
<pdfrwt beam="2">  1        2 0.65510648E-01 0.90133549E+02</pdfrwt>
<pdfrwt beam="1">  1       -2 0.73379432E-03 0.90133549E+02</pdfrwt>
<totfact> 0.21041467E+05</totfact>
</mgrwt>
</event>
<event>
 5    1  0.3858846E+001  0.9168947E+02  0.7546771E-02  0.1298811E+00
         -1   -1    0    0    0  501 -0.00000000000E+00  0.00000000000E+00  0.76647412347E+01  0.76647412347E+01  0.00000000000E+00 0.  1.
          1   -1    0    0  501    0  0.00000000000E+00 -0.00000000000E+00 -0.27420880460E+03  0.27420880460E+03  0.00000000000E+00 0. -1.
         23    2    1    2    0    0  0.00000000000E+00  0.00000000000E+00 -0.26654406336E+03  0.28187354583E+03  0.91689465731E+02 0.  0.
          2    1    3    3  502    0  0.34257506505E+02 -0.36175666711E+01 -0.22626785785E+03  0.22887509046E+03  0.00000000000E+00 0. -1.
         -2    1    3    3    0  502 -0.34257506505E+02  0.36175666711E+01 -0.40276205515E+02  0.52998455367E+02  0.00000000000E+00 0.  1.
<mgrwt>
<rscale>  0 0.91689466E+02</rscale>
<asrwt>0</asrwt>
<pdfrwt beam="2">  1        1 0.42185962E-01 0.91689466E+02</pdfrwt>
<pdfrwt beam="1">  1       -1 0.11791912E-02 0.91689466E+02</pdfrwt>
<totfact> 0.12404983E+05</totfact>
</mgrwt>
</event>
<event>
 5    1  0.3858846E+001  0.9149107E+02  0.7546771E-02  0.1299281E+00
         -2   -1    0    0    0  501 -0.00000000000E+00  0.00000000000E+00  0.31466929471E+02  0.31466929471E+02  0.00000000000E+00 0.  1.
          2   -1    0    0  501    0  0.00000000000E+00 -0.00000000000E+00 -0.66503274269E+02  0.66503274269E+02  0.00000000000E+00 0. -1.
         23    2    1    2    0    0  0.00000000000E+00  0.00000000000E+00 -0.35036344798E+02  0.97970203740E+02  0.91491067127E+02 0.  0.
          2    1    3    3  502    0  0.15758256552E+02 -0.30975774140E+02 -0.49370844988E+02  0.60376332846E+02  0.00000000000E+00 0. -1.
         -2    1    3    3    0  502 -0.15758256552E+02  0.30975774140E+02  0.14334500190E+02  0.37593870894E+02  0.00000000000E+00 0.  1.
<mgrwt>
<rscale>  0 0.91491067E+02</rscale>
<asrwt>0</asrwt>
<pdfrwt beam="2">  1        2 0.10231273E-01 0.91491067E+02</pdfrwt>
<pdfrwt beam="1">  1       -2 0.48410660E-02 0.91491067E+02</pdfrwt>
<totfact> 0.10802026E+05</totfact>
</mgrwt>
</event>
<event>
 5    1  0.3858846E+001  0.9130116E+02  0.7546771E-02  0.1299731E+00
          2   -1    0    0  501    0  0.00000000000E+00  0.00000000000E+00  0.15369073851E+03  0.15369073851E+03  0.00000000000E+00 0. -1.
         -2   -1    0    0    0  501 -0.00000000000E+00 -0.00000000000E+00 -0.13559537177E+02  0.13559537177E+02  0.00000000000E+00 0.  1.
         23    2    1    2    0    0  0.00000000000E+00  0.00000000000E+00  0.14013120133E+03  0.16725027568E+03  0.91301156238E+02 0.  0.
          2    1    3    3  502    0 -0.95597255416E+01 -0.33483379962E+02  0.12414250857E+03  0.12893365550E+03  0.00000000000E+00 0. -1.
         -2    1    3    3    0  502  0.95597255416E+01  0.33483379962E+02  0.15988692754E+02  0.38316620181E+02  0.00000000000E+00 0.  1.
<mgrwt>
<rscale>  0 0.91301156E+02</rscale>
<asrwt>0</asrwt>
<pdfrwt beam="1">  1        2 0.23644728E-01 0.91301156E+02</pdfrwt>
<pdfrwt beam="2">  1       -2 0.20860828E-02 0.91301156E+02</pdfrwt>
<totfact> 0.14045326E+05</totfact>
</mgrwt>
</event>
<event>
 5    1  0.3858846E+001  0.9138739E+02  0.7546771E-02  0.1299526E+00
          1   -1    0    0  501    0  0.00000000000E+00  0.00000000000E+00  0.71512264298E+03  0.71512264298E+03  0.00000000000E+00 0. -1.
         -1   -1    0    0    0  501 -0.00000000000E+00 -0.00000000000E+00 -0.29196585268E+01  0.29196585268E+01  0.00000000000E+00 0.  1.
         23    2    1    2    0    0  0.00000000000E+00  0.00000000000E+00  0.71220298445E+03  0.71804230150E+03  0.91387393491E+02 0.  0.
          2    1    3    3  502    0 -0.20136232135E+02  0.38857327345E+02  0.45931261281E+03  0.46139293018E+03  0.00000000000E+00 0. -1.
         -2    1    3    3    0  502  0.20136232135E+02 -0.38857327345E+02  0.25289037164E+03  0.25664937132E+03  0.00000000000E+00 0.  1.
<mgrwt>
<rscale>  0 0.91387393E+02</rscale>
<asrwt>0</asrwt>
<pdfrwt beam="1">  1        1 0.11001873E+00 0.91387393E+02</pdfrwt>
<pdfrwt beam="2">  1       -1 0.44917881E-03 0.91387393E+02</pdfrwt>
<totfact> 0.14126619E+05</totfact>
</mgrwt>
</event>
<event>
 5    1  0.3858846E+001  0.9397013E+02  0.7546771E-02  0.1293513E+00
         -2   -1    0    0    0  501 -0.00000000000E+00  0.00000000000E+00  0.51892866923E+02  0.51892866923E+02  0.00000000000E+00 0. -1.
          2   -1    0    0  501    0  0.00000000000E+00 -0.00000000000E+00 -0.42541420271E+02  0.42541420271E+02  0.00000000000E+00 0.  1.
         23    2    1    2    0    0  0.00000000000E+00  0.00000000000E+00  0.93514466521E+01  0.94434287194E+02  0.93970128463E+02 0.  0.
          2    1    3    3  502    0 -0.34550849742E+02 -0.26151180001E+02 -0.13578547809E+02  0.45409496737E+02  0.00000000000E+00 0. -1.
         -2    1    3    3    0  502  0.34550849742E+02  0.26151180001E+02  0.22929994461E+02  0.49024790457E+02  0.00000000000E+00 0.  1.
<mgrwt>
<rscale>  0 0.93970128E+02</rscale>
<asrwt>0</asrwt>
<pdfrwt beam="2">  1        2 0.65448339E-02 0.93970128E+02</pdfrwt>
<pdfrwt beam="1">  1       -2 0.79835180E-02 0.93970128E+02</pdfrwt>
<totfact> 0.88812373E+04</totfact>
</mgrwt>
</event>
<event>
 5    1  0.3858846E+001  0.9065419E+02  0.7546771E-02  0.1301275E+00
         -1   -1    0    0    0  501 -0.00000000000E+00  0.00000000000E+00  0.11437316050E+02  0.11437316050E+02  0.00000000000E+00 0.  1.
          1   -1    0    0  501    0  0.00000000000E+00 -0.00000000000E+00 -0.17963530261E+03  0.17963530261E+03  0.00000000000E+00 0. -1.
         23    2    1    2    0    0  0.00000000000E+00  0.00000000000E+00 -0.16819798656E+03  0.19107261866E+03  0.90654194161E+02 0.  0.
          2    1    3    3  502    0  0.29186056108E+02 -0.92765691722E+00 -0.15716870100E+03  0.15985833413E+03  0.00000000000E+00 0. -1.
         -2    1    3    3    0  502 -0.29186056108E+02  0.92765691722E+00 -0.11029285561E+02  0.31214284527E+02  0.00000000000E+00 0.  1.
<mgrwt>
<rscale>  0 0.90654194E+02</rscale>
<asrwt>0</asrwt>
<pdfrwt beam="2">  1        1 0.27636199E-01 0.90654194E+02</pdfrwt>
<pdfrwt beam="1">  1       -1 0.17595872E-02 0.90654194E+02</pdfrwt>
<totfact> 0.11778552E+05</totfact>
</mgrwt>
</event>
<event>
 5    1  0.3858846E+001  0.9255994E+02  0.7546771E-02  0.1296768E+00
          1   -1    0    0  501    0  0.00000000000E+00  0.00000000000E+00  0.13026885659E+02  0.13026885659E+02  0.00000000000E+00 0.  1.
         -1   -1    0    0    0  501 -0.00000000000E+00 -0.00000000000E+00 -0.16441654572E+03  0.16441654572E+03  0.00000000000E+00 0. -1.
         23    2    1    2    0    0  0.00000000000E+00  0.00000000000E+00 -0.15138966006E+03  0.17744343138E+03  0.92559938235E+02 0.  0.
          2    1    3    3  502    0 -0.26046422097E+02  0.95576654042E+01 -0.14670574029E+03  0.14930619313E+03  0.00000000000E+00 0. -1.
         -2    1    3    3    0  502  0.26046422097E+02 -0.95576654042E+01 -0.46839197720E+01  0.28137238253E+02  0.00000000000E+00 0.  1.
<mgrwt>
<rscale>  0 0.92559938E+02</rscale>
<asrwt>0</asrwt>
<pdfrwt beam="1">  1        1 0.20041363E-02 0.92559938E+02</pdfrwt>
<pdfrwt beam="2">  1       -1 0.25294853E-01 0.92559938E+02</pdfrwt>
<totfact> 0.70340158E+04</totfact>
</mgrwt>
</event>
<event>
 5    1  0.3858846E+001  0.8714414E+02  0.7546771E-02  0.1309919E+00
         -2   -1    0    0    0  501 -0.00000000000E+00  0.00000000000E+00  0.56693374171E+01  0.56693374171E+01  0.00000000000E+00 0.  1.
          2   -1    0    0  501    0  0.00000000000E+00 -0.00000000000E+00 -0.33487605454E+03  0.33487605454E+03  0.00000000000E+00 0. -1.
         23    2    1    2    0    0  0.00000000000E+00  0.00000000000E+00 -0.32920671712E+03  0.34054539195E+03  0.87144141422E+02 0.  0.
          2    1    3    3  502    0  0.41024224595E+02  0.23372490206E+01 -0.22124353906E+03  0.22502700574E+03  0.00000000000E+00 0. -1.
         -2    1    3    3    0  502 -0.41024224595E+02 -0.23372490206E+01 -0.10796317806E+03  0.11551838621E+03  0.00000000000E+00 0.  1.
<mgrwt>
<rscale>  0 0.87144141E+02</rscale>
<asrwt>0</asrwt>
<pdfrwt beam="2">  1        2 0.51519409E-01 0.87144141E+02</pdfrwt>
<pdfrwt beam="1">  1       -2 0.87220549E-03 0.87144141E+02</pdfrwt>
<totfact> 0.21101507E+05</totfact>
</mgrwt>
</event>
<event>
 5    1  0.3858846E+001  0.9146541E+02  0.7546771E-02  0.1299341E+00
          2   -1    0    0  501    0  0.00000000000E+00  0.00000000000E+00  0.29187862700E+03  0.29187862700E+03  0.00000000000E+00 0. -1.
         -2   -1    0    0    0  501 -0.00000000000E+00 -0.00000000000E+00 -0.71655820454E+01  0.71655820454E+01  0.00000000000E+00 0.  1.
         23    2    1    2    0    0  0.00000000000E+00  0.00000000000E+00  0.28471304496E+03  0.29904420905E+03  0.91465408742E+02 0.  0.
          2    1    3    3  502    0  0.19851839023E+02  0.32743734113E+02  0.22410869994E+03  0.22735645367E+03  0.00000000000E+00 0. -1.
         -2    1    3    3    0  502 -0.19851839023E+02 -0.32743734113E+02  0.60604345016E+02  0.71687755378E+02  0.00000000000E+00 0.  1.
<mgrwt>
<rscale>  0 0.91465409E+02</rscale>
<asrwt>0</asrwt>
<pdfrwt beam="1">  1        2 0.44904395E-01 0.91465409E+02</pdfrwt>
<pdfrwt beam="2">  1       -2 0.11023975E-02 0.91465409E+02</pdfrwt>
<totfact> 0.17633712E+05</totfact>
</mgrwt>
</event>
<event>
 5    1  0.3858846E+001  0.9108623E+02  0.7546771E-02  0.1300242E+00
          2   -1    0    0  501    0  0.00000000000E+00  0.00000000000E+00  0.16697220322E+03  0.16697220322E+03  0.00000000000E+00 0. -1.
         -2   -1    0    0    0  501 -0.00000000000E+00 -0.00000000000E+00 -0.12422278157E+02  0.12422278157E+02  0.00000000000E+00 0.  1.
         23    2    1    2    0    0  0.00000000000E+00  0.00000000000E+00  0.15454992507E+03  0.17939448138E+03  0.91086226246E+02 0.  0.
          2    1    3    3  502    0  0.35072398669E+02 -0.22192428182E+02  0.11420499177E+03  0.12151278600E+03  0.00000000000E+00 0. -1.
         -2    1    3    3    0  502 -0.35072398669E+02  0.22192428182E+02  0.40344933294E+02  0.57881695375E+02  0.00000000000E+00 0.  1.
<mgrwt>
<rscale>  0 0.91086226E+02</rscale>
<asrwt>0</asrwt>
<pdfrwt beam="1">  1        2 0.25688030E-01 0.91086226E+02</pdfrwt>
<pdfrwt beam="2">  1       -2 0.19111198E-02 0.91086226E+02</pdfrwt>
<totfact> 0.14545688E+05</totfact>
</mgrwt>
</event>
<event>
 5    1  0.3858846E+001  0.9126546E+02  0.7546771E-02  0.1299816E+00
          1   -1    0    0  501    0  0.00000000000E+00  0.00000000000E+00  0.54432777642E+03  0.54432777642E+03  0.00000000000E+00 0. -1.
         -1   -1    0    0    0  501 -0.00000000000E+00 -0.00000000000E+00 -0.38255368407E+01  0.38255368407E+01  0.00000000000E+00 0.  1.
         23    2    1    2    0    0  0.00000000000E+00  0.00000000000E+00  0.54050223958E+03  0.54815331326E+03  0.91265458134E+02 0.  0.
          2    1    3    3  502    0  0.45380940533E+02  0.47859811735E+01  0.27086898502E+03  0.27468589775E+03  0.00000000000E+00 0.  1.
         -2    1    3    3    0  502 -0.45380940533E+02 -0.47859811735E+01  0.26963325456E+03  0.27346741550E+03  0.00000000000E+00 0. -1.
<mgrwt>
<rscale>  0 0.91265458E+02</rscale>
<asrwt>0</asrwt>
<pdfrwt beam="1">  1        1 0.83742673E-01 0.91265458E+02</pdfrwt>
<pdfrwt beam="2">  1       -1 0.58854456E-03 0.91265458E+02</pdfrwt>
<totfact> 0.14016531E+05</totfact>
</mgrwt>
</event>
<event>
 5    1  0.3858846E+001  0.9006705E+02  0.7546771E-02  0.1302689E+00
         -1   -1    0    0    0  501 -0.00000000000E+00  0.00000000000E+00  0.57407500884E+03  0.57407500884E+03  0.00000000000E+00 0.  1.
          1   -1    0    0  501    0  0.00000000000E+00 -0.00000000000E+00 -0.35326712561E+01  0.35326712561E+01  0.00000000000E+00 0. -1.
         23    2    1    2    0    0  0.00000000000E+00  0.00000000000E+00  0.57054233758E+03  0.57760768009E+03  0.90067047971E+02 0.  0.
          2    1    3    3  502    0 -0.25540611289E+02 -0.63748635081E+01  0.50947118678E+02  0.57346060120E+02  0.00000000000E+00 0. -1.
         -2    1    3    3    0  502  0.25540611289E+02  0.63748635081E+01  0.51959521890E+03  0.52026161997E+03  0.00000000000E+00 0.  1.
<mgrwt>
<rscale>  0 0.90067048E+02</rscale>
<asrwt>0</asrwt>
<pdfrwt beam="2">  1        1 0.54348834E-03 0.90067048E+02</pdfrwt>
<pdfrwt beam="1">  1       -1 0.88319158E-01 0.90067048E+02</pdfrwt>
<totfact> 0.44355642E+04</totfact>
</mgrwt>
</event>
<event>
 5    1  0.3858846E+001  0.9013492E+02  0.7546771E-02  0.1302525E+00
          1   -1    0    0  501    0  0.00000000000E+00  0.00000000000E+00  0.52162506042E+03  0.52162506042E+03  0.00000000000E+00 0. -1.
         -1   -1    0    0    0  501 -0.00000000000E+00 -0.00000000000E+00 -0.38937467418E+01  0.38937467418E+01  0.00000000000E+00 0.  1.
         23    2    1    2    0    0  0.00000000000E+00  0.00000000000E+00  0.51773131368E+03  0.52551880716E+03  0.90134918415E+02 0.  0.
          2    1    3    3  502    0 -0.19321294719E+02  0.40704370593E+02  0.25328047728E+03  0.25725698900E+03  0.00000000000E+00 0.  1.
         -2    1    3    3    0  502  0.19321294719E+02 -0.40704370593E+02  0.26445083639E+03  0.26826181816E+03  0.00000000000E+00 0. -1.
<mgrwt>
<rscale>  0 0.90134918E+02</rscale>
<asrwt>0</asrwt>
<pdfrwt beam="1">  1        1 0.80249954E-01 0.90134918E+02</pdfrwt>
<pdfrwt beam="2">  1       -1 0.59903837E-03 0.90134918E+02</pdfrwt>
<totfact> 0.14425094E+05</totfact>
</mgrwt>
</event>
<event>
 5    1  0.3858846E+001  0.9884340E+02  0.7546771E-02  0.1282747E+00
         -2   -1    0    0    0  501 -0.00000000000E+00  0.00000000000E+00  0.25418146482E+02  0.25418146482E+02  0.00000000000E+00 0. -1.
          2   -1    0    0  501    0  0.00000000000E+00 -0.00000000000E+00 -0.96092948498E+02  0.96092948498E+02  0.00000000000E+00 0.  1.
         23    2    1    2    0    0  0.00000000000E+00  0.00000000000E+00 -0.70674802016E+02  0.12151109498E+03  0.98843404248E+02 0.  0.
          2    1    3    3  502    0 -0.30762071230E+00  0.24483506208E+02 -0.88112265822E+02  0.91451124077E+02  0.00000000000E+00 0.  1.
         -2    1    3    3    0  502  0.30762071230E+00 -0.24483506208E+02  0.17437463806E+02  0.30059970903E+02  0.00000000000E+00 0. -1.
<mgrwt>
<rscale>  0 0.98843404E+02</rscale>
<asrwt>0</asrwt>
<pdfrwt beam="2">  1        2 0.14783530E-01 0.98843404E+02</pdfrwt>
<pdfrwt beam="1">  1       -2 0.39104841E-02 0.98843404E+02</pdfrwt>
<totfact> 0.96866970E+04</totfact>
</mgrwt>
</event>
<event>
 5    1  0.3858846E+001  0.8807338E+02  0.7546771E-02  0.1307586E+00
          2   -1    0    0  501    0  0.00000000000E+00  0.00000000000E+00  0.95375855704E+01  0.95375855704E+01  0.00000000000E+00 0. -1.
         -2   -1    0    0    0  501 -0.00000000000E+00 -0.00000000000E+00 -0.20332504526E+03  0.20332504526E+03  0.00000000000E+00 0.  1.
         23    2    1    2    0    0  0.00000000000E+00  0.00000000000E+00 -0.19378745969E+03  0.21286263083E+03  0.88073378902E+02 0.  0.
          2    1    3    3  502    0 -0.38222392668E+02 -0.15717835369E+02 -0.13364525140E+03  0.13988943803E+03  0.00000000000E+00 0. -1.
         -2    1    3    3    0  502  0.38222392668E+02  0.15717835369E+02 -0.60142208296E+02  0.72973192808E+02  0.00000000000E+00 0.  1.
<mgrwt>
<rscale>  0 0.88073379E+02</rscale>
<asrwt>0</asrwt>
<pdfrwt beam="1">  1        2 0.14673209E-02 0.88073379E+02</pdfrwt>
<pdfrwt beam="2">  1       -2 0.31280776E-01 0.88073379E+02</pdfrwt>
<totfact> 0.67589516E+04</totfact>
</mgrwt>
</event>
<event>
 5    1  0.3858846E+001  0.8019933E+02  0.7546771E-02  0.1328487E+00
          4   -1    0    0  501    0  0.00000000000E+00  0.00000000000E+00  0.22858712345E+02  0.22858712345E+02  0.00000000000E+00 0. -1.
         -4   -1    0    0    0  501 -0.00000000000E+00 -0.00000000000E+00 -0.70344437858E+02  0.70344437858E+02  0.00000000000E+00 0.  1.
         23    2    1    2    0    0  0.00000000000E+00  0.00000000000E+00 -0.47485725514E+02  0.93203150203E+02  0.80199333415E+02 0.  0.
          2    1    3    3  502    0  0.25813051775E+02 -0.30569218332E+02 -0.26859601018E+02  0.48189510458E+02  0.00000000000E+00 0. -1.
         -2    1    3    3    0  502 -0.25813051775E+02  0.30569218332E+02 -0.20626124496E+02  0.45013639745E+02  0.00000000000E+00 0.  1.
<mgrwt>
<rscale>  0 0.80199333E+02</rscale>
<asrwt>0</asrwt>
<pdfrwt beam="1">  1        4 0.35167250E-02 0.80199333E+02</pdfrwt>
<pdfrwt beam="2">  1       -4 0.10822221E-01 0.80199333E+02</pdfrwt>
<totfact> 0.37944670E+04</totfact>
</mgrwt>
</event>
<event>
 5    1  0.3858846E+001  0.9107703E+02  0.7546771E-02  0.1300264E+00
          1   -1    0    0  501    0  0.00000000000E+00  0.00000000000E+00  0.76073003267E+03  0.76073003267E+03  0.00000000000E+00 0. -1.
         -1   -1    0    0    0  501 -0.00000000000E+00 -0.00000000000E+00 -0.27260083319E+01  0.27260083319E+01  0.00000000000E+00 0.  1.
         23    2    1    2    0    0  0.00000000000E+00  0.00000000000E+00  0.75800402434E+03  0.76345604100E+03  0.91077031294E+02 0.  0.
          2    1    3    3  502    0 -0.83496110077E+00  0.22372982089E+02  0.71141021213E+03  0.71176241641E+03  0.00000000000E+00 0. -1.
         -2    1    3    3    0  502  0.83496110077E+00 -0.22372982089E+02  0.46593812208E+02  0.51693624594E+02  0.00000000000E+00 0.  1.
<mgrwt>
<rscale>  0 0.91077031E+02</rscale>
<asrwt>0</asrwt>
<pdfrwt beam="1">  1        1 0.11703522E+00 0.91077031E+02</pdfrwt>
<pdfrwt beam="2">  1       -1 0.41938650E-03 0.91077031E+02</pdfrwt>
<totfact> 0.14221641E+05</totfact>
</mgrwt>
</event>
<event>
 5    1  0.3858846E+001  0.8973876E+02  0.7546771E-02  0.1303486E+00
          1   -1    0    0  501    0  0.00000000000E+00  0.00000000000E+00  0.46132128584E+02  0.46132128584E+02  0.00000000000E+00 0. -1.
         -1   -1    0    0    0  501 -0.00000000000E+00 -0.00000000000E+00 -0.43641200705E+02  0.43641200705E+02  0.00000000000E+00 0.  1.
         23    2    1    2    0    0  0.00000000000E+00  0.00000000000E+00  0.24909278783E+01  0.89773329289E+02  0.89738764923E+02 0.  0.
          2    1    3    3  502    0 -0.42729521101E+01  0.33055811457E+02  0.31295620508E+02  0.45720462091E+02  0.00000000000E+00 0. -1.
         -2    1    3    3    0  502  0.42729521101E+01 -0.33055811457E+02 -0.28804692630E+02  0.44052867198E+02  0.00000000000E+00 0.  1.
<mgrwt>
<rscale>  0 0.89738765E+02</rscale>
<asrwt>0</asrwt>
<pdfrwt beam="1">  1        1 0.70972505E-02 0.89738765E+02</pdfrwt>
<pdfrwt beam="2">  1       -1 0.67140309E-02 0.89738765E+02</pdfrwt>
<totfact> 0.96853329E+04</totfact>
</mgrwt>
</event>
<event>
 5    1  0.3858846E+001  0.9139516E+02  0.7546771E-02  0.1299508E+00
         -1   -1    0    0    0  501 -0.00000000000E+00  0.00000000000E+00  0.35025100727E+02  0.35025100727E+02  0.00000000000E+00 0.  1.
          1   -1    0    0  501    0  0.00000000000E+00 -0.00000000000E+00 -0.59622059932E+02  0.59622059932E+02  0.00000000000E+00 0. -1.
         23    2    1    2    0    0  0.00000000000E+00  0.00000000000E+00 -0.24596959205E+02  0.94647160659E+02  0.91395156429E+02 0.  0.
          2    1    3    3  502    0  0.43743525836E+02 -0.12432937448E+02 -0.76447325583E+01  0.46114161839E+02  0.00000000000E+00 0.  1.
         -2    1    3    3    0  502 -0.43743525836E+02  0.12432937448E+02 -0.16952226647E+02  0.48532998820E+02  0.00000000000E+00 0. -1.
<mgrwt>
<rscale>  0 0.91395156E+02</rscale>
<asrwt>0</asrwt>
<pdfrwt beam="2">  1        1 0.91726246E-02 0.91395156E+02</pdfrwt>
<pdfrwt beam="1">  1       -1 0.53884770E-02 0.91395156E+02</pdfrwt>
<totfact> 0.95641683E+04</totfact>
</mgrwt>
</event>
<event>
 5    1  0.3858846E+001  0.9268575E+02  0.7546771E-02  0.1296475E+00
         -1   -1    0    0    0  501 -0.00000000000E+00  0.00000000000E+00  0.78476183455E+03  0.78476183455E+03  0.00000000000E+00 0.  1.
          1   -1    0    0  501    0  0.00000000000E+00 -0.00000000000E+00 -0.27367055003E+01  0.27367055003E+01  0.00000000000E+00 0. -1.
         23    2    1    2    0    0  0.00000000000E+00  0.00000000000E+00  0.78202512905E+03  0.78749854005E+03  0.92685749261E+02 0.  0.
          2    1    3    3  502    0 -0.43216781616E+02  0.73282568736E+01  0.26320728060E+03  0.26683228089E+03  0.00000000000E+00 0. -1.
         -2    1    3    3    0  502  0.43216781616E+02 -0.73282568736E+01  0.51881784845E+03  0.52066625916E+03  0.00000000000E+00 0.  1.
<mgrwt>
<rscale>  0 0.92685749E+02</rscale>
<asrwt>0</asrwt>
<pdfrwt beam="2">  1        1 0.42103224E-03 0.92685749E+02</pdfrwt>
<pdfrwt beam="1">  1       -1 0.12073241E+00 0.92685749E+02</pdfrwt>
<totfact> 0.31855208E+04</totfact>
</mgrwt>
</event>
<event>
 5    1  0.3858846E+001  0.8507876E+02  0.7546771E-02  0.1315227E+00
          2   -1    0    0  501    0  0.00000000000E+00  0.00000000000E+00  0.59226251248E+02  0.59226251248E+02  0.00000000000E+00 0. -1.
         -2   -1    0    0    0  501 -0.00000000000E+00 -0.00000000000E+00 -0.30554000651E+02  0.30554000651E+02  0.00000000000E+00 0.  1.
         23    2    1    2    0    0  0.00000000000E+00  0.00000000000E+00  0.28672250597E+02  0.89780251899E+02  0.85078761608E+02 0.  0.
          2    1    3    3  502    0  0.59724337136E+00 -0.36833781428E+02  0.36784041738E+02  0.52059099882E+02  0.00000000000E+00 0. -1.
         -2    1    3    3    0  502 -0.59724337136E+00  0.36833781428E+02 -0.81117911409E+01  0.37721152017E+02  0.00000000000E+00 0.  1.
<mgrwt>
<rscale>  0 0.85078762E+02</rscale>
<asrwt>0</asrwt>
<pdfrwt beam="1">  1        2 0.91117310E-02 0.85078762E+02</pdfrwt>
<pdfrwt beam="2">  1       -2 0.47006155E-02 0.85078762E+02</pdfrwt>
<totfact> 0.12833744E+05</totfact>
</mgrwt>
</event>
<event>
 5    1  0.3858846E+001  0.9081718E+02  0.7546771E-02  0.1300885E+00
          1   -1    0    0  501    0  0.00000000000E+00  0.00000000000E+00  0.12807232548E+02  0.12807232548E+02  0.00000000000E+00 0. -1.
         -1   -1    0    0    0  501 -0.00000000000E+00 -0.00000000000E+00 -0.16099810517E+03  0.16099810517E+03  0.00000000000E+00 0.  1.
         23    2    1    2    0    0  0.00000000000E+00  0.00000000000E+00 -0.14819087262E+03  0.17380533772E+03  0.90817182796E+02 0.  0.
          2    1    3    3  502    0 -0.38660921133E+02  0.19682388598E+02 -0.48427980893E+02  0.65017940426E+02  0.00000000000E+00 0. -1.
         -2    1    3    3    0  502  0.38660921133E+02 -0.19682388598E+02 -0.99762891729E+02  0.10878739729E+03  0.00000000000E+00 0.  1.
<mgrwt>
<rscale>  0 0.90817183E+02</rscale>
<asrwt>0</asrwt>
<pdfrwt beam="1">  1        1 0.19703433E-02 0.90817183E+02</pdfrwt>
<pdfrwt beam="2">  1       -1 0.24768941E-01 0.90817183E+02</pdfrwt>
<totfact> 0.74289914E+04</totfact>
</mgrwt>
</event>
<event>
 5    1  0.3858846E+001  0.9129012E+02  0.7546771E-02  0.1299757E+00
          3   -1    0    0  501    0  0.00000000000E+00  0.00000000000E+00  0.12059115845E+03  0.12059115845E+03  0.00000000000E+00 0. -1.
         -3   -1    0    0    0  501 -0.00000000000E+00 -0.00000000000E+00 -0.17277148639E+02  0.17277148639E+02  0.00000000000E+00 0.  1.
         23    2    1    2    0    0  0.00000000000E+00  0.00000000000E+00  0.10331400982E+03  0.13786830709E+03  0.91290117081E+02 0.  0.
          2    1    3    3  502    0  0.99442370272E+01 -0.41660000918E+02  0.75489232186E+02  0.86793246872E+02  0.00000000000E+00 0. -1.
         -2    1    3    3    0  502 -0.99442370272E+01  0.41660000918E+02  0.27824777629E+02  0.51075060221E+02  0.00000000000E+00 0.  1.
<mgrwt>
<rscale>  0 0.91290117E+02</rscale>
<asrwt>0</asrwt>
<pdfrwt beam="1">  1        3 0.18552485E-01 0.91290117E+02</pdfrwt>
<pdfrwt beam="2">  1       -3 0.26580229E-02 0.91290117E+02</pdfrwt>
<totfact> 0.31957974E+04</totfact>
</mgrwt>
</event>
<event>
 5    1  0.3858846E+001  0.9048293E+02  0.7546771E-02  0.1301686E+00
         -1   -1    0    0    0  501 -0.00000000000E+00  0.00000000000E+00  0.17562631170E+02  0.17562631170E+02  0.00000000000E+00 0.  1.
          1   -1    0    0  501    0  0.00000000000E+00 -0.00000000000E+00 -0.11654234766E+03  0.11654234766E+03  0.00000000000E+00 0. -1.
         23    2    1    2    0    0  0.00000000000E+00  0.00000000000E+00 -0.98979716488E+02  0.13410497883E+03  0.90482932480E+02 0.  0.
          2    1    3    3  502    0  0.34327639666E+02 -0.13432223632E+02 -0.88364442687E+02  0.95744901734E+02  0.00000000000E+00 0. -1.
         -2    1    3    3    0  502 -0.34327639666E+02  0.13432223632E+02 -0.10615273802E+02  0.38360077094E+02  0.00000000000E+00 0.  1.
<mgrwt>
<rscale>  0 0.90482932E+02</rscale>
<asrwt>0</asrwt>
<pdfrwt beam="2">  1        1 0.17929592E-01 0.90482932E+02</pdfrwt>
<pdfrwt beam="1">  1       -1 0.27019432E-02 0.90482932E+02</pdfrwt>
<totfact> 0.10943847E+05</totfact>
</mgrwt>
</event>
<event>
 5    1  0.3858846E+001  0.9050290E+02  0.7546771E-02  0.1301638E+00
          1   -1    0    0  501    0  0.00000000000E+00  0.00000000000E+00  0.11386517713E+04  0.11386517713E+04  0.00000000000E+00 0. -1.
         -1   -1    0    0    0  501 -0.00000000000E+00 -0.00000000000E+00 -0.17983495286E+01  0.17983495286E+01  0.00000000000E+00 0.  1.
         23    2    1    2    0    0  0.00000000000E+00  0.00000000000E+00  0.11368534218E+04  0.11404501209E+04  0.90502903295E+02 0.  0.
          2    1    3    3  502    0 -0.25093588117E+02 -0.16456622199E+00  0.93913151607E+02  0.97208000141E+02  0.00000000000E+00 0.  1.
         -2    1    3    3    0  502  0.25093588117E+02  0.16456622199E+00  0.10429402702E+04  0.10432421207E+04  0.00000000000E+00 0. -1.
<mgrwt>
<rscale>  0 0.90502903E+02</rscale>
<asrwt>0</asrwt>
<pdfrwt beam="1">  1        1 0.17517662E+00 0.90502903E+02</pdfrwt>
<pdfrwt beam="2">  1       -1 0.27667007E-03 0.90502903E+02</pdfrwt>
<totfact> 0.13283722E+05</totfact>
</mgrwt>
</event>
<event>
 5    1  0.3858846E+001  0.9125864E+02  0.7546771E-02  0.1299832E+00
         -1   -1    0    0    0  501 -0.00000000000E+00  0.00000000000E+00  0.12971741501E+02  0.12971741501E+02  0.00000000000E+00 0.  1.
          1   -1    0    0  501    0  0.00000000000E+00 -0.00000000000E+00 -0.16050540690E+03  0.16050540690E+03  0.00000000000E+00 0. -1.
         23    2    1    2    0    0  0.00000000000E+00  0.00000000000E+00 -0.14753366540E+03  0.17347714840E+03  0.91258635707E+02 0.  0.
          2    1    3    3  502    0 -0.16387351240E+02  0.42521879713E+02 -0.78175665490E+02  0.90488066671E+02  0.00000000000E+00 0. -1.
         -2    1    3    3    0  502  0.16387351240E+02 -0.42521879713E+02 -0.69357999905E+02  0.82989081726E+02  0.00000000000E+00 0.  1.
<mgrwt>
<rscale>  0 0.91258636E+02</rscale>
<asrwt>0</asrwt>
<pdfrwt beam="2">  1        1 0.24693139E-01 0.91258636E+02</pdfrwt>
<pdfrwt beam="1">  1       -1 0.19956526E-02 0.91258636E+02</pdfrwt>
<totfact> 0.11327261E+05</totfact>
</mgrwt>
</event>
<event>
 5    1  0.3858846E+001  0.9061863E+02  0.7546771E-02  0.1301360E+00
          2   -1    0    0  501    0  0.00000000000E+00  0.00000000000E+00  0.35144615528E+02  0.35144615528E+02  0.00000000000E+00 0. -1.
         -2   -1    0    0    0  501 -0.00000000000E+00 -0.00000000000E+00 -0.58413898863E+02  0.58413898863E+02  0.00000000000E+00 0.  1.
         23    2    1    2    0    0  0.00000000000E+00  0.00000000000E+00 -0.23269283335E+02  0.93558514390E+02  0.90618629806E+02 0.  0.
          2    1    3    3  502    0 -0.29294751228E+02  0.33798224352E+02 -0.41587607759E+01  0.44919903273E+02  0.00000000000E+00 0. -1.
         -2    1    3    3    0  502  0.29294751228E+02 -0.33798224352E+02 -0.19110522559E+02  0.48638611117E+02  0.00000000000E+00 0.  1.
<mgrwt>
<rscale>  0 0.90618630E+02</rscale>
<asrwt>0</asrwt>
<pdfrwt beam="1">  1        2 0.54068640E-02 0.90618630E+02</pdfrwt>
<pdfrwt beam="2">  1       -2 0.89867536E-02 0.90618630E+02</pdfrwt>
<totfact> 0.93908012E+04</totfact>
</mgrwt>
</event>
<event>
 5    1  0.3858846E+001  0.9112848E+02  0.7546771E-02  0.1300142E+00
          2   -1    0    0  501    0  0.00000000000E+00  0.00000000000E+00  0.30230578225E+04  0.30230578225E+04  0.00000000000E+00 0. -1.
         -2   -1    0    0    0  501 -0.00000000000E+00 -0.00000000000E+00 -0.68675494810E+00  0.68675494810E+00  0.00000000000E+00 0.  1.
         23    2    1    2    0    0  0.00000000000E+00  0.00000000000E+00  0.30223710676E+04  0.30237445775E+04  0.91128478930E+02 0.  0.
          2    1    3    3  502    0 -0.73641973333E+01  0.37613374228E+02  0.69362103311E+03  0.69467915968E+03  0.00000000000E+00 0. -1.
         -2    1    3    3    0  502  0.73641973333E+01 -0.37613374228E+02  0.23287500345E+04  0.23290654178E+04  0.00000000000E+00 0.  1.
<mgrwt>
<rscale>  0 0.91128479E+02</rscale>
<asrwt>0</asrwt>
<pdfrwt beam="1">  1        2 0.46507516E+00 0.91128479E+02</pdfrwt>
<pdfrwt beam="2">  1       -2 0.10565703E-03 0.91128479E+02</pdfrwt>
<totfact> 0.10006492E+05</totfact>
</mgrwt>
</event>
<event>
 5    1  0.3858846E+001  0.9240962E+02  0.7546771E-02  0.1297119E+00
         -2   -1    0    0    0  501 -0.00000000000E+00  0.00000000000E+00  0.15698895621E+01  0.15698895621E+01  0.00000000000E+00 0.  1.
          2   -1    0    0  501    0  0.00000000000E+00 -0.00000000000E+00 -0.13598946311E+04  0.13598946311E+04  0.00000000000E+00 0. -1.
         23    2    1    2    0    0  0.00000000000E+00  0.00000000000E+00 -0.13583247416E+04  0.13614645207E+04  0.92409618266E+02 0.  0.
          2    1    3    3  502    0  0.20746057304E+02  0.59675433226E+01 -0.12810299031E+04  0.12812117791E+04  0.00000000000E+00 0. -1.
         -2    1    3    3    0  502 -0.20746057304E+02 -0.59675433226E+01 -0.77294838491E+02  0.80252741538E+02  0.00000000000E+00 0.  1.
<mgrwt>
<rscale>  0 0.92409618E+02</rscale>
<asrwt>0</asrwt>
<pdfrwt beam="2">  1        2 0.20921363E+00 0.92409618E+02</pdfrwt>
<pdfrwt beam="1">  1       -2 0.24152254E-03 0.92409618E+02</pdfrwt>
<totfact> 0.23480952E+05</totfact>
</mgrwt>
</event>
<event>
 5    1  0.3858846E+001  0.9034037E+02  0.7546771E-02  0.1302030E+00
          1   -1    0    0  501    0  0.00000000000E+00  0.00000000000E+00  0.10024062433E+03  0.10024062433E+03  0.00000000000E+00 0. -1.
         -1   -1    0    0    0  501 -0.00000000000E+00 -0.00000000000E+00 -0.20354476900E+02  0.20354476900E+02  0.00000000000E+00 0.  1.
         23    2    1    2    0    0  0.00000000000E+00  0.00000000000E+00  0.79886147428E+02  0.12059510123E+03  0.90340366886E+02 0.  0.
          2    1    3    3  502    0 -0.26581593827E+02 -0.20208865096E+02  0.80550420308E+02  0.87197187860E+02  0.00000000000E+00 0. -1.
         -2    1    3    3    0  502  0.26581593827E+02  0.20208865096E+02 -0.66427287980E+00  0.33397913368E+02  0.00000000000E+00 0.  1.
<mgrwt>
<rscale>  0 0.90340367E+02</rscale>
<asrwt>0</asrwt>
<pdfrwt beam="1">  1        1 0.15421634E-01 0.90340367E+02</pdfrwt>
<pdfrwt beam="2">  1       -1 0.31314580E-02 0.90340367E+02</pdfrwt>
<totfact> 0.10714863E+05</totfact>
</mgrwt>
</event>
<event>
 5    1  0.3858846E+001  0.9023592E+02  0.7546771E-02  0.1302281E+00
          1   -1    0    0  501    0  0.00000000000E+00  0.00000000000E+00  0.99342201997E+03  0.99342201997E+03  0.00000000000E+00 0. -1.
         -1   -1    0    0    0  501 -0.00000000000E+00 -0.00000000000E+00 -0.20491094489E+01  0.20491094489E+01  0.00000000000E+00 0.  1.
         23    2    1    2    0    0  0.00000000000E+00  0.00000000000E+00  0.99137291052E+03  0.99547112941E+03  0.90235922954E+02 0.  0.
          2    1    3    3  502    0 -0.23353556053E+02  0.28515873928E+02  0.78274559468E+03  0.78361292079E+03  0.00000000000E+00 0. -1.
         -2    1    3    3    0  502  0.23353556053E+02 -0.28515873928E+02  0.20862731584E+03  0.21185820862E+03  0.00000000000E+00 0.  1.
<mgrwt>
<rscale>  0 0.90235923E+02</rscale>
<asrwt>0</asrwt>
<pdfrwt beam="1">  1        1 0.15283377E+00 0.90235923E+02</pdfrwt>
<pdfrwt beam="2">  1       -1 0.31524840E-03 0.90235923E+02</pdfrwt>
<totfact> 0.14003758E+05</totfact>
</mgrwt>
</event>
<event>
 5    1  0.3858846E+001  0.9355399E+02  0.7546771E-02  0.1294466E+00
          3   -1    0    0  501    0  0.00000000000E+00  0.00000000000E+00  0.14113270852E+02  0.14113270852E+02  0.00000000000E+00 0. -1.
         -3   -1    0    0    0  501 -0.00000000000E+00 -0.00000000000E+00 -0.15503758068E+03  0.15503758068E+03  0.00000000000E+00 0.  1.
         23    2    1    2    0    0  0.00000000000E+00  0.00000000000E+00 -0.14092430983E+03  0.16915085153E+03  0.93553992292E+02 0.  0.
          2    1    3    3  502    0 -0.37916244913E+02 -0.24009082172E+02 -0.46611593348E+02  0.64704855224E+02  0.00000000000E+00 0. -1.
         -2    1    3    3    0  502  0.37916244913E+02  0.24009082172E+02 -0.94312716482E+02  0.10444599631E+03  0.00000000000E+00 0.  1.
<mgrwt>
<rscale>  0 0.93553992E+02</rscale>
<asrwt>0</asrwt>
<pdfrwt beam="1">  1        3 0.21712725E-02 0.93553992E+02</pdfrwt>
<pdfrwt beam="2">  1       -3 0.23851935E-01 0.93553992E+02</pdfrwt>
<totfact> 0.28140742E+04</totfact>
</mgrwt>
</event>
<event>
 5    1  0.3858846E+001  0.8464430E+02  0.7546771E-02  0.1316365E+00
          2   -1    0    0  501    0  0.00000000000E+00  0.00000000000E+00  0.56618593413E+02  0.56618593413E+02  0.00000000000E+00 0. -1.
         -2   -1    0    0    0  501 -0.00000000000E+00 -0.00000000000E+00 -0.31635620980E+02  0.31635620980E+02  0.00000000000E+00 0.  1.
         23    2    1    2    0    0  0.00000000000E+00  0.00000000000E+00  0.24982972433E+02  0.88254214394E+02  0.84644299552E+02 0.  0.
          2    1    3    3  502    0  0.19406346504E+02  0.36274891367E+02  0.22849465687E+02  0.47059240437E+02  0.00000000000E+00 0. -1.
         -2    1    3    3    0  502 -0.19406346504E+02 -0.36274891367E+02  0.21335067463E+01  0.41194973957E+02  0.00000000000E+00 0.  1.
<mgrwt>
<rscale>  0 0.84644300E+02</rscale>
<asrwt>0</asrwt>
<pdfrwt beam="1">  1        2 0.87105529E-02 0.84644300E+02</pdfrwt>
<pdfrwt beam="2">  1       -2 0.48670186E-02 0.84644300E+02</pdfrwt>
<totfact> 0.12869347E+05</totfact>
</mgrwt>
</event>
<event>
 5    1  0.3858846E+001  0.9647083E+02  0.7546771E-02  0.1287897E+00
          2   -1    0    0  501    0  0.00000000000E+00  0.00000000000E+00  0.12090480982E+04  0.12090480982E+04  0.00000000000E+00 0.  1.
         -2   -1    0    0    0  501 -0.00000000000E+00 -0.00000000000E+00 -0.19243693182E+01  0.19243693182E+01  0.00000000000E+00 0. -1.
         23    2    1    2    0    0  0.00000000000E+00  0.00000000000E+00  0.12071237288E+04  0.12109724675E+04  0.96470825938E+02 0.  0.
          2    1    3    3  502    0  0.20057497857E+02  0.21494712495E+01  0.53567130497E+02  0.57239504860E+02  0.00000000000E+00 0. -1.
         -2    1    3    3    0  502 -0.20057497857E+02 -0.21494712495E+01  0.11535565983E+04  0.11537329626E+04  0.00000000000E+00 0.  1.
<mgrwt>
<rscale>  0 0.96470826E+02</rscale>
<asrwt>0</asrwt>
<pdfrwt beam="1">  1        2 0.18600679E+00 0.96470826E+02</pdfrwt>
<pdfrwt beam="2">  1       -2 0.29605778E-03 0.96470826E+02</pdfrwt>
<totfact> 0.21407752E+05</totfact>
</mgrwt>
</event>
<event>
 5    1  0.3858846E+001  0.1055470E+03  0.7546771E-02  0.1269046E+00
          1   -1    0    0  501    0  0.00000000000E+00  0.00000000000E+00  0.60249579071E+03  0.60249579071E+03  0.00000000000E+00 0. -1.
         -1   -1    0    0    0  501 -0.00000000000E+00 -0.00000000000E+00 -0.46225059514E+01  0.46225059514E+01  0.00000000000E+00 0.  1.
         23    2    1    2    0    0  0.00000000000E+00  0.00000000000E+00  0.59787328475E+03  0.60711829666E+03  0.10554696354E+03 0.  0.
          2    1    3    3  502    0  0.21744694570E+02  0.32708829039E+02  0.50168064260E+03  0.50321582487E+03  0.00000000000E+00 0. -1.
         -2    1    3    3    0  502 -0.21744694570E+02 -0.32708829039E+02  0.96192642153E+02  0.10390247179E+03  0.00000000000E+00 0.  1.
<mgrwt>
<rscale>  0 0.10554696E+03</rscale>
<asrwt>0</asrwt>
<pdfrwt beam="1">  1        1 0.92691598E-01 0.10554696E+03</pdfrwt>
<pdfrwt beam="2">  1       -1 0.71115524E-03 0.10554696E+03</pdfrwt>
<totfact> 0.95871896E+04</totfact>
</mgrwt>
</event>
<event>
 5    1  0.3858846E+001  0.8538555E+02  0.7546771E-02  0.1314427E+00
          1   -1    0    0  501    0  0.00000000000E+00  0.00000000000E+00  0.94372947902E+01  0.94372947902E+01  0.00000000000E+00 0. -1.
         -1   -1    0    0    0  501 -0.00000000000E+00 -0.00000000000E+00 -0.19313513857E+03  0.19313513857E+03  0.00000000000E+00 0.  1.
         23    2    1    2    0    0  0.00000000000E+00  0.00000000000E+00 -0.18369784378E+03  0.20257243336E+03  0.85385554681E+02 0.  0.
          2    1    3    3  502    0  0.40417479224E+02  0.24707601997E+01 -0.59755451239E+02  0.72183039805E+02  0.00000000000E+00 0. -1.
         -2    1    3    3    0  502 -0.40417479224E+02 -0.24707601997E+01 -0.12394239254E+03  0.13038939356E+03  0.00000000000E+00 0.  1.
<mgrwt>
<rscale>  0 0.85385555E+02</rscale>
<asrwt>0</asrwt>
<pdfrwt beam="1">  1        1 0.14518916E-02 0.85385555E+02</pdfrwt>
<pdfrwt beam="2">  1       -1 0.29713097E-01 0.85385555E+02</pdfrwt>
<totfact> 0.83144054E+04</totfact>
</mgrwt>
</event>
<event>
 5    1  0.3858846E+001  0.8864270E+02  0.7546771E-02  0.1306172E+00
          1   -1    0    0  501    0  0.00000000000E+00  0.00000000000E+00  0.10208254828E+04  0.10208254828E+04  0.00000000000E+00 0. -1.
         -1   -1    0    0    0  501 -0.00000000000E+00 -0.00000000000E+00 -0.19243072992E+01  0.19243072992E+01  0.00000000000E+00 0.  1.
         23    2    1    2    0    0  0.00000000000E+00  0.00000000000E+00  0.10189011755E+04  0.10227497901E+04  0.88642696884E+02 0.  0.
          2    1    3    3  502    0 -0.80346985567E+01 -0.35199364618E+02  0.21285041146E+03  0.21589082729E+03  0.00000000000E+00 0. -1.
         -2    1    3    3    0  502  0.80346985567E+01  0.35199364618E+02  0.80605076400E+03  0.80685896277E+03  0.00000000000E+00 0.  1.
<mgrwt>
<rscale>  0 0.88642697E+02</rscale>
<asrwt>0</asrwt>
<pdfrwt beam="1">  1        1 0.15704964E+00 0.88642697E+02</pdfrwt>
<pdfrwt beam="2">  1       -1 0.29604809E-03 0.88642697E+02</pdfrwt>
<totfact> 0.14569296E+05</totfact>
</mgrwt>
</event>
<event>
 5    1  0.3858846E+001  0.9137627E+02  0.7546771E-02  0.1299553E+00
          1   -1    0    0  501    0  0.00000000000E+00  0.00000000000E+00  0.14467722216E+04  0.14467722216E+04  0.00000000000E+00 0. -1.
         -1   -1    0    0    0  501 -0.00000000000E+00 -0.00000000000E+00 -0.14428017910E+01  0.14428017910E+01  0.00000000000E+00 0.  1.
         23    2    1    2    0    0  0.00000000000E+00  0.00000000000E+00  0.14453294198E+04  0.14482150234E+04  0.91376267212E+02 0.  0.
          2    1    3    3  502    0 -0.38322810039E+01  0.28242620459E+02  0.12886006259E+04  0.12889157866E+04  0.00000000000E+00 0. -1.
         -2    1    3    3    0  502  0.38322810039E+01 -0.28242620459E+02  0.15672879388E+03  0.15929923672E+03  0.00000000000E+00 0.  1.
<mgrwt>
<rscale>  0 0.91376267E+02</rscale>
<asrwt>0</asrwt>
<pdfrwt beam="1">  1        1 0.22257918E+00 0.91376267E+02</pdfrwt>
<pdfrwt beam="2">  1       -1 0.22197066E-03 0.91376267E+02</pdfrwt>
<totfact> 0.11303652E+05</totfact>
</mgrwt>
</event>
<event>
 5    1  0.3858846E+001  0.9033744E+02  0.7546771E-02  0.1302037E+00
          2   -1    0    0  501    0  0.00000000000E+00  0.00000000000E+00  0.10578116995E+02  0.10578116995E+02  0.00000000000E+00 0. -1.
         -2   -1    0    0    0  501 -0.00000000000E+00 -0.00000000000E+00 -0.19287113782E+03  0.19287113782E+03  0.00000000000E+00 0.  1.
         23    2    1    2    0    0  0.00000000000E+00  0.00000000000E+00 -0.18229302083E+03  0.20344925482E+03  0.90337444305E+02 0.  0.
          2    1    3    3  502    0 -0.13193792685E+02  0.30216061479E+02 -0.21617880364E+02  0.39426124438E+02  0.00000000000E+00 0. -1.
         -2    1    3    3    0  502  0.13193792685E+02 -0.30216061479E+02 -0.16067514046E+03  0.16402313038E+03  0.00000000000E+00 0.  1.
<mgrwt>
<rscale>  0 0.90337444E+02</rscale>
<asrwt>0</asrwt>
<pdfrwt beam="1">  1        2 0.16274027E-02 0.90337444E+02</pdfrwt>
<pdfrwt beam="2">  1       -2 0.29672481E-01 0.90337444E+02</pdfrwt>
<totfact> 0.64805326E+04</totfact>
</mgrwt>
</event>
<event>
 5    1  0.3858846E+001  0.6132368E+02  0.7546771E-02  0.1392359E+00
         -2   -1    0    0    0  501 -0.00000000000E+00  0.00000000000E+00  0.42973547313E+02  0.42973547313E+02  0.00000000000E+00 0.  1.
          2   -1    0    0  501    0  0.00000000000E+00 -0.00000000000E+00 -0.21877378837E+02  0.21877378837E+02  0.00000000000E+00 0. -1.
         23    2    1    2    0    0  0.00000000000E+00  0.00000000000E+00  0.21096168476E+02  0.64850926149E+02  0.61323684642E+02 0.  0.
          2    1    3    3  502    0  0.88491918338E+01 -0.26488919598E+02 -0.28360017947E+01  0.28071586413E+02  0.00000000000E+00 0. -1.
         -2    1    3    3    0  502 -0.88491918338E+01  0.26488919598E+02  0.23932170271E+02  0.36779339736E+02  0.00000000000E+00 0.  1.
<mgrwt>
<rscale>  0 0.61323685E+02</rscale>
<asrwt>0</asrwt>
<pdfrwt beam="2">  1        2 0.33657506E-02 0.61323685E+02</pdfrwt>
<pdfrwt beam="1">  1       -2 0.66113149E-02 0.61323685E+02</pdfrwt>
<totfact> 0.25677721E+05</totfact>
</mgrwt>
</event>
<event>
 5    1  0.3858846E+001  0.9136129E+02  0.7546771E-02  0.1299588E+00
          1   -1    0    0  501    0  0.00000000000E+00  0.00000000000E+00  0.80542841537E+03  0.80542841537E+03  0.00000000000E+00 0. -1.
         -1   -1    0    0    0  501 -0.00000000000E+00 -0.00000000000E+00 -0.25908216751E+01  0.25908216751E+01  0.00000000000E+00 0.  1.
         23    2    1    2    0    0  0.00000000000E+00  0.00000000000E+00  0.80283759369E+03  0.80801923704E+03  0.91361291503E+02 0.  0.
          2    1    3    3  502    0 -0.33415215444E+02  0.77655839569E+01  0.66819193499E+03  0.66907200129E+03  0.00000000000E+00 0. -1.
         -2    1    3    3    0  502  0.33415215444E+02 -0.77655839569E+01  0.13464565870E+03  0.13894723576E+03  0.00000000000E+00 0.  1.
<mgrwt>
<rscale>  0 0.91361292E+02</rscale>
<asrwt>0</asrwt>
<pdfrwt beam="1">  1        1 0.12391186E+00 0.91361292E+02</pdfrwt>
<pdfrwt beam="2">  1       -1 0.39858859E-03 0.91361292E+02</pdfrwt>
<totfact> 0.14046059E+05</totfact>
</mgrwt>
</event>
<event>
 5    1  0.3858846E+001  0.8854709E+02  0.7546771E-02  0.1306409E+00
          3   -1    0    0  501    0  0.00000000000E+00  0.00000000000E+00  0.92739647171E+02  0.92739647171E+02  0.00000000000E+00 0. -1.
         -3   -1    0    0    0  501 -0.00000000000E+00 -0.00000000000E+00 -0.21136016345E+02  0.21136016345E+02  0.00000000000E+00 0.  1.
         23    2    1    2    0    0  0.00000000000E+00  0.00000000000E+00  0.71603630827E+02  0.11387566352E+03  0.88547088002E+02 0.  0.
          2    1    3    3  502    0 -0.34929506760E+02  0.26905530735E+02  0.30630585942E+02  0.53686225624E+02  0.00000000000E+00 0. -1.
         -2    1    3    3    0  502  0.34929506760E+02 -0.26905530735E+02  0.40973044885E+02  0.60189437892E+02  0.00000000000E+00 0.  1.
<mgrwt>
<rscale>  0 0.88547088E+02</rscale>
<asrwt>0</asrwt>
<pdfrwt beam="1">  1        3 0.14267638E-01 0.88547088E+02</pdfrwt>
<pdfrwt beam="2">  1       -3 0.32516949E-02 0.88547088E+02</pdfrwt>
<totfact> 0.36448326E+04</totfact>
</mgrwt>
</event>
<event>
 5    1  0.3858846E+001  0.8949768E+02  0.7546771E-02  0.1304073E+00
          2   -1    0    0  501    0  0.00000000000E+00  0.00000000000E+00  0.71433825914E+03  0.71433825914E+03  0.00000000000E+00 0. -1.
         -2   -1    0    0    0  501 -0.00000000000E+00 -0.00000000000E+00 -0.28032360570E+01  0.28032360570E+01  0.00000000000E+00 0.  1.
         23    2    1    2    0    0  0.00000000000E+00  0.00000000000E+00  0.71153502309E+03  0.71714149520E+03  0.89497681868E+02 0.  0.
          2    1    3    3  502    0  0.23598097117E+02 -0.25464162168E+02  0.12952866226E+03  0.13410058944E+03  0.00000000000E+00 0.  1.
         -2    1    3    3    0  502 -0.23598097117E+02  0.25464162168E+02  0.58200636083E+03  0.58304090575E+03  0.00000000000E+00 0. -1.
<mgrwt>
<rscale>  0 0.89497682E+02</rscale>
<asrwt>0</asrwt>
<pdfrwt beam="1">  1        2 0.10989805E+00 0.89497682E+02</pdfrwt>
<pdfrwt beam="2">  1       -2 0.43126766E-03 0.89497682E+02</pdfrwt>
<totfact> 0.25020320E+05</totfact>
</mgrwt>
</event>
<event>
 5    1  0.3858846E+001  0.9438276E+02  0.7546771E-02  0.1292572E+00
          1   -1    0    0  501    0  0.00000000000E+00  0.00000000000E+00  0.41661039962E+02  0.41661039962E+02  0.00000000000E+00 0. -1.
         -1   -1    0    0    0  501 -0.00000000000E+00 -0.00000000000E+00 -0.53455848491E+02  0.53455848491E+02  0.00000000000E+00 0.  1.
         23    2    1    2    0    0  0.00000000000E+00  0.00000000000E+00 -0.11794808528E+02  0.95116888453E+02  0.94382757751E+02 0.  0.
          2    1    3    3  502    0 -0.23599961762E+02  0.15709230491E+01 -0.47051299464E+02  0.52661663244E+02  0.00000000000E+00 0.  1.
         -2    1    3    3    0  502  0.23599961762E+02 -0.15709230491E+01  0.35256490936E+02  0.42455225209E+02  0.00000000000E+00 0. -1.
<mgrwt>
<rscale>  0 0.94382758E+02</rscale>
<asrwt>0</asrwt>
<pdfrwt beam="1">  1        1 0.64093908E-02 0.94382758E+02</pdfrwt>
<pdfrwt beam="2">  1       -1 0.82239767E-02 0.94382758E+02</pdfrwt>
<totfact> 0.82725886E+04</totfact>
</mgrwt>
</event>
<event>
 5    1  0.3858846E+001  0.9128442E+02  0.7546771E-02  0.1299771E+00
          2   -1    0    0  501    0  0.00000000000E+00  0.00000000000E+00  0.22024496556E+01  0.22024496556E+01  0.00000000000E+00 0. -1.
         -2   -1    0    0    0  501 -0.00000000000E+00 -0.00000000000E+00 -0.94586098988E+03  0.94586098988E+03  0.00000000000E+00 0.  1.
         23    2    1    2    0    0  0.00000000000E+00  0.00000000000E+00 -0.94365854022E+03  0.94806343953E+03  0.91284417320E+02 0.  0.
          2    1    3    3  502    0  0.77250013552E+01 -0.32673069355E+02 -0.15070651296E+03  0.15440096552E+03  0.00000000000E+00 0. -1.
         -2    1    3    3    0  502 -0.77250013552E+01  0.32673069355E+02 -0.79295202727E+03  0.79366247401E+03  0.00000000000E+00 0.  1.
<mgrwt>
<rscale>  0 0.91284417E+02</rscale>
<asrwt>0</asrwt>
<pdfrwt beam="1">  1        2 0.33883899E-03 0.91284417E+02</pdfrwt>
<pdfrwt beam="2">  1       -2 0.14551682E+00 0.91284417E+02</pdfrwt>
<totfact> 0.19858980E+04</totfact>
</mgrwt>
</event>
<event>
 5    1  0.3858846E+001  0.9235545E+02  0.7546771E-02  0.1297246E+00
          1   -1    0    0  501    0  0.00000000000E+00  0.00000000000E+00  0.14855914740E+03  0.14855914740E+03  0.00000000000E+00 0. -1.
         -1   -1    0    0    0  501 -0.00000000000E+00 -0.00000000000E+00 -0.14353759977E+02  0.14353759977E+02  0.00000000000E+00 0.  1.
         23    2    1    2    0    0  0.00000000000E+00  0.00000000000E+00  0.13420538743E+03  0.16291290738E+03  0.92355451258E+02 0.  0.
          2    1    3    3  502    0  0.21622156342E+02 -0.12197326095E+02  0.13578667195E+03  0.13803735976E+03  0.00000000000E+00 0. -1.
         -2    1    3    3    0  502 -0.21622156342E+02  0.12197326095E+02 -0.15812845276E+01  0.24875547623E+02  0.00000000000E+00 0.  1.
<mgrwt>
<rscale>  0 0.92355451E+02</rscale>
<asrwt>0</asrwt>
<pdfrwt beam="1">  1        1 0.22855252E-01 0.92355451E+02</pdfrwt>
<pdfrwt beam="2">  1       -1 0.22082709E-02 0.92355451E+02</pdfrwt>
<totfact> 0.10811522E+05</totfact>
</mgrwt>
</event>
<event>
 5    1  0.3858846E+001  0.8800646E+02  0.7546771E-02  0.1307752E+00
          4   -1    0    0  501    0  0.00000000000E+00  0.00000000000E+00  0.67045813350E+02  0.67045813350E+02  0.00000000000E+00 0. -1.
         -4   -1    0    0    0  501 -0.00000000000E+00 -0.00000000000E+00 -0.28880020586E+02  0.28880020586E+02  0.00000000000E+00 0.  1.
         23    2    1    2    0    0  0.00000000000E+00  0.00000000000E+00  0.38165792764E+02  0.95925833937E+02  0.88006464985E+02 0.  0.
          2    1    3    3  502    0  0.29210239880E+02  0.32810858689E+02  0.16305268434E+02  0.46857788472E+02  0.00000000000E+00 0. -1.
         -2    1    3    3    0  502 -0.29210239880E+02 -0.32810858689E+02  0.21860524330E+02  0.49068045465E+02  0.00000000000E+00 0.  1.
<mgrwt>
<rscale>  0 0.88006465E+02</rscale>
<asrwt>0</asrwt>
<pdfrwt beam="1">  1        4 0.10314740E-01 0.88006465E+02</pdfrwt>
<pdfrwt beam="2">  1       -4 0.44430801E-02 0.88006465E+02</pdfrwt>
<totfact> 0.29392224E+04</totfact>
</mgrwt>
</event>
<event>
 5    1  0.3858846E+001  0.1027972E+03  0.7546771E-02  0.1274521E+00
         -2   -1    0    0    0  501 -0.00000000000E+00  0.00000000000E+00  0.18062811316E+01  0.18062811316E+01  0.00000000000E+00 0.  1.
          2   -1    0    0  501    0  0.00000000000E+00 -0.00000000000E+00 -0.14625729973E+04  0.14625729973E+04  0.00000000000E+00 0. -1.
         23    2    1    2    0    0  0.00000000000E+00  0.00000000000E+00 -0.14607667161E+04  0.14643792784E+04  0.10279723748E+03 0.  0.
          2    1    3    3  502    0 -0.24237480645E+02  0.42019715955E+02 -0.48833616840E+03  0.49073956980E+03  0.00000000000E+00 0.  1.
         -2    1    3    3    0  502  0.24237480645E+02 -0.42019715955E+02 -0.97243054772E+03  0.97363970859E+03  0.00000000000E+00 0. -1.
<mgrwt>
<rscale>  0 0.10279724E+03</rscale>
<asrwt>0</asrwt>
<pdfrwt beam="2">  1        2 0.22501139E+00 0.10279724E+03</pdfrwt>
<pdfrwt beam="1">  1       -2 0.27788921E-03 0.10279724E+03</pdfrwt>
<totfact> 0.17328311E+05</totfact>
</mgrwt>
</event>
<event>
 5    1  0.3858846E+001  0.9049096E+02  0.7546771E-02  0.1301667E+00
          2   -1    0    0  501    0  0.00000000000E+00  0.00000000000E+00  0.17225299916E+03  0.17225299916E+03  0.00000000000E+00 0.  1.
         -2   -1    0    0    0  501 -0.00000000000E+00 -0.00000000000E+00 -0.11884573239E+02  0.11884573239E+02  0.00000000000E+00 0. -1.
         23    2    1    2    0    0  0.00000000000E+00  0.00000000000E+00  0.16036842592E+03  0.18413757240E+03  0.90490958314E+02 0.  0.
          2    1    3    3  502    0  0.16562257170E+02  0.15126164386E+02  0.22526228674E+00  0.22431227223E+02  0.00000000000E+00 0. -1.
         -2    1    3    3    0  502 -0.16562257170E+02 -0.15126164386E+02  0.16014316363E+03  0.16170634517E+03  0.00000000000E+00 0.  1.
<mgrwt>
<rscale>  0 0.90490958E+02</rscale>
<asrwt>0</asrwt>
<pdfrwt beam="1">  1        2 0.26500460E-01 0.90490958E+02</pdfrwt>
<pdfrwt beam="2">  1       -2 0.18283960E-02 0.90490958E+02</pdfrwt>
<totfact> 0.14967397E+05</totfact>
</mgrwt>
</event>
<event>
 5    1  0.3858846E+001  0.9127371E+02  0.7546771E-02  0.1299796E+00
         -2   -1    0    0    0  501 -0.00000000000E+00  0.00000000000E+00  0.18646840580E+02  0.18646840580E+02  0.00000000000E+00 0.  1.
          2   -1    0    0  501    0  0.00000000000E+00 -0.00000000000E+00 -0.11169304188E+03  0.11169304188E+03  0.00000000000E+00 0. -1.
         23    2    1    2    0    0  0.00000000000E+00  0.00000000000E+00 -0.93046201298E+02  0.13033988246E+03  0.91273705869E+02 0.  0.
          2    1    3    3  502    0 -0.44821644509E+02  0.42260600357E+00 -0.34275130695E+02  0.56426438808E+02  0.00000000000E+00 0. -1.
         -2    1    3    3    0  502  0.44821644509E+02 -0.42260600357E+00 -0.58771070603E+02  0.73913443650E+02  0.00000000000E+00 0.  1.
<mgrwt>
<rscale>  0 0.91273706E+02</rscale>
<asrwt>0</asrwt>
<pdfrwt beam="2">  1        2 0.17183545E-01 0.91273706E+02</pdfrwt>
<pdfrwt beam="1">  1       -2 0.28687447E-02 0.91273706E+02</pdfrwt>
<totfact> 0.12657456E+05</totfact>
</mgrwt>
</event>
<event>
 5    1  0.3858846E+001  0.9475891E+02  0.7546771E-02  0.1291720E+00
         -2   -1    0    0    0  501 -0.00000000000E+00  0.00000000000E+00  0.10628175982E+03  0.10628175982E+03  0.00000000000E+00 0.  1.
          2   -1    0    0  501    0  0.00000000000E+00 -0.00000000000E+00 -0.21121336720E+02  0.21121336720E+02  0.00000000000E+00 0. -1.
         23    2    1    2    0    0  0.00000000000E+00  0.00000000000E+00  0.85160423102E+02  0.12740309654E+03  0.94758911695E+02 0.  0.
          2    1    3    3  502    0  0.31732867846E+02  0.26588292796E+02  0.73559150308E+02  0.84408890584E+02  0.00000000000E+00 0. -1.
         -2    1    3    3    0  502 -0.31732867846E+02 -0.26588292796E+02  0.11601272794E+02  0.42994205958E+02  0.00000000000E+00 0.  1.
<mgrwt>
<rscale>  0 0.94758912E+02</rscale>
<asrwt>0</asrwt>
<pdfrwt beam="2">  1        2 0.32494365E-02 0.94758912E+02</pdfrwt>
<pdfrwt beam="1">  1       -2 0.16351040E-01 0.94758912E+02</pdfrwt>
<totfact> 0.71162316E+04</totfact>
</mgrwt>
</event>
<event>
 5    1  0.3858846E+001  0.9076435E+02  0.7546771E-02  0.1301011E+00
         -1   -1    0    0    0  501 -0.00000000000E+00  0.00000000000E+00  0.14078848426E+01  0.14078848426E+01  0.00000000000E+00 0.  1.
          1   -1    0    0  501    0  0.00000000000E+00 -0.00000000000E+00 -0.14628622514E+04  0.14628622514E+04  0.00000000000E+00 0. -1.
         23    2    1    2    0    0  0.00000000000E+00  0.00000000000E+00 -0.14614543665E+04  0.14642701362E+04  0.90764345215E+02 0.  0.
          2    1    3    3  502    0  0.40389750617E+02  0.20687648235E+02 -0.73847835318E+03  0.73987133264E+03  0.00000000000E+00 0. -1.
         -2    1    3    3    0  502 -0.40389750617E+02 -0.20687648235E+02 -0.72297601335E+03  0.72439880358E+03  0.00000000000E+00 0.  1.
<mgrwt>
<rscale>  0 0.90764345E+02</rscale>
<asrwt>0</asrwt>
<pdfrwt beam="2">  1        1 0.22505436E+00 0.90764345E+02</pdfrwt>
<pdfrwt beam="1">  1       -1 0.21659898E-03 0.90764345E+02</pdfrwt>
<totfact> 0.11409825E+05</totfact>
</mgrwt>
</event>
<event>
 5    1  0.3858846E+001  0.7675536E+02  0.7546771E-02  0.1338520E+00
          2   -1    0    0  501    0  0.00000000000E+00  0.00000000000E+00  0.63098699662E+02  0.63098699662E+02  0.00000000000E+00 0. -1.
         -2   -1    0    0    0  501 -0.00000000000E+00 -0.00000000000E+00 -0.23341944794E+02  0.23341944794E+02  0.00000000000E+00 0.  1.
         23    2    1    2    0    0  0.00000000000E+00  0.00000000000E+00  0.39756754868E+02  0.86440644455E+02  0.76755361091E+02 0.  0.
          2    1    3    3  502    0  0.21078239022E+02  0.31980332778E+02  0.22593512732E+02  0.44469097837E+02  0.00000000000E+00 0. -1.
         -2    1    3    3    0  502 -0.21078239022E+02 -0.31980332778E+02  0.17163242136E+02  0.41971546618E+02  0.00000000000E+00 0.  1.
<mgrwt>
<rscale>  0 0.76755361E+02</rscale>
<asrwt>0</asrwt>
<pdfrwt beam="1">  1        2 0.97074922E-02 0.76755361E+02</pdfrwt>
<pdfrwt beam="2">  1       -2 0.35910684E-02 0.76755361E+02</pdfrwt>
<totfact> 0.17324397E+05</totfact>
</mgrwt>
</event>
<event>
 5    1  0.3858846E+001  0.9325300E+02  0.7546771E-02  0.1295160E+00
          2   -1    0    0  501    0  0.00000000000E+00  0.00000000000E+00  0.83089657347E+01  0.83089657347E+01  0.00000000000E+00 0. -1.
         -2   -1    0    0    0  501 -0.00000000000E+00 -0.00000000000E+00 -0.26164873663E+03  0.26164873663E+03  0.00000000000E+00 0.  1.
         23    2    1    2    0    0  0.00000000000E+00  0.00000000000E+00 -0.25333977090E+03  0.26995770237E+03  0.93252997532E+02 0.  0.
          2    1    3    3  502    0 -0.25951895689E+02  0.30233058661E+02 -0.56562488328E+02  0.69187092812E+02  0.00000000000E+00 0. -1.
         -2    1    3    3    0  502  0.25951895689E+02 -0.30233058661E+02 -0.19677728257E+03  0.20077060955E+03  0.00000000000E+00 0.  1.
<mgrwt>
<rscale>  0 0.93252998E+02</rscale>
<asrwt>0</asrwt>
<pdfrwt beam="1">  1        2 0.12783025E-02 0.93252998E+02</pdfrwt>
<pdfrwt beam="2">  1       -2 0.40253649E-01 0.93252998E+02</pdfrwt>
<totfact> 0.51807024E+04</totfact>
</mgrwt>
</event>
<event>
 5    1  0.3858846E+001  0.8991701E+02  0.7546771E-02  0.1303053E+00
         -1   -1    0    0    0  501 -0.00000000000E+00  0.00000000000E+00  0.16309733911E+02  0.16309733911E+02  0.00000000000E+00 0.  1.
          1   -1    0    0  501    0  0.00000000000E+00 -0.00000000000E+00 -0.12393011090E+03  0.12393011090E+03  0.00000000000E+00 0. -1.
         23    2    1    2    0    0  0.00000000000E+00  0.00000000000E+00 -0.10762037699E+03  0.14023984481E+03  0.89917009120E+02 0.  0.
          2    1    3    3  502    0  0.24300571156E+02 -0.20138925488E+02 -0.38725316067E+01  0.31797650532E+02  0.00000000000E+00 0.  1.
         -2    1    3    3    0  502 -0.24300571156E+02  0.20138925488E+02 -0.10374784538E+03  0.10844219428E+03  0.00000000000E+00 0. -1.
<mgrwt>
<rscale>  0 0.89917009E+02</rscale>
<asrwt>0</asrwt>
<pdfrwt beam="2">  1        1 0.19066171E-01 0.89917009E+02</pdfrwt>
<pdfrwt beam="1">  1       -1 0.25091899E-02 0.89917009E+02</pdfrwt>
<totfact> 0.11250393E+05</totfact>
</mgrwt>
</event>
<event>
 5    1  0.3858846E+001  0.9191667E+02  0.7546771E-02  0.1298275E+00
         -1   -1    0    0    0  501 -0.00000000000E+00  0.00000000000E+00  0.17913280349E+01  0.17913280349E+01  0.00000000000E+00 0.  1.
          1   -1    0    0  501    0  0.00000000000E+00 -0.00000000000E+00 -0.11791076710E+04  0.11791076710E+04  0.00000000000E+00 0. -1.
         23    2    1    2    0    0  0.00000000000E+00  0.00000000000E+00 -0.11773163430E+04  0.11808989991E+04  0.91916671552E+02 0.  0.
          2    1    3    3  502    0  0.13506205086E+01 -0.43597569983E+02 -0.77465704571E+03  0.77588408332E+03  0.00000000000E+00 0. -1.
         -2    1    3    3    0  502 -0.13506205086E+01  0.43597569983E+02 -0.40265929729E+03  0.40501491575E+03  0.00000000000E+00 0.  1.
<mgrwt>
<rscale>  0 0.91916672E+02</rscale>
<asrwt>0</asrwt>
<pdfrwt beam="2">  1        1 0.18140128E+00 0.91916672E+02</pdfrwt>
<pdfrwt beam="1">  1       -1 0.27558878E-03 0.91916672E+02</pdfrwt>
<totfact> 0.12561860E+05</totfact>
</mgrwt>
</event>
<event>
 5    1  0.3858846E+001  0.9046985E+02  0.7546771E-02  0.1301718E+00
          3   -1    0    0  501    0  0.00000000000E+00  0.00000000000E+00  0.87876239889E+02  0.87876239889E+02  0.00000000000E+00 0. -1.
         -3   -1    0    0    0  501 -0.00000000000E+00 -0.00000000000E+00 -0.23285001765E+02  0.23285001765E+02  0.00000000000E+00 0.  1.
         23    2    1    2    0    0  0.00000000000E+00  0.00000000000E+00  0.64591238124E+02  0.11116124165E+03  0.90469849140E+02 0.  0.
          2    1    3    3  502    0 -0.17461141932E+02 -0.19203125783E+02  0.77816757732E+02  0.82031087408E+02  0.00000000000E+00 0. -1.
         -2    1    3    3    0  502  0.17461141932E+02  0.19203125783E+02 -0.13225519608E+02  0.29130154245E+02  0.00000000000E+00 0.  1.
<mgrwt>
<rscale>  0 0.90469849E+02</rscale>
<asrwt>0</asrwt>
<pdfrwt beam="1">  1        3 0.13519421E-01 0.90469849E+02</pdfrwt>
<pdfrwt beam="2">  1       -3 0.35823080E-02 0.90469849E+02</pdfrwt>
<totfact> 0.34585041E+04</totfact>
</mgrwt>
</event>
<event>
 5    1  0.3858846E+001  0.9984429E+02  0.7546771E-02  0.1280624E+00
         -1   -1    0    0    0  501 -0.00000000000E+00  0.00000000000E+00  0.78119853896E+01  0.78119853896E+01  0.00000000000E+00 0.  1.
          1   -1    0    0  501    0  0.00000000000E+00 -0.00000000000E+00 -0.31902524479E+03  0.31902524479E+03  0.00000000000E+00 0. -1.
         23    2    1    2    0    0  0.00000000000E+00  0.00000000000E+00 -0.31121325940E+03  0.32683723018E+03  0.99844289796E+02 0.  0.
          2    1    3    3  502    0  0.32958382470E+02 -0.11933971483E+02 -0.27196665334E+03  0.27421621976E+03  0.00000000000E+00 0. -1.
         -2    1    3    3    0  502 -0.32958382470E+02  0.11933971483E+02 -0.39246606064E+02  0.52621010424E+02  0.00000000000E+00 0.  1.
<mgrwt>
<rscale>  0 0.99844290E+02</rscale>
<asrwt>0</asrwt>
<pdfrwt beam="2">  1        1 0.49080805E-01 0.99844290E+02</pdfrwt>
<pdfrwt beam="1">  1       -1 0.12018440E-02 0.99844290E+02</pdfrwt>
<totfact> 0.10165488E+05</totfact>
</mgrwt>
</event>
<event>
 5    1  0.3858846E+001  0.9045198E+02  0.7546771E-02  0.1301761E+00
         -1   -1    0    0    0  501 -0.00000000000E+00  0.00000000000E+00  0.13627035938E+01  0.13627035938E+01  0.00000000000E+00 0.  1.
          1   -1    0    0  501    0  0.00000000000E+00 -0.00000000000E+00 -0.15009795943E+04  0.15009795943E+04  0.00000000000E+00 0. -1.
         23    2    1    2    0    0  0.00000000000E+00  0.00000000000E+00 -0.14996168907E+04  0.15023422979E+04  0.90451982562E+02 0.  0.
          2    1    3    3  502    0  0.44108540069E+02 -0.97877107134E+01 -0.78314182313E+03  0.78444405646E+03  0.00000000000E+00 0. -1.
         -2    1    3    3    0  502 -0.44108540069E+02  0.97877107134E+01 -0.71647506759E+03  0.71789824144E+03  0.00000000000E+00 0.  1.
<mgrwt>
<rscale>  0 0.90451983E+02</rscale>
<asrwt>0</asrwt>
<pdfrwt beam="2">  1        1 0.23091917E+00 0.90451983E+02</pdfrwt>
<pdfrwt beam="1">  1       -1 0.20964740E-03 0.90451983E+02</pdfrwt>
<totfact> 0.11281030E+05</totfact>
</mgrwt>
</event>
<event>
 5    1  0.3858846E+001  0.9114869E+02  0.7546771E-02  0.1300094E+00
          2   -1    0    0  501    0  0.00000000000E+00  0.00000000000E+00  0.83622370910E+03  0.83622370910E+03  0.00000000000E+00 0. -1.
         -2   -1    0    0    0  501 -0.00000000000E+00 -0.00000000000E+00 -0.24838102968E+01  0.24838102968E+01  0.00000000000E+00 0.  1.
         23    2    1    2    0    0  0.00000000000E+00  0.00000000000E+00  0.83373989881E+03  0.83870751940E+03  0.91148693005E+02 0.  0.
          2    1    3    3  502    0 -0.44670398090E+02  0.45836581930E+01  0.48848048858E+03  0.49054015341E+03  0.00000000000E+00 0. -1.
         -2    1    3    3    0  502  0.44670398090E+02 -0.45836581930E+01  0.34525941023E+03  0.34816736599E+03  0.00000000000E+00 0.  1.
<mgrwt>
<rscale>  0 0.91148693E+02</rscale>
<asrwt>0</asrwt>
<pdfrwt beam="1">  1        2 0.12864958E+00 0.91148693E+02</pdfrwt>
<pdfrwt beam="2">  1       -2 0.38212533E-03 0.91148693E+02</pdfrwt>
<totfact> 0.24572322E+05</totfact>
</mgrwt>
</event>
<event>
 5    1  0.3858846E+001  0.9674958E+02  0.7546771E-02  0.1287284E+00
         -2   -1    0    0    0  501 -0.00000000000E+00  0.00000000000E+00  0.13931542734E+03  0.13931542734E+03  0.00000000000E+00 0.  1.
          2   -1    0    0  501    0  0.00000000000E+00 -0.00000000000E+00 -0.16797282129E+02  0.16797282129E+02  0.00000000000E+00 0. -1.
         23    2    1    2    0    0  0.00000000000E+00  0.00000000000E+00  0.12251814521E+03  0.15611270947E+03  0.96749584764E+02 0.  0.
          2    1    3    3  502    0  0.19282020344E+02  0.21335526853E+02 -0.15071176678E+01  0.28797090448E+02  0.00000000000E+00 0. -1.
         -2    1    3    3    0  502 -0.19282020344E+02 -0.21335526853E+02  0.12402526288E+03  0.12731561902E+03  0.00000000000E+00 0.  1.
<mgrwt>
<rscale>  0 0.96749585E+02</rscale>
<asrwt>0</asrwt>
<pdfrwt beam="2">  1        2 0.25841973E-02 0.96749585E+02</pdfrwt>
<pdfrwt beam="1">  1       -2 0.21433142E-01 0.96749585E+02</pdfrwt>
<totfact> 0.61737821E+04</totfact>
</mgrwt>
</event>
<event>
 5    1  0.3858846E+001  0.9046947E+02  0.7546771E-02  0.1301719E+00
          3   -1    0    0  501    0  0.00000000000E+00  0.00000000000E+00  0.64889181810E+01  0.64889181810E+01  0.00000000000E+00 0. -1.
         -3   -1    0    0    0  501 -0.00000000000E+00 -0.00000000000E+00 -0.31533469829E+03  0.31533469829E+03  0.00000000000E+00 0.  1.
         23    2    1    2    0    0  0.00000000000E+00  0.00000000000E+00 -0.30884578011E+03  0.32182361647E+03  0.90469465719E+02 0.  0.
          2    1    3    3  502    0 -0.26931709737E+02  0.19120946044E+01 -0.25317890984E+02  0.37013088213E+02  0.00000000000E+00 0. -1.
         -2    1    3    3    0  502  0.26931709737E+02 -0.19120946044E+01 -0.28352788913E+03  0.28481052826E+03  0.00000000000E+00 0.  1.
<mgrwt>
<rscale>  0 0.90469466E+02</rscale>
<asrwt>0</asrwt>
<pdfrwt beam="1">  1        3 0.99829501E-03 0.90469466E+02</pdfrwt>
<pdfrwt beam="2">  1       -3 0.48513035E-01 0.90469466E+02</pdfrwt>
<totfact> 0.23690576E+04</totfact>
</mgrwt>
</event>
<event>
 5    1  0.3858846E+001  0.8486877E+02  0.7546771E-02  0.1315776E+00
         -3   -1    0    0    0  501 -0.00000000000E+00  0.00000000000E+00  0.63619344320E+01  0.63619344320E+01  0.00000000000E+00 0.  1.
          3   -1    0    0  501    0  0.00000000000E+00 -0.00000000000E+00 -0.28303920380E+03  0.28303920380E+03  0.00000000000E+00 0. -1.
         23    2    1    2    0    0  0.00000000000E+00  0.00000000000E+00 -0.27667726937E+03  0.28940113824E+03  0.84868765898E+02 0.  0.
          2    1    3    3  502    0 -0.17793582837E+02  0.37340645992E+02 -0.17064207846E+03  0.17558375316E+03  0.00000000000E+00 0. -1.
         -2    1    3    3    0  502  0.17793582837E+02 -0.37340645992E+02 -0.10603519091E+03  0.11381738507E+03  0.00000000000E+00 0.  1.
<mgrwt>
<rscale>  0 0.84868766E+02</rscale>
<asrwt>0</asrwt>
<pdfrwt beam="2">  1        3 0.43544497E-01 0.84868766E+02</pdfrwt>
<pdfrwt beam="1">  1       -3 0.97875904E-03 0.84868766E+02</pdfrwt>
<totfact> 0.29607046E+04</totfact>
</mgrwt>
</event>
<event>
 5    1  0.3858846E+001  0.9304478E+02  0.7546771E-02  0.1295641E+00
         -1   -1    0    0    0  501 -0.00000000000E+00  0.00000000000E+00  0.16187922888E+01  0.16187922888E+01  0.00000000000E+00 0.  1.
          1   -1    0    0  501    0  0.00000000000E+00 -0.00000000000E+00 -0.13370046729E+04  0.13370046729E+04  0.00000000000E+00 0. -1.
         23    2    1    2    0    0  0.00000000000E+00  0.00000000000E+00 -0.13353858806E+04  0.13386234652E+04  0.93044781788E+02 0.  0.
          2    1    3    3  502    0  0.13246358736E+02  0.36742171215E+02 -0.30404933682E+03  0.30654763477E+03  0.00000000000E+00 0. -1.
         -2    1    3    3    0  502 -0.13246358736E+02 -0.36742171215E+02 -0.10313365438E+04  0.10320758304E+04  0.00000000000E+00 0.  1.
<mgrwt>
<rscale>  0 0.93044782E+02</rscale>
<asrwt>0</asrwt>
<pdfrwt beam="2">  1        1 0.20569339E+00 0.93044782E+02</pdfrwt>
<pdfrwt beam="1">  1       -1 0.24904452E-03 0.93044782E+02</pdfrwt>
<totfact> 0.11374833E+05</totfact>
</mgrwt>
</event>
<event>
 5    1  0.3858846E+001  0.8886617E+02  0.7546771E-02  0.1305621E+00
         -3   -1    0    0    0  501 -0.00000000000E+00  0.00000000000E+00  0.36059236181E+01  0.36059236181E+01  0.00000000000E+00 0.  1.
          3   -1    0    0  501    0  0.00000000000E+00 -0.00000000000E+00 -0.54751554585E+03  0.54751554585E+03  0.00000000000E+00 0. -1.
         23    2    1    2    0    0  0.00000000000E+00  0.00000000000E+00 -0.54390962223E+03  0.55112146946E+03  0.88866174399E+02 0.  0.
          2    1    3    3  502    0 -0.29863529287E+02 -0.12479006048E+02 -0.46074984411E+03  0.46188523988E+03  0.00000000000E+00 0. -1.
         -2    1    3    3    0  502  0.29863529287E+02  0.12479006048E+02 -0.83159778115E+02  0.89236229580E+02  0.00000000000E+00 0.  1.
<mgrwt>
<rscale>  0 0.88866174E+02</rscale>
<asrwt>0</asrwt>
<pdfrwt beam="2">  1        3 0.84233196E-01 0.88866174E+02</pdfrwt>
<pdfrwt beam="1">  1       -3 0.55475725E-03 0.88866174E+02</pdfrwt>
<totfact> 0.17921641E+04</totfact>
</mgrwt>
</event>
<event>
 5    1  0.3858846E+001  0.9049849E+02  0.7546771E-02  0.1301649E+00
         -1   -1    0    0    0  501 -0.00000000000E+00  0.00000000000E+00  0.96344340551E+01  0.96344340551E+01  0.00000000000E+00 0.  1.
          1   -1    0    0  501    0  0.00000000000E+00 -0.00000000000E+00 -0.21251838227E+03  0.21251838227E+03  0.00000000000E+00 0. -1.
         23    2    1    2    0    0  0.00000000000E+00  0.00000000000E+00 -0.20288394822E+03  0.22215281633E+03  0.90498493678E+02 0.  0.
          2    1    3    3  502    0 -0.54306552451E+01 -0.28759998280E+02 -0.16730603998E+02  0.33712647888E+02  0.00000000000E+00 0.  1.
         -2    1    3    3    0  502  0.54306552451E+01  0.28759998280E+02 -0.18615334422E+03  0.18844016844E+03  0.00000000000E+00 0. -1.
<mgrwt>
<rscale>  0 0.90498494E+02</rscale>
<asrwt>0</asrwt>
<pdfrwt beam="2">  1        1 0.32695137E-01 0.90498494E+02</pdfrwt>
<pdfrwt beam="1">  1       -1 0.14822206E-02 0.90498494E+02</pdfrwt>
<totfact> 0.12223103E+05</totfact>
</mgrwt>
</event>
<event>
 5    1  0.3858846E+001  0.9345729E+02  0.7546771E-02  0.1294689E+00
          2   -1    0    0  501    0  0.00000000000E+00  0.00000000000E+00  0.68539970436E+03  0.68539970436E+03  0.00000000000E+00 0. -1.
         -2   -1    0    0    0  501 -0.00000000000E+00 -0.00000000000E+00 -0.31858288320E+01  0.31858288320E+01  0.00000000000E+00 0.  1.
         23    2    1    2    0    0  0.00000000000E+00  0.00000000000E+00  0.68221387553E+03  0.68858553319E+03  0.93457287347E+02 0.  0.
          2    1    3    3  502    0  0.66654538348E+01  0.26660744941E+02  0.61956571324E+03  0.62017489196E+03  0.00000000000E+00 0. -1.
         -2    1    3    3    0  502 -0.66654538348E+01 -0.26660744941E+02  0.62648162290E+02  0.68410641234E+02  0.00000000000E+00 0.  1.
<mgrwt>
<rscale>  0 0.93457287E+02</rscale>
<asrwt>0</asrwt>
<pdfrwt beam="1">  1        2 0.10544599E+00 0.93457287E+02</pdfrwt>
<pdfrwt beam="2">  1       -2 0.49012806E-03 0.93457287E+02</pdfrwt>
<totfact> 0.22105274E+05</totfact>
</mgrwt>
</event>
<event>
 5    1  0.3858846E+001  0.8389089E+02  0.7546771E-02  0.1318359E+00
         -1   -1    0    0    0  501 -0.00000000000E+00  0.00000000000E+00  0.46740086946E+03  0.46740086946E+03  0.00000000000E+00 0.  1.
          1   -1    0    0  501    0  0.00000000000E+00 -0.00000000000E+00 -0.37642639550E+01  0.37642639550E+01  0.00000000000E+00 0. -1.
         23    2    1    2    0    0  0.00000000000E+00  0.00000000000E+00  0.46363660551E+03  0.47116513342E+03  0.83890887359E+02 0.  0.
          2    1    3    3  502    0 -0.38363557120E+02  0.99614058750E+01  0.15472241419E+03  0.15971855739E+03  0.00000000000E+00 0. -1.
         -2    1    3    3    0  502  0.38363557120E+02 -0.99614058750E+01  0.30891419132E+03  0.31144657603E+03  0.00000000000E+00 0.  1.
<mgrwt>
<rscale>  0 0.83890887E+02</rscale>
<asrwt>0</asrwt>
<pdfrwt beam="2">  1        1 0.57911790E-03 0.83890887E+02</pdfrwt>
<pdfrwt beam="1">  1       -1 0.71907780E-01 0.83890887E+02</pdfrwt>
<totfact> 0.60886047E+04</totfact>
</mgrwt>
</event>
<event>
 5    1  0.3858846E+001  0.6803011E+02  0.7546771E-02  0.1366923E+00
          1   -1    0    0  501    0  0.00000000000E+00  0.00000000000E+00  0.81691992546E+03  0.81691992546E+03  0.00000000000E+00 0. -1.
         -1   -1    0    0    0  501 -0.00000000000E+00 -0.00000000000E+00 -0.14163247579E+01  0.14163247579E+01  0.00000000000E+00 0.  1.
         23    2    1    2    0    0  0.00000000000E+00  0.00000000000E+00  0.81550360070E+03  0.81833625022E+03  0.68030108502E+02 0.  0.
          2    1    3    3  502    0 -0.99893496144E+01  0.19718210787E+02  0.71875027523E+03  0.71909008690E+03  0.00000000000E+00 0. -1.
         -2    1    3    3    0  502  0.99893496144E+01 -0.19718210787E+02  0.96753325473E+02  0.99246163313E+02  0.00000000000E+00 0.  1.
<mgrwt>
<rscale>  0 0.68030109E+02</rscale>
<asrwt>0</asrwt>
<pdfrwt beam="1">  1        1 0.12567961E+00 0.68030109E+02</pdfrwt>
<pdfrwt beam="2">  1       -1 0.21789677E-03 0.68030109E+02</pdfrwt>
<totfact> 0.30246037E+05</totfact>
</mgrwt>
</event>
<event>
 5    1  0.3858846E+001  0.9481342E+02  0.7546771E-02  0.1291597E+00
         -2   -1    0    0    0  501 -0.00000000000E+00  0.00000000000E+00  0.15674634213E+01  0.15674634213E+01  0.00000000000E+00 0.  1.
          2   -1    0    0  501    0  0.00000000000E+00 -0.00000000000E+00 -0.14337791064E+04  0.14337791064E+04  0.00000000000E+00 0. -1.
         23    2    1    2    0    0  0.00000000000E+00  0.00000000000E+00 -0.14322116430E+04  0.14353465698E+04  0.94813423174E+02 0.  0.
          2    1    3    3  502    0  0.20570695208E+02 -0.39584418557E+02 -0.47326546637E+03  0.47536331511E+03  0.00000000000E+00 0.  1.
         -2    1    3    3    0  502 -0.20570695208E+02  0.39584418557E+02 -0.95894617660E+03  0.95998325470E+03  0.00000000000E+00 0. -1.
<mgrwt>
<rscale>  0 0.94813423E+02</rscale>
<asrwt>0</asrwt>
<pdfrwt beam="2">  1        2 0.22058177E+00 0.94813423E+02</pdfrwt>
<pdfrwt beam="1">  1       -2 0.24114781E-03 0.94813423E+02</pdfrwt>
<totfact> 0.21618050E+05</totfact>
</mgrwt>
</event>
<event>
 5    1  0.3858846E+001  0.9126682E+02  0.7546771E-02  0.1299813E+00
          4   -1    0    0  501    0  0.00000000000E+00  0.00000000000E+00  0.83239621112E+01  0.83239621112E+01  0.00000000000E+00 0.  1.
         -4   -1    0    0    0  501 -0.00000000000E+00 -0.00000000000E+00 -0.25017028881E+03  0.25017028881E+03  0.00000000000E+00 0. -1.
         23    2    1    2    0    0  0.00000000000E+00  0.00000000000E+00 -0.24184632670E+03  0.25849425093E+03  0.91266817747E+02 0.  0.
          2    1    3    3  502    0  0.10452825149E+02  0.33901717194E+02 -0.20221635080E+03  0.20530475034E+03  0.00000000000E+00 0. -1.
         -2    1    3    3    0  502 -0.10452825149E+02 -0.33901717194E+02 -0.39629975907E+02  0.53189500587E+02  0.00000000000E+00 0.  1.
<mgrwt>
<rscale>  0 0.91266818E+02</rscale>
<asrwt>0</asrwt>
<pdfrwt beam="1">  1        4 0.12806096E-02 0.91266818E+02</pdfrwt>
<pdfrwt beam="2">  1       -4 0.38487734E-01 0.91266818E+02</pdfrwt>
<totfact> 0.19116326E+04</totfact>
</mgrwt>
</event>
<event>
 5    1  0.3858846E+001  0.9078096E+02  0.7546771E-02  0.1300971E+00
          2   -1    0    0  501    0  0.00000000000E+00  0.00000000000E+00  0.17057629485E+04  0.17057629485E+04  0.00000000000E+00 0. -1.
         -2   -1    0    0    0  501 -0.00000000000E+00 -0.00000000000E+00 -0.12078439941E+01  0.12078439941E+01  0.00000000000E+00 0.  1.
         23    2    1    2    0    0  0.00000000000E+00  0.00000000000E+00  0.17045551045E+04  0.17069707925E+04  0.90780956872E+02 0.  0.
          2    1    3    3  502    0  0.41255633200E+02  0.87887249183E+01  0.11674912126E+04  0.11682529694E+04  0.00000000000E+00 0.  1.
         -2    1    3    3    0  502 -0.41255633200E+02 -0.87887249183E+01  0.53706389187E+03  0.53871782309E+03  0.00000000000E+00 0. -1.
<mgrwt>
<rscale>  0 0.90780957E+02</rscale>
<asrwt>0</asrwt>
<pdfrwt beam="1">  1        2 0.26242314E+00 0.90780957E+02</pdfrwt>
<pdfrwt beam="2">  1       -2 0.18582352E-03 0.90780957E+02</pdfrwt>
<totfact> 0.22440950E+05</totfact>
</mgrwt>
</event>
<event>
 5    1  0.3858846E+001  0.9266795E+02  0.7546771E-02  0.1296517E+00
         -2   -1    0    0    0  501 -0.00000000000E+00  0.00000000000E+00  0.56234843239E+01  0.56234843239E+01  0.00000000000E+00 0.  1.
          2   -1    0    0  501    0  0.00000000000E+00 -0.00000000000E+00 -0.38176278417E+03  0.38176278417E+03  0.00000000000E+00 0. -1.
         23    2    1    2    0    0  0.00000000000E+00  0.00000000000E+00 -0.37613929984E+03  0.38738626849E+03  0.92667945531E+02 0.  0.
          2    1    3    3  502    0 -0.15223609675E+02 -0.29371683847E+02 -0.52456568259E+02  0.62017301272E+02  0.00000000000E+00 0.  1.
         -2    1    3    3    0  502  0.15223609675E+02  0.29371683847E+02 -0.32368273158E+03  0.32536896722E+03  0.00000000000E+00 0. -1.
<mgrwt>
<rscale>  0 0.92667946E+02</rscale>
<asrwt>0</asrwt>
<pdfrwt beam="2">  1        2 0.58732746E-01 0.92667946E+02</pdfrwt>
<pdfrwt beam="1">  1       -2 0.86515129E-03 0.92667946E+02</pdfrwt>
<totfact> 0.18800976E+05</totfact>
</mgrwt>
</event>
<event>
 5    1  0.3858846E+001  0.9077593E+02  0.7546771E-02  0.1300983E+00
          3   -1    0    0  501    0  0.00000000000E+00  0.00000000000E+00  0.40268260135E+02  0.40268260135E+02  0.00000000000E+00 0. -1.
         -3   -1    0    0    0  501 -0.00000000000E+00 -0.00000000000E+00 -0.51158584263E+02  0.51158584263E+02  0.00000000000E+00 0.  1.
         23    2    1    2    0    0  0.00000000000E+00  0.00000000000E+00 -0.10890324128E+02  0.91426844398E+02  0.90775925867E+02 0.  0.
          2    1    3    3  502    0 -0.34278308391E+02  0.12655819221E+02 -0.32562096629E+02  0.48943460474E+02  0.00000000000E+00 0.  1.
         -2    1    3    3    0  502  0.34278308391E+02 -0.12655819221E+02  0.21671772501E+02  0.42483383924E+02  0.00000000000E+00 0. -1.
<mgrwt>
<rscale>  0 0.90775926E+02</rscale>
<asrwt>0</asrwt>
<pdfrwt beam="1">  1        3 0.61951170E-02 0.90775926E+02</pdfrwt>
<pdfrwt beam="2">  1       -3 0.78705513E-02 0.90775926E+02</pdfrwt>
<totfact> 0.35746414E+04</totfact>
</mgrwt>
</event>
<event>
 5    1  0.3858846E+001  0.8949173E+02  0.7546771E-02  0.1304087E+00
         -2   -1    0    0    0  501 -0.00000000000E+00  0.00000000000E+00  0.35816569731E+01  0.35816569731E+01  0.00000000000E+00 0.  1.
          2   -1    0    0  501    0  0.00000000000E+00 -0.00000000000E+00 -0.55901283773E+03  0.55901283773E+03  0.00000000000E+00 0. -1.
         23    2    1    2    0    0  0.00000000000E+00  0.00000000000E+00 -0.55543118076E+03  0.56259449470E+03  0.89491725390E+02 0.  0.
          2    1    3    3  502    0  0.41890801973E+02  0.39018818953E+01 -0.37349598037E+03  0.37585809998E+03  0.00000000000E+00 0. -1.
         -2    1    3    3    0  502 -0.41890801973E+02 -0.39018818953E+01 -0.18193520039E+03  0.18673639472E+03  0.00000000000E+00 0.  1.
<mgrwt>
<rscale>  0 0.89491725E+02</rscale>
<asrwt>0</asrwt>
<pdfrwt beam="2">  1        2 0.86001942E-01 0.89491725E+02</pdfrwt>
<pdfrwt beam="1">  1       -2 0.55102436E-03 0.89491725E+02</pdfrwt>
<totfact> 0.23444095E+05</totfact>
</mgrwt>
</event>
<event>
 5    1  0.3858846E+001  0.9157949E+02  0.7546771E-02  0.1299071E+00
          1   -1    0    0  501    0  0.00000000000E+00  0.00000000000E+00  0.18014979914E+04  0.18014979914E+04  0.00000000000E+00 0. -1.
         -1   -1    0    0    0  501 -0.00000000000E+00 -0.00000000000E+00 -0.11638651278E+01  0.11638651278E+01  0.00000000000E+00 0.  1.
         23    2    1    2    0    0  0.00000000000E+00  0.00000000000E+00  0.18003341263E+04  0.18026618565E+04  0.91579488753E+02 0.  0.
          2    1    3    3  502    0  0.14231509969E+02 -0.26006674594E+02  0.15870886965E+04  0.15873655576E+04  0.00000000000E+00 0. -1.
         -2    1    3    3    0  502 -0.14231509969E+02  0.26006674594E+02  0.21324542979E+03  0.21529629891E+03  0.00000000000E+00 0.  1.
<mgrwt>
<rscale>  0 0.91579489E+02</rscale>
<asrwt>0</asrwt>
<pdfrwt beam="1">  1        1 0.27715130E+00 0.91579489E+02</pdfrwt>
<pdfrwt beam="2">  1       -1 0.17905762E-03 0.91579489E+02</pdfrwt>
<totfact> 0.90818291E+04</totfact>
</mgrwt>
</event>
<event>
 5    1  0.3858846E+001  0.8827186E+02  0.7546771E-02  0.1307091E+00
          2   -1    0    0  501    0  0.00000000000E+00  0.00000000000E+00  0.10349614934E+02  0.10349614934E+02  0.00000000000E+00 0. -1.
         -2   -1    0    0    0  501 -0.00000000000E+00 -0.00000000000E+00 -0.18821766732E+03  0.18821766732E+03  0.00000000000E+00 0.  1.
         23    2    1    2    0    0  0.00000000000E+00  0.00000000000E+00 -0.17786805239E+03  0.19856728226E+03  0.88271861441E+02 0.  0.
          2    1    3    3  502    0 -0.28263529741E+02 -0.98525659327E+01 -0.16189822751E+03  0.16464184231E+03  0.00000000000E+00 0.  1.
         -2    1    3    3    0  502  0.28263529741E+02  0.98525659327E+01 -0.15969824881E+02  0.33925439947E+02  0.00000000000E+00 0. -1.
<mgrwt>
<rscale>  0 0.88271861E+02</rscale>
<asrwt>0</asrwt>
<pdfrwt beam="1">  1        2 0.15922486E-02 0.88271861E+02</pdfrwt>
<pdfrwt beam="2">  1       -2 0.28956561E-01 0.88271861E+02</pdfrwt>
<totfact> 0.69444224E+04</totfact>
</mgrwt>
</event>
<event>
 5    1  0.3858846E+001  0.9235701E+02  0.7546771E-02  0.1297242E+00
          2   -1    0    0  501    0  0.00000000000E+00  0.00000000000E+00  0.14937057827E+03  0.14937057827E+03  0.00000000000E+00 0.  1.
         -2   -1    0    0    0  501 -0.00000000000E+00 -0.00000000000E+00 -0.14276267884E+02  0.14276267884E+02  0.00000000000E+00 0. -1.
         23    2    1    2    0    0  0.00000000000E+00  0.00000000000E+00  0.13509431038E+03  0.16364684615E+03  0.92357011412E+02 0.  0.
          2    1    3    3  502    0  0.24107331170E+02 -0.32885633909E+02  0.10595379547E+03  0.11352900558E+03  0.00000000000E+00 0. -1.
         -2    1    3    3    0  502 -0.24107331170E+02  0.32885633909E+02  0.29140514910E+02  0.50117840566E+02  0.00000000000E+00 0.  1.
<mgrwt>
<rscale>  0 0.92357011E+02</rscale>
<asrwt>0</asrwt>
<pdfrwt beam="1">  1        2 0.22980088E-01 0.92357011E+02</pdfrwt>
<pdfrwt beam="2">  1       -2 0.21963490E-02 0.92357011E+02</pdfrwt>
<totfact> 0.13481225E+05</totfact>
</mgrwt>
</event>
<event>
 5    1  0.3858846E+001  0.9156465E+02  0.7546771E-02  0.1299106E+00
         -1   -1    0    0    0  501 -0.00000000000E+00  0.00000000000E+00  0.41465558686E+01  0.41465558686E+01  0.00000000000E+00 0.  1.
          1   -1    0    0  501    0  0.00000000000E+00 -0.00000000000E+00 -0.50548483322E+03  0.50548483322E+03  0.00000000000E+00 0. -1.
         23    2    1    2    0    0  0.00000000000E+00  0.00000000000E+00 -0.50133827735E+03  0.50963138909E+03  0.91564646052E+02 0.  0.
          2    1    3    3  502    0 -0.72017390880E+01  0.20680843308E+02 -0.26894602905E+02  0.34682589166E+02  0.00000000000E+00 0.  1.
         -2    1    3    3    0  502  0.72017390880E+01 -0.20680843308E+02 -0.47444367444E+03  0.47494879992E+03  0.00000000000E+00 0. -1.
<mgrwt>
<rscale>  0 0.91564646E+02</rscale>
<asrwt>0</asrwt>
<pdfrwt beam="2">  1        1 0.77766878E-01 0.91564646E+02</pdfrwt>
<pdfrwt beam="1">  1       -1 0.63793183E-03 0.91564646E+02</pdfrwt>
<totfact> 0.13788202E+05</totfact>
</mgrwt>
</event>
<event>
 5    1  0.3858846E+001  0.8894987E+02  0.7546771E-02  0.1305415E+00
         -1   -1    0    0    0  501 -0.00000000000E+00  0.00000000000E+00  0.74011263338E+01  0.74011263338E+01  0.00000000000E+00 0.  1.
          1   -1    0    0  501    0  0.00000000000E+00 -0.00000000000E+00 -0.26725928756E+03  0.26725928756E+03  0.00000000000E+00 0. -1.
         23    2    1    2    0    0  0.00000000000E+00  0.00000000000E+00 -0.25985816123E+03  0.27466041390E+03  0.88949867928E+02 0.  0.
          2    1    3    3  502    0  0.40029283264E+02 -0.14987808690E+02 -0.91980164855E+02  0.10142646920E+03  0.00000000000E+00 0.  1.
         -2    1    3    3    0  502 -0.40029283264E+02  0.14987808690E+02 -0.16787799637E+03  0.17323394469E+03  0.00000000000E+00 0. -1.
<mgrwt>
<rscale>  0 0.88949868E+02</rscale>
<asrwt>0</asrwt>
<pdfrwt beam="2">  1        1 0.41116807E-01 0.88949868E+02</pdfrwt>
<pdfrwt beam="1">  1       -1 0.11386350E-02 0.88949868E+02</pdfrwt>
<totfact> 0.13382379E+05</totfact>
</mgrwt>
</event>
<event>
 5    1  0.3858846E+001  0.8469506E+02  0.7546771E-02  0.1316232E+00
         -2   -1    0    0    0  501 -0.00000000000E+00  0.00000000000E+00  0.20883493376E+01  0.20883493376E+01  0.00000000000E+00 0.  1.
          2   -1    0    0  501    0  0.00000000000E+00 -0.00000000000E+00 -0.85872288458E+03  0.85872288458E+03  0.00000000000E+00 0. -1.
         23    2    1    2    0    0  0.00000000000E+00  0.00000000000E+00 -0.85663453525E+03  0.86081123392E+03  0.84695061654E+02 0.  0.
          2    1    3    3  502    0 -0.41565816218E+02 -0.20969332454E+01 -0.50782741694E+03  0.50952997910E+03  0.00000000000E+00 0. -1.
         -2    1    3    3    0  502  0.41565816218E+02  0.20969332454E+01 -0.34880711831E+03  0.35128125482E+03  0.00000000000E+00 0.  1.
<mgrwt>
<rscale>  0 0.84695062E+02</rscale>
<asrwt>0</asrwt>
<pdfrwt beam="2">  1        2 0.13211149E+00 0.84695062E+02</pdfrwt>
<pdfrwt beam="1">  1       -2 0.32128384E-03 0.84695062E+02</pdfrwt>
<totfact> 0.29911060E+05</totfact>
</mgrwt>
</event>
<event>
 5    1  0.3858846E+001  0.9107330E+02  0.7546771E-02  0.1300273E+00
          2   -1    0    0  501    0  0.00000000000E+00  0.00000000000E+00  0.36549123426E+02  0.36549123426E+02  0.00000000000E+00 0.  1.
         -2   -1    0    0    0  501 -0.00000000000E+00 -0.00000000000E+00 -0.56734234588E+02  0.56734234588E+02  0.00000000000E+00 0. -1.
         23    2    1    2    0    0  0.00000000000E+00  0.00000000000E+00 -0.20185111162E+02  0.93283358014E+02  0.91073301080E+02 0.  0.
          2    1    3    3  502    0  0.92536892508E+01  0.31253661227E+02 -0.42663022651E+02  0.53689436639E+02  0.00000000000E+00 0. -1.
         -2    1    3    3    0  502 -0.92536892508E+01 -0.31253661227E+02  0.22477911490E+02  0.39593921374E+02  0.00000000000E+00 0.  1.
<mgrwt>
<rscale>  0 0.91073301E+02</rscale>
<asrwt>0</asrwt>
<pdfrwt beam="1">  1        2 0.56229421E-02 0.91073301E+02</pdfrwt>
<pdfrwt beam="2">  1       -2 0.87283437E-02 0.91073301E+02</pdfrwt>
<totfact> 0.93492893E+04</totfact>
</mgrwt>
</event>
<event>
 5    1  0.3858846E+001  0.9064537E+02  0.7546771E-02  0.1301296E+00
          1   -1    0    0  501    0  0.00000000000E+00  0.00000000000E+00  0.56925923915E+01  0.56925923915E+01  0.00000000000E+00 0. -1.
         -1   -1    0    0    0  501 -0.00000000000E+00 -0.00000000000E+00 -0.36084537764E+03  0.36084537764E+03  0.00000000000E+00 0.  1.
         23    2    1    2    0    0  0.00000000000E+00  0.00000000000E+00 -0.35515278525E+03  0.36653797003E+03  0.90645367256E+02 0.  0.
          2    1    3    3  502    0  0.43737884981E+02 -0.10417498905E+02 -0.20067082268E+03  0.20564606960E+03  0.00000000000E+00 0.  1.
         -2    1    3    3    0  502 -0.43737884981E+02  0.10417498905E+02 -0.15448196257E+03  0.16089190043E+03  0.00000000000E+00 0. -1.
<mgrwt>
<rscale>  0 0.90645367E+02</rscale>
<asrwt>0</asrwt>
<pdfrwt beam="1">  1        1 0.87578346E-03 0.90645367E+02</pdfrwt>
<pdfrwt beam="2">  1       -1 0.55514672E-01 0.90645367E+02</pdfrwt>
<totfact> 0.56869154E+04</totfact>
</mgrwt>
</event>
<event>
 5    1  0.3858846E+001  0.7404739E+02  0.7546771E-02  0.1346847E+00
          3   -1    0    0  501    0  0.00000000000E+00  0.00000000000E+00  0.38261850822E+02  0.38261850822E+02  0.00000000000E+00 0. -1.
         -3   -1    0    0    0  501 -0.00000000000E+00 -0.00000000000E+00 -0.35825605083E+02  0.35825605083E+02  0.00000000000E+00 0.  1.
         23    2    1    2    0    0  0.00000000000E+00  0.00000000000E+00  0.24362457394E+01  0.74087455905E+02  0.74047389077E+02 0.  0.
          2    1    3    3  502    0  0.34112902840E+02 -0.13848803439E+02  0.51284930395E+01  0.37172314129E+02  0.00000000000E+00 0.  1.
         -2    1    3    3    0  502 -0.34112902840E+02  0.13848803439E+02 -0.26922473001E+01  0.36915141776E+02  0.00000000000E+00 0. -1.
<mgrwt>
<rscale>  0 0.74047389E+02</rscale>
<asrwt>0</asrwt>
<pdfrwt beam="1">  1        3 0.58864386E-02 0.74047389E+02</pdfrwt>
<pdfrwt beam="2">  1       -3 0.55116316E-02 0.74047389E+02</pdfrwt>
<totfact> 0.64301072E+04</totfact>
</mgrwt>
</event>
<event>
 5    1  0.3858846E+001  0.8685299E+02  0.7546771E-02  0.1310657E+00
          2   -1    0    0  501    0  0.00000000000E+00  0.00000000000E+00  0.16162436176E+04  0.16162436176E+04  0.00000000000E+00 0. -1.
         -2   -1    0    0    0  501 -0.00000000000E+00 -0.00000000000E+00 -0.11668170425E+01  0.11668170425E+01  0.00000000000E+00 0.  1.
         23    2    1    2    0    0  0.00000000000E+00  0.00000000000E+00  0.16150768005E+04  0.16174104346E+04  0.86852992990E+02 0.  0.
          2    1    3    3  502    0  0.30293902779E+02  0.10768157980E+02  0.13511677050E+04  0.13515501621E+04  0.00000000000E+00 0. -1.
         -2    1    3    3    0  502 -0.30293902779E+02 -0.10768157980E+02  0.26390909553E+03  0.26586027247E+03  0.00000000000E+00 0.  1.
<mgrwt>
<rscale>  0 0.86852993E+02</rscale>
<asrwt>0</asrwt>
<pdfrwt beam="1">  1        2 0.24865107E+00 0.86852993E+02</pdfrwt>
<pdfrwt beam="2">  1       -2 0.17951161E-03 0.86852993E+02</pdfrwt>
<totfact> 0.25957018E+05</totfact>
</mgrwt>
</event>
<event>
 5    1  0.3858846E+001  0.9097046E+02  0.7546771E-02  0.1300518E+00
         -1   -1    0    0    0  501 -0.00000000000E+00  0.00000000000E+00  0.84563410042E+03  0.84563410042E+03  0.00000000000E+00 0.  1.
          1   -1    0    0  501    0  0.00000000000E+00 -0.00000000000E+00 -0.24465735169E+01  0.24465735169E+01  0.00000000000E+00 0. -1.
         23    2    1    2    0    0  0.00000000000E+00  0.00000000000E+00  0.84318752690E+03  0.84808067394E+03  0.90970456634E+02 0.  0.
          2    1    3    3  502    0  0.38521969666E+02  0.24168375577E+02  0.43020629717E+03  0.43260317919E+03  0.00000000000E+00 0. -1.
         -2    1    3    3    0  502 -0.38521969666E+02 -0.24168375577E+02  0.41298122973E+03  0.41547749474E+03  0.00000000000E+00 0.  1.
<mgrwt>
<rscale>  0 0.90970457E+02</rscale>
<asrwt>0</asrwt>
<pdfrwt beam="2">  1        1 0.37639660E-03 0.90970457E+02</pdfrwt>
<pdfrwt beam="1">  1       -1 0.13009732E+00 0.90970457E+02</pdfrwt>
<totfact> 0.31085521E+04</totfact>
</mgrwt>
</event>
<event>
 5    1  0.3858846E+001  0.9256477E+02  0.7546771E-02  0.1296757E+00
         -1   -1    0    0    0  501 -0.00000000000E+00  0.00000000000E+00  0.75780040370E+01  0.75780040370E+01  0.00000000000E+00 0. -1.
          1   -1    0    0  501    0  0.00000000000E+00 -0.00000000000E+00 -0.28266797519E+03  0.28266797519E+03  0.00000000000E+00 0.  1.
         23    2    1    2    0    0  0.00000000000E+00  0.00000000000E+00 -0.27508997115E+03  0.29024597923E+03  0.92564767750E+02 0.  0.
          2    1    3    3  502    0  0.19410670504E+02 -0.87904209459E+01 -0.26637244576E+03  0.26722336255E+03  0.00000000000E+00 0.  1.
         -2    1    3    3    0  502 -0.19410670504E+02  0.87904209459E+01 -0.87175253908E+01  0.23022616680E+02  0.00000000000E+00 0. -1.
<mgrwt>
<rscale>  0 0.92564768E+02</rscale>
<asrwt>0</asrwt>
<pdfrwt beam="2">  1        1 0.43487382E-01 0.92564768E+02</pdfrwt>
<pdfrwt beam="1">  1       -1 0.11658467E-02 0.92564768E+02</pdfrwt>
<totfact> 0.12165686E+05</totfact>
</mgrwt>
</event>
<event>
 5    1  0.3858846E+001  0.9496978E+02  0.7546771E-02  0.1291244E+00
         -2   -1    0    0    0  501 -0.00000000000E+00  0.00000000000E+00  0.21657002792E+01  0.21657002792E+01  0.00000000000E+00 0.  1.
          2   -1    0    0  501    0  0.00000000000E+00 -0.00000000000E+00 -0.10411482303E+04  0.10411482303E+04  0.00000000000E+00 0. -1.
         23    2    1    2    0    0  0.00000000000E+00  0.00000000000E+00 -0.10389825300E+04  0.10433139306E+04  0.94969784942E+02 0.  0.
          2    1    3    3  502    0 -0.22090401307E+02  0.33135271353E+02 -0.80361310781E+03  0.80459925371E+03  0.00000000000E+00 0. -1.
         -2    1    3    3    0  502  0.22090401307E+02 -0.33135271353E+02 -0.23536942220E+03  0.23871467685E+03  0.00000000000E+00 0.  1.
<mgrwt>
<rscale>  0 0.94969785E+02</rscale>
<asrwt>0</asrwt>
<pdfrwt beam="2">  1        2 0.16017718E+00 0.94969785E+02</pdfrwt>
<pdfrwt beam="1">  1       -2 0.33318355E-03 0.94969785E+02</pdfrwt>
<totfact> 0.22478618E+05</totfact>
</mgrwt>
</event>
<event>
 5    1  0.3858846E+001  0.8294768E+02  0.7546771E-02  0.1320889E+00
          1   -1    0    0  501    0  0.00000000000E+00  0.00000000000E+00  0.44892449260E+03  0.44892449260E+03  0.00000000000E+00 0. -1.
         -1   -1    0    0    0  501 -0.00000000000E+00 -0.00000000000E+00 -0.38315561430E+01  0.38315561430E+01  0.00000000000E+00 0.  1.
         23    2    1    2    0    0  0.00000000000E+00  0.00000000000E+00  0.44509293646E+03  0.45275604874E+03  0.82947679832E+02 0.  0.
          2    1    3    3  502    0  0.93309863239E+01 -0.35834445509E+02  0.32450260477E+03  0.32660850462E+03  0.00000000000E+00 0. -1.
         -2    1    3    3    0  502 -0.93309863239E+01  0.35834445509E+02  0.12059033169E+03  0.12614754412E+03  0.00000000000E+00 0.  1.
<mgrwt>
<rscale>  0 0.82947680E+02</rscale>
<asrwt>0</asrwt>
<pdfrwt beam="1">  1        1 0.69065265E-01 0.82947680E+02</pdfrwt>
<pdfrwt beam="2">  1       -1 0.58947053E-03 0.82947680E+02</pdfrwt>
<totfact> 0.17624688E+05</totfact>
</mgrwt>
</event>
<event>
 5    1  0.3858846E+001  0.9091391E+02  0.7546771E-02  0.1300654E+00
          2   -1    0    0  501    0  0.00000000000E+00  0.00000000000E+00  0.53340249021E+01  0.53340249021E+01  0.00000000000E+00 0. -1.
         -2   -1    0    0    0  501 -0.00000000000E+00 -0.00000000000E+00 -0.38738751370E+03  0.38738751370E+03  0.00000000000E+00 0.  1.
         23    2    1    2    0    0  0.00000000000E+00  0.00000000000E+00 -0.38205348879E+03  0.39272153860E+03  0.90913907513E+02 0.  0.
          2    1    3    3  502    0 -0.34980744302E+02 -0.48266810039E+01 -0.31467798744E+03  0.31665309900E+03  0.00000000000E+00 0.  1.
         -2    1    3    3    0  502  0.34980744302E+02  0.48266810039E+01 -0.67375501350E+02  0.76068439603E+02  0.00000000000E+00 0. -1.
<mgrwt>
<rscale>  0 0.90913908E+02</rscale>
<asrwt>0</asrwt>
<pdfrwt beam="1">  1        2 0.82061932E-03 0.90913908E+02</pdfrwt>
<pdfrwt beam="2">  1       -2 0.59598072E-01 0.90913908E+02</pdfrwt>
<totfact> 0.43944893E+04</totfact>
</mgrwt>
</event>
<event>
 5    1  0.3858846E+001  0.9115909E+02  0.7546771E-02  0.1300069E+00
          3   -1    0    0  501    0  0.00000000000E+00  0.00000000000E+00  0.52935839779E+02  0.52935839779E+02  0.00000000000E+00 0. -1.
         -3   -1    0    0    0  501 -0.00000000000E+00 -0.00000000000E+00 -0.39245522579E+02  0.39245522579E+02  0.00000000000E+00 0.  1.
         23    2    1    2    0    0  0.00000000000E+00  0.00000000000E+00  0.13690317200E+02  0.92181362358E+02  0.91159085017E+02 0.  0.
          2    1    3    3  502    0 -0.38199088816E+02  0.18910747269E+02 -0.94823642203E+01  0.43665798743E+02  0.00000000000E+00 0.  1.
         -2    1    3    3    0  502  0.38199088816E+02 -0.18910747269E+02  0.23172681420E+02  0.48515563615E+02  0.00000000000E+00 0. -1.
<mgrwt>
<rscale>  0 0.91159085E+02</rscale>
<asrwt>0</asrwt>
<pdfrwt beam="1">  1        3 0.81439753E-02 0.91159085E+02</pdfrwt>
<pdfrwt beam="2">  1       -3 0.60377727E-02 0.91159085E+02</pdfrwt>
<totfact> 0.35280538E+04</totfact>
</mgrwt>
</event>
<event>
 5    1  0.3858846E+001  0.9260767E+02  0.7546771E-02  0.1296657E+00
          2   -1    0    0  501    0  0.00000000000E+00  0.00000000000E+00  0.70444881466E+01  0.70444881466E+01  0.00000000000E+00 0. -1.
         -2   -1    0    0    0  501 -0.00000000000E+00 -0.00000000000E+00 -0.30435785361E+03  0.30435785361E+03  0.00000000000E+00 0.  1.
         23    2    1    2    0    0  0.00000000000E+00  0.00000000000E+00 -0.29731336547E+03  0.31140234176E+03  0.92607673378E+02 0.  0.
          2    1    3    3  502    0 -0.14347165221E+02 -0.41731544254E+02 -0.10149844123E+03  0.11067654000E+03  0.00000000000E+00 0. -1.
         -2    1    3    3    0  502  0.14347165221E+02  0.41731544254E+02 -0.19581492424E+03  0.20072580176E+03  0.00000000000E+00 0.  1.
<mgrwt>
<rscale>  0 0.92607673E+02</rscale>
<asrwt>0</asrwt>
<pdfrwt beam="1">  1        2 0.10837677E-02 0.92607673E+02</pdfrwt>
<pdfrwt beam="2">  1       -2 0.46824273E-01 0.92607673E+02</pdfrwt>
<totfact> 0.48596548E+04</totfact>
</mgrwt>
</event>
<event>
 5    1  0.3858846E+001  0.8978784E+02  0.7546771E-02  0.1303366E+00
          1   -1    0    0  501    0  0.00000000000E+00  0.00000000000E+00  0.37536205686E+03  0.37536205686E+03  0.00000000000E+00 0. -1.
         -1   -1    0    0    0  501 -0.00000000000E+00 -0.00000000000E+00 -0.53693861640E+01  0.53693861640E+01  0.00000000000E+00 0.  1.
         23    2    1    2    0    0  0.00000000000E+00  0.00000000000E+00  0.36999267070E+03  0.38073144303E+03  0.89787835136E+02 0.  0.
          2    1    3    3  502    0 -0.14188280208E+02  0.42508422645E+02  0.19636690193E+03  0.20141557403E+03  0.00000000000E+00 0. -1.
         -2    1    3    3    0  502  0.14188280208E+02 -0.42508422645E+02  0.17362576877E+03  0.17931586899E+03  0.00000000000E+00 0.  1.
<mgrwt>
<rscale>  0 0.89787835E+02</rscale>
<asrwt>0</asrwt>
<pdfrwt beam="1">  1        1 0.57747988E-01 0.89787835E+02</pdfrwt>
<pdfrwt beam="2">  1       -1 0.82605970E-03 0.89787835E+02</pdfrwt>
<totfact> 0.13900586E+05</totfact>
</mgrwt>
</event>
<event>
 5    1  0.3858846E+001  0.9263682E+02  0.7546771E-02  0.1296589E+00
         -4   -1    0    0    0  501 -0.00000000000E+00  0.00000000000E+00  0.55515755488E+01  0.55515755488E+01  0.00000000000E+00 0.  1.
          4   -1    0    0  501    0  0.00000000000E+00 -0.00000000000E+00 -0.38644800408E+03  0.38644800408E+03  0.00000000000E+00 0. -1.
         23    2    1    2    0    0  0.00000000000E+00  0.00000000000E+00 -0.38089642853E+03  0.39199957963E+03  0.92636824003E+02 0.  0.
          2    1    3    3  502    0 -0.25811302045E+02  0.38446680982E+02 -0.18616470216E+03  0.19183760560E+03  0.00000000000E+00 0. -1.
         -2    1    3    3    0  502  0.25811302045E+02 -0.38446680982E+02 -0.19473172637E+03  0.20016197403E+03  0.00000000000E+00 0.  1.
<mgrwt>
<rscale>  0 0.92636824E+02</rscale>
<asrwt>0</asrwt>
<pdfrwt beam="2">  1        4 0.59453547E-01 0.92636824E+02</pdfrwt>
<pdfrwt beam="1">  1       -4 0.85408844E-03 0.92636824E+02</pdfrwt>
<totfact> 0.14705861E+04</totfact>
</mgrwt>
</event>
<event>
 5    1  0.3858846E+001  0.9245076E+02  0.7546771E-02  0.1297023E+00
          4   -1    0    0  501    0  0.00000000000E+00  0.00000000000E+00  0.10332425850E+02  0.10332425850E+02  0.00000000000E+00 0.  1.
         -4   -1    0    0    0  501 -0.00000000000E+00 -0.00000000000E+00 -0.20680387317E+03  0.20680387317E+03  0.00000000000E+00 0. -1.
         23    2    1    2    0    0  0.00000000000E+00  0.00000000000E+00 -0.19647144732E+03  0.21713629902E+03  0.92450758464E+02 0.  0.
          2    1    3    3  502    0  0.20548690763E+02 -0.41390433891E+02 -0.10098374291E+03  0.11105463989E+03  0.00000000000E+00 0. -1.
         -2    1    3    3    0  502 -0.20548690763E+02  0.41390433891E+02 -0.95487704413E+02  0.10608165913E+03  0.00000000000E+00 0.  1.
<mgrwt>
<rscale>  0 0.92450758E+02</rscale>
<asrwt>0</asrwt>
<pdfrwt beam="1">  1        4 0.15896039E-02 0.92450758E+02</pdfrwt>
<pdfrwt beam="2">  1       -4 0.31815982E-01 0.92450758E+02</pdfrwt>
<totfact> 0.19935691E+04</totfact>
</mgrwt>
</event>
<event>
 5    1  0.3858846E+001  0.8469214E+02  0.7546771E-02  0.1316240E+00
          1   -1    0    0  501    0  0.00000000000E+00  0.00000000000E+00  0.97292619171E+01  0.97292619171E+01  0.00000000000E+00 0. -1.
         -1   -1    0    0    0  501 -0.00000000000E+00 -0.00000000000E+00 -0.18430890080E+03  0.18430890080E+03  0.00000000000E+00 0.  1.
         23    2    1    2    0    0  0.00000000000E+00  0.00000000000E+00 -0.17457963888E+03  0.19403816272E+03  0.84692138231E+02 0.  0.
          2    1    3    3  502    0 -0.34521105264E+02 -0.20525325958E+02 -0.11804469999E+03  0.12468980275E+03  0.00000000000E+00 0.  1.
         -2    1    3    3    0  502  0.34521105264E+02  0.20525325958E+02 -0.56534938891E+02  0.69348359965E+02  0.00000000000E+00 0. -1.
<mgrwt>
<rscale>  0 0.84692138E+02</rscale>
<asrwt>0</asrwt>
<pdfrwt beam="1">  1        1 0.14968097E-02 0.84692138E+02</pdfrwt>
<pdfrwt beam="2">  1       -1 0.28355213E-01 0.84692138E+02</pdfrwt>
<totfact> 0.86008001E+04</totfact>
</mgrwt>
</event>
<event>
 5    1  0.3858846E+001  0.8974618E+02  0.7546771E-02  0.1303468E+00
         -1   -1    0    0    0  501 -0.00000000000E+00  0.00000000000E+00  0.25728106945E+02  0.25728106945E+02  0.00000000000E+00 0.  1.
          1   -1    0    0  501    0  0.00000000000E+00 -0.00000000000E+00 -0.78264374207E+02  0.78264374207E+02  0.00000000000E+00 0. -1.
         23    2    1    2    0    0  0.00000000000E+00  0.00000000000E+00 -0.52536267262E+02  0.10399248115E+03  0.89746179631E+02 0.  0.
          2    1    3    3  502    0 -0.29144092317E+02  0.31646687107E+02 -0.11487804419E+02  0.44529322611E+02  0.00000000000E+00 0. -1.
         -2    1    3    3    0  502  0.29144092317E+02 -0.31646687107E+02 -0.41048462843E+02  0.59463158540E+02  0.00000000000E+00 0.  1.
<mgrwt>
<rscale>  0 0.89746180E+02</rscale>
<asrwt>0</asrwt>
<pdfrwt beam="2">  1        1 0.12040673E-01 0.89746180E+02</pdfrwt>
<pdfrwt beam="1">  1       -1 0.39581703E-02 0.89746180E+02</pdfrwt>
<totfact> 0.10484571E+05</totfact>
</mgrwt>
</event>
<event>
 5    1  0.3858846E+001  0.9062808E+02  0.7546771E-02  0.1301338E+00
          2   -1    0    0  501    0  0.00000000000E+00  0.00000000000E+00  0.15708593777E+02  0.15708593777E+02  0.00000000000E+00 0. -1.
         -2   -1    0    0    0  501 -0.00000000000E+00 -0.00000000000E+00 -0.13071586198E+03  0.13071586198E+03  0.00000000000E+00 0.  1.
         23    2    1    2    0    0  0.00000000000E+00  0.00000000000E+00 -0.11500726820E+03  0.14642445576E+03  0.90628083419E+02 0.  0.
          2    1    3    3  502    0  0.43327179835E+02  0.13149917222E+02 -0.54614558807E+02  0.70943039610E+02  0.00000000000E+00 0. -1.
         -2    1    3    3    0  502 -0.43327179835E+02 -0.13149917222E+02 -0.60392709397E+02  0.75481416147E+02  0.00000000000E+00 0.  1.
<mgrwt>
<rscale>  0 0.90628083E+02</rscale>
<asrwt>0</asrwt>
<pdfrwt beam="1">  1        2 0.24167068E-02 0.90628083E+02</pdfrwt>
<pdfrwt beam="2">  1       -2 0.20110132E-01 0.90628083E+02</pdfrwt>
<totfact> 0.74434354E+04</totfact>
</mgrwt>
</event>
<event>
 5    1  0.3858846E+001  0.9061012E+02  0.7546771E-02  0.1301381E+00
          2   -1    0    0  501    0  0.00000000000E+00  0.00000000000E+00  0.58193230310E+03  0.58193230310E+03  0.00000000000E+00 0.  1.
         -2   -1    0    0    0  501 -0.00000000000E+00 -0.00000000000E+00 -0.35271262136E+01  0.35271262136E+01  0.00000000000E+00 0. -1.
         23    2    1    2    0    0  0.00000000000E+00  0.00000000000E+00  0.57840517688E+03  0.58545942931E+03  0.90610124838E+02 0.  0.
          2    1    3    3  502    0  0.33290892182E+02  0.27975314901E+02  0.20705329867E+03  0.21157024893E+03  0.00000000000E+00 0. -1.
         -2    1    3    3    0  502 -0.33290892182E+02 -0.27975314901E+02  0.37135187822E+03  0.37388918037E+03  0.00000000000E+00 0.  1.
<mgrwt>
<rscale>  0 0.90610125E+02</rscale>
<asrwt>0</asrwt>
<pdfrwt beam="1">  1        2 0.89527971E-01 0.90610125E+02</pdfrwt>
<pdfrwt beam="2">  1       -2 0.54263526E-03 0.90610125E+02</pdfrwt>
<totfact> 0.22960414E+05</totfact>
</mgrwt>
</event>
<event>
 5    1  0.3858846E+001  0.9050622E+02  0.7546771E-02  0.1301630E+00
         -1   -1    0    0    0  501 -0.00000000000E+00  0.00000000000E+00  0.37149335192E+03  0.37149335192E+03  0.00000000000E+00 0.  1.
          1   -1    0    0  501    0  0.00000000000E+00 -0.00000000000E+00 -0.55124647984E+01  0.55124647984E+01  0.00000000000E+00 0. -1.
         23    2    1    2    0    0  0.00000000000E+00  0.00000000000E+00  0.36598088712E+03  0.37700581672E+03  0.90506221340E+02 0.  0.
          2    1    3    3  502    0  0.46042322859E+01  0.42151473358E+02  0.11714111907E+03  0.12457924161E+03  0.00000000000E+00 0. -1.
         -2    1    3    3    0  502 -0.46042322859E+01 -0.42151473358E+02  0.24883976805E+03  0.25242657512E+03  0.00000000000E+00 0.  1.
<mgrwt>
<rscale>  0 0.90506221E+02</rscale>
<asrwt>0</asrwt>
<pdfrwt beam="2">  1        1 0.84807180E-03 0.90506221E+02</pdfrwt>
<pdfrwt beam="1">  1       -1 0.57152804E-01 0.90506221E+02</pdfrwt>
<totfact> 0.56330075E+04</totfact>
</mgrwt>
</event>
<event>
 5    1  0.3858846E+001  0.9122866E+02  0.7546771E-02  0.1299903E+00
          1   -1    0    0  501    0  0.00000000000E+00  0.00000000000E+00  0.47819937487E+01  0.47819937487E+01  0.00000000000E+00 0. -1.
         -1   -1    0    0    0  501 -0.00000000000E+00 -0.00000000000E+00 -0.43510454818E+03  0.43510454818E+03  0.00000000000E+00 0.  1.
         23    2    1    2    0    0  0.00000000000E+00  0.00000000000E+00 -0.43032255443E+03  0.43988654193E+03  0.91228662808E+02 0.  0.
          2    1    3    3  502    0 -0.33059040934E+02 -0.30403451554E+02 -0.17676896039E+03  0.18238567765E+03  0.00000000000E+00 0. -1.
         -2    1    3    3    0  502  0.33059040934E+02  0.30403451554E+02 -0.25355359404E+03  0.25750086428E+03  0.00000000000E+00 0.  1.
<mgrwt>
<rscale>  0 0.91228663E+02</rscale>
<asrwt>0</asrwt>
<pdfrwt beam="1">  1        1 0.73569102E-03 0.91228663E+02</pdfrwt>
<pdfrwt beam="2">  1       -1 0.66939191E-01 0.91228663E+02</pdfrwt>
<totfact> 0.50914177E+04</totfact>
</mgrwt>
</event>
<event>
 5    1  0.3858846E+001  0.8280613E+02  0.7546771E-02  0.1321272E+00
          1   -1    0    0  501    0  0.00000000000E+00  0.00000000000E+00  0.26686230927E+02  0.26686230927E+02  0.00000000000E+00 0. -1.
         -1   -1    0    0    0  501 -0.00000000000E+00 -0.00000000000E+00 -0.64235885348E+02  0.64235885348E+02  0.00000000000E+00 0.  1.
         23    2    1    2    0    0  0.00000000000E+00  0.00000000000E+00 -0.37549654421E+02  0.90922116275E+02  0.82806127073E+02 0.  0.
          2    1    3    3  502    0 -0.32024126556E+02  0.13836566376E+02  0.57090767519E+01  0.35349523449E+02  0.00000000000E+00 0. -1.
         -2    1    3    3    0  502  0.32024126556E+02 -0.13836566376E+02 -0.43258731173E+02  0.55572592826E+02  0.00000000000E+00 0.  1.
<mgrwt>
<rscale>  0 0.82806127E+02</rscale>
<asrwt>0</asrwt>
<pdfrwt beam="1">  1        1 0.41055741E-02 0.82806127E+02</pdfrwt>
<pdfrwt beam="2">  1       -1 0.98824437E-02 0.82806127E+02</pdfrwt>
<totfact> 0.11203037E+05</totfact>
</mgrwt>
</event>
<event>
 5    1  0.3858846E+001  0.9097763E+02  0.7546771E-02  0.1300501E+00
          3   -1    0    0  501    0  0.00000000000E+00  0.00000000000E+00  0.36863610443E+01  0.36863610443E+01  0.00000000000E+00 0. -1.
         -3   -1    0    0    0  501 -0.00000000000E+00 -0.00000000000E+00 -0.56132107429E+03  0.56132107429E+03  0.00000000000E+00 0.  1.
         23    2    1    2    0    0  0.00000000000E+00  0.00000000000E+00 -0.55763471325E+03  0.56500743534E+03  0.90977626736E+02 0.  0.
          2    1    3    3  502    0  0.26289555569E+02  0.14506722004E+02 -0.49103194560E+03  0.49194914098E+03  0.00000000000E+00 0.  1.
         -2    1    3    3    0  502 -0.26289555569E+02 -0.14506722004E+02 -0.66602767648E+02  0.73058294353E+02  0.00000000000E+00 0. -1.
<mgrwt>
<rscale>  0 0.90977627E+02</rscale>
<asrwt>0</asrwt>
<pdfrwt beam="1">  1        3 0.56713267E-03 0.90977627E+02</pdfrwt>
<pdfrwt beam="2">  1       -3 0.86357058E-01 0.90977627E+02</pdfrwt>
<totfact> 0.16513175E+04</totfact>
</mgrwt>
</event>
<event>
 5    1  0.3858846E+001  0.9278192E+02  0.7546771E-02  0.1296251E+00
         -2   -1    0    0    0  501 -0.00000000000E+00  0.00000000000E+00  0.59537853611E+01  0.59537853611E+01  0.00000000000E+00 0.  1.
          2   -1    0    0  501    0  0.00000000000E+00 -0.00000000000E+00 -0.36147106445E+03  0.36147106445E+03  0.00000000000E+00 0. -1.
         23    2    1    2    0    0  0.00000000000E+00  0.00000000000E+00 -0.35551727909E+03  0.36742484981E+03  0.92781919187E+02 0.  0.
          2    1    3    3  502    0  0.39769420865E+02  0.77691525741E+01 -0.26720363823E+03  0.27025867396E+03  0.00000000000E+00 0. -1.
         -2    1    3    3    0  502 -0.39769420865E+02 -0.77691525741E+01 -0.88313640861E+02  0.97166175852E+02  0.00000000000E+00 0.  1.
<mgrwt>
<rscale>  0 0.92781919E+02</rscale>
<asrwt>0</asrwt>
<pdfrwt beam="2">  1        2 0.55610939E-01 0.92781919E+02</pdfrwt>
<pdfrwt beam="1">  1       -2 0.91596688E-03 0.92781919E+02</pdfrwt>
<totfact> 0.18370962E+05</totfact>
</mgrwt>
</event>
<event>
 5    1  0.3858846E+001  0.9251176E+02  0.7546771E-02  0.1296881E+00
          1   -1    0    0  501    0  0.00000000000E+00  0.00000000000E+00  0.22133043643E+03  0.22133043643E+03  0.00000000000E+00 0. -1.
         -1   -1    0    0    0  501 -0.00000000000E+00 -0.00000000000E+00 -0.96670222360E+01  0.96670222360E+01  0.00000000000E+00 0.  1.
         23    2    1    2    0    0  0.00000000000E+00  0.00000000000E+00  0.21166341419E+03  0.23099745867E+03  0.92511756020E+02 0.  0.
          2    1    3    3  502    0  0.39452456534E+02  0.24144098207E+02  0.10686860598E+03  0.11644884177E+03  0.00000000000E+00 0. -1.
         -2    1    3    3    0  502 -0.39452456534E+02 -0.24144098207E+02  0.10479480821E+03  0.11454861689E+03  0.00000000000E+00 0.  1.
<mgrwt>
<rscale>  0 0.92511756E+02</rscale>
<asrwt>0</asrwt>
<pdfrwt beam="1">  1        1 0.34050833E-01 0.92511756E+02</pdfrwt>
<pdfrwt beam="2">  1       -1 0.14872344E-02 0.92511756E+02</pdfrwt>
<totfact> 0.11614963E+05</totfact>
</mgrwt>
</event>
<event>
 5    1  0.3858846E+001  0.9391836E+02  0.7546771E-02  0.1293631E+00
         -2   -1    0    0    0  501 -0.00000000000E+00  0.00000000000E+00  0.11284778061E+02  0.11284778061E+02  0.00000000000E+00 0.  1.
          2   -1    0    0  501    0  0.00000000000E+00 -0.00000000000E+00 -0.19541052770E+03  0.19541052770E+03  0.00000000000E+00 0. -1.
         23    2    1    2    0    0  0.00000000000E+00  0.00000000000E+00 -0.18412574964E+03  0.20669530576E+03  0.93918356799E+02 0.  0.
          2    1    3    3  502    0 -0.41670632258E+02  0.57294108238E+01 -0.13801143594E+03  0.14427898042E+03  0.00000000000E+00 0. -1.
         -2    1    3    3    0  502  0.41670632258E+02 -0.57294108238E+01 -0.46114313702E+02  0.62416325343E+02  0.00000000000E+00 0.  1.
<mgrwt>
<rscale>  0 0.93918357E+02</rscale>
<asrwt>0</asrwt>
<pdfrwt beam="2">  1        2 0.30063158E-01 0.93918357E+02</pdfrwt>
<pdfrwt beam="1">  1       -2 0.17361197E-02 0.93918357E+02</pdfrwt>
<totfact> 0.14159451E+05</totfact>
</mgrwt>
</event>
<event>
 5    1  0.3858846E+001  0.9002996E+02  0.7546771E-02  0.1302779E+00
         -1   -1    0    0    0  501 -0.00000000000E+00  0.00000000000E+00  0.19168625667E+02  0.19168625667E+02  0.00000000000E+00 0.  1.
          1   -1    0    0  501    0  0.00000000000E+00 -0.00000000000E+00 -0.10571173078E+03  0.10571173078E+03  0.00000000000E+00 0. -1.
         23    2    1    2    0    0  0.00000000000E+00  0.00000000000E+00 -0.86543105110E+02  0.12488035644E+03  0.90029963809E+02 0.  0.
          2    1    3    3  502    0 -0.26006255916E+02 -0.25441735413E+02 -0.80042498964E+02  0.87922743860E+02  0.00000000000E+00 0. -1.
         -2    1    3    3    0  502  0.26006255916E+02  0.25441735413E+02 -0.65006061462E+01  0.36957612583E+02  0.00000000000E+00 0.  1.
<mgrwt>
<rscale>  0 0.90029964E+02</rscale>
<asrwt>0</asrwt>
<pdfrwt beam="2">  1        1 0.16263343E-01 0.90029964E+02</pdfrwt>
<pdfrwt beam="1">  1       -1 0.29490193E-02 0.90029964E+02</pdfrwt>
<totfact> 0.10911735E+05</totfact>
</mgrwt>
</event>
<event>
 5    1  0.3858846E+001  0.9220421E+02  0.7546771E-02  0.1297600E+00
          1   -1    0    0  501    0  0.00000000000E+00  0.00000000000E+00  0.61988021995E+03  0.61988021995E+03  0.00000000000E+00 0. -1.
         -1   -1    0    0    0  501 -0.00000000000E+00 -0.00000000000E+00 -0.34287335759E+01  0.34287335759E+01  0.00000000000E+00 0.  1.
         23    2    1    2    0    0  0.00000000000E+00  0.00000000000E+00  0.61645148637E+03  0.62330895352E+03  0.92204210818E+02 0.  0.
          2    1    3    3  502    0  0.11421272712E+02 -0.29917418775E+02  0.53242312438E+03  0.53338530238E+03  0.00000000000E+00 0. -1.
         -2    1    3    3    0  502 -0.11421272712E+02  0.29917418775E+02  0.84028361986E+02  0.89923651141E+02  0.00000000000E+00 0.  1.
<mgrwt>
<rscale>  0 0.92204211E+02</rscale>
<asrwt>0</asrwt>
<pdfrwt beam="1">  1        1 0.95366099E-01 0.92204211E+02</pdfrwt>
<pdfrwt beam="2">  1       -1 0.52749796E-03 0.92204211E+02</pdfrwt>
<totfact> 0.13768673E+05</totfact>
</mgrwt>
</event>
<event>
 5    1  0.3858846E+001  0.9404659E+02  0.7546771E-02  0.1293338E+00
          1   -1    0    0  501    0  0.00000000000E+00  0.00000000000E+00  0.27693595508E+04  0.27693595508E+04  0.00000000000E+00 0. -1.
         -1   -1    0    0    0  501 -0.00000000000E+00 -0.00000000000E+00 -0.79844822139E+00  0.79844822139E+00  0.00000000000E+00 0.  1.
         23    2    1    2    0    0  0.00000000000E+00  0.00000000000E+00  0.27685611026E+04  0.27701579991E+04  0.94046588620E+02 0.  0.
          2    1    3    3  502    0 -0.38505985328E+02 -0.13140437180E+02  0.20787033537E+04  0.20791014921E+04  0.00000000000E+00 0. -1.
         -2    1    3    3    0  502  0.38505985328E+02  0.13140437180E+02  0.68985774894E+03  0.69105650693E+03  0.00000000000E+00 0.  1.
<mgrwt>
<rscale>  0 0.94046589E+02</rscale>
<asrwt>0</asrwt>
<pdfrwt beam="1">  1        1 0.42604763E+00 0.94046589E+02</pdfrwt>
<pdfrwt beam="2">  1       -1 0.12284040E-03 0.94046589E+02</pdfrwt>
<totfact> 0.36999028E+04</totfact>
</mgrwt>
</event>
<event>
 5    1  0.3858846E+001  0.9309119E+02  0.7546771E-02  0.1295534E+00
         -1   -1    0    0    0  501 -0.00000000000E+00  0.00000000000E+00  0.18700073194E+01  0.18700073194E+01  0.00000000000E+00 0.  1.
          1   -1    0    0  501    0  0.00000000000E+00 -0.00000000000E+00 -0.11585475701E+04  0.11585475701E+04  0.00000000000E+00 0. -1.
         23    2    1    2    0    0  0.00000000000E+00  0.00000000000E+00 -0.11566775628E+04  0.11604175774E+04  0.93091190473E+02 0.  0.
          2    1    3    3  502    0 -0.23338668324E+02 -0.40268277082E+02 -0.57192355535E+03  0.57381423888E+03  0.00000000000E+00 0. -1.
         -2    1    3    3    0  502  0.23338668324E+02  0.40268277082E+02 -0.58475400743E+03  0.58660333853E+03  0.00000000000E+00 0.  1.
<mgrwt>
<rscale>  0 0.93091190E+02</rscale>
<asrwt>0</asrwt>
<pdfrwt beam="2">  1        1 0.17823790E+00 0.93091190E+02</pdfrwt>
<pdfrwt beam="1">  1       -1 0.28769373E-03 0.93091190E+02</pdfrwt>
<totfact> 0.12240375E+05</totfact>
</mgrwt>
</event>
<event>
 5    1  0.3858846E+001  0.9049188E+02  0.7546771E-02  0.1301665E+00
         -2   -1    0    0    0  501 -0.00000000000E+00  0.00000000000E+00  0.16949441837E+01  0.16949441837E+01  0.00000000000E+00 0.  1.
          2   -1    0    0  501    0  0.00000000000E+00 -0.00000000000E+00 -0.12078243708E+04  0.12078243708E+04  0.00000000000E+00 0. -1.
         23    2    1    2    0    0  0.00000000000E+00  0.00000000000E+00 -0.12061294266E+04  0.12095193150E+04  0.90491875706E+02 0.  0.
          2    1    3    3  502    0  0.42943928537E+02  0.10644469592E+02 -0.47646823762E+03  0.47851799045E+03  0.00000000000E+00 0. -1.
         -2    1    3    3    0  502 -0.42943928537E+02 -0.10644469592E+02 -0.72966118902E+03  0.73100132455E+03  0.00000000000E+00 0.  1.
<mgrwt>
<rscale>  0 0.90491876E+02</rscale>
<asrwt>0</asrwt>
<pdfrwt beam="2">  1        2 0.18581854E+00 0.90491876E+02</pdfrwt>
<pdfrwt beam="1">  1       -2 0.26076147E-03 0.90491876E+02</pdfrwt>
<totfact> 0.25348315E+05</totfact>
</mgrwt>
</event>
<event>
 5    1  0.3858846E+001  0.9098891E+02  0.7546771E-02  0.1300474E+00
          1   -1    0    0  501    0  0.00000000000E+00  0.00000000000E+00  0.26299067745E+02  0.26299067745E+02  0.00000000000E+00 0. -1.
         -1   -1    0    0    0  501 -0.00000000000E+00 -0.00000000000E+00 -0.78700335745E+02  0.78700335745E+02  0.00000000000E+00 0.  1.
         23    2    1    2    0    0  0.00000000000E+00  0.00000000000E+00 -0.52401268000E+02  0.10499940349E+03  0.90988910563E+02 0.  0.
          2    1    3    3  502    0 -0.10855349239E+02 -0.34129523809E+02  0.61742695704E+01  0.36342600447E+02  0.00000000000E+00 0. -1.
         -2    1    3    3    0  502  0.10855349239E+02  0.34129523809E+02 -0.58575537570E+02  0.68656803043E+02  0.00000000000E+00 0.  1.
<mgrwt>
<rscale>  0 0.90988911E+02</rscale>
<asrwt>0</asrwt>
<pdfrwt beam="1">  1        1 0.40460104E-02 0.90988911E+02</pdfrwt>
<pdfrwt beam="2">  1       -1 0.12107744E-01 0.90988911E+02</pdfrwt>
<totfact> 0.85334254E+04</totfact>
</mgrwt>
</event>
<event>
 5    1  0.3858846E+001  0.8338370E+02  0.7546771E-02  0.1319714E+00
          2   -1    0    0  501    0  0.00000000000E+00  0.00000000000E+00  0.40427069827E+03  0.40427069827E+03  0.00000000000E+00 0.  1.
         -2   -1    0    0    0  501 -0.00000000000E+00 -0.00000000000E+00 -0.42996203419E+01  0.42996203419E+01  0.00000000000E+00 0. -1.
         23    2    1    2    0    0  0.00000000000E+00  0.00000000000E+00  0.39997107793E+03  0.40857031862E+03  0.83383703874E+02 0.  0.
          2    1    3    3  502    0 -0.27627770468E+02  0.29272413525E+02  0.14674958300E+03  0.15216966848E+03  0.00000000000E+00 0. -1.
         -2    1    3    3    0  502  0.27627770468E+02 -0.29272413525E+02  0.25322149494E+03  0.25640065014E+03  0.00000000000E+00 0.  1.
<mgrwt>
<rscale>  0 0.83383704E+02</rscale>
<asrwt>0</asrwt>
<pdfrwt beam="1">  1        2 0.62195462E-01 0.83383704E+02</pdfrwt>
<pdfrwt beam="2">  1       -2 0.66148037E-03 0.83383704E+02</pdfrwt>
<totfact> 0.25371136E+05</totfact>
</mgrwt>
</event>
<event>
 5    1  0.3858846E+001  0.8982030E+02  0.7546771E-02  0.1303287E+00
          1   -1    0    0  501    0  0.00000000000E+00  0.00000000000E+00  0.24919370439E+03  0.24919370439E+03  0.00000000000E+00 0. -1.
         -1   -1    0    0    0  501 -0.00000000000E+00 -0.00000000000E+00 -0.80937895467E+01  0.80937895467E+01  0.00000000000E+00 0.  1.
         23    2    1    2    0    0  0.00000000000E+00  0.00000000000E+00  0.24109991484E+03  0.25728749394E+03  0.89820296141E+02 0.  0.
          2    1    3    3  502    0 -0.44121498798E+02 -0.49450019727E+01  0.10117256813E+03  0.11048551146E+03  0.00000000000E+00 0. -1.
         -2    1    3    3    0  502  0.44121498798E+02  0.49450019727E+01  0.13992734672E+03  0.14680198248E+03  0.00000000000E+00 0.  1.
<mgrwt>
<rscale>  0 0.89820296E+02</rscale>
<asrwt>0</asrwt>
<pdfrwt beam="1">  1        1 0.38337487E-01 0.89820296E+02</pdfrwt>
<pdfrwt beam="2">  1       -1 0.12451986E-02 0.89820296E+02</pdfrwt>
<totfact> 0.12863527E+05</totfact>
</mgrwt>
</event>
<event>
 5    1  0.3858846E+001  0.8805802E+02  0.7546771E-02  0.1307624E+00
          2   -1    0    0  501    0  0.00000000000E+00  0.00000000000E+00  0.86472911355E+03  0.86472911355E+03  0.00000000000E+00 0. -1.
         -2   -1    0    0    0  501 -0.00000000000E+00 -0.00000000000E+00 -0.22418046540E+01  0.22418046540E+01  0.00000000000E+00 0.  1.
         23    2    1    2    0    0  0.00000000000E+00  0.00000000000E+00  0.86248730889E+03  0.86697091820E+03  0.88058020672E+02 0.  0.
          2    1    3    3  502    0  0.85442400214E+01  0.32163903739E+02  0.71506479948E+03  0.71583880042E+03  0.00000000000E+00 0. -1.
         -2    1    3    3    0  502 -0.85442400214E+01 -0.32163903739E+02  0.14742250942E+03  0.15113211778E+03  0.00000000000E+00 0.  1.
<mgrwt>
<rscale>  0 0.88058021E+02</rscale>
<asrwt>0</asrwt>
<pdfrwt beam="1">  1        2 0.13303498E+00 0.88058021E+02</pdfrwt>
<pdfrwt beam="2">  1       -2 0.34489371E-03 0.88058021E+02</pdfrwt>
<totfact> 0.27035958E+05</totfact>
</mgrwt>
</event>
<event>
 5    1  0.3858846E+001  0.8907834E+02  0.7546771E-02  0.1305099E+00
         -2   -1    0    0    0  501 -0.00000000000E+00  0.00000000000E+00  0.98146307063E+00  0.98146307063E+00  0.00000000000E+00 0.  1.
          2   -1    0    0  501    0  0.00000000000E+00 -0.00000000000E+00 -0.20212044577E+04  0.20212044577E+04  0.00000000000E+00 0. -1.
         23    2    1    2    0    0  0.00000000000E+00  0.00000000000E+00 -0.20202229946E+04  0.20221859208E+04  0.89078337062E+02 0.  0.
          2    1    3    3  502    0 -0.20371906477E+02 -0.17097204117E+02 -0.18211544171E+04  0.18213486047E+04  0.00000000000E+00 0. -1.
         -2    1    3    3    0  502  0.20371906477E+02  0.17097204117E+02 -0.19906857750E+03  0.20083731603E+03  0.00000000000E+00 0.  1.
<mgrwt>
<rscale>  0 0.89078337E+02</rscale>
<asrwt>0</asrwt>
<pdfrwt beam="2">  1        2 0.31095448E+00 0.89078337E+02</pdfrwt>
<pdfrwt beam="1">  1       -2 0.15099435E-03 0.89078337E+02</pdfrwt>
<totfact> 0.20721838E+05</totfact>
</mgrwt>
</event>
<event>
 5    1  0.3858846E+001  0.9203250E+02  0.7546771E-02  0.1298003E+00
         -1   -1    0    0    0  501 -0.00000000000E+00  0.00000000000E+00  0.19298971227E+03  0.19298971227E+03  0.00000000000E+00 0.  1.
          1   -1    0    0  501    0  0.00000000000E+00 -0.00000000000E+00 -0.10972062504E+02  0.10972062504E+02  0.00000000000E+00 0. -1.
         23    2    1    2    0    0  0.00000000000E+00  0.00000000000E+00  0.18201764977E+03  0.20396177478E+03  0.92032498297E+02 0.  0.
          2    1    3    3  502    0 -0.61177779416E+01  0.28866401103E+02  0.12754964677E+02  0.32146313063E+02  0.00000000000E+00 0. -1.
         -2    1    3    3    0  502  0.61177779416E+01 -0.28866401103E+02  0.16926268509E+03  0.17181546172E+03  0.00000000000E+00 0.  1.
<mgrwt>
<rscale>  0 0.92032498E+02</rscale>
<asrwt>0</asrwt>
<pdfrwt beam="2">  1        1 0.16880098E-02 0.92032498E+02</pdfrwt>
<pdfrwt beam="1">  1       -1 0.29690723E-01 0.92032498E+02</pdfrwt>
<totfact> 0.68440407E+04</totfact>
</mgrwt>
</event>
<event>
 5    1  0.3858846E+001  0.9546577E+02  0.7546771E-02  0.1290130E+00
          2   -1    0    0  501    0  0.00000000000E+00  0.00000000000E+00  0.14268435114E+04  0.14268435114E+04  0.00000000000E+00 0. -1.
         -2   -1    0    0    0  501 -0.00000000000E+00 -0.00000000000E+00 -0.15968311801E+01  0.15968311801E+01  0.00000000000E+00 0.  1.
         23    2    1    2    0    0  0.00000000000E+00  0.00000000000E+00  0.14252466802E+04  0.14284403426E+04  0.95465767858E+02 0.  0.
          2    1    3    3  502    0  0.43238793226E+02  0.15356528318E+02  0.51581089418E+03  0.51784775249E+03  0.00000000000E+00 0.  1.
         -2    1    3    3    0  502 -0.43238793226E+02 -0.15356528318E+02  0.90943578606E+03  0.91059259011E+03  0.00000000000E+00 0. -1.
<mgrwt>
<rscale>  0 0.95465768E+02</rscale>
<asrwt>0</asrwt>
<pdfrwt beam="1">  1        2 0.21951337E+00 0.95465768E+02</pdfrwt>
<pdfrwt beam="2">  1       -2 0.24566748E-03 0.95465768E+02</pdfrwt>
<totfact> 0.21261747E+05</totfact>
</mgrwt>
</event>
<event>
 5    1  0.3858846E+001  0.8933352E+02  0.7546771E-02  0.1304474E+00
         -2   -1    0    0    0  501 -0.00000000000E+00  0.00000000000E+00  0.22867100293E+01  0.22867100293E+01  0.00000000000E+00 0. -1.
          2   -1    0    0  501    0  0.00000000000E+00 -0.00000000000E+00 -0.87248475172E+03  0.87248475172E+03  0.00000000000E+00 0.  1.
         23    2    1    2    0    0  0.00000000000E+00  0.00000000000E+00 -0.87019804169E+03  0.87477146174E+03  0.89333524102E+02 0.  0.
          2    1    3    3  502    0  0.38178097342E+02  0.21878390870E+01 -0.66111978532E+03  0.66222482912E+03  0.00000000000E+00 0.  1.
         -2    1    3    3    0  502 -0.38178097342E+02 -0.21878390870E+01 -0.20907825636E+03  0.21254663263E+03  0.00000000000E+00 0. -1.
<mgrwt>
<rscale>  0 0.89333524E+02</rscale>
<asrwt>0</asrwt>
<pdfrwt beam="2">  1        2 0.13422863E+00 0.89333524E+02</pdfrwt>
<pdfrwt beam="1">  1       -2 0.35180100E-03 0.89333524E+02</pdfrwt>
<totfact> 0.26064588E+05</totfact>
</mgrwt>
</event>
<event>
 5    1  0.3858846E+001  0.9125233E+02  0.7546771E-02  0.1299847E+00
          1   -1    0    0  501    0  0.00000000000E+00  0.00000000000E+00  0.22192895490E+02  0.22192895490E+02  0.00000000000E+00 0. -1.
         -1   -1    0    0    0  501 -0.00000000000E+00 -0.00000000000E+00 -0.93802409402E+02  0.93802409402E+02  0.00000000000E+00 0.  1.
         23    2    1    2    0    0  0.00000000000E+00  0.00000000000E+00 -0.71609513912E+02  0.11599530489E+03  0.91252332979E+02 0.  0.
          2    1    3    3  502    0 -0.31231778999E+02 -0.93465693522E+01  0.47718755516E+01  0.32947733979E+02  0.00000000000E+00 0. -1.
         -2    1    3    3    0  502  0.31231778999E+02  0.93465693522E+01 -0.76381389464E+02  0.83047570913E+02  0.00000000000E+00 0.  1.
<mgrwt>
<rscale>  0 0.91252333E+02</rscale>
<asrwt>0</asrwt>
<pdfrwt beam="1">  1        1 0.34142916E-02 0.91252333E+02</pdfrwt>
<pdfrwt beam="2">  1       -1 0.14431140E-01 0.91252333E+02</pdfrwt>
<totfact> 0.82154935E+04</totfact>
</mgrwt>
</event>
<event>
 5    1  0.3858846E+001  0.9081266E+02  0.7546771E-02  0.1300896E+00
         -1   -1    0    0    0  501 -0.00000000000E+00  0.00000000000E+00  0.17476508000E+02  0.17476508000E+02  0.00000000000E+00 0.  1.
          1   -1    0    0  501    0  0.00000000000E+00 -0.00000000000E+00 -0.11797176976E+03  0.11797176976E+03  0.00000000000E+00 0. -1.
         23    2    1    2    0    0  0.00000000000E+00  0.00000000000E+00 -0.10049526176E+03  0.13544827776E+03  0.90812655023E+02 0.  0.
          2    1    3    3  502    0 -0.18471799508E+02 -0.11052731278E+02 -0.10987765763E+03  0.11196637840E+03  0.00000000000E+00 0. -1.
         -2    1    3    3    0  502  0.18471799508E+02  0.11052731278E+02  0.93823958631E+01  0.23481899367E+02  0.00000000000E+00 0.  1.
<mgrwt>
<rscale>  0 0.90812655E+02</rscale>
<asrwt>0</asrwt>
<pdfrwt beam="2">  1        1 0.18149503E-01 0.90812655E+02</pdfrwt>
<pdfrwt beam="1">  1       -1 0.26886936E-02 0.90812655E+02</pdfrwt>
<totfact> 0.10859319E+05</totfact>
</mgrwt>
</event>
<event>
 5    1  0.3858846E+001  0.8991036E+02  0.7546771E-02  0.1303069E+00
          3   -1    0    0  501    0  0.00000000000E+00  0.00000000000E+00  0.71376302875E+02  0.71376302875E+02  0.00000000000E+00 0. -1.
         -3   -1    0    0    0  501 -0.00000000000E+00 -0.00000000000E+00 -0.28314275558E+02  0.28314275558E+02  0.00000000000E+00 0.  1.
         23    2    1    2    0    0  0.00000000000E+00  0.00000000000E+00  0.43062027318E+02  0.99690578433E+02  0.89910362204E+02 0.  0.
          2    1    3    3  502    0  0.51758791804E+00  0.32151081076E+02  0.56365129540E+02  0.64892123865E+02  0.00000000000E+00 0. -1.
         -2    1    3    3    0  502 -0.51758791804E+00 -0.32151081076E+02 -0.13303102222E+02  0.34798454568E+02  0.00000000000E+00 0.  1.
<mgrwt>
<rscale>  0 0.89910362E+02</rscale>
<asrwt>0</asrwt>
<pdfrwt beam="1">  1        3 0.10980970E-01 0.89910362E+02</pdfrwt>
<pdfrwt beam="2">  1       -3 0.43560424E-02 0.89910362E+02</pdfrwt>
<totfact> 0.36037439E+04</totfact>
</mgrwt>
</event>
<event>
 5    1  0.3858846E+001  0.9379621E+02  0.7546771E-02  0.1293911E+00
         -2   -1    0    0    0  501 -0.00000000000E+00  0.00000000000E+00  0.41968182785E+02  0.41968182785E+02  0.00000000000E+00 0.  1.
          2   -1    0    0  501    0  0.00000000000E+00 -0.00000000000E+00 -0.52407135510E+02  0.52407135510E+02  0.00000000000E+00 0. -1.
         23    2    1    2    0    0  0.00000000000E+00  0.00000000000E+00 -0.10438952725E+02  0.94375318294E+02  0.93796209780E+02 0.  0.
          2    1    3    3  502    0  0.13214400299E+02 -0.40350604457E+02  0.14819323886E+02  0.44971146480E+02  0.00000000000E+00 0.  1.
         -2    1    3    3    0  502 -0.13214400299E+02  0.40350604457E+02 -0.25258276611E+02  0.49404171814E+02  0.00000000000E+00 0. -1.
<mgrwt>
<rscale>  0 0.93796210E+02</rscale>
<asrwt>0</asrwt>
<pdfrwt beam="2">  1        2 0.80626363E-02 0.93796210E+02</pdfrwt>
<pdfrwt beam="1">  1       -2 0.64566435E-02 0.93796210E+02</pdfrwt>
<totfact> 0.94383821E+04</totfact>
</mgrwt>
</event>
<event>
 5    1  0.3858846E+001  0.9119817E+02  0.7546771E-02  0.1299976E+00
         -1   -1    0    0    0  501 -0.00000000000E+00  0.00000000000E+00  0.10631358911E+01  0.10631358911E+01  0.00000000000E+00 0.  1.
          1   -1    0    0  501    0  0.00000000000E+00 -0.00000000000E+00 -0.19557954709E+04  0.19557954709E+04  0.00000000000E+00 0. -1.
         23    2    1    2    0    0  0.00000000000E+00  0.00000000000E+00 -0.19547323350E+04  0.19568586068E+04  0.91198165789E+02 0.  0.
          2    1    3    3  502    0 -0.11524033738E+02  0.32158694070E+02 -0.16254633511E+04  0.16258222814E+04  0.00000000000E+00 0. -1.
         -2    1    3    3    0  502  0.11524033738E+02 -0.32158694070E+02 -0.32926898389E+03  0.33103632537E+03  0.00000000000E+00 0.  1.
<mgrwt>
<rscale>  0 0.91198166E+02</rscale>
<asrwt>0</asrwt>
<pdfrwt beam="2">  1        1 0.30089310E+00 0.91198166E+02</pdfrwt>
<pdfrwt beam="1">  1       -1 0.16355856E-03 0.91198166E+02</pdfrwt>
<totfact> 0.82350886E+04</totfact>
</mgrwt>
</event>
<event>
 4    1  0.3858846E+001  0.4820722E+02  0.7546771E-02  0.1455258E+00
          1   -1    0    0  501    0  0.00000000000E+00  0.00000000000E+00  0.31692767026E+04  0.31692767026E+04  0.00000000000E+00 0. -1.
         -1   -1    0    0    0  501 -0.00000000000E+00 -0.00000000000E+00 -0.18331752732E+00  0.18331752732E+00  0.00000000000E+00 0.  1.
          2    1    1    2  502    0 -0.37144198106E+01  0.23803276856E+02  0.16350931570E+04  0.16352706274E+04  0.00000000000E+00 0. -1.
         -2    1    1    2    0  502  0.37144198106E+01 -0.23803276856E+02  0.15340002281E+04  0.15341893927E+04  0.00000000000E+00 0.  1.
<mgrwt>
<rscale>  0 0.48207218E+02</rscale>
<asrwt>0</asrwt>
<pdfrwt beam="1">  1        1 0.48753715E+00 0.48207218E+02</pdfrwt>
<pdfrwt beam="2">  1       -1 0.28205235E-04 0.48207218E+02</pdfrwt>
<totfact> 0.13743721E+05</totfact>
</mgrwt>
</event>
<event>
 5    1  0.3858846E+001  0.9090790E+02  0.7546771E-02  0.1300668E+00
          3   -1    0    0  501    0  0.00000000000E+00  0.00000000000E+00  0.87882601294E+03  0.87882601294E+03  0.00000000000E+00 0. -1.
         -3   -1    0    0    0  501 -0.00000000000E+00 -0.00000000000E+00 -0.23509336249E+01  0.23509336249E+01  0.00000000000E+00 0.  1.
         23    2    1    2    0    0  0.00000000000E+00  0.00000000000E+00  0.87647507932E+03  0.88117694657E+03  0.90907901181E+02 0.  0.
          2    1    3    3  502    0  0.43401795321E+02  0.75544814414E+01  0.32974628378E+03  0.33267611530E+03  0.00000000000E+00 0.  1.
         -2    1    3    3    0  502 -0.43401795321E+02 -0.75544814414E+01  0.54672879554E+03  0.54850083127E+03  0.00000000000E+00 0. -1.
<mgrwt>
<rscale>  0 0.90907901E+02</rscale>
<asrwt>0</asrwt>
<pdfrwt beam="1">  1        3 0.13520374E+00 0.90907901E+02</pdfrwt>
<pdfrwt beam="2">  1       -3 0.36168280E-03 0.90907901E+02</pdfrwt>
<totfact> 0.11443822E+04</totfact>
</mgrwt>
</event>
<event>
 5    1  0.3858846E+001  0.9023088E+02  0.7546771E-02  0.1302294E+00
         -1   -1    0    0    0  501 -0.00000000000E+00  0.00000000000E+00  0.14626424367E+01  0.14626424367E+01  0.00000000000E+00 0.  1.
          1   -1    0    0  501    0  0.00000000000E+00 -0.00000000000E+00 -0.13915929003E+04  0.13915929003E+04  0.00000000000E+00 0. -1.
         23    2    1    2    0    0  0.00000000000E+00  0.00000000000E+00 -0.13901302578E+04  0.13930555427E+04  0.90230877875E+02 0.  0.
          2    1    3    3  502    0  0.29334989711E+02 -0.33798734654E+02 -0.78308890438E+03  0.78436670522E+03  0.00000000000E+00 0. -1.
         -2    1    3    3    0  502 -0.29334989711E+02  0.33798734654E+02 -0.60704135345E+03  0.60868883749E+03  0.00000000000E+00 0.  1.
<mgrwt>
<rscale>  0 0.90230878E+02</rscale>
<asrwt>0</asrwt>
<pdfrwt beam="2">  1        1 0.21409194E+00 0.90230878E+02</pdfrwt>
<pdfrwt beam="1">  1       -1 0.22502115E-03 0.90230878E+02</pdfrwt>
<totfact> 0.12019013E+05</totfact>
</mgrwt>
</event>
<event>
 5    1  0.3858846E+001  0.1006698E+03  0.7546771E-02  0.1278894E+00
          1   -1    0    0  501    0  0.00000000000E+00  0.00000000000E+00  0.26309150000E+04  0.26309150000E+04  0.00000000000E+00 0.  1.
         -1   -1    0    0    0  501 -0.00000000000E+00 -0.00000000000E+00 -0.96301128686E+00  0.96301128686E+00  0.00000000000E+00 0. -1.
         23    2    1    2    0    0  0.00000000000E+00  0.00000000000E+00  0.26299519887E+04  0.26318780112E+04  0.10066977381E+03 0.  0.
          2    1    3    3  502    0 -0.79010446026E+01  0.49643276921E+02  0.12472069123E+04  0.12482195173E+04  0.00000000000E+00 0. -1.
         -2    1    3    3    0  502  0.79010446026E+01 -0.49643276921E+02  0.13827450764E+04  0.13836584939E+04  0.00000000000E+00 0.  1.
<mgrwt>
<rscale>  0 0.10066977E+03</rscale>
<asrwt>0</asrwt>
<pdfrwt beam="1">  1        1 0.40475040E+00 0.10066977E+03</pdfrwt>
<pdfrwt beam="2">  1       -1 0.14815769E-03 0.10066977E+03</pdfrwt>
<totfact> 0.35402891E+04</totfact>
</mgrwt>
</event>
<event>
 5    1  0.3858846E+001  0.9008136E+02  0.7546771E-02  0.1302655E+00
         -2   -1    0    0    0  501 -0.00000000000E+00  0.00000000000E+00  0.20043864673E+01  0.20043864673E+01  0.00000000000E+00 0.  1.
          2   -1    0    0  501    0  0.00000000000E+00 -0.00000000000E+00 -0.10121115573E+04  0.10121115573E+04  0.00000000000E+00 0. -1.
         23    2    1    2    0    0  0.00000000000E+00  0.00000000000E+00 -0.10101071709E+04  0.10141159438E+04  0.90081356761E+02 0.  0.
          2    1    3    3  502    0  0.16500892327E+02  0.41124410873E+02 -0.41417458751E+03  0.41653821620E+03  0.00000000000E+00 0.  1.
         -2    1    3    3    0  502 -0.16500892327E+02 -0.41124410873E+02 -0.59593258337E+03  0.59757772761E+03  0.00000000000E+00 0. -1.
<mgrwt>
<rscale>  0 0.90081357E+02</rscale>
<asrwt>0</asrwt>
<pdfrwt beam="2">  1        2 0.15570939E+00 0.90081357E+02</pdfrwt>
<pdfrwt beam="1">  1       -2 0.30836730E-03 0.90081357E+02</pdfrwt>
<totfact> 0.25821549E+05</totfact>
</mgrwt>
</event>
<event>
 5    1  0.3858846E+001  0.9100690E+02  0.7546771E-02  0.1300432E+00
         -1   -1    0    0    0  501 -0.00000000000E+00  0.00000000000E+00  0.29236094412E+03  0.29236094412E+03  0.00000000000E+00 0.  1.
          1   -1    0    0  501    0  0.00000000000E+00 -0.00000000000E+00 -0.70822174751E+01  0.70822174751E+01  0.00000000000E+00 0. -1.
         23    2    1    2    0    0  0.00000000000E+00  0.00000000000E+00  0.28527872665E+03  0.29944316160E+03  0.91006896168E+02 0.  0.
          2    1    3    3  502    0 -0.74801234363E+01  0.20390745772E+02  0.11074139473E+02  0.24379731845E+02  0.00000000000E+00 0. -1.
         -2    1    3    3    0  502  0.74801234363E+01 -0.20390745772E+02  0.27420458718E+03  0.27506342975E+03  0.00000000000E+00 0.  1.
<mgrwt>
<rscale>  0 0.91006896E+02</rscale>
<asrwt>0</asrwt>
<pdfrwt beam="2">  1        1 0.10895721E-02 0.91006896E+02</pdfrwt>
<pdfrwt beam="1">  1       -1 0.44978598E-01 0.91006896E+02</pdfrwt>
<totfact> 0.61497611E+04</totfact>
</mgrwt>
</event>
<event>
 5    1  0.3858846E+001  0.9057315E+02  0.7546771E-02  0.1301470E+00
          1   -1    0    0  501    0  0.00000000000E+00  0.00000000000E+00  0.13005667174E+04  0.13005667174E+04  0.00000000000E+00 0. -1.
         -1   -1    0    0    0  501 -0.00000000000E+00 -0.00000000000E+00 -0.15769078669E+01  0.15769078669E+01  0.00000000000E+00 0.  1.
         23    2    1    2    0    0  0.00000000000E+00  0.00000000000E+00  0.12989898096E+04  0.13021436253E+04  0.90573150286E+02 0.  0.
          2    1    3    3  502    0  0.42707122623E+02  0.12723428898E+02  0.53350604133E+03  0.53536387635E+03  0.00000000000E+00 0. -1.
         -2    1    3    3    0  502 -0.42707122623E+02 -0.12723428898E+02  0.76548376823E+03  0.76677974894E+03  0.00000000000E+00 0.  1.
<mgrwt>
<rscale>  0 0.90573150E+02</rscale>
<asrwt>0</asrwt>
<pdfrwt beam="1">  1        1 0.20008633E+00 0.90573150E+02</pdfrwt>
<pdfrwt beam="2">  1       -1 0.24260225E-03 0.90573150E+02</pdfrwt>
<totfact> 0.12420118E+05</totfact>
</mgrwt>
</event>
<event>
 5    1  0.3858846E+001  0.9033642E+02  0.7546771E-02  0.1302039E+00
         -4   -1    0    0    0  501 -0.00000000000E+00  0.00000000000E+00  0.51141660444E+01  0.51141660444E+01  0.00000000000E+00 0.  1.
          4   -1    0    0  501    0  0.00000000000E+00 -0.00000000000E+00 -0.39892466639E+03  0.39892466639E+03  0.00000000000E+00 0. -1.
         23    2    1    2    0    0  0.00000000000E+00  0.00000000000E+00 -0.39381050035E+03  0.40403883244E+03  0.90336415318E+02 0.  0.
          2    1    3    3  502    0  0.68223561849E+01 -0.40147022215E+02 -0.28430303451E+03  0.28720470638E+03  0.00000000000E+00 0. -1.
         -2    1    3    3    0  502 -0.68223561849E+01  0.40147022215E+02 -0.10950746584E+03  0.11683412606E+03  0.00000000000E+00 0.  1.
<mgrwt>
<rscale>  0 0.90336415E+02</rscale>
<asrwt>0</asrwt>
<pdfrwt beam="2">  1        4 0.61373043E-01 0.90336415E+02</pdfrwt>
<pdfrwt beam="1">  1       -4 0.78679456E-03 0.90336415E+02</pdfrwt>
<totfact> 0.15428734E+04</totfact>
</mgrwt>
</event>
<event>
 5    1  0.3858846E+001  0.8765933E+02  0.7546771E-02  0.1308621E+00
         -1   -1    0    0    0  501 -0.00000000000E+00  0.00000000000E+00  0.15387143504E+02  0.15387143504E+02  0.00000000000E+00 0.  1.
          1   -1    0    0  501    0  0.00000000000E+00 -0.00000000000E+00 -0.12484704363E+03  0.12484704363E+03  0.00000000000E+00 0. -1.
         23    2    1    2    0    0  0.00000000000E+00  0.00000000000E+00 -0.10945990013E+03  0.14023418714E+03  0.87659326405E+02 0.  0.
          2    1    3    3  502    0  0.11723939477E+02  0.41391676632E+02 -0.68144872894E+02  0.80588121662E+02  0.00000000000E+00 0. -1.
         -2    1    3    3    0  502 -0.11723939477E+02 -0.41391676632E+02 -0.41315027234E+02  0.59646065474E+02  0.00000000000E+00 0.  1.
<mgrwt>
<rscale>  0 0.87659326E+02</rscale>
<asrwt>0</asrwt>
<pdfrwt beam="2">  1        1 0.19207238E-01 0.87659326E+02</pdfrwt>
<pdfrwt beam="1">  1       -1 0.23672527E-02 0.87659326E+02</pdfrwt>
<totfact> 0.12065059E+05</totfact>
</mgrwt>
</event>
<event>
 5    1  0.3858846E+001  0.9069772E+02  0.7546771E-02  0.1301171E+00
          2   -1    0    0  501    0  0.00000000000E+00  0.00000000000E+00  0.29528425919E+03  0.29528425919E+03  0.00000000000E+00 0. -1.
         -2   -1    0    0    0  501 -0.00000000000E+00 -0.00000000000E+00 -0.69645406671E+01  0.69645406671E+01  0.00000000000E+00 0.  1.
         23    2    1    2    0    0  0.00000000000E+00  0.00000000000E+00  0.28831971853E+03  0.30224879986E+03  0.90697722827E+02 0.  0.
          2    1    3    3  502    0 -0.41458681355E+02  0.82567933143E-01  0.20539876209E+03  0.20954111898E+03  0.00000000000E+00 0. -1.
         -2    1    3    3    0  502  0.41458681355E+02 -0.82567933143E-01  0.82920956441E+02  0.92707680880E+02  0.00000000000E+00 0.  1.
<mgrwt>
<rscale>  0 0.90697723E+02</rscale>
<asrwt>0</asrwt>
<pdfrwt beam="1">  1        2 0.45428338E-01 0.90697723E+02</pdfrwt>
<pdfrwt beam="2">  1       -2 0.10714680E-02 0.90697723E+02</pdfrwt>
<totfact> 0.18113068E+05</totfact>
</mgrwt>
</event>
<event>
 5    1  0.3858846E+001  0.9059853E+02  0.7546771E-02  0.1301409E+00
          1   -1    0    0  501    0  0.00000000000E+00  0.00000000000E+00  0.60909953935E+02  0.60909953935E+02  0.00000000000E+00 0. -1.
         -1   -1    0    0    0  501 -0.00000000000E+00 -0.00000000000E+00 -0.33689461673E+02  0.33689461673E+02  0.00000000000E+00 0.  1.
         23    2    1    2    0    0  0.00000000000E+00  0.00000000000E+00  0.27220492263E+02  0.94599415608E+02  0.90598533290E+02 0.  0.
          2    1    3    3  502    0 -0.27515862762E+02 -0.28729826493E+02  0.36235013641E+02  0.53809867565E+02  0.00000000000E+00 0. -1.
         -2    1    3    3    0  502  0.27515862762E+02  0.28729826493E+02 -0.90145213782E+01  0.40789548043E+02  0.00000000000E+00 0.  1.
<mgrwt>
<rscale>  0 0.90598533E+02</rscale>
<asrwt>0</asrwt>
<pdfrwt beam="1">  1        1 0.93707621E-02 0.90598533E+02</pdfrwt>
<pdfrwt beam="2">  1       -1 0.51829941E-02 0.90598533E+02</pdfrwt>
<totfact> 0.98308391E+04</totfact>
</mgrwt>
</event>
<event>
 5    1  0.3858846E+001  0.8933210E+02  0.7546771E-02  0.1304477E+00
          4   -1    0    0  501    0  0.00000000000E+00  0.00000000000E+00  0.69393449286E+02  0.69393449286E+02  0.00000000000E+00 0.  1.
         -4   -1    0    0    0  501 -0.00000000000E+00 -0.00000000000E+00 -0.28749918297E+02  0.28749918297E+02  0.00000000000E+00 0. -1.
         23    2    1    2    0    0  0.00000000000E+00  0.00000000000E+00  0.40643530989E+02  0.98143367583E+02  0.89332099434E+02 0.  0.
          2    1    3    3  502    0  0.26639293128E+02 -0.22172577045E+02 -0.10631304779E+02  0.36253272300E+02  0.00000000000E+00 0. -1.
         -2    1    3    3    0  502 -0.26639293128E+02  0.22172577045E+02  0.51274835768E+02  0.61890095283E+02  0.00000000000E+00 0.  1.
<mgrwt>
<rscale>  0 0.89332099E+02</rscale>
<asrwt>0</asrwt>
<pdfrwt beam="1">  1        4 0.10675915E-01 0.89332099E+02</pdfrwt>
<pdfrwt beam="2">  1       -4 0.44230644E-02 0.89332099E+02</pdfrwt>
<totfact> 0.28083010E+04</totfact>
</mgrwt>
</event>
<event>
 5    1  0.3858846E+001  0.8861392E+02  0.7546771E-02  0.1306243E+00
         -1   -1    0    0    0  501 -0.00000000000E+00  0.00000000000E+00  0.92993950052E+02  0.92993950052E+02  0.00000000000E+00 0.  1.
          1   -1    0    0  501    0  0.00000000000E+00 -0.00000000000E+00 -0.21110046064E+02  0.21110046064E+02  0.00000000000E+00 0. -1.
         23    2    1    2    0    0  0.00000000000E+00  0.00000000000E+00  0.71883903988E+02  0.11410399612E+03  0.88613916949E+02 0.  0.
          2    1    3    3  502    0  0.20557903626E+02  0.28222305761E+02  0.81991196980E+00  0.34925609510E+02  0.00000000000E+00 0. -1.
         -2    1    3    3    0  502 -0.20557903626E+02 -0.28222305761E+02  0.71063992018E+02  0.79178386606E+02  0.00000000000E+00 0.  1.
<mgrwt>
<rscale>  0 0.88613917E+02</rscale>
<asrwt>0</asrwt>
<pdfrwt beam="2">  1        1 0.32476994E-02 0.88613917E+02</pdfrwt>
<pdfrwt beam="1">  1       -1 0.14306761E-01 0.88613917E+02</pdfrwt>
<totfact> 0.88720585E+04</totfact>
</mgrwt>
</event>
<event>
 5    1  0.3858846E+001  0.9176917E+02  0.7546771E-02  0.1298623E+00
          2   -1    0    0  501    0  0.00000000000E+00  0.00000000000E+00  0.20884292174E+03  0.20884292174E+03  0.00000000000E+00 0. -1.
         -2   -1    0    0    0  501 -0.00000000000E+00 -0.00000000000E+00 -0.10081238117E+02  0.10081238117E+02  0.00000000000E+00 0.  1.
         23    2    1    2    0    0  0.00000000000E+00  0.00000000000E+00  0.19876168362E+03  0.21892415986E+03  0.91769171799E+02 0.  0.
          2    1    3    3  502    0  0.20693716294E+02  0.20485851457E+02  0.18397688509E+03  0.18626699722E+03  0.00000000000E+00 0. -1.
         -2    1    3    3    0  502 -0.20693716294E+02 -0.20485851457E+02  0.14784798526E+02  0.32657162636E+02  0.00000000000E+00 0.  1.
<mgrwt>
<rscale>  0 0.91769172E+02</rscale>
<asrwt>0</asrwt>
<pdfrwt beam="1">  1        2 0.32129677E-01 0.91769172E+02</pdfrwt>
<pdfrwt beam="2">  1       -2 0.15509599E-02 0.91769172E+02</pdfrwt>
<totfact> 0.15441051E+05</totfact>
</mgrwt>
</event>
<event>
 5    1  0.3858846E+001  0.9114568E+02  0.7546771E-02  0.1300101E+00
         -2   -1    0    0    0  501 -0.00000000000E+00  0.00000000000E+00  0.12299232311E+01  0.12299232311E+01  0.00000000000E+00 0.  1.
          2   -1    0    0  501    0  0.00000000000E+00 -0.00000000000E+00 -0.16886287530E+04  0.16886287530E+04  0.00000000000E+00 0. -1.
         23    2    1    2    0    0  0.00000000000E+00  0.00000000000E+00 -0.16873988298E+04  0.16898586763E+04  0.91145679702E+02 0.  0.
          2    1    3    3  502    0 -0.12699092435E+02  0.41520256251E+02 -0.58700969228E+03  0.58861326646E+03  0.00000000000E+00 0. -1.
         -2    1    3    3    0  502  0.12699092435E+02 -0.41520256251E+02 -0.11003891375E+04  0.11012454098E+04  0.00000000000E+00 0.  1.
<mgrwt>
<rscale>  0 0.91145680E+02</rscale>
<asrwt>0</asrwt>
<pdfrwt beam="2">  1        2 0.25978906E+00 0.91145680E+02</pdfrwt>
<pdfrwt beam="1">  1       -2 0.18921894E-03 0.91145680E+02</pdfrwt>
<totfact> 0.22335278E+05</totfact>
</mgrwt>
</event>
<event>
 5    1  0.3858846E+001  0.9261454E+02  0.7546771E-02  0.1296641E+00
          2   -1    0    0  501    0  0.00000000000E+00  0.00000000000E+00  0.23388158918E+04  0.23388158918E+04  0.00000000000E+00 0. -1.
         -2   -1    0    0    0  501 -0.00000000000E+00 -0.00000000000E+00 -0.91685853817E+00  0.91685853817E+00  0.00000000000E+00 0.  1.
         23    2    1    2    0    0  0.00000000000E+00  0.00000000000E+00  0.23378990333E+04  0.23397327503E+04  0.92614541398E+02 0.  0.
          2    1    3    3  502    0 -0.35413784022E+02  0.65817270245E+01  0.19041490358E+04  0.19044896969E+04  0.00000000000E+00 0. -1.
         -2    1    3    3    0  502  0.35413784022E+02 -0.65817270245E+01  0.43374999748E+03  0.43524305341E+03  0.00000000000E+00 0.  1.
<mgrwt>
<rscale>  0 0.92614541E+02</rscale>
<asrwt>0</asrwt>
<pdfrwt beam="1">  1        2 0.35981305E+00 0.92614541E+02</pdfrwt>
<pdfrwt beam="2">  1       -2 0.14105703E-03 0.92614541E+02</pdfrwt>
<totfact> 0.15767381E+05</totfact>
</mgrwt>
</event>
<event>
 5    1  0.3858846E+001  0.9181578E+02  0.7546771E-02  0.1298513E+00
          1   -1    0    0  501    0  0.00000000000E+00  0.00000000000E+00  0.16150820156E+02  0.16150820156E+02  0.00000000000E+00 0. -1.
         -1   -1    0    0    0  501 -0.00000000000E+00 -0.00000000000E+00 -0.13049086393E+03  0.13049086393E+03  0.00000000000E+00 0.  1.
         23    2    1    2    0    0  0.00000000000E+00  0.00000000000E+00 -0.11434004378E+03  0.14664168409E+03  0.91815782421E+02 0.  0.
          2    1    3    3  502    0  0.34970514767E+02  0.27814287196E+02 -0.73994019393E+02  0.86438917053E+02  0.00000000000E+00 0. -1.
         -2    1    3    3    0  502 -0.34970514767E+02 -0.27814287196E+02 -0.40346024385E+02  0.60202767037E+02  0.00000000000E+00 0.  1.
<mgrwt>
<rscale>  0 0.91815782E+02</rscale>
<asrwt>0</asrwt>
<pdfrwt beam="1">  1        1 0.24847416E-02 0.91815782E+02</pdfrwt>
<pdfrwt beam="2">  1       -1 0.20075517E-01 0.91815782E+02</pdfrwt>
<totfact> 0.75778082E+04</totfact>
</mgrwt>
</event>
<event>
 5    1  0.3858846E+001  0.8895363E+02  0.7546771E-02  0.1305406E+00
          4   -1    0    0  501    0  0.00000000000E+00  0.00000000000E+00  0.86110159399E+02  0.86110159399E+02  0.00000000000E+00 0. -1.
         -4   -1    0    0    0  501 -0.00000000000E+00 -0.00000000000E+00 -0.22972751484E+02  0.22972751484E+02  0.00000000000E+00 0.  1.
         23    2    1    2    0    0  0.00000000000E+00  0.00000000000E+00  0.63137407915E+02  0.10908291088E+03  0.88953634937E+02 0.  0.
          2    1    3    3  502    0 -0.42853756543E+01 -0.37602182617E+02  0.29170924946E+01  0.37957845180E+02  0.00000000000E+00 0.  1.
         -2    1    3    3    0  502  0.42853756543E+01  0.37602182617E+02  0.60220315420E+02  0.71125065704E+02  0.00000000000E+00 0. -1.
<mgrwt>
<rscale>  0 0.88953635E+02</rscale>
<asrwt>0</asrwt>
<pdfrwt beam="1">  1        4 0.13247717E-01 0.88953635E+02</pdfrwt>
<pdfrwt beam="2">  1       -4 0.35342695E-02 0.88953635E+02</pdfrwt>
<totfact> 0.27690398E+04</totfact>
</mgrwt>
</event>
<event>
 5    1  0.3858846E+001  0.9052494E+02  0.7546771E-02  0.1301585E+00
          1   -1    0    0  501    0  0.00000000000E+00  0.00000000000E+00  0.28212439294E+03  0.28212439294E+03  0.00000000000E+00 0. -1.
         -1   -1    0    0    0  501 -0.00000000000E+00 -0.00000000000E+00 -0.72616595368E+01  0.72616595368E+01  0.00000000000E+00 0.  1.
         23    2    1    2    0    0  0.00000000000E+00  0.00000000000E+00  0.27486273340E+03  0.28938605248E+03  0.90524942166E+02 0.  0.
          2    1    3    3  502    0  0.34686031068E+01 -0.20117022111E+02  0.82901640189E+01  0.22032989030E+02  0.00000000000E+00 0.  1.
         -2    1    3    3    0  502 -0.34686031068E+01  0.20117022111E+02  0.26657256938E+03  0.26735306345E+03  0.00000000000E+00 0. -1.
<mgrwt>
<rscale>  0 0.90524942E+02</rscale>
<asrwt>0</asrwt>
<pdfrwt beam="1">  1        1 0.43403744E-01 0.90524942E+02</pdfrwt>
<pdfrwt beam="2">  1       -1 0.11171786E-02 0.90524942E+02</pdfrwt>
<totfact> 0.12906267E+05</totfact>
</mgrwt>
</event>
<event>
 5    1  0.3858846E+001  0.9148098E+02  0.7546771E-02  0.1299304E+00
         -2   -1    0    0    0  501 -0.00000000000E+00  0.00000000000E+00  0.14522407625E+01  0.14522407625E+01  0.00000000000E+00 0.  1.
          2   -1    0    0  501    0  0.00000000000E+00 -0.00000000000E+00 -0.14406648793E+04  0.14406648793E+04  0.00000000000E+00 0. -1.
         23    2    1    2    0    0  0.00000000000E+00  0.00000000000E+00 -0.14392126385E+04  0.14421171201E+04  0.91480976444E+02 0.  0.
          2    1    3    3  502    0 -0.40336315964E+02  0.19069688446E+01 -0.10582735416E+04  0.10590436930E+04  0.00000000000E+00 0. -1.
         -2    1    3    3    0  502  0.40336315964E+02 -0.19069688446E+01 -0.38093909696E+03  0.38307342704E+03  0.00000000000E+00 0.  1.
<mgrwt>
<rscale>  0 0.91480976E+02</rscale>
<asrwt>0</asrwt>
<pdfrwt beam="2">  1        2 0.22163983E+00 0.91480976E+02</pdfrwt>
<pdfrwt beam="1">  1       -2 0.22342259E-03 0.91480976E+02</pdfrwt>
<totfact> 0.23722807E+05</totfact>
</mgrwt>
</event>
<event>
 5    1  0.3858846E+001  0.7477820E+02  0.7546771E-02  0.1344559E+00
          2   -1    0    0  501    0  0.00000000000E+00  0.00000000000E+00  0.52242983728E+03  0.52242983728E+03  0.00000000000E+00 0. -1.
         -2   -1    0    0    0  501 -0.00000000000E+00 -0.00000000000E+00 -0.26758518893E+01  0.26758518893E+01  0.00000000000E+00 0.  1.
         23    2    1    2    0    0  0.00000000000E+00  0.00000000000E+00  0.51975398539E+03  0.52510568917E+03  0.74778201827E+02 0.  0.
          2    1    3    3  502    0 -0.22039274826E+02  0.29013353813E+02  0.31881331368E+03  0.32088850605E+03  0.00000000000E+00 0.  1.
         -2    1    3    3    0  502  0.22039274826E+02 -0.29013353813E+02  0.20094067171E+03  0.20421718312E+03  0.00000000000E+00 0. -1.
<mgrwt>
<rscale>  0 0.74778202E+02</rscale>
<asrwt>0</asrwt>
<pdfrwt beam="1">  1        2 0.80373740E-01 0.74778202E+02</pdfrwt>
<pdfrwt beam="2">  1       -2 0.41166994E-03 0.74778202E+02</pdfrwt>
<totfact> 0.36725525E+05</totfact>
</mgrwt>
</event>
<event>
 5    1  0.3858846E+001  0.8939398E+02  0.7546771E-02  0.1304326E+00
         -2   -1    0    0    0  501 -0.00000000000E+00  0.00000000000E+00  0.10190365473E+01  0.10190365473E+01  0.00000000000E+00 0.  1.
          2   -1    0    0  501    0  0.00000000000E+00 -0.00000000000E+00 -0.19604999154E+04  0.19604999154E+04  0.00000000000E+00 0. -1.
         23    2    1    2    0    0  0.00000000000E+00  0.00000000000E+00 -0.19594808789E+04  0.19615189519E+04  0.89393983347E+02 0.  0.
          2    1    3    3  502    0  0.63553627015E+01 -0.38492148065E+02 -0.50112183415E+03  0.50263816883E+03  0.00000000000E+00 0.  1.
         -2    1    3    3    0  502 -0.63553627015E+01  0.38492148065E+02 -0.14583590447E+04  0.14588807831E+04  0.00000000000E+00 0. -1.
<mgrwt>
<rscale>  0 0.89393983E+02</rscale>
<asrwt>0</asrwt>
<pdfrwt beam="2">  1        2 0.30161154E+00 0.89393983E+02</pdfrwt>
<pdfrwt beam="1">  1       -2 0.15677684E-03 0.89393983E+02</pdfrwt>
<totfact> 0.21113878E+05</totfact>
</mgrwt>
</event>
<event>
 5    1  0.3858846E+001  0.9356635E+02  0.7546771E-02  0.1294438E+00
          2   -1    0    0  501    0  0.00000000000E+00  0.00000000000E+00  0.14958753359E+04  0.14958753359E+04  0.00000000000E+00 0. -1.
         -2   -1    0    0    0  501 -0.00000000000E+00 -0.00000000000E+00 -0.14631334886E+01  0.14631334886E+01  0.00000000000E+00 0.  1.
         23    2    1    2    0    0  0.00000000000E+00  0.00000000000E+00  0.14944122024E+04  0.14973384694E+04  0.93566346490E+02 0.  0.
          2    1    3    3  502    0  0.25998538128E+02 -0.26514039666E+02  0.12025871873E+04  0.12031603639E+04  0.00000000000E+00 0. -1.
         -2    1    3    3    0  502 -0.25998538128E+02  0.26514039666E+02  0.29182501516E+03  0.29417810550E+03  0.00000000000E+00 0.  1.
<mgrwt>
<rscale>  0 0.93566346E+02</rscale>
<asrwt>0</asrwt>
<pdfrwt beam="1">  1        2 0.23013344E+00 0.93566346E+02</pdfrwt>
<pdfrwt beam="2">  1       -2 0.22509866E-03 0.93566346E+02</pdfrwt>
<totfact> 0.22063037E+05</totfact>
</mgrwt>
</event>
<event>
 5    1  0.3858846E+001  0.9176200E+02  0.7546771E-02  0.1298640E+00
         -1   -1    0    0    0  501 -0.00000000000E+00  0.00000000000E+00  0.21403347523E+01  0.21403347523E+01  0.00000000000E+00 0.  1.
          1   -1    0    0  501    0  0.00000000000E+00 -0.00000000000E+00 -0.98352199343E+03  0.98352199343E+03  0.00000000000E+00 0. -1.
         23    2    1    2    0    0  0.00000000000E+00  0.00000000000E+00 -0.98138165868E+03  0.98566232818E+03  0.91762003077E+02 0.  0.
          2    1    3    3  502    0  0.42379643039E+00 -0.36763512656E+02 -0.78551164633E+03  0.78637159281E+03  0.00000000000E+00 0. -1.
         -2    1    3    3    0  502 -0.42379643039E+00  0.36763512656E+02 -0.19587001235E+03  0.19929073537E+03  0.00000000000E+00 0.  1.
<mgrwt>
<rscale>  0 0.91762003E+02</rscale>
<asrwt>0</asrwt>
<pdfrwt beam="2">  1        1 0.15131115E+00 0.91762003E+02</pdfrwt>
<pdfrwt beam="1">  1       -1 0.32928212E-03 0.91762003E+02</pdfrwt>
<totfact> 0.13430795E+05</totfact>
</mgrwt>
</event>
<event>
 5    1  0.3858846E+001  0.9121870E+02  0.7546771E-02  0.1299927E+00
         -2   -1    0    0    0  501 -0.00000000000E+00  0.00000000000E+00  0.49371799890E+01  0.49371799890E+01  0.00000000000E+00 0. -1.
          2   -1    0    0  501    0  0.00000000000E+00 -0.00000000000E+00 -0.42133625413E+03  0.42133625413E+03  0.00000000000E+00 0.  1.
         23    2    1    2    0    0  0.00000000000E+00  0.00000000000E+00 -0.41639907414E+03  0.42627343412E+03  0.91218702524E+02 0.  0.
          2    1    3    3  502    0  0.28658666270E+02 -0.26857173812E+02 -0.99849679160E+02  0.10729671647E+03  0.00000000000E+00 0. -1.
         -2    1    3    3    0  502 -0.28658666270E+02  0.26857173812E+02 -0.31654939498E+03  0.31897671764E+03  0.00000000000E+00 0.  1.
<mgrwt>
<rscale>  0 0.91218703E+02</rscale>
<asrwt>0</asrwt>
<pdfrwt beam="2">  1        2 0.64820968E-01 0.91218703E+02</pdfrwt>
<pdfrwt beam="1">  1       -2 0.75956608E-03 0.91218703E+02</pdfrwt>
<totfact> 0.20309057E+05</totfact>
</mgrwt>
</event>
<event>
 5    1  0.3858846E+001  0.9107195E+02  0.7546771E-02  0.1300276E+00
          1   -1    0    0  501    0  0.00000000000E+00  0.00000000000E+00  0.83468270542E+01  0.83468270542E+01  0.00000000000E+00 0. -1.
         -1   -1    0    0    0  501 -0.00000000000E+00 -0.00000000000E+00 -0.24842072971E+03  0.24842072971E+03  0.00000000000E+00 0.  1.
         23    2    1    2    0    0  0.00000000000E+00  0.00000000000E+00 -0.24007390266E+03  0.25676755676E+03  0.91071946670E+02 0.  0.
          2    1    3    3  502    0 -0.17159427469E+02 -0.35156927069E+02 -0.54334254884E+02  0.66952720077E+02  0.00000000000E+00 0. -1.
         -2    1    3    3    0  502  0.17159427469E+02  0.35156927069E+02 -0.18573964777E+03  0.18981483669E+03  0.00000000000E+00 0.  1.
<mgrwt>
<rscale>  0 0.91071947E+02</rscale>
<asrwt>0</asrwt>
<pdfrwt beam="1">  1        1 0.12841274E-02 0.91071947E+02</pdfrwt>
<pdfrwt beam="2">  1       -1 0.38218569E-01 0.91071947E+02</pdfrwt>
<totfact> 0.65099378E+04</totfact>
</mgrwt>
</event>
<event>
 5    1  0.3858846E+001  0.9147843E+02  0.7546771E-02  0.1299310E+00
          2   -1    0    0  501    0  0.00000000000E+00  0.00000000000E+00  0.24235193999E+03  0.24235193999E+03  0.00000000000E+00 0. -1.
         -2   -1    0    0    0  501 -0.00000000000E+00 -0.00000000000E+00 -0.86323880355E+01  0.86323880355E+01  0.00000000000E+00 0.  1.
         23    2    1    2    0    0  0.00000000000E+00  0.00000000000E+00  0.23371955195E+03  0.25098432803E+03  0.91478434336E+02 0.  0.
          2    1    3    3  502    0  0.41230339993E+02 -0.45360000612E+01  0.63973594029E+02  0.76243930680E+02  0.00000000000E+00 0. -1.
         -2    1    3    3    0  502 -0.41230339993E+02  0.45360000612E+01  0.16974595793E+03  0.17474039735E+03  0.00000000000E+00 0.  1.
<mgrwt>
<rscale>  0 0.91478434E+02</rscale>
<asrwt>0</asrwt>
<pdfrwt beam="1">  1        2 0.37284909E-01 0.91478434E+02</pdfrwt>
<pdfrwt beam="2">  1       -2 0.13280599E-02 0.91478434E+02</pdfrwt>
<totfact> 0.16447983E+05</totfact>
</mgrwt>
</event>
<event>
 5    1  0.3858846E+001  0.9186909E+02  0.7546771E-02  0.1298388E+00
         -1   -1    0    0    0  501 -0.00000000000E+00  0.00000000000E+00  0.76317610704E+01  0.76317610704E+01  0.00000000000E+00 0.  1.
          1   -1    0    0  501    0  0.00000000000E+00 -0.00000000000E+00 -0.27647385600E+03  0.27647385600E+03  0.00000000000E+00 0. -1.
         23    2    1    2    0    0  0.00000000000E+00  0.00000000000E+00 -0.26884209492E+03  0.28410561707E+03  0.91869089713E+02 0.  0.
          2    1    3    3  502    0 -0.41201940589E+02  0.18320397649E+02 -0.16151279126E+03  0.16768905337E+03  0.00000000000E+00 0. -1.
         -2    1    3    3    0  502  0.41201940589E+02 -0.18320397649E+02 -0.10732930367E+03  0.11641656370E+03  0.00000000000E+00 0.  1.
<mgrwt>
<rscale>  0 0.91869090E+02</rscale>
<asrwt>0</asrwt>
<pdfrwt beam="2">  1        1 0.42534435E-01 0.91869090E+02</pdfrwt>
<pdfrwt beam="1">  1       -1 0.11741172E-02 0.91869090E+02</pdfrwt>
<totfact> 0.12360074E+05</totfact>
</mgrwt>
</event>
<event>
 5    1  0.3858846E+001  0.9076331E+02  0.7546771E-02  0.1301014E+00
         -1   -1    0    0    0  501 -0.00000000000E+00  0.00000000000E+00  0.29059460928E+02  0.29059460928E+02  0.00000000000E+00 0.  1.
          1   -1    0    0  501    0  0.00000000000E+00 -0.00000000000E+00 -0.70871737695E+02  0.70871737695E+02  0.00000000000E+00 0. -1.
         23    2    1    2    0    0  0.00000000000E+00  0.00000000000E+00 -0.41812276767E+02  0.99931198622E+02  0.90763307397E+02 0.  0.
          2    1    3    3  502    0 -0.59102028198E+01  0.28147154916E+02  0.17743844074E+02  0.33794035417E+02  0.00000000000E+00 0.  1.
         -2    1    3    3    0  502  0.59102028198E+01 -0.28147154916E+02 -0.59556120841E+02  0.66137163205E+02  0.00000000000E+00 0. -1.
<mgrwt>
<rscale>  0 0.90763307E+02</rscale>
<asrwt>0</asrwt>
<pdfrwt beam="2">  1        1 0.10903344E-01 0.90763307E+02</pdfrwt>
<pdfrwt beam="1">  1       -1 0.44706863E-02 0.90763307E+02</pdfrwt>
<totfact> 0.10010160E+05</totfact>
</mgrwt>
</event>
<event>
 5    1  0.3858846E+001  0.9081731E+02  0.7546771E-02  0.1300884E+00
         -2   -1    0    0    0  501 -0.00000000000E+00  0.00000000000E+00  0.95259706823E+02  0.95259706823E+02  0.00000000000E+00 0. -1.
          2   -1    0    0  501    0  0.00000000000E+00 -0.00000000000E+00 -0.21645519037E+02  0.21645519037E+02  0.00000000000E+00 0.  1.
         23    2    1    2    0    0  0.00000000000E+00  0.00000000000E+00  0.73614187786E+02  0.11690522586E+03  0.90817306666E+02 0.  0.
          2    1    3    3  502    0  0.77593399712E+01 -0.24816030850E+02  0.84728740599E+02  0.88628450440E+02  0.00000000000E+00 0. -1.
         -2    1    3    3    0  502 -0.77593399712E+01  0.24816030850E+02 -0.11114552813E+02  0.28276775421E+02  0.00000000000E+00 0.  1.
<mgrwt>
<rscale>  0 0.90817307E+02</rscale>
<asrwt>0</asrwt>
<pdfrwt beam="2">  1        2 0.33300799E-02 0.90817307E+02</pdfrwt>
<pdfrwt beam="1">  1       -2 0.14655339E-01 0.90817307E+02</pdfrwt>
<totfact> 0.81757886E+04</totfact>
</mgrwt>
</event>
<event>
 5    1  0.3858846E+001  0.9091799E+02  0.7546771E-02  0.1300644E+00
         -1   -1    0    0    0  501 -0.00000000000E+00  0.00000000000E+00  0.15807291529E+01  0.15807291529E+01  0.00000000000E+00 0.  1.
          1   -1    0    0  501    0  0.00000000000E+00 -0.00000000000E+00 -0.13073209796E+04  0.13073209796E+04  0.00000000000E+00 0. -1.
         23    2    1    2    0    0  0.00000000000E+00  0.00000000000E+00 -0.13057402505E+04  0.13089017088E+04  0.90917993481E+02 0.  0.
          2    1    3    3  502    0  0.43079467050E+02  0.14475881868E+02 -0.66816534036E+03  0.66970912618E+03  0.00000000000E+00 0. -1.
         -2    1    3    3    0  502 -0.43079467050E+02 -0.14475881868E+02 -0.63757491011E+03  0.63919258260E+03  0.00000000000E+00 0.  1.
<mgrwt>
<rscale>  0 0.90917993E+02</rscale>
<asrwt>0</asrwt>
<pdfrwt beam="2">  1        1 0.20112691E+00 0.90917993E+02</pdfrwt>
<pdfrwt beam="1">  1       -1 0.24318837E-03 0.90917993E+02</pdfrwt>
<totfact> 0.12258596E+05</totfact>
</mgrwt>
</event>
<event>
 5    1  0.3858846E+001  0.9553351E+02  0.7546771E-02  0.1289979E+00
         -1   -1    0    0    0  501 -0.00000000000E+00  0.00000000000E+00  0.38707722134E+02  0.38707722134E+02  0.00000000000E+00 0.  1.
          1   -1    0    0  501    0  0.00000000000E+00 -0.00000000000E+00 -0.58945935677E+02  0.58945935677E+02  0.00000000000E+00 0. -1.
         23    2    1    2    0    0  0.00000000000E+00  0.00000000000E+00 -0.20238213543E+02  0.97653657811E+02  0.95533510332E+02 0.  0.
          2    1    3    3  502    0  0.62165609199E+00  0.46671468184E+02 -0.20495772621E+02  0.50977339025E+02  0.00000000000E+00 0.  1.
         -2    1    3    3    0  502 -0.62165609199E+00 -0.46671468184E+02  0.25755907823E+00  0.46676318786E+02  0.00000000000E+00 0. -1.
<mgrwt>
<rscale>  0 0.95533510E+02</rscale>
<asrwt>0</asrwt>
<pdfrwt beam="2">  1        1 0.90686055E-02 0.95533510E+02</pdfrwt>
<pdfrwt beam="1">  1       -1 0.59550342E-02 0.95533510E+02</pdfrwt>
<totfact> 0.84385657E+04</totfact>
</mgrwt>
</event>
<event>
 5    1  0.3858846E+001  0.9061706E+02  0.7546771E-02  0.1301364E+00
         -2   -1    0    0    0  501 -0.00000000000E+00  0.00000000000E+00  0.57274509373E+01  0.57274509373E+01  0.00000000000E+00 0.  1.
          2   -1    0    0  501    0  0.00000000000E+00 -0.00000000000E+00 -0.35842519827E+03  0.35842519827E+03  0.00000000000E+00 0. -1.
         23    2    1    2    0    0  0.00000000000E+00  0.00000000000E+00 -0.35269774734E+03  0.36415264921E+03  0.90617056624E+02 0.  0.
          2    1    3    3  502    0  0.13470043200E+02  0.39106583526E+02 -0.25067600864E+03  0.25406540151E+03  0.00000000000E+00 0. -1.
         -2    1    3    3    0  502 -0.13470043200E+02 -0.39106583526E+02 -0.10202173870E+03  0.11008724770E+03  0.00000000000E+00 0.  1.
<mgrwt>
<rscale>  0 0.90617057E+02</rscale>
<asrwt>0</asrwt>
<pdfrwt beam="2">  1        2 0.55142336E-01 0.90617057E+02</pdfrwt>
<pdfrwt beam="1">  1       -2 0.88114633E-03 0.90617057E+02</pdfrwt>
<totfact> 0.19502264E+05</totfact>
</mgrwt>
</event>
<event>
 5    1  0.3858846E+001  0.1005777E+03  0.7546771E-02  0.1279086E+00
         -2   -1    0    0    0  501 -0.00000000000E+00  0.00000000000E+00  0.60578640683E+01  0.60578640683E+01  0.00000000000E+00 0.  1.
          2   -1    0    0  501    0  0.00000000000E+00 -0.00000000000E+00 -0.41746845124E+03  0.41746845124E+03  0.00000000000E+00 0. -1.
         23    2    1    2    0    0  0.00000000000E+00  0.00000000000E+00 -0.41141058717E+03  0.42352631530E+03  0.10057767407E+03 0.  0.
          2    1    3    3  502    0 -0.30957767869E+02  0.39542225407E+02 -0.21684332227E+03  0.22258256310E+03  0.00000000000E+00 0. -1.
         -2    1    3    3    0  502  0.30957767869E+02 -0.39542225407E+02 -0.19456726489E+03  0.20094375220E+03  0.00000000000E+00 0.  1.
<mgrwt>
<rscale>  0 0.10057767E+03</rscale>
<asrwt>0</asrwt>
<pdfrwt beam="2">  1        2 0.64225918E-01 0.10057767E+03</pdfrwt>
<pdfrwt beam="1">  1       -2 0.93197905E-03 0.10057767E+03</pdfrwt>
<totfact> 0.15599588E+05</totfact>
</mgrwt>
</event>
<event>
 5    1  0.3858846E+001  0.9099180E+02  0.7546771E-02  0.1300468E+00
          2   -1    0    0  501    0  0.00000000000E+00  0.00000000000E+00  0.23611444141E+01  0.23611444141E+01  0.00000000000E+00 0. -1.
         -2   -1    0    0    0  501 -0.00000000000E+00 -0.00000000000E+00 -0.87664133529E+03  0.87664133529E+03  0.00000000000E+00 0.  1.
         23    2    1    2    0    0  0.00000000000E+00  0.00000000000E+00 -0.87428019087E+03  0.87900247970E+03  0.90991797256E+02 0.  0.
          2    1    3    3  502    0 -0.22842839197E+02 -0.32997199107E+02 -0.64416384284E+03  0.64541278796E+03  0.00000000000E+00 0. -1.
         -2    1    3    3    0  502  0.22842839197E+02  0.32997199107E+02 -0.23011634804E+03  0.23358969174E+03  0.00000000000E+00 0.  1.
<mgrwt>
<rscale>  0 0.90991797E+02</rscale>
<asrwt>0</asrwt>
<pdfrwt beam="1">  1        2 0.36325256E-03 0.90991797E+02</pdfrwt>
<pdfrwt beam="2">  1       -2 0.13486806E+00 0.90991797E+02</pdfrwt>
<totfact> 0.21779704E+04</totfact>
</mgrwt>
</event>
<event>
 5    1  0.3858846E+001  0.9371006E+02  0.7546771E-02  0.1294108E+00
         -1   -1    0    0    0  501 -0.00000000000E+00  0.00000000000E+00  0.21094766237E+02  0.21094766237E+02  0.00000000000E+00 0.  1.
          1   -1    0    0  501    0  0.00000000000E+00 -0.00000000000E+00 -0.10407291768E+03  0.10407291768E+03  0.00000000000E+00 0. -1.
         23    2    1    2    0    0  0.00000000000E+00  0.00000000000E+00 -0.82978151442E+02  0.12516768392E+03  0.93710060721E+02 0.  0.
          2    1    3    3  502    0 -0.33978527136E+02  0.27223931904E+02 -0.64612780038E+02  0.77913375738E+02  0.00000000000E+00 0. -1.
         -2    1    3    3    0  502  0.33978527136E+02 -0.27223931904E+02 -0.18365371405E+02  0.47254308179E+02  0.00000000000E+00 0.  1.
<mgrwt>
<rscale>  0 0.93710061E+02</rscale>
<asrwt>0</asrwt>
<pdfrwt beam="2">  1        1 0.16011218E-01 0.93710061E+02</pdfrwt>
<pdfrwt beam="1">  1       -1 0.32453487E-02 0.93710061E+02</pdfrwt>
<totfact> 0.97570569E+04</totfact>
</mgrwt>
</event>
<event>
 5    1  0.3858846E+001  0.8668834E+02  0.7546771E-02  0.1311075E+00
         -1   -1    0    0    0  501 -0.00000000000E+00  0.00000000000E+00  0.23407244661E+01  0.23407244661E+01  0.00000000000E+00 0.  1.
          1   -1    0    0  501    0  0.00000000000E+00 -0.00000000000E+00 -0.80262198114E+03  0.80262198114E+03  0.00000000000E+00 0. -1.
         23    2    1    2    0    0  0.00000000000E+00  0.00000000000E+00 -0.80028125668E+03  0.80496270561E+03  0.86688336201E+02 0.  0.
          2    1    3    3  502    0  0.12797750951E+01 -0.42966919777E+02 -0.45177692912E+03  0.45381735060E+03  0.00000000000E+00 0. -1.
         -2    1    3    3    0  502 -0.12797750951E+01  0.42966919777E+02 -0.34850432756E+03  0.35114535501E+03  0.00000000000E+00 0.  1.
<mgrwt>
<rscale>  0 0.86688336E+02</rscale>
<asrwt>0</asrwt>
<pdfrwt beam="2">  1        1 0.12348039E+00 0.86688336E+02</pdfrwt>
<pdfrwt beam="1">  1       -1 0.36011121E-03 0.86688336E+02</pdfrwt>
<totfact> 0.16137298E+05</totfact>
</mgrwt>
</event>
<event>
 5    1  0.3858846E+001  0.9028309E+02  0.7546771E-02  0.1302168E+00
         -1   -1    0    0    0  501 -0.00000000000E+00  0.00000000000E+00  0.34179179265E+02  0.34179179265E+02  0.00000000000E+00 0.  1.
          1   -1    0    0  501    0  0.00000000000E+00 -0.00000000000E+00 -0.59619897571E+02  0.59619897571E+02  0.00000000000E+00 0. -1.
         23    2    1    2    0    0  0.00000000000E+00  0.00000000000E+00 -0.25440718306E+02  0.93799076836E+02  0.90283091814E+02 0.  0.
          2    1    3    3  502    0  0.32772822034E+02  0.61083608529E+01 -0.44342326765E+02  0.55476228055E+02  0.00000000000E+00 0. -1.
         -2    1    3    3    0  502 -0.32772822034E+02 -0.61083608529E+01  0.18901608458E+02  0.38322848781E+02  0.00000000000E+00 0.  1.
<mgrwt>
<rscale>  0 0.90283092E+02</rscale>
<asrwt>0</asrwt>
<pdfrwt beam="2">  1        1 0.91722918E-02 0.90283092E+02</pdfrwt>
<pdfrwt beam="1">  1       -1 0.52583353E-02 0.90283092E+02</pdfrwt>
<totfact> 0.98942427E+04</totfact>
</mgrwt>
</event>
<event>
 5    1  0.3858846E+001  0.9095379E+02  0.7546771E-02  0.1300558E+00
         -2   -1    0    0    0  501 -0.00000000000E+00  0.00000000000E+00  0.82649830773E+02  0.82649830773E+02  0.00000000000E+00 0.  1.
          2   -1    0    0  501    0  0.00000000000E+00 -0.00000000000E+00 -0.25023012739E+02  0.25023012739E+02  0.00000000000E+00 0. -1.
         23    2    1    2    0    0  0.00000000000E+00  0.00000000000E+00  0.57626818034E+02  0.10767284351E+03  0.90953785371E+02 0.  0.
          2    1    3    3  502    0  0.21599838968E+02  0.19568042487E+02 -0.12513354302E+02  0.31718218205E+02  0.00000000000E+00 0. -1.
         -2    1    3    3    0  502 -0.21599838968E+02 -0.19568042487E+02  0.70140172336E+02  0.75954625307E+02  0.00000000000E+00 0.  1.
<mgrwt>
<rscale>  0 0.90953785E+02</rscale>
<asrwt>0</asrwt>
<pdfrwt beam="2">  1        2 0.38496943E-02 0.90953785E+02</pdfrwt>
<pdfrwt beam="1">  1       -2 0.12715358E-01 0.90953785E+02</pdfrwt>
<totfact> 0.84823083E+04</totfact>
</mgrwt>
</event>
<event>
 5    1  0.3858846E+001  0.9240558E+02  0.7546771E-02  0.1297129E+00
         -1   -1    0    0    0  501 -0.00000000000E+00  0.00000000000E+00  0.62166092634E+01  0.62166092634E+01  0.00000000000E+00 0.  1.
          1   -1    0    0  501    0  0.00000000000E+00 -0.00000000000E+00 -0.34338618670E+03  0.34338618670E+03  0.00000000000E+00 0. -1.
         23    2    1    2    0    0  0.00000000000E+00  0.00000000000E+00 -0.33716957744E+03  0.34960279596E+03  0.92405578818E+02 0.  0.
          2    1    3    3  502    0 -0.14808129163E+02  0.42443966675E+02 -0.20896695055E+03  0.21374741500E+03  0.00000000000E+00 0. -1.
         -2    1    3    3    0  502  0.14808129163E+02 -0.42443966675E+02 -0.12820262688E+03  0.13585538096E+03  0.00000000000E+00 0.  1.
<mgrwt>
<rscale>  0 0.92405579E+02</rscale>
<asrwt>0</asrwt>
<pdfrwt beam="2">  1        1 0.52828671E-01 0.92405579E+02</pdfrwt>
<pdfrwt beam="1">  1       -1 0.95640094E-03 0.92405579E+02</pdfrwt>
<totfact> 0.12678066E+05</totfact>
</mgrwt>
</event>
<event>
 5    1  0.3858846E+001  0.9130128E+02  0.7546771E-02  0.1299731E+00
          1   -1    0    0  501    0  0.00000000000E+00  0.00000000000E+00  0.23288833370E+04  0.23288833370E+04  0.00000000000E+00 0. -1.
         -1   -1    0    0    0  501 -0.00000000000E+00 -0.00000000000E+00 -0.89484122973E+00  0.89484122973E+00  0.00000000000E+00 0.  1.
         23    2    1    2    0    0  0.00000000000E+00  0.00000000000E+00  0.23279884957E+04  0.23297781782E+04  0.91301277738E+02 0.  0.
          2    1    3    3  502    0  0.43998210702E+02 -0.83563830588E+01  0.13898046595E+04  0.13905260384E+04  0.00000000000E+00 0. -1.
         -2    1    3    3    0  502 -0.43998210702E+02  0.83563830588E+01  0.93818383619E+03  0.93925213982E+03  0.00000000000E+00 0.  1.
<mgrwt>
<rscale>  0 0.91301278E+02</rscale>
<asrwt>0</asrwt>
<pdfrwt beam="1">  1        1 0.35828489E+00 0.91301278E+02</pdfrwt>
<pdfrwt beam="2">  1       -1 0.13766975E-03 0.91301278E+02</pdfrwt>
<totfact> 0.60812990E+04</totfact>
</mgrwt>
</event>
<event>
 5    1  0.3858846E+001  0.7656219E+02  0.7546771E-02  0.1339101E+00
          1   -1    0    0  501    0  0.00000000000E+00  0.00000000000E+00  0.10284863589E+03  0.10284863589E+03  0.00000000000E+00 0. -1.
         -1   -1    0    0    0  501 -0.00000000000E+00 -0.00000000000E+00 -0.14248532118E+02  0.14248532118E+02  0.00000000000E+00 0.  1.
         23    2    1    2    0    0  0.00000000000E+00  0.00000000000E+00  0.88600103773E+02  0.11709716801E+03  0.76562186274E+02 0.  0.
          2    1    3    3  502    0  0.38141516850E+02 -0.30027350076E+01  0.46264869676E+02  0.60035238746E+02  0.00000000000E+00 0. -1.
         -2    1    3    3    0  502 -0.38141516850E+02  0.30027350076E+01  0.42335234097E+02  0.57061929262E+02  0.00000000000E+00 0.  1.
<mgrwt>
<rscale>  0 0.76562186E+02</rscale>
<asrwt>0</asrwt>
<pdfrwt beam="1">  1        1 0.15822867E-01 0.76562186E+02</pdfrwt>
<pdfrwt beam="2">  1       -1 0.21920819E-02 0.76562186E+02</pdfrwt>
<totfact> 0.16796970E+05</totfact>
</mgrwt>
</event>
<event>
 5    1  0.3858846E+001  0.9180462E+02  0.7546771E-02  0.1298539E+00
          1   -1    0    0  501    0  0.00000000000E+00  0.00000000000E+00  0.25330433187E+03  0.25330433187E+03  0.00000000000E+00 0. -1.
         -1   -1    0    0    0  501 -0.00000000000E+00 -0.00000000000E+00 -0.83181452929E+01  0.83181452929E+01  0.00000000000E+00 0.  1.
         23    2    1    2    0    0  0.00000000000E+00  0.00000000000E+00  0.24498618658E+03  0.26162247717E+03  0.91804623758E+02 0.  0.
          2    1    3    3  502    0  0.13974227411E+02 -0.41456982661E+02  0.16208976343E+03  0.16788999926E+03  0.00000000000E+00 0. -1.
         -2    1    3    3    0  502 -0.13974227411E+02  0.41456982661E+02  0.82896423152E+02  0.93732477907E+02  0.00000000000E+00 0.  1.
<mgrwt>
<rscale>  0 0.91804624E+02</rscale>
<asrwt>0</asrwt>
<pdfrwt beam="1">  1        1 0.38969891E-01 0.91804624E+02</pdfrwt>
<pdfrwt beam="2">  1       -1 0.12797148E-02 0.91804624E+02</pdfrwt>
<totfact> 0.12173243E+05</totfact>
</mgrwt>
</event>
<event>
 5    1  0.3858846E+001  0.9811224E+02  0.7546771E-02  0.1284316E+00
          1   -1    0    0  501    0  0.00000000000E+00  0.00000000000E+00  0.13665166668E+04  0.13665166668E+04  0.00000000000E+00 0.  1.
         -1   -1    0    0    0  501 -0.00000000000E+00 -0.00000000000E+00 -0.17610492394E+01  0.17610492394E+01  0.00000000000E+00 0. -1.
         23    2    1    2    0    0  0.00000000000E+00  0.00000000000E+00  0.13647556175E+04  0.13682777160E+04  0.98112244632E+02 0.  0.
          2    1    3    3  502    0 -0.37196689412E+02 -0.22074380214E+02  0.35961464490E+03  0.36220652229E+03  0.00000000000E+00 0. -1.
         -2    1    3    3    0  502  0.37196689412E+02  0.22074380214E+02  0.10051409726E+04  0.10060711937E+04  0.00000000000E+00 0.  1.
<mgrwt>
<rscale>  0 0.98112245E+02</rscale>
<asrwt>0</asrwt>
<pdfrwt beam="1">  1        1 0.21023249E+00 0.98112245E+02</pdfrwt>
<pdfrwt beam="2">  1       -1 0.27093174E-03 0.98112245E+02</pdfrwt>
<totfact> 0.97423871E+04</totfact>
</mgrwt>
</event>
<event>
 5    1  0.3858846E+001  0.9024179E+02  0.7546771E-02  0.1302267E+00
         -1   -1    0    0    0  501 -0.00000000000E+00  0.00000000000E+00  0.48870532807E+03  0.48870532807E+03  0.00000000000E+00 0.  1.
          1   -1    0    0  501    0  0.00000000000E+00 -0.00000000000E+00 -0.41658955205E+01  0.41658955205E+01  0.00000000000E+00 0. -1.
         23    2    1    2    0    0  0.00000000000E+00  0.00000000000E+00  0.48453943255E+03  0.49287122360E+03  0.90241793801E+02 0.  0.
          2    1    3    3  502    0 -0.19777878846E+02 -0.40041083477E+02  0.27742969539E+03  0.28100122551E+03  0.00000000000E+00 0. -1.
         -2    1    3    3    0  502  0.19777878846E+02  0.40041083477E+02  0.20710973717E+03  0.21186999808E+03  0.00000000000E+00 0.  1.
<mgrwt>
<rscale>  0 0.90241794E+02</rscale>
<asrwt>0</asrwt>
<pdfrwt beam="2">  1        1 0.64090739E-03 0.90241794E+02</pdfrwt>
<pdfrwt beam="1">  1       -1 0.75185390E-01 0.90241794E+02</pdfrwt>
<totfact> 0.49009719E+04</totfact>
</mgrwt>
</event>
<event>
 5    1  0.3858846E+001  0.8943987E+02  0.7546771E-02  0.1304214E+00
         -4   -1    0    0    0  501 -0.00000000000E+00  0.00000000000E+00  0.60624222557E+02  0.60624222557E+02  0.00000000000E+00 0.  1.
          4   -1    0    0  501    0  0.00000000000E+00 -0.00000000000E+00 -0.32988015128E+02  0.32988015128E+02  0.00000000000E+00 0. -1.
         23    2    1    2    0    0  0.00000000000E+00  0.00000000000E+00  0.27636207429E+02  0.93612237685E+02  0.89439874124E+02 0.  0.
          2    1    3    3  502    0  0.10730479346E+02  0.43404532062E+02  0.14740213786E+02  0.47078344204E+02  0.00000000000E+00 0. -1.
         -2    1    3    3    0  502 -0.10730479346E+02 -0.43404532062E+02  0.12895993643E+02  0.46533893481E+02  0.00000000000E+00 0.  1.
<mgrwt>
<rscale>  0 0.89439874E+02</rscale>
<asrwt>0</asrwt>
<pdfrwt beam="2">  1        4 0.50750793E-02 0.89439874E+02</pdfrwt>
<pdfrwt beam="1">  1       -4 0.93268034E-02 0.89439874E+02</pdfrwt>
<totfact> 0.28294499E+04</totfact>
</mgrwt>
</event>
<event>
 5    1  0.3858846E+001  0.9178189E+02  0.7546771E-02  0.1298593E+00
          3   -1    0    0  501    0  0.00000000000E+00  0.00000000000E+00  0.33749020283E+02  0.33749020283E+02  0.00000000000E+00 0.  1.
         -3   -1    0    0    0  501 -0.00000000000E+00 -0.00000000000E+00 -0.62401178342E+02  0.62401178342E+02  0.00000000000E+00 0. -1.
         23    2    1    2    0    0  0.00000000000E+00  0.00000000000E+00 -0.28652158059E+02  0.96150198625E+02  0.91781885654E+02 0.  0.
          2    1    3    3  502    0 -0.38501357447E+02  0.21585598403E+02 -0.27481048567E+02  0.51995197990E+02  0.00000000000E+00 0. -1.
         -2    1    3    3    0  502  0.38501357447E+02 -0.21585598403E+02 -0.11711094926E+01  0.44155000636E+02  0.00000000000E+00 0.  1.
<mgrwt>
<rscale>  0 0.91781886E+02</rscale>
<asrwt>0</asrwt>
<pdfrwt beam="1">  1        3 0.51921570E-02 0.91781886E+02</pdfrwt>
<pdfrwt beam="2">  1       -3 0.96001812E-02 0.91781886E+02</pdfrwt>
<totfact> 0.34334955E+04</totfact>
</mgrwt>
</event>
<event>
 5    1  0.3858846E+001  0.9244809E+02  0.7546771E-02  0.1297029E+00
         -2   -1    0    0    0  501 -0.00000000000E+00  0.00000000000E+00  0.41529556712E+02  0.41529556712E+02  0.00000000000E+00 0.  1.
          2   -1    0    0  501    0  0.00000000000E+00 -0.00000000000E+00 -0.51449193320E+02  0.51449193320E+02  0.00000000000E+00 0. -1.
         23    2    1    2    0    0  0.00000000000E+00  0.00000000000E+00 -0.99196366079E+01  0.92978750032E+02  0.92448086876E+02 0.  0.
          2    1    3    3  502    0 -0.36998960797E+02  0.24238901978E+02  0.85416471312E+01  0.45048942328E+02  0.00000000000E+00 0.  1.
         -2    1    3    3    0  502  0.36998960797E+02 -0.24238901978E+02 -0.18461283739E+02  0.47929807704E+02  0.00000000000E+00 0. -1.
<mgrwt>
<rscale>  0 0.92448087E+02</rscale>
<asrwt>0</asrwt>
<pdfrwt beam="2">  1        2 0.79152605E-02 0.92448087E+02</pdfrwt>
<pdfrwt beam="1">  1       -2 0.63891626E-02 0.92448087E+02</pdfrwt>
<totfact> 0.97890923E+04</totfact>
</mgrwt>
</event>
<event>
 5    1  0.3858846E+001  0.9058568E+02  0.7546771E-02  0.1301440E+00
         -1   -1    0    0    0  501 -0.00000000000E+00  0.00000000000E+00  0.12268212580E+01  0.12268212580E+01  0.00000000000E+00 0.  1.
          1   -1    0    0  501    0  0.00000000000E+00 -0.00000000000E+00 -0.16721600749E+04  0.16721600749E+04  0.00000000000E+00 0. -1.
         23    2    1    2    0    0  0.00000000000E+00  0.00000000000E+00 -0.16709332536E+04  0.16733868961E+04  0.90585683785E+02 0.  0.
          2    1    3    3  502    0 -0.34203549514E+02 -0.37391018122E+01 -0.13795820338E+04  0.13800110331E+04  0.00000000000E+00 0. -1.
         -2    1    3    3    0  502  0.34203549514E+02  0.37391018122E+01 -0.29135121983E+03  0.29337586298E+03  0.00000000000E+00 0.  1.
<mgrwt>
<rscale>  0 0.90585684E+02</rscale>
<asrwt>0</asrwt>
<pdfrwt beam="2">  1        1 0.25725555E+00 0.90585684E+02</pdfrwt>
<pdfrwt beam="1">  1       -1 0.18874162E-03 0.90585684E+02</pdfrwt>
<totfact> 0.10166872E+05</totfact>
</mgrwt>
</event>
<event>
 5    1  0.3858846E+001  0.9209649E+02  0.7546771E-02  0.1297853E+00
         -2   -1    0    0    0  501 -0.00000000000E+00  0.00000000000E+00  0.16227727028E+01  0.16227727028E+01  0.00000000000E+00 0.  1.
          2   -1    0    0  501    0  0.00000000000E+00 -0.00000000000E+00 -0.13066778180E+04  0.13066778180E+04  0.00000000000E+00 0. -1.
         23    2    1    2    0    0  0.00000000000E+00  0.00000000000E+00 -0.13050550453E+04  0.13083005907E+04  0.92096494925E+02 0.  0.
          2    1    3    3  502    0  0.31899102486E+02  0.76294959182E+01 -0.11116789075E+04  0.11121626479E+04  0.00000000000E+00 0. -1.
         -2    1    3    3    0  502 -0.31899102486E+02 -0.76294959182E+01 -0.19337613778E+03  0.19613794281E+03  0.00000000000E+00 0.  1.
<mgrwt>
<rscale>  0 0.92096495E+02</rscale>
<asrwt>0</asrwt>
<pdfrwt beam="2">  1        2 0.20102744E+00 0.92096495E+02</pdfrwt>
<pdfrwt beam="1">  1       -2 0.24965723E-03 0.92096495E+02</pdfrwt>
<totfact> 0.23904254E+05</totfact>
</mgrwt>
</event>
<event>
 5    1  0.3858846E+001  0.9276170E+02  0.7546771E-02  0.1296298E+00
          1   -1    0    0  501    0  0.00000000000E+00  0.00000000000E+00  0.44847895079E+03  0.44847895079E+03  0.00000000000E+00 0. -1.
         -1   -1    0    0    0  501 -0.00000000000E+00 -0.00000000000E+00 -0.47966202780E+01  0.47966202780E+01  0.00000000000E+00 0.  1.
         23    2    1    2    0    0  0.00000000000E+00  0.00000000000E+00  0.44368233051E+03  0.45327557107E+03  0.92761699631E+02 0.  0.
          2    1    3    3  502    0 -0.85504381116E+01  0.18941943779E+02  0.42445375010E+03  0.42496222562E+03  0.00000000000E+00 0. -1.
         -2    1    3    3    0  502  0.85504381116E+01 -0.18941943779E+02  0.19228580411E+02  0.28313345451E+02  0.00000000000E+00 0.  1.
<mgrwt>
<rscale>  0 0.92761700E+02</rscale>
<asrwt>0</asrwt>
<pdfrwt beam="1">  1        1 0.68996728E-01 0.92761700E+02</pdfrwt>
<pdfrwt beam="2">  1       -1 0.73794194E-03 0.92761700E+02</pdfrwt>
<totfact> 0.13114897E+05</totfact>
</mgrwt>
</event>
<event>
 5    1  0.3858846E+001  0.9167360E+02  0.7546771E-02  0.1298849E+00
         -3   -1    0    0    0  501 -0.00000000000E+00  0.00000000000E+00  0.28821424492E+02  0.28821424492E+02  0.00000000000E+00 0.  1.
          3   -1    0    0  501    0  0.00000000000E+00 -0.00000000000E+00 -0.72897583957E+02  0.72897583957E+02  0.00000000000E+00 0. -1.
         23    2    1    2    0    0  0.00000000000E+00  0.00000000000E+00 -0.44076159465E+02  0.10171900845E+03  0.91673599508E+02 0.  0.
          2    1    3    3  502    0  0.28606229878E+02  0.10061827839E+02  0.16100674932E+02  0.34333489490E+02  0.00000000000E+00 0.  1.
         -2    1    3    3    0  502 -0.28606229878E+02 -0.10061827839E+02 -0.60176834397E+02  0.67385518959E+02  0.00000000000E+00 0. -1.
<mgrwt>
<rscale>  0 0.91673600E+02</rscale>
<asrwt>0</asrwt>
<pdfrwt beam="2">  1        3 0.11215013E-01 0.91673600E+02</pdfrwt>
<pdfrwt beam="1">  1       -3 0.44340653E-02 0.91673600E+02</pdfrwt>
<totfact> 0.34036065E+04</totfact>
</mgrwt>
</event>
<event>
 5    1  0.3858846E+001  0.9080887E+02  0.7546771E-02  0.1300905E+00
          3   -1    0    0  501    0  0.00000000000E+00  0.00000000000E+00  0.76159062204E+03  0.76159062204E+03  0.00000000000E+00 0. -1.
         -3   -1    0    0    0  501 -0.00000000000E+00 -0.00000000000E+00 -0.27069171611E+01  0.27069171611E+01  0.00000000000E+00 0.  1.
         23    2    1    2    0    0  0.00000000000E+00  0.00000000000E+00  0.75888370488E+03  0.76429753920E+03  0.90808870151E+02 0.  0.
          2    1    3    3  502    0 -0.33337071096E+02  0.16122444884E+02  0.60056969692E+03  0.60171027446E+03  0.00000000000E+00 0. -1.
         -2    1    3    3    0  502  0.33337071096E+02 -0.16122444884E+02  0.15831400796E+03  0.16258726474E+03  0.00000000000E+00 0.  1.
<mgrwt>
<rscale>  0 0.90808870E+02</rscale>
<asrwt>0</asrwt>
<pdfrwt beam="1">  1        3 0.11716762E+00 0.90808870E+02</pdfrwt>
<pdfrwt beam="2">  1       -3 0.41644940E-03 0.90808870E+02</pdfrwt>
<totfact> 0.13061698E+04</totfact>
</mgrwt>
</event>
<event>
 5    1  0.3858846E+001  0.8910624E+02  0.7546771E-02  0.1305031E+00
          2   -1    0    0  501    0  0.00000000000E+00  0.00000000000E+00  0.89242051959E+03  0.89242051959E+03  0.00000000000E+00 0. -1.
         -2   -1    0    0    0  501 -0.00000000000E+00 -0.00000000000E+00 -0.22242656788E+01  0.22242656788E+01  0.00000000000E+00 0.  1.
         23    2    1    2    0    0  0.00000000000E+00  0.00000000000E+00  0.89019625392E+03  0.89464478527E+03  0.89106236207E+02 0.  0.
          2    1    3    3  502    0  0.21892947882E+01 -0.35672536087E+02  0.71218595045E+03  0.71308214875E+03  0.00000000000E+00 0. -1.
         -2    1    3    3    0  502 -0.21892947882E+01  0.35672536087E+02  0.17801030346E+03  0.18156263652E+03  0.00000000000E+00 0.  1.
<mgrwt>
<rscale>  0 0.89106236E+02</rscale>
<asrwt>0</asrwt>
<pdfrwt beam="1">  1        2 0.13729518E+00 0.89106236E+02</pdfrwt>
<pdfrwt beam="2">  1       -2 0.34219543E-03 0.89106236E+02</pdfrwt>
<totfact> 0.26313119E+05</totfact>
</mgrwt>
</event>
<event>
 5    1  0.3858846E+001  0.9749349E+02  0.7546771E-02  0.1285657E+00
          2   -1    0    0  501    0  0.00000000000E+00  0.00000000000E+00  0.21305739988E+03  0.21305739988E+03  0.00000000000E+00 0. -1.
         -2   -1    0    0    0  501 -0.00000000000E+00 -0.00000000000E+00 -0.11153074027E+02  0.11153074027E+02  0.00000000000E+00 0.  1.
         23    2    1    2    0    0  0.00000000000E+00  0.00000000000E+00  0.20190432586E+03  0.22421047391E+03  0.97493485996E+02 0.  0.
          2    1    3    3  502    0 -0.42692424407E+02 -0.74000104795E+01  0.15231649805E+03  0.15835946083E+03  0.00000000000E+00 0. -1.
         -2    1    3    3    0  502  0.42692424407E+02  0.74000104795E+01  0.49587827806E+02  0.65851013077E+02  0.00000000000E+00 0.  1.
<mgrwt>
<rscale>  0 0.97493486E+02</rscale>
<asrwt>0</asrwt>
<pdfrwt beam="1">  1        2 0.32778058E-01 0.97493486E+02</pdfrwt>
<pdfrwt beam="2">  1       -2 0.17158577E-02 0.97493486E+02</pdfrwt>
<totfact> 0.13208365E+05</totfact>
</mgrwt>
</event>
<event>
 5    1  0.3858846E+001  0.9042220E+02  0.7546771E-02  0.1301832E+00
          1   -1    0    0  501    0  0.00000000000E+00  0.00000000000E+00  0.78017865755E+03  0.78017865755E+03  0.00000000000E+00 0. -1.
         -1   -1    0    0    0  501 -0.00000000000E+00 -0.00000000000E+00 -0.26199683151E+01  0.26199683151E+01  0.00000000000E+00 0.  1.
         23    2    1    2    0    0  0.00000000000E+00  0.00000000000E+00  0.77755868924E+03  0.78279862587E+03  0.90422195569E+02 0.  0.
          2    1    3    3  502    0 -0.39593085864E+02  0.13497948517E+02  0.24028048030E+03  0.24389447775E+03  0.00000000000E+00 0.  1.
         -2    1    3    3    0  502  0.39593085864E+02 -0.13497948517E+02  0.53727820894E+03  0.53890414812E+03  0.00000000000E+00 0. -1.
<mgrwt>
<rscale>  0 0.90422196E+02</rscale>
<asrwt>0</asrwt>
<pdfrwt beam="1">  1        1 0.12002730E+00 0.90422196E+02</pdfrwt>
<pdfrwt beam="2">  1       -1 0.40307267E-03 0.90422196E+02</pdfrwt>
<totfact> 0.14472387E+05</totfact>
</mgrwt>
</event>
<event>
 5    1  0.3858846E+001  0.9143366E+02  0.7546771E-02  0.1299417E+00
         -2   -1    0    0    0  501 -0.00000000000E+00  0.00000000000E+00  0.10463170759E+02  0.10463170759E+02  0.00000000000E+00 0.  1.
          2   -1    0    0  501    0  0.00000000000E+00 -0.00000000000E+00 -0.19975098817E+03  0.19975098817E+03  0.00000000000E+00 0. -1.
         23    2    1    2    0    0  0.00000000000E+00  0.00000000000E+00 -0.18928781742E+03  0.21021415893E+03  0.91433663351E+02 0.  0.
          2    1    3    3  502    0  0.15011954482E+02  0.30129736985E+02 -0.23525495670E+02  0.41068342730E+02  0.00000000000E+00 0.  1.
         -2    1    3    3    0  502 -0.15011954482E+02 -0.30129736985E+02 -0.16576232175E+03  0.16914581620E+03  0.00000000000E+00 0. -1.
<mgrwt>
<rscale>  0 0.91433663E+02</rscale>
<asrwt>0</asrwt>
<pdfrwt beam="2">  1        2 0.30730919E-01 0.91433663E+02</pdfrwt>
<pdfrwt beam="1">  1       -2 0.16097187E-02 0.91433663E+02</pdfrwt>
<totfact> 0.15344236E+05</totfact>
</mgrwt>
</event>
<event>
 5    1  0.3858846E+001  0.8891490E+02  0.7546771E-02  0.1305501E+00
          1   -1    0    0  501    0  0.00000000000E+00  0.00000000000E+00  0.21795864075E+04  0.21795864075E+04  0.00000000000E+00 0. -1.
         -1   -1    0    0    0  501 -0.00000000000E+00 -0.00000000000E+00 -0.90680735568E+00  0.90680735568E+00  0.00000000000E+00 0.  1.
         23    2    1    2    0    0  0.00000000000E+00  0.00000000000E+00  0.21786796001E+04  0.21804932148E+04  0.88914902837E+02 0.  0.
          2    1    3    3  502    0  0.21910458477E+02  0.29569013598E+02  0.17009854491E+04  0.17013835231E+04  0.00000000000E+00 0. -1.
         -2    1    3    3    0  502 -0.21910458477E+02 -0.29569013598E+02  0.47769415106E+03  0.47910969174E+03  0.00000000000E+00 0.  1.
<mgrwt>
<rscale>  0 0.88914903E+02</rscale>
<asrwt>0</asrwt>
<pdfrwt beam="1">  1        1 0.33531679E+00 0.88914903E+02</pdfrwt>
<pdfrwt beam="2">  1       -1 0.13951057E-03 0.88914903E+02</pdfrwt>
<totfact> 0.74028135E+04</totfact>
</mgrwt>
</event>
<event>
 5    1  0.3858846E+001  0.9005348E+02  0.7546771E-02  0.1302722E+00
          4   -1    0    0  501    0  0.00000000000E+00  0.00000000000E+00  0.51901121222E+02  0.51901121222E+02  0.00000000000E+00 0. -1.
         -4   -1    0    0    0  501 -0.00000000000E+00 -0.00000000000E+00 -0.39062883739E+02  0.39062883739E+02  0.00000000000E+00 0.  1.
         23    2    1    2    0    0  0.00000000000E+00  0.00000000000E+00  0.12838237483E+02  0.90964004961E+02  0.90053483313E+02 0.  0.
          2    1    3    3  502    0  0.25094195120E+02  0.33159324282E+02  0.23860667349E+02  0.47943621702E+02  0.00000000000E+00 0. -1.
         -2    1    3    3    0  502 -0.25094195120E+02 -0.33159324282E+02 -0.11022429867E+02  0.43020383259E+02  0.00000000000E+00 0.  1.
<mgrwt>
<rscale>  0 0.90053483E+02</rscale>
<asrwt>0</asrwt>
<pdfrwt beam="1">  1        4 0.79847879E-02 0.90053483E+02</pdfrwt>
<pdfrwt beam="2">  1       -4 0.60096744E-02 0.90053483E+02</pdfrwt>
<totfact> 0.27953138E+04</totfact>
</mgrwt>
</event>
<event>
 5    1  0.3858846E+001  0.9143134E+02  0.7546771E-02  0.1299422E+00
         -1   -1    0    0    0  501 -0.00000000000E+00  0.00000000000E+00  0.41375275029E+01  0.41375275029E+01  0.00000000000E+00 0.  1.
          1   -1    0    0  501    0  0.00000000000E+00 -0.00000000000E+00 -0.50511380545E+03  0.50511380545E+03  0.00000000000E+00 0. -1.
         23    2    1    2    0    0  0.00000000000E+00  0.00000000000E+00 -0.50097627795E+03  0.50925133295E+03  0.91431335157E+02 0.  0.
          2    1    3    3  502    0  0.38953524216E+02 -0.11697306545E+02 -0.36675072520E+03  0.36899904941E+03  0.00000000000E+00 0. -1.
         -2    1    3    3    0  502 -0.38953524216E+02  0.11697306545E+02 -0.13422555275E+03  0.14025228354E+03  0.00000000000E+00 0.  1.
<mgrwt>
<rscale>  0 0.91431335E+02</rscale>
<asrwt>0</asrwt>
<pdfrwt beam="2">  1        1 0.77709848E-01 0.91431335E+02</pdfrwt>
<pdfrwt beam="1">  1       -1 0.63654243E-03 0.91431335E+02</pdfrwt>
<totfact> 0.13840403E+05</totfact>
</mgrwt>
</event>
<event>
 5    1  0.3858846E+001  0.9231323E+02  0.7546771E-02  0.1297345E+00
         -2   -1    0    0    0  501 -0.00000000000E+00  0.00000000000E+00  0.21019362077E+01  0.21019362077E+01  0.00000000000E+00 0.  1.
          2   -1    0    0  501    0  0.00000000000E+00 -0.00000000000E+00 -0.10135574916E+04  0.10135574916E+04  0.00000000000E+00 0. -1.
         23    2    1    2    0    0  0.00000000000E+00  0.00000000000E+00 -0.10114555554E+04  0.10156594278E+04  0.92313231775E+02 0.  0.
          2    1    3    3  502    0 -0.38679754633E+02  0.20376404858E+02 -0.66858878932E+03  0.67001663449E+03  0.00000000000E+00 0. -1.
         -2    1    3    3    0  502  0.38679754633E+02 -0.20376404858E+02 -0.34286676610E+03  0.34564279334E+03  0.00000000000E+00 0.  1.
<mgrwt>
<rscale>  0 0.92313232E+02</rscale>
<asrwt>0</asrwt>
<pdfrwt beam="2">  1        2 0.15593202E+00 0.92313232E+02</pdfrwt>
<pdfrwt beam="1">  1       -2 0.32337459E-03 0.92313232E+02</pdfrwt>
<totfact> 0.24211267E+05</totfact>
</mgrwt>
</event>
<event>
 5    1  0.3858846E+001  0.9443915E+02  0.7546771E-02  0.1292444E+00
          2   -1    0    0  501    0  0.00000000000E+00  0.00000000000E+00  0.78752163609E+03  0.78752163609E+03  0.00000000000E+00 0. -1.
         -2   -1    0    0    0  501 -0.00000000000E+00 -0.00000000000E+00 -0.28312721178E+01  0.28312721178E+01  0.00000000000E+00 0.  1.
         23    2    1    2    0    0  0.00000000000E+00  0.00000000000E+00  0.78469036397E+03  0.79035290821E+03  0.94439145494E+02 0.  0.
          2    1    3    3  502    0  0.26967297181E+02  0.23543952459E+02  0.65003908905E+03  0.65102409334E+03  0.00000000000E+00 0. -1.
         -2    1    3    3    0  502 -0.26967297181E+02 -0.23543952459E+02  0.13465127492E+03  0.13932881487E+03  0.00000000000E+00 0.  1.
<mgrwt>
<rscale>  0 0.94439145E+02</rscale>
<asrwt>0</asrwt>
<pdfrwt beam="1">  1        2 0.12115700E+00 0.94439145E+02</pdfrwt>
<pdfrwt beam="2">  1       -2 0.43558095E-03 0.94439145E+02</pdfrwt>
<totfact> 0.22150598E+05</totfact>
</mgrwt>
</event>
<event>
 5    1  0.3858846E+001  0.7767436E+02  0.7546771E-02  0.1335784E+00
         -1   -1    0    0    0  501 -0.00000000000E+00  0.00000000000E+00  0.12436448409E+02  0.12436448409E+02  0.00000000000E+00 0.  1.
          1   -1    0    0  501    0  0.00000000000E+00 -0.00000000000E+00 -0.12128274137E+03  0.12128274137E+03  0.00000000000E+00 0. -1.
         23    2    1    2    0    0  0.00000000000E+00  0.00000000000E+00 -0.10884629296E+03  0.13371918978E+03  0.77674360144E+02 0.  0.
          2    1    3    3  502    0  0.29319951692E+02  0.58355869322E+01 -0.97102407657E+02  0.10160015362E+03  0.00000000000E+00 0. -1.
         -2    1    3    3    0  502 -0.29319951692E+02 -0.58355869322E+01 -0.11743885307E+02  0.32119036165E+02  0.00000000000E+00 0.  1.
<mgrwt>
<rscale>  0 0.77674360E+02</rscale>
<asrwt>0</asrwt>
<pdfrwt beam="2">  1        1 0.18658883E-01 0.77674360E+02</pdfrwt>
<pdfrwt beam="1">  1       -1 0.19132998E-02 0.77674360E+02</pdfrwt>
<totfact> 0.16595646E+05</totfact>
</mgrwt>
</event>
<event>
 4    1  0.3858846E+001  0.5271801E+02  0.7546771E-02  0.1431209E+00
         -3   -1    0    0    0  501 -0.00000000000E+00  0.00000000000E+00  0.14902725752E+03  0.14902725752E+03  0.00000000000E+00 0. -1.
          3   -1    0    0  501    0  0.00000000000E+00 -0.00000000000E+00 -0.46622144589E+01  0.46622144589E+01  0.00000000000E+00 0.  1.
          2    1    1    2  502    0  0.13926031345E+02 -0.21356110274E+02  0.52674038397E+02  0.58519843781E+02  0.00000000000E+00 0.  1.
         -2    1    1    2    0  502 -0.13926031345E+02  0.21356110274E+02  0.91691004660E+02  0.95169628194E+02  0.00000000000E+00 0. -1.
<mgrwt>
<rscale>  0 0.52718006E+02</rscale>
<asrwt>0</asrwt>
<pdfrwt beam="2">  1        3 0.71726388E-03 0.52718006E+02</pdfrwt>
<pdfrwt beam="1">  1       -3 0.22927267E-01 0.52718006E+02</pdfrwt>
<totfact> 0.13009815E+05</totfact>
</mgrwt>
</event>
<event>
 5    1  0.3858846E+001  0.9153094E+02  0.7546771E-02  0.1299186E+00
          1   -1    0    0  501    0  0.00000000000E+00  0.00000000000E+00  0.23868923734E+04  0.23868923734E+04  0.00000000000E+00 0. -1.
         -1   -1    0    0    0  501 -0.00000000000E+00 -0.00000000000E+00 -0.87749162371E+00  0.87749162371E+00  0.00000000000E+00 0.  1.
         23    2    1    2    0    0  0.00000000000E+00  0.00000000000E+00  0.23860148818E+04  0.23877698651E+04  0.91530936068E+02 0.  0.
          2    1    3    3  502    0  0.30263083594E+02 -0.20336784868E+02  0.47145756653E+03  0.47286538897E+03  0.00000000000E+00 0.  1.
         -2    1    3    3    0  502 -0.30263083594E+02  0.20336784868E+02  0.19145573153E+04  0.19149044761E+04  0.00000000000E+00 0. -1.
<mgrwt>
<rscale>  0 0.91530936E+02</rscale>
<asrwt>0</asrwt>
<pdfrwt beam="1">  1        1 0.36720901E+00 0.91530936E+02</pdfrwt>
<pdfrwt beam="2">  1       -1 0.13500062E-03 0.91530936E+02</pdfrwt>
<totfact> 0.57394980E+04</totfact>
</mgrwt>
</event>
<event>
 5    1  0.3858846E+001  0.9173464E+02  0.7546771E-02  0.1298705E+00
         -1   -1    0    0    0  501 -0.00000000000E+00  0.00000000000E+00  0.14277218021E+01  0.14277218021E+01  0.00000000000E+00 0.  1.
          1   -1    0    0  501    0  0.00000000000E+00 -0.00000000000E+00 -0.14735442021E+04  0.14735442021E+04  0.00000000000E+00 0. -1.
         23    2    1    2    0    0  0.00000000000E+00  0.00000000000E+00 -0.14721164803E+04  0.14749719239E+04  0.91734643046E+02 0.  0.
          2    1    3    3  502    0 -0.20133626086E+02 -0.30006314855E+02 -0.11902828861E+04  0.11908312604E+04  0.00000000000E+00 0. -1.
         -2    1    3    3    0  502  0.20133626086E+02  0.30006314855E+02 -0.28183359424E+03  0.28414066353E+03  0.00000000000E+00 0.  1.
<mgrwt>
<rscale>  0 0.91734643E+02</rscale>
<asrwt>0</asrwt>
<pdfrwt beam="2">  1        1 0.22669954E+00 0.91734643E+02</pdfrwt>
<pdfrwt beam="1">  1       -1 0.21964909E-03 0.91734643E+02</pdfrwt>
<totfact> 0.11030315E+05</totfact>
</mgrwt>
</event>
<event>
 5    1  0.3858846E+001  0.9752158E+02  0.7546771E-02  0.1285596E+00
         -2   -1    0    0    0  501 -0.00000000000E+00  0.00000000000E+00  0.50960980573E+01  0.50960980573E+01  0.00000000000E+00 0.  1.
          2   -1    0    0  501    0  0.00000000000E+00 -0.00000000000E+00 -0.46655588669E+03  0.46655588669E+03  0.00000000000E+00 0. -1.
         23    2    1    2    0    0  0.00000000000E+00  0.00000000000E+00 -0.46145978863E+03  0.47165198475E+03  0.97521578080E+02 0.  0.
          2    1    3    3  502    0  0.18748318622E+02 -0.20689409386E+02 -0.42406822006E+03  0.42498636022E+03  0.00000000000E+00 0. -1.
         -2    1    3    3    0  502 -0.18748318622E+02  0.20689409386E+02 -0.37391568579E+02  0.46665624529E+02  0.00000000000E+00 0.  1.
<mgrwt>
<rscale>  0 0.97521578E+02</rscale>
<asrwt>0</asrwt>
<pdfrwt beam="2">  1        2 0.71777847E-01 0.97521578E+02</pdfrwt>
<pdfrwt beam="1">  1       -2 0.78401489E-03 0.97521578E+02</pdfrwt>
<totfact> 0.17611096E+05</totfact>
</mgrwt>
</event>
<event>
 5    1  0.3858846E+001  0.8151579E+02  0.7546771E-02  0.1324804E+00
         -2   -1    0    0    0  501 -0.00000000000E+00  0.00000000000E+00  0.75563204901E+02  0.75563204901E+02  0.00000000000E+00 0.  1.
          2   -1    0    0  501    0  0.00000000000E+00 -0.00000000000E+00 -0.21984326948E+02  0.21984326948E+02  0.00000000000E+00 0. -1.
         23    2    1    2    0    0  0.00000000000E+00  0.00000000000E+00  0.53578877952E+02  0.97547531849E+02  0.81515794833E+02 0.  0.
          2    1    3    3  502    0  0.30777903307E+02  0.63387707839E+01 -0.42720945414E+01  0.31712933305E+02  0.00000000000E+00 0. -1.
         -2    1    3    3    0  502 -0.30777903307E+02 -0.63387707839E+01  0.57850972494E+02  0.65834598544E+02  0.00000000000E+00 0.  1.
<mgrwt>
<rscale>  0 0.81515795E+02</rscale>
<asrwt>0</asrwt>
<pdfrwt beam="2">  1        2 0.33822042E-02 0.81515795E+02</pdfrwt>
<pdfrwt beam="1">  1       -2 0.11625108E-01 0.81515795E+02</pdfrwt>
<totfact> 0.11373014E+05</totfact>
</mgrwt>
</event>
<event>
 5    1  0.3858846E+001  0.9169646E+02  0.7546771E-02  0.1298795E+00
          3   -1    0    0  501    0  0.00000000000E+00  0.00000000000E+00  0.13335691825E+03  0.13335691825E+03  0.00000000000E+00 0. -1.
         -3   -1    0    0    0  501 -0.00000000000E+00 -0.00000000000E+00 -0.15762662774E+02  0.15762662774E+02  0.00000000000E+00 0.  1.
         23    2    1    2    0    0  0.00000000000E+00  0.00000000000E+00  0.11759425547E+03  0.14911958102E+03  0.91696458621E+02 0.  0.
          2    1    3    3  502    0 -0.37631897748E+02 -0.92833102975E+01  0.98622200488E+02  0.10596545667E+03  0.00000000000E+00 0. -1.
         -2    1    3    3    0  502  0.37631897748E+02  0.92833102975E+01  0.18972054986E+02  0.43154124352E+02  0.00000000000E+00 0.  1.
<mgrwt>
<rscale>  0 0.91696459E+02</rscale>
<asrwt>0</asrwt>
<pdfrwt beam="1">  1        3 0.20516448E-01 0.91696459E+02</pdfrwt>
<pdfrwt beam="2">  1       -3 0.24250251E-02 0.91696459E+02</pdfrwt>
<totfact> 0.30881067E+04</totfact>
</mgrwt>
</event>
<event>
 5    1  0.3858846E+001  0.8907019E+02  0.7546771E-02  0.1305119E+00
          2   -1    0    0  501    0  0.00000000000E+00  0.00000000000E+00  0.18445276621E+04  0.18445276621E+04  0.00000000000E+00 0. -1.
         -2   -1    0    0    0  501 -0.00000000000E+00 -0.00000000000E+00 -0.10752752208E+01  0.10752752208E+01  0.00000000000E+00 0.  1.
         23    2    1    2    0    0  0.00000000000E+00  0.00000000000E+00  0.18434523869E+04  0.18456029373E+04  0.89070194547E+02 0.  0.
          2    1    3    3  502    0  0.40119536189E+02  0.12061059214E+02  0.12348282979E+04  0.12355387374E+04  0.00000000000E+00 0. -1.
         -2    1    3    3    0  502 -0.40119536189E+02 -0.12061059214E+02  0.60862408899E+03  0.61006419993E+03  0.00000000000E+00 0.  1.
<mgrwt>
<rscale>  0 0.89070195E+02</rscale>
<asrwt>0</asrwt>
<pdfrwt beam="1">  1        2 0.28377096E+00 0.89070195E+02</pdfrwt>
<pdfrwt beam="2">  1       -2 0.16542843E-03 0.89070195E+02</pdfrwt>
<totfact> 0.22399441E+05</totfact>
</mgrwt>
</event>
<event>
 5    1  0.3858846E+001  0.9177312E+02  0.7546771E-02  0.1298614E+00
         -1   -1    0    0    0  501 -0.00000000000E+00  0.00000000000E+00  0.26922152324E+03  0.26922152324E+03  0.00000000000E+00 0.  1.
          1   -1    0    0  501    0  0.00000000000E+00 -0.00000000000E+00 -0.78209811775E+01  0.78209811775E+01  0.00000000000E+00 0. -1.
         23    2    1    2    0    0  0.00000000000E+00  0.00000000000E+00  0.26140054207E+03  0.27704250442E+03  0.91773121683E+02 0.  0.
          2    1    3    3  502    0  0.42649088709E+02  0.13931216462E+02  0.10165831058E+03  0.11111901579E+03  0.00000000000E+00 0. -1.
         -2    1    3    3    0  502 -0.42649088709E+02 -0.13931216462E+02  0.15974223148E+03  0.16592348863E+03  0.00000000000E+00 0.  1.
<mgrwt>
<rscale>  0 0.91773122E+02</rscale>
<asrwt>0</asrwt>
<pdfrwt beam="2">  1        1 0.12032281E-02 0.91773122E+02</pdfrwt>
<pdfrwt beam="1">  1       -1 0.41418689E-01 0.91773122E+02</pdfrwt>
<totfact> 0.62041970E+04</totfact>
</mgrwt>
</event>
<event>
 5    1  0.3858846E+001  0.9049797E+02  0.7546771E-02  0.1301650E+00
          2   -1    0    0  501    0  0.00000000000E+00  0.00000000000E+00  0.12551667955E+04  0.12551667955E+04  0.00000000000E+00 0. -1.
         -2   -1    0    0    0  501 -0.00000000000E+00 -0.00000000000E+00 -0.16312339168E+01  0.16312339168E+01  0.00000000000E+00 0.  1.
         23    2    1    2    0    0  0.00000000000E+00  0.00000000000E+00  0.12535355616E+04  0.12567980295E+04  0.90497970103E+02 0.  0.
          2    1    3    3  502    0  0.33079459572E+01 -0.41559431648E+02  0.87102417704E+03  0.87202135631E+03  0.00000000000E+00 0. -1.
         -2    1    3    3    0  502 -0.33079459572E+01  0.41559431648E+02  0.38251138457E+03  0.38477667314E+03  0.00000000000E+00 0.  1.
<mgrwt>
<rscale>  0 0.90497970E+02</rscale>
<asrwt>0</asrwt>
<pdfrwt beam="1">  1        2 0.19310181E+00 0.90497970E+02</pdfrwt>
<pdfrwt beam="2">  1       -2 0.25096007E-03 0.90497970E+02</pdfrwt>
<totfact> 0.25211769E+05</totfact>
</mgrwt>
</event>
<event>
 5    1  0.3858846E+001  0.8930261E+02  0.7546771E-02  0.1304549E+00
         -1   -1    0    0    0  501 -0.00000000000E+00  0.00000000000E+00  0.11145082564E+02  0.11145082564E+02  0.00000000000E+00 0.  1.
          1   -1    0    0  501    0  0.00000000000E+00 -0.00000000000E+00 -0.17888959072E+03  0.17888959072E+03  0.00000000000E+00 0. -1.
         23    2    1    2    0    0  0.00000000000E+00  0.00000000000E+00 -0.16774450816E+03  0.19003467329E+03  0.89302614933E+02 0.  0.
          2    1    3    3  502    0  0.24303488126E+02  0.26973567727E+02 -0.13917967361E+03  0.14383745840E+03  0.00000000000E+00 0. -1.
         -2    1    3    3    0  502 -0.24303488126E+02 -0.26973567727E+02 -0.28564834546E+02  0.46197214890E+02  0.00000000000E+00 0.  1.
<mgrwt>
<rscale>  0 0.89302615E+02</rscale>
<asrwt>0</asrwt>
<pdfrwt beam="2">  1        1 0.27521475E-01 0.89302615E+02</pdfrwt>
<pdfrwt beam="1">  1       -1 0.17146281E-02 0.89302615E+02</pdfrwt>
<totfact> 0.12252920E+05</totfact>
</mgrwt>
</event>
<event>
 5    1  0.3858846E+001  0.9370932E+02  0.7546771E-02  0.1294110E+00
          1   -1    0    0  501    0  0.00000000000E+00  0.00000000000E+00  0.37742783922E+01  0.37742783922E+01  0.00000000000E+00 0. -1.
         -1   -1    0    0    0  501 -0.00000000000E+00 -0.00000000000E+00 -0.58166325887E+03  0.58166325887E+03  0.00000000000E+00 0.  1.
         23    2    1    2    0    0  0.00000000000E+00  0.00000000000E+00 -0.57788898048E+03  0.58543753726E+03  0.93709317989E+02 0.  0.
          2    1    3    3  502    0 -0.13976005823E+02 -0.28870001346E+02 -0.75566268608E+02  0.82091818520E+02  0.00000000000E+00 0. -1.
         -2    1    3    3    0  502  0.13976005823E+02  0.28870001346E+02 -0.50232271187E+03  0.50334571874E+03  0.00000000000E+00 0.  1.
<mgrwt>
<rscale>  0 0.93709318E+02</rscale>
<asrwt>0</asrwt>
<pdfrwt beam="1">  1        1 0.58065777E-03 0.93709318E+02</pdfrwt>
<pdfrwt beam="2">  1       -1 0.89486723E-01 0.93709318E+02</pdfrwt>
<totfact> 0.39600425E+04</totfact>
</mgrwt>
</event>
<event>
 5    1  0.3858846E+001  0.9338487E+02  0.7546771E-02  0.1294856E+00
         -1   -1    0    0    0  501 -0.00000000000E+00  0.00000000000E+00  0.17742465917E+03  0.17742465917E+03  0.00000000000E+00 0.  1.
          1   -1    0    0  501    0  0.00000000000E+00 -0.00000000000E+00 -0.12287940246E+02  0.12287940246E+02  0.00000000000E+00 0. -1.
         23    2    1    2    0    0  0.00000000000E+00  0.00000000000E+00  0.16513671892E+03  0.18971259941E+03  0.93384872649E+02 0.  0.
          2    1    3    3  502    0  0.16992377748E+02 -0.18353232877E+02  0.16266774642E+03  0.16457939660E+03  0.00000000000E+00 0.  1.
         -2    1    3    3    0  502 -0.16992377748E+02  0.18353232877E+02  0.24689725003E+01  0.25133202815E+02  0.00000000000E+00 0. -1.
<mgrwt>
<rscale>  0 0.93384873E+02</rscale>
<asrwt>0</asrwt>
<pdfrwt beam="2">  1        1 0.18904525E-02 0.93384873E+02</pdfrwt>
<pdfrwt beam="1">  1       -1 0.27296100E-01 0.93384873E+02</pdfrwt>
<totfact> 0.67405775E+04</totfact>
</mgrwt>
</event>
<event>
 5    1  0.3858846E+001  0.8427954E+02  0.7546771E-02  0.1317327E+00
         -1   -1    0    0    0  501 -0.00000000000E+00  0.00000000000E+00  0.78901894257E+01  0.78901894257E+01  0.00000000000E+00 0.  1.
          1   -1    0    0  501    0  0.00000000000E+00 -0.00000000000E+00 -0.22505925686E+03  0.22505925686E+03  0.00000000000E+00 0. -1.
         23    2    1    2    0    0  0.00000000000E+00  0.00000000000E+00 -0.21716906744E+03  0.23294944629E+03  0.84279538885E+02 0.  0.
          2    1    3    3  502    0  0.26659511590E+02 -0.94479514257E+01 -0.19492463540E+03  0.19696600425E+03  0.00000000000E+00 0. -1.
         -2    1    3    3    0  502 -0.26659511590E+02  0.94479514257E+01 -0.22244432040E+02  0.35983442041E+02  0.00000000000E+00 0.  1.
<mgrwt>
<rscale>  0 0.84279539E+02</rscale>
<asrwt>0</asrwt>
<pdfrwt beam="2">  1        1 0.34624493E-01 0.84279539E+02</pdfrwt>
<pdfrwt beam="1">  1       -1 0.12138756E-02 0.84279539E+02</pdfrwt>
<totfact> 0.14939807E+05</totfact>
</mgrwt>
</event>
<event>
 5    1  0.3858846E+001  0.9191947E+02  0.7546771E-02  0.1298269E+00
          1   -1    0    0  501    0  0.00000000000E+00  0.00000000000E+00  0.15192919082E+03  0.15192919082E+03  0.00000000000E+00 0. -1.
         -1   -1    0    0    0  501 -0.00000000000E+00 -0.00000000000E+00 -0.13903170102E+02  0.13903170102E+02  0.00000000000E+00 0.  1.
         23    2    1    2    0    0  0.00000000000E+00  0.00000000000E+00  0.13802602072E+03  0.16583236092E+03  0.91919473094E+02 0.  0.
          2    1    3    3  502    0 -0.20570372180E+02 -0.26724531699E+02  0.12534490967E+03  0.12980249299E+03  0.00000000000E+00 0. -1.
         -2    1    3    3    0  502  0.20570372180E+02  0.26724531699E+02  0.12681111055E+02  0.36029867939E+02  0.00000000000E+00 0.  1.
<mgrwt>
<rscale>  0 0.91919473E+02</rscale>
<asrwt>0</asrwt>
<pdfrwt beam="1">  1        1 0.23373720E-01 0.91919473E+02</pdfrwt>
<pdfrwt beam="2">  1       -1 0.21389494E-02 0.91919473E+02</pdfrwt>
<totfact> 0.10996128E+05</totfact>
</mgrwt>
</event>
<event>
 5    1  0.3858846E+001  0.9303624E+02  0.7546771E-02  0.1295661E+00
         -2   -1    0    0    0  501 -0.00000000000E+00  0.00000000000E+00  0.10600967038E+02  0.10600967038E+02  0.00000000000E+00 0.  1.
          2   -1    0    0  501    0  0.00000000000E+00 -0.00000000000E+00 -0.20412621781E+03  0.20412621781E+03  0.00000000000E+00 0. -1.
         23    2    1    2    0    0  0.00000000000E+00  0.00000000000E+00 -0.19352525078E+03  0.21472718485E+03  0.93036236094E+02 0.  0.
          2    1    3    3  502    0 -0.27529636444E+02 -0.35345831561E+02 -0.67868718069E+02  0.81322638815E+02  0.00000000000E+00 0.  1.
         -2    1    3    3    0  502  0.27529636444E+02  0.35345831561E+02 -0.12565653271E+03  0.13340454604E+03  0.00000000000E+00 0. -1.
<mgrwt>
<rscale>  0 0.93036236E+02</rscale>
<asrwt>0</asrwt>
<pdfrwt beam="2">  1        2 0.31404036E-01 0.93036236E+02</pdfrwt>
<pdfrwt beam="1">  1       -2 0.16309179E-02 0.93036236E+02</pdfrwt>
<totfact> 0.14757254E+05</totfact>
</mgrwt>
</event>
<event>
 5    1  0.3858846E+001  0.9145489E+02  0.7546771E-02  0.1299366E+00
         -2   -1    0    0    0  501 -0.00000000000E+00  0.00000000000E+00  0.40909678623E+01  0.40909678623E+01  0.00000000000E+00 0. -1.
          2   -1    0    0  501    0  0.00000000000E+00 -0.00000000000E+00 -0.51112581795E+03  0.51112581795E+03  0.00000000000E+00 0.  1.
         23    2    1    2    0    0  0.00000000000E+00  0.00000000000E+00 -0.50703485009E+03  0.51521678581E+03  0.91454891499E+02 0.  0.
          2    1    3    3  502    0 -0.22800189164E+02 -0.40294351210E+01 -0.31372550744E+02  0.38991305614E+02  0.00000000000E+00 0. -1.
         -2    1    3    3    0  502  0.22800189164E+02  0.40294351210E+01 -0.47566229934E+03  0.47622548020E+03  0.00000000000E+00 0.  1.
<mgrwt>
<rscale>  0 0.91454891E+02</rscale>
<asrwt>0</asrwt>
<pdfrwt beam="2">  1        2 0.78634779E-01 0.91454891E+02</pdfrwt>
<pdfrwt beam="1">  1       -2 0.62937937E-03 0.91454891E+02</pdfrwt>
<totfact> 0.21529088E+05</totfact>
</mgrwt>
</event>
<event>
 5    1  0.3858846E+001  0.8926784E+02  0.7546771E-02  0.1304634E+00
         -2   -1    0    0    0  501 -0.00000000000E+00  0.00000000000E+00  0.12744296579E+02  0.12744296579E+02  0.00000000000E+00 0.  1.
          2   -1    0    0  501    0  0.00000000000E+00 -0.00000000000E+00 -0.15631987627E+03  0.15631987627E+03  0.00000000000E+00 0. -1.
         23    2    1    2    0    0  0.00000000000E+00  0.00000000000E+00 -0.14357557969E+03  0.16906417285E+03  0.89267841118E+02 0.  0.
          2    1    3    3  502    0  0.35620554715E+02 -0.12306915112E+02 -0.26496190316E+02  0.46068776618E+02  0.00000000000E+00 0.  1.
         -2    1    3    3    0  502 -0.35620554715E+02  0.12306915112E+02 -0.11707938938E+03  0.12299539623E+03  0.00000000000E+00 0. -1.
<mgrwt>
<rscale>  0 0.89267841E+02</rscale>
<asrwt>0</asrwt>
<pdfrwt beam="2">  1        2 0.24049211E-01 0.89267841E+02</pdfrwt>
<pdfrwt beam="1">  1       -2 0.19606610E-02 0.89267841E+02</pdfrwt>
<totfact> 0.15014866E+05</totfact>
</mgrwt>
</event>
<event>
 5    1  0.3858846E+001  0.9017424E+02  0.7546771E-02  0.1302430E+00
         -2   -1    0    0    0  501 -0.00000000000E+00  0.00000000000E+00  0.55024022425E+00  0.55024022425E+00  0.00000000000E+00 0.  1.
          2   -1    0    0  501    0  0.00000000000E+00 -0.00000000000E+00 -0.36944742381E+04  0.36944742381E+04  0.00000000000E+00 0. -1.
         23    2    1    2    0    0  0.00000000000E+00  0.00000000000E+00 -0.36939239979E+04  0.36950244783E+04  0.90174238744E+02 0.  0.
          2    1    3    3  502    0  0.35603469860E+02 -0.21454949083E+02 -0.25624994468E+04  0.25628365802E+04  0.00000000000E+00 0. -1.
         -2    1    3    3    0  502 -0.35603469860E+02  0.21454949083E+02 -0.11314245511E+04  0.11321878981E+04  0.00000000000E+00 0.  1.
<mgrwt>
<rscale>  0 0.90174239E+02</rscale>
<asrwt>0</asrwt>
<pdfrwt beam="2">  1        2 0.56837330E+00 0.90174239E+02</pdfrwt>
<pdfrwt beam="1">  1       -2 0.84653437E-04 0.90174239E+02</pdfrwt>
<totfact> 0.52179539E+04</totfact>
</mgrwt>
</event>
<event>
 5    1  0.3858846E+001  0.9140856E+02  0.7546771E-02  0.1299476E+00
          1   -1    0    0  501    0  0.00000000000E+00  0.00000000000E+00  0.26817407545E+03  0.26817407545E+03  0.00000000000E+00 0. -1.
         -1   -1    0    0    0  501 -0.00000000000E+00 -0.00000000000E+00 -0.77892728328E+01  0.77892728328E+01  0.00000000000E+00 0.  1.
         23    2    1    2    0    0  0.00000000000E+00  0.00000000000E+00  0.26038480262E+03  0.27596334828E+03  0.91408556281E+02 0.  0.
          2    1    3    3  502    0 -0.40998568494E+02 -0.15601672659E+02  0.16892363292E+03  0.17452646953E+03  0.00000000000E+00 0. -1.
         -2    1    3    3    0  502  0.40998568494E+02  0.15601672659E+02  0.91461169693E+02  0.10143687875E+03  0.00000000000E+00 0.  1.
<mgrwt>
<rscale>  0 0.91408556E+02</rscale>
<asrwt>0</asrwt>
<pdfrwt beam="1">  1        1 0.41257543E-01 0.91408556E+02</pdfrwt>
<pdfrwt beam="2">  1       -1 0.11983499E-02 0.91408556E+02</pdfrwt>
<totfact> 0.12452918E+05</totfact>
</mgrwt>
</event>
<event>
 5    1  0.3858846E+001  0.9206609E+02  0.7546771E-02  0.1297924E+00
         -2   -1    0    0    0  501 -0.00000000000E+00  0.00000000000E+00  0.76455389609E+00  0.76455389609E+00  0.00000000000E+00 0.  1.
          2   -1    0    0  501    0  0.00000000000E+00 -0.00000000000E+00 -0.27716049706E+04  0.27716049706E+04  0.00000000000E+00 0. -1.
         23    2    1    2    0    0  0.00000000000E+00  0.00000000000E+00 -0.27708404167E+04  0.27723695245E+04  0.92066093188E+02 0.  0.
          2    1    3    3  502    0 -0.41533451617E+01 -0.42652541866E+02 -0.18915948940E+04  0.18920802659E+04  0.00000000000E+00 0. -1.
         -2    1    3    3    0  502  0.41533451617E+01  0.42652541866E+02 -0.87924552269E+03  0.88028925858E+03  0.00000000000E+00 0.  1.
<mgrwt>
<rscale>  0 0.92066093E+02</rscale>
<asrwt>0</asrwt>
<pdfrwt beam="2">  1        2 0.42640059E+00 0.92066093E+02</pdfrwt>
<pdfrwt beam="1">  1       -2 0.11762372E-03 0.92066093E+02</pdfrwt>
<totfact> 0.11940164E+05</totfact>
</mgrwt>
</event>
<event>
 5    1  0.3858846E+001  0.8524375E+02  0.7546771E-02  0.1314796E+00
         -3   -1    0    0    0  501 -0.00000000000E+00  0.00000000000E+00  0.10344532014E+03  0.10344532014E+03  0.00000000000E+00 0.  1.
          3   -1    0    0  501    0  0.00000000000E+00 -0.00000000000E+00 -0.17561203167E+02  0.17561203167E+02  0.00000000000E+00 0. -1.
         23    2    1    2    0    0  0.00000000000E+00  0.00000000000E+00  0.85884116973E+02  0.12100652331E+03  0.85243751295E+02 0.  0.
          2    1    3    3  502    0 -0.70272074494E+01 -0.35171530384E+02  0.10255546002E+02  0.37304080445E+02  0.00000000000E+00 0. -1.
         -2    1    3    3    0  502  0.70272074494E+01  0.35171530384E+02  0.75628570970E+02  0.83702442862E+02  0.00000000000E+00 0.  1.
<mgrwt>
<rscale>  0 0.85243751E+02</rscale>
<asrwt>0</asrwt>
<pdfrwt beam="2">  1        3 0.27017236E-02 0.85243751E+02</pdfrwt>
<pdfrwt beam="1">  1       -3 0.15914664E-01 0.85243751E+02</pdfrwt>
<totfact> 0.39791863E+04</totfact>
</mgrwt>
</event>
<event>
 5    1  0.3858846E+001  0.9083452E+02  0.7546771E-02  0.1300843E+00
          2   -1    0    0  501    0  0.00000000000E+00  0.00000000000E+00  0.14112259971E+04  0.14112259971E+04  0.00000000000E+00 0.  1.
         -2   -1    0    0    0  501 -0.00000000000E+00 -0.00000000000E+00 -0.14616565355E+01  0.14616565355E+01  0.00000000000E+00 0. -1.
         23    2    1    2    0    0  0.00000000000E+00  0.00000000000E+00  0.14097643406E+04  0.14126876537E+04  0.90834524311E+02 0.  0.
          2    1    3    3  502    0  0.12949285073E+02  0.31150788842E+02  0.11778036872E+04  0.11782867143E+04  0.00000000000E+00 0.  1.
         -2    1    3    3    0  502 -0.12949285073E+02 -0.31150788842E+02  0.23196065343E+03  0.23440093935E+03  0.00000000000E+00 0. -1.
<mgrwt>
<rscale>  0 0.90834524E+02</rscale>
<asrwt>0</asrwt>
<pdfrwt beam="1">  1        2 0.21711060E+00 0.90834524E+02</pdfrwt>
<pdfrwt beam="2">  1       -2 0.22487137E-03 0.90834524E+02</pdfrwt>
<totfact> 0.24324108E+05</totfact>
</mgrwt>
</event>
<event>
 5    1  0.3858846E+001  0.8420430E+02  0.7546771E-02  0.1317527E+00
         -1   -1    0    0    0  501 -0.00000000000E+00  0.00000000000E+00  0.43338446904E+01  0.43338446904E+01  0.00000000000E+00 0.  1.
          1   -1    0    0  501    0  0.00000000000E+00 -0.00000000000E+00 -0.40901122961E+03  0.40901122961E+03  0.00000000000E+00 0. -1.
         23    2    1    2    0    0  0.00000000000E+00  0.00000000000E+00 -0.40467738492E+03  0.41334507430E+03  0.84204302639E+02 0.  0.
          2    1    3    3  502    0  0.22939530494E+01 -0.36453888364E+02 -0.99552441008E+02  0.10604167439E+03  0.00000000000E+00 0.  1.
         -2    1    3    3    0  502 -0.22939530494E+01  0.36453888364E+02 -0.30512494391E+03  0.30730339990E+03  0.00000000000E+00 0. -1.
<mgrwt>
<rscale>  0 0.84204303E+02</rscale>
<asrwt>0</asrwt>
<pdfrwt beam="2">  1        1 0.62924773E-01 0.84204303E+02</pdfrwt>
<pdfrwt beam="1">  1       -1 0.66674567E-03 0.84204303E+02</pdfrwt>
<totfact> 0.16706258E+05</totfact>
</mgrwt>
</event>
<event>
 5    1  0.3858846E+001  0.9637474E+02  0.7546771E-02  0.1288110E+00
          2   -1    0    0  501    0  0.00000000000E+00  0.00000000000E+00  0.11169889297E+04  0.11169889297E+04  0.00000000000E+00 0. -1.
         -2   -1    0    0    0  501 -0.00000000000E+00 -0.00000000000E+00 -0.20788233101E+01  0.20788233101E+01  0.00000000000E+00 0.  1.
         23    2    1    2    0    0  0.00000000000E+00  0.00000000000E+00  0.11149101064E+04  0.11190677530E+04  0.96374739932E+02 0.  0.
          2    1    3    3  502    0  0.36554564829E+02 -0.11985903566E+01  0.19314773962E+03  0.19658006549E+03  0.00000000000E+00 0.  1.
         -2    1    3    3    0  502 -0.36554564829E+02  0.11985903566E+01  0.92176236678E+03  0.92248768753E+03  0.00000000000E+00 0. -1.
<mgrwt>
<rscale>  0 0.96374740E+02</rscale>
<asrwt>0</asrwt>
<pdfrwt beam="1">  1        2 0.17184397E+00 0.96374740E+02</pdfrwt>
<pdfrwt beam="2">  1       -2 0.31981986E-03 0.96374740E+02</pdfrwt>
<totfact> 0.21600322E+05</totfact>
</mgrwt>
</event>
<event>
 5    1  0.3858846E+001  0.8656016E+02  0.7546771E-02  0.1311402E+00
         -1   -1    0    0    0  501 -0.00000000000E+00  0.00000000000E+00  0.15619672807E+01  0.15619672807E+01  0.00000000000E+00 0.  1.
          1   -1    0    0  501    0  0.00000000000E+00 -0.00000000000E+00 -0.11992345873E+04  0.11992345873E+04  0.00000000000E+00 0. -1.
         23    2    1    2    0    0  0.00000000000E+00  0.00000000000E+00 -0.11976726200E+04  0.12007965546E+04  0.86560156822E+02 0.  0.
          2    1    3    3  502    0 -0.33933174011E+01 -0.39636328007E+02 -0.83532383426E+03  0.83627056698E+03  0.00000000000E+00 0. -1.
         -2    1    3    3    0  502  0.33933174011E+01  0.39636328007E+02 -0.36234878578E+03  0.36452598763E+03  0.00000000000E+00 0.  1.
<mgrwt>
<rscale>  0 0.86560157E+02</rscale>
<asrwt>0</asrwt>
<pdfrwt beam="2">  1        1 0.18449734E+00 0.86560157E+02</pdfrwt>
<pdfrwt beam="1">  1       -1 0.24030304E-03 0.86560157E+02</pdfrwt>
<totfact> 0.14605352E+05</totfact>
</mgrwt>
</event>
<event>
 5    1  0.3858846E+001  0.9061678E+02  0.7546771E-02  0.1301365E+00
         -1   -1    0    0    0  501 -0.00000000000E+00  0.00000000000E+00  0.48890397271E+02  0.48890397271E+02  0.00000000000E+00 0.  1.
          1   -1    0    0  501    0  0.00000000000E+00 -0.00000000000E+00 -0.41988817909E+02  0.41988817909E+02  0.00000000000E+00 0. -1.
         23    2    1    2    0    0  0.00000000000E+00  0.00000000000E+00  0.69015793617E+01  0.90879215179E+02  0.90616775235E+02 0.  0.
          2    1    3    3  502    0  0.14167228102E+02 -0.32813031353E+02 -0.24476664996E+02  0.43318731607E+02  0.00000000000E+00 0. -1.
         -2    1    3    3    0  502 -0.14167228102E+02  0.32813031353E+02  0.31378244358E+02  0.47560483573E+02  0.00000000000E+00 0.  1.
<mgrwt>
<rscale>  0 0.90616775E+02</rscale>
<asrwt>0</asrwt>
<pdfrwt beam="2">  1        1 0.64598181E-02 0.90616775E+02</pdfrwt>
<pdfrwt beam="1">  1       -1 0.75215996E-02 0.90616775E+02</pdfrwt>
<totfact> 0.92930962E+04</totfact>
</mgrwt>
</event>
<event>
 5    1  0.3858846E+001  0.9044503E+02  0.7546771E-02  0.1301778E+00
         -1   -1    0    0    0  501 -0.00000000000E+00  0.00000000000E+00  0.31954568971E+03  0.31954568971E+03  0.00000000000E+00 0.  1.
          1   -1    0    0  501    0  0.00000000000E+00 -0.00000000000E+00 -0.63999487257E+01  0.63999487257E+01  0.00000000000E+00 0. -1.
         23    2    1    2    0    0  0.00000000000E+00  0.00000000000E+00  0.31314574098E+03  0.32594563843E+03  0.90445033687E+02 0.  0.
          2    1    3    3  502    0  0.77728265260E+01  0.44545490834E+02  0.15873047090E+03  0.16504569058E+03  0.00000000000E+00 0. -1.
         -2    1    3    3    0  502 -0.77728265260E+01 -0.44545490834E+02  0.15441527008E+03  0.16089994785E+03  0.00000000000E+00 0.  1.
<mgrwt>
<rscale>  0 0.90445034E+02</rscale>
<asrwt>0</asrwt>
<pdfrwt beam="2">  1        1 0.98460775E-03 0.90445034E+02</pdfrwt>
<pdfrwt beam="1">  1       -1 0.49160863E-01 0.90445034E+02</pdfrwt>
<totfact> 0.60318051E+04</totfact>
</mgrwt>
</event>
<event>
 5    1  0.3858846E+001  0.9140442E+02  0.7546771E-02  0.1299486E+00
         -2   -1    0    0    0  501 -0.00000000000E+00  0.00000000000E+00  0.27729216893E+01  0.27729216893E+01  0.00000000000E+00 0.  1.
          2   -1    0    0  501    0  0.00000000000E+00 -0.00000000000E+00 -0.75324591968E+03  0.75324591968E+03  0.00000000000E+00 0. -1.
         23    2    1    2    0    0  0.00000000000E+00  0.00000000000E+00 -0.75047299799E+03  0.75601884137E+03  0.91404418888E+02 0.  0.
          2    1    3    3  502    0  0.72562570491E+01 -0.44664455890E+02 -0.42827835455E+03  0.43066218300E+03  0.00000000000E+00 0. -1.
         -2    1    3    3    0  502 -0.72562570491E+01  0.44664455890E+02 -0.32219464344E+03  0.32535665837E+03  0.00000000000E+00 0.  1.
<mgrwt>
<rscale>  0 0.91404419E+02</rscale>
<asrwt>0</asrwt>
<pdfrwt beam="2">  1        2 0.11588418E+00 0.91404419E+02</pdfrwt>
<pdfrwt beam="1">  1       -2 0.42660264E-03 0.91404419E+02</pdfrwt>
<totfact> 0.23939217E+05</totfact>
</mgrwt>
</event>
<event>
 5    1  0.3858846E+001  0.8858062E+02  0.7546771E-02  0.1306326E+00
          1   -1    0    0  501    0  0.00000000000E+00  0.00000000000E+00  0.82763881824E+02  0.82763881824E+02  0.00000000000E+00 0. -1.
         -1   -1    0    0    0  501 -0.00000000000E+00 -0.00000000000E+00 -0.23701539897E+02  0.23701539897E+02  0.00000000000E+00 0.  1.
         23    2    1    2    0    0  0.00000000000E+00  0.00000000000E+00  0.59062341927E+02  0.10646542172E+03  0.88580617453E+02 0.  0.
          2    1    3    3  502    0 -0.22682821473E+02 -0.31402907388E+02  0.55336547123E+02  0.67548400646E+02  0.00000000000E+00 0. -1.
         -2    1    3    3    0  502  0.22682821473E+02  0.31402907388E+02  0.37257948035E+01  0.38917021074E+02  0.00000000000E+00 0.  1.
<mgrwt>
<rscale>  0 0.88580617E+02</rscale>
<asrwt>0</asrwt>
<pdfrwt beam="1">  1        1 0.12732905E-01 0.88580617E+02</pdfrwt>
<pdfrwt beam="2">  1       -1 0.36463908E-02 0.88580617E+02</pdfrwt>
<totfact> 0.10961198E+05</totfact>
</mgrwt>
</event>
<event>
 5    1  0.3858846E+001  0.9017146E+02  0.7546771E-02  0.1302437E+00
          3   -1    0    0  501    0  0.00000000000E+00  0.00000000000E+00  0.63032186818E+02  0.63032186818E+02  0.00000000000E+00 0. -1.
         -3   -1    0    0    0  501 -0.00000000000E+00 -0.00000000000E+00 -0.32248972110E+02  0.32248972110E+02  0.00000000000E+00 0.  1.
         23    2    1    2    0    0  0.00000000000E+00  0.00000000000E+00  0.30783214708E+02  0.95281158928E+02  0.90171464106E+02 0.  0.
          2    1    3    3  502    0  0.15566350671E+02 -0.16766472074E+02  0.56442756426E+02  0.60903289008E+02  0.00000000000E+00 0. -1.
         -2    1    3    3    0  502 -0.15566350671E+02  0.16766472074E+02 -0.25659541719E+02  0.34377869920E+02  0.00000000000E+00 0.  1.
<mgrwt>
<rscale>  0 0.90171464E+02</rscale>
<asrwt>0</asrwt>
<pdfrwt beam="1">  1        3 0.96972595E-02 0.90171464E+02</pdfrwt>
<pdfrwt beam="2">  1       -3 0.49613803E-02 0.90171464E+02</pdfrwt>
<totfact> 0.36096354E+04</totfact>
</mgrwt>
</event>
<event>
 5    1  0.3858846E+001  0.9506677E+02  0.7546771E-02  0.1291026E+00
          1   -1    0    0  501    0  0.00000000000E+00  0.00000000000E+00  0.13792008441E+04  0.13792008441E+04  0.00000000000E+00 0. -1.
         -1   -1    0    0    0  501 -0.00000000000E+00 -0.00000000000E+00 -0.16382113878E+01  0.16382113878E+01  0.00000000000E+00 0.  1.
         23    2    1    2    0    0  0.00000000000E+00  0.00000000000E+00  0.13775626327E+04  0.13808390555E+04  0.95066766620E+02 0.  0.
          2    1    3    3  502    0  0.43576990474E+02  0.18602568685E+02  0.74392420975E+03  0.74543157937E+03  0.00000000000E+00 0.  1.
         -2    1    3    3    0  502 -0.43576990474E+02 -0.18602568685E+02  0.63363842294E+03  0.63540747610E+03  0.00000000000E+00 0. -1.
<mgrwt>
<rscale>  0 0.95066767E+02</rscale>
<asrwt>0</asrwt>
<pdfrwt beam="1">  1        1 0.21218382E+00 0.95066767E+02</pdfrwt>
<pdfrwt beam="2">  1       -1 0.25203362E-03 0.95066767E+02</pdfrwt>
<totfact> 0.10529972E+05</totfact>
</mgrwt>
</event>
<event>
 5    1  0.3858846E+001  0.9212279E+02  0.7546771E-02  0.1297791E+00
         -1   -1    0    0    0  501 -0.00000000000E+00  0.00000000000E+00  0.75657585315E+01  0.75657585315E+01  0.00000000000E+00 0.  1.
          1   -1    0    0  501    0  0.00000000000E+00 -0.00000000000E+00 -0.28042819662E+03  0.28042819662E+03  0.00000000000E+00 0. -1.
         23    2    1    2    0    0  0.00000000000E+00  0.00000000000E+00 -0.27286243809E+03  0.28799395515E+03  0.92122788083E+02 0.  0.
          2    1    3    3  502    0 -0.28929391522E+02 -0.33080439398E+02 -0.93291193493E+02  0.10312357610E+03  0.00000000000E+00 0. -1.
         -2    1    3    3    0  502  0.28929391522E+02  0.33080439398E+02 -0.17957124459E+03  0.18487037905E+03  0.00000000000E+00 0.  1.
<mgrwt>
<rscale>  0 0.92122788E+02</rscale>
<asrwt>0</asrwt>
<pdfrwt beam="2">  1        1 0.43142793E-01 0.92122788E+02</pdfrwt>
<pdfrwt beam="1">  1       -1 0.11639630E-02 0.92122788E+02</pdfrwt>
<totfact> 0.12303261E+05</totfact>
</mgrwt>
</event>
<event>
 5    1  0.3858846E+001  0.9134092E+02  0.7546771E-02  0.1299637E+00
         -1   -1    0    0    0  501 -0.00000000000E+00  0.00000000000E+00  0.82811183538E+01  0.82811183538E+01  0.00000000000E+00 0.  1.
          1   -1    0    0  501    0  0.00000000000E+00 -0.00000000000E+00 -0.25187307815E+03  0.25187307815E+03  0.00000000000E+00 0. -1.
         23    2    1    2    0    0  0.00000000000E+00  0.00000000000E+00 -0.24359195980E+03  0.26015419651E+03  0.91340916797E+02 0.  0.
          2    1    3    3  502    0 -0.84405833741E+01 -0.20302690218E+02 -0.77857284958E+01  0.23325099056E+02  0.00000000000E+00 0.  1.
         -2    1    3    3    0  502  0.84405833741E+01  0.20302690218E+02 -0.23580623130E+03  0.23682909745E+03  0.00000000000E+00 0. -1.
<mgrwt>
<rscale>  0 0.91340917E+02</rscale>
<asrwt>0</asrwt>
<pdfrwt beam="2">  1        1 0.38749702E-01 0.91340917E+02</pdfrwt>
<pdfrwt beam="1">  1       -1 0.12740183E-02 0.91340917E+02</pdfrwt>
<totfact> 0.12325597E+05</totfact>
</mgrwt>
</event>
<event>
 5    1  0.3858846E+001  0.9321604E+02  0.7546771E-02  0.1295245E+00
          1   -1    0    0  501    0  0.00000000000E+00  0.00000000000E+00  0.13517805099E+02  0.13517805099E+02  0.00000000000E+00 0. -1.
         -1   -1    0    0    0  501 -0.00000000000E+00 -0.00000000000E+00 -0.16069970668E+03  0.16069970668E+03  0.00000000000E+00 0.  1.
         23    2    1    2    0    0  0.00000000000E+00  0.00000000000E+00 -0.14718190158E+03  0.17421751178E+03  0.93216035411E+02 0.  0.
          2    1    3    3  502    0  0.18986273508E+01 -0.27315475876E+02 -0.30993147006E+01  0.27556229056E+02  0.00000000000E+00 0. -1.
         -2    1    3    3    0  502 -0.18986273508E+01  0.27315475876E+02 -0.14408258688E+03  0.14666128272E+03  0.00000000000E+00 0.  1.
<mgrwt>
<rscale>  0 0.93216035E+02</rscale>
<asrwt>0</asrwt>
<pdfrwt beam="1">  1        1 0.20796624E-02 0.93216035E+02</pdfrwt>
<pdfrwt beam="2">  1       -1 0.24723030E-01 0.93216035E+02</pdfrwt>
<totfact> 0.69450493E+04</totfact>
</mgrwt>
</event>
<event>
 5    1  0.3858846E+001  0.9162338E+02  0.7546771E-02  0.1298967E+00
          1   -1    0    0  501    0  0.00000000000E+00  0.00000000000E+00  0.20605766622E+02  0.20605766622E+02  0.00000000000E+00 0. -1.
         -1   -1    0    0    0  501 -0.00000000000E+00 -0.00000000000E+00 -0.10185066497E+03  0.10185066497E+03  0.00000000000E+00 0.  1.
         23    2    1    2    0    0  0.00000000000E+00  0.00000000000E+00 -0.81244898352E+02  0.12245643160E+03  0.91623382011E+02 0.  0.
          2    1    3    3  502    0 -0.28814792143E+02  0.28173207956E+02 -0.69741682036E+02  0.80547651151E+02  0.00000000000E+00 0. -1.
         -2    1    3    3    0  502  0.28814792143E+02 -0.28173207956E+02 -0.11503216316E+02  0.41908780445E+02  0.00000000000E+00 0.  1.
<mgrwt>
<rscale>  0 0.91623382E+02</rscale>
<asrwt>0</asrwt>
<pdfrwt beam="1">  1        1 0.31701179E-02 0.91623382E+02</pdfrwt>
<pdfrwt beam="2">  1       -1 0.15669333E-01 0.91623382E+02</pdfrwt>
<totfact> 0.80076941E+04</totfact>
</mgrwt>
</event>
<event>
 5    1  0.3858846E+001  0.9042290E+02  0.7546771E-02  0.1301831E+00
         -3   -1    0    0    0  501 -0.00000000000E+00  0.00000000000E+00  0.51348863006E+02  0.51348863006E+02  0.00000000000E+00 0.  1.
          3   -1    0    0  501    0  0.00000000000E+00 -0.00000000000E+00 -0.39807606194E+02  0.39807606194E+02  0.00000000000E+00 0. -1.
         23    2    1    2    0    0  0.00000000000E+00  0.00000000000E+00  0.11541256812E+02  0.91156469201E+02  0.90422902344E+02 0.  0.
          2    1    3    3  502    0  0.26829546173E+01 -0.38696108276E+02 -0.17644689473E+02  0.42613637580E+02  0.00000000000E+00 0. -1.
         -2    1    3    3    0  502 -0.26829546173E+01  0.38696108276E+02  0.29185946285E+02  0.48542831621E+02  0.00000000000E+00 0.  1.
<mgrwt>
<rscale>  0 0.90422902E+02</rscale>
<asrwt>0</asrwt>
<pdfrwt beam="2">  1        3 0.61242471E-02 0.90422902E+02</pdfrwt>
<pdfrwt beam="1">  1       -3 0.78998251E-02 0.90422902E+02</pdfrwt>
<totfact> 0.36148338E+04</totfact>
</mgrwt>
</event>
<event>
 5    1  0.3858846E+001  0.8914349E+02  0.7546771E-02  0.1304939E+00
         -1   -1    0    0    0  501 -0.00000000000E+00  0.00000000000E+00  0.27386798955E+02  0.27386798955E+02  0.00000000000E+00 0.  1.
          1   -1    0    0  501    0  0.00000000000E+00 -0.00000000000E+00 -0.72540076825E+02  0.72540076825E+02  0.00000000000E+00 0. -1.
         23    2    1    2    0    0  0.00000000000E+00  0.00000000000E+00 -0.45153277870E+02  0.99926875780E+02  0.89143491074E+02 0.  0.
          2    1    3    3  502    0  0.67497733322E+01  0.28136305611E+02 -0.60581033265E+02  0.67136225131E+02  0.00000000000E+00 0. -1.
         -2    1    3    3    0  502 -0.67497733322E+01 -0.28136305611E+02  0.15427755395E+02  0.32790650649E+02  0.00000000000E+00 0.  1.
<mgrwt>
<rscale>  0 0.89143491E+02</rscale>
<asrwt>0</asrwt>
<pdfrwt beam="2">  1        1 0.11160012E-01 0.89143491E+02</pdfrwt>
<pdfrwt beam="1">  1       -1 0.42133537E-02 0.89143491E+02</pdfrwt>
<totfact> 0.10555557E+05</totfact>
</mgrwt>
</event>
<event>
 5    1  0.3858846E+001  0.9108462E+02  0.7546771E-02  0.1300246E+00
          4   -1    0    0  501    0  0.00000000000E+00  0.00000000000E+00  0.44725759889E+03  0.44725759889E+03  0.00000000000E+00 0. -1.
         -4   -1    0    0    0  501 -0.00000000000E+00 -0.00000000000E+00 -0.46373769332E+01  0.46373769332E+01  0.00000000000E+00 0.  1.
         23    2    1    2    0    0  0.00000000000E+00  0.00000000000E+00  0.44262022195E+03  0.45189497582E+03  0.91084621584E+02 0.  0.
          2    1    3    3  502    0  0.39653017594E+02  0.13519340297E+02  0.13270356408E+03  0.13915951381E+03  0.00000000000E+00 0.  1.
         -2    1    3    3    0  502 -0.39653017594E+02 -0.13519340297E+02  0.30991665788E+03  0.31273546201E+03  0.00000000000E+00 0. -1.
<mgrwt>
<rscale>  0 0.91084622E+02</rscale>
<asrwt>0</asrwt>
<pdfrwt beam="1">  1        4 0.68808827E-01 0.91084622E+02</pdfrwt>
<pdfrwt beam="2">  1       -4 0.71344296E-03 0.91084622E+02</pdfrwt>
<totfact> 0.14047732E+04</totfact>
</mgrwt>
</event>
<event>
 5    1  0.3858846E+001  0.9033674E+02  0.7546771E-02  0.1302038E+00
         -1   -1    0    0    0  501 -0.00000000000E+00  0.00000000000E+00  0.95567096579E+00  0.95567096579E+00  0.00000000000E+00 0.  1.
          1   -1    0    0  501    0  0.00000000000E+00 -0.00000000000E+00 -0.21348160748E+04  0.21348160748E+04  0.00000000000E+00 0. -1.
         23    2    1    2    0    0  0.00000000000E+00  0.00000000000E+00 -0.21338604038E+04  0.21357717457E+04  0.90336742026E+02 0.  0.
          2    1    3    3  502    0 -0.19253148827E+02  0.36651231433E+02 -0.63993542548E+03  0.64127322203E+03  0.00000000000E+00 0.  1.
         -2    1    3    3    0  502  0.19253148827E+02 -0.36651231433E+02 -0.14939249783E+04  0.14944985237E+04  0.00000000000E+00 0. -1.
<mgrwt>
<rscale>  0 0.90336742E+02</rscale>
<asrwt>0</asrwt>
<pdfrwt beam="2">  1        1 0.32842923E+00 0.90336742E+02</pdfrwt>
<pdfrwt beam="1">  1       -1 0.14702810E-03 0.90336742E+02</pdfrwt>
<totfact> 0.73592588E+04</totfact>
</mgrwt>
</event>
<event>
 5    1  0.3858846E+001  0.9016933E+02  0.7546771E-02  0.1302442E+00
         -1   -1    0    0    0  501 -0.00000000000E+00  0.00000000000E+00  0.41431361193E+01  0.41431361193E+01  0.00000000000E+00 0.  1.
          1   -1    0    0  501    0  0.00000000000E+00 -0.00000000000E+00 -0.49060102226E+03  0.49060102226E+03  0.00000000000E+00 0. -1.
         23    2    1    2    0    0  0.00000000000E+00  0.00000000000E+00 -0.48645788614E+03  0.49474415838E+03  0.90169325504E+02 0.  0.
          2    1    3    3  502    0  0.70124583962E+01  0.40897638961E+02 -0.14649317822E+03  0.15225650301E+03  0.00000000000E+00 0. -1.
         -2    1    3    3    0  502 -0.70124583962E+01 -0.40897638961E+02 -0.33996470792E+03  0.34248765536E+03  0.00000000000E+00 0.  1.
<mgrwt>
<rscale>  0 0.90169326E+02</rscale>
<asrwt>0</asrwt>
<pdfrwt beam="2">  1        1 0.75477124E-01 0.90169326E+02</pdfrwt>
<pdfrwt beam="1">  1       -1 0.63740519E-03 0.90169326E+02</pdfrwt>
<totfact> 0.14309623E+05</totfact>
</mgrwt>
</event>
<event>
 5    1  0.3858846E+001  0.9211290E+02  0.7546771E-02  0.1297814E+00
          3   -1    0    0  501    0  0.00000000000E+00  0.00000000000E+00  0.52449423749E+02  0.52449423749E+02  0.00000000000E+00 0. -1.
         -3   -1    0    0    0  501 -0.00000000000E+00 -0.00000000000E+00 -0.40442701940E+02  0.40442701940E+02  0.00000000000E+00 0.  1.
         23    2    1    2    0    0  0.00000000000E+00  0.00000000000E+00  0.12006721809E+02  0.92892125689E+02  0.92112896200E+02 0.  0.
          2    1    3    3  502    0 -0.19144980663E+02  0.38918188394E+02  0.21627674292E+02  0.48465575079E+02  0.00000000000E+00 0. -1.
         -2    1    3    3    0  502  0.19144980663E+02 -0.38918188394E+02 -0.96209524834E+01  0.44426550610E+02  0.00000000000E+00 0.  1.
<mgrwt>
<rscale>  0 0.92112896E+02</rscale>
<asrwt>0</asrwt>
<pdfrwt beam="1">  1        3 0.80691421E-02 0.92112896E+02</pdfrwt>
<pdfrwt beam="2">  1       -3 0.62219541E-02 0.92112896E+02</pdfrwt>
<totfact> 0.34239133E+04</totfact>
</mgrwt>
</event>
<event>
 5    1  0.3858846E+001  0.9169336E+02  0.7546771E-02  0.1298802E+00
         -2   -1    0    0    0  501 -0.00000000000E+00  0.00000000000E+00  0.22804063828E+02  0.22804063828E+02  0.00000000000E+00 0.  1.
          2   -1    0    0  501    0  0.00000000000E+00 -0.00000000000E+00 -0.92172950411E+02  0.92172950411E+02  0.00000000000E+00 0. -1.
         23    2    1    2    0    0  0.00000000000E+00  0.00000000000E+00 -0.69368886584E+02  0.11497701424E+03  0.91693355144E+02 0.  0.
          2    1    3    3  502    0  0.19216304859E+02 -0.36783791216E+02 -0.59115297545E+02  0.72228332893E+02  0.00000000000E+00 0. -1.
         -2    1    3    3    0  502 -0.19216304859E+02  0.36783791216E+02 -0.10253589039E+02  0.42748681346E+02  0.00000000000E+00 0.  1.
<mgrwt>
<rscale>  0 0.91693355E+02</rscale>
<asrwt>0</asrwt>
<pdfrwt beam="2">  1        2 0.14180454E-01 0.91693355E+02</pdfrwt>
<pdfrwt beam="1">  1       -2 0.35083176E-02 0.91693355E+02</pdfrwt>
<totfact> 0.11784685E+05</totfact>
</mgrwt>
</event>
<event>
 5    1  0.3858846E+001  0.9191406E+02  0.7546771E-02  0.1298282E+00
          2   -1    0    0  501    0  0.00000000000E+00  0.00000000000E+00  0.68849060622E+01  0.68849060622E+01  0.00000000000E+00 0.  1.
         -2   -1    0    0    0  501 -0.00000000000E+00 -0.00000000000E+00 -0.30676506184E+03  0.30676506184E+03  0.00000000000E+00 0. -1.
         23    2    1    2    0    0  0.00000000000E+00  0.00000000000E+00 -0.29988015577E+03  0.31364996790E+03  0.91914060598E+02 0.  0.
          2    1    3    3  502    0 -0.13567570709E+02 -0.31888383617E+02 -0.25294227120E+03  0.25530519098E+03  0.00000000000E+00 0. -1.
         -2    1    3    3    0  502  0.13567570709E+02  0.31888383617E+02 -0.46937884575E+02  0.58344776914E+02  0.00000000000E+00 0.  1.
<mgrwt>
<rscale>  0 0.91914061E+02</rscale>
<asrwt>0</asrwt>
<pdfrwt beam="1">  1        2 0.10592163E-02 0.91914061E+02</pdfrwt>
<pdfrwt beam="2">  1       -2 0.47194624E-01 0.91914061E+02</pdfrwt>
<totfact> 0.49326187E+04</totfact>
</mgrwt>
</event>
<event>
 5    1  0.3858846E+001  0.9235839E+02  0.7546771E-02  0.1297239E+00
          2   -1    0    0  501    0  0.00000000000E+00  0.00000000000E+00  0.12280417254E+04  0.12280417254E+04  0.00000000000E+00 0. -1.
         -2   -1    0    0    0  501 -0.00000000000E+00 -0.00000000000E+00 -0.17365190799E+01  0.17365190799E+01  0.00000000000E+00 0.  1.
         23    2    1    2    0    0  0.00000000000E+00  0.00000000000E+00  0.12263052063E+04  0.12297782445E+04  0.92358386453E+02 0.  0.
          2    1    3    3  502    0  0.17001648099E+02  0.42261181643E+02  0.71408068546E+03  0.71553217178E+03  0.00000000000E+00 0. -1.
         -2    1    3    3    0  502 -0.17001648099E+02 -0.42261181643E+02  0.51222452083E+03  0.51424607267E+03  0.00000000000E+00 0.  1.
<mgrwt>
<rscale>  0 0.92358386E+02</rscale>
<asrwt>0</asrwt>
<pdfrwt beam="1">  1        2 0.18892880E+00 0.92358386E+02</pdfrwt>
<pdfrwt beam="2">  1       -2 0.26715776E-03 0.92358386E+02</pdfrwt>
<totfact> 0.23971773E+05</totfact>
</mgrwt>
</event>
<event>
 5    1  0.3858846E+001  0.9008498E+02  0.7546771E-02  0.1302646E+00
          1   -1    0    0  501    0  0.00000000000E+00  0.00000000000E+00  0.14948541412E+02  0.14948541412E+02  0.00000000000E+00 0. -1.
         -1   -1    0    0    0  501 -0.00000000000E+00 -0.00000000000E+00 -0.13572067077E+03  0.13572067077E+03  0.00000000000E+00 0.  1.
         23    2    1    2    0    0  0.00000000000E+00  0.00000000000E+00 -0.12077212936E+03  0.15066921219E+03  0.90084983600E+02 0.  0.
          2    1    3    3  502    0  0.35327711318E+02  0.27015067301E+02 -0.72326171450E+02  0.84905454035E+02  0.00000000000E+00 0. -1.
         -2    1    3    3    0  502 -0.35327711318E+02 -0.27015067301E+02 -0.48445957912E+02  0.65763758151E+02  0.00000000000E+00 0.  1.
<mgrwt>
<rscale>  0 0.90084984E+02</rscale>
<asrwt>0</asrwt>
<pdfrwt beam="1">  1        1 0.22997756E-02 0.90084984E+02</pdfrwt>
<pdfrwt beam="2">  1       -1 0.20880103E-01 0.90084984E+02</pdfrwt>
<totfact> 0.78929293E+04</totfact>
</mgrwt>
</event>
<event>
 5    1  0.3858846E+001  0.9132709E+02  0.7546771E-02  0.1299669E+00
          2   -1    0    0  501    0  0.00000000000E+00  0.00000000000E+00  0.68423874789E+03  0.68423874789E+03  0.00000000000E+00 0. -1.
         -2   -1    0    0    0  501 -0.00000000000E+00 -0.00000000000E+00 -0.30474145600E+01  0.30474145600E+01  0.00000000000E+00 0.  1.
         23    2    1    2    0    0  0.00000000000E+00  0.00000000000E+00  0.68119133333E+03  0.68728616245E+03  0.91327085201E+02 0.  0.
          2    1    3    3  502    0  0.45523895823E+02  0.14070753210E+01  0.36527460496E+03  0.36810316758E+03  0.00000000000E+00 0. -1.
         -2    1    3    3    0  502 -0.45523895823E+02 -0.14070753210E+01  0.31591672837E+03  0.31918299488E+03  0.00000000000E+00 0.  1.
<mgrwt>
<rscale>  0 0.91327085E+02</rscale>
<asrwt>0</asrwt>
<pdfrwt beam="1">  1        2 0.10526738E+00 0.91327085E+02</pdfrwt>
<pdfrwt beam="2">  1       -2 0.46883355E-03 0.91327085E+02</pdfrwt>
<totfact> 0.23484322E+05</totfact>
</mgrwt>
</event>
<event>
 5    1  0.3858846E+001  0.9201188E+02  0.7546771E-02  0.1298051E+00
          2   -1    0    0  501    0  0.00000000000E+00  0.00000000000E+00  0.20873324736E+04  0.20873324736E+04  0.00000000000E+00 0.  1.
         -2   -1    0    0    0  501 -0.00000000000E+00 -0.00000000000E+00 -0.10139959678E+01  0.10139959678E+01  0.00000000000E+00 0. -1.
         23    2    1    2    0    0  0.00000000000E+00  0.00000000000E+00  0.20863184776E+04  0.20883464695E+04  0.92011884269E+02 0.  0.
          2    1    3    3  502    0  0.45412769076E+02  0.72483761690E+01  0.10136698777E+04  0.10147125108E+04  0.00000000000E+00 0. -1.
         -2    1    3    3    0  502 -0.45412769076E+02 -0.72483761690E+01  0.10726485999E+04  0.10736339587E+04  0.00000000000E+00 0.  1.
<mgrwt>
<rscale>  0 0.92011884E+02</rscale>
<asrwt>0</asrwt>
<pdfrwt beam="1">  1        2 0.32112463E+00 0.92011884E+02</pdfrwt>
<pdfrwt beam="2">  1       -2 0.15600105E-03 0.92011884E+02</pdfrwt>
<totfact> 0.18417552E+05</totfact>
</mgrwt>
</event>
<event>
 5    1  0.3858846E+001  0.9116882E+02  0.7546771E-02  0.1300046E+00
         -1   -1    0    0    0  501 -0.00000000000E+00  0.00000000000E+00  0.91952498743E+01  0.91952498743E+01  0.00000000000E+00 0.  1.
          1   -1    0    0  501    0  0.00000000000E+00 -0.00000000000E+00 -0.22597957371E+03  0.22597957371E+03  0.00000000000E+00 0. -1.
         23    2    1    2    0    0  0.00000000000E+00  0.00000000000E+00 -0.21678432384E+03  0.23517482359E+03  0.91168824645E+02 0.  0.
          2    1    3    3  502    0  0.23135076444E+02 -0.39111062822E+02 -0.11770418768E+03  0.12617124393E+03  0.00000000000E+00 0. -1.
         -2    1    3    3    0  502 -0.23135076444E+02  0.39111062822E+02 -0.99080136155E+02  0.10900357966E+03  0.00000000000E+00 0.  1.
<mgrwt>
<rscale>  0 0.91168825E+02</rscale>
<asrwt>0</asrwt>
<pdfrwt beam="2">  1        1 0.34766090E-01 0.91168825E+02</pdfrwt>
<pdfrwt beam="1">  1       -1 0.14146538E-02 0.91168825E+02</pdfrwt>
<totfact> 0.12128510E+05</totfact>
</mgrwt>
</event>
<event>
 5    1  0.3858846E+001  0.6655645E+02  0.7546771E-02  0.1372211E+00
         -2   -1    0    0    0  501 -0.00000000000E+00  0.00000000000E+00  0.18606876982E+01  0.18606876982E+01  0.00000000000E+00 0.  1.
          2   -1    0    0  501    0  0.00000000000E+00 -0.00000000000E+00 -0.59517794804E+03  0.59517794804E+03  0.00000000000E+00 0. -1.
         23    2    1    2    0    0  0.00000000000E+00  0.00000000000E+00 -0.59331726034E+03  0.59703863574E+03  0.66556450812E+02 0.  0.
          2    1    3    3  502    0  0.10616601474E+02  0.19308949293E+02 -0.52036067498E+03  0.52082701525E+03  0.00000000000E+00 0. -1.
         -2    1    3    3    0  502 -0.10616601474E+02 -0.19308949293E+02 -0.72956585368E+02  0.76211620493E+02  0.00000000000E+00 0.  1.
<mgrwt>
<rscale>  0 0.66556451E+02</rscale>
<asrwt>0</asrwt>
<pdfrwt beam="2">  1        2 0.91565902E-01 0.66556451E+02</pdfrwt>
<pdfrwt beam="1">  1       -2 0.28625945E-03 0.66556451E+02</pdfrwt>
<totfact> 0.51500914E+05</totfact>
</mgrwt>
</event>
<event>
 5    1  0.3858846E+001  0.9509429E+02  0.7546771E-02  0.1290964E+00
         -2   -1    0    0    0  501 -0.00000000000E+00  0.00000000000E+00  0.45982446071E+01  0.45982446071E+01  0.00000000000E+00 0. -1.
          2   -1    0    0  501    0  0.00000000000E+00 -0.00000000000E+00 -0.49165085369E+03  0.49165085369E+03  0.00000000000E+00 0.  1.
         23    2    1    2    0    0  0.00000000000E+00  0.00000000000E+00 -0.48705260908E+03  0.49624909830E+03  0.95094287663E+02 0.  0.
          2    1    3    3  502    0 -0.16462344737E+02 -0.14523831027E+02 -0.23433182077E+02  0.32110192839E+02  0.00000000000E+00 0. -1.
         -2    1    3    3    0  502  0.16462344737E+02  0.14523831027E+02 -0.46361942700E+03  0.46413890546E+03  0.00000000000E+00 0.  1.
<mgrwt>
<rscale>  0 0.95094288E+02</rscale>
<asrwt>0</asrwt>
<pdfrwt beam="2">  1        2 0.75638583E-01 0.95094288E+02</pdfrwt>
<pdfrwt beam="1">  1       -2 0.70742234E-03 0.95094288E+02</pdfrwt>
<totfact> 0.19167401E+05</totfact>
</mgrwt>
</event>
<event>
 5    1  0.3858846E+001  0.9137706E+02  0.7546771E-02  0.1299551E+00
         -2   -1    0    0    0  501 -0.00000000000E+00  0.00000000000E+00  0.87045060125E+03  0.87045060125E+03  0.00000000000E+00 0.  1.
          2   -1    0    0  501    0  0.00000000000E+00 -0.00000000000E+00 -0.23981162817E+01  0.23981162817E+01  0.00000000000E+00 0. -1.
         23    2    1    2    0    0  0.00000000000E+00  0.00000000000E+00  0.86805248497E+03  0.87284871753E+03  0.91377059687E+02 0.  0.
          2    1    3    3  502    0 -0.19076272162E+02  0.41503218867E+02  0.44367545747E+03  0.44602055211E+03  0.00000000000E+00 0. -1.
         -2    1    3    3    0  502  0.19076272162E+02 -0.41503218867E+02  0.42437702750E+03  0.42682816543E+03  0.00000000000E+00 0.  1.
<mgrwt>
<rscale>  0 0.91377060E+02</rscale>
<asrwt>0</asrwt>
<pdfrwt beam="2">  1        2 0.36894166E-03 0.91377060E+02</pdfrwt>
<pdfrwt beam="1">  1       -2 0.13391522E+00 0.91377060E+02</pdfrwt>
<totfact> 0.21705746E+04</totfact>
</mgrwt>
</event>
<event>
 5    1  0.3858846E+001  0.9197039E+02  0.7546771E-02  0.1298149E+00
          1   -1    0    0  501    0  0.00000000000E+00  0.00000000000E+00  0.10006804126E+03  0.10006804126E+03  0.00000000000E+00 0. -1.
         -1   -1    0    0    0  501 -0.00000000000E+00 -0.00000000000E+00 -0.21132003999E+02  0.21132003999E+02  0.00000000000E+00 0.  1.
         23    2    1    2    0    0  0.00000000000E+00  0.00000000000E+00  0.78936037266E+02  0.12120004526E+03  0.91970391935E+02 0.  0.
          2    1    3    3  502    0  0.34187566952E+02  0.75775693479E+01  0.78747531882E+02  0.86182266556E+02  0.00000000000E+00 0. -1.
         -2    1    3    3    0  502 -0.34187566952E+02 -0.75775693479E+01  0.18850538409E+00  0.35017778707E+02  0.00000000000E+00 0.  1.
<mgrwt>
<rscale>  0 0.91970392E+02</rscale>
<asrwt>0</asrwt>
<pdfrwt beam="1">  1        1 0.15395083E-01 0.91970392E+02</pdfrwt>
<pdfrwt beam="2">  1       -1 0.32510776E-02 0.91970392E+02</pdfrwt>
<totfact> 0.10202110E+05</totfact>
</mgrwt>
</event>
<event>
 5    1  0.3858846E+001  0.9120117E+02  0.7546771E-02  0.1299969E+00
         -4   -1    0    0    0  501 -0.00000000000E+00  0.00000000000E+00  0.82616729033E+02  0.82616729033E+02  0.00000000000E+00 0.  1.
          4   -1    0    0  501    0  0.00000000000E+00 -0.00000000000E+00 -0.25169398556E+02  0.25169398556E+02  0.00000000000E+00 0. -1.
         23    2    1    2    0    0  0.00000000000E+00  0.00000000000E+00  0.57447330477E+02  0.10778612759E+03  0.91201170616E+02 0.  0.
          2    1    3    3  502    0  0.21629252079E+02  0.40116619100E+02  0.26952581916E+02  0.52949120346E+02  0.00000000000E+00 0. -1.
         -2    1    3    3    0  502 -0.21629252079E+02 -0.40116619100E+02  0.30494748561E+02  0.54837007243E+02  0.00000000000E+00 0.  1.
<mgrwt>
<rscale>  0 0.91201171E+02</rscale>
<asrwt>0</asrwt>
<pdfrwt beam="2">  1        4 0.38722152E-02 0.91201171E+02</pdfrwt>
<pdfrwt beam="1">  1       -4 0.12710266E-01 0.91201171E+02</pdfrwt>
<totfact> 0.25965830E+04</totfact>
</mgrwt>
</event>
<event>
 5    1  0.3858846E+001  0.9071735E+02  0.7546771E-02  0.1301124E+00
         -2   -1    0    0    0  501 -0.00000000000E+00  0.00000000000E+00  0.36296570565E+01  0.36296570565E+01  0.00000000000E+00 0.  1.
          2   -1    0    0  501    0  0.00000000000E+00 -0.00000000000E+00 -0.56683302923E+03  0.56683302923E+03  0.00000000000E+00 0. -1.
         23    2    1    2    0    0  0.00000000000E+00  0.00000000000E+00 -0.56320337217E+03  0.57046268628E+03  0.90717352351E+02 0.  0.
          2    1    3    3  502    0 -0.45733339702E+01 -0.41651109001E+02 -0.17237982093E+03  0.17739936000E+03  0.00000000000E+00 0.  1.
         -2    1    3    3    0  502  0.45733339702E+01  0.41651109001E+02 -0.39082355124E+03  0.39306332629E+03  0.00000000000E+00 0. -1.
<mgrwt>
<rscale>  0 0.90717352E+02</rscale>
<asrwt>0</asrwt>
<pdfrwt beam="2">  1        2 0.87205080E-01 0.90717352E+02</pdfrwt>
<pdfrwt beam="1">  1       -2 0.55840879E-03 0.90717352E+02</pdfrwt>
<totfact> 0.22711976E+05</totfact>
</mgrwt>
</event>
<event>
 5    1  0.3858846E+001  0.8908897E+02  0.7546771E-02  0.1305073E+00
          2   -1    0    0  501    0  0.00000000000E+00  0.00000000000E+00  0.11365828043E+02  0.11365828043E+02  0.00000000000E+00 0. -1.
         -2   -1    0    0    0  501 -0.00000000000E+00 -0.00000000000E+00 -0.17457692660E+03  0.17457692660E+03  0.00000000000E+00 0.  1.
         23    2    1    2    0    0  0.00000000000E+00  0.00000000000E+00 -0.16321109856E+03  0.18594275464E+03  0.89088974133E+02 0.  0.
          2    1    3    3  502    0 -0.35228438710E+02  0.27157113010E+02 -0.76640198010E+02  0.88613044367E+02  0.00000000000E+00 0. -1.
         -2    1    3    3    0  502  0.35228438710E+02 -0.27157113010E+02 -0.86570900548E+02  0.97329710277E+02  0.00000000000E+00 0.  1.
<mgrwt>
<rscale>  0 0.89088974E+02</rscale>
<asrwt>0</asrwt>
<pdfrwt beam="1">  1        2 0.17485890E-02 0.89088974E+02</pdfrwt>
<pdfrwt beam="2">  1       -2 0.26857987E-01 0.89088974E+02</pdfrwt>
<totfact> 0.69937334E+04</totfact>
</mgrwt>
</event>
<event>
 5    1  0.3858846E+001  0.8438611E+02  0.7546771E-02  0.1317046E+00
          1   -1    0    0  501    0  0.00000000000E+00  0.00000000000E+00  0.74118132188E+03  0.74118132188E+03  0.00000000000E+00 0. -1.
         -1   -1    0    0    0  501 -0.00000000000E+00 -0.00000000000E+00 -0.24019140572E+01  0.24019140572E+01  0.00000000000E+00 0.  1.
         23    2    1    2    0    0  0.00000000000E+00  0.00000000000E+00  0.73877940782E+03  0.74358323594E+03  0.84386108713E+02 0.  0.
          2    1    3    3  502    0  0.27974706898E+02 -0.97950406920E+01  0.10478588063E+03  0.10889723517E+03  0.00000000000E+00 0.  1.
         -2    1    3    3    0  502 -0.27974706898E+02  0.97950406920E+01  0.63399352719E+03  0.63468600076E+03  0.00000000000E+00 0. -1.
<mgrwt>
<rscale>  0 0.84386109E+02</rscale>
<asrwt>0</asrwt>
<pdfrwt beam="1">  1        1 0.11402771E+00 0.84386109E+02</pdfrwt>
<pdfrwt beam="2">  1       -1 0.36952583E-03 0.84386109E+02</pdfrwt>
<totfact> 0.17408811E+05</totfact>
</mgrwt>
</event>
<event>
 5    1  0.3858846E+001  0.9569435E+02  0.7546771E-02  0.1289620E+00
          2   -1    0    0  501    0  0.00000000000E+00  0.00000000000E+00  0.11141402569E+04  0.11141402569E+04  0.00000000000E+00 0. -1.
         -2   -1    0    0    0  501 -0.00000000000E+00 -0.00000000000E+00 -0.20548149850E+01  0.20548149850E+01  0.00000000000E+00 0.  1.
         23    2    1    2    0    0  0.00000000000E+00  0.00000000000E+00  0.11120854419E+04  0.11161950719E+04  0.95694348741E+02 0.  0.
          2    1    3    3  502    0 -0.24654652493E+01 -0.32740255680E+02  0.96200762875E+03  0.96256775379E+03  0.00000000000E+00 0. -1.
         -2    1    3    3    0  502  0.24654652493E+01  0.32740255680E+02  0.15007781315E+03  0.15362731808E+03  0.00000000000E+00 0.  1.
<mgrwt>
<rscale>  0 0.95694349E+02</rscale>
<asrwt>0</asrwt>
<pdfrwt beam="1">  1        2 0.17140571E+00 0.95694349E+02</pdfrwt>
<pdfrwt beam="2">  1       -2 0.31612627E-03 0.95694349E+02</pdfrwt>
<totfact> 0.22011497E+05</totfact>
</mgrwt>
</event>
<event>
 5    1  0.3858846E+001  0.9078529E+02  0.7546771E-02  0.1300961E+00
          3   -1    0    0  501    0  0.00000000000E+00  0.00000000000E+00  0.68614917645E+02  0.68614917645E+02  0.00000000000E+00 0. -1.
         -3   -1    0    0    0  501 -0.00000000000E+00 -0.00000000000E+00 -0.30029799547E+02  0.30029799547E+02  0.00000000000E+00 0.  1.
         23    2    1    2    0    0  0.00000000000E+00  0.00000000000E+00  0.38585118098E+02  0.98644717191E+02  0.90785290059E+02 0.  0.
          2    1    3    3  502    0  0.30603214267E+02  0.38587099315E+01  0.55477935778E+02  0.63476355629E+02  0.00000000000E+00 0. -1.
         -2    1    3    3    0  502 -0.30603214267E+02 -0.38587099315E+01 -0.16892817680E+02  0.35168361562E+02  0.00000000000E+00 0.  1.
<mgrwt>
<rscale>  0 0.90785290E+02</rscale>
<asrwt>0</asrwt>
<pdfrwt beam="1">  1        3 0.10556141E-01 0.90785290E+02</pdfrwt>
<pdfrwt beam="2">  1       -3 0.46199692E-02 0.90785290E+02</pdfrwt>
<totfact> 0.35181250E+04</totfact>
</mgrwt>
</event>
<event>
 5    1  0.3858846E+001  0.9101619E+02  0.7546771E-02  0.1300409E+00
         -1   -1    0    0    0  501 -0.00000000000E+00  0.00000000000E+00  0.13643861875E+01  0.13643861875E+01  0.00000000000E+00 0.  1.
          1   -1    0    0  501    0  0.00000000000E+00 -0.00000000000E+00 -0.15178890304E+04  0.15178890304E+04  0.00000000000E+00 0. -1.
         23    2    1    2    0    0  0.00000000000E+00  0.00000000000E+00 -0.15165246442E+04  0.15192534166E+04  0.91016192563E+02 0.  0.
          2    1    3    3  502    0 -0.22562593966E+02  0.40873296976E+01 -0.14144155975E+04  0.14146014489E+04  0.00000000000E+00 0. -1.
         -2    1    3    3    0  502  0.22562593966E+02 -0.40873296976E+01 -0.10210904670E+03  0.10465196763E+03  0.00000000000E+00 0.  1.
<mgrwt>
<rscale>  0 0.91016193E+02</rscale>
<asrwt>0</asrwt>
<pdfrwt beam="2">  1        1 0.23352028E+00 0.91016193E+02</pdfrwt>
<pdfrwt beam="1">  1       -1 0.20990656E-03 0.91016193E+02</pdfrwt>
<totfact> 0.10994049E+05</totfact>
</mgrwt>
</event>
<event>
 5    1  0.3858846E+001  0.9180687E+02  0.7546771E-02  0.1298534E+00
         -3   -1    0    0    0  501 -0.00000000000E+00  0.00000000000E+00  0.10878067072E+01  0.10878067072E+01  0.00000000000E+00 0.  1.
          3   -1    0    0  501    0  0.00000000000E+00 -0.00000000000E+00 -0.19370402577E+04  0.19370402577E+04  0.00000000000E+00 0. -1.
         23    2    1    2    0    0  0.00000000000E+00  0.00000000000E+00 -0.19359524510E+04  0.19381280644E+04  0.91806870863E+02 0.  0.
          2    1    3    3  502    0  0.34920802297E+01  0.28355613776E+02 -0.20948267710E+03  0.21142191812E+03  0.00000000000E+00 0.  1.
         -2    1    3    3    0  502 -0.34920802297E+01 -0.28355613776E+02 -0.17264697739E+04  0.17267061463E+04  0.00000000000E+00 0. -1.
<mgrwt>
<rscale>  0 0.91806871E+02</rscale>
<asrwt>0</asrwt>
<pdfrwt beam="2">  1        3 0.29800456E+00 0.91806871E+02</pdfrwt>
<pdfrwt beam="1">  1       -3 0.16735580E-03 0.91806871E+02</pdfrwt>
<totfact> 0.38440303E+03</totfact>
</mgrwt>
</event>
<event>
 5    1  0.3858846E+001  0.9406375E+02  0.7546771E-02  0.1293299E+00
         -1   -1    0    0    0  501 -0.00000000000E+00  0.00000000000E+00  0.12472949493E+03  0.12472949493E+03  0.00000000000E+00 0.  1.
          1   -1    0    0  501    0  0.00000000000E+00 -0.00000000000E+00 -0.17734354639E+02  0.17734354639E+02  0.00000000000E+00 0. -1.
         23    2    1    2    0    0  0.00000000000E+00  0.00000000000E+00  0.10699514029E+03  0.14246384957E+03  0.94063746407E+02 0.  0.
          2    1    3    3  502    0  0.55875603757E+01 -0.45356046675E+02  0.36659165456E+02  0.58585716799E+02  0.00000000000E+00 0. -1.
         -2    1    3    3    0  502 -0.55875603757E+01  0.45356046675E+02  0.70335974836E+02  0.83878132771E+02  0.00000000000E+00 0.  1.
<mgrwt>
<rscale>  0 0.94063746E+02</rscale>
<asrwt>0</asrwt>
<pdfrwt beam="2">  1        1 0.27283623E-02 0.94063746E+02</pdfrwt>
<pdfrwt beam="1">  1       -1 0.19189152E-01 0.94063746E+02</pdfrwt>
<totfact> 0.71860122E+04</totfact>
</mgrwt>
</event>
<event>
 5    1  0.3858846E+001  0.8961390E+02  0.7546771E-02  0.1303789E+00
         -1   -1    0    0    0  501 -0.00000000000E+00  0.00000000000E+00  0.49911016892E+02  0.49911016892E+02  0.00000000000E+00 0.  1.
          1   -1    0    0  501    0  0.00000000000E+00 -0.00000000000E+00 -0.40224838827E+02  0.40224838827E+02  0.00000000000E+00 0. -1.
         23    2    1    2    0    0  0.00000000000E+00  0.00000000000E+00  0.96861780656E+01  0.90135855719E+02  0.89613896470E+02 0.  0.
          2    1    3    3  502    0  0.43441438378E+02  0.10960487229E+02  0.42298152222E+01  0.45002024238E+02  0.00000000000E+00 0. -1.
         -2    1    3    3    0  502 -0.43441438378E+02 -0.10960487229E+02  0.54563628434E+01  0.45133831481E+02  0.00000000000E+00 0.  1.
<mgrwt>
<rscale>  0 0.89613896E+02</rscale>
<asrwt>0</asrwt>
<pdfrwt beam="2">  1        1 0.61884368E-02 0.89613896E+02</pdfrwt>
<pdfrwt beam="1">  1       -1 0.76786179E-02 0.89613896E+02</pdfrwt>
<totfact> 0.95270947E+04</totfact>
</mgrwt>
</event>
<event>
 5    1  0.3858846E+001  0.9075668E+02  0.7546771E-02  0.1301030E+00
          2   -1    0    0  501    0  0.00000000000E+00  0.00000000000E+00  0.52607026900E+03  0.52607026900E+03  0.00000000000E+00 0.  1.
         -2   -1    0    0    0  501 -0.00000000000E+00 -0.00000000000E+00 -0.39142942262E+01  0.39142942262E+01  0.00000000000E+00 0. -1.
         23    2    1    2    0    0  0.00000000000E+00  0.00000000000E+00  0.52215597477E+03  0.52998456322E+03  0.90756681660E+02 0.  0.
          2    1    3    3  502    0  0.24020660027E+02  0.37977895334E+02  0.22419988374E+03  0.22865891741E+03  0.00000000000E+00 0. -1.
         -2    1    3    3    0  502 -0.24020660027E+02 -0.37977895334E+02  0.29795609103E+03  0.30132564582E+03  0.00000000000E+00 0.  1.
<mgrwt>
<rscale>  0 0.90756682E+02</rscale>
<asrwt>0</asrwt>
<pdfrwt beam="1">  1        2 0.80933831E-01 0.90756682E+02</pdfrwt>
<pdfrwt beam="2">  1       -2 0.60219953E-03 0.90756682E+02</pdfrwt>
<totfact> 0.22172124E+05</totfact>
</mgrwt>
</event>
<event>
 5    1  0.3858846E+001  0.9178271E+02  0.7546771E-02  0.1298591E+00
         -2   -1    0    0    0  501 -0.00000000000E+00  0.00000000000E+00  0.15550054241E+02  0.15550054241E+02  0.00000000000E+00 0.  1.
          2   -1    0    0  501    0  0.00000000000E+00 -0.00000000000E+00 -0.13543467031E+03  0.13543467031E+03  0.00000000000E+00 0. -1.
         23    2    1    2    0    0  0.00000000000E+00  0.00000000000E+00 -0.11988461607E+03  0.15098472456E+03  0.91782710125E+02 0.  0.
          2    1    3    3  502    0  0.66653957517E+01  0.22292673652E+02 -0.12501179153E+03  0.12715871508E+03  0.00000000000E+00 0. -1.
         -2    1    3    3    0  502 -0.66653957517E+01 -0.22292673652E+02  0.51271754615E+01  0.23826009471E+02  0.00000000000E+00 0.  1.
<mgrwt>
<rscale>  0 0.91782710E+02</rscale>
<asrwt>0</asrwt>
<pdfrwt beam="2">  1        2 0.20836102E-01 0.91782710E+02</pdfrwt>
<pdfrwt beam="1">  1       -2 0.23923161E-02 0.91782710E+02</pdfrwt>
<totfact> 0.13267593E+05</totfact>
</mgrwt>
</event>
<event>
 5    1  0.3858846E+001  0.9277093E+02  0.7546771E-02  0.1296277E+00
         -1   -1    0    0    0  501 -0.00000000000E+00  0.00000000000E+00  0.20423934461E+01  0.20423934461E+01  0.00000000000E+00 0.  1.
          1   -1    0    0  501    0  0.00000000000E+00 -0.00000000000E+00 -0.10534755115E+04  0.10534755115E+04  0.00000000000E+00 0. -1.
         23    2    1    2    0    0  0.00000000000E+00  0.00000000000E+00 -0.10514331181E+04  0.10555179050E+04  0.92770932525E+02 0.  0.
          2    1    3    3  502    0 -0.25060375044E+02  0.16054211290E+01 -0.96944775354E+03  0.96977293560E+03  0.00000000000E+00 0. -1.
         -2    1    3    3    0  502  0.25060375044E+02 -0.16054211290E+01 -0.81985364557E+02  0.85744969391E+02  0.00000000000E+00 0.  1.
<mgrwt>
<rscale>  0 0.92770933E+02</rscale>
<asrwt>0</asrwt>
<pdfrwt beam="2">  1        1 0.16207349E+00 0.92770933E+02</pdfrwt>
<pdfrwt beam="1">  1       -1 0.31421373E-03 0.92770933E+02</pdfrwt>
<totfact> 0.12795959E+05</totfact>
</mgrwt>
</event>
<event>
 5    1  0.3858846E+001  0.1081202E+03  0.7546771E-02  0.1264091E+00
         -1   -1    0    0    0  501 -0.00000000000E+00  0.00000000000E+00  0.47720002433E+02  0.47720002433E+02  0.00000000000E+00 0.  1.
          1   -1    0    0  501    0  0.00000000000E+00 -0.00000000000E+00 -0.61242595736E+02  0.61242595736E+02  0.00000000000E+00 0. -1.
         23    2    1    2    0    0  0.00000000000E+00  0.00000000000E+00 -0.13522593303E+02  0.10896259817E+03  0.10812024450E+03 0.  0.
          2    1    3    3  502    0 -0.49484064974E+02  0.15330864307E+02 -0.22334478136E+02  0.56413978767E+02  0.00000000000E+00 0. -1.
         -2    1    3    3    0  502  0.49484064974E+02 -0.15330864307E+02  0.88118848335E+01  0.52548619402E+02  0.00000000000E+00 0.  1.
<mgrwt>
<rscale>  0 0.10812024E+03</rscale>
<asrwt>0</asrwt>
<pdfrwt beam="2">  1        1 0.94219377E-02 0.10812024E+03</pdfrwt>
<pdfrwt beam="1">  1       -1 0.73415389E-02 0.10812024E+03</pdfrwt>
<totfact> 0.59887691E+04</totfact>
</mgrwt>
</event>
<event>
 5    1  0.3858846E+001  0.9074828E+02  0.7546771E-02  0.1301050E+00
         -2   -1    0    0    0  501 -0.00000000000E+00  0.00000000000E+00  0.25955657241E+03  0.25955657241E+03  0.00000000000E+00 0. -1.
          2   -1    0    0  501    0  0.00000000000E+00 -0.00000000000E+00 -0.79320379558E+01  0.79320379558E+01  0.00000000000E+00 0.  1.
         23    2    1    2    0    0  0.00000000000E+00  0.00000000000E+00  0.25162453446E+03  0.26748861037E+03  0.90748280073E+02 0.  0.
          2    1    3    3  502    0  0.28943244832E+02  0.18697886533E+02  0.21282807301E+03  0.21559942264E+03  0.00000000000E+00 0. -1.
         -2    1    3    3    0  502 -0.28943244832E+02 -0.18697886533E+02  0.38796461446E+02  0.51889187727E+02  0.00000000000E+00 0.  1.
<mgrwt>
<rscale>  0 0.90748280E+02</rscale>
<asrwt>0</asrwt>
<pdfrwt beam="2">  1        2 0.12203137E-02 0.90748280E+02</pdfrwt>
<pdfrwt beam="1">  1       -2 0.39931774E-01 0.90748280E+02</pdfrwt>
<totfact> 0.55793070E+04</totfact>
</mgrwt>
</event>
<event>
 5    1  0.3858846E+001  0.8324414E+02  0.7546771E-02  0.1320089E+00
          1   -1    0    0  501    0  0.00000000000E+00  0.00000000000E+00  0.25076256406E+03  0.25076256406E+03  0.00000000000E+00 0. -1.
         -1   -1    0    0    0  501 -0.00000000000E+00 -0.00000000000E+00 -0.69085141377E+01  0.69085141377E+01  0.00000000000E+00 0.  1.
         23    2    1    2    0    0  0.00000000000E+00  0.00000000000E+00  0.24385404993E+03  0.25767107820E+03  0.83244140191E+02 0.  0.
          2    1    3    3  502    0 -0.13382524125E+02  0.36480850515E+02  0.75760151345E+02  0.85144259572E+02  0.00000000000E+00 0.  1.
         -2    1    3    3    0  502  0.13382524125E+02 -0.36480850515E+02  0.16809389858E+03  0.17252681863E+03  0.00000000000E+00 0. -1.
<mgrwt>
<rscale>  0 0.83244140E+02</rscale>
<asrwt>0</asrwt>
<pdfrwt beam="1">  1        1 0.38578849E-01 0.83244140E+02</pdfrwt>
<pdfrwt beam="2">  1       -1 0.10628485E-02 0.83244140E+02</pdfrwt>
<totfact> 0.15760381E+05</totfact>
</mgrwt>
</event>
<event>
 5    1  0.3858846E+001  0.9227161E+02  0.7546771E-02  0.1297442E+00
         -1   -1    0    0    0  501 -0.00000000000E+00  0.00000000000E+00  0.39491283777E+01  0.39491283777E+01  0.00000000000E+00 0.  1.
          1   -1    0    0  501    0  0.00000000000E+00 -0.00000000000E+00 -0.53898284270E+03  0.53898284270E+03  0.00000000000E+00 0. -1.
         23    2    1    2    0    0  0.00000000000E+00  0.00000000000E+00 -0.53503371432E+03  0.54293197107E+03  0.92271608616E+02 0.  0.
          2    1    3    3  502    0 -0.39469716076E+01 -0.30252697156E+02 -0.47115204716E+03  0.47213880990E+03  0.00000000000E+00 0. -1.
         -2    1    3    3    0  502  0.39469716076E+01  0.30252697156E+02 -0.63881667153E+02  0.70793161169E+02  0.00000000000E+00 0.  1.
<mgrwt>
<rscale>  0 0.92271609E+02</rscale>
<asrwt>0</asrwt>
<pdfrwt beam="2">  1        1 0.82920422E-01 0.92271609E+02</pdfrwt>
<pdfrwt beam="1">  1       -1 0.60755833E-03 0.92271609E+02</pdfrwt>
<totfact> 0.13602213E+05</totfact>
</mgrwt>
</event>
<event>
 5    1  0.3858846E+001  0.9138609E+02  0.7546771E-02  0.1299529E+00
         -2   -1    0    0    0  501 -0.00000000000E+00  0.00000000000E+00  0.15536780815E+01  0.15536780815E+01  0.00000000000E+00 0.  1.
          2   -1    0    0  501    0  0.00000000000E+00 -0.00000000000E+00 -0.13438139869E+04  0.13438139869E+04  0.00000000000E+00 0. -1.
         23    2    1    2    0    0  0.00000000000E+00  0.00000000000E+00 -0.13422603089E+04  0.13453676650E+04  0.91386089469E+02 0.  0.
          2    1    3    3  502    0 -0.13541644839E+02  0.39262901908E+02 -0.95158051777E+03  0.95248644789E+03  0.00000000000E+00 0. -1.
         -2    1    3    3    0  502  0.13541644839E+02 -0.39262901908E+02 -0.39067979109E+03  0.39288121713E+03  0.00000000000E+00 0.  1.
<mgrwt>
<rscale>  0 0.91386089E+02</rscale>
<asrwt>0</asrwt>
<pdfrwt beam="2">  1        2 0.20673965E+00 0.91386089E+02</pdfrwt>
<pdfrwt beam="1">  1       -2 0.23902851E-03 0.91386089E+02</pdfrwt>
<totfact> 0.24249459E+05</totfact>
</mgrwt>
</event>
<event>
 5    1  0.3858846E+001  0.1076239E+03  0.7546771E-02  0.1265034E+00
         -2   -1    0    0    0  501 -0.00000000000E+00  0.00000000000E+00  0.12430304882E+03  0.12430304882E+03  0.00000000000E+00 0.  1.
          2   -1    0    0  501    0  0.00000000000E+00 -0.00000000000E+00 -0.23295698493E+02  0.23295698493E+02  0.00000000000E+00 0. -1.
         23    2    1    2    0    0  0.00000000000E+00  0.00000000000E+00  0.10100735032E+03  0.14759874731E+03  0.10762390714E+03 0.  0.
          2    1    3    3  502    0 -0.80126771760E+01  0.52982222288E+02  0.57279081175E+02  0.78436037727E+02  0.00000000000E+00 0.  1.
         -2    1    3    3    0  502  0.80126771760E+01 -0.52982222288E+02  0.43728269150E+02  0.69162709584E+02  0.00000000000E+00 0. -1.
<mgrwt>
<rscale>  0 0.10762391E+03</rscale>
<asrwt>0</asrwt>
<pdfrwt beam="2">  1        2 0.35839537E-02 0.10762391E+03</pdfrwt>
<pdfrwt beam="1">  1       -2 0.19123546E-01 0.10762391E+03</pdfrwt>
<totfact> 0.49155010E+04</totfact>
</mgrwt>
</event>
<event>
 5    1  0.3858846E+001  0.8883632E+02  0.7546771E-02  0.1305694E+00
         -2   -1    0    0    0  501 -0.00000000000E+00  0.00000000000E+00  0.12479201443E+01  0.12479201443E+01  0.00000000000E+00 0.  1.
          2   -1    0    0  501    0  0.00000000000E+00 -0.00000000000E+00 -0.15810089027E+04  0.15810089027E+04  0.00000000000E+00 0. -1.
         23    2    1    2    0    0  0.00000000000E+00  0.00000000000E+00 -0.15797609825E+04  0.15822568228E+04  0.88836318204E+02 0.  0.
          2    1    3    3  502    0  0.38286766975E+02 -0.22395875359E+02 -0.74803013002E+03  0.74934406462E+03  0.00000000000E+00 0. -1.
         -2    1    3    3    0  502 -0.38286766975E+02  0.22395875359E+02 -0.83173085251E+03  0.83291275820E+03  0.00000000000E+00 0.  1.
<mgrwt>
<rscale>  0 0.88836318E+02</rscale>
<asrwt>0</asrwt>
<pdfrwt beam="2">  1        2 0.24323157E+00 0.88836318E+02</pdfrwt>
<pdfrwt beam="1">  1       -2 0.19198817E-03 0.88836318E+02</pdfrwt>
<totfact> 0.24719731E+05</totfact>
</mgrwt>
</event>
<event>
 5    1  0.3858846E+001  0.9137720E+02  0.7546771E-02  0.1299550E+00
          2   -1    0    0  501    0  0.00000000000E+00  0.00000000000E+00  0.58551169591E+03  0.58551169591E+03  0.00000000000E+00 0. -1.
         -2   -1    0    0    0  501 -0.00000000000E+00 -0.00000000000E+00 -0.35651692041E+01  0.35651692041E+01  0.00000000000E+00 0.  1.
         23    2    1    2    0    0  0.00000000000E+00  0.00000000000E+00  0.58194652671E+03  0.58907686512E+03  0.91377202122E+02 0.  0.
          2    1    3    3  502    0 -0.16920806571E+02  0.16125300366E+02  0.54404918417E+03  0.54455105712E+03  0.00000000000E+00 0. -1.
         -2    1    3    3    0  502  0.16920806571E+02 -0.16125300366E+02  0.37897342537E+02  0.44525808002E+02  0.00000000000E+00 0.  1.
<mgrwt>
<rscale>  0 0.91377202E+02</rscale>
<asrwt>0</asrwt>
<pdfrwt beam="1">  1        2 0.90078646E-01 0.91377202E+02</pdfrwt>
<pdfrwt beam="2">  1       -2 0.54848804E-03 0.91377202E+02</pdfrwt>
<totfact> 0.22494904E+05</totfact>
</mgrwt>
</event>
<event>
 5    1  0.3858846E+001  0.8661098E+02  0.7546771E-02  0.1311273E+00
          2   -1    0    0  501    0  0.00000000000E+00  0.00000000000E+00  0.38728615142E+03  0.38728615142E+03  0.00000000000E+00 0. -1.
         -2   -1    0    0    0  501 -0.00000000000E+00 -0.00000000000E+00 -0.48423254758E+01  0.48423254758E+01  0.00000000000E+00 0.  1.
         23    2    1    2    0    0  0.00000000000E+00  0.00000000000E+00  0.38244382594E+03  0.39212847690E+03  0.86610983078E+02 0.  0.
          2    1    3    3  502    0 -0.83940925039E+01 -0.22576343300E+02  0.35416130853E+03  0.35497941423E+03  0.00000000000E+00 0. -1.
         -2    1    3    3    0  502  0.83940925039E+01  0.22576343300E+02  0.28282517411E+02  0.37149062665E+02  0.00000000000E+00 0.  1.
<mgrwt>
<rscale>  0 0.86610983E+02</rscale>
<asrwt>0</asrwt>
<pdfrwt beam="1">  1        2 0.59582460E-01 0.86610983E+02</pdfrwt>
<pdfrwt beam="2">  1       -2 0.74497345E-03 0.86610983E+02</pdfrwt>
<totfact> 0.22607517E+05</totfact>
</mgrwt>
</event>
<event>
 5    1  0.3858846E+001  0.8997061E+02  0.7546771E-02  0.1302923E+00
          3   -1    0    0  501    0  0.00000000000E+00  0.00000000000E+00  0.49988579672E+02  0.49988579672E+02  0.00000000000E+00 0. -1.
         -3   -1    0    0    0  501 -0.00000000000E+00 -0.00000000000E+00 -0.40482797614E+02  0.40482797614E+02  0.00000000000E+00 0.  1.
         23    2    1    2    0    0  0.00000000000E+00  0.00000000000E+00  0.95057820579E+01  0.90471377286E+02  0.89970607509E+02 0.  0.
          2    1    3    3  502    0  0.41469461646E+02  0.91081101976E+01  0.19701826103E+02  0.46806365724E+02  0.00000000000E+00 0. -1.
         -2    1    3    3    0  502 -0.41469461646E+02 -0.91081101976E+01 -0.10196044045E+02  0.43665011562E+02  0.00000000000E+00 0.  1.
<mgrwt>
<rscale>  0 0.89970608E+02</rscale>
<asrwt>0</asrwt>
<pdfrwt beam="1">  1        3 0.76905507E-02 0.89970608E+02</pdfrwt>
<pdfrwt beam="2">  1       -3 0.62281227E-02 0.89970608E+02</pdfrwt>
<totfact> 0.36698426E+04</totfact>
</mgrwt>
</event>
<event>
 5    1  0.3858846E+001  0.9010365E+02  0.7546771E-02  0.1302601E+00
          2   -1    0    0  501    0  0.00000000000E+00  0.00000000000E+00  0.11418291249E+04  0.11418291249E+04  0.00000000000E+00 0. -1.
         -2   -1    0    0    0  501 -0.00000000000E+00 -0.00000000000E+00 -0.17775573468E+01  0.17775573468E+01  0.00000000000E+00 0.  1.
         23    2    1    2    0    0  0.00000000000E+00  0.00000000000E+00  0.11400515675E+04  0.11436066822E+04  0.90103645868E+02 0.  0.
          2    1    3    3  502    0 -0.26585391230E+02  0.10262988586E+02  0.10128981438E+04  0.10132989498E+04  0.00000000000E+00 0. -1.
         -2    1    3    3    0  502  0.26585391230E+02 -0.10262988586E+02  0.12715342368E+03  0.13030773237E+03  0.00000000000E+00 0.  1.
<mgrwt>
<rscale>  0 0.90103646E+02</rscale>
<asrwt>0</asrwt>
<pdfrwt beam="1">  1        2 0.17566543E+00 0.90103646E+02</pdfrwt>
<pdfrwt beam="2">  1       -2 0.27347127E-03 0.90103646E+02</pdfrwt>
<totfact> 0.25765648E+05</totfact>
</mgrwt>
</event>
<event>
 5    1  0.3858846E+001  0.9096684E+02  0.7546771E-02  0.1300527E+00
          1   -1    0    0  501    0  0.00000000000E+00  0.00000000000E+00  0.26067551549E+02  0.26067551549E+02  0.00000000000E+00 0. -1.
         -1   -1    0    0    0  501 -0.00000000000E+00 -0.00000000000E+00 -0.79360787178E+02  0.79360787178E+02  0.00000000000E+00 0.  1.
         23    2    1    2    0    0  0.00000000000E+00  0.00000000000E+00 -0.53293235629E+02  0.10542833873E+03  0.90966838149E+02 0.  0.
          2    1    3    3  502    0  0.10751806586E+02 -0.27383098745E+02  0.13556737398E+02  0.32391674403E+02  0.00000000000E+00 0. -1.
         -2    1    3    3    0  502 -0.10751806586E+02  0.27383098745E+02 -0.66849973027E+02  0.73036664323E+02  0.00000000000E+00 0.  1.
<mgrwt>
<rscale>  0 0.90966838E+02</rscale>
<asrwt>0</asrwt>
<pdfrwt beam="1">  1        1 0.40103925E-02 0.90966838E+02</pdfrwt>
<pdfrwt beam="2">  1       -1 0.12209352E-01 0.90966838E+02</pdfrwt>
<totfact> 0.85267261E+04</totfact>
</mgrwt>
</event>
<event>
 5    1  0.3858846E+001  0.9125645E+02  0.7546771E-02  0.1299837E+00
         -1   -1    0    0    0  501 -0.00000000000E+00  0.00000000000E+00  0.11839742251E+01  0.11839742251E+01  0.00000000000E+00 0.  1.
          1   -1    0    0  501    0  0.00000000000E+00 -0.00000000000E+00 -0.17584291272E+04  0.17584291272E+04  0.00000000000E+00 0. -1.
         23    2    1    2    0    0  0.00000000000E+00  0.00000000000E+00 -0.17572451530E+04  0.17596131015E+04  0.91256446639E+02 0.  0.
          2    1    3    3  502    0  0.21588421012E+02 -0.34233617083E+02 -0.12848909215E+04  0.12855281719E+04  0.00000000000E+00 0. -1.
         -2    1    3    3    0  502 -0.21588421012E+02  0.34233617083E+02 -0.47235423148E+03  0.47408492958E+03  0.00000000000E+00 0.  1.
<mgrwt>
<rscale>  0 0.91256447E+02</rscale>
<asrwt>0</asrwt>
<pdfrwt beam="2">  1        1 0.27052805E+00 0.91256447E+02</pdfrwt>
<pdfrwt beam="1">  1       -1 0.18214955E-03 0.91256447E+02</pdfrwt>
<totfact> 0.94342783E+04</totfact>
</mgrwt>
</event>
<event>
 5    1  0.3858846E+001  0.9008185E+02  0.7546771E-02  0.1302654E+00
          1   -1    0    0  501    0  0.00000000000E+00  0.00000000000E+00  0.25958978048E+03  0.25958978048E+03  0.00000000000E+00 0. -1.
         -1   -1    0    0    0  501 -0.00000000000E+00 -0.00000000000E+00 -0.78149643587E+01  0.78149643587E+01  0.00000000000E+00 0.  1.
         23    2    1    2    0    0  0.00000000000E+00  0.00000000000E+00  0.25177481612E+03  0.26740474484E+03  0.90081849056E+02 0.  0.
          2    1    3    3  502    0 -0.44477818927E+02 -0.55822918648E+01  0.11286450036E+03  0.12144065958E+03  0.00000000000E+00 0. -1.
         -2    1    3    3    0  502  0.44477818927E+02  0.55822918648E+01  0.13891031576E+03  0.14596408525E+03  0.00000000000E+00 0.  1.
<mgrwt>
<rscale>  0 0.90081849E+02</rscale>
<asrwt>0</asrwt>
<pdfrwt beam="1">  1        1 0.39936883E-01 0.90081849E+02</pdfrwt>
<pdfrwt beam="2">  1       -1 0.12023024E-02 0.90081849E+02</pdfrwt>
<totfact> 0.12866084E+05</totfact>
</mgrwt>
</event>
<event>
 5    1  0.3858846E+001  0.9176784E+02  0.7546771E-02  0.1298626E+00
         -1   -1    0    0    0  501 -0.00000000000E+00  0.00000000000E+00  0.12663550848E+03  0.12663550848E+03  0.00000000000E+00 0.  1.
          1   -1    0    0  501    0  0.00000000000E+00 -0.00000000000E+00 -0.16625149291E+02  0.16625149291E+02  0.00000000000E+00 0. -1.
         23    2    1    2    0    0  0.00000000000E+00  0.00000000000E+00  0.11001035919E+03  0.14326065777E+03  0.91767842602E+02 0.  0.
          2    1    3    3  502    0 -0.19535750464E+02 -0.39921018403E+02  0.37205600701E+02  0.57961970119E+02  0.00000000000E+00 0. -1.
         -2    1    3    3    0  502  0.19535750464E+02  0.39921018403E+02  0.72804758484E+02  0.85298687648E+02  0.00000000000E+00 0.  1.
<mgrwt>
<rscale>  0 0.91767843E+02</rscale>
<asrwt>0</asrwt>
<pdfrwt beam="2">  1        1 0.25577154E-02 0.91767843E+02</pdfrwt>
<pdfrwt beam="1">  1       -1 0.19482385E-01 0.91767843E+02</pdfrwt>
<totfact> 0.76367860E+04</totfact>
</mgrwt>
</event>
<event>
 5    1  0.3858846E+001  0.9248436E+02  0.7546771E-02  0.1296945E+00
         -1   -1    0    0    0  501 -0.00000000000E+00  0.00000000000E+00  0.41570435295E+03  0.41570435295E+03  0.00000000000E+00 0.  1.
          1   -1    0    0  501    0  0.00000000000E+00 -0.00000000000E+00 -0.51438940087E+01  0.51438940087E+01  0.00000000000E+00 0. -1.
         23    2    1    2    0    0  0.00000000000E+00  0.00000000000E+00  0.41056045894E+03  0.42084824696E+03  0.92484358257E+02 0.  0.
          2    1    3    3  502    0 -0.28785070092E+01  0.33567568694E+02  0.34941425207E+03  0.35103473762E+03  0.00000000000E+00 0.  1.
         -2    1    3    3    0  502  0.28785070092E+01 -0.33567568694E+02  0.61146206876E+02  0.69813509338E+02  0.00000000000E+00 0. -1.
<mgrwt>
<rscale>  0 0.92484358E+02</rscale>
<asrwt>0</asrwt>
<pdfrwt beam="2">  1        1 0.79136864E-03 0.92484358E+02</pdfrwt>
<pdfrwt beam="1">  1       -1 0.63954489E-01 0.92484358E+02</pdfrwt>
<totfact> 0.50330217E+04</totfact>
</mgrwt>
</event>
<event>
 5    1  0.3858846E+001  0.9045307E+02  0.7546771E-02  0.1301758E+00
          1   -1    0    0  501    0  0.00000000000E+00  0.00000000000E+00  0.86940069420E+01  0.86940069420E+01  0.00000000000E+00 0. -1.
         -1   -1    0    0    0  501 -0.00000000000E+00 -0.00000000000E+00 -0.23527002919E+03  0.23527002919E+03  0.00000000000E+00 0.  1.
         23    2    1    2    0    0  0.00000000000E+00  0.00000000000E+00 -0.22657602225E+03  0.24396403613E+03  0.90453065554E+02 0.  0.
          2    1    3    3  502    0  0.36577715396E+02  0.23744648810E+02 -0.80955948865E+02  0.91954354260E+02  0.00000000000E+00 0. -1.
         -2    1    3    3    0  502 -0.36577715396E+02 -0.23744648810E+02 -0.14562007338E+03  0.15200968187E+03  0.00000000000E+00 0.  1.
<mgrwt>
<rscale>  0 0.90453066E+02</rscale>
<asrwt>0</asrwt>
<pdfrwt beam="1">  1        1 0.13375396E-02 0.90453066E+02</pdfrwt>
<pdfrwt beam="2">  1       -1 0.36195388E-01 0.90453066E+02</pdfrwt>
<totfact> 0.67467453E+04</totfact>
</mgrwt>
</event>
<event>
 5    1  0.3858846E+001  0.9141095E+02  0.7546771E-02  0.1299470E+00
          4   -1    0    0  501    0  0.00000000000E+00  0.00000000000E+00  0.10627295327E+02  0.10627295327E+02  0.00000000000E+00 0.  1.
         -4   -1    0    0    0  501 -0.00000000000E+00 -0.00000000000E+00 -0.19656839551E+03  0.19656839551E+03  0.00000000000E+00 0. -1.
         23    2    1    2    0    0  0.00000000000E+00  0.00000000000E+00 -0.18594110018E+03  0.20719569084E+03  0.91410948820E+02 0.  0.
          2    1    3    3  502    0 -0.32357539285E+02  0.30969986829E+02 -0.72340397614E+02  0.85083979454E+02  0.00000000000E+00 0. -1.
         -2    1    3    3    0  502  0.32357539285E+02 -0.30969986829E+02 -0.11360070257E+03  0.12211171138E+03  0.00000000000E+00 0.  1.
<mgrwt>
<rscale>  0 0.91410949E+02</rscale>
<asrwt>0</asrwt>
<pdfrwt beam="1">  1        4 0.16349685E-02 0.91410949E+02</pdfrwt>
<pdfrwt beam="2">  1       -4 0.30241292E-01 0.91410949E+02</pdfrwt>
<totfact> 0.20944857E+04</totfact>
</mgrwt>
</event>
<event>
 5    1  0.3858846E+001  0.9189304E+02  0.7546771E-02  0.1298331E+00
          1   -1    0    0  501    0  0.00000000000E+00  0.00000000000E+00  0.57610316823E+01  0.57610316823E+01  0.00000000000E+00 0. -1.
         -1   -1    0    0    0  501 -0.00000000000E+00 -0.00000000000E+00 -0.36644175918E+03  0.36644175918E+03  0.00000000000E+00 0.  1.
         23    2    1    2    0    0  0.00000000000E+00  0.00000000000E+00 -0.36068072749E+03  0.37220279086E+03  0.91893037480E+02 0.  0.
          2    1    3    3  502    0 -0.24381610502E+02 -0.35180929901E+02 -0.11269496406E+03  0.12055005469E+03  0.00000000000E+00 0. -1.
         -2    1    3    3    0  502  0.24381610502E+02  0.35180929901E+02 -0.24798576343E+03  0.25165273617E+03  0.00000000000E+00 0.  1.
<mgrwt>
<rscale>  0 0.91893037E+02</rscale>
<asrwt>0</asrwt>
<pdfrwt beam="1">  1        1 0.88631283E-03 0.91893037E+02</pdfrwt>
<pdfrwt beam="2">  1       -1 0.56375639E-01 0.91893037E+02</pdfrwt>
<totfact> 0.54479286E+04</totfact>
</mgrwt>
</event>
<event>
 5    1  0.3858846E+001  0.9402592E+02  0.7546771E-02  0.1293385E+00
          3   -1    0    0  501    0  0.00000000000E+00  0.00000000000E+00  0.40682640508E+02  0.40682640508E+02  0.00000000000E+00 0. -1.
         -3   -1    0    0    0  501 -0.00000000000E+00 -0.00000000000E+00 -0.54328293485E+02  0.54328293485E+02  0.00000000000E+00 0.  1.
         23    2    1    2    0    0  0.00000000000E+00  0.00000000000E+00 -0.13645652977E+02  0.95010933993E+02  0.94025920538E+02 0.  0.
          2    1    3    3  502    0  0.24889474971E+02  0.12462125326E+02  0.31461118652E+02  0.42007053203E+02  0.00000000000E+00 0. -1.
         -2    1    3    3    0  502 -0.24889474971E+02 -0.12462125326E+02 -0.45106771629E+02  0.53003880790E+02  0.00000000000E+00 0.  1.
<mgrwt>
<rscale>  0 0.94025921E+02</rscale>
<asrwt>0</asrwt>
<pdfrwt beam="1">  1        3 0.62588678E-02 0.94025921E+02</pdfrwt>
<pdfrwt beam="2">  1       -3 0.83581990E-02 0.94025921E+02</pdfrwt>
<totfact> 0.32220506E+04</totfact>
</mgrwt>
</event>
<event>
 5    1  0.3858846E+001  0.9223895E+02  0.7546771E-02  0.1297519E+00
         -1   -1    0    0    0  501 -0.00000000000E+00  0.00000000000E+00  0.22622990662E+02  0.22622990662E+02  0.00000000000E+00 0.  1.
          1   -1    0    0  501    0  0.00000000000E+00 -0.00000000000E+00 -0.94019670819E+02  0.94019670819E+02  0.00000000000E+00 0. -1.
         23    2    1    2    0    0  0.00000000000E+00  0.00000000000E+00 -0.71396680156E+02  0.11664266148E+03  0.92238953485E+02 0.  0.
          2    1    3    3  502    0 -0.40888228532E+02  0.66401323803E+01 -0.61337255398E+02  0.74014846418E+02  0.00000000000E+00 0. -1.
         -2    1    3    3    0  502  0.40888228532E+02 -0.66401323803E+01 -0.10059424758E+02  0.42627815062E+02  0.00000000000E+00 0.  1.
<mgrwt>
<rscale>  0 0.92238953E+02</rscale>
<asrwt>0</asrwt>
<pdfrwt beam="2">  1        1 0.14464565E-01 0.92238953E+02</pdfrwt>
<pdfrwt beam="1">  1       -1 0.34804601E-02 0.92238953E+02</pdfrwt>
<totfact> 0.10016964E+05</totfact>
</mgrwt>
</event>
<event>
 5    1  0.3858846E+001  0.9135967E+02  0.7546771E-02  0.1299592E+00
          1   -1    0    0  501    0  0.00000000000E+00  0.00000000000E+00  0.10422902094E+04  0.10422902094E+04  0.00000000000E+00 0. -1.
         -1   -1    0    0    0  501 -0.00000000000E+00 -0.00000000000E+00 -0.20019831657E+01  0.20019831657E+01  0.00000000000E+00 0.  1.
         23    2    1    2    0    0  0.00000000000E+00  0.00000000000E+00  0.10402882262E+04  0.10442921926E+04  0.91359672789E+02 0.  0.
          2    1    3    3  502    0 -0.13537418492E+02 -0.39974367432E+02  0.71991279111E+03  0.72114883245E+03  0.00000000000E+00 0. -1.
         -2    1    3    3    0  502  0.13537418492E+02  0.39974367432E+02  0.32037543513E+03  0.32314336012E+03  0.00000000000E+00 0.  1.
<mgrwt>
<rscale>  0 0.91359673E+02</rscale>
<asrwt>0</asrwt>
<pdfrwt beam="1">  1        1 0.16035191E+00 0.91359673E+02</pdfrwt>
<pdfrwt beam="2">  1       -1 0.30799824E-03 0.91359673E+02</pdfrwt>
<totfact> 0.13370171E+05</totfact>
</mgrwt>
</event>
<event>
 5    1  0.3858846E+001  0.9239514E+02  0.7546771E-02  0.1297153E+00
         -2   -1    0    0    0  501 -0.00000000000E+00  0.00000000000E+00  0.61155493743E+00  0.61155493743E+00  0.00000000000E+00 0. -1.
          2   -1    0    0  501    0  0.00000000000E+00 -0.00000000000E+00 -0.34898183961E+04  0.34898183961E+04  0.00000000000E+00 0.  1.
         23    2    1    2    0    0  0.00000000000E+00  0.00000000000E+00 -0.34892068411E+04  0.34904299510E+04  0.92395144263E+02 0.  0.
          2    1    3    3  502    0  0.27876737624E+02 -0.33221065680E+02 -0.23460373035E+04  0.23464381051E+04  0.00000000000E+00 0.  1.
         -2    1    3    3    0  502 -0.27876737624E+02  0.33221065680E+02 -0.11431695377E+04  0.11439918459E+04  0.00000000000E+00 0. -1.
<mgrwt>
<rscale>  0 0.92395144E+02</rscale>
<asrwt>0</asrwt>
<pdfrwt beam="2">  1        2 0.53689567E+00 0.92395144E+02</pdfrwt>
<pdfrwt beam="1">  1       -2 0.94085281E-04 0.92395144E+02</pdfrwt>
<totfact> 0.61499771E+04</totfact>
</mgrwt>
</event>
<event>
 5    1  0.3858846E+001  0.8650671E+02  0.7546771E-02  0.1311539E+00
         -3   -1    0    0    0  501 -0.00000000000E+00  0.00000000000E+00  0.18365723840E+01  0.18365723840E+01  0.00000000000E+00 0.  1.
          3   -1    0    0  501    0  0.00000000000E+00 -0.00000000000E+00 -0.10186653423E+04  0.10186653423E+04  0.00000000000E+00 0. -1.
         23    2    1    2    0    0  0.00000000000E+00  0.00000000000E+00 -0.10168287699E+04  0.10205019147E+04  0.86506708093E+02 0.  0.
          2    1    3    3  502    0 -0.28365239367E+02  0.31641069619E+02 -0.41322620258E+03  0.41540539066E+03  0.00000000000E+00 0. -1.
         -2    1    3    3    0  502  0.28365239367E+02 -0.31641069619E+02 -0.60360256734E+03  0.60509652403E+03  0.00000000000E+00 0.  1.
<mgrwt>
<rscale>  0 0.86506708E+02</rscale>
<asrwt>0</asrwt>
<pdfrwt beam="2">  1        3 0.15671821E+00 0.86506708E+02</pdfrwt>
<pdfrwt beam="1">  1       -3 0.28254876E-03 0.86506708E+02</pdfrwt>
<totfact> 0.11276970E+04</totfact>
</mgrwt>
</event>
<event>
 5    1  0.3858846E+001  0.8835817E+02  0.7546771E-02  0.1306877E+00
         -1   -1    0    0    0  501 -0.00000000000E+00  0.00000000000E+00  0.17755232283E+03  0.17755232283E+03  0.00000000000E+00 0.  1.
          1   -1    0    0  501    0  0.00000000000E+00 -0.00000000000E+00 -0.10992768506E+02  0.10992768506E+02  0.00000000000E+00 0. -1.
         23    2    1    2    0    0  0.00000000000E+00  0.00000000000E+00  0.16655955433E+03  0.18854509134E+03  0.88358170705E+02 0.  0.
          2    1    3    3  502    0 -0.72494872863E+01 -0.37925176363E+02  0.37467685615E+02  0.53802430553E+02  0.00000000000E+00 0. -1.
         -2    1    3    3    0  502  0.72494872863E+01  0.37925176363E+02  0.12909186871E+03  0.13474266078E+03  0.00000000000E+00 0.  1.
<mgrwt>
<rscale>  0 0.88358171E+02</rscale>
<asrwt>0</asrwt>
<pdfrwt beam="2">  1        1 0.16911953E-02 0.88358171E+02</pdfrwt>
<pdfrwt beam="1">  1       -1 0.27315740E-01 0.88358171E+02</pdfrwt>
<totfact> 0.77823771E+04</totfact>
</mgrwt>
</event>
<event>
 5    1  0.3858846E+001  0.9108392E+02  0.7546771E-02  0.1300248E+00
         -1   -1    0    0    0  501 -0.00000000000E+00  0.00000000000E+00  0.20860004218E+02  0.20860004218E+02  0.00000000000E+00 0.  1.
          1   -1    0    0  501    0  0.00000000000E+00 -0.00000000000E+00 -0.99428080694E+02  0.99428080694E+02  0.00000000000E+00 0. -1.
         23    2    1    2    0    0  0.00000000000E+00  0.00000000000E+00 -0.78568076476E+02  0.12028808491E+03  0.91083921363E+02 0.  0.
          2    1    3    3  502    0 -0.20508975948E+02  0.62110362185E+01 -0.92354194004E+02  0.94807659055E+02  0.00000000000E+00 0. -1.
         -2    1    3    3    0  502  0.20508975948E+02 -0.62110362185E+01  0.13786117528E+02  0.25480425857E+02  0.00000000000E+00 0.  1.
<mgrwt>
<rscale>  0 0.91083921E+02</rscale>
<asrwt>0</asrwt>
<pdfrwt beam="2">  1        1 0.15296628E-01 0.91083921E+02</pdfrwt>
<pdfrwt beam="1">  1       -1 0.32092314E-02 0.91083921E+02</pdfrwt>
<totfact> 0.10464301E+05</totfact>
</mgrwt>
</event>
<event>
 5    1  0.3858846E+001  0.9078176E+02  0.7546771E-02  0.1300970E+00
          1   -1    0    0  501    0  0.00000000000E+00  0.00000000000E+00  0.49196957998E+03  0.49196957998E+03  0.00000000000E+00 0. -1.
         -1   -1    0    0    0  501 -0.00000000000E+00 -0.00000000000E+00 -0.41879256241E+01  0.41879256241E+01  0.00000000000E+00 0.  1.
         23    2    1    2    0    0  0.00000000000E+00  0.00000000000E+00  0.48778165435E+03  0.49615750560E+03  0.90781760508E+02 0.  0.
          2    1    3    3  502    0 -0.34036745749E+02 -0.29034453934E+02  0.28581160887E+03  0.28929185149E+03  0.00000000000E+00 0. -1.
         -2    1    3    3    0  502  0.34036745749E+02  0.29034453934E+02  0.20197004548E+03  0.20686565411E+03  0.00000000000E+00 0.  1.
<mgrwt>
<rscale>  0 0.90781761E+02</rscale>
<asrwt>0</asrwt>
<pdfrwt beam="1">  1        1 0.75687582E-01 0.90781761E+02</pdfrwt>
<pdfrwt beam="2">  1       -1 0.64429664E-03 0.90781761E+02</pdfrwt>
<totfact> 0.14060284E+05</totfact>
</mgrwt>
</event>
<event>
 5    1  0.3858846E+001  0.8450947E+02  0.7546771E-02  0.1316720E+00
         -3   -1    0    0    0  501 -0.00000000000E+00  0.00000000000E+00  0.11413939350E+04  0.11413939350E+04  0.00000000000E+00 0.  1.
          3   -1    0    0  501    0  0.00000000000E+00 -0.00000000000E+00 -0.15642823781E+01  0.15642823781E+01  0.00000000000E+00 0. -1.
         23    2    1    2    0    0  0.00000000000E+00  0.00000000000E+00  0.11398296526E+04  0.11429582174E+04  0.84509465008E+02 0.  0.
          2    1    3    3  502    0 -0.36661491995E+02 -0.11294058933E+02  0.33031842228E+03  0.33253854042E+03  0.00000000000E+00 0. -1.
         -2    1    3    3    0  502  0.36661491995E+02  0.11294058933E+02  0.80951123033E+03  0.81041967696E+03  0.00000000000E+00 0.  1.
<mgrwt>
<rscale>  0 0.84509465E+02</rscale>
<asrwt>0</asrwt>
<pdfrwt beam="2">  1        3 0.24065974E-03 0.84509465E+02</pdfrwt>
<pdfrwt beam="1">  1       -3 0.17559840E+00 0.84509465E+02</pdfrwt>
<totfact> 0.10547384E+04</totfact>
</mgrwt>
</event>
<event>
 5    1  0.3858846E+001  0.9517384E+02  0.7546771E-02  0.1290785E+00
          2   -1    0    0  501    0  0.00000000000E+00  0.00000000000E+00  0.38172428913E+03  0.38172428913E+03  0.00000000000E+00 0. -1.
         -2   -1    0    0    0  501 -0.00000000000E+00 -0.00000000000E+00 -0.59323309055E+01  0.59323309055E+01  0.00000000000E+00 0.  1.
         23    2    1    2    0    0  0.00000000000E+00  0.00000000000E+00  0.37579195822E+03  0.38765662004E+03  0.95173836695E+02 0.  0.
          2    1    3    3  502    0  0.45694235377E+02 -0.11242350513E+02  0.21674383984E+03  0.22179324990E+03  0.00000000000E+00 0. -1.
         -2    1    3    3    0  502 -0.45694235377E+02  0.11242350513E+02  0.15904811838E+03  0.16586337014E+03  0.00000000000E+00 0.  1.
<mgrwt>
<rscale>  0 0.95173837E+02</rscale>
<asrwt>0</asrwt>
<pdfrwt beam="1">  1        2 0.58726794E-01 0.95173837E+02</pdfrwt>
<pdfrwt beam="2">  1       -2 0.91266659E-03 0.95173837E+02</pdfrwt>
<totfact> 0.17509213E+05</totfact>
</mgrwt>
</event>
<event>
 5    1  0.3858846E+001  0.9242990E+02  0.7546771E-02  0.1297072E+00
          1   -1    0    0  501    0  0.00000000000E+00  0.00000000000E+00  0.95255342498E+01  0.95255342498E+01  0.00000000000E+00 0. -1.
         -1   -1    0    0    0  501 -0.00000000000E+00 -0.00000000000E+00 -0.22422067960E+03  0.22422067960E+03  0.00000000000E+00 0.  1.
         23    2    1    2    0    0  0.00000000000E+00  0.00000000000E+00 -0.21469514535E+03  0.23374621385E+03  0.92429903451E+02 0.  0.
          2    1    3    3  502    0  0.44065688476E+01 -0.43741275446E+02 -0.71306964479E+02  0.83769924256E+02  0.00000000000E+00 0. -1.
         -2    1    3    3    0  502 -0.44065688476E+01  0.43741275446E+02 -0.14338818087E+03  0.14997628959E+03  0.00000000000E+00 0.  1.
<mgrwt>
<rscale>  0 0.92429903E+02</rscale>
<asrwt>0</asrwt>
<pdfrwt beam="1">  1        1 0.14654670E-02 0.92429903E+02</pdfrwt>
<pdfrwt beam="2">  1       -1 0.34495486E-01 0.92429903E+02</pdfrwt>
<totfact> 0.64745941E+04</totfact>
</mgrwt>
</event>
<event>
 5    1  0.3858846E+001  0.8820726E+02  0.7546771E-02  0.1307252E+00
          1   -1    0    0  501    0  0.00000000000E+00  0.00000000000E+00  0.22770840342E+03  0.22770840342E+03  0.00000000000E+00 0. -1.
         -1   -1    0    0    0  501 -0.00000000000E+00 -0.00000000000E+00 -0.85421980900E+01  0.85421980900E+01  0.00000000000E+00 0.  1.
         23    2    1    2    0    0  0.00000000000E+00  0.00000000000E+00  0.21916620533E+03  0.23625060151E+03  0.88207262485E+02 0.  0.
          2    1    3    3  502    0 -0.38163587118E+02  0.21563045549E+02  0.96542505538E+02  0.10602773076E+03  0.00000000000E+00 0. -1.
         -2    1    3    3    0  502  0.38163587118E+02 -0.21563045549E+02  0.12262369980E+03  0.13022287075E+03  0.00000000000E+00 0.  1.
<mgrwt>
<rscale>  0 0.88207262E+02</rscale>
<asrwt>0</asrwt>
<pdfrwt beam="1">  1        1 0.35032057E-01 0.88207262E+02</pdfrwt>
<pdfrwt beam="2">  1       -1 0.13141845E-02 0.88207262E+02</pdfrwt>
<totfact> 0.13265832E+05</totfact>
</mgrwt>
</event>
<event>
 5    1  0.3858846E+001  0.8992117E+02  0.7546771E-02  0.1303043E+00
         -3   -1    0    0    0  501 -0.00000000000E+00  0.00000000000E+00  0.98524683439E+03  0.98524683439E+03  0.00000000000E+00 0.  1.
          3   -1    0    0  501    0  0.00000000000E+00 -0.00000000000E+00 -0.20517234170E+01  0.20517234170E+01  0.00000000000E+00 0. -1.
         23    2    1    2    0    0  0.00000000000E+00  0.00000000000E+00  0.98319511097E+03  0.98729855781E+03  0.89921165509E+02 0.  0.
          2    1    3    3  502    0 -0.40823548833E+02 -0.66596428443E+01  0.68508200334E+03  0.68632955953E+03  0.00000000000E+00 0. -1.
         -2    1    3    3    0  502  0.40823548833E+02  0.66596428443E+01  0.29811310763E+03  0.30096899827E+03  0.00000000000E+00 0.  1.
<mgrwt>
<rscale>  0 0.89921166E+02</rscale>
<asrwt>0</asrwt>
<pdfrwt beam="2">  1        3 0.31565054E-03 0.89921166E+02</pdfrwt>
<pdfrwt beam="1">  1       -3 0.15157606E+00 0.89921166E+02</pdfrwt>
<totfact> 0.10490754E+04</totfact>
</mgrwt>
</event>
<event>
 5    1  0.3858846E+001  0.8958363E+02  0.7546771E-02  0.1303863E+00
          1   -1    0    0  501    0  0.00000000000E+00  0.00000000000E+00  0.12016967595E+03  0.12016967595E+03  0.00000000000E+00 0. -1.
         -1   -1    0    0    0  501 -0.00000000000E+00 -0.00000000000E+00 -0.16695613969E+02  0.16695613969E+02  0.00000000000E+00 0.  1.
         23    2    1    2    0    0  0.00000000000E+00  0.00000000000E+00  0.10347406198E+03  0.13686528992E+03  0.89583626195E+02 0.  0.
          2    1    3    3  502    0 -0.14660913706E+02 -0.36695117254E+02  0.19514256018E+02  0.44071308228E+02  0.00000000000E+00 0.  1.
         -2    1    3    3    0  502  0.14660913706E+02  0.36695117254E+02  0.83959805966E+02  0.92793981695E+02  0.00000000000E+00 0. -1.
<mgrwt>
<rscale>  0 0.89583626E+02</rscale>
<asrwt>0</asrwt>
<pdfrwt beam="1">  1        1 0.18487642E-01 0.89583626E+02</pdfrwt>
<pdfrwt beam="2">  1       -1 0.25685561E-02 0.89583626E+02</pdfrwt>
<totfact> 0.11303258E+05</totfact>
</mgrwt>
</event>
<event>
 5    1  0.3858846E+001  0.8809985E+02  0.7546771E-02  0.1307520E+00
         -1   -1    0    0    0  501 -0.00000000000E+00  0.00000000000E+00  0.97887900231E+02  0.97887900231E+02  0.00000000000E+00 0.  1.
          1   -1    0    0  501    0  0.00000000000E+00 -0.00000000000E+00 -0.19822631203E+02  0.19822631203E+02  0.00000000000E+00 0. -1.
         23    2    1    2    0    0  0.00000000000E+00  0.00000000000E+00  0.78065269028E+02  0.11771053143E+03  0.88099846664E+02 0.  0.
          2    1    3    3  502    0  0.29951536162E+02 -0.23101054927E+02  0.88697423371E+01  0.38851326700E+02  0.00000000000E+00 0. -1.
         -2    1    3    3    0  502 -0.29951536162E+02  0.23101054927E+02  0.69195526691E+02  0.78859204734E+02  0.00000000000E+00 0.  1.
<mgrwt>
<rscale>  0 0.88099847E+02</rscale>
<asrwt>0</asrwt>
<pdfrwt beam="2">  1        1 0.30496356E-02 0.88099847E+02</pdfrwt>
<pdfrwt beam="1">  1       -1 0.15059677E-01 0.88099847E+02</pdfrwt>
<totfact> 0.89228213E+04</totfact>
</mgrwt>
</event>
<event>
 5    1  0.3858846E+001  0.8699128E+02  0.7546771E-02  0.1310306E+00
          2   -1    0    0  501    0  0.00000000000E+00  0.00000000000E+00  0.52098595068E+03  0.52098595068E+03  0.00000000000E+00 0.  1.
         -2   -1    0    0    0  501 -0.00000000000E+00 -0.00000000000E+00 -0.36313273669E+01  0.36313273669E+01  0.00000000000E+00 0. -1.
         23    2    1    2    0    0  0.00000000000E+00  0.00000000000E+00  0.51735462332E+03  0.52461727805E+03  0.86991276355E+02 0.  0.
          2    1    3    3  502    0 -0.14032054693E+02  0.33361346610E+02  0.40416478229E+03  0.40578202184E+03  0.00000000000E+00 0.  1.
         -2    1    3    3    0  502  0.14032054693E+02 -0.33361346610E+02  0.11318984103E+03  0.11883525621E+03  0.00000000000E+00 0. -1.
<mgrwt>
<rscale>  0 0.86991276E+02</rscale>
<asrwt>0</asrwt>
<pdfrwt beam="1">  1        2 0.80151626E-01 0.86991276E+02</pdfrwt>
<pdfrwt beam="2">  1       -2 0.55866616E-03 0.86991276E+02</pdfrwt>
<totfact> 0.24717801E+05</totfact>
</mgrwt>
</event>
<event>
 5    1  0.3858846E+001  0.9148701E+02  0.7546771E-02  0.1299290E+00
         -1   -1    0    0    0  501 -0.00000000000E+00  0.00000000000E+00  0.11077785963E+02  0.11077785963E+02  0.00000000000E+00 0.  1.
          1   -1    0    0  501    0  0.00000000000E+00 -0.00000000000E+00 -0.18888867436E+03  0.18888867436E+03  0.00000000000E+00 0. -1.
         23    2    1    2    0    0  0.00000000000E+00  0.00000000000E+00 -0.17781088839E+03  0.19996646032E+03  0.91487011216E+02 0.  0.
          2    1    3    3  502    0 -0.17838233649E+02 -0.17564365177E+02 -0.17258685136E+03  0.17439303531E+03  0.00000000000E+00 0. -1.
         -2    1    3    3    0  502  0.17838233649E+02  0.17564365177E+02 -0.52240370398E+01  0.25573425011E+02  0.00000000000E+00 0.  1.
<mgrwt>
<rscale>  0 0.91487011E+02</rscale>
<asrwt>0</asrwt>
<pdfrwt beam="2">  1        1 0.29059795E-01 0.91487011E+02</pdfrwt>
<pdfrwt beam="1">  1       -1 0.17042748E-02 0.91487011E+02</pdfrwt>
<totfact> 0.11604090E+05</totfact>
</mgrwt>
</event>
<event>
 5    1  0.3858846E+001  0.9143576E+02  0.7546771E-02  0.1299412E+00
         -1   -1    0    0    0  501 -0.00000000000E+00  0.00000000000E+00  0.44969705407E+02  0.44969705407E+02  0.00000000000E+00 0.  1.
          1   -1    0    0  501    0  0.00000000000E+00 -0.00000000000E+00 -0.46478504700E+02  0.46478504700E+02  0.00000000000E+00 0. -1.
         23    2    1    2    0    0  0.00000000000E+00  0.00000000000E+00 -0.15087992929E+01  0.91448210108E+02  0.91435762460E+02 0.  0.
          2    1    3    3  502    0  0.16330998918E+02 -0.36619863791E+02 -0.22721194343E+02  0.46086534064E+02  0.00000000000E+00 0. -1.
         -2    1    3    3    0  502 -0.16330998918E+02  0.36619863791E+02  0.21212395050E+02  0.45361676043E+02  0.00000000000E+00 0.  1.
<mgrwt>
<rscale>  0 0.91435762E+02</rscale>
<asrwt>0</asrwt>
<pdfrwt beam="2">  1        1 0.71505392E-02 0.91435762E+02</pdfrwt>
<pdfrwt beam="1">  1       -1 0.69184162E-02 0.91435762E+02</pdfrwt>
<totfact> 0.92005902E+04</totfact>
</mgrwt>
</event>
<event>
 5    1  0.3858846E+001  0.9290676E+02  0.7546771E-02  0.1295961E+00
         -1   -1    0    0    0  501 -0.00000000000E+00  0.00000000000E+00  0.33478442557E+02  0.33478442557E+02  0.00000000000E+00 0.  1.
          1   -1    0    0  501    0  0.00000000000E+00 -0.00000000000E+00 -0.64456895373E+02  0.64456895373E+02  0.00000000000E+00 0. -1.
         23    2    1    2    0    0  0.00000000000E+00  0.00000000000E+00 -0.30978452816E+02  0.97935337929E+02  0.92906759046E+02 0.  0.
          2    1    3    3  502    0  0.20280444553E+02 -0.10067692834E+02 -0.58246459796E+02  0.62492439135E+02  0.00000000000E+00 0. -1.
         -2    1    3    3    0  502 -0.20280444553E+02  0.10067692834E+02  0.27268006980E+02  0.35442898794E+02  0.00000000000E+00 0.  1.
<mgrwt>
<rscale>  0 0.92906759E+02</rscale>
<asrwt>0</asrwt>
<pdfrwt beam="2">  1        1 0.99164453E-02 0.92906759E+02</pdfrwt>
<pdfrwt beam="1">  1       -1 0.51505297E-02 0.92906759E+02</pdfrwt>
<totfact> 0.92478866E+04</totfact>
</mgrwt>
</event>
<event>
 5    1  0.3858846E+001  0.9233737E+02  0.7546771E-02  0.1297288E+00
         -1   -1    0    0    0  501 -0.00000000000E+00  0.00000000000E+00  0.13867378741E+03  0.13867378741E+03  0.00000000000E+00 0.  1.
          1   -1    0    0  501    0  0.00000000000E+00 -0.00000000000E+00 -0.15370947053E+02  0.15370947053E+02  0.00000000000E+00 0. -1.
         23    2    1    2    0    0  0.00000000000E+00  0.00000000000E+00  0.12330284036E+03  0.15404473446E+03  0.92337369335E+02 0.  0.
          2    1    3    3  502    0 -0.30778549843E+02  0.34362251742E+02  0.58546457795E+02  0.74537045793E+02  0.00000000000E+00 0. -1.
         -2    1    3    3    0  502  0.30778549843E+02 -0.34362251742E+02  0.64756382562E+02  0.79507688670E+02  0.00000000000E+00 0.  1.
<mgrwt>
<rscale>  0 0.92337369E+02</rscale>
<asrwt>0</asrwt>
<pdfrwt beam="2">  1        1 0.23647612E-02 0.92337369E+02</pdfrwt>
<pdfrwt beam="1">  1       -1 0.21334428E-01 0.92337369E+02</pdfrwt>
<totfact> 0.73683105E+04</totfact>
</mgrwt>
</event>
<event>
 5    1  0.3858846E+001  0.9090167E+02  0.7546771E-02  0.1300683E+00
          3   -1    0    0  501    0  0.00000000000E+00  0.00000000000E+00  0.14237306823E+02  0.14237306823E+02  0.00000000000E+00 0. -1.
         -3   -1    0    0    0  501 -0.00000000000E+00 -0.00000000000E+00 -0.14509613425E+03  0.14509613425E+03  0.00000000000E+00 0.  1.
         23    2    1    2    0    0  0.00000000000E+00  0.00000000000E+00 -0.13085882742E+03  0.15933344107E+03  0.90901665157E+02 0.  0.
          2    1    3    3  502    0  0.18966766787E+02 -0.36334758776E+02 -0.30999937417E+02  0.51390164989E+02  0.00000000000E+00 0. -1.
         -2    1    3    3    0  502 -0.18966766787E+02  0.36334758776E+02 -0.99858890007E+02  0.10794327608E+03  0.00000000000E+00 0.  1.
<mgrwt>
<rscale>  0 0.90901665E+02</rscale>
<asrwt>0</asrwt>
<pdfrwt beam="1">  1        3 0.21903551E-02 0.90901665E+02</pdfrwt>
<pdfrwt beam="2">  1       -3 0.22322480E-01 0.90901665E+02</pdfrwt>
<totfact> 0.30998880E+04</totfact>
</mgrwt>
</event>
<event>
 5    1  0.3858846E+001  0.9101988E+02  0.7546771E-02  0.1300401E+00
          2   -1    0    0  501    0  0.00000000000E+00  0.00000000000E+00  0.26657544240E+01  0.26657544240E+01  0.00000000000E+00 0. -1.
         -2   -1    0    0    0  501 -0.00000000000E+00 -0.00000000000E+00 -0.77694884043E+03  0.77694884043E+03  0.00000000000E+00 0.  1.
         23    2    1    2    0    0  0.00000000000E+00  0.00000000000E+00 -0.77428308601E+03  0.77961459485E+03  0.91019883731E+02 0.  0.
          2    1    3    3  502    0  0.12900904308E+02 -0.24948992188E+02 -0.80427754215E+02  0.85191015907E+02  0.00000000000E+00 0. -1.
         -2    1    3    3    0  502 -0.12900904308E+02  0.24948992188E+02 -0.69385533179E+03  0.69442357895E+03  0.00000000000E+00 0.  1.
<mgrwt>
<rscale>  0 0.91019884E+02</rscale>
<asrwt>0</asrwt>
<pdfrwt beam="1">  1        2 0.41011615E-03 0.91019884E+02</pdfrwt>
<pdfrwt beam="2">  1       -2 0.11953057E+00 0.91019884E+02</pdfrwt>
<totfact> 0.24674449E+04</totfact>
</mgrwt>
</event>
<event>
 5    1  0.3858846E+001  0.9321506E+02  0.7546771E-02  0.1295248E+00
         -2   -1    0    0    0  501 -0.00000000000E+00  0.00000000000E+00  0.59179002571E+01  0.59179002571E+01  0.00000000000E+00 0.  1.
          2   -1    0    0  501    0  0.00000000000E+00 -0.00000000000E+00 -0.36706628434E+03  0.36706628434E+03  0.00000000000E+00 0. -1.
         23    2    1    2    0    0  0.00000000000E+00  0.00000000000E+00 -0.36114838408E+03  0.37298418460E+03  0.93215055832E+02 0.  0.
          2    1    3    3  502    0 -0.23903538446E+02  0.30013110819E+02 -0.28644666421E+03  0.28900494357E+03  0.00000000000E+00 0. -1.
         -2    1    3    3    0  502  0.23903538446E+02 -0.30013110819E+02 -0.74701719867E+02  0.83979241020E+02  0.00000000000E+00 0.  1.
<mgrwt>
<rscale>  0 0.93215056E+02</rscale>
<asrwt>0</asrwt>
<pdfrwt beam="2">  1        2 0.56471749E-01 0.93215056E+02</pdfrwt>
<pdfrwt beam="1">  1       -2 0.91044598E-03 0.93215056E+02</pdfrwt>
<totfact> 0.18246088E+05</totfact>
</mgrwt>
</event>
<event>
 5    1  0.3858846E+001  0.9126017E+02  0.7546771E-02  0.1299828E+00
          2   -1    0    0  501    0  0.00000000000E+00  0.00000000000E+00  0.76825509052E+01  0.76825509052E+01  0.00000000000E+00 0. -1.
         -2   -1    0    0    0  501 -0.00000000000E+00 -0.00000000000E+00 -0.27101737770E+03  0.27101737770E+03  0.00000000000E+00 0.  1.
         23    2    1    2    0    0  0.00000000000E+00  0.00000000000E+00 -0.26333482679E+03  0.27869992860E+03  0.91260173139E+02 0.  0.
          2    1    3    3  502    0 -0.25072125708E+02 -0.20480475943E+02 -0.33464367922E+02  0.46560984770E+02  0.00000000000E+00 0. -1.
         -2    1    3    3    0  502  0.25072125708E+02  0.20480475943E+02 -0.22987045887E+03  0.23213894383E+03  0.00000000000E+00 0.  1.
<mgrwt>
<rscale>  0 0.91260173E+02</rscale>
<asrwt>0</asrwt>
<pdfrwt beam="1">  1        2 0.11819310E-02 0.91260173E+02</pdfrwt>
<pdfrwt beam="2">  1       -2 0.41694978E-01 0.91260173E+02</pdfrwt>
<totfact> 0.53773460E+04</totfact>
</mgrwt>
</event>
<event>
 5    1  0.3858846E+001  0.9136538E+02  0.7546771E-02  0.1299579E+00
          1   -1    0    0  501    0  0.00000000000E+00  0.00000000000E+00  0.15590503447E+02  0.15590503447E+02  0.00000000000E+00 0. -1.
         -1   -1    0    0    0  501 -0.00000000000E+00 -0.00000000000E+00 -0.13385763720E+03  0.13385763720E+03  0.00000000000E+00 0.  1.
         23    2    1    2    0    0  0.00000000000E+00  0.00000000000E+00 -0.11826713375E+03  0.14944814065E+03  0.91365375372E+02 0.  0.
          2    1    3    3  502    0  0.17421152301E+02  0.41677400019E+02 -0.70276376182E+02  0.83542032948E+02  0.00000000000E+00 0. -1.
         -2    1    3    3    0  502 -0.17421152301E+02 -0.41677400019E+02 -0.47990757570E+02  0.65906107699E+02  0.00000000000E+00 0.  1.
<mgrwt>
<rscale>  0 0.91365375E+02</rscale>
<asrwt>0</asrwt>
<pdfrwt beam="1">  1        1 0.23985390E-02 0.91365375E+02</pdfrwt>
<pdfrwt beam="2">  1       -1 0.20593483E-01 0.91365375E+02</pdfrwt>
<totfact> 0.76327883E+04</totfact>
</mgrwt>
</event>
<event>
 5    1  0.3858846E+001  0.9258811E+02  0.7546771E-02  0.1296703E+00
         -1   -1    0    0    0  501 -0.00000000000E+00  0.00000000000E+00  0.57072777931E+00  0.57072777931E+00  0.00000000000E+00 0.  1.
          1   -1    0    0  501    0  0.00000000000E+00 -0.00000000000E+00 -0.37550993719E+04  0.37550993719E+04  0.00000000000E+00 0. -1.
         23    2    1    2    0    0  0.00000000000E+00  0.00000000000E+00 -0.37545286441E+04  0.37556700997E+04  0.92588109941E+02 0.  0.
          2    1    3    3  502    0  0.25566520168E+02 -0.38551756036E+02 -0.19504432897E+04  0.19509917763E+04  0.00000000000E+00 0. -1.
         -2    1    3    3    0  502 -0.25566520168E+02  0.38551756036E+02 -0.18040853544E+04  0.18046783234E+04  0.00000000000E+00 0.  1.
<mgrwt>
<rscale>  0 0.92588110E+02</rscale>
<asrwt>0</asrwt>
<pdfrwt beam="2">  1        1 0.57768731E+00 0.92588110E+02</pdfrwt>
<pdfrwt beam="1">  1       -1 0.87807357E-04 0.92588110E+02</pdfrwt>
<totfact> 0.11720687E+04</totfact>
</mgrwt>
</event>
<event>
 5    1  0.3858846E+001  0.9524090E+02  0.7546771E-02  0.1290634E+00
         -3   -1    0    0    0  501 -0.00000000000E+00  0.00000000000E+00  0.95779381462E+01  0.95779381462E+01  0.00000000000E+00 0. -1.
          3   -1    0    0  501    0  0.00000000000E+00 -0.00000000000E+00 -0.23676359328E+03  0.23676359328E+03  0.00000000000E+00 0.  1.
         23    2    1    2    0    0  0.00000000000E+00  0.00000000000E+00 -0.22718565514E+03  0.24634153143E+03  0.95240895664E+02 0.  0.
          2    1    3    3  502    0  0.23984551843E+02 -0.11193278182E+02 -0.21598592377E+03  0.21760162561E+03  0.00000000000E+00 0.  1.
         -2    1    3    3    0  502 -0.23984551843E+02  0.11193278182E+02 -0.11199731368E+02  0.28739905815E+02  0.00000000000E+00 0. -1.
<mgrwt>
<rscale>  0 0.95240896E+02</rscale>
<asrwt>0</asrwt>
<pdfrwt beam="2">  1        3 0.36425168E-01 0.95240896E+02</pdfrwt>
<pdfrwt beam="1">  1       -3 0.14735290E-02 0.95240896E+02</pdfrwt>
<totfact> 0.23348573E+04</totfact>
</mgrwt>
</event>
<event>
 5    1  0.3858846E+001  0.9285709E+02  0.7546771E-02  0.1296077E+00
          2   -1    0    0  501    0  0.00000000000E+00  0.00000000000E+00  0.35757380384E+03  0.35757380384E+03  0.00000000000E+00 0. -1.
         -2   -1    0    0    0  501 -0.00000000000E+00 -0.00000000000E+00 -0.60284336125E+01  0.60284336125E+01  0.00000000000E+00 0.  1.
         23    2    1    2    0    0  0.00000000000E+00  0.00000000000E+00  0.35154537023E+03  0.36360223746E+03  0.92857093171E+02 0.  0.
          2    1    3    3  502    0  0.27479783714E+02  0.16700444964E+02  0.30690930625E+03  0.30858931549E+03  0.00000000000E+00 0. -1.
         -2    1    3    3    0  502 -0.27479783714E+02 -0.16700444964E+02  0.44636063983E+02  0.55012921962E+02  0.00000000000E+00 0.  1.
<mgrwt>
<rscale>  0 0.92857093E+02</rscale>
<asrwt>0</asrwt>
<pdfrwt beam="1">  1        2 0.55011338E-01 0.92857093E+02</pdfrwt>
<pdfrwt beam="2">  1       -2 0.92745161E-03 0.92857093E+02</pdfrwt>
<totfact> 0.18258933E+05</totfact>
</mgrwt>
</event>
<event>
 5    1  0.3858846E+001  0.9229700E+02  0.7546771E-02  0.1297383E+00
          2   -1    0    0  501    0  0.00000000000E+00  0.00000000000E+00  0.70220150575E+02  0.70220150575E+02  0.00000000000E+00 0.  1.
         -2   -1    0    0    0  501 -0.00000000000E+00 -0.00000000000E+00 -0.30328673082E+02  0.30328673082E+02  0.00000000000E+00 0. -1.
         23    2    1    2    0    0  0.00000000000E+00  0.00000000000E+00  0.39891477493E+02  0.10054882366E+03  0.92296998662E+02 0.  0.
          2    1    3    3  502    0  0.36304294647E+02 -0.26555155487E+02  0.87028932078E+01  0.45813954675E+02  0.00000000000E+00 0. -1.
         -2    1    3    3    0  502 -0.36304294647E+02  0.26555155487E+02  0.31188584285E+02  0.54734868982E+02  0.00000000000E+00 0.  1.
<mgrwt>
<rscale>  0 0.92296999E+02</rscale>
<asrwt>0</asrwt>
<pdfrwt beam="1">  1        2 0.10803100E-01 0.92296999E+02</pdfrwt>
<pdfrwt beam="2">  1       -2 0.46659497E-02 0.92296999E+02</pdfrwt>
<totfact> 0.10699081E+05</totfact>
</mgrwt>
</event>
<event>
 5    1  0.3858846E+001  0.9113300E+02  0.7546771E-02  0.1300131E+00
          2   -1    0    0  501    0  0.00000000000E+00  0.00000000000E+00  0.70738874281E+01  0.70738874281E+01  0.00000000000E+00 0. -1.
         -2   -1    0    0    0  501 -0.00000000000E+00 -0.00000000000E+00 -0.29351693815E+03  0.29351693815E+03  0.00000000000E+00 0.  1.
         23    2    1    2    0    0  0.00000000000E+00  0.00000000000E+00 -0.28644305072E+03  0.30059082557E+03  0.91132996849E+02 0.  0.
          2    1    3    3  502    0  0.16451032850E+02 -0.34874119102E+02 -0.63140592626E+02  0.73983613741E+02  0.00000000000E+00 0. -1.
         -2    1    3    3    0  502 -0.16451032850E+02  0.34874119102E+02 -0.22330245809E+03  0.22660721183E+03  0.00000000000E+00 0.  1.
<mgrwt>
<rscale>  0 0.91132997E+02</rscale>
<asrwt>0</asrwt>
<pdfrwt beam="1">  1        2 0.10882904E-02 0.91132997E+02</pdfrwt>
<pdfrwt beam="2">  1       -2 0.45156451E-01 0.91132997E+02</pdfrwt>
<totfact> 0.51691235E+04</totfact>
</mgrwt>
</event>
<event>
 5    1  0.3858846E+001  0.8890713E+02  0.7546771E-02  0.1305520E+00
          1   -1    0    0  501    0  0.00000000000E+00  0.00000000000E+00  0.30483366967E+02  0.30483366967E+02  0.00000000000E+00 0. -1.
         -1   -1    0    0    0  501 -0.00000000000E+00 -0.00000000000E+00 -0.64826155090E+02  0.64826155090E+02  0.00000000000E+00 0.  1.
         23    2    1    2    0    0  0.00000000000E+00  0.00000000000E+00 -0.34342788123E+02  0.95309522058E+02  0.88907130753E+02 0.  0.
          2    1    3    3  502    0  0.78850603592E+01  0.26520247417E+02  0.20128185587E+02  0.34214639483E+02  0.00000000000E+00 0. -1.
         -2    1    3    3    0  502 -0.78850603592E+01 -0.26520247417E+02 -0.54470973710E+02  0.61094882575E+02  0.00000000000E+00 0.  1.
<mgrwt>
<rscale>  0 0.88907131E+02</rscale>
<asrwt>0</asrwt>
<pdfrwt beam="1">  1        1 0.46897488E-02 0.88907131E+02</pdfrwt>
<pdfrwt beam="2">  1       -1 0.99732546E-02 0.88907131E+02</pdfrwt>
<totfact> 0.93402412E+04</totfact>
</mgrwt>
</event>
<event>
 5    1  0.3858846E+001  0.9070785E+02  0.7546771E-02  0.1301147E+00
         -2   -1    0    0    0  501 -0.00000000000E+00  0.00000000000E+00  0.70149611865E+01  0.70149611865E+01  0.00000000000E+00 0.  1.
          2   -1    0    0  501    0  0.00000000000E+00 -0.00000000000E+00 -0.29322737962E+03  0.29322737962E+03  0.00000000000E+00 0. -1.
         23    2    1    2    0    0  0.00000000000E+00  0.00000000000E+00 -0.28621241844E+03  0.30024234081E+03  0.90707853836E+02 0.  0.
          2    1    3    3  502    0  0.15264037791E+02 -0.38701247364E+02 -0.83324285971E+02  0.93132776345E+02  0.00000000000E+00 0. -1.
         -2    1    3    3    0  502 -0.15264037791E+02  0.38701247364E+02 -0.20288813247E+03  0.20710956447E+03  0.00000000000E+00 0.  1.
<mgrwt>
<rscale>  0 0.90707854E+02</rscale>
<asrwt>0</asrwt>
<pdfrwt beam="2">  1        2 0.45111905E-01 0.90707854E+02</pdfrwt>
<pdfrwt beam="1">  1       -2 0.10792248E-02 0.90707854E+02</pdfrwt>
<totfact> 0.18060594E+05</totfact>
</mgrwt>
</event>
<event>
 5    1  0.3858846E+001  0.9157853E+02  0.7546771E-02  0.1299073E+00
         -3   -1    0    0    0  501 -0.00000000000E+00  0.00000000000E+00  0.67919135951E+02  0.67919135951E+02  0.00000000000E+00 0.  1.
          3   -1    0    0  501    0  0.00000000000E+00 -0.00000000000E+00 -0.30869898698E+02  0.30869898698E+02  0.00000000000E+00 0. -1.
         23    2    1    2    0    0  0.00000000000E+00  0.00000000000E+00  0.37049237253E+02  0.98789034649E+02  0.91578531250E+02 0.  0.
          2    1    3    3  502    0  0.76779031371E+01  0.28702864299E+02 -0.19058946824E+02  0.35299406080E+02  0.00000000000E+00 0. -1.
         -2    1    3    3    0  502 -0.76779031371E+01 -0.28702864299E+02  0.56108184076E+02  0.63489628569E+02  0.00000000000E+00 0.  1.
<mgrwt>
<rscale>  0 0.91578531E+02</rscale>
<asrwt>0</asrwt>
<pdfrwt beam="2">  1        3 0.47492152E-02 0.91578531E+02</pdfrwt>
<pdfrwt beam="1">  1       -3 0.10449098E-01 0.91578531E+02</pdfrwt>
<totfact> 0.34347944E+04</totfact>
</mgrwt>
</event>
<event>
 5    1  0.3858846E+001  0.9106132E+02  0.7546771E-02  0.1300302E+00
         -1   -1    0    0    0  501 -0.00000000000E+00  0.00000000000E+00  0.11701554162E+01  0.11701554162E+01  0.00000000000E+00 0.  1.
          1   -1    0    0  501    0  0.00000000000E+00 -0.00000000000E+00 -0.17715944122E+04  0.17715944122E+04  0.00000000000E+00 0. -1.
         23    2    1    2    0    0  0.00000000000E+00  0.00000000000E+00 -0.17704242568E+04  0.17727645676E+04  0.91061315535E+02 0.  0.
          2    1    3    3  502    0 -0.41832762971E+02 -0.16990661920E+01 -0.12335575562E+04  0.12342678442E+04  0.00000000000E+00 0. -1.
         -2    1    3    3    0  502  0.41832762971E+02  0.16990661920E+01 -0.53686670058E+03  0.53849672337E+03  0.00000000000E+00 0.  1.
<mgrwt>
<rscale>  0 0.91061316E+02</rscale>
<asrwt>0</asrwt>
<pdfrwt beam="2">  1        1 0.27255303E+00 0.91061316E+02</pdfrwt>
<pdfrwt beam="1">  1       -1 0.18002388E-03 0.91061316E+02</pdfrwt>
<totfact> 0.94057982E+04</totfact>
</mgrwt>
</event>
<event>
 5    1  0.3858846E+001  0.8971592E+02  0.7546771E-02  0.1303541E+00
         -2   -1    0    0    0  501 -0.00000000000E+00  0.00000000000E+00  0.53318030536E+03  0.53318030536E+03  0.00000000000E+00 0.  1.
          2   -1    0    0  501    0  0.00000000000E+00 -0.00000000000E+00 -0.37740264863E+01  0.37740264863E+01  0.00000000000E+00 0. -1.
         23    2    1    2    0    0  0.00000000000E+00  0.00000000000E+00  0.52940627887E+03  0.53695433185E+03  0.89715920425E+02 0.  0.
          2    1    3    3  502    0 -0.34332070355E+02  0.28681746161E+02  0.28446557085E+03  0.28796179367E+03  0.00000000000E+00 0. -1.
         -2    1    3    3    0  502  0.34332070355E+02 -0.28681746161E+02  0.24494070802E+03  0.24899253817E+03  0.00000000000E+00 0.  1.
<mgrwt>
<rscale>  0 0.89715920E+02</rscale>
<asrwt>0</asrwt>
<pdfrwt beam="2">  1        2 0.58061988E-03 0.89715920E+02</pdfrwt>
<pdfrwt beam="1">  1       -2 0.82027679E-01 0.89715920E+02</pdfrwt>
<totfact> 0.35974466E+04</totfact>
</mgrwt>
</event>
<event>
 5    1  0.3858846E+001  0.9139863E+02  0.7546771E-02  0.1299500E+00
         -2   -1    0    0    0  501 -0.00000000000E+00  0.00000000000E+00  0.96452425608E+02  0.96452425608E+02  0.00000000000E+00 0.  1.
          2   -1    0    0  501    0  0.00000000000E+00 -0.00000000000E+00 -0.21652411332E+02  0.21652411332E+02  0.00000000000E+00 0. -1.
         23    2    1    2    0    0  0.00000000000E+00  0.00000000000E+00  0.74800014276E+02  0.11810483694E+03  0.91398634414E+02 0.  0.
          2    1    3    3  502    0  0.45486393642E+02  0.42683467602E+01  0.35986365820E+02  0.58157108900E+02  0.00000000000E+00 0.  1.
         -2    1    3    3    0  502 -0.45486393642E+02 -0.42683467602E+01  0.38813648456E+02  0.59947728040E+02  0.00000000000E+00 0. -1.
<mgrwt>
<rscale>  0 0.91398634E+02</rscale>
<asrwt>0</asrwt>
<pdfrwt beam="2">  1        2 0.33311403E-02 0.91398634E+02</pdfrwt>
<pdfrwt beam="1">  1       -2 0.14838834E-01 0.91398634E+02</pdfrwt>
<totfact> 0.80179177E+04</totfact>
</mgrwt>
</event>
<event>
 5    1  0.3858846E+001  0.9130220E+02  0.7546771E-02  0.1299729E+00
         -1   -1    0    0    0  501 -0.00000000000E+00  0.00000000000E+00  0.31943308214E+02  0.31943308214E+02  0.00000000000E+00 0.  1.
          1   -1    0    0  501    0  0.00000000000E+00 -0.00000000000E+00 -0.65241299141E+02  0.65241299141E+02  0.00000000000E+00 0. -1.
         23    2    1    2    0    0  0.00000000000E+00  0.00000000000E+00 -0.33297990926E+02  0.97184607355E+02  0.91302199903E+02 0.  0.
          2    1    3    3  502    0 -0.33445722920E+01 -0.42629055955E+02 -0.33666542738E+02  0.54422960920E+02  0.00000000000E+00 0. -1.
         -2    1    3    3    0  502  0.33445722920E+01  0.42629055955E+02  0.36855181128E+00  0.42761646435E+02  0.00000000000E+00 0.  1.
<mgrwt>
<rscale>  0 0.91302200E+02</rscale>
<asrwt>0</asrwt>
<pdfrwt beam="2">  1        1 0.10037123E-01 0.91302200E+02</pdfrwt>
<pdfrwt beam="1">  1       -1 0.49143552E-02 0.91302200E+02</pdfrwt>
<totfact> 0.97235621E+04</totfact>
</mgrwt>
</event>
<event>
 5    1  0.3858846E+001  0.1004217E+03  0.7546771E-02  0.1279412E+00
          1   -1    0    0  501    0  0.00000000000E+00  0.00000000000E+00  0.96884312241E+03  0.96884312241E+03  0.00000000000E+00 0. -1.
         -1   -1    0    0    0  501 -0.00000000000E+00 -0.00000000000E+00 -0.26022085653E+01  0.26022085653E+01  0.00000000000E+00 0.  1.
         23    2    1    2    0    0  0.00000000000E+00  0.00000000000E+00  0.96624091385E+03  0.97144533098E+03  0.10042174807E+03 0.  0.
          2    1    3    3  502    0  0.22176340742E+02  0.30407935903E+02  0.80464387590E+03  0.80552355625E+03  0.00000000000E+00 0. -1.
         -2    1    3    3    0  502 -0.22176340742E+02 -0.30407935903E+02  0.16159703795E+03  0.16592177472E+03  0.00000000000E+00 0.  1.
<mgrwt>
<rscale>  0 0.10042175E+03</rscale>
<asrwt>0</asrwt>
<pdfrwt beam="1">  1        1 0.14905250E+00 0.10042175E+03</pdfrwt>
<pdfrwt beam="2">  1       -1 0.40034055E-03 0.10042175E+03</pdfrwt>
<totfact> 0.10608479E+05</totfact>
</mgrwt>
</event>
<event>
 5    1  0.3858846E+001  0.9148002E+02  0.7546771E-02  0.1299307E+00
         -2   -1    0    0    0  501 -0.00000000000E+00  0.00000000000E+00  0.65584161424E+00  0.65584161424E+00  0.00000000000E+00 0.  1.
          2   -1    0    0  501    0  0.00000000000E+00 -0.00000000000E+00 -0.31900207757E+04  0.31900207757E+04  0.00000000000E+00 0. -1.
         23    2    1    2    0    0  0.00000000000E+00  0.00000000000E+00 -0.31893649340E+04  0.31906766173E+04  0.91480016943E+02 0.  0.
          2    1    3    3  502    0 -0.43008965492E+02 -0.14727023381E+02 -0.14185826566E+04  0.14193108927E+04  0.00000000000E+00 0. -1.
         -2    1    3    3    0  502  0.43008965492E+02  0.14727023381E+02 -0.17707822774E+04  0.17713657246E+04  0.00000000000E+00 0.  1.
<mgrwt>
<rscale>  0 0.91480017E+02</rscale>
<asrwt>0</asrwt>
<pdfrwt beam="2">  1        2 0.49077500E+00 0.91480017E+02</pdfrwt>
<pdfrwt beam="1">  1       -2 0.10089818E-03 0.91480017E+02</pdfrwt>
<totfact> 0.85259404E+04</totfact>
</mgrwt>
</event>
<event>
 5    1  0.3858846E+001  0.9193997E+02  0.7546771E-02  0.1298221E+00
         -2   -1    0    0    0  501 -0.00000000000E+00  0.00000000000E+00  0.96871254234E+00  0.96871254234E+00  0.00000000000E+00 0.  1.
          2   -1    0    0  501    0  0.00000000000E+00 -0.00000000000E+00 -0.21814930724E+04  0.21814930724E+04  0.00000000000E+00 0. -1.
         23    2    1    2    0    0  0.00000000000E+00  0.00000000000E+00 -0.21805243598E+04  0.21824617849E+04  0.91939973901E+02 0.  0.
          2    1    3    3  502    0 -0.36470783680E+02  0.44153967821E+01 -0.17462300978E+04  0.17466164915E+04  0.00000000000E+00 0. -1.
         -2    1    3    3    0  502  0.36470783680E+02 -0.44153967821E+01 -0.43429426201E+03  0.43584529343E+03  0.00000000000E+00 0.  1.
<mgrwt>
<rscale>  0 0.91939974E+02</rscale>
<asrwt>0</asrwt>
<pdfrwt beam="2">  1        2 0.33561281E+00 0.91939974E+02</pdfrwt>
<pdfrwt beam="1">  1       -2 0.14903337E-03 0.91939974E+02</pdfrwt>
<totfact> 0.17575535E+05</totfact>
</mgrwt>
</event>
<event>
 5    1  0.3858846E+001  0.9021934E+02  0.7546771E-02  0.1302321E+00
         -2   -1    0    0    0  501 -0.00000000000E+00  0.00000000000E+00  0.12845976810E+01  0.12845976810E+01  0.00000000000E+00 0.  1.
          2   -1    0    0  501    0  0.00000000000E+00 -0.00000000000E+00 -0.15840620559E+04  0.15840620559E+04  0.00000000000E+00 0. -1.
         23    2    1    2    0    0  0.00000000000E+00  0.00000000000E+00 -0.15827774582E+04  0.15853466535E+04  0.90219342572E+02 0.  0.
          2    1    3    3  502    0 -0.22661997223E+02  0.36481606582E+02 -0.54891316202E+03  0.55059071294E+03  0.00000000000E+00 0.  1.
         -2    1    3    3    0  502  0.22661997223E+02 -0.36481606582E+02 -0.10338642961E+04  0.10347559406E+04  0.00000000000E+00 0. -1.
<mgrwt>
<rscale>  0 0.90219343E+02</rscale>
<asrwt>0</asrwt>
<pdfrwt beam="2">  1        2 0.24370092E+00 0.90219343E+02</pdfrwt>
<pdfrwt beam="1">  1       -2 0.19763117E-03 0.90219343E+02</pdfrwt>
<totfact> 0.23713593E+05</totfact>
</mgrwt>
</event>
<event>
 5    1  0.3858846E+001  0.9589331E+02  0.7546771E-02  0.1289177E+00
         -1   -1    0    0    0  501 -0.00000000000E+00  0.00000000000E+00  0.21458258099E+02  0.21458258099E+02  0.00000000000E+00 0.  1.
          1   -1    0    0  501    0  0.00000000000E+00 -0.00000000000E+00 -0.10713273003E+03  0.10713273003E+03  0.00000000000E+00 0. -1.
         23    2    1    2    0    0  0.00000000000E+00  0.00000000000E+00 -0.85674471926E+02  0.12859098813E+03  0.95893310962E+02 0.  0.
          2    1    3    3  502    0  0.21004021552E+02 -0.38123918910E+01  0.14734048584E+02  0.25938300657E+02  0.00000000000E+00 0.  1.
         -2    1    3    3    0  502 -0.21004021552E+02  0.38123918910E+01 -0.10040852051E+03  0.10265268747E+03  0.00000000000E+00 0. -1.
<mgrwt>
<rscale>  0 0.95893311E+02</rscale>
<asrwt>0</asrwt>
<pdfrwt beam="2">  1        1 0.16481959E-01 0.95893311E+02</pdfrwt>
<pdfrwt beam="1">  1       -1 0.33012704E-02 0.95893311E+02</pdfrwt>
<totfact> 0.92065573E+04</totfact>
</mgrwt>
</event>
<event>
 5    1  0.3858846E+001  0.8835731E+02  0.7546771E-02  0.1306879E+00
          2   -1    0    0  501    0  0.00000000000E+00  0.00000000000E+00  0.92055211623E+02  0.92055211623E+02  0.00000000000E+00 0.  1.
         -2   -1    0    0    0  501 -0.00000000000E+00 -0.00000000000E+00 -0.21201987703E+02  0.21201987703E+02  0.00000000000E+00 0. -1.
         23    2    1    2    0    0  0.00000000000E+00  0.00000000000E+00  0.70853223920E+02  0.11325719933E+03  0.88357307900E+02 0.  0.
          2    1    3    3  502    0  0.10796828111E+02  0.42699782006E+02  0.39850354827E+02  0.59396074453E+02  0.00000000000E+00 0. -1.
         -2    1    3    3    0  502 -0.10796828111E+02 -0.42699782006E+02  0.31002869093E+02  0.53861124873E+02  0.00000000000E+00 0.  1.
<mgrwt>
<rscale>  0 0.88357308E+02</rscale>
<asrwt>0</asrwt>
<pdfrwt beam="1">  1        2 0.14162340E-01 0.88357308E+02</pdfrwt>
<pdfrwt beam="2">  1       -2 0.32618443E-02 0.88357308E+02</pdfrwt>
<totfact> 0.13046739E+05</totfact>
</mgrwt>
</event>
<event>
 5    1  0.3858846E+001  0.8994842E+02  0.7546771E-02  0.1302977E+00
          2   -1    0    0  501    0  0.00000000000E+00  0.00000000000E+00  0.90354437034E+03  0.90354437034E+03  0.00000000000E+00 0. -1.
         -2   -1    0    0    0  501 -0.00000000000E+00 -0.00000000000E+00 -0.22386057843E+01  0.22386057843E+01  0.00000000000E+00 0.  1.
         23    2    1    2    0    0  0.00000000000E+00  0.00000000000E+00  0.90130576455E+03  0.90578297612E+03  0.89948421973E+02 0.  0.
          2    1    3    3  502    0 -0.35832435212E+02 -0.67482441484E+01  0.71577918518E+03  0.71670729322E+03  0.00000000000E+00 0. -1.
         -2    1    3    3    0  502  0.35832435212E+02  0.67482441484E+01  0.18552657937E+03  0.18907568291E+03  0.00000000000E+00 0.  1.
<mgrwt>
<rscale>  0 0.89948422E+02</rscale>
<asrwt>0</asrwt>
<pdfrwt beam="1">  1        2 0.13900653E+00 0.89948422E+02</pdfrwt>
<pdfrwt beam="2">  1       -2 0.34440161E-03 0.89948422E+02</pdfrwt>
<totfact> 0.25706523E+05</totfact>
</mgrwt>
</event>
<event>
 5    1  0.3858846E+001  0.9201744E+02  0.7546771E-02  0.1298038E+00
         -2   -1    0    0    0  501 -0.00000000000E+00  0.00000000000E+00  0.21287830516E+02  0.21287830516E+02  0.00000000000E+00 0. -1.
          2   -1    0    0  501    0  0.00000000000E+00 -0.00000000000E+00 -0.99437212207E+02  0.99437212207E+02  0.00000000000E+00 0.  1.
         23    2    1    2    0    0  0.00000000000E+00  0.00000000000E+00 -0.78149381691E+02  0.12072504272E+03  0.92017444442E+02 0.  0.
          2    1    3    3  502    0  0.19076082909E+02  0.73355697589E+01 -0.93154609634E+02  0.95370272196E+02  0.00000000000E+00 0.  1.
         -2    1    3    3    0  502 -0.19076082909E+02 -0.73355697589E+01  0.15005227942E+02  0.25354770526E+02  0.00000000000E+00 0. -1.
<mgrwt>
<rscale>  0 0.92017444E+02</rscale>
<asrwt>0</asrwt>
<pdfrwt beam="2">  1        2 0.15298033E-01 0.92017444E+02</pdfrwt>
<pdfrwt beam="1">  1       -2 0.32750508E-02 0.92017444E+02</pdfrwt>
<totfact> 0.11940488E+05</totfact>
</mgrwt>
</event>
<event>
 5    1  0.3858846E+001  0.8579804E+02  0.7546771E-02  0.1313359E+00
         -4   -1    0    0    0  501 -0.00000000000E+00  0.00000000000E+00  0.13401796497E+02  0.13401796497E+02  0.00000000000E+00 0.  1.
          4   -1    0    0  501    0  0.00000000000E+00 -0.00000000000E+00 -0.13731933316E+03  0.13731933316E+03  0.00000000000E+00 0. -1.
         23    2    1    2    0    0  0.00000000000E+00  0.00000000000E+00 -0.12391753666E+03  0.15072112965E+03  0.85798036296E+02 0.  0.
          2    1    3    3  502    0 -0.35758886475E+02 -0.22945293669E+02 -0.72372482925E+02  0.83922349515E+02  0.00000000000E+00 0. -1.
         -2    1    3    3    0  502  0.35758886475E+02  0.22945293669E+02 -0.51545053736E+02  0.66798780139E+02  0.00000000000E+00 0.  1.
<mgrwt>
<rscale>  0 0.85798036E+02</rscale>
<asrwt>0</asrwt>
<pdfrwt beam="2">  1        4 0.21126052E-01 0.85798036E+02</pdfrwt>
<pdfrwt beam="1">  1       -4 0.20618147E-02 0.85798036E+02</pdfrwt>
<totfact> 0.27812049E+04</totfact>
</mgrwt>
</event>
<event>
 5    1  0.3858846E+001  0.9233845E+02  0.7546771E-02  0.1297286E+00
          4   -1    0    0  501    0  0.00000000000E+00  0.00000000000E+00  0.48327663174E+03  0.48327663174E+03  0.00000000000E+00 0. -1.
         -4   -1    0    0    0  501 -0.00000000000E+00 -0.00000000000E+00 -0.44107183637E+01  0.44107183637E+01  0.00000000000E+00 0.  1.
         23    2    1    2    0    0  0.00000000000E+00  0.00000000000E+00  0.47886591337E+03  0.48768735010E+03  0.92338445176E+02 0.  0.
          2    1    3    3  502    0 -0.23451008565E+02  0.15380359329E+02  0.45730599691E+02  0.53645065047E+02  0.00000000000E+00 0.  1.
         -2    1    3    3    0  502  0.23451008565E+02 -0.15380359329E+02  0.43313531368E+03  0.43404228505E+03  0.00000000000E+00 0. -1.
<mgrwt>
<rscale>  0 0.92338445E+02</rscale>
<asrwt>0</asrwt>
<pdfrwt beam="1">  1        4 0.74350209E-01 0.92338445E+02</pdfrwt>
<pdfrwt beam="2">  1       -4 0.67857244E-03 0.92338445E+02</pdfrwt>
<totfact> 0.12863426E+04</totfact>
</mgrwt>
</event>
<event>
 5    1  0.3858846E+001  0.9344686E+02  0.7546771E-02  0.1294713E+00
         -1   -1    0    0    0  501 -0.00000000000E+00  0.00000000000E+00  0.16492458601E+02  0.16492458601E+02  0.00000000000E+00 0.  1.
          1   -1    0    0  501    0  0.00000000000E+00 -0.00000000000E+00 -0.13236830489E+03  0.13236830489E+03  0.00000000000E+00 0. -1.
         23    2    1    2    0    0  0.00000000000E+00  0.00000000000E+00 -0.11587584629E+03  0.14886076349E+03  0.93446857380E+02 0.  0.
          2    1    3    3  502    0 -0.48101244796E+01 -0.29257787373E+02 -0.11546092953E+03  0.11920730543E+03  0.00000000000E+00 0. -1.
         -2    1    3    3    0  502  0.48101244796E+01  0.29257787373E+02 -0.41491676357E+00  0.29653458068E+02  0.00000000000E+00 0.  1.
<mgrwt>
<rscale>  0 0.93446857E+02</rscale>
<asrwt>0</asrwt>
<pdfrwt beam="2">  1        1 0.20364355E-01 0.93446857E+02</pdfrwt>
<pdfrwt beam="1">  1       -1 0.25373013E-02 0.93446857E+02</pdfrwt>
<totfact> 0.10254730E+05</totfact>
</mgrwt>
</event>
<event>
 5    1  0.3858846E+001  0.9119535E+02  0.7546771E-02  0.1299983E+00
          2   -1    0    0  501    0  0.00000000000E+00  0.00000000000E+00  0.38516636837E+03  0.38516636837E+03  0.00000000000E+00 0. -1.
         -2   -1    0    0    0  501 -0.00000000000E+00 -0.00000000000E+00 -0.53980521823E+01  0.53980521823E+01  0.00000000000E+00 0.  1.
         23    2    1    2    0    0  0.00000000000E+00  0.00000000000E+00  0.37976831619E+03  0.39056442056E+03  0.91195354165E+02 0.  0.
          2    1    3    3  502    0 -0.30750879160E+02 -0.19823673114E+02  0.30643038105E+03  0.30860682594E+03  0.00000000000E+00 0. -1.
         -2    1    3    3    0  502  0.30750879160E+02  0.19823673114E+02  0.73337935144E+02  0.81957594621E+02  0.00000000000E+00 0.  1.
<mgrwt>
<rscale>  0 0.91195354E+02</rscale>
<asrwt>0</asrwt>
<pdfrwt beam="1">  1        2 0.59256343E-01 0.91195354E+02</pdfrwt>
<pdfrwt beam="2">  1       -2 0.83046987E-03 0.91195354E+02</pdfrwt>
<totfact> 0.19682612E+05</totfact>
</mgrwt>
</event>
<event>
 5    1  0.3858846E+001  0.9106567E+02  0.7546771E-02  0.1300291E+00
         -2   -1    0    0    0  501 -0.00000000000E+00  0.00000000000E+00  0.18035921960E+01  0.18035921960E+01  0.00000000000E+00 0.  1.
          2   -1    0    0  501    0  0.00000000000E+00 -0.00000000000E+00 -0.11495053592E+04  0.11495053592E+04  0.00000000000E+00 0. -1.
         23    2    1    2    0    0  0.00000000000E+00  0.00000000000E+00 -0.11477017670E+04  0.11513089514E+04  0.91065666310E+02 0.  0.
          2    1    3    3  502    0 -0.71850097274E+01  0.38795139294E+02 -0.86118957406E+03  0.86209290083E+03  0.00000000000E+00 0. -1.
         -2    1    3    3    0  502  0.71850097274E+01 -0.38795139294E+02 -0.28651219298E+03  0.28921605060E+03  0.00000000000E+00 0.  1.
<mgrwt>
<rscale>  0 0.91065666E+02</rscale>
<asrwt>0</asrwt>
<pdfrwt beam="2">  1        2 0.17684689E+00 0.91065666E+02</pdfrwt>
<pdfrwt beam="1">  1       -2 0.27747586E-03 0.91065666E+02</pdfrwt>
<totfact> 0.25044490E+05</totfact>
</mgrwt>
</event>
<event>
 5    1  0.3858846E+001  0.9120097E+02  0.7546771E-02  0.1299969E+00
         -2   -1    0    0    0  501 -0.00000000000E+00  0.00000000000E+00  0.52591875558E+01  0.52591875558E+01  0.00000000000E+00 0. -1.
          2   -1    0    0  501    0  0.00000000000E+00 -0.00000000000E+00 -0.39538506751E+03  0.39538506751E+03  0.00000000000E+00 0.  1.
         23    2    1    2    0    0  0.00000000000E+00  0.00000000000E+00 -0.39012587996E+03  0.40064425507E+03  0.91200969881E+02 0.  0.
          2    1    3    3  502    0  0.28059726119E+02 -0.89117095795E+01 -0.42086360026E+02  0.51361741577E+02  0.00000000000E+00 0. -1.
         -2    1    3    3    0  502 -0.28059726119E+02  0.89117095795E+01 -0.34803951993E+03  0.34928251349E+03  0.00000000000E+00 0.  1.
<mgrwt>
<rscale>  0 0.91200970E+02</rscale>
<asrwt>0</asrwt>
<pdfrwt beam="2">  1        2 0.60828487E-01 0.91200970E+02</pdfrwt>
<pdfrwt beam="1">  1       -2 0.80910558E-03 0.91200970E+02</pdfrwt>
<totfact> 0.19865744E+05</totfact>
</mgrwt>
</event>
<event>
 5    1  0.3858846E+001  0.9213656E+02  0.7546771E-02  0.1297759E+00
          2   -1    0    0  501    0  0.00000000000E+00  0.00000000000E+00  0.80714520934E+03  0.80714520934E+03  0.00000000000E+00 0. -1.
         -2   -1    0    0    0  501 -0.00000000000E+00 -0.00000000000E+00 -0.26293738307E+01  0.26293738307E+01  0.00000000000E+00 0.  1.
         23    2    1    2    0    0  0.00000000000E+00  0.00000000000E+00  0.80451583551E+03  0.80977458317E+03  0.92136561495E+02 0.  0.
          2    1    3    3  502    0 -0.18199705169E+02  0.36442668187E+02  0.59136924878E+03  0.59277051693E+03  0.00000000000E+00 0. -1.
         -2    1    3    3    0  502  0.18199705169E+02 -0.36442668187E+02  0.21314658672E+03  0.21700406624E+03  0.00000000000E+00 0.  1.
<mgrwt>
<rscale>  0 0.92136561E+02</rscale>
<asrwt>0</asrwt>
<pdfrwt beam="1">  1        2 0.12417599E+00 0.92136561E+02</pdfrwt>
<pdfrwt beam="2">  1       -2 0.40451969E-03 0.92136561E+02</pdfrwt>
<totfact> 0.23746751E+05</totfact>
</mgrwt>
</event>
<event>
 5    1  0.3858846E+001  0.8912728E+02  0.7546771E-02  0.1304979E+00
          3   -1    0    0  501    0  0.00000000000E+00  0.00000000000E+00  0.13194207299E+02  0.13194207299E+02  0.00000000000E+00 0. -1.
         -3   -1    0    0    0  501 -0.00000000000E+00 -0.00000000000E+00 -0.15051438477E+03  0.15051438477E+03  0.00000000000E+00 0.  1.
         23    2    1    2    0    0  0.00000000000E+00  0.00000000000E+00 -0.13732017748E+03  0.16370859207E+03  0.89127279646E+02 0.  0.
          2    1    3    3  502    0 -0.20132183998E+02 -0.32064909112E+02 -0.25487391289E+02  0.45640665460E+02  0.00000000000E+00 0. -1.
         -2    1    3    3    0  502  0.20132183998E+02  0.32064909112E+02 -0.11183278619E+03  0.11806792661E+03  0.00000000000E+00 0.  1.
<mgrwt>
<rscale>  0 0.89127280E+02</rscale>
<asrwt>0</asrwt>
<pdfrwt beam="1">  1        3 0.20298782E-02 0.89127280E+02</pdfrwt>
<pdfrwt beam="2">  1       -3 0.23156058E-01 0.89127280E+02</pdfrwt>
<totfact> 0.32418154E+04</totfact>
</mgrwt>
</event>
<event>
 5    1  0.3858846E+001  0.9209007E+02  0.7546771E-02  0.1297868E+00
         -1   -1    0    0    0  501 -0.00000000000E+00  0.00000000000E+00  0.73117103277E+01  0.73117103277E+01  0.00000000000E+00 0.  1.
          1   -1    0    0  501    0  0.00000000000E+00 -0.00000000000E+00 -0.28996569078E+03  0.28996569078E+03  0.00000000000E+00 0. -1.
         23    2    1    2    0    0  0.00000000000E+00  0.00000000000E+00 -0.28265398045E+03  0.29727740111E+03  0.92090067563E+02 0.  0.
          2    1    3    3  502    0  0.24806548891E+02 -0.58396949791E+01 -0.26512336753E+03  0.26634539026E+03  0.00000000000E+00 0. -1.
         -2    1    3    3    0  502 -0.24806548891E+02  0.58396949791E+01 -0.17530612923E+02  0.30932010843E+02  0.00000000000E+00 0.  1.
<mgrwt>
<rscale>  0 0.92090068E+02</rscale>
<asrwt>0</asrwt>
<pdfrwt beam="2">  1        1 0.44610108E-01 0.92090068E+02</pdfrwt>
<pdfrwt beam="1">  1       -1 0.11248785E-02 0.92090068E+02</pdfrwt>
<totfact> 0.12394879E+05</totfact>
</mgrwt>
</event>
<event>
 5    1  0.3858846E+001  0.9122689E+02  0.7546771E-02  0.1299908E+00
         -2   -1    0    0    0  501 -0.00000000000E+00  0.00000000000E+00  0.35838239238E+01  0.35838239238E+01  0.00000000000E+00 0.  1.
          2   -1    0    0  501    0  0.00000000000E+00 -0.00000000000E+00 -0.58054927339E+03  0.58054927339E+03  0.00000000000E+00 0. -1.
         23    2    1    2    0    0  0.00000000000E+00  0.00000000000E+00 -0.57696544946E+03  0.58413309731E+03  0.91226890223E+02 0.  0.
          2    1    3    3  502    0 -0.41487717602E+02 -0.13097829775E+01 -0.40957378076E+03  0.41167174803E+03  0.00000000000E+00 0. -1.
         -2    1    3    3    0  502  0.41487717602E+02  0.13097829775E+01 -0.16739166871E+03  0.17246134928E+03  0.00000000000E+00 0.  1.
<mgrwt>
<rscale>  0 0.91226890E+02</rscale>
<asrwt>0</asrwt>
<pdfrwt beam="2">  1        2 0.89315272E-01 0.91226890E+02</pdfrwt>
<pdfrwt beam="1">  1       -2 0.55135753E-03 0.91226890E+02</pdfrwt>
<totfact> 0.22537065E+05</totfact>
</mgrwt>
</event>
<event>
 5    1  0.3858846E+001  0.9187464E+02  0.7546771E-02  0.1298374E+00
          1   -1    0    0  501    0  0.00000000000E+00  0.00000000000E+00  0.12364516336E+03  0.12364516336E+03  0.00000000000E+00 0. -1.
         -1   -1    0    0    0  501 -0.00000000000E+00 -0.00000000000E+00 -0.17066880310E+02  0.17066880310E+02  0.00000000000E+00 0.  1.
         23    2    1    2    0    0  0.00000000000E+00  0.00000000000E+00  0.10657828305E+03  0.14071204367E+03  0.91874636412E+02 0.  0.
          2    1    3    3  502    0  0.17883432915E+01  0.38688037732E+02  0.91124542825E+02  0.99013356373E+02  0.00000000000E+00 0. -1.
         -2    1    3    3    0  502 -0.17883432915E+01 -0.38688037732E+02  0.15453740225E+02  0.41698687296E+02  0.00000000000E+00 0.  1.
<mgrwt>
<rscale>  0 0.91874636E+02</rscale>
<asrwt>0</asrwt>
<pdfrwt beam="1">  1        1 0.19022332E-01 0.91874636E+02</pdfrwt>
<pdfrwt beam="2">  1       -1 0.26256740E-02 0.91874636E+02</pdfrwt>
<totfact> 0.10608566E+05</totfact>
</mgrwt>
</event>
<event>
 5    1  0.3858846E+001  0.9139468E+02  0.7546771E-02  0.1299509E+00
          2   -1    0    0  501    0  0.00000000000E+00  0.00000000000E+00  0.25082558703E+02  0.25082558703E+02  0.00000000000E+00 0. -1.
         -2   -1    0    0    0  501 -0.00000000000E+00 -0.00000000000E+00 -0.83254943183E+02  0.83254943183E+02  0.00000000000E+00 0.  1.
         23    2    1    2    0    0  0.00000000000E+00  0.00000000000E+00 -0.58172384480E+02  0.10833750189E+03  0.91394682552E+02 0.  0.
          2    1    3    3  502    0 -0.27002687722E+02 -0.29150334222E+02 -0.23333301051E+01  0.39803662631E+02  0.00000000000E+00 0. -1.
         -2    1    3    3    0  502  0.27002687722E+02  0.29150334222E+02 -0.55839054375E+02  0.68533839255E+02  0.00000000000E+00 0.  1.
<mgrwt>
<rscale>  0 0.91394683E+02</rscale>
<asrwt>0</asrwt>
<pdfrwt beam="1">  1        2 0.38588553E-02 0.91394683E+02</pdfrwt>
<pdfrwt beam="2">  1       -2 0.12808452E-01 0.91394683E+02</pdfrwt>
<totfact> 0.83647870E+04</totfact>
</mgrwt>
</event>
<event>
 5    1  0.3858846E+001  0.9377295E+02  0.7546771E-02  0.1293964E+00
          1   -1    0    0  501    0  0.00000000000E+00  0.00000000000E+00  0.54417031063E+02  0.54417031063E+02  0.00000000000E+00 0. -1.
         -1   -1    0    0    0  501 -0.00000000000E+00 -0.00000000000E+00 -0.40398041947E+02  0.40398041947E+02  0.00000000000E+00 0.  1.
         23    2    1    2    0    0  0.00000000000E+00  0.00000000000E+00  0.14018989115E+02  0.94815073010E+02  0.93772949266E+02 0.  0.
          2    1    3    3  502    0  0.21288057398E+02 -0.27116660303E+02  0.39140740475E+02  0.52158337960E+02  0.00000000000E+00 0. -1.
         -2    1    3    3    0  502 -0.21288057398E+02  0.27116660303E+02 -0.25121751360E+02  0.42656735050E+02  0.00000000000E+00 0.  1.
<mgrwt>
<rscale>  0 0.93772949E+02</rscale>
<asrwt>0</asrwt>
<pdfrwt beam="1">  1        1 0.83718509E-02 0.93772949E+02</pdfrwt>
<pdfrwt beam="2">  1       -1 0.62150834E-02 0.93772949E+02</pdfrwt>
<totfact> 0.87799798E+04</totfact>
</mgrwt>
</event>
<event>
 5    1  0.3858846E+001  0.8813272E+02  0.7546771E-02  0.1307438E+00
          1   -1    0    0  501    0  0.00000000000E+00  0.00000000000E+00  0.14985086004E+03  0.14985086004E+03  0.00000000000E+00 0. -1.
         -1   -1    0    0    0  501 -0.00000000000E+00 -0.00000000000E+00 -0.12958511416E+02  0.12958511416E+02  0.00000000000E+00 0.  1.
         23    2    1    2    0    0  0.00000000000E+00  0.00000000000E+00  0.13689234862E+03  0.16280937145E+03  0.88132719927E+02 0.  0.
          2    1    3    3  502    0  0.42752890713E+01 -0.41845658976E+02  0.92709221712E+02  0.10180538818E+03  0.00000000000E+00 0. -1.
         -2    1    3    3    0  502 -0.42752890713E+01  0.41845658976E+02  0.44183126908E+02  0.61003983273E+02  0.00000000000E+00 0.  1.
<mgrwt>
<rscale>  0 0.88132720E+02</rscale>
<asrwt>0</asrwt>
<pdfrwt beam="1">  1        1 0.23053977E-01 0.88132720E+02</pdfrwt>
<pdfrwt beam="2">  1       -1 0.19936172E-02 0.88132720E+02</pdfrwt>
<totfact> 0.12283732E+05</totfact>
</mgrwt>
</event>
<event>
 5    1  0.3858846E+001  0.8449443E+02  0.7546771E-02  0.1316760E+00
          1   -1    0    0  501    0  0.00000000000E+00  0.00000000000E+00  0.20478595680E+03  0.20478595680E+03  0.00000000000E+00 0. -1.
         -1   -1    0    0    0  501 -0.00000000000E+00 -0.00000000000E+00 -0.87155739161E+01  0.87155739161E+01  0.00000000000E+00 0.  1.
         23    2    1    2    0    0  0.00000000000E+00  0.00000000000E+00  0.19607038289E+03  0.21350153072E+03  0.84494429248E+02 0.  0.
          2    1    3    3  502    0  0.33611056743E+02  0.95719962035E+01  0.15801709196E+03  0.16183549548E+03  0.00000000000E+00 0. -1.
         -2    1    3    3    0  502 -0.33611056743E+02 -0.95719962035E+01  0.38053290929E+02  0.51666035238E+02  0.00000000000E+00 0.  1.
<mgrwt>
<rscale>  0 0.84494429E+02</rscale>
<asrwt>0</asrwt>
<pdfrwt beam="1">  1        1 0.31505528E-01 0.84494429E+02</pdfrwt>
<pdfrwt beam="2">  1       -1 0.13408577E-02 0.84494429E+02</pdfrwt>
<totfact> 0.14573433E+05</totfact>
</mgrwt>
</event>
<event>
 5    1  0.3858846E+001  0.9140408E+02  0.7546771E-02  0.1299487E+00
         -2   -1    0    0    0  501 -0.00000000000E+00  0.00000000000E+00  0.17405606820E+01  0.17405606820E+01  0.00000000000E+00 0. -1.
          2   -1    0    0  501    0  0.00000000000E+00 -0.00000000000E+00 -0.12000021224E+04  0.12000021224E+04  0.00000000000E+00 0.  1.
         23    2    1    2    0    0  0.00000000000E+00  0.00000000000E+00 -0.11982615617E+04  0.12017426831E+04  0.91404081146E+02 0.  0.
          2    1    3    3  502    0 -0.29365587216E+02  0.16326400397E+02 -0.19181294012E+03  0.19473338968E+03  0.00000000000E+00 0. -1.
         -2    1    3    3    0  502  0.29365587216E+02 -0.16326400397E+02 -0.10064486216E+04  0.10070092934E+04  0.00000000000E+00 0.  1.
<mgrwt>
<rscale>  0 0.91404081E+02</rscale>
<asrwt>0</asrwt>
<pdfrwt beam="2">  1        2 0.18461543E+00 0.91404081E+02</pdfrwt>
<pdfrwt beam="1">  1       -2 0.26777898E-03 0.91404081E+02</pdfrwt>
<totfact> 0.24705997E+05</totfact>
</mgrwt>
</event>
<event>
 5    1  0.3858846E+001  0.9041327E+02  0.7546771E-02  0.1301854E+00
          2   -1    0    0  501    0  0.00000000000E+00  0.00000000000E+00  0.28821342395E+02  0.28821342395E+02  0.00000000000E+00 0. -1.
         -2   -1    0    0    0  501 -0.00000000000E+00 -0.00000000000E+00 -0.70907174552E+02  0.70907174552E+02  0.00000000000E+00 0.  1.
         23    2    1    2    0    0  0.00000000000E+00  0.00000000000E+00 -0.42085832158E+02  0.99728516947E+02  0.90413272388E+02 0.  0.
          2    1    3    3  502    0 -0.39093309880E+02 -0.12443649003E+02 -0.99619915618E-01  0.41026103910E+02  0.00000000000E+00 0. -1.
         -2    1    3    3    0  502  0.39093309880E+02  0.12443649003E+02 -0.41986212242E+02  0.58702413037E+02  0.00000000000E+00 0.  1.
<mgrwt>
<rscale>  0 0.90413272E+02</rscale>
<asrwt>0</asrwt>
<pdfrwt beam="1">  1        2 0.44340527E-02 0.90413272E+02</pdfrwt>
<pdfrwt beam="2">  1       -2 0.10908796E-01 0.90413272E+02</pdfrwt>
<totfact> 0.89737084E+04</totfact>
</mgrwt>
</event>
<event>
 5    1  0.3858846E+001  0.9144753E+02  0.7546771E-02  0.1299384E+00
         -2   -1    0    0    0  501 -0.00000000000E+00  0.00000000000E+00  0.23214562432E+02  0.23214562432E+02  0.00000000000E+00 0.  1.
          2   -1    0    0  501    0  0.00000000000E+00 -0.00000000000E+00 -0.90058250967E+02  0.90058250967E+02  0.00000000000E+00 0. -1.
         23    2    1    2    0    0  0.00000000000E+00  0.00000000000E+00 -0.66843688535E+02  0.11327281340E+03  0.91447534458E+02 0.  0.
          2    1    3    3  502    0  0.15214175149E+02 -0.35847407447E+02 -0.63102146321E+02  0.74151120130E+02  0.00000000000E+00 0. -1.
         -2    1    3    3    0  502 -0.15214175149E+02  0.35847407447E+02 -0.37415422139E+01  0.39121693270E+02  0.00000000000E+00 0.  1.
<mgrwt>
<rscale>  0 0.91447534E+02</rscale>
<asrwt>0</asrwt>
<pdfrwt beam="2">  1        2 0.13855115E-01 0.91447534E+02</pdfrwt>
<pdfrwt beam="1">  1       -2 0.35714712E-02 0.91447534E+02</pdfrwt>
<totfact> 0.11790957E+05</totfact>
</mgrwt>
</event>
<event>
 5    1  0.3858846E+001  0.9018104E+02  0.7546771E-02  0.1302414E+00
          3   -1    0    0  501    0  0.00000000000E+00  0.00000000000E+00  0.30530573280E+02  0.30530573280E+02  0.00000000000E+00 0. -1.
         -3   -1    0    0    0  501 -0.00000000000E+00 -0.00000000000E+00 -0.66594070389E+02  0.66594070389E+02  0.00000000000E+00 0.  1.
         23    2    1    2    0    0  0.00000000000E+00  0.00000000000E+00 -0.36063497109E+02  0.97124643669E+02  0.90181043374E+02 0.  0.
          2    1    3    3  502    0 -0.39672300728E+02  0.11107996070E+02  0.17062789304E+01  0.41233365246E+02  0.00000000000E+00 0. -1.
         -2    1    3    3    0  502  0.39672300728E+02 -0.11107996070E+02 -0.37769776040E+02  0.55891278423E+02  0.00000000000E+00 0.  1.
<mgrwt>
<rscale>  0 0.90181043E+02</rscale>
<asrwt>0</asrwt>
<pdfrwt beam="1">  1        3 0.46970113E-02 0.90181043E+02</pdfrwt>
<pdfrwt beam="2">  1       -3 0.10245242E-01 0.90181043E+02</pdfrwt>
<totfact> 0.35943618E+04</totfact>
</mgrwt>
</event>
<event>
 5    1  0.3858846E+001  0.9257412E+02  0.7546771E-02  0.1296735E+00
          1   -1    0    0  501    0  0.00000000000E+00  0.00000000000E+00  0.50686793891E+03  0.50686793891E+03  0.00000000000E+00 0. -1.
         -1   -1    0    0    0  501 -0.00000000000E+00 -0.00000000000E+00 -0.42269231436E+01  0.42269231436E+01  0.00000000000E+00 0.  1.
         23    2    1    2    0    0  0.00000000000E+00  0.00000000000E+00  0.50264101577E+03  0.51109486206E+03  0.92574117803E+02 0.  0.
          2    1    3    3  502    0  0.41354510992E+02  0.18196310995E+02  0.30685743192E+03  0.31016573769E+03  0.00000000000E+00 0. -1.
         -2    1    3    3    0  502 -0.41354510992E+02 -0.18196310995E+02  0.19578358385E+03  0.20092912436E+03  0.00000000000E+00 0.  1.
<mgrwt>
<rscale>  0 0.92574118E+02</rscale>
<asrwt>0</asrwt>
<pdfrwt beam="1">  1        1 0.77979635E-01 0.92574118E+02</pdfrwt>
<pdfrwt beam="2">  1       -1 0.65029627E-03 0.92574118E+02</pdfrwt>
<totfact> 0.13397090E+05</totfact>
</mgrwt>
</event>
<event>
 5    1  0.3858846E+001  0.8962555E+02  0.7546771E-02  0.1303761E+00
          2   -1    0    0  501    0  0.00000000000E+00  0.00000000000E+00  0.23262051170E+03  0.23262051170E+03  0.00000000000E+00 0. -1.
         -2   -1    0    0    0  501 -0.00000000000E+00 -0.00000000000E+00 -0.86328800129E+01  0.86328800129E+01  0.00000000000E+00 0.  1.
         23    2    1    2    0    0  0.00000000000E+00  0.00000000000E+00  0.22398763168E+03  0.24125339171E+03  0.89625553633E+02 0.  0.
          2    1    3    3  502    0  0.34236973086E+02  0.18606615677E+02  0.52420094190E+02  0.65316481442E+02  0.00000000000E+00 0.  1.
         -2    1    3    3    0  502 -0.34236973086E+02 -0.18606615677E+02  0.17156753749E+03  0.17593691027E+03  0.00000000000E+00 0. -1.
<mgrwt>
<rscale>  0 0.89625554E+02</rscale>
<asrwt>0</asrwt>
<pdfrwt beam="1">  1        2 0.35787766E-01 0.89625554E+02</pdfrwt>
<pdfrwt beam="2">  1       -2 0.13281356E-02 0.89625554E+02</pdfrwt>
<totfact> 0.17114161E+05</totfact>
</mgrwt>
</event>
<event>
 5    1  0.3858846E+001  0.9102162E+02  0.7546771E-02  0.1300396E+00
         -1   -1    0    0    0  501 -0.00000000000E+00  0.00000000000E+00  0.15444797293E+03  0.15444797293E+03  0.00000000000E+00 0.  1.
          1   -1    0    0  501    0  0.00000000000E+00 -0.00000000000E+00 -0.13410560238E+02  0.13410560238E+02  0.00000000000E+00 0. -1.
         23    2    1    2    0    0  0.00000000000E+00  0.00000000000E+00  0.14103741269E+03  0.16785853316E+03  0.91021620388E+02 0.  0.
          2    1    3    3  502    0  0.34242440029E+02  0.24510331088E+02  0.10235027428E+03  0.11067465688E+03  0.00000000000E+00 0.  1.
         -2    1    3    3    0  502 -0.34242440029E+02 -0.24510331088E+02  0.38687138407E+02  0.57183876288E+02  0.00000000000E+00 0. -1.
<mgrwt>
<rscale>  0 0.91021620E+02</rscale>
<asrwt>0</asrwt>
<pdfrwt beam="2">  1        1 0.20631632E-02 0.91021620E+02</pdfrwt>
<pdfrwt beam="1">  1       -1 0.23761225E-01 0.91021620E+02</pdfrwt>
<totfact> 0.74603357E+04</totfact>
</mgrwt>
</event>
<event>
 5    1  0.3858846E+001  0.8608579E+02  0.7546771E-02  0.1312617E+00
          2   -1    0    0  501    0  0.00000000000E+00  0.00000000000E+00  0.71762068515E+01  0.71762068515E+01  0.00000000000E+00 0.  1.
         -2   -1    0    0    0  501 -0.00000000000E+00 -0.00000000000E+00 -0.25817134310E+03  0.25817134310E+03  0.00000000000E+00 0. -1.
         23    2    1    2    0    0  0.00000000000E+00  0.00000000000E+00 -0.25099513625E+03  0.26534754995E+03  0.86085793513E+02 0.  0.
          2    1    3    3  502    0 -0.44256050335E+01 -0.42713272254E+02 -0.11641565500E+03  0.12408309448E+03  0.00000000000E+00 0.  1.
         -2    1    3    3    0  502  0.44256050335E+01  0.42713272254E+02 -0.13457948125E+03  0.14126445547E+03  0.00000000000E+00 0. -1.
<mgrwt>
<rscale>  0 0.86085794E+02</rscale>
<asrwt>0</asrwt>
<pdfrwt beam="1">  1        2 0.11040318E-02 0.86085794E+02</pdfrwt>
<pdfrwt beam="2">  1       -2 0.39718668E-01 0.86085794E+02</pdfrwt>
<totfact> 0.64044229E+04</totfact>
</mgrwt>
</event>
<event>
 5    1  0.3858846E+001  0.7728665E+02  0.7546771E-02  0.1336933E+00
         -1   -1    0    0    0  501 -0.00000000000E+00  0.00000000000E+00  0.14107283045E+03  0.14107283045E+03  0.00000000000E+00 0.  1.
          1   -1    0    0  501    0  0.00000000000E+00 -0.00000000000E+00 -0.10585359246E+02  0.10585359246E+02  0.00000000000E+00 0. -1.
         23    2    1    2    0    0  0.00000000000E+00  0.00000000000E+00  0.13048747120E+03  0.15165818970E+03  0.77286650599E+02 0.  0.
          2    1    3    3  502    0 -0.21509584927E+02  0.32088940587E+02  0.67150522777E+02  0.77469704149E+02  0.00000000000E+00 0. -1.
         -2    1    3    3    0  502  0.21509584927E+02 -0.32088940587E+02  0.63336948427E+02  0.74188485547E+02  0.00000000000E+00 0.  1.
<mgrwt>
<rscale>  0 0.77286651E+02</rscale>
<asrwt>0</asrwt>
<pdfrwt beam="2">  1        1 0.16285169E-02 0.77286651E+02</pdfrwt>
<pdfrwt beam="1">  1       -1 0.21703511E-01 0.77286651E+02</pdfrwt>
<totfact> 0.11619556E+05</totfact>
</mgrwt>
</event>
<event>
 5    1  0.3858846E+001  0.9106398E+02  0.7546771E-02  0.1300295E+00
         -2   -1    0    0    0  501 -0.00000000000E+00  0.00000000000E+00  0.82421037251E+01  0.82421037251E+01  0.00000000000E+00 0. -1.
          2   -1    0    0  501    0  0.00000000000E+00 -0.00000000000E+00 -0.25153314558E+03  0.25153314558E+03  0.00000000000E+00 0.  1.
         23    2    1    2    0    0  0.00000000000E+00  0.00000000000E+00 -0.24329104185E+03  0.25977524930E+03  0.91063983575E+02 0.  0.
          2    1    3    3  502    0  0.55085108383E+01 -0.39769914771E+02 -0.60384700362E+02  0.72514149312E+02  0.00000000000E+00 0. -1.
         -2    1    3    3    0  502 -0.55085108383E+01  0.39769914771E+02 -0.18290634149E+03  0.18726109999E+03  0.00000000000E+00 0.  1.
<mgrwt>
<rscale>  0 0.91063984E+02</rscale>
<asrwt>0</asrwt>
<pdfrwt beam="2">  1        2 0.38697408E-01 0.91063984E+02</pdfrwt>
<pdfrwt beam="1">  1       -2 0.12680159E-02 0.91063984E+02</pdfrwt>
<totfact> 0.16879997E+05</totfact>
</mgrwt>
</event>
<event>
 5    1  0.3858846E+001  0.8660267E+02  0.7546771E-02  0.1311294E+00
          4   -1    0    0  501    0  0.00000000000E+00  0.00000000000E+00  0.12328706003E+03  0.12328706003E+03  0.00000000000E+00 0. -1.
         -4   -1    0    0    0  501 -0.00000000000E+00 -0.00000000000E+00 -0.15208454993E+02  0.15208454993E+02  0.00000000000E+00 0.  1.
         23    2    1    2    0    0  0.00000000000E+00  0.00000000000E+00  0.10807860504E+03  0.13849551502E+03  0.86602672099E+02 0.  0.
          2    1    3    3  502    0 -0.41989410971E+01  0.42595127999E+02  0.64529614766E+02  0.77434147619E+02  0.00000000000E+00 0. -1.
         -2    1    3    3    0  502  0.41989410971E+01 -0.42595127999E+02  0.43548990270E+02  0.61061367404E+02  0.00000000000E+00 0.  1.
<mgrwt>
<rscale>  0 0.86602672E+02</rscale>
<asrwt>0</asrwt>
<pdfrwt beam="1">  1        4 0.18967239E-01 0.86602672E+02</pdfrwt>
<pdfrwt beam="2">  1       -4 0.23397624E-02 0.86602672E+02</pdfrwt>
<totfact> 0.27853574E+04</totfact>
</mgrwt>
</event>
<event>
 5    1  0.3858846E+001  0.9049028E+02  0.7546771E-02  0.1301669E+00
         -1   -1    0    0    0  501 -0.00000000000E+00  0.00000000000E+00  0.88483965103E+01  0.88483965103E+01  0.00000000000E+00 0.  1.
          1   -1    0    0  501    0  0.00000000000E+00 -0.00000000000E+00 -0.23135520728E+03  0.23135520728E+03  0.00000000000E+00 0. -1.
         23    2    1    2    0    0  0.00000000000E+00  0.00000000000E+00 -0.22250681077E+03  0.24020360379E+03  0.90490278123E+02 0.  0.
          2    1    3    3  502    0  0.39436145620E+01  0.21325002435E+02 -0.58467732269E+01  0.22460912311E+02  0.00000000000E+00 0.  1.
         -2    1    3    3    0  502 -0.39436145620E+01 -0.21325002435E+02 -0.21666003754E+03  0.21774269148E+03  0.00000000000E+00 0. -1.
<mgrwt>
<rscale>  0 0.90490278E+02</rscale>
<asrwt>0</asrwt>
<pdfrwt beam="2">  1        1 0.35593107E-01 0.90490278E+02</pdfrwt>
<pdfrwt beam="1">  1       -1 0.13612918E-02 0.90490278E+02</pdfrwt>
<totfact> 0.12430035E+05</totfact>
</mgrwt>
</event>
<event>
 5    1  0.3858846E+001  0.7524808E+02  0.7546771E-02  0.1343105E+00
          2   -1    0    0  501    0  0.00000000000E+00  0.00000000000E+00  0.20004478189E+03  0.20004478189E+03  0.00000000000E+00 0. -1.
         -2   -1    0    0    0  501 -0.00000000000E+00 -0.00000000000E+00 -0.70762572357E+01  0.70762572357E+01  0.00000000000E+00 0.  1.
         23    2    1    2    0    0  0.00000000000E+00  0.00000000000E+00  0.19296852466E+03  0.20712103913E+03  0.75248078656E+02 0.  0.
          2    1    3    3  502    0 -0.13912162540E+02 -0.23301275983E+02  0.16821185696E+03  0.17038699056E+03  0.00000000000E+00 0. -1.
         -2    1    3    3    0  502  0.13912162540E+02  0.23301275983E+02  0.24756667696E+02  0.36734048571E+02  0.00000000000E+00 0.  1.
<mgrwt>
<rscale>  0 0.75248079E+02</rscale>
<asrwt>0</asrwt>
<pdfrwt beam="1">  1        2 0.30776116E-01 0.75248079E+02</pdfrwt>
<pdfrwt beam="2">  1       -2 0.10886551E-02 0.75248079E+02</pdfrwt>
<totfact> 0.25784918E+05</totfact>
</mgrwt>
</event>
<event>
 5    1  0.3858846E+001  0.9130140E+02  0.7546771E-02  0.1299730E+00
         -1   -1    0    0    0  501 -0.00000000000E+00  0.00000000000E+00  0.41504704751E+02  0.41504704751E+02  0.00000000000E+00 0.  1.
          1   -1    0    0  501    0  0.00000000000E+00 -0.00000000000E+00 -0.50210852029E+02  0.50210852029E+02  0.00000000000E+00 0. -1.
         23    2    1    2    0    0  0.00000000000E+00  0.00000000000E+00 -0.87061472785E+01  0.91715556780E+02  0.91301403905E+02 0.  0.
          2    1    3    3  502    0  0.35152514597E+02  0.51807530821E+01 -0.33143981038E+02  0.48590770359E+02  0.00000000000E+00 0. -1.
         -2    1    3    3    0  502 -0.35152514597E+02 -0.51807530821E+01  0.24437833759E+02  0.43124786421E+02  0.00000000000E+00 0.  1.
<mgrwt>
<rscale>  0 0.91301404E+02</rscale>
<asrwt>0</asrwt>
<pdfrwt beam="2">  1        1 0.77247464E-02 0.91301404E+02</pdfrwt>
<pdfrwt beam="1">  1       -1 0.63853392E-02 0.91301404E+02</pdfrwt>
<totfact> 0.93465438E+04</totfact>
</mgrwt>
</event>
<event>
 5    1  0.3858846E+001  0.8871798E+02  0.7546771E-02  0.1305986E+00
         -2   -1    0    0    0  501 -0.00000000000E+00  0.00000000000E+00  0.14018365312E+01  0.14018365312E+01  0.00000000000E+00 0.  1.
          2   -1    0    0  501    0  0.00000000000E+00 -0.00000000000E+00 -0.14036730196E+04  0.14036730196E+04  0.00000000000E+00 0. -1.
         23    2    1    2    0    0  0.00000000000E+00  0.00000000000E+00 -0.14022711831E+04  0.14050748562E+04  0.88717982772E+02 0.  0.
          2    1    3    3  502    0  0.42708641254E+02  0.50968862309E+01 -0.87296660378E+03  0.87402557034E+03  0.00000000000E+00 0. -1.
         -2    1    3    3    0  502 -0.42708641254E+02 -0.50968862309E+01 -0.52930457931E+03  0.53104928582E+03  0.00000000000E+00 0.  1.
<mgrwt>
<rscale>  0 0.88717983E+02</rscale>
<asrwt>0</asrwt>
<pdfrwt beam="2">  1        2 0.21595114E+00 0.88717983E+02</pdfrwt>
<pdfrwt beam="1">  1       -2 0.21566571E-03 0.88717983E+02</pdfrwt>
<totfact> 0.25920972E+05</totfact>
</mgrwt>
</event>
<event>
 5    1  0.3858846E+001  0.8886166E+02  0.7546771E-02  0.1305632E+00
         -2   -1    0    0    0  501 -0.00000000000E+00  0.00000000000E+00  0.12259507857E+03  0.12259507857E+03  0.00000000000E+00 0.  1.
          2   -1    0    0  501    0  0.00000000000E+00 -0.00000000000E+00 -0.16102592321E+02  0.16102592321E+02  0.00000000000E+00 0. -1.
         23    2    1    2    0    0  0.00000000000E+00  0.00000000000E+00  0.10649248624E+03  0.13869767089E+03  0.88861658115E+02 0.  0.
          2    1    3    3  502    0  0.39405505962E+02  0.19256644065E+02  0.42155984953E+02  0.60833702075E+02  0.00000000000E+00 0. -1.
         -2    1    3    3    0  502 -0.39405505962E+02 -0.19256644065E+02  0.64336501291E+02  0.77863968812E+02  0.00000000000E+00 0.  1.
<mgrwt>
<rscale>  0 0.88861658E+02</rscale>
<asrwt>0</asrwt>
<pdfrwt beam="2">  1        2 0.24773220E-02 0.88861658E+02</pdfrwt>
<pdfrwt beam="1">  1       -2 0.18860781E-01 0.88861658E+02</pdfrwt>
<totfact> 0.79887689E+04</totfact>
</mgrwt>
</event>
<event>
 5    1  0.3858846E+001  0.9104948E+02  0.7546771E-02  0.1300330E+00
         -2   -1    0    0    0  501 -0.00000000000E+00  0.00000000000E+00  0.15600438595E+01  0.15600438595E+01  0.00000000000E+00 0.  1.
          2   -1    0    0  501    0  0.00000000000E+00 -0.00000000000E+00 -0.13284894583E+04  0.13284894583E+04  0.00000000000E+00 0. -1.
         23    2    1    2    0    0  0.00000000000E+00  0.00000000000E+00 -0.13269294144E+04  0.13300495021E+04  0.91049477138E+02 0.  0.
          2    1    3    3  502    0  0.32383287966E+02 -0.15987266860E+02 -0.10683541784E+04  0.10689644150E+04  0.00000000000E+00 0. -1.
         -2    1    3    3    0  502 -0.32383287966E+02  0.15987266860E+02 -0.25857523600E+03  0.26108508712E+03  0.00000000000E+00 0.  1.
<mgrwt>
<rscale>  0 0.91049477E+02</rscale>
<asrwt>0</asrwt>
<pdfrwt beam="2">  1        2 0.20438217E+00 0.91049477E+02</pdfrwt>
<pdfrwt beam="1">  1       -2 0.24000772E-03 0.91049477E+02</pdfrwt>
<totfact> 0.24549775E+05</totfact>
</mgrwt>
</event>
<event>
 5    1  0.3858846E+001  0.8735799E+02  0.7546771E-02  0.1309379E+00
         -1   -1    0    0    0  501 -0.00000000000E+00  0.00000000000E+00  0.88868857684E+01  0.88868857684E+01  0.00000000000E+00 0.  1.
          1   -1    0    0  501    0  0.00000000000E+00 -0.00000000000E+00 -0.21468204357E+03  0.21468204357E+03  0.00000000000E+00 0. -1.
         23    2    1    2    0    0  0.00000000000E+00  0.00000000000E+00 -0.20579515781E+03  0.22356892934E+03  0.87357994431E+02 0.  0.
          2    1    3    3  502    0  0.47045728109E+01  0.23395316580E+02 -0.19652405247E+03  0.19796761615E+03  0.00000000000E+00 0. -1.
         -2    1    3    3    0  502 -0.47045728109E+01 -0.23395316580E+02 -0.92711053339E+01  0.25601313195E+02  0.00000000000E+00 0.  1.
<mgrwt>
<rscale>  0 0.87357994E+02</rscale>
<asrwt>0</asrwt>
<pdfrwt beam="2">  1        1 0.33028004E-01 0.87357994E+02</pdfrwt>
<pdfrwt beam="1">  1       -1 0.13672133E-02 0.87357994E+02</pdfrwt>
<totfact> 0.13458037E+05</totfact>
</mgrwt>
</event>
<event>
 5    1  0.3858846E+001  0.1020105E+03  0.7546771E-02  0.1276124E+00
          1   -1    0    0  501    0  0.00000000000E+00  0.00000000000E+00  0.12602183660E+04  0.12602183660E+04  0.00000000000E+00 0. -1.
         -1   -1    0    0    0  501 -0.00000000000E+00 -0.00000000000E+00 -0.20643517622E+01  0.20643517622E+01  0.00000000000E+00 0.  1.
         23    2    1    2    0    0  0.00000000000E+00  0.00000000000E+00  0.12581540143E+04  0.12622827178E+04  0.10201047014E+03 0.  0.
          2    1    3    3  502    0 -0.37629725597E+02  0.17423444975E+02  0.99655950255E+03  0.99742188407E+03  0.00000000000E+00 0. -1.
         -2    1    3    3    0  502  0.37629725597E+02 -0.17423444975E+02  0.26159451173E+03  0.26486083374E+03  0.00000000000E+00 0.  1.
<mgrwt>
<rscale>  0 0.10201047E+03</rscale>
<asrwt>0</asrwt>
<pdfrwt beam="1">  1        1 0.19387913E+00 0.10201047E+03</pdfrwt>
<pdfrwt beam="2">  1       -1 0.31759359E-03 0.10201047E+03</pdfrwt>
<totfact> 0.92149565E+04</totfact>
</mgrwt>
</event>
<event>
 5    1  0.3858846E+001  0.1005455E+03  0.7546771E-02  0.1279153E+00
          1   -1    0    0  501    0  0.00000000000E+00  0.00000000000E+00  0.31291612991E+03  0.31291612991E+03  0.00000000000E+00 0. -1.
         -1   -1    0    0    0  501 -0.00000000000E+00 -0.00000000000E+00 -0.80767707192E+01  0.80767707192E+01  0.00000000000E+00 0.  1.
         23    2    1    2    0    0  0.00000000000E+00  0.00000000000E+00  0.30483935919E+03  0.32099290063E+03  0.10054554860E+03 0.  0.
          2    1    3    3  502    0  0.14895650916E+02 -0.38072046272E+02  0.24582403021E+03  0.24920035103E+03  0.00000000000E+00 0. -1.
         -2    1    3    3    0  502 -0.14895650916E+02  0.38072046272E+02  0.59015328979E+02  0.71792549599E+02  0.00000000000E+00 0.  1.
<mgrwt>
<rscale>  0 0.10054555E+03</rscale>
<asrwt>0</asrwt>
<pdfrwt beam="1">  1        1 0.48140934E-01 0.10054555E+03</pdfrwt>
<pdfrwt beam="2">  1       -1 0.12425803E-02 0.10054555E+03</pdfrwt>
<totfact> 0.99392070E+04</totfact>
</mgrwt>
</event>
<event>
 5    1  0.3858846E+001  0.9318072E+02  0.7546771E-02  0.1295327E+00
         -1   -1    0    0    0  501 -0.00000000000E+00  0.00000000000E+00  0.25547877033E+01  0.25547877033E+01  0.00000000000E+00 0.  1.
          1   -1    0    0  501    0  0.00000000000E+00 -0.00000000000E+00 -0.84964456983E+03  0.84964456983E+03  0.00000000000E+00 0. -1.
         23    2    1    2    0    0  0.00000000000E+00  0.00000000000E+00 -0.84708978213E+03  0.85219935754E+03  0.93180716871E+02 0.  0.
          2    1    3    3  502    0 -0.45063225861E+02 -0.15653725865E+01 -0.31629595144E+03  0.31949377711E+03  0.00000000000E+00 0.  1.
         -2    1    3    3    0  502  0.45063225861E+02  0.15653725865E+01 -0.53079383069E+03  0.53270558043E+03  0.00000000000E+00 0. -1.
<mgrwt>
<rscale>  0 0.93180717E+02</rscale>
<asrwt>0</asrwt>
<pdfrwt beam="2">  1        1 0.13071464E+00 0.93180717E+02</pdfrwt>
<pdfrwt beam="1">  1       -1 0.39304398E-03 0.93180717E+02</pdfrwt>
<totfact> 0.13253743E+05</totfact>
</mgrwt>
</event>
<event>
 5    1  0.3858846E+001  0.9246107E+02  0.7546771E-02  0.1296999E+00
          1   -1    0    0  501    0  0.00000000000E+00  0.00000000000E+00  0.26931754192E+03  0.26931754192E+03  0.00000000000E+00 0. -1.
         -1   -1    0    0    0  501 -0.00000000000E+00 -0.00000000000E+00 -0.79358454573E+01  0.79358454573E+01  0.00000000000E+00 0.  1.
         23    2    1    2    0    0  0.00000000000E+00  0.00000000000E+00  0.26138169646E+03  0.27725338738E+03  0.92461070546E+02 0.  0.
          2    1    3    3  502    0 -0.22920377135E+02  0.38153872318E+02  0.16816738702E+03  0.17395784466E+03  0.00000000000E+00 0. -1.
         -2    1    3    3    0  502  0.22920377135E+02 -0.38153872318E+02  0.93214309443E+02  0.10329554272E+03  0.00000000000E+00 0.  1.
<mgrwt>
<rscale>  0 0.92461071E+02</rscale>
<asrwt>0</asrwt>
<pdfrwt beam="1">  1        1 0.41433461E-01 0.92461071E+02</pdfrwt>
<pdfrwt beam="2">  1       -1 0.12208995E-02 0.92461071E+02</pdfrwt>
<totfact> 0.12087697E+05</totfact>
</mgrwt>
</event>
<event>
 5    1  0.3858846E+001  0.8847600E+02  0.7546771E-02  0.1306585E+00
         -2   -1    0    0    0  501 -0.00000000000E+00  0.00000000000E+00  0.25455007495E+01  0.25455007495E+01  0.00000000000E+00 0. -1.
          2   -1    0    0  501    0  0.00000000000E+00 -0.00000000000E+00 -0.76880770911E+03  0.76880770911E+03  0.00000000000E+00 0.  1.
         23    2    1    2    0    0  0.00000000000E+00  0.00000000000E+00 -0.76626220836E+03  0.77135320986E+03  0.88475999000E+02 0.  0.
          2    1    3    3  502    0 -0.36196014938E+02  0.58729085794E+01 -0.16739117553E+03  0.17136057947E+03  0.00000000000E+00 0. -1.
         -2    1    3    3    0  502  0.36196014938E+02 -0.58729085794E+01 -0.59887103283E+03  0.59999263038E+03  0.00000000000E+00 0.  1.
<mgrwt>
<rscale>  0 0.88475999E+02</rscale>
<asrwt>0</asrwt>
<pdfrwt beam="2">  1        2 0.11827831E+00 0.88475999E+02</pdfrwt>
<pdfrwt beam="1">  1       -2 0.39161483E-03 0.88475999E+02</pdfrwt>
<totfact> 0.26187604E+05</totfact>
</mgrwt>
</event>
<event>
 5    1  0.3858846E+001  0.9064518E+02  0.7546771E-02  0.1301297E+00
         -2   -1    0    0    0  501 -0.00000000000E+00  0.00000000000E+00  0.15163270078E+01  0.15163270078E+01  0.00000000000E+00 0.  1.
          2   -1    0    0  501    0  0.00000000000E+00 -0.00000000000E+00 -0.13546794992E+04  0.13546794992E+04  0.00000000000E+00 0. -1.
         23    2    1    2    0    0  0.00000000000E+00  0.00000000000E+00 -0.13531631722E+04  0.13561958262E+04  0.90645178835E+02 0.  0.
          2    1    3    3  502    0  0.21796751131E+02 -0.30168284863E+02 -0.10635385099E+04  0.10641895441E+04  0.00000000000E+00 0. -1.
         -2    1    3    3    0  502 -0.21796751131E+02  0.30168284863E+02 -0.28962466227E+03  0.29200628207E+03  0.00000000000E+00 0.  1.
<mgrwt>
<rscale>  0 0.90645179E+02</rscale>
<asrwt>0</asrwt>
<pdfrwt beam="2">  1        2 0.20841229E+00 0.90645179E+02</pdfrwt>
<pdfrwt beam="1">  1       -2 0.23328101E-03 0.90645179E+02</pdfrwt>
<totfact> 0.24727482E+05</totfact>
</mgrwt>
</event>
<event>
 5    1  0.3858846E+001  0.9043749E+02  0.7546771E-02  0.1301796E+00
          2   -1    0    0  501    0  0.00000000000E+00  0.00000000000E+00  0.12650261282E+04  0.12650261282E+04  0.00000000000E+00 0. -1.
         -2   -1    0    0    0  501 -0.00000000000E+00 -0.00000000000E+00 -0.16163580000E+01  0.16163580000E+01  0.00000000000E+00 0.  1.
         23    2    1    2    0    0  0.00000000000E+00  0.00000000000E+00  0.12634097702E+04  0.12666424862E+04  0.90437494492E+02 0.  0.
          2    1    3    3  502    0 -0.25126522005E+02  0.27714105592E+02  0.98749472713E+03  0.98820304081E+03  0.00000000000E+00 0. -1.
         -2    1    3    3    0  502  0.25126522005E+02 -0.27714105592E+02  0.27591504310E+03  0.27843944542E+03  0.00000000000E+00 0.  1.
<mgrwt>
<rscale>  0 0.90437494E+02</rscale>
<asrwt>0</asrwt>
<pdfrwt beam="1">  1        2 0.19461861E+00 0.90437494E+02</pdfrwt>
<pdfrwt beam="2">  1       -2 0.24867147E-03 0.90437494E+02</pdfrwt>
<totfact> 0.25224585E+05</totfact>
</mgrwt>
</event>
<event>
 5    1  0.3858846E+001  0.9192725E+02  0.7546771E-02  0.1298251E+00
         -2   -1    0    0    0  501 -0.00000000000E+00  0.00000000000E+00  0.68125735937E+01  0.68125735937E+01  0.00000000000E+00 0.  1.
          2   -1    0    0  501    0  0.00000000000E+00 -0.00000000000E+00 -0.31011114928E+03  0.31011114928E+03  0.00000000000E+00 0. -1.
         23    2    1    2    0    0  0.00000000000E+00  0.00000000000E+00 -0.30329857568E+03  0.31692372287E+03  0.91927254428E+02 0.  0.
          2    1    3    3  502    0  0.68870922677E+01 -0.45431170682E+02 -0.14782310281E+03  0.15480017129E+03  0.00000000000E+00 0. -1.
         -2    1    3    3    0  502 -0.68870922677E+01  0.45431170682E+02 -0.15547547288E+03  0.16212355158E+03  0.00000000000E+00 0.  1.
<mgrwt>
<rscale>  0 0.91927254E+02</rscale>
<asrwt>0</asrwt>
<pdfrwt beam="2">  1        2 0.47709409E-01 0.91927254E+02</pdfrwt>
<pdfrwt beam="1">  1       -2 0.10480882E-02 0.91927254E+02</pdfrwt>
<totfact> 0.17795262E+05</totfact>
</mgrwt>
</event>
<event>
 5    1  0.3858846E+001  0.8895757E+02  0.7546771E-02  0.1305396E+00
         -2   -1    0    0    0  501 -0.00000000000E+00  0.00000000000E+00  0.17026847886E+02  0.17026847886E+02  0.00000000000E+00 0.  1.
          2   -1    0    0  501    0  0.00000000000E+00 -0.00000000000E+00 -0.11619075754E+03  0.11619075754E+03  0.00000000000E+00 0. -1.
         23    2    1    2    0    0  0.00000000000E+00  0.00000000000E+00 -0.99163909650E+02  0.13321760542E+03  0.88957570882E+02 0.  0.
          2    1    3    3  502    0 -0.24853837299E+02 -0.23436086703E+02 -0.92239507188E+02  0.98362035739E+02  0.00000000000E+00 0. -1.
         -2    1    3    3    0  502  0.24853837299E+02  0.23436086703E+02 -0.69244024617E+01  0.34855569682E+02  0.00000000000E+00 0.  1.
<mgrwt>
<rscale>  0 0.88957571E+02</rscale>
<asrwt>0</asrwt>
<pdfrwt beam="2">  1        2 0.17875501E-01 0.88957571E+02</pdfrwt>
<pdfrwt beam="1">  1       -2 0.26195151E-02 0.88957571E+02</pdfrwt>
<totfact> 0.13748066E+05</totfact>
</mgrwt>
</event>
<event>
 5    1  0.3858846E+001  0.8923237E+02  0.7546771E-02  0.1304721E+00
          1   -1    0    0  501    0  0.00000000000E+00  0.00000000000E+00  0.10651935582E+04  0.10651935582E+04  0.00000000000E+00 0. -1.
         -1   -1    0    0    0  501 -0.00000000000E+00 -0.00000000000E+00 -0.18687720708E+01  0.18687720708E+01  0.00000000000E+00 0.  1.
         23    2    1    2    0    0  0.00000000000E+00  0.00000000000E+00  0.10633247861E+04  0.10670623302E+04  0.89232370168E+02 0.  0.
          2    1    3    3  502    0  0.40957204760E+02  0.16214565445E+02  0.61638822306E+03  0.61796023034E+03  0.00000000000E+00 0. -1.
         -2    1    3    3    0  502 -0.40957204760E+02 -0.16214565445E+02  0.44693656302E+03  0.44910209988E+03  0.00000000000E+00 0.  1.
<mgrwt>
<rscale>  0 0.89232370E+02</rscale>
<asrwt>0</asrwt>
<pdfrwt beam="1">  1        1 0.16387545E+00 0.89232370E+02</pdfrwt>
<pdfrwt beam="2">  1       -1 0.28750425E-03 0.89232370E+02</pdfrwt>
<totfact> 0.14130520E+05</totfact>
</mgrwt>
</event>
<event>
 5    1  0.3858846E+001  0.9220646E+02  0.7546771E-02  0.1297595E+00
         -4   -1    0    0    0  501 -0.00000000000E+00  0.00000000000E+00  0.18778059242E+01  0.18778059242E+01  0.00000000000E+00 0.  1.
          4   -1    0    0  501    0  0.00000000000E+00 -0.00000000000E+00 -0.11319102650E+04  0.11319102650E+04  0.00000000000E+00 0. -1.
         23    2    1    2    0    0  0.00000000000E+00  0.00000000000E+00 -0.11300324591E+04  0.11337880709E+04  0.92206459671E+02 0.  0.
          2    1    3    3  502    0  0.16376732291E+02  0.27053778620E+02 -0.97751690809E+03  0.97802832776E+03  0.00000000000E+00 0. -1.
         -2    1    3    3    0  502 -0.16376732291E+02 -0.27053778620E+02 -0.15251555098E+03  0.15575974316E+03  0.00000000000E+00 0.  1.
<mgrwt>
<rscale>  0 0.92206460E+02</rscale>
<asrwt>0</asrwt>
<pdfrwt beam="2">  1        4 0.17414064E+00 0.92206460E+02</pdfrwt>
<pdfrwt beam="1">  1       -4 0.28889223E-03 0.92206460E+02</pdfrwt>
<totfact> 0.59874550E+03</totfact>
</mgrwt>
</event>
<event>
 5    1  0.3858846E+001  0.8947351E+02  0.7546771E-02  0.1304132E+00
          2   -1    0    0  501    0  0.00000000000E+00  0.00000000000E+00  0.46969925683E+03  0.46969925683E+03  0.00000000000E+00 0. -1.
         -2   -1    0    0    0  501 -0.00000000000E+00 -0.00000000000E+00 -0.42609761878E+01  0.42609761878E+01  0.00000000000E+00 0.  1.
         23    2    1    2    0    0  0.00000000000E+00  0.00000000000E+00  0.46543828064E+03  0.47396023302E+03  0.89473512254E+02 0.  0.
          2    1    3    3  502    0 -0.11074538838E+02 -0.41049376611E+02  0.30644001847E+03  0.30937547034E+03  0.00000000000E+00 0.  1.
         -2    1    3    3    0  502  0.11074538838E+02  0.41049376611E+02  0.15899826217E+03  0.16458476267E+03  0.00000000000E+00 0. -1.
<mgrwt>
<rscale>  0 0.89473512E+02</rscale>
<asrwt>0</asrwt>
<pdfrwt beam="1">  1        2 0.72261383E-01 0.89473512E+02</pdfrwt>
<pdfrwt beam="2">  1       -2 0.65553517E-03 0.89473512E+02</pdfrwt>
<totfact> 0.22188509E+05</totfact>
</mgrwt>
</event>
<event>
 5    1  0.3858846E+001  0.9585670E+02  0.7546771E-02  0.1289258E+00
         -4   -1    0    0    0  501 -0.00000000000E+00  0.00000000000E+00  0.14830437637E+04  0.14830437637E+04  0.00000000000E+00 0.  1.
          4   -1    0    0  501    0  0.00000000000E+00 -0.00000000000E+00 -0.15489270328E+01  0.15489270328E+01  0.00000000000E+00 0. -1.
         23    2    1    2    0    0  0.00000000000E+00  0.00000000000E+00  0.14814948367E+04  0.14845926908E+04  0.95856696718E+02 0.  0.
          2    1    3    3  502    0 -0.36139207826E+02 -0.30784282299E+02  0.63870265001E+03  0.64046451073E+03  0.00000000000E+00 0. -1.
         -2    1    3    3    0  502  0.36139207826E+02  0.30784282299E+02  0.84279218669E+03  0.84412818004E+03  0.00000000000E+00 0.  1.
<mgrwt>
<rscale>  0 0.95856697E+02</rscale>
<asrwt>0</asrwt>
<pdfrwt beam="2">  1        4 0.23829765E-03 0.95856697E+02</pdfrwt>
<pdfrwt beam="1">  1       -4 0.22815944E+00 0.95856697E+02</pdfrwt>
<totfact> 0.37242509E+03</totfact>
</mgrwt>
</event>
<event>
 5    1  0.3858846E+001  0.8959697E+02  0.7546771E-02  0.1303831E+00
         -3   -1    0    0    0  501 -0.00000000000E+00  0.00000000000E+00  0.60890296948E+03  0.60890296948E+03  0.00000000000E+00 0.  1.
          3   -1    0    0  501    0  0.00000000000E+00 -0.00000000000E+00 -0.32959347209E+01  0.32959347209E+01  0.00000000000E+00 0. -1.
         23    2    1    2    0    0  0.00000000000E+00  0.00000000000E+00  0.60560703476E+03  0.61219890420E+03  0.89596974029E+02 0.  0.
          2    1    3    3  502    0  0.30815743204E+02 -0.17428939261E+02  0.11523995767E+03  0.12055548846E+03  0.00000000000E+00 0. -1.
         -2    1    3    3    0  502 -0.30815743204E+02  0.17428939261E+02  0.49036707709E+03  0.49164341575E+03  0.00000000000E+00 0.  1.
<mgrwt>
<rscale>  0 0.89596974E+02</rscale>
<asrwt>0</asrwt>
<pdfrwt beam="2">  1        3 0.50706736E-03 0.89596974E+02</pdfrwt>
<pdfrwt beam="1">  1       -3 0.93677291E-01 0.89596974E+02</pdfrwt>
<totfact> 0.16197308E+04</totfact>
</mgrwt>
</event>
<event>
 5    1  0.3858846E+001  0.9188683E+02  0.7546771E-02  0.1298346E+00
          2   -1    0    0  501    0  0.00000000000E+00  0.00000000000E+00  0.10954091591E+04  0.10954091591E+04  0.00000000000E+00 0. -1.
         -2   -1    0    0    0  501 -0.00000000000E+00 -0.00000000000E+00 -0.19269487920E+01  0.19269487920E+01  0.00000000000E+00 0.  1.
         23    2    1    2    0    0  0.00000000000E+00  0.00000000000E+00  0.10934822104E+04  0.10973361079E+04  0.91886829437E+02 0.  0.
          2    1    3    3  502    0 -0.68833966841E+01 -0.36097187163E+02  0.87605504073E+03  0.87682542303E+03  0.00000000000E+00 0. -1.
         -2    1    3    3    0  502  0.68833966841E+01  0.36097187163E+02  0.21742716962E+03  0.22051068492E+03  0.00000000000E+00 0.  1.
<mgrwt>
<rscale>  0 0.91886829E+02</rscale>
<asrwt>0</asrwt>
<pdfrwt beam="1">  1        2 0.16852399E+00 0.91886829E+02</pdfrwt>
<pdfrwt beam="2">  1       -2 0.29645454E-03 0.91886829E+02</pdfrwt>
<totfact> 0.24516071E+05</totfact>
</mgrwt>
</event>
<event>
 5    1  0.3858846E+001  0.1223780E+03  0.7546771E-02  0.1239225E+00
          1   -1    0    0  501    0  0.00000000000E+00  0.00000000000E+00  0.98831820065E+03  0.98831820065E+03  0.00000000000E+00 0. -1.
         -1   -1    0    0    0  501 -0.00000000000E+00 -0.00000000000E+00 -0.37883474899E+01  0.37883474899E+01  0.00000000000E+00 0.  1.
         23    2    1    2    0    0  0.00000000000E+00  0.00000000000E+00  0.98452985316E+03  0.99210654814E+03  0.12237798453E+03 0.  0.
          2    1    3    3  502    0 -0.39826135322E+02  0.90902038177E+01  0.12294763746E+03  0.12955645263E+03  0.00000000000E+00 0.  1.
         -2    1    3    3    0  502  0.39826135322E+02 -0.90902038177E+01  0.86158221570E+03  0.86255009551E+03  0.00000000000E+00 0. -1.
<mgrwt>
<rscale>  0 0.12237798E+03</rscale>
<asrwt>0</asrwt>
<pdfrwt beam="1">  1        1 0.15204875E+00 0.12237798E+03</pdfrwt>
<pdfrwt beam="2">  1       -1 0.58282348E-03 0.12237798E+03</pdfrwt>
<totfact> 0.61992915E+04</totfact>
</mgrwt>
</event>
<event>
 5    1  0.3858846E+001  0.9109543E+02  0.7546771E-02  0.1300220E+00
          1   -1    0    0  501    0  0.00000000000E+00  0.00000000000E+00  0.25774917655E+03  0.25774917655E+03  0.00000000000E+00 0. -1.
         -1   -1    0    0    0  501 -0.00000000000E+00 -0.00000000000E+00 -0.80488874795E+01  0.80488874795E+01  0.00000000000E+00 0.  1.
         23    2    1    2    0    0  0.00000000000E+00  0.00000000000E+00  0.24970028907E+03  0.26579806403E+03  0.91095425132E+02 0.  0.
          2    1    3    3  502    0 -0.16412416521E+02  0.35175716344E+02  0.55317374627E+02  0.67577439816E+02  0.00000000000E+00 0. -1.
         -2    1    3    3    0  502  0.16412416521E+02 -0.35175716344E+02  0.19438291444E+03  0.19822062422E+03  0.00000000000E+00 0.  1.
<mgrwt>
<rscale>  0 0.91095425E+02</rscale>
<asrwt>0</asrwt>
<pdfrwt beam="1">  1        1 0.39653713E-01 0.91095425E+02</pdfrwt>
<pdfrwt beam="2">  1       -1 0.12382906E-02 0.91095425E+02</pdfrwt>
<totfact> 0.12470495E+05</totfact>
</mgrwt>
</event>
<event>
 5    1  0.3858846E+001  0.9223646E+02  0.7546771E-02  0.1297524E+00
         -1   -1    0    0    0  501 -0.00000000000E+00  0.00000000000E+00  0.13113209089E+02  0.13113209089E+02  0.00000000000E+00 0.  1.
          1   -1    0    0  501    0  0.00000000000E+00 -0.00000000000E+00 -0.16219456537E+03  0.16219456537E+03  0.00000000000E+00 0. -1.
         23    2    1    2    0    0  0.00000000000E+00  0.00000000000E+00 -0.14908135628E+03  0.17530777446E+03  0.92236462395E+02 0.  0.
          2    1    3    3  502    0 -0.37105261103E+02 -0.12705778227E+02 -0.12065423328E+03  0.12686875585E+03  0.00000000000E+00 0. -1.
         -2    1    3    3    0  502  0.37105261103E+02  0.12705778227E+02 -0.28427122999E+02  0.48439018610E+02  0.00000000000E+00 0.  1.
<mgrwt>
<rscale>  0 0.92236462E+02</rscale>
<asrwt>0</asrwt>
<pdfrwt beam="2">  1        1 0.24953011E-01 0.92236462E+02</pdfrwt>
<pdfrwt beam="1">  1       -1 0.20174167E-02 0.92236462E+02</pdfrwt>
<totfact> 0.11027802E+05</totfact>
</mgrwt>
</event>
<event>
 5    1  0.3858846E+001  0.9350141E+02  0.7546771E-02  0.1294587E+00
         -2   -1    0    0    0  501 -0.00000000000E+00  0.00000000000E+00  0.14866678762E+01  0.14866678762E+01  0.00000000000E+00 0. -1.
          2   -1    0    0  501    0  0.00000000000E+00 -0.00000000000E+00 -0.14701525507E+04  0.14701525507E+04  0.00000000000E+00 0.  1.
         23    2    1    2    0    0  0.00000000000E+00  0.00000000000E+00 -0.14686658829E+04  0.14716392186E+04  0.93501413257E+02 0.  0.
          2    1    3    3  502    0  0.96423722029E+01 -0.32988198003E+02 -0.23551340707E+03  0.23800790209E+03  0.00000000000E+00 0. -1.
         -2    1    3    3    0  502 -0.96423722029E+01  0.32988198003E+02 -0.12331524758E+04  0.12336313165E+04  0.00000000000E+00 0.  1.
<mgrwt>
<rscale>  0 0.93501413E+02</rscale>
<asrwt>0</asrwt>
<pdfrwt beam="2">  1        2 0.22617686E+00 0.93501413E+02</pdfrwt>
<pdfrwt beam="1">  1       -2 0.22871859E-03 0.93501413E+02</pdfrwt>
<totfact> 0.22242783E+05</totfact>
</mgrwt>
</event>
<event>
 5    1  0.3858846E+001  0.8975043E+02  0.7546771E-02  0.1303457E+00
          4   -1    0    0  501    0  0.00000000000E+00  0.00000000000E+00  0.10071980073E+02  0.10071980073E+02  0.00000000000E+00 0. -1.
         -4   -1    0    0    0  501 -0.00000000000E+00 -0.00000000000E+00 -0.19993932987E+03  0.19993932987E+03  0.00000000000E+00 0.  1.
         23    2    1    2    0    0  0.00000000000E+00  0.00000000000E+00 -0.18986734980E+03  0.21001130994E+03  0.89750430557E+02 0.  0.
          2    1    3    3  502    0  0.21949242600E+02 -0.30914857358E+02 -0.15110642207E+03  0.15579039908E+03  0.00000000000E+00 0. -1.
         -2    1    3    3    0  502 -0.21949242600E+02  0.30914857358E+02 -0.38760927731E+02  0.54220910862E+02  0.00000000000E+00 0.  1.
<mgrwt>
<rscale>  0 0.89750431E+02</rscale>
<asrwt>0</asrwt>
<pdfrwt beam="1">  1        4 0.15495354E-02 0.89750431E+02</pdfrwt>
<pdfrwt beam="2">  1       -4 0.30759897E-01 0.89750431E+02</pdfrwt>
<totfact> 0.21876281E+04</totfact>
</mgrwt>
</event>
<event>
 5    1  0.3858846E+001  0.8779841E+02  0.7546771E-02  0.1308272E+00
          1   -1    0    0  501    0  0.00000000000E+00  0.00000000000E+00  0.10515588712E+03  0.10515588712E+03  0.00000000000E+00 0. -1.
         -1   -1    0    0    0  501 -0.00000000000E+00 -0.00000000000E+00 -0.18326509151E+02  0.18326509151E+02  0.00000000000E+00 0.  1.
         23    2    1    2    0    0  0.00000000000E+00  0.00000000000E+00  0.86829377972E+02  0.12348239627E+03  0.87798412915E+02 0.  0.
          2    1    3    3  502    0 -0.39932391282E+02 -0.10682117790E+02  0.22628192336E+02  0.47124713287E+02  0.00000000000E+00 0.  1.
         -2    1    3    3    0  502  0.39932391282E+02  0.10682117790E+02  0.64201185636E+02  0.76357682987E+02  0.00000000000E+00 0. -1.
<mgrwt>
<rscale>  0 0.87798413E+02</rscale>
<asrwt>0</asrwt>
<pdfrwt beam="1">  1        1 0.16177828E-01 0.87798413E+02</pdfrwt>
<pdfrwt beam="2">  1       -1 0.28194630E-02 0.87798413E+02</pdfrwt>
<totfact> 0.11669704E+05</totfact>
</mgrwt>
</event>
<event>
 5    1  0.3858846E+001  0.8962830E+02  0.7546771E-02  0.1303754E+00
         -1   -1    0    0    0  501 -0.00000000000E+00  0.00000000000E+00  0.84363659999E+02  0.84363659999E+02  0.00000000000E+00 0.  1.
          1   -1    0    0  501    0  0.00000000000E+00 -0.00000000000E+00 -0.23805368851E+02  0.23805368851E+02  0.00000000000E+00 0. -1.
         23    2    1    2    0    0  0.00000000000E+00  0.00000000000E+00  0.60558291148E+02  0.10816902885E+03  0.89628300082E+02 0.  0.
          2    1    3    3  502    0 -0.42382448195E+02 -0.10181415997E+02  0.42842977569E+02  0.61118359547E+02  0.00000000000E+00 0.  1.
         -2    1    3    3    0  502  0.42382448195E+02  0.10181415997E+02  0.17715313578E+02  0.47050669303E+02  0.00000000000E+00 0. -1.
<mgrwt>
<rscale>  0 0.89628300E+02</rscale>
<asrwt>0</asrwt>
<pdfrwt beam="2">  1        1 0.36623645E-02 0.89628300E+02</pdfrwt>
<pdfrwt beam="1">  1       -1 0.12979024E-01 0.89628300E+02</pdfrwt>
<totfact> 0.87648220E+04</totfact>
</mgrwt>
</event>
<event>
 5    1  0.3858846E+001  0.7993427E+02  0.7546771E-02  0.1329238E+00
          1   -1    0    0  501    0  0.00000000000E+00  0.00000000000E+00  0.15368123872E+01  0.15368123872E+01  0.00000000000E+00 0. -1.
         -1   -1    0    0    0  501 -0.00000000000E+00 -0.00000000000E+00 -0.10394058343E+04  0.10394058343E+04  0.00000000000E+00 0.  1.
         23    2    1    2    0    0  0.00000000000E+00  0.00000000000E+00 -0.10378690220E+04  0.10409426467E+04  0.79934267035E+02 0.  0.
          2    1    3    3  502    0 -0.13573738131E+02 -0.16467807432E+02 -0.78871544028E+02  0.81707744466E+02  0.00000000000E+00 0. -1.
         -2    1    3    3    0  502  0.13573738131E+02  0.16467807432E+02 -0.95899747793E+03  0.95923490226E+03  0.00000000000E+00 0.  1.
<mgrwt>
<rscale>  0 0.79934267E+02</rscale>
<asrwt>0</asrwt>
<pdfrwt beam="1">  1        1 0.23643158E-03 0.79934267E+02</pdfrwt>
<pdfrwt beam="2">  1       -1 0.15990933E+00 0.79934267E+02</pdfrwt>
<totfact> 0.34498153E+04</totfact>
</mgrwt>
</event>
<event>
 5    1  0.3858846E+001  0.9096333E+02  0.7546771E-02  0.1300535E+00
          2   -1    0    0  501    0  0.00000000000E+00  0.00000000000E+00  0.13137718469E+04  0.13137718469E+04  0.00000000000E+00 0. -1.
         -2   -1    0    0    0  501 -0.00000000000E+00 -0.00000000000E+00 -0.15745366053E+01  0.15745366053E+01  0.00000000000E+00 0.  1.
         23    2    1    2    0    0  0.00000000000E+00  0.00000000000E+00  0.13121973103E+04  0.13153463835E+04  0.90963330281E+02 0.  0.
          2    1    3    3  502    0  0.25700294470E+02 -0.19485847900E+02  0.19238459020E+03  0.19506930550E+03  0.00000000000E+00 0.  1.
         -2    1    3    3    0  502 -0.25700294470E+02  0.19485847900E+02  0.11198127201E+04  0.11202770780E+04  0.00000000000E+00 0. -1.
<mgrwt>
<rscale>  0 0.90963330E+02</rscale>
<asrwt>0</asrwt>
<pdfrwt beam="1">  1        2 0.20211787E+00 0.90963330E+02</pdfrwt>
<pdfrwt beam="2">  1       -2 0.24223745E-03 0.90963330E+02</pdfrwt>
<totfact> 0.24669440E+05</totfact>
</mgrwt>
</event>
<event>
 5    1  0.3858846E+001  0.9239842E+02  0.7546771E-02  0.1297145E+00
         -2   -1    0    0    0  501 -0.00000000000E+00  0.00000000000E+00  0.12480882410E+01  0.12480882410E+01  0.00000000000E+00 0.  1.
          2   -1    0    0  501    0  0.00000000000E+00 -0.00000000000E+00 -0.17101089602E+04  0.17101089602E+04  0.00000000000E+00 0. -1.
         23    2    1    2    0    0  0.00000000000E+00  0.00000000000E+00 -0.17088608720E+04  0.17113570485E+04  0.92398417392E+02 0.  0.
          2    1    3    3  502    0  0.25857232999E+02  0.25361003349E+02 -0.13856423176E+04  0.13861155829E+04  0.00000000000E+00 0. -1.
         -2    1    3    3    0  502 -0.25857232999E+02 -0.25361003349E+02 -0.32321855443E+03  0.32524146555E+03  0.00000000000E+00 0.  1.
<mgrwt>
<rscale>  0 0.92398417E+02</rscale>
<asrwt>0</asrwt>
<pdfrwt beam="2">  1        2 0.26309453E+00 0.92398417E+02</pdfrwt>
<pdfrwt beam="1">  1       -2 0.19201296E-03 0.92398417E+02</pdfrwt>
<totfact> 0.21387044E+05</totfact>
</mgrwt>
</event>
<event>
 5    1  0.3858846E+001  0.8383735E+02  0.7546771E-02  0.1318501E+00
         -2   -1    0    0    0  501 -0.00000000000E+00  0.00000000000E+00  0.41418330557E+01  0.41418330557E+01  0.00000000000E+00 0.  1.
          2   -1    0    0  501    0  0.00000000000E+00 -0.00000000000E+00 -0.42425059230E+03  0.42425059230E+03  0.00000000000E+00 0. -1.
         23    2    1    2    0    0  0.00000000000E+00  0.00000000000E+00 -0.42010875924E+03  0.42839242535E+03  0.83837345546E+02 0.  0.
          2    1    3    3  502    0  0.44481747893E+01  0.22571984674E+02 -0.38910868539E+03  0.38978821146E+03  0.00000000000E+00 0. -1.
         -2    1    3    3    0  502 -0.44481747893E+01 -0.22571984674E+02 -0.31000073851E+02  0.38604213888E+02  0.00000000000E+00 0.  1.
<mgrwt>
<rscale>  0 0.83837346E+02</rscale>
<asrwt>0</asrwt>
<pdfrwt beam="2">  1        2 0.65269316E-01 0.83837346E+02</pdfrwt>
<pdfrwt beam="1">  1       -2 0.63720515E-03 0.83837346E+02</pdfrwt>
<totfact> 0.25438244E+05</totfact>
</mgrwt>
</event>
<event>
 5    1  0.3858846E+001  0.9155282E+02  0.7546771E-02  0.1299134E+00
         -1   -1    0    0    0  501 -0.00000000000E+00  0.00000000000E+00  0.10950221884E+03  0.10950221884E+03  0.00000000000E+00 0.  1.
          1   -1    0    0  501    0  0.00000000000E+00 -0.00000000000E+00 -0.19136411910E+02  0.19136411910E+02  0.00000000000E+00 0. -1.
         23    2    1    2    0    0  0.00000000000E+00  0.00000000000E+00  0.90365806925E+02  0.12863863075E+03  0.91552816772E+02 0.  0.
          2    1    3    3  502    0  0.29194062123E+02 -0.32797114564E+02  0.63369574945E+02  0.77095051824E+02  0.00000000000E+00 0. -1.
         -2    1    3    3    0  502 -0.29194062123E+02  0.32797114564E+02  0.26996231979E+02  0.51543578922E+02  0.00000000000E+00 0.  1.
<mgrwt>
<rscale>  0 0.91552817E+02</rscale>
<asrwt>0</asrwt>
<pdfrwt beam="2">  1        1 0.29440634E-02 0.91552817E+02</pdfrwt>
<pdfrwt beam="1">  1       -1 0.16846495E-01 0.91552817E+02</pdfrwt>
<totfact> 0.79132307E+04</totfact>
</mgrwt>
</event>
<event>
 5    1  0.3858846E+001  0.5828824E+02  0.7546771E-02  0.1405159E+00
          2   -1    0    0  501    0  0.00000000000E+00  0.00000000000E+00  0.19727694121E+02  0.19727694121E+02  0.00000000000E+00 0. -1.
         -2   -1    0    0    0  501 -0.00000000000E+00 -0.00000000000E+00 -0.43055196768E+02  0.43055196768E+02  0.00000000000E+00 0.  1.
         23    2    1    2    0    0  0.00000000000E+00  0.00000000000E+00 -0.23327502646E+02  0.62782890889E+02  0.58288240741E+02 0.  0.
          2    1    3    3  502    0 -0.16122128362E+02  0.24273442295E+02 -0.11117996855E+02  0.31188665856E+02  0.00000000000E+00 0. -1.
         -2    1    3    3    0  502  0.16122128362E+02 -0.24273442295E+02 -0.12209505791E+02  0.31594225033E+02  0.00000000000E+00 0.  1.
<mgrwt>
<rscale>  0 0.58288241E+02</rscale>
<asrwt>0</asrwt>
<pdfrwt beam="1">  1        2 0.30350299E-02 0.58288241E+02</pdfrwt>
<pdfrwt beam="2">  1       -2 0.66238764E-02 0.58288241E+02</pdfrwt>
<totfact> 0.28981606E+05</totfact>
</mgrwt>
</event>
<event>
 5    1  0.3858846E+001  0.8766023E+02  0.7546771E-02  0.1308619E+00
          4   -1    0    0  501    0  0.00000000000E+00  0.00000000000E+00  0.14341654051E+04  0.14341654051E+04  0.00000000000E+00 0. -1.
         -4   -1    0    0    0  501 -0.00000000000E+00 -0.00000000000E+00 -0.13395099602E+01  0.13395099602E+01  0.00000000000E+00 0.  1.
         23    2    1    2    0    0  0.00000000000E+00  0.00000000000E+00  0.14328258951E+04  0.14355049151E+04  0.87660226894E+02 0.  0.
          2    1    3    3  502    0  0.13769479094E+02 -0.39238962763E+02  0.48963105088E+03  0.49139379396E+03  0.00000000000E+00 0. -1.
         -2    1    3    3    0  502 -0.13769479094E+02  0.39238962763E+02  0.94319484425E+03  0.94411112110E+03  0.00000000000E+00 0.  1.
<mgrwt>
<rscale>  0 0.87660227E+02</rscale>
<asrwt>0</asrwt>
<pdfrwt beam="1">  1        4 0.22063960E+00 0.87660227E+02</pdfrwt>
<pdfrwt beam="2">  1       -4 0.20607960E-03 0.87660227E+02</pdfrwt>
<totfact> 0.49668345E+03</totfact>
</mgrwt>
</event>
<event>
 5    1  0.3858846E+001  0.9196140E+02  0.7546771E-02  0.1298170E+00
          2   -1    0    0  501    0  0.00000000000E+00  0.00000000000E+00  0.64280766865E+03  0.64280766865E+03  0.00000000000E+00 0. -1.
         -2   -1    0    0    0  501 -0.00000000000E+00 -0.00000000000E+00 -0.32890470903E+01  0.32890470903E+01  0.00000000000E+00 0.  1.
         23    2    1    2    0    0  0.00000000000E+00  0.00000000000E+00  0.63951862156E+03  0.64609671574E+03  0.91961398254E+02 0.  0.
          2    1    3    3  502    0 -0.19581717592E+02 -0.27297427495E+02  0.99187884997E+02  0.10472263242E+03  0.00000000000E+00 0.  1.
         -2    1    3    3    0  502  0.19581717592E+02  0.27297427495E+02  0.54033073657E+03  0.54137408332E+03  0.00000000000E+00 0. -1.
<mgrwt>
<rscale>  0 0.91961398E+02</rscale>
<asrwt>0</asrwt>
<pdfrwt beam="1">  1        2 0.98893387E-01 0.91961398E+02</pdfrwt>
<pdfrwt beam="2">  1       -2 0.50600776E-03 0.91961398E+02</pdfrwt>
<totfact> 0.22698441E+05</totfact>
</mgrwt>
</event>
<event>
 5    1  0.3858846E+001  0.9311582E+02  0.7546771E-02  0.1295477E+00
          2   -1    0    0  501    0  0.00000000000E+00  0.00000000000E+00  0.14788365471E+04  0.14788365471E+04  0.00000000000E+00 0. -1.
         -2   -1    0    0    0  501 -0.00000000000E+00 -0.00000000000E+00 -0.14657731773E+01  0.14657731773E+01  0.00000000000E+00 0.  1.
         23    2    1    2    0    0  0.00000000000E+00  0.00000000000E+00  0.14773707739E+04  0.14803023202E+04  0.93115819155E+02 0.  0.
          2    1    3    3  502    0  0.53982882049E+01  0.42981972435E+02  0.10098973668E+04  0.10108260399E+04  0.00000000000E+00 0. -1.
         -2    1    3    3    0  502 -0.53982882049E+01 -0.42981972435E+02  0.46747340708E+03  0.46947628034E+03  0.00000000000E+00 0.  1.
<mgrwt>
<rscale>  0 0.93115819E+02</rscale>
<asrwt>0</asrwt>
<pdfrwt beam="1">  1        2 0.22751212E+00 0.93115819E+02</pdfrwt>
<pdfrwt beam="2">  1       -2 0.22550475E-03 0.93115819E+02</pdfrwt>
<totfact> 0.22439975E+05</totfact>
</mgrwt>
</event>
<event>
 5    1  0.3858846E+001  0.9089698E+02  0.7546771E-02  0.1300694E+00
          3   -1    0    0  501    0  0.00000000000E+00  0.00000000000E+00  0.51830793883E+02  0.51830793883E+02  0.00000000000E+00 0. -1.
         -3   -1    0    0    0  501 -0.00000000000E+00 -0.00000000000E+00 -0.39852089468E+02  0.39852089468E+02  0.00000000000E+00 0.  1.
         23    2    1    2    0    0  0.00000000000E+00  0.00000000000E+00  0.11978704415E+02  0.91682883351E+02  0.90896984218E+02 0.  0.
          2    1    3    3  502    0  0.31196604623E+02 -0.89035335205E+01  0.38093216628E+02  0.50035929113E+02  0.00000000000E+00 0. -1.
         -2    1    3    3    0  502 -0.31196604623E+02  0.89035335205E+01 -0.26114512212E+02  0.41646954238E+02  0.00000000000E+00 0.  1.
<mgrwt>
<rscale>  0 0.90896984E+02</rscale>
<asrwt>0</asrwt>
<pdfrwt beam="1">  1        3 0.79739683E-02 0.90896984E+02</pdfrwt>
<pdfrwt beam="2">  1       -3 0.61310907E-02 0.90896984E+02</pdfrwt>
<totfact> 0.35596953E+04</totfact>
</mgrwt>
</event>
<event>
 5    1  0.3858846E+001  0.9100483E+02  0.7546771E-02  0.1300436E+00
          4   -1    0    0  501    0  0.00000000000E+00  0.00000000000E+00  0.85629058338E+01  0.85629058338E+01  0.00000000000E+00 0. -1.
         -4   -1    0    0    0  501 -0.00000000000E+00 -0.00000000000E+00 -0.24179522543E+03  0.24179522543E+03  0.00000000000E+00 0.  1.
         23    2    1    2    0    0  0.00000000000E+00  0.00000000000E+00 -0.23323231960E+03  0.25035813126E+03  0.91004829463E+02 0.  0.
          2    1    3    3  502    0  0.75444477150E+01  0.39099903939E+02 -0.56046445099E+02  0.68752637677E+02  0.00000000000E+00 0. -1.
         -2    1    3    3    0  502 -0.75444477150E+01 -0.39099903939E+02 -0.17718587450E+03  0.18160549359E+03  0.00000000000E+00 0.  1.
<mgrwt>
<rscale>  0 0.91004829E+02</rscale>
<asrwt>0</asrwt>
<pdfrwt beam="1">  1        4 0.13173701E-02 0.91004829E+02</pdfrwt>
<pdfrwt beam="2">  1       -4 0.37199266E-01 0.91004829E+02</pdfrwt>
<totfact> 0.19549308E+04</totfact>
</mgrwt>
</event>
<event>
 5    1  0.3858846E+001  0.8996660E+02  0.7546771E-02  0.1302933E+00
          2   -1    0    0  501    0  0.00000000000E+00  0.00000000000E+00  0.33037508297E+03  0.33037508297E+03  0.00000000000E+00 0. -1.
         -2   -1    0    0    0  501 -0.00000000000E+00 -0.00000000000E+00 -0.61248487680E+01  0.61248487680E+01  0.00000000000E+00 0.  1.
         23    2    1    2    0    0  0.00000000000E+00  0.00000000000E+00  0.32425023420E+03  0.33649993174E+03  0.89966603135E+02 0.  0.
          2    1    3    3  502    0 -0.49790248006E+00 -0.44229164379E+02  0.19274757092E+03  0.19775766226E+03  0.00000000000E+00 0. -1.
         -2    1    3    3    0  502  0.49790248006E+00  0.44229164379E+02  0.13150266328E+03  0.13874226947E+03  0.00000000000E+00 0.  1.
<mgrwt>
<rscale>  0 0.89966603E+02</rscale>
<asrwt>0</asrwt>
<pdfrwt beam="1">  1        2 0.50826922E-01 0.89966603E+02</pdfrwt>
<pdfrwt beam="2">  1       -2 0.94228468E-03 0.89966603E+02</pdfrwt>
<totfact> 0.19294236E+05</totfact>
</mgrwt>
</event>
<event>
 5    1  0.3858846E+001  0.9256654E+02  0.7546771E-02  0.1296753E+00
          2   -1    0    0  501    0  0.00000000000E+00  0.00000000000E+00  0.22537705880E+04  0.22537705880E+04  0.00000000000E+00 0. -1.
         -2   -1    0    0    0  501 -0.00000000000E+00 -0.00000000000E+00 -0.95046991322E+00  0.95046991322E+00  0.00000000000E+00 0.  1.
         23    2    1    2    0    0  0.00000000000E+00  0.00000000000E+00  0.22528201181E+04  0.22547210579E+04  0.92566541151E+02 0.  0.
          2    1    3    3  502    0 -0.17398517818E+02  0.42853239526E+02  0.11688275097E+04  0.11697422178E+04  0.00000000000E+00 0. -1.
         -2    1    3    3    0  502  0.17398517818E+02 -0.42853239526E+02  0.10839926083E+04  0.10849788401E+04  0.00000000000E+00 0.  1.
<mgrwt>
<rscale>  0 0.92566541E+02</rscale>
<asrwt>0</asrwt>
<pdfrwt beam="1">  1        2 0.34672966E+00 0.92566541E+02</pdfrwt>
<pdfrwt beam="2">  1       -2 0.14622795E-03 0.92566541E+02</pdfrwt>
<totfact> 0.16588577E+05</totfact>
</mgrwt>
</event>
<event>
 5    1  0.3858846E+001  0.9010380E+02  0.7546771E-02  0.1302601E+00
         -1   -1    0    0    0  501 -0.00000000000E+00  0.00000000000E+00  0.76709644076E+03  0.76709644076E+03  0.00000000000E+00 0.  1.
          1   -1    0    0  501    0  0.00000000000E+00 -0.00000000000E+00 -0.26459171453E+01  0.26459171453E+01  0.00000000000E+00 0. -1.
         23    2    1    2    0    0  0.00000000000E+00  0.00000000000E+00  0.76445052361E+03  0.76974235791E+03  0.90103798471E+02 0.  0.
          2    1    3    3  502    0 -0.22795429510E+02  0.21693534003E+02  0.10680210416E+03  0.11134150384E+03  0.00000000000E+00 0. -1.
         -2    1    3    3    0  502  0.22795429510E+02 -0.21693534003E+02  0.65764841945E+03  0.65840085407E+03  0.00000000000E+00 0.  1.
<mgrwt>
<rscale>  0 0.90103798E+02</rscale>
<asrwt>0</asrwt>
<pdfrwt beam="2">  1        1 0.40706479E-03 0.90103798E+02</pdfrwt>
<pdfrwt beam="1">  1       -1 0.11801466E+00 0.90103798E+02</pdfrwt>
<totfact> 0.35052944E+04</totfact>
</mgrwt>
</event>
<event>
 5    1  0.3858846E+001  0.9369581E+02  0.7546771E-02  0.1294141E+00
          2   -1    0    0  501    0  0.00000000000E+00  0.00000000000E+00  0.32863100379E+03  0.32863100379E+03  0.00000000000E+00 0. -1.
         -2   -1    0    0    0  501 -0.00000000000E+00 -0.00000000000E+00 -0.66783902345E+01  0.66783902345E+01  0.00000000000E+00 0.  1.
         23    2    1    2    0    0  0.00000000000E+00  0.00000000000E+00  0.32195261356E+03  0.33530939403E+03  0.93695807515E+02 0.  0.
          2    1    3    3  502    0 -0.12623604788E+02  0.44607863957E+02  0.18511840323E+03  0.19083511244E+03  0.00000000000E+00 0. -1.
         -2    1    3    3    0  502  0.12623604788E+02 -0.44607863957E+02  0.13683421032E+03  0.14447428158E+03  0.00000000000E+00 0.  1.
<mgrwt>
<rscale>  0 0.93695808E+02</rscale>
<asrwt>0</asrwt>
<pdfrwt beam="1">  1        2 0.50558603E-01 0.93695808E+02</pdfrwt>
<pdfrwt beam="2">  1       -2 0.10274449E-02 0.93695808E+02</pdfrwt>
<totfact> 0.17280243E+05</totfact>
</mgrwt>
</event>
<event>
 5    1  0.3858846E+001  0.8894275E+02  0.7546771E-02  0.1305432E+00
          2   -1    0    0  501    0  0.00000000000E+00  0.00000000000E+00  0.45629030064E+02  0.45629030064E+02  0.00000000000E+00 0. -1.
         -2   -1    0    0    0  501 -0.00000000000E+00 -0.00000000000E+00 -0.43343093638E+02  0.43343093638E+02  0.00000000000E+00 0.  1.
         23    2    1    2    0    0  0.00000000000E+00  0.00000000000E+00  0.22859364252E+01  0.88972123702E+02  0.88942752885E+02 0.  0.
          2    1    3    3  502    0  0.27093524537E+02  0.13779867088E+02  0.33615349971E+02  0.45320365869E+02  0.00000000000E+00 0. -1.
         -2    1    3    3    0  502 -0.27093524537E+02 -0.13779867088E+02 -0.31329413546E+02  0.43651757833E+02  0.00000000000E+00 0.  1.
<mgrwt>
<rscale>  0 0.88942753E+02</rscale>
<asrwt>0</asrwt>
<pdfrwt beam="1">  1        2 0.70198508E-02 0.88942753E+02</pdfrwt>
<pdfrwt beam="2">  1       -2 0.66681682E-02 0.88942753E+02</pdfrwt>
<totfact> 0.10595452E+05</totfact>
</mgrwt>
</event>
<event>
 5    1  0.3858846E+001  0.8773809E+02  0.7546771E-02  0.1308424E+00
          2   -1    0    0  501    0  0.00000000000E+00  0.00000000000E+00  0.39423449300E+03  0.39423449300E+03  0.00000000000E+00 0. -1.
         -2   -1    0    0    0  501 -0.00000000000E+00 -0.00000000000E+00 -0.48815952913E+01  0.48815952913E+01  0.00000000000E+00 0.  1.
         23    2    1    2    0    0  0.00000000000E+00  0.00000000000E+00  0.38935289771E+03  0.39911608829E+03  0.87738093089E+02 0.  0.
          2    1    3    3  502    0  0.14691708745E+02  0.21669625337E+02  0.34551238296E+02  0.43349821636E+02  0.00000000000E+00 0.  1.
         -2    1    3    3    0  502 -0.14691708745E+02 -0.21669625337E+02  0.35480165941E+03  0.35576626666E+03  0.00000000000E+00 0. -1.
<mgrwt>
<rscale>  0 0.87738093E+02</rscale>
<asrwt>0</asrwt>
<pdfrwt beam="1">  1        2 0.60651435E-01 0.87738093E+02</pdfrwt>
<pdfrwt beam="2">  1       -2 0.75101497E-03 0.87738093E+02</pdfrwt>
<totfact> 0.21987795E+05</totfact>
</mgrwt>
</event>
<event>
 5    1  0.3858846E+001  0.9143130E+02  0.7546771E-02  0.1299422E+00
          1   -1    0    0  501    0  0.00000000000E+00  0.00000000000E+00  0.69773118134E+02  0.69773118134E+02  0.00000000000E+00 0. -1.
         -1   -1    0    0    0  501 -0.00000000000E+00 -0.00000000000E+00 -0.29953094931E+02  0.29953094931E+02  0.00000000000E+00 0.  1.
         23    2    1    2    0    0  0.00000000000E+00  0.00000000000E+00  0.39820023203E+02  0.99726213064E+02  0.91431303853E+02 0.  0.
          2    1    3    3  502    0 -0.21219734627E+02  0.19581922496E+02  0.58568282687E+02  0.65299100784E+02  0.00000000000E+00 0. -1.
         -2    1    3    3    0  502  0.21219734627E+02 -0.19581922496E+02 -0.18748259484E+02  0.34427112280E+02  0.00000000000E+00 0.  1.
<mgrwt>
<rscale>  0 0.91431304E+02</rscale>
<asrwt>0</asrwt>
<pdfrwt beam="1">  1        1 0.10734326E-01 0.91431304E+02</pdfrwt>
<pdfrwt beam="2">  1       -1 0.46081685E-02 0.91431304E+02</pdfrwt>
<totfact> 0.97861471E+04</totfact>
</mgrwt>
</event>
<event>
 5    1  0.3858846E+001  0.9011358E+02  0.7546771E-02  0.1302577E+00
         -2   -1    0    0    0  501 -0.00000000000E+00  0.00000000000E+00  0.25658317030E+02  0.25658317030E+02  0.00000000000E+00 0.  1.
          2   -1    0    0  501    0  0.00000000000E+00 -0.00000000000E+00 -0.79121095046E+02  0.79121095046E+02  0.00000000000E+00 0. -1.
         23    2    1    2    0    0  0.00000000000E+00  0.00000000000E+00 -0.53462778016E+02  0.10477941208E+03  0.90113575902E+02 0.  0.
          2    1    3    3  502    0 -0.27424751873E+02 -0.10215815556E+02 -0.66565223880E+02  0.72714571668E+02  0.00000000000E+00 0. -1.
         -2    1    3    3    0  502  0.27424751873E+02  0.10215815556E+02  0.13102445864E+02  0.32064840408E+02  0.00000000000E+00 0.  1.
<mgrwt>
<rscale>  0 0.90113576E+02</rscale>
<asrwt>0</asrwt>
<pdfrwt beam="2">  1        2 0.12172476E-01 0.90113576E+02</pdfrwt>
<pdfrwt beam="1">  1       -2 0.39474334E-02 0.90113576E+02</pdfrwt>
<totfact> 0.11828357E+05</totfact>
</mgrwt>
</event>
<event>
 5    1  0.3858846E+001  0.9090617E+02  0.7546771E-02  0.1300672E+00
         -3   -1    0    0    0  501 -0.00000000000E+00  0.00000000000E+00  0.26231964953E+01  0.26231964953E+01  0.00000000000E+00 0.  1.
          3   -1    0    0  501    0  0.00000000000E+00 -0.00000000000E+00 -0.78758225760E+03  0.78758225760E+03  0.00000000000E+00 0. -1.
         23    2    1    2    0    0  0.00000000000E+00  0.00000000000E+00 -0.78495906110E+03  0.79020545410E+03  0.90906171802E+02 0.  0.
          2    1    3    3  502    0 -0.29610645494E+02  0.33238655574E+02 -0.47233008008E+03  0.47442312665E+03  0.00000000000E+00 0. -1.
         -2    1    3    3    0  502  0.29610645494E+02 -0.33238655574E+02 -0.31262898103E+03  0.31578232745E+03  0.00000000000E+00 0.  1.
<mgrwt>
<rscale>  0 0.90906172E+02</rscale>
<asrwt>0</asrwt>
<pdfrwt beam="2">  1        3 0.12116669E+00 0.90906172E+02</pdfrwt>
<pdfrwt beam="1">  1       -3 0.40356805E-03 0.90906172E+02</pdfrwt>
<totfact> 0.12647667E+04</totfact>
</mgrwt>
</event>
<event>
 5    1  0.3858846E+001  0.8972145E+02  0.7546771E-02  0.1303528E+00
         -2   -1    0    0    0  501 -0.00000000000E+00  0.00000000000E+00  0.16133092487E+02  0.16133092487E+02  0.00000000000E+00 0.  1.
          2   -1    0    0  501    0  0.00000000000E+00 -0.00000000000E+00 -0.12474264003E+03  0.12474264003E+03  0.00000000000E+00 0. -1.
         23    2    1    2    0    0  0.00000000000E+00  0.00000000000E+00 -0.10860954755E+03  0.14087573252E+03  0.89721447799E+02 0.  0.
          2    1    3    3  502    0 -0.32729466834E+02  0.17850423968E+02 -0.93483882900E+02  0.10064339023E+03  0.00000000000E+00 0. -1.
         -2    1    3    3    0  502  0.32729466834E+02 -0.17850423968E+02 -0.15125664645E+02  0.40232342289E+02  0.00000000000E+00 0.  1.
<mgrwt>
<rscale>  0 0.89721448E+02</rscale>
<asrwt>0</asrwt>
<pdfrwt beam="2">  1        2 0.19191176E-01 0.89721448E+02</pdfrwt>
<pdfrwt beam="1">  1       -2 0.24820142E-02 0.89721448E+02</pdfrwt>
<totfact> 0.13739238E+05</totfact>
</mgrwt>
</event>
<event>
 5    1  0.3858846E+001  0.9376076E+02  0.7546771E-02  0.1293992E+00
         -1   -1    0    0    0  501 -0.00000000000E+00  0.00000000000E+00  0.27235843654E+01  0.27235843654E+01  0.00000000000E+00 0.  1.
          1   -1    0    0  501    0  0.00000000000E+00 -0.00000000000E+00 -0.80694023169E+03  0.80694023169E+03  0.00000000000E+00 0. -1.
         23    2    1    2    0    0  0.00000000000E+00  0.00000000000E+00 -0.80421664733E+03  0.80966381606E+03  0.93760755092E+02 0.  0.
          2    1    3    3  502    0 -0.11532110668E+02  0.44964644777E+02 -0.45870885849E+03  0.46105165189E+03  0.00000000000E+00 0. -1.
         -2    1    3    3    0  502  0.11532110668E+02 -0.44964644777E+02 -0.34550778884E+03  0.34861216417E+03  0.00000000000E+00 0.  1.
<mgrwt>
<rscale>  0 0.93760755E+02</rscale>
<asrwt>0</asrwt>
<pdfrwt beam="2">  1        1 0.12414475E+00 0.93760755E+02</pdfrwt>
<pdfrwt beam="1">  1       -1 0.41901264E-03 0.93760755E+02</pdfrwt>
<totfact> 0.13111993E+05</totfact>
</mgrwt>
</event>
<event>
 5    1  0.3858846E+001  0.8734107E+02  0.7546771E-02  0.1309421E+00
          1   -1    0    0  501    0  0.00000000000E+00  0.00000000000E+00  0.74689669677E+02  0.74689669677E+02  0.00000000000E+00 0. -1.
         -1   -1    0    0    0  501 -0.00000000000E+00 -0.00000000000E+00 -0.25533860378E+02  0.25533860378E+02  0.00000000000E+00 0.  1.
         23    2    1    2    0    0  0.00000000000E+00  0.00000000000E+00  0.49155809299E+02  0.10022353006E+03  0.87341069314E+02 0.  0.
          2    1    3    3  502    0  0.13794523011E+02  0.37762387655E+02  0.44146961925E+02  0.59709639370E+02  0.00000000000E+00 0. -1.
         -2    1    3    3    0  502 -0.13794523011E+02 -0.37762387655E+02  0.50088473738E+01  0.40513890686E+02  0.00000000000E+00 0.  1.
<mgrwt>
<rscale>  0 0.87341069E+02</rscale>
<asrwt>0</asrwt>
<pdfrwt beam="1">  1        1 0.11490718E-01 0.87341069E+02</pdfrwt>
<pdfrwt beam="2">  1       -1 0.39282863E-02 0.87341069E+02</pdfrwt>
<totfact> 0.11212413E+05</totfact>
</mgrwt>
</event>
<event>
 5    1  0.3858846E+001  0.9034796E+02  0.7546771E-02  0.1302011E+00
         -1   -1    0    0    0  501 -0.00000000000E+00  0.00000000000E+00  0.22064627470E+01  0.22064627470E+01  0.00000000000E+00 0.  1.
          1   -1    0    0  501    0  0.00000000000E+00 -0.00000000000E+00 -0.92486868690E+03  0.92486868690E+03  0.00000000000E+00 0. -1.
         23    2    1    2    0    0  0.00000000000E+00  0.00000000000E+00 -0.92266222415E+03  0.92707514965E+03  0.90347956335E+02 0.  0.
          2    1    3    3  502    0 -0.64052428906E+00  0.44001353815E+02 -0.35660745793E+03  0.35931241067E+03  0.00000000000E+00 0. -1.
         -2    1    3    3    0  502  0.64052428906E+00 -0.44001353815E+02 -0.56605476622E+03  0.56776273898E+03  0.00000000000E+00 0.  1.
<mgrwt>
<rscale>  0 0.90347956E+02</rscale>
<asrwt>0</asrwt>
<pdfrwt beam="2">  1        1 0.14228756E+00 0.90347956E+02</pdfrwt>
<pdfrwt beam="1">  1       -1 0.33945564E-03 0.90347956E+02</pdfrwt>
<totfact> 0.14186139E+05</totfact>
</mgrwt>
</event>
<event>
 5    1  0.3858846E+001  0.9308305E+02  0.7546771E-02  0.1295553E+00
          1   -1    0    0  501    0  0.00000000000E+00  0.00000000000E+00  0.42553495001E+02  0.42553495001E+02  0.00000000000E+00 0. -1.
         -1   -1    0    0    0  501 -0.00000000000E+00 -0.00000000000E+00 -0.50903305082E+02  0.50903305082E+02  0.00000000000E+00 0.  1.
         23    2    1    2    0    0  0.00000000000E+00  0.00000000000E+00 -0.83498100812E+01  0.93456800083E+02  0.93083049764E+02 0.  0.
          2    1    3    3  502    0  0.41815825909E+02  0.19567767685E+02  0.17353864854E+01  0.46200350593E+02  0.00000000000E+00 0. -1.
         -2    1    3    3    0  502 -0.41815825909E+02 -0.19567767685E+02 -0.10085196567E+02  0.47256449490E+02  0.00000000000E+00 0.  1.
<mgrwt>
<rscale>  0 0.93083050E+02</rscale>
<asrwt>0</asrwt>
<pdfrwt beam="1">  1        1 0.65466915E-02 0.93083050E+02</pdfrwt>
<pdfrwt beam="2">  1       -1 0.78312777E-02 0.93083050E+02</pdfrwt>
<totfact> 0.86323712E+04</totfact>
</mgrwt>
</event>
<event>
 5    1  0.3858846E+001  0.9104606E+02  0.7546771E-02  0.1300338E+00
         -2   -1    0    0    0  501 -0.00000000000E+00  0.00000000000E+00  0.32702606388E+01  0.32702606388E+01  0.00000000000E+00 0.  1.
          2   -1    0    0  501    0  0.00000000000E+00 -0.00000000000E+00 -0.63369457040E+03  0.63369457040E+03  0.00000000000E+00 0. -1.
         23    2    1    2    0    0  0.00000000000E+00  0.00000000000E+00 -0.63042430976E+03  0.63696483104E+03  0.91046063299E+02 0.  0.
          2    1    3    3  502    0  0.25582006186E+02  0.37029538023E+02 -0.26739223132E+03  0.27115351943E+03  0.00000000000E+00 0. -1.
         -2    1    3    3    0  502 -0.25582006186E+02 -0.37029538023E+02 -0.36303207844E+03  0.36581131161E+03  0.00000000000E+00 0.  1.
<mgrwt>
<rscale>  0 0.91046063E+02</rscale>
<asrwt>0</asrwt>
<pdfrwt beam="2">  1        2 0.97491545E-01 0.91046063E+02</pdfrwt>
<pdfrwt beam="1">  1       -2 0.50311665E-03 0.91046063E+02</pdfrwt>
<totfact> 0.23218246E+05</totfact>
</mgrwt>
</event>
<event>
 5    1  0.3858846E+001  0.9082483E+02  0.7546771E-02  0.1300866E+00
         -1   -1    0    0    0  501 -0.00000000000E+00  0.00000000000E+00  0.68242716148E+02  0.68242716148E+02  0.00000000000E+00 0.  1.
          1   -1    0    0  501    0  0.00000000000E+00 -0.00000000000E+00 -0.30219889574E+02  0.30219889574E+02  0.00000000000E+00 0. -1.
         23    2    1    2    0    0  0.00000000000E+00  0.00000000000E+00  0.38022826574E+02  0.98462605722E+02  0.90824828020E+02 0.  0.
          2    1    3    3  502    0  0.36202710515E+02  0.17476580045E+02 -0.38888975354E+01  0.40388000975E+02  0.00000000000E+00 0. -1.
         -2    1    3    3    0  502 -0.36202710515E+02 -0.17476580045E+02  0.41911724110E+02  0.58074604747E+02  0.00000000000E+00 0.  1.
<mgrwt>
<rscale>  0 0.90824828E+02</rscale>
<asrwt>0</asrwt>
<pdfrwt beam="2">  1        1 0.46492138E-02 0.90824828E+02</pdfrwt>
<pdfrwt beam="1">  1       -1 0.10498879E-01 0.90824828E+02</pdfrwt>
<totfact> 0.87754847E+04</totfact>
</mgrwt>
</event>
<event>
 5    1  0.3858846E+001  0.8856591E+02  0.7546771E-02  0.1306362E+00
         -1   -1    0    0    0  501 -0.00000000000E+00  0.00000000000E+00  0.93993965310E+01  0.93993965310E+01  0.00000000000E+00 0.  1.
          1   -1    0    0  501    0  0.00000000000E+00 -0.00000000000E+00 -0.20862828129E+03  0.20862828129E+03  0.00000000000E+00 0. -1.
         23    2    1    2    0    0  0.00000000000E+00  0.00000000000E+00 -0.19922888476E+03  0.21802767782E+03  0.88565906385E+02 0.  0.
          2    1    3    3  502    0  0.23370839170E+02  0.26473424990E+02 -0.16539179625E+03  0.16911973457E+03  0.00000000000E+00 0. -1.
         -2    1    3    3    0  502 -0.23370839170E+02 -0.26473424990E+02 -0.33837088507E+02  0.48907943249E+02  0.00000000000E+00 0.  1.
<mgrwt>
<rscale>  0 0.88565906E+02</rscale>
<asrwt>0</asrwt>
<pdfrwt beam="2">  1        1 0.32096657E-01 0.88565906E+02</pdfrwt>
<pdfrwt beam="1">  1       -1 0.14460611E-02 0.88565906E+02</pdfrwt>
<totfact> 0.12902577E+05</totfact>
</mgrwt>
</event>
<event>
 5    1  0.3858846E+001  0.9112835E+02  0.7546771E-02  0.1300142E+00
          2   -1    0    0  501    0  0.00000000000E+00  0.00000000000E+00  0.36164986828E+02  0.36164986828E+02  0.00000000000E+00 0. -1.
         -2   -1    0    0    0  501 -0.00000000000E+00 -0.00000000000E+00 -0.57406185443E+02  0.57406185443E+02  0.00000000000E+00 0.  1.
         23    2    1    2    0    0  0.00000000000E+00  0.00000000000E+00 -0.21241198615E+02  0.93571172271E+02  0.91128347739E+02 0.  0.
          2    1    3    3  502    0  0.22215731518E+02 -0.37286900462E+02 -0.24857419973E+02  0.50017426969E+02  0.00000000000E+00 0.  1.
         -2    1    3    3    0  502 -0.22215731518E+02  0.37286900462E+02  0.36162213573E+01  0.43553745302E+02  0.00000000000E+00 0. -1.
<mgrwt>
<rscale>  0 0.91128348E+02</rscale>
<asrwt>0</asrwt>
<pdfrwt beam="1">  1        2 0.55638441E-02 0.91128348E+02</pdfrwt>
<pdfrwt beam="2">  1       -2 0.88317208E-02 0.91128348E+02</pdfrwt>
<totfact> 0.93072276E+04</totfact>
</mgrwt>
</event>
<event>
 5    1  0.3858846E+001  0.9221679E+02  0.7546771E-02  0.1297571E+00
         -1   -1    0    0    0  501 -0.00000000000E+00  0.00000000000E+00  0.40055024083E+01  0.40055024083E+01  0.00000000000E+00 0.  1.
          1   -1    0    0  501    0  0.00000000000E+00 -0.00000000000E+00 -0.53076585566E+03  0.53076585566E+03  0.00000000000E+00 0. -1.
         23    2    1    2    0    0  0.00000000000E+00  0.00000000000E+00 -0.52676035325E+03  0.53477135806E+03  0.92216786174E+02 0.  0.
          2    1    3    3  502    0  0.44505604680E+02  0.36328650188E+01 -0.33001581568E+03  0.33302310003E+03  0.00000000000E+00 0. -1.
         -2    1    3    3    0  502 -0.44505604680E+02 -0.36328650188E+01 -0.19674453757E+03  0.20174825803E+03  0.00000000000E+00 0.  1.
<mgrwt>
<rscale>  0 0.92216786E+02</rscale>
<asrwt>0</asrwt>
<pdfrwt beam="2">  1        1 0.81656271E-01 0.92216786E+02</pdfrwt>
<pdfrwt beam="1">  1       -1 0.61623125E-03 0.92216786E+02</pdfrwt>
<totfact> 0.13602928E+05</totfact>
</mgrwt>
</event>
<event>
 5    1  0.3858846E+001  0.9480614E+02  0.7546771E-02  0.1291613E+00
          1   -1    0    0  501    0  0.00000000000E+00  0.00000000000E+00  0.10833267639E+03  0.10833267639E+03  0.00000000000E+00 0. -1.
         -1   -1    0    0    0  501 -0.00000000000E+00 -0.00000000000E+00 -0.20742136031E+02  0.20742136031E+02  0.00000000000E+00 0.  1.
         23    2    1    2    0    0  0.00000000000E+00  0.00000000000E+00  0.87590540361E+02  0.12907481242E+03  0.94806141369E+02 0.  0.
          2    1    3    3  502    0 -0.12293939178E+02 -0.37044872868E+02  0.80417988667E+02  0.89389688709E+02  0.00000000000E+00 0. -1.
         -2    1    3    3    0  502  0.12293939178E+02  0.37044872868E+02  0.71725516944E+01  0.39685123714E+02  0.00000000000E+00 0.  1.
<mgrwt>
<rscale>  0 0.94806141E+02</rscale>
<asrwt>0</asrwt>
<pdfrwt beam="1">  1        1 0.16666565E-01 0.94806141E+02</pdfrwt>
<pdfrwt beam="2">  1       -1 0.31910979E-02 0.94806141E+02</pdfrwt>
<totfact> 0.95167845E+04</totfact>
</mgrwt>
</event>
<event>
 5    1  0.3858846E+001  0.9085509E+02  0.7546771E-02  0.1300794E+00
         -2   -1    0    0    0  501 -0.00000000000E+00  0.00000000000E+00  0.22104914743E+01  0.22104914743E+01  0.00000000000E+00 0.  1.
          2   -1    0    0  501    0  0.00000000000E+00 -0.00000000000E+00 -0.93357592292E+03  0.93357592292E+03  0.00000000000E+00 0. -1.
         23    2    1    2    0    0  0.00000000000E+00  0.00000000000E+00 -0.93136543144E+03  0.93578641439E+03  0.90855085013E+02 0.  0.
          2    1    3    3  502    0  0.92616843582E+01 -0.28321249768E+02 -0.81885963185E+03  0.81940159181E+03  0.00000000000E+00 0. -1.
         -2    1    3    3    0  502 -0.92616843582E+01  0.28321249768E+02 -0.11250579960E+03  0.11638482259E+03  0.00000000000E+00 0.  1.
<mgrwt>
<rscale>  0 0.90855085E+02</rscale>
<asrwt>0</asrwt>
<pdfrwt beam="2">  1        2 0.14362700E+00 0.90855085E+02</pdfrwt>
<pdfrwt beam="1">  1       -2 0.34007576E-03 0.90855085E+02</pdfrwt>
<totfact> 0.25119011E+05</totfact>
</mgrwt>
</event>
<event>
 5    1  0.3858846E+001  0.8940901E+02  0.7546771E-02  0.1304289E+00
         -3   -1    0    0    0  501 -0.00000000000E+00  0.00000000000E+00  0.14534010601E+02  0.14534010601E+02  0.00000000000E+00 0.  1.
          3   -1    0    0  501    0  0.00000000000E+00 -0.00000000000E+00 -0.13750456814E+03  0.13750456814E+03  0.00000000000E+00 0. -1.
         23    2    1    2    0    0  0.00000000000E+00  0.00000000000E+00 -0.12297055754E+03  0.15203857874E+03  0.89409011872E+02 0.  0.
          2    1    3    3  502    0 -0.27854576502E+02 -0.15908422661E+02 -0.11443391922E+03  0.11884476098E+03  0.00000000000E+00 0.  1.
         -2    1    3    3    0  502  0.27854576502E+02  0.15908422661E+02 -0.85366383139E+01  0.33193817758E+02  0.00000000000E+00 0. -1.
<mgrwt>
<rscale>  0 0.89409012E+02</rscale>
<asrwt>0</asrwt>
<pdfrwt beam="2">  1        3 0.21154549E-01 0.89409012E+02</pdfrwt>
<pdfrwt beam="1">  1       -3 0.22360016E-02 0.89409012E+02</pdfrwt>
<totfact> 0.32876052E+04</totfact>
</mgrwt>
</event>
<event>
 5    1  0.3858846E+001  0.7647408E+02  0.7546771E-02  0.1339366E+00
          2   -1    0    0  501    0  0.00000000000E+00  0.00000000000E+00  0.51248398713E+02  0.51248398713E+02  0.00000000000E+00 0. -1.
         -2   -1    0    0    0  501 -0.00000000000E+00 -0.00000000000E+00 -0.28529110119E+02  0.28529110119E+02  0.00000000000E+00 0.  1.
         23    2    1    2    0    0  0.00000000000E+00  0.00000000000E+00  0.22719288594E+02  0.79777508833E+02  0.76474079539E+02 0.  0.
          2    1    3    3  502    0 -0.28423916804E+02  0.11126306056E+02  0.35383934230E+02  0.46730466877E+02  0.00000000000E+00 0. -1.
         -2    1    3    3    0  502  0.28423916804E+02 -0.11126306056E+02 -0.12664645637E+02  0.33047041956E+02  0.00000000000E+00 0.  1.
<mgrwt>
<rscale>  0 0.76474080E+02</rscale>
<asrwt>0</asrwt>
<pdfrwt beam="1">  1        2 0.78843690E-02 0.76474080E+02</pdfrwt>
<pdfrwt beam="2">  1       -2 0.43890939E-02 0.76474080E+02</pdfrwt>
<totfact> 0.16645394E+05</totfact>
</mgrwt>
</event>
<event>
 5    1  0.3858846E+001  0.8680982E+02  0.7546771E-02  0.1310766E+00
         -2   -1    0    0    0  501 -0.00000000000E+00  0.00000000000E+00  0.35527617537E+01  0.35527617537E+01  0.00000000000E+00 0.  1.
          2   -1    0    0  501    0  0.00000000000E+00 -0.00000000000E+00 -0.53028774849E+03  0.53028774849E+03  0.00000000000E+00 0. -1.
         23    2    1    2    0    0  0.00000000000E+00  0.00000000000E+00 -0.52673498674E+03  0.53384051025E+03  0.86809815834E+02 0.  0.
          2    1    3    3  502    0  0.43303909152E+02 -0.21244455726E+01 -0.25069852210E+03  0.25441991038E+03  0.00000000000E+00 0.  1.
         -2    1    3    3    0  502 -0.43303909152E+02  0.21244455726E+01 -0.27603646464E+03  0.27942059987E+03  0.00000000000E+00 0. -1.
<mgrwt>
<rscale>  0 0.86809816E+02</rscale>
<asrwt>0</asrwt>
<pdfrwt beam="2">  1        2 0.81582668E-01 0.86809816E+02</pdfrwt>
<pdfrwt beam="1">  1       -2 0.54657915E-03 0.86809816E+02</pdfrwt>
<totfact> 0.24992295E+05</totfact>
</mgrwt>
</event>
<event>
 5    1  0.3858846E+001  0.9114094E+02  0.7546771E-02  0.1300112E+00
         -1   -1    0    0    0  501 -0.00000000000E+00  0.00000000000E+00  0.93302325135E+00  0.93302325135E+00  0.00000000000E+00 0.  1.
          1   -1    0    0  501    0  0.00000000000E+00 -0.00000000000E+00 -0.22257404693E+04  0.22257404693E+04  0.00000000000E+00 0. -1.
         23    2    1    2    0    0  0.00000000000E+00  0.00000000000E+00 -0.22248074460E+04  0.22266734925E+04  0.91140937220E+02 0.  0.
          2    1    3    3  502    0  0.31994980511E+02 -0.31327380422E+02 -0.13191088431E+04  0.13198686387E+04  0.00000000000E+00 0. -1.
         -2    1    3    3    0  502 -0.31994980511E+02  0.31327380422E+02 -0.90569860296E+03  0.90680485383E+03  0.00000000000E+00 0.  1.
<mgrwt>
<rscale>  0 0.91140937E+02</rscale>
<asrwt>0</asrwt>
<pdfrwt beam="2">  1        1 0.34242173E+00 0.91140937E+02</pdfrwt>
<pdfrwt beam="1">  1       -1 0.14354199E-03 0.91140937E+02</pdfrwt>
<totfact> 0.66718977E+04</totfact>
</mgrwt>
</event>
<event>
 5    1  0.3858846E+001  0.9039530E+02  0.7546771E-02  0.1301897E+00
          1   -1    0    0  501    0  0.00000000000E+00  0.00000000000E+00  0.20824582861E+04  0.20824582861E+04  0.00000000000E+00 0. -1.
         -1   -1    0    0    0  501 -0.00000000000E+00 -0.00000000000E+00 -0.98096933727E+00  0.98096933727E+00  0.00000000000E+00 0.  1.
         23    2    1    2    0    0  0.00000000000E+00  0.00000000000E+00  0.20814773168E+04  0.20834392554E+04  0.90395303524E+02 0.  0.
          2    1    3    3  502    0 -0.19049566795E+02 -0.40112063761E+02  0.12348961868E+04  0.12356943213E+04  0.00000000000E+00 0. -1.
         -2    1    3    3    0  502  0.19049566795E+02  0.40112063761E+02  0.84658113000E+03  0.84774493412E+03  0.00000000000E+00 0.  1.
<mgrwt>
<rscale>  0 0.90395304E+02</rscale>
<asrwt>0</asrwt>
<pdfrwt beam="1">  1        1 0.32037466E+00 0.90395304E+02</pdfrwt>
<pdfrwt beam="2">  1       -1 0.15092003E-03 0.90395304E+02</pdfrwt>
<totfact> 0.76578374E+04</totfact>
</mgrwt>
</event>
<event>
 5    1  0.3858846E+001  0.1001106E+03  0.7546771E-02  0.1280064E+00
          2   -1    0    0  501    0  0.00000000000E+00  0.00000000000E+00  0.94593038586E+03  0.94593038586E+03  0.00000000000E+00 0. -1.
         -2   -1    0    0    0  501 -0.00000000000E+00 -0.00000000000E+00 -0.26487504368E+01  0.26487504368E+01  0.00000000000E+00 0.  1.
         23    2    1    2    0    0  0.00000000000E+00  0.00000000000E+00  0.94328163542E+03  0.94857913629E+03  0.10011060928E+03 0.  0.
          2    1    3    3  502    0 -0.34936288086E+01 -0.35006161830E+02  0.80903330033E+03  0.80979782530E+03  0.00000000000E+00 0. -1.
         -2    1    3    3    0  502  0.34936288086E+01  0.35006161830E+02  0.13424833509E+03  0.13878131100E+03  0.00000000000E+00 0.  1.
<mgrwt>
<rscale>  0 0.10011061E+03</rscale>
<asrwt>0</asrwt>
<pdfrwt beam="1">  1        2 0.14552748E+00 0.10011061E+03</pdfrwt>
<pdfrwt beam="2">  1       -2 0.40750082E-03 0.10011061E+03</pdfrwt>
<totfact> 0.19455601E+05</totfact>
</mgrwt>
</event>
<event>
 5    1  0.3858846E+001  0.8864806E+02  0.7546771E-02  0.1306159E+00
          2   -1    0    0  501    0  0.00000000000E+00  0.00000000000E+00  0.11650776460E+04  0.11650776460E+04  0.00000000000E+00 0. -1.
         -2   -1    0    0    0  501 -0.00000000000E+00 -0.00000000000E+00 -0.16862564405E+01  0.16862564405E+01  0.00000000000E+00 0.  1.
         23    2    1    2    0    0  0.00000000000E+00  0.00000000000E+00  0.11633913896E+04  0.11667639024E+04  0.88648061100E+02 0.  0.
          2    1    3    3  502    0 -0.17972274386E+01 -0.44284905607E+02  0.57529100263E+03  0.57699577173E+03  0.00000000000E+00 0. -1.
         -2    1    3    3    0  502  0.17972274386E+01  0.44284905607E+02  0.58810038693E+03  0.58976813071E+03  0.00000000000E+00 0.  1.
<mgrwt>
<rscale>  0 0.88648061E+02</rscale>
<asrwt>0</asrwt>
<pdfrwt beam="1">  1        2 0.17924207E+00 0.88648061E+02</pdfrwt>
<pdfrwt beam="2">  1       -2 0.25942500E-03 0.88648061E+02</pdfrwt>
<totfact> 0.26853107E+05</totfact>
</mgrwt>
</event>
<event>
 5    1  0.3858846E+001  0.8155589E+02  0.7546771E-02  0.1324693E+00
          2   -1    0    0  501    0  0.00000000000E+00  0.00000000000E+00  0.61050553488E+03  0.61050553488E+03  0.00000000000E+00 0. -1.
         -2   -1    0    0    0  501 -0.00000000000E+00 -0.00000000000E+00 -0.27237113307E+01  0.27237113307E+01  0.00000000000E+00 0.  1.
         23    2    1    2    0    0  0.00000000000E+00  0.00000000000E+00  0.60778182355E+03  0.61322924621E+03  0.81555891088E+02 0.  0.
          2    1    3    3  502    0 -0.23399864420E+02  0.22727448315E+02  0.48787928817E+03  0.48896859857E+03  0.00000000000E+00 0.  1.
         -2    1    3    3    0  502  0.23399864420E+02 -0.22727448315E+02  0.11990253538E+03  0.12426064764E+03  0.00000000000E+00 0. -1.
<mgrwt>
<rscale>  0 0.81555891E+02</rscale>
<asrwt>0</asrwt>
<pdfrwt beam="1">  1        2 0.93923819E-01 0.81555891E+02</pdfrwt>
<pdfrwt beam="2">  1       -2 0.41903300E-03 0.81555891E+02</pdfrwt>
<totfact> 0.30683789E+05</totfact>
</mgrwt>
</event>
<event>
 5    1  0.3858846E+001  0.9216595E+02  0.7546771E-02  0.1297690E+00
          1   -1    0    0  501    0  0.00000000000E+00  0.00000000000E+00  0.43556320270E+03  0.43556320270E+03  0.00000000000E+00 0. -1.
         -1   -1    0    0    0  501 -0.00000000000E+00 -0.00000000000E+00 -0.48756192989E+01  0.48756192989E+01  0.00000000000E+00 0.  1.
         23    2    1    2    0    0  0.00000000000E+00  0.00000000000E+00  0.43068758340E+03  0.44043882199E+03  0.92165945055E+02 0.  0.
          2    1    3    3  502    0  0.19216249562E+02  0.58886314764E+01  0.17172165283E+02  0.26435269781E+02  0.00000000000E+00 0.  1.
         -2    1    3    3    0  502 -0.19216249562E+02 -0.58886314764E+01  0.41351541811E+03  0.41400355221E+03  0.00000000000E+00 0. -1.
<mgrwt>
<rscale>  0 0.92165945E+02</rscale>
<asrwt>0</asrwt>
<pdfrwt beam="1">  1        1 0.67009693E-01 0.92165945E+02</pdfrwt>
<pdfrwt beam="2">  1       -1 0.75009562E-03 0.92165945E+02</pdfrwt>
<totfact> 0.13284312E+05</totfact>
</mgrwt>
</event>
<event>
 5    1  0.3858846E+001  0.9121316E+02  0.7546771E-02  0.1299940E+00
         -1   -1    0    0    0  501 -0.00000000000E+00  0.00000000000E+00  0.82189255264E+00  0.82189255264E+00  0.00000000000E+00 0.  1.
          1   -1    0    0  501    0  0.00000000000E+00 -0.00000000000E+00 -0.25306961978E+04  0.25306961978E+04  0.00000000000E+00 0. -1.
         23    2    1    2    0    0  0.00000000000E+00  0.00000000000E+00 -0.25298743053E+04  0.25315180904E+04  0.91213164796E+02 0.  0.
          2    1    3    3  502    0  0.39713045776E+02  0.21383340346E+02 -0.10775479619E+04  0.10784915315E+04  0.00000000000E+00 0. -1.
         -2    1    3    3    0  502 -0.39713045776E+02 -0.21383340346E+02 -0.14523263434E+04  0.14530265589E+04  0.00000000000E+00 0.  1.
<mgrwt>
<rscale>  0 0.91213165E+02</rscale>
<asrwt>0</asrwt>
<pdfrwt beam="2">  1        1 0.38934480E+00 0.91213165E+02</pdfrwt>
<pdfrwt beam="1">  1       -1 0.12644276E-03 0.91213165E+02</pdfrwt>
<totfact> 0.50767372E+04</totfact>
</mgrwt>
</event>
<event>
 5    1  0.3858846E+001  0.8945744E+02  0.7546771E-02  0.1304171E+00
         -2   -1    0    0    0  501 -0.00000000000E+00  0.00000000000E+00  0.28908909402E+01  0.28908909402E+01  0.00000000000E+00 0.  1.
          2   -1    0    0  501    0  0.00000000000E+00 -0.00000000000E+00 -0.69205593724E+03  0.69205593724E+03  0.00000000000E+00 0. -1.
         23    2    1    2    0    0  0.00000000000E+00  0.00000000000E+00 -0.68916504630E+03  0.69494682818E+03  0.89457436562E+02 0.  0.
          2    1    3    3  502    0 -0.16386893929E+02 -0.36014892272E+02 -0.18254803925E+03  0.18678701613E+03  0.00000000000E+00 0. -1.
         -2    1    3    3    0  502  0.16386893929E+02  0.36014892272E+02 -0.50661700705E+03  0.50815981206E+03  0.00000000000E+00 0.  1.
<mgrwt>
<rscale>  0 0.89457437E+02</rscale>
<asrwt>0</asrwt>
<pdfrwt beam="2">  1        2 0.10647000E+00 0.89457437E+02</pdfrwt>
<pdfrwt beam="1">  1       -2 0.44475307E-03 0.89457437E+02</pdfrwt>
<totfact> 0.24867401E+05</totfact>
</mgrwt>
</event>
<event>
 5    1  0.3858846E+001  0.9148756E+02  0.7546771E-02  0.1299289E+00
          1   -1    0    0  501    0  0.00000000000E+00  0.00000000000E+00  0.19733037611E+04  0.19733037611E+04  0.00000000000E+00 0. -1.
         -1   -1    0    0    0  501 -0.00000000000E+00 -0.00000000000E+00 -0.10604011253E+01  0.10604011253E+01  0.00000000000E+00 0.  1.
         23    2    1    2    0    0  0.00000000000E+00  0.00000000000E+00  0.19722433600E+04  0.19743641622E+04  0.91487562627E+02 0.  0.
          2    1    3    3  502    0  0.39386576218E+02 -0.22677903261E+02  0.10980583516E+04  0.10989985138E+04  0.00000000000E+00 0. -1.
         -2    1    3    3    0  502 -0.39386576218E+02  0.22677903261E+02  0.87418500835E+03  0.87536564846E+03  0.00000000000E+00 0.  1.
<mgrwt>
<rscale>  0 0.91487563E+02</rscale>
<asrwt>0</asrwt>
<pdfrwt beam="1">  1        1 0.30358226E+00 0.91487563E+02</pdfrwt>
<pdfrwt beam="2">  1       -1 0.16314021E-03 0.91487563E+02</pdfrwt>
<totfact> 0.80613147E+04</totfact>
</mgrwt>
</event>
<event>
 5    1  0.3858846E+001  0.9291562E+02  0.7546771E-02  0.1295941E+00
          1   -1    0    0  501    0  0.00000000000E+00  0.00000000000E+00  0.82335239694E+02  0.82335239694E+02  0.00000000000E+00 0. -1.
         -1   -1    0    0    0  501 -0.00000000000E+00 -0.00000000000E+00 -0.26213906024E+02  0.26213906024E+02  0.00000000000E+00 0.  1.
         23    2    1    2    0    0  0.00000000000E+00  0.00000000000E+00  0.56121333670E+02  0.10854914572E+03  0.92915622708E+02 0.  0.
          2    1    3    3  502    0 -0.36330414498E+02  0.23215818795E+02  0.48277048827E+02  0.64726707806E+02  0.00000000000E+00 0. -1.
         -2    1    3    3    0  502  0.36330414498E+02 -0.23215818795E+02  0.78442848422E+01  0.43822437912E+02  0.00000000000E+00 0.  1.
<mgrwt>
<rscale>  0 0.92915623E+02</rscale>
<asrwt>0</asrwt>
<pdfrwt beam="1">  1        1 0.12666960E-01 0.92915623E+02</pdfrwt>
<pdfrwt beam="2">  1       -1 0.40329087E-02 0.92915623E+02</pdfrwt>
<totfact> 0.96083850E+04</totfact>
</mgrwt>
</event>
<event>
 5    1  0.3858846E+001  0.8953083E+02  0.7546771E-02  0.1303992E+00
          2   -1    0    0  501    0  0.00000000000E+00  0.00000000000E+00  0.14675972052E+03  0.14675972052E+03  0.00000000000E+00 0. -1.
         -2   -1    0    0    0  501 -0.00000000000E+00 -0.00000000000E+00 -0.13654579104E+02  0.13654579104E+02  0.00000000000E+00 0.  1.
         23    2    1    2    0    0  0.00000000000E+00  0.00000000000E+00  0.13310514141E+03  0.16041429962E+03  0.89530826268E+02 0.  0.
          2    1    3    3  502    0  0.12245824656E+02 -0.42693912734E+02  0.56542665985E+02  0.71901345486E+02  0.00000000000E+00 0. -1.
         -2    1    3    3    0  502 -0.12245824656E+02  0.42693912734E+02  0.76562475427E+02  0.88512954134E+02  0.00000000000E+00 0.  1.
<mgrwt>
<rscale>  0 0.89530826E+02</rscale>
<asrwt>0</asrwt>
<pdfrwt beam="1">  1        2 0.22578417E-01 0.89530826E+02</pdfrwt>
<pdfrwt beam="2">  1       -2 0.21007046E-02 0.89530826E+02</pdfrwt>
<totfact> 0.14580342E+05</totfact>
</mgrwt>
</event>
<event>
 5    1  0.3858846E+001  0.8827461E+02  0.7546771E-02  0.1307085E+00
          1   -1    0    0  501    0  0.00000000000E+00  0.00000000000E+00  0.13505309524E+02  0.13505309524E+02  0.00000000000E+00 0. -1.
         -1   -1    0    0    0  501 -0.00000000000E+00 -0.00000000000E+00 -0.14424709391E+03  0.14424709391E+03  0.00000000000E+00 0.  1.
         23    2    1    2    0    0  0.00000000000E+00  0.00000000000E+00 -0.13074178439E+03  0.15775240344E+03  0.88274609063E+02 0.  0.
          2    1    3    3  502    0  0.40134718362E+01  0.40455650033E+02 -0.96082104557E+02  0.10432899114E+03  0.00000000000E+00 0. -1.
         -2    1    3    3    0  502 -0.40134718362E+01 -0.40455650033E+02 -0.34659679833E+02  0.53423412301E+02  0.00000000000E+00 0.  1.
<mgrwt>
<rscale>  0 0.88274609E+02</rscale>
<asrwt>0</asrwt>
<pdfrwt beam="1">  1        1 0.20777399E-02 0.88274609E+02</pdfrwt>
<pdfrwt beam="2">  1       -1 0.22191861E-01 0.88274609E+02</pdfrwt>
<totfact> 0.82062636E+04</totfact>
</mgrwt>
</event>
<event>
 5    1  0.3858846E+001  0.9032135E+02  0.7546771E-02  0.1302075E+00
          1   -1    0    0  501    0  0.00000000000E+00  0.00000000000E+00  0.28982384329E+02  0.28982384329E+02  0.00000000000E+00 0. -1.
         -1   -1    0    0    0  501 -0.00000000000E+00 -0.00000000000E+00 -0.70369874692E+02  0.70369874692E+02  0.00000000000E+00 0.  1.
         23    2    1    2    0    0  0.00000000000E+00  0.00000000000E+00 -0.41387490363E+02  0.99352259022E+02  0.90321354143E+02 0.  0.
          2    1    3    3  502    0 -0.37051327537E+02  0.11367476869E+02  0.48075915558E+01  0.39052955576E+02  0.00000000000E+00 0. -1.
         -2    1    3    3    0  502  0.37051327537E+02 -0.11367476869E+02 -0.46195081919E+02  0.60299303446E+02  0.00000000000E+00 0.  1.
<mgrwt>
<rscale>  0 0.90321354E+02</rscale>
<asrwt>0</asrwt>
<pdfrwt beam="1">  1        1 0.44588284E-02 0.90321354E+02</pdfrwt>
<pdfrwt beam="2">  1       -1 0.10826135E-01 0.90321354E+02</pdfrwt>
<totfact> 0.88567318E+04</totfact>
</mgrwt>
</event>
<event>
 5    1  0.3858846E+001  0.9272384E+02  0.7546771E-02  0.1296386E+00
         -3   -1    0    0    0  501 -0.00000000000E+00  0.00000000000E+00  0.79213383658E+02  0.79213383658E+02  0.00000000000E+00 0.  1.
          3   -1    0    0  501    0  0.00000000000E+00 -0.00000000000E+00 -0.27134651657E+02  0.27134651657E+02  0.00000000000E+00 0. -1.
         23    2    1    2    0    0  0.00000000000E+00  0.00000000000E+00  0.52078732001E+02  0.10634803531E+03  0.92723838836E+02 0.  0.
          2    1    3    3  502    0  0.12652931460E+02  0.22760409208E+02 -0.17954071593E+02  0.31630390270E+02  0.00000000000E+00 0. -1.
         -2    1    3    3    0  502 -0.12652931460E+02 -0.22760409208E+02  0.70032803593E+02  0.74717645045E+02  0.00000000000E+00 0.  1.
<mgrwt>
<rscale>  0 0.92723839E+02</rscale>
<asrwt>0</asrwt>
<pdfrwt beam="2">  1        3 0.41745618E-02 0.92723839E+02</pdfrwt>
<pdfrwt beam="1">  1       -3 0.12186674E-01 0.92723839E+02</pdfrwt>
<totfact> 0.32674413E+04</totfact>
</mgrwt>
</event>
<event>
 5    1  0.3858846E+001  0.9076988E+02  0.7546771E-02  0.1300998E+00
         -2   -1    0    0    0  501 -0.00000000000E+00  0.00000000000E+00  0.86945932396E+00  0.86945932396E+00  0.00000000000E+00 0.  1.
          2   -1    0    0  501    0  0.00000000000E+00 -0.00000000000E+00 -0.23690500755E+04  0.23690500755E+04  0.00000000000E+00 0. -1.
         23    2    1    2    0    0  0.00000000000E+00  0.00000000000E+00 -0.23681806161E+04  0.23699195348E+04  0.90769877758E+02 0.  0.
          2    1    3    3  502    0  0.19082132984E+02  0.37595546538E+02 -0.16227229484E+04  0.16232705628E+04  0.00000000000E+00 0. -1.
         -2    1    3    3    0  502 -0.19082132984E+02 -0.37595546538E+02 -0.74545766776E+03  0.74664897197E+03  0.00000000000E+00 0.  1.
<mgrwt>
<rscale>  0 0.90769878E+02</rscale>
<asrwt>0</asrwt>
<pdfrwt beam="2">  1        2 0.36447262E+00 0.90769878E+02</pdfrwt>
<pdfrwt beam="1">  1       -2 0.13376173E-03 0.90769878E+02</pdfrwt>
<totfact> 0.16330340E+05</totfact>
</mgrwt>
</event>
<event>
 5    1  0.3858846E+001  0.9127769E+02  0.7546771E-02  0.1299787E+00
         -3   -1    0    0    0  501 -0.00000000000E+00  0.00000000000E+00  0.14660959082E+01  0.14660959082E+01  0.00000000000E+00 0.  1.
          3   -1    0    0  501    0  0.00000000000E+00 -0.00000000000E+00 -0.14207146821E+04  0.14207146821E+04  0.00000000000E+00 0. -1.
         23    2    1    2    0    0  0.00000000000E+00  0.00000000000E+00 -0.14192485861E+04  0.14221807780E+04  0.91277685818E+02 0.  0.
          2    1    3    3  502    0 -0.83988136429E+01  0.28110501360E+02 -0.16492744713E+03  0.16751657582E+03  0.00000000000E+00 0.  1.
         -2    1    3    3    0  502  0.83988136429E+01 -0.28110501360E+02 -0.12543211390E+04  0.12546642021E+04  0.00000000000E+00 0. -1.
<mgrwt>
<rscale>  0 0.91277686E+02</rscale>
<asrwt>0</asrwt>
<pdfrwt beam="2">  1        3 0.21857194E+00 0.91277686E+02</pdfrwt>
<pdfrwt beam="1">  1       -3 0.22555276E-03 0.91277686E+02</pdfrwt>
<totfact> 0.65751763E+03</totfact>
</mgrwt>
</event>
<event>
 5    1  0.3858846E+001  0.9051638E+02  0.7546771E-02  0.1301606E+00
          2   -1    0    0  501    0  0.00000000000E+00  0.00000000000E+00  0.25462653583E+03  0.25462653583E+03  0.00000000000E+00 0. -1.
         -2   -1    0    0    0  501 -0.00000000000E+00 -0.00000000000E+00 -0.80443459716E+01  0.80443459716E+01  0.00000000000E+00 0.  1.
         23    2    1    2    0    0  0.00000000000E+00  0.00000000000E+00  0.24658218986E+03  0.26267088180E+03  0.90516384103E+02 0.  0.
          2    1    3    3  502    0 -0.10714881340E+02  0.24976637847E+02  0.22830927452E+03  0.22992121684E+03  0.00000000000E+00 0. -1.
         -2    1    3    3    0  502  0.10714881340E+02 -0.24976637847E+02  0.18272915337E+02  0.32749664963E+02  0.00000000000E+00 0.  1.
<mgrwt>
<rscale>  0 0.90516384E+02</rscale>
<asrwt>0</asrwt>
<pdfrwt beam="1">  1        2 0.39173307E-01 0.90516384E+02</pdfrwt>
<pdfrwt beam="2">  1       -2 0.12375919E-02 0.90516384E+02</pdfrwt>
<totfact> 0.17232255E+05</totfact>
</mgrwt>
</event>
<event>
 5    1  0.3858846E+001  0.9782042E+02  0.7546771E-02  0.1284947E+00
          2   -1    0    0  501    0  0.00000000000E+00  0.00000000000E+00  0.23407538504E+01  0.23407538504E+01  0.00000000000E+00 0. -1.
         -2   -1    0    0    0  501 -0.00000000000E+00 -0.00000000000E+00 -0.10219822363E+04  0.10219822363E+04  0.00000000000E+00 0.  1.
         23    2    1    2    0    0  0.00000000000E+00  0.00000000000E+00 -0.10196414825E+04  0.10243229902E+04  0.97820424343E+02 0.  0.
          2    1    3    3  502    0  0.24938038624E+02 -0.25583857068E+02 -0.16004105019E+03  0.16398041730E+03  0.00000000000E+00 0. -1.
         -2    1    3    3    0  502 -0.24938038624E+02  0.25583857068E+02 -0.85960043228E+03  0.86034257286E+03  0.00000000000E+00 0.  1.
<mgrwt>
<rscale>  0 0.97820424E+02</rscale>
<asrwt>0</asrwt>
<pdfrwt beam="1">  1        2 0.36011626E-03 0.97820424E+02</pdfrwt>
<pdfrwt beam="2">  1       -2 0.15722791E+00 0.97820424E+02</pdfrwt>
<totfact> 0.15157973E+04</totfact>
</mgrwt>
</event>
<event>
 5    1  0.3858846E+001  0.8728656E+02  0.7546771E-02  0.1309559E+00
         -2   -1    0    0    0  501 -0.00000000000E+00  0.00000000000E+00  0.34832473054E+01  0.34832473054E+01  0.00000000000E+00 0.  1.
          2   -1    0    0  501    0  0.00000000000E+00 -0.00000000000E+00 -0.54682763042E+03  0.54682763042E+03  0.00000000000E+00 0. -1.
         23    2    1    2    0    0  0.00000000000E+00  0.00000000000E+00 -0.54334438311E+03  0.55031087772E+03  0.87286559564E+02 0.  0.
          2    1    3    3  502    0 -0.24332079777E+02  0.87419159491E+01 -0.49334705541E+03  0.49402407663E+03  0.00000000000E+00 0. -1.
         -2    1    3    3    0  502  0.24332079777E+02 -0.87419159491E+01 -0.49997327697E+02  0.56286801096E+02  0.00000000000E+00 0.  1.
<mgrwt>
<rscale>  0 0.87286560E+02</rscale>
<asrwt>0</asrwt>
<pdfrwt beam="2">  1        2 0.84127323E-01 0.87286560E+02</pdfrwt>
<pdfrwt beam="1">  1       -2 0.53588423E-03 0.87286560E+02</pdfrwt>
<totfact> 0.24869595E+05</totfact>
</mgrwt>
</event>
<event>
 5    1  0.3858846E+001  0.9122350E+02  0.7546771E-02  0.1299916E+00
         -1   -1    0    0    0  501 -0.00000000000E+00  0.00000000000E+00  0.14149588035E+02  0.14149588035E+02  0.00000000000E+00 0.  1.
          1   -1    0    0  501    0  0.00000000000E+00 -0.00000000000E+00 -0.14703125618E+03  0.14703125618E+03  0.00000000000E+00 0. -1.
         23    2    1    2    0    0  0.00000000000E+00  0.00000000000E+00 -0.13288166814E+03  0.16118084421E+03  0.91223499236E+02 0.  0.
          2    1    3    3  502    0 -0.40454560377E+02  0.16005903578E+02 -0.90645864245E+02  0.10054567673E+03  0.00000000000E+00 0. -1.
         -2    1    3    3    0  502  0.40454560377E+02 -0.16005903578E+02 -0.42235803895E+02  0.60635167480E+02  0.00000000000E+00 0.  1.
<mgrwt>
<rscale>  0 0.91223499E+02</rscale>
<asrwt>0</asrwt>
<pdfrwt beam="2">  1        1 0.22620193E-01 0.91223499E+02</pdfrwt>
<pdfrwt beam="1">  1       -1 0.21768597E-02 0.91223499E+02</pdfrwt>
<totfact> 0.11156794E+05</totfact>
</mgrwt>
</event>
<event>
 5    1  0.3858846E+001  0.9106171E+02  0.7546771E-02  0.1300301E+00
         -1   -1    0    0    0  501 -0.00000000000E+00  0.00000000000E+00  0.29157374055E+01  0.29157374055E+01  0.00000000000E+00 0.  1.
          1   -1    0    0  501    0  0.00000000000E+00 -0.00000000000E+00 -0.71098959428E+03  0.71098959428E+03  0.00000000000E+00 0. -1.
         23    2    1    2    0    0  0.00000000000E+00  0.00000000000E+00 -0.70807385687E+03  0.71390533168E+03  0.91061714347E+02 0.  0.
          2    1    3    3  502    0 -0.20987421344E+02  0.23118400717E+02 -0.61383206618E+03  0.61462568916E+03  0.00000000000E+00 0. -1.
         -2    1    3    3    0  502  0.20987421344E+02 -0.23118400717E+02 -0.94241790695E+02  0.99279642525E+02  0.00000000000E+00 0.  1.
<mgrwt>
<rscale>  0 0.91061714E+02</rscale>
<asrwt>0</asrwt>
<pdfrwt beam="2">  1        1 0.10938293E+00 0.91061714E+02</pdfrwt>
<pdfrwt beam="1">  1       -1 0.44857533E-03 0.91061714E+02</pdfrwt>
<totfact> 0.14262198E+05</totfact>
</mgrwt>
</event>
<event>
 5    1  0.3858846E+001  0.9093163E+02  0.7546771E-02  0.1300611E+00
          1   -1    0    0  501    0  0.00000000000E+00  0.00000000000E+00  0.74806661743E+02  0.74806661743E+02  0.00000000000E+00 0. -1.
         -1   -1    0    0    0  501 -0.00000000000E+00 -0.00000000000E+00 -0.27633104333E+02  0.27633104333E+02  0.00000000000E+00 0.  1.
         23    2    1    2    0    0  0.00000000000E+00  0.00000000000E+00  0.47173557410E+02  0.10243976608E+03  0.90931629013E+02 0.  0.
          2    1    3    3  502    0 -0.39639158806E+02 -0.67230851739E+00  0.48661882066E+02  0.62766979183E+02  0.00000000000E+00 0. -1.
         -2    1    3    3    0  502  0.39639158806E+02  0.67230851739E+00 -0.14883246559E+01  0.39672786893E+02  0.00000000000E+00 0.  1.
<mgrwt>
<rscale>  0 0.90931629E+02</rscale>
<asrwt>0</asrwt>
<pdfrwt beam="1">  1        1 0.11508717E-01 0.90931629E+02</pdfrwt>
<pdfrwt beam="2">  1       -1 0.42512469E-02 0.90931629E+02</pdfrwt>
<totfact> 0.10043052E+05</totfact>
</mgrwt>
</event>
<event>
 5    1  0.3858846E+001  0.9064535E+02  0.7546771E-02  0.1301296E+00
         -2   -1    0    0    0  501 -0.00000000000E+00  0.00000000000E+00  0.18094688024E+02  0.18094688024E+02  0.00000000000E+00 0.  1.
          2   -1    0    0  501    0  0.00000000000E+00 -0.00000000000E+00 -0.11352197549E+03  0.11352197549E+03  0.00000000000E+00 0. -1.
         23    2    1    2    0    0  0.00000000000E+00  0.00000000000E+00 -0.95427287463E+02  0.13161666351E+03  0.90645346937E+02 0.  0.
          2    1    3    3  502    0 -0.40588577765E+02  0.90888047296E+01 -0.73853831659E+02  0.84761002042E+02  0.00000000000E+00 0.  1.
         -2    1    3    3    0  502  0.40588577765E+02 -0.90888047296E+01 -0.21573455804E+02  0.46855661470E+02  0.00000000000E+00 0. -1.
<mgrwt>
<rscale>  0 0.90645347E+02</rscale>
<asrwt>0</asrwt>
<pdfrwt beam="2">  1        2 0.17464920E-01 0.90645347E+02</pdfrwt>
<pdfrwt beam="1">  1       -2 0.27837981E-02 0.90645347E+02</pdfrwt>
<totfact> 0.12965231E+05</totfact>
</mgrwt>
</event>
<event>
 5    1  0.3858846E+001  0.9184801E+02  0.7546771E-02  0.1298437E+00
          1   -1    0    0  501    0  0.00000000000E+00  0.00000000000E+00  0.19086256794E+03  0.19086256794E+03  0.00000000000E+00 0. -1.
         -1   -1    0    0    0  501 -0.00000000000E+00 -0.00000000000E+00 -0.11049909626E+02  0.11049909626E+02  0.00000000000E+00 0.  1.
         23    2    1    2    0    0  0.00000000000E+00  0.00000000000E+00  0.17981265831E+03  0.20191247756E+03  0.91848007638E+02 0.  0.
          2    1    3    3  502    0  0.21007314769E+02 -0.18973625982E+02  0.16940298679E+03  0.17175179093E+03  0.00000000000E+00 0. -1.
         -2    1    3    3    0  502 -0.21007314769E+02  0.18973625982E+02  0.10409671523E+02  0.30160686629E+02  0.00000000000E+00 0.  1.
<mgrwt>
<rscale>  0 0.91848008E+02</rscale>
<asrwt>0</asrwt>
<pdfrwt beam="1">  1        1 0.29363470E-01 0.91848008E+02</pdfrwt>
<pdfrwt beam="2">  1       -1 0.16999862E-02 0.91848008E+02</pdfrwt>
<totfact> 0.11504961E+05</totfact>
</mgrwt>
</event>
<event>
 5    1  0.3858846E+001  0.9020776E+02  0.7546771E-02  0.1302349E+00
          2   -1    0    0  501    0  0.00000000000E+00  0.00000000000E+00  0.37756102686E+03  0.37756102686E+03  0.00000000000E+00 0. -1.
         -2   -1    0    0    0  501 -0.00000000000E+00 -0.00000000000E+00 -0.53881626191E+01  0.53881626191E+01  0.00000000000E+00 0.  1.
         23    2    1    2    0    0  0.00000000000E+00  0.00000000000E+00  0.37217286424E+03  0.38294918948E+03  0.90207764884E+02 0.  0.
          2    1    3    3  502    0  0.56626692250E+00  0.35262823527E+02  0.66723858353E+02  0.75470925891E+02  0.00000000000E+00 0.  1.
         -2    1    3    3    0  502 -0.56626692250E+00 -0.35262823527E+02  0.30544900588E+03  0.30747826359E+03  0.00000000000E+00 0. -1.
<mgrwt>
<rscale>  0 0.90207765E+02</rscale>
<asrwt>0</asrwt>
<pdfrwt beam="1">  1        2 0.58086291E-01 0.90207765E+02</pdfrwt>
<pdfrwt beam="2">  1       -2 0.82894839E-03 0.90207765E+02</pdfrwt>
<totfact> 0.20114114E+05</totfact>
</mgrwt>
</event>
<event>
 5    1  0.3858846E+001  0.9076266E+02  0.7546771E-02  0.1301015E+00
         -4   -1    0    0    0  501 -0.00000000000E+00  0.00000000000E+00  0.37801743192E+01  0.37801743192E+01  0.00000000000E+00 0. -1.
          4   -1    0    0  501    0  0.00000000000E+00 -0.00000000000E+00 -0.54480689202E+03  0.54480689202E+03  0.00000000000E+00 0.  1.
         23    2    1    2    0    0  0.00000000000E+00  0.00000000000E+00 -0.54102671770E+03  0.54858706634E+03  0.90762658008E+02 0.  0.
          2    1    3    3  502    0  0.40190050562E+02 -0.13986421491E+02 -0.36581341930E+03  0.36828021654E+03  0.00000000000E+00 0.  1.
         -2    1    3    3    0  502 -0.40190050562E+02  0.13986421491E+02 -0.17521329840E+03  0.18030684980E+03  0.00000000000E+00 0. -1.
<mgrwt>
<rscale>  0 0.90762658E+02</rscale>
<asrwt>0</asrwt>
<pdfrwt beam="2">  1        4 0.83816470E-01 0.90762658E+02</pdfrwt>
<pdfrwt beam="1">  1       -4 0.58156511E-03 0.90762658E+02</pdfrwt>
<totfact> 0.12365226E+04</totfact>
</mgrwt>
</event>
<event>
 5    1  0.3858846E+001  0.9174832E+02  0.7546771E-02  0.1298672E+00
         -1   -1    0    0    0  501 -0.00000000000E+00  0.00000000000E+00  0.37486165756E+02  0.37486165756E+02  0.00000000000E+00 0.  1.
          1   -1    0    0  501    0  0.00000000000E+00 -0.00000000000E+00 -0.56139066155E+02  0.56139066155E+02  0.00000000000E+00 0. -1.
         23    2    1    2    0    0  0.00000000000E+00  0.00000000000E+00 -0.18652900400E+02  0.93625231911E+02  0.91748315281E+02 0.  0.
          2    1    3    3  502    0 -0.45824714743E+02 -0.11772996135E+01 -0.11136956337E+02  0.47173322038E+02  0.00000000000E+00 0. -1.
         -2    1    3    3    0  502  0.45824714743E+02  0.11772996135E+01 -0.75159440627E+01  0.46451909873E+02  0.00000000000E+00 0.  1.
<mgrwt>
<rscale>  0 0.91748315E+02</rscale>
<asrwt>0</asrwt>
<pdfrwt beam="2">  1        1 0.86367793E-02 0.91748315E+02</pdfrwt>
<pdfrwt beam="1">  1       -1 0.57671025E-02 0.91748315E+02</pdfrwt>
<totfact> 0.93762839E+04</totfact>
</mgrwt>
</event>
<event>
 5    1  0.3858846E+001  0.8808008E+02  0.7546771E-02  0.1307569E+00
         -2   -1    0    0    0  501 -0.00000000000E+00  0.00000000000E+00  0.52587967056E+01  0.52587967056E+01  0.00000000000E+00 0.  1.
          2   -1    0    0  501    0  0.00000000000E+00 -0.00000000000E+00 -0.36881540003E+03  0.36881540003E+03  0.00000000000E+00 0. -1.
         23    2    1    2    0    0  0.00000000000E+00  0.00000000000E+00 -0.36355660332E+03  0.37407419673E+03  0.88080081986E+02 0.  0.
          2    1    3    3  502    0  0.96661412339E+01 -0.19671175664E+02 -0.34400707868E+03  0.34470459762E+03  0.00000000000E+00 0. -1.
         -2    1    3    3    0  502 -0.96661412339E+01  0.19671175664E+02 -0.19549524643E+02  0.29369599114E+02  0.00000000000E+00 0.  1.
<mgrwt>
<rscale>  0 0.88080082E+02</rscale>
<asrwt>0</asrwt>
<pdfrwt beam="2">  1        2 0.56740814E-01 0.88080082E+02</pdfrwt>
<pdfrwt beam="1">  1       -2 0.80904588E-03 0.88080082E+02</pdfrwt>
<totfact> 0.21246440E+05</totfact>
</mgrwt>
</event>
<event>
 5    1  0.3858846E+001  0.9041103E+02  0.7546771E-02  0.1301859E+00
          1   -1    0    0  501    0  0.00000000000E+00  0.00000000000E+00  0.28155585346E+02  0.28155585346E+02  0.00000000000E+00 0. -1.
         -1   -1    0    0    0  501 -0.00000000000E+00 -0.00000000000E+00 -0.72580225779E+02  0.72580225779E+02  0.00000000000E+00 0.  1.
         23    2    1    2    0    0  0.00000000000E+00  0.00000000000E+00 -0.44424640433E+02  0.10073581112E+03  0.90411033427E+02 0.  0.
          2    1    3    3  502    0  0.41422542999E+02 -0.18062613777E+02 -0.20868957378E+02  0.49775480581E+02  0.00000000000E+00 0. -1.
         -2    1    3    3    0  502 -0.41422542999E+02  0.18062613777E+02 -0.23555683055E+02  0.50960330544E+02  0.00000000000E+00 0.  1.
<mgrwt>
<rscale>  0 0.90411033E+02</rscale>
<asrwt>0</asrwt>
<pdfrwt beam="1">  1        1 0.43316285E-02 0.90411033E+02</pdfrwt>
<pdfrwt beam="2">  1       -1 0.11166189E-01 0.90411033E+02</pdfrwt>
<totfact> 0.87902098E+04</totfact>
</mgrwt>
</event>
<event>
 5    1  0.3858846E+001  0.9043193E+02  0.7546771E-02  0.1301809E+00
          3   -1    0    0  501    0  0.00000000000E+00  0.00000000000E+00  0.38971193165E+03  0.38971193165E+03  0.00000000000E+00 0. -1.
         -3   -1    0    0    0  501 -0.00000000000E+00 -0.00000000000E+00 -0.52461405409E+01  0.52461405409E+01  0.00000000000E+00 0.  1.
         23    2    1    2    0    0  0.00000000000E+00  0.00000000000E+00  0.38446579111E+03  0.39495807220E+03  0.90431931615E+02 0.  0.
          2    1    3    3  502    0  0.25776947796E+02  0.23711059488E+02  0.67334296112E+02  0.75898437485E+02  0.00000000000E+00 0. -1.
         -2    1    3    3    0  502 -0.25776947796E+02 -0.23711059488E+02  0.31713149500E+03  0.31905963471E+03  0.00000000000E+00 0.  1.
<mgrwt>
<rscale>  0 0.90431932E+02</rscale>
<asrwt>0</asrwt>
<pdfrwt beam="1">  1        3 0.59955659E-01 0.90431932E+02</pdfrwt>
<pdfrwt beam="2">  1       -3 0.80709885E-03 0.90431932E+02</pdfrwt>
<totfact> 0.21228008E+04</totfact>
</mgrwt>
</event>
<event>
 5    1  0.3858846E+001  0.9093526E+02  0.7546771E-02  0.1300603E+00
         -1   -1    0    0    0  501 -0.00000000000E+00  0.00000000000E+00  0.47552835390E+01  0.47552835390E+01  0.00000000000E+00 0.  1.
          1   -1    0    0  501    0  0.00000000000E+00 -0.00000000000E+00 -0.43473861999E+03  0.43473861999E+03  0.00000000000E+00 0. -1.
         23    2    1    2    0    0  0.00000000000E+00  0.00000000000E+00 -0.42998333645E+03  0.43949390352E+03  0.90935260562E+02 0.  0.
          2    1    3    3  502    0  0.18433291131E+02 -0.34976323714E+02 -0.32351212346E+03  0.32591904434E+03  0.00000000000E+00 0. -1.
         -2    1    3    3    0  502 -0.18433291131E+02  0.34976323714E+02 -0.10647121299E+03  0.11357485918E+03  0.00000000000E+00 0.  1.
<mgrwt>
<rscale>  0 0.90935261E+02</rscale>
<asrwt>0</asrwt>
<pdfrwt beam="2">  1        1 0.66882877E-01 0.90935261E+02</pdfrwt>
<pdfrwt beam="1">  1       -1 0.73158194E-03 0.90935261E+02</pdfrwt>
<totfact> 0.13763152E+05</totfact>
</mgrwt>
</event>
<event>
 5    1  0.3858846E+001  0.9183602E+02  0.7546771E-02  0.1298465E+00
          3   -1    0    0  501    0  0.00000000000E+00  0.00000000000E+00  0.10642797797E+02  0.10642797797E+02  0.00000000000E+00 0. -1.
         -3   -1    0    0    0  501 -0.00000000000E+00 -0.00000000000E+00 -0.19811177414E+03  0.19811177414E+03  0.00000000000E+00 0.  1.
         23    2    1    2    0    0  0.00000000000E+00  0.00000000000E+00 -0.18746897635E+03  0.20875457194E+03  0.91836018063E+02 0.  0.
          2    1    3    3  502    0 -0.22357406817E+01 -0.24111023662E+02 -0.50499509045E+01  0.24735440213E+02  0.00000000000E+00 0. -1.
         -2    1    3    3    0  502  0.22357406817E+01  0.24111023662E+02 -0.18241902544E+03  0.18401913173E+03  0.00000000000E+00 0.  1.
<mgrwt>
<rscale>  0 0.91836018E+02</rscale>
<asrwt>0</asrwt>
<pdfrwt beam="1">  1        3 0.16373538E-02 0.91836018E+02</pdfrwt>
<pdfrwt beam="2">  1       -3 0.30478729E-01 0.91836018E+02</pdfrwt>
<totfact> 0.27509815E+04</totfact>
</mgrwt>
</event>
<event>
 5    1  0.3858846E+001  0.9049726E+02  0.7546771E-02  0.1301652E+00
         -1   -1    0    0    0  501 -0.00000000000E+00  0.00000000000E+00  0.29800490992E+03  0.29800490992E+03  0.00000000000E+00 0.  1.
          1   -1    0    0  501    0  0.00000000000E+00 -0.00000000000E+00 -0.68704857390E+01  0.68704857390E+01  0.00000000000E+00 0. -1.
         23    2    1    2    0    0  0.00000000000E+00  0.00000000000E+00  0.29113442418E+03  0.30487539566E+03  0.90497259269E+02 0.  0.
          2    1    3    3  502    0  0.41365994733E+01  0.19917577422E+02  0.28173114619E+03  0.28246461739E+03  0.00000000000E+00 0.  1.
         -2    1    3    3    0  502 -0.41365994733E+01 -0.19917577422E+02  0.94032779938E+01  0.22410778269E+02  0.00000000000E+00 0. -1.
<mgrwt>
<rscale>  0 0.90497259E+02</rscale>
<asrwt>0</asrwt>
<pdfrwt beam="2">  1        1 0.10569980E-02 0.90497259E+02</pdfrwt>
<pdfrwt beam="1">  1       -1 0.45846899E-01 0.90497259E+02</pdfrwt>
<totfact> 0.61944648E+04</totfact>
</mgrwt>
</event>
<event>
 5    1  0.3858846E+001  0.9122646E+02  0.7546771E-02  0.1299909E+00
          2   -1    0    0  501    0  0.00000000000E+00  0.00000000000E+00  0.10622046179E+04  0.10622046179E+04  0.00000000000E+00 0. -1.
         -2   -1    0    0    0  501 -0.00000000000E+00 -0.00000000000E+00 -0.19587250468E+01  0.19587250468E+01  0.00000000000E+00 0.  1.
         23    2    1    2    0    0  0.00000000000E+00  0.00000000000E+00  0.10602458928E+04  0.10641633429E+04  0.91226460852E+02 0.  0.
          2    1    3    3  502    0 -0.36865805204E+02 -0.14817070897E+02  0.79146578588E+03  0.79246244289E+03  0.00000000000E+00 0. -1.
         -2    1    3    3    0  502  0.36865805204E+02  0.14817070897E+02  0.26878010693E+03  0.27170090001E+03  0.00000000000E+00 0.  1.
<mgrwt>
<rscale>  0 0.91226461E+02</rscale>
<asrwt>0</asrwt>
<pdfrwt beam="1">  1        2 0.16341563E+00 0.91226461E+02</pdfrwt>
<pdfrwt beam="2">  1       -2 0.30134316E-03 0.91226461E+02</pdfrwt>
<totfact> 0.24997411E+05</totfact>
</mgrwt>
</event>
<event>
 5    1  0.3858846E+001  0.9071954E+02  0.7546771E-02  0.1301119E+00
         -1   -1    0    0    0  501 -0.00000000000E+00  0.00000000000E+00  0.35004135979E+01  0.35004135979E+01  0.00000000000E+00 0.  1.
          1   -1    0    0  501    0  0.00000000000E+00 -0.00000000000E+00 -0.58779022130E+03  0.58779022130E+03  0.00000000000E+00 0. -1.
         23    2    1    2    0    0  0.00000000000E+00  0.00000000000E+00 -0.58428980770E+03  0.59129063489E+03  0.90719543282E+02 0.  0.
          2    1    3    3  502    0 -0.17434900301E+02 -0.25560209740E+02 -0.50833595099E+03  0.50927668231E+03  0.00000000000E+00 0. -1.
         -2    1    3    3    0  502  0.17434900301E+02  0.25560209740E+02 -0.75953856707E+02  0.82013952588E+02  0.00000000000E+00 0.  1.
<mgrwt>
<rscale>  0 0.90719543E+02</rscale>
<asrwt>0</asrwt>
<pdfrwt beam="2">  1        1 0.90429259E-01 0.90719543E+02</pdfrwt>
<pdfrwt beam="1">  1       -1 0.53852520E-03 0.90719543E+02</pdfrwt>
<totfact> 0.14329612E+05</totfact>
</mgrwt>
</event>
<event>
 5    1  0.3858846E+001  0.9220029E+02  0.7546771E-02  0.1297609E+00
         -4   -1    0    0    0  501 -0.00000000000E+00  0.00000000000E+00  0.63971429764E+01  0.63971429764E+01  0.00000000000E+00 0.  1.
          4   -1    0    0  501    0  0.00000000000E+00 -0.00000000000E+00 -0.33221449099E+03  0.33221449099E+03  0.00000000000E+00 0. -1.
         23    2    1    2    0    0  0.00000000000E+00  0.00000000000E+00 -0.32581734802E+03  0.33861163397E+03  0.92200294961E+02 0.  0.
          2    1    3    3  502    0 -0.41975282974E+02  0.14691099555E+02 -0.20750741502E+03  0.21221941494E+03  0.00000000000E+00 0. -1.
         -2    1    3    3    0  502  0.41975282974E+02 -0.14691099555E+02 -0.11830993299E+03  0.12639221903E+03  0.00000000000E+00 0.  1.
<mgrwt>
<rscale>  0 0.92200295E+02</rscale>
<asrwt>0</asrwt>
<pdfrwt beam="2">  1        4 0.51109914E-01 0.92200295E+02</pdfrwt>
<pdfrwt beam="1">  1       -4 0.98417598E-03 0.92200295E+02</pdfrwt>
<totfact> 0.16215380E+04</totfact>
</mgrwt>
</event>
<event>
 5    1  0.3858846E+001  0.9228340E+02  0.7546771E-02  0.1297414E+00
          1   -1    0    0  501    0  0.00000000000E+00  0.00000000000E+00  0.40205396855E+03  0.40205396855E+03  0.00000000000E+00 0. -1.
         -1   -1    0    0    0  501 -0.00000000000E+00 -0.00000000000E+00 -0.52954489385E+01  0.52954489385E+01  0.00000000000E+00 0.  1.
         23    2    1    2    0    0  0.00000000000E+00  0.00000000000E+00  0.39675851961E+03  0.40734941749E+03  0.92283395277E+02 0.  0.
          2    1    3    3  502    0  0.22444071101E+02 -0.56284579327E+01  0.37459256600E+03  0.37530654986E+03  0.00000000000E+00 0. -1.
         -2    1    3    3    0  502 -0.22444071101E+02  0.56284579327E+01  0.22165953613E+02  0.32042867629E+02  0.00000000000E+00 0.  1.
<mgrwt>
<rscale>  0 0.92283395E+02</rscale>
<asrwt>0</asrwt>
<pdfrwt beam="1">  1        1 0.61854433E-01 0.92283395E+02</pdfrwt>
<pdfrwt beam="2">  1       -1 0.81468477E-03 0.92283395E+02</pdfrwt>
<totfact> 0.13074415E+05</totfact>
</mgrwt>
</event>
<event>
 5    1  0.3858846E+001  0.8872665E+02  0.7546771E-02  0.1305965E+00
         -1   -1    0    0    0  501 -0.00000000000E+00  0.00000000000E+00  0.26983615796E+03  0.26983615796E+03  0.00000000000E+00 0.  1.
          1   -1    0    0  501    0  0.00000000000E+00 -0.00000000000E+00 -0.72937015212E+01  0.72937015212E+01  0.00000000000E+00 0. -1.
         23    2    1    2    0    0  0.00000000000E+00  0.00000000000E+00  0.26254245644E+03  0.27712985949E+03  0.88726645283E+02 0.  0.
          2    1    3    3  502    0 -0.16845866078E+02 -0.40991368338E+02  0.13754058866E+03  0.14450428717E+03  0.00000000000E+00 0.  1.
         -2    1    3    3    0  502  0.16845866078E+02  0.40991368338E+02  0.12500186778E+03  0.13262557231E+03  0.00000000000E+00 0. -1.
<mgrwt>
<rscale>  0 0.88726645E+02</rscale>
<asrwt>0</asrwt>
<pdfrwt beam="2">  1        1 0.11221081E-02 0.88726645E+02</pdfrwt>
<pdfrwt beam="1">  1       -1 0.41513247E-01 0.88726645E+02</pdfrwt>
<totfact> 0.67701505E+04</totfact>
</mgrwt>
</event>
<event>
 5    1  0.3858846E+001  0.9216497E+02  0.7546771E-02  0.1297692E+00
         -2   -1    0    0    0  501 -0.00000000000E+00  0.00000000000E+00  0.13912025118E+03  0.13912025118E+03  0.00000000000E+00 0.  1.
          2   -1    0    0  501    0  0.00000000000E+00 -0.00000000000E+00 -0.15264460301E+02  0.15264460301E+02  0.00000000000E+00 0. -1.
         23    2    1    2    0    0  0.00000000000E+00  0.00000000000E+00  0.12385579088E+03  0.15438471148E+03  0.92164972763E+02 0.  0.
          2    1    3    3  502    0 -0.21933127249E+02 -0.13767547292E+01  0.12977710275E+03  0.13162467064E+03  0.00000000000E+00 0.  1.
         -2    1    3    3    0  502  0.21933127249E+02  0.13767547292E+01 -0.59213118706E+01  0.22760040834E+02  0.00000000000E+00 0. -1.
<mgrwt>
<rscale>  0 0.92164973E+02</rscale>
<asrwt>0</asrwt>
<pdfrwt beam="2">  1        2 0.23483786E-02 0.92164973E+02</pdfrwt>
<pdfrwt beam="1">  1       -2 0.21403115E-01 0.92164973E+02</pdfrwt>
<totfact> 0.69829524E+04</totfact>
</mgrwt>
</event>
<event>
 5    1  0.3858846E+001  0.9009721E+02  0.7546771E-02  0.1302616E+00
         -2   -1    0    0    0  501 -0.00000000000E+00  0.00000000000E+00  0.28035215054E+02  0.28035215054E+02  0.00000000000E+00 0.  1.
          2   -1    0    0  501    0  0.00000000000E+00 -0.00000000000E+00 -0.72386700223E+02  0.72386700223E+02  0.00000000000E+00 0. -1.
         23    2    1    2    0    0  0.00000000000E+00  0.00000000000E+00 -0.44351485169E+02  0.10042191528E+03  0.90097207678E+02 0.  0.
          2    1    3    3  502    0  0.37035077803E+02 -0.18071319224E+02 -0.42460369060E+02  0.59169692471E+02  0.00000000000E+00 0. -1.
         -2    1    3    3    0  502 -0.37035077803E+02  0.18071319224E+02 -0.18911161084E+01  0.41252222807E+02  0.00000000000E+00 0.  1.
<mgrwt>
<rscale>  0 0.90097208E+02</rscale>
<asrwt>0</asrwt>
<pdfrwt beam="2">  1        2 0.11136415E-01 0.90097208E+02</pdfrwt>
<pdfrwt beam="1">  1       -2 0.43131100E-02 0.90097208E+02</pdfrwt>
<totfact> 0.11542647E+05</totfact>
</mgrwt>
</event>
<event>
 5    1  0.3858846E+001  0.9148394E+02  0.7546771E-02  0.1299297E+00
         -1   -1    0    0    0  501 -0.00000000000E+00  0.00000000000E+00  0.24017133750E+02  0.24017133750E+02  0.00000000000E+00 0.  1.
          1   -1    0    0  501    0  0.00000000000E+00 -0.00000000000E+00 -0.87118130273E+02  0.87118130273E+02  0.00000000000E+00 0. -1.
         23    2    1    2    0    0  0.00000000000E+00  0.00000000000E+00 -0.63100996523E+02  0.11113526402E+03  0.91483939287E+02 0.  0.
          2    1    3    3  502    0 -0.32689679931E+02  0.29946144516E+02 -0.17863504884E+02  0.47796355009E+02  0.00000000000E+00 0.  1.
         -2    1    3    3    0  502  0.32689679931E+02 -0.29946144516E+02 -0.45237491639E+02  0.63338909015E+02  0.00000000000E+00 0. -1.
<mgrwt>
<rscale>  0 0.91483939E+02</rscale>
<asrwt>0</asrwt>
<pdfrwt beam="2">  1        1 0.13402789E-01 0.91483939E+02</pdfrwt>
<pdfrwt beam="1">  1       -1 0.36949436E-02 0.91483939E+02</pdfrwt>
<totfact> 0.10118523E+05</totfact>
</mgrwt>
</event>
<event>
 5    1  0.3858846E+001  0.9057849E+02  0.7546771E-02  0.1301457E+00
          1   -1    0    0  501    0  0.00000000000E+00  0.00000000000E+00  0.46065904075E+02  0.46065904075E+02  0.00000000000E+00 0. -1.
         -1   -1    0    0    0  501 -0.00000000000E+00 -0.00000000000E+00 -0.44525675770E+02  0.44525675770E+02  0.00000000000E+00 0.  1.
         23    2    1    2    0    0  0.00000000000E+00  0.00000000000E+00  0.15402283043E+01  0.90591579845E+02  0.90578485501E+02 0.  0.
          2    1    3    3  502    0 -0.32976356431E+02  0.30816055159E+02 -0.29782496622E+01  0.45232060644E+02  0.00000000000E+00 0. -1.
         -2    1    3    3    0  502  0.32976356431E+02 -0.30816055159E+02  0.45184779666E+01  0.45359519201E+02  0.00000000000E+00 0.  1.
<mgrwt>
<rscale>  0 0.90578486E+02</rscale>
<asrwt>0</asrwt>
<pdfrwt beam="1">  1        1 0.70870622E-02 0.90578486E+02</pdfrwt>
<pdfrwt beam="2">  1       -1 0.68501040E-02 0.90578486E+02</pdfrwt>
<totfact> 0.94342136E+04</totfact>
</mgrwt>
</event>
<event>
 5    1  0.3858846E+001  0.8565511E+02  0.7546771E-02  0.1313728E+00
         -1   -1    0    0    0  501 -0.00000000000E+00  0.00000000000E+00  0.25563791721E+01  0.25563791721E+01  0.00000000000E+00 0.  1.
          1   -1    0    0  501    0  0.00000000000E+00 -0.00000000000E+00 -0.71749897798E+03  0.71749897798E+03  0.00000000000E+00 0. -1.
         23    2    1    2    0    0  0.00000000000E+00  0.00000000000E+00 -0.71494259881E+03  0.72005535715E+03  0.85655109441E+02 0.  0.
          2    1    3    3  502    0 -0.12254972030E+02 -0.37989537325E+02 -0.48792308037E+03  0.48955318572E+03  0.00000000000E+00 0. -1.
         -2    1    3    3    0  502  0.12254972030E+02  0.37989537325E+02 -0.22701951844E+03  0.23050217144E+03  0.00000000000E+00 0.  1.
<mgrwt>
<rscale>  0 0.85655109E+02</rscale>
<asrwt>0</asrwt>
<pdfrwt beam="2">  1        1 0.11038436E+00 0.85655109E+02</pdfrwt>
<pdfrwt beam="1">  1       -1 0.39328946E-03 0.85655109E+02</pdfrwt>
<totfact> 0.16756516E+05</totfact>
</mgrwt>
</event>
<event>
 5    1  0.3858846E+001  0.9531453E+02  0.7546771E-02  0.1290469E+00
         -1   -1    0    0    0  501 -0.00000000000E+00  0.00000000000E+00  0.19795874402E+02  0.19795874402E+02  0.00000000000E+00 0.  1.
          1   -1    0    0  501    0  0.00000000000E+00 -0.00000000000E+00 -0.11473172482E+03  0.11473172482E+03  0.00000000000E+00 0. -1.
         23    2    1    2    0    0  0.00000000000E+00  0.00000000000E+00 -0.94935850421E+02  0.13452759922E+03  0.95314528054E+02 0.  0.
          2    1    3    3  502    0 -0.21805531323E+02 -0.23937093053E+02 -0.96821769063E+02  0.10209270583E+03  0.00000000000E+00 0. -1.
         -2    1    3    3    0  502  0.21805531323E+02  0.23937093053E+02  0.18859186420E+01  0.32434893390E+02  0.00000000000E+00 0.  1.
<mgrwt>
<rscale>  0 0.95314528E+02</rscale>
<asrwt>0</asrwt>
<pdfrwt beam="2">  1        1 0.17651035E-01 0.95314528E+02</pdfrwt>
<pdfrwt beam="1">  1       -1 0.30455191E-02 0.95314528E+02</pdfrwt>
<totfact> 0.94727302E+04</totfact>
</mgrwt>
</event>
<event>
 5    1  0.3858846E+001  0.9091746E+02  0.7546771E-02  0.1300645E+00
         -2   -1    0    0    0  501 -0.00000000000E+00  0.00000000000E+00  0.90975410489E+02  0.90975410489E+02  0.00000000000E+00 0.  1.
          2   -1    0    0  501    0  0.00000000000E+00 -0.00000000000E+00 -0.22714888530E+02  0.22714888530E+02  0.00000000000E+00 0. -1.
         23    2    1    2    0    0  0.00000000000E+00  0.00000000000E+00  0.68260521959E+02  0.11369029902E+03  0.90917463850E+02 0.  0.
          2    1    3    3  502    0 -0.65223034372E+00 -0.29883049708E+02 -0.86988289229E+01  0.31130237534E+02  0.00000000000E+00 0. -1.
         -2    1    3    3    0  502  0.65223034372E+00  0.29883049708E+02  0.76959350882E+02  0.82560061485E+02  0.00000000000E+00 0.  1.
<mgrwt>
<rscale>  0 0.90917464E+02</rscale>
<asrwt>0</asrwt>
<pdfrwt beam="2">  1        2 0.34945983E-02 0.90917464E+02</pdfrwt>
<pdfrwt beam="1">  1       -2 0.13996217E-01 0.90917464E+02</pdfrwt>
<totfact> 0.82630506E+04</totfact>
</mgrwt>
</event>
<event>
 5    1  0.3858846E+001  0.9221007E+02  0.7546771E-02  0.1297586E+00
         -2   -1    0    0    0  501 -0.00000000000E+00  0.00000000000E+00  0.97987297798E+02  0.97987297798E+02  0.00000000000E+00 0.  1.
          2   -1    0    0  501    0  0.00000000000E+00 -0.00000000000E+00 -0.21693366494E+02  0.21693366494E+02  0.00000000000E+00 0. -1.
         23    2    1    2    0    0  0.00000000000E+00  0.00000000000E+00  0.76293931304E+02  0.11968066429E+03  0.92210072397E+02 0.  0.
          2    1    3    3  502    0  0.98658416337E+01  0.20253959052E+02  0.90356587148E+02  0.93122878657E+02  0.00000000000E+00 0.  1.
         -2    1    3    3    0  502 -0.98658416337E+01 -0.20253959052E+02 -0.14062655844E+02  0.26557785635E+02  0.00000000000E+00 0. -1.
<mgrwt>
<rscale>  0 0.92210072E+02</rscale>
<asrwt>0</asrwt>
<pdfrwt beam="2">  1        2 0.33374410E-02 0.92210072E+02</pdfrwt>
<pdfrwt beam="1">  1       -2 0.15074969E-01 0.92210072E+02</pdfrwt>
<totfact> 0.78070257E+04</totfact>
</mgrwt>
</event>
<event>
 5    1  0.3858846E+001  0.9246801E+02  0.7546771E-02  0.1296983E+00
         -1   -1    0    0    0  501 -0.00000000000E+00  0.00000000000E+00  0.33290495239E+01  0.33290495239E+01  0.00000000000E+00 0.  1.
          1   -1    0    0  501    0  0.00000000000E+00 -0.00000000000E+00 -0.64210018655E+03  0.64210018655E+03  0.00000000000E+00 0. -1.
         23    2    1    2    0    0  0.00000000000E+00  0.00000000000E+00 -0.63877113703E+03  0.64542923608E+03  0.92468012206E+02 0.  0.
          2    1    3    3  502    0  0.44880921552E+02 -0.10511616905E+02 -0.29442076098E+03  0.29800734170E+03  0.00000000000E+00 0. -1.
         -2    1    3    3    0  502 -0.44880921552E+02  0.10511616905E+02 -0.34435037605E+03  0.34742189438E+03  0.00000000000E+00 0.  1.
<mgrwt>
<rscale>  0 0.92468012E+02</rscale>
<asrwt>0</asrwt>
<pdfrwt beam="2">  1        1 0.98784628E-01 0.92468012E+02</pdfrwt>
<pdfrwt beam="1">  1       -1 0.51216155E-03 0.92468012E+02</pdfrwt>
<totfact> 0.13683950E+05</totfact>
</mgrwt>
</event>
<event>
 5    1  0.3858846E+001  0.9278847E+02  0.7546771E-02  0.1296236E+00
         -1   -1    0    0    0  501 -0.00000000000E+00  0.00000000000E+00  0.20293633912E+02  0.20293633912E+02  0.00000000000E+00 0.  1.
          1   -1    0    0  501    0  0.00000000000E+00 -0.00000000000E+00 -0.10606404149E+03  0.10606404149E+03  0.00000000000E+00 0. -1.
         23    2    1    2    0    0  0.00000000000E+00  0.00000000000E+00 -0.85770407583E+02  0.12635767541E+03  0.92788465431E+02 0.  0.
          2    1    3    3  502    0  0.83883977087E+01 -0.42536590499E+02 -0.65373092171E+02  0.78443405889E+02  0.00000000000E+00 0. -1.
         -2    1    3    3    0  502 -0.83883977087E+01  0.42536590499E+02 -0.20397315412E+02  0.47914269517E+02  0.00000000000E+00 0.  1.
<mgrwt>
<rscale>  0 0.92788465E+02</rscale>
<asrwt>0</asrwt>
<pdfrwt beam="2">  1        1 0.16317545E-01 0.92788465E+02</pdfrwt>
<pdfrwt beam="1">  1       -1 0.31220975E-02 0.92788465E+02</pdfrwt>
<totfact> 0.10056480E+05</totfact>
</mgrwt>
</event>
<event>
 5    1  0.3858846E+001  0.9050457E+02  0.7546771E-02  0.1301634E+00
          1   -1    0    0  501    0  0.00000000000E+00  0.00000000000E+00  0.42682436586E+03  0.42682436586E+03  0.00000000000E+00 0. -1.
         -1   -1    0    0    0  501 -0.00000000000E+00 -0.00000000000E+00 -0.47976859169E+01  0.47976859169E+01  0.00000000000E+00 0.  1.
         23    2    1    2    0    0  0.00000000000E+00  0.00000000000E+00  0.42202667994E+03  0.43162205178E+03  0.90504568925E+02 0.  0.
          2    1    3    3  502    0 -0.25468076617E+02  0.36558719204E+02  0.24874816944E+03  0.25270697394E+03  0.00000000000E+00 0. -1.
         -2    1    3    3    0  502  0.25468076617E+02 -0.36558719204E+02  0.17327851050E+03  0.17891507784E+03  0.00000000000E+00 0.  1.
<mgrwt>
<rscale>  0 0.90504569E+02</rscale>
<asrwt>0</asrwt>
<pdfrwt beam="1">  1        1 0.65665257E-01 0.90504569E+02</pdfrwt>
<pdfrwt beam="2">  1       -1 0.73810586E-03 0.90504569E+02</pdfrwt>
<totfact> 0.13898789E+05</totfact>
</mgrwt>
</event>
<event>
 5    1  0.3858846E+001  0.9372985E+02  0.7546771E-02  0.1294063E+00
         -2   -1    0    0    0  501 -0.00000000000E+00  0.00000000000E+00  0.94609510967E+02  0.94609510967E+02  0.00000000000E+00 0.  1.
          2   -1    0    0  501    0  0.00000000000E+00 -0.00000000000E+00 -0.23214591158E+02  0.23214591158E+02  0.00000000000E+00 0. -1.
         23    2    1    2    0    0  0.00000000000E+00  0.00000000000E+00  0.71394919809E+02  0.11782410213E+03  0.93729848326E+02 0.  0.
          2    1    3    3  502    0  0.10893158975E+01  0.32669936502E+02 -0.65182550081E+01  0.33331651752E+02  0.00000000000E+00 0. -1.
         -2    1    3    3    0  502 -0.10893158975E+01 -0.32669936502E+02  0.77913174817E+02  0.84492450374E+02  0.00000000000E+00 0.  1.
<mgrwt>
<rscale>  0 0.93729848E+02</rscale>
<asrwt>0</asrwt>
<pdfrwt beam="2">  1        2 0.35714756E-02 0.93729848E+02</pdfrwt>
<pdfrwt beam="1">  1       -2 0.14555309E-01 0.93729848E+02</pdfrwt>
<totfact> 0.75747442E+04</totfact>
</mgrwt>
</event>
<event>
 5    1  0.3858846E+001  0.9006499E+02  0.7546771E-02  0.1302694E+00
          2   -1    0    0  501    0  0.00000000000E+00  0.00000000000E+00  0.23786759278E+04  0.23786759278E+04  0.00000000000E+00 0. -1.
         -2   -1    0    0    0  501 -0.00000000000E+00 -0.00000000000E+00 -0.85254387319E+00  0.85254387319E+00  0.00000000000E+00 0.  1.
         23    2    1    2    0    0  0.00000000000E+00  0.00000000000E+00  0.23778233839E+04  0.23795284716E+04  0.90064989613E+02 0.  0.
          2    1    3    3  502    0  0.19245596239E+02  0.25595957995E+02  0.20253829078E+04  0.20256360653E+04  0.00000000000E+00 0. -1.
         -2    1    3    3    0  502 -0.19245596239E+02 -0.25595957995E+02  0.35244047609E+03  0.35389240628E+03  0.00000000000E+00 0.  1.
<mgrwt>
<rscale>  0 0.90064990E+02</rscale>
<asrwt>0</asrwt>
<pdfrwt beam="1">  1        2 0.36594483E+00 0.90064990E+02</pdfrwt>
<pdfrwt beam="2">  1       -2 0.13116250E-03 0.90064990E+02</pdfrwt>
<totfact> 0.16574599E+05</totfact>
</mgrwt>
</event>
<event>
 5    1  0.3858846E+001  0.9109157E+02  0.7546771E-02  0.1300230E+00
          4   -1    0    0  501    0  0.00000000000E+00  0.00000000000E+00  0.18488484922E+02  0.18488484922E+02  0.00000000000E+00 0. -1.
         -4   -1    0    0    0  501 -0.00000000000E+00 -0.00000000000E+00 -0.11220055946E+03  0.11220055946E+03  0.00000000000E+00 0.  1.
         23    2    1    2    0    0  0.00000000000E+00  0.00000000000E+00 -0.93712074542E+02  0.13068904439E+03  0.91091566062E+02 0.  0.
          2    1    3    3  502    0  0.23097358056E+02  0.26243300659E+02 -0.49731352297E+01  0.35311908086E+02  0.00000000000E+00 0. -1.
         -2    1    3    3    0  502 -0.23097358056E+02 -0.26243300659E+02 -0.88738939312E+02  0.95377136300E+02  0.00000000000E+00 0.  1.
<mgrwt>
<rscale>  0 0.91091566E+02</rscale>
<asrwt>0</asrwt>
<pdfrwt beam="1">  1        4 0.28443823E-02 0.91091566E+02</pdfrwt>
<pdfrwt beam="2">  1       -4 0.17261625E-01 0.91091566E+02</pdfrwt>
<totfact> 0.24742909E+04</totfact>
</mgrwt>
</event>
<event>
 5    1  0.3858846E+001  0.9059752E+02  0.7546771E-02  0.1301411E+00
          3   -1    0    0  501    0  0.00000000000E+00  0.00000000000E+00  0.30339808783E+02  0.30339808783E+02  0.00000000000E+00 0. -1.
         -3   -1    0    0    0  501 -0.00000000000E+00 -0.00000000000E+00 -0.67633171563E+02  0.67633171563E+02  0.00000000000E+00 0.  1.
         23    2    1    2    0    0  0.00000000000E+00  0.00000000000E+00 -0.37293362779E+02  0.97972980346E+02  0.90597516360E+02 0.  0.
          2    1    3    3  502    0  0.83946361682E+01  0.19087634072E+02  0.24841158780E+02  0.32432866978E+02  0.00000000000E+00 0. -1.
         -2    1    3    3    0  502 -0.83946361682E+01 -0.19087634072E+02 -0.62134521560E+02  0.65540113368E+02  0.00000000000E+00 0.  1.
<mgrwt>
<rscale>  0 0.90597516E+02</rscale>
<asrwt>0</asrwt>
<pdfrwt beam="1">  1        3 0.46676630E-02 0.90597516E+02</pdfrwt>
<pdfrwt beam="2">  1       -3 0.10405103E-01 0.90597516E+02</pdfrwt>
<totfact> 0.35432014E+04</totfact>
</mgrwt>
</event>
<event>
 5    1  0.3858846E+001  0.9405965E+02  0.7546771E-02  0.1293308E+00
         -2   -1    0    0    0  501 -0.00000000000E+00  0.00000000000E+00  0.13190565276E+02  0.13190565276E+02  0.00000000000E+00 0.  1.
          2   -1    0    0  501    0  0.00000000000E+00 -0.00000000000E+00 -0.16768080402E+03  0.16768080402E+03  0.00000000000E+00 0. -1.
         23    2    1    2    0    0  0.00000000000E+00  0.00000000000E+00 -0.15449023874E+03  0.18087136929E+03  0.94059653218E+02 0.  0.
          2    1    3    3  502    0  0.29100143540E+02  0.16398568421E+02 -0.13582246795E+02  0.36058408565E+02  0.00000000000E+00 0. -1.
         -2    1    3    3    0  502 -0.29100143540E+02 -0.16398568421E+02 -0.14090799194E+03  0.14481296073E+03  0.00000000000E+00 0.  1.
<mgrwt>
<rscale>  0 0.94059653E+02</rscale>
<asrwt>0</asrwt>
<pdfrwt beam="2">  1        2 0.25797047E-01 0.94059653E+02</pdfrwt>
<pdfrwt beam="1">  1       -2 0.20293177E-02 0.94059653E+02</pdfrwt>
<totfact> 0.13351726E+05</totfact>
</mgrwt>
</event>
<event>
 5    1  0.3858846E+001  0.1017052E+03  0.7546771E-02  0.1276751E+00
         -2   -1    0    0    0  501 -0.00000000000E+00  0.00000000000E+00  0.63799829808E+01  0.63799829808E+01  0.00000000000E+00 0.  1.
          2   -1    0    0  501    0  0.00000000000E+00 -0.00000000000E+00 -0.40532798779E+03  0.40532798779E+03  0.00000000000E+00 0. -1.
         23    2    1    2    0    0  0.00000000000E+00  0.00000000000E+00 -0.39894800481E+03  0.41170797077E+03  0.10170517516E+03 0.  0.
          2    1    3    3  502    0 -0.30746249693E+02 -0.22207367234E+02 -0.62347928805E+02  0.72977827153E+02  0.00000000000E+00 0.  1.
         -2    1    3    3    0  502  0.30746249693E+02  0.22207367234E+02 -0.33660007600E+03  0.33873014362E+03  0.00000000000E+00 0. -1.
<mgrwt>
<rscale>  0 0.10170518E+03</rscale>
<asrwt>0</asrwt>
<pdfrwt beam="2">  1        2 0.62358157E-01 0.10170518E+03</pdfrwt>
<pdfrwt beam="1">  1       -2 0.98153576E-03 0.10170518E+03</pdfrwt>
<totfact> 0.14980340E+05</totfact>
</mgrwt>
</event>
<event>
 5    1  0.3858846E+001  0.9148997E+02  0.7546771E-02  0.1299283E+00
          1   -1    0    0  501    0  0.00000000000E+00  0.00000000000E+00  0.55759071636E+02  0.55759071636E+02  0.00000000000E+00 0.  1.
         -1   -1    0    0    0  501 -0.00000000000E+00 -0.00000000000E+00 -0.37529388519E+02  0.37529388519E+02  0.00000000000E+00 0. -1.
         23    2    1    2    0    0  0.00000000000E+00  0.00000000000E+00  0.18229683117E+02  0.93288460154E+02  0.91489974595E+02 0.  0.
          2    1    3    3  502    0 -0.20051688949E+00  0.43861435765E+02 -0.41304342389E+01  0.44055944450E+02  0.00000000000E+00 0. -1.
         -2    1    3    3    0  502  0.20051688949E+00 -0.43861435765E+02  0.22360117356E+02  0.49232515704E+02  0.00000000000E+00 0.  1.
<mgrwt>
<rscale>  0 0.91489975E+02</rscale>
<asrwt>0</asrwt>
<pdfrwt beam="1">  1        1 0.85783188E-02 0.91489975E+02</pdfrwt>
<pdfrwt beam="2">  1       -1 0.57737521E-02 0.91489975E+02</pdfrwt>
<totfact> 0.94405534E+04</totfact>
</mgrwt>
</event>
<event>
 5    1  0.3858846E+001  0.8889678E+02  0.7546771E-02  0.1305545E+00
         -1   -1    0    0    0  501 -0.00000000000E+00  0.00000000000E+00  0.70628278125E+02  0.70628278125E+02  0.00000000000E+00 0.  1.
          1   -1    0    0  501    0  0.00000000000E+00 -0.00000000000E+00 -0.27972642137E+02  0.27972642137E+02  0.00000000000E+00 0. -1.
         23    2    1    2    0    0  0.00000000000E+00  0.00000000000E+00  0.42655635988E+02  0.98600920261E+02  0.88896783940E+02 0.  0.
          2    1    3    3  502    0  0.13917962330E+02  0.42177227748E+02  0.23258948944E+02  0.50135884573E+02  0.00000000000E+00 0. -1.
         -2    1    3    3    0  502 -0.13917962330E+02 -0.42177227748E+02  0.19396687044E+02  0.48465035688E+02  0.00000000000E+00 0.  1.
<mgrwt>
<rscale>  0 0.88896784E+02</rscale>
<asrwt>0</asrwt>
<pdfrwt beam="2">  1        1 0.43034834E-02 0.88896784E+02</pdfrwt>
<pdfrwt beam="1">  1       -1 0.10865889E-01 0.88896784E+02</pdfrwt>
<totfact> 0.92172396E+04</totfact>
</mgrwt>
</event>
<event>
 5    1  0.3858846E+001  0.9140286E+02  0.7546771E-02  0.1299490E+00
         -2   -1    0    0    0  501 -0.00000000000E+00  0.00000000000E+00  0.14813099137E+01  0.14813099137E+01  0.00000000000E+00 0.  1.
          2   -1    0    0  501    0  0.00000000000E+00 -0.00000000000E+00 -0.14099821676E+04  0.14099821676E+04  0.00000000000E+00 0. -1.
         23    2    1    2    0    0  0.00000000000E+00  0.00000000000E+00 -0.14085008577E+04  0.14114634775E+04  0.91402856914E+02 0.  0.
          2    1    3    3  502    0  0.24175881126E+02 -0.33381713230E+02 -0.39936577949E+03  0.40148703321E+03  0.00000000000E+00 0.  1.
         -2    1    3    3    0  502 -0.24175881126E+02  0.33381713230E+02 -0.10091350782E+04  0.10099764443E+04  0.00000000000E+00 0. -1.
<mgrwt>
<rscale>  0 0.91402857E+02</rscale>
<asrwt>0</asrwt>
<pdfrwt beam="2">  1        2 0.21692047E+00 0.91402857E+02</pdfrwt>
<pdfrwt beam="1">  1       -2 0.22789369E-03 0.91402857E+02</pdfrwt>
<totfact> 0.23933932E+05</totfact>
</mgrwt>
</event>
<event>
 5    1  0.3858846E+001  0.8959081E+02  0.7546771E-02  0.1303846E+00
          2   -1    0    0  501    0  0.00000000000E+00  0.00000000000E+00  0.11051766405E+04  0.11051766405E+04  0.00000000000E+00 0. -1.
         -2   -1    0    0    0  501 -0.00000000000E+00 -0.00000000000E+00 -0.18156629919E+01  0.18156629919E+01  0.00000000000E+00 0.  1.
         23    2    1    2    0    0  0.00000000000E+00  0.00000000000E+00  0.11033609775E+04  0.11069923035E+04  0.89590810369E+02 0.  0.
          2    1    3    3  502    0 -0.43081691026E+02 -0.96727293471E+01  0.64499519078E+03  0.64650474857E+03  0.00000000000E+00 0. -1.
         -2    1    3    3    0  502  0.43081691026E+02  0.96727293471E+01  0.45836578669E+03  0.46048755489E+03  0.00000000000E+00 0.  1.
<mgrwt>
<rscale>  0 0.89590810E+02</rscale>
<asrwt>0</asrwt>
<pdfrwt beam="1">  1        2 0.17002664E+00 0.89590810E+02</pdfrwt>
<pdfrwt beam="2">  1       -2 0.27933365E-03 0.89590810E+02</pdfrwt>
<totfact> 0.26196915E+05</totfact>
</mgrwt>
</event>
<event>
 5    1  0.3858846E+001  0.9165986E+02  0.7546771E-02  0.1298881E+00
         -1   -1    0    0    0  501 -0.00000000000E+00  0.00000000000E+00  0.21952728826E+02  0.21952728826E+02  0.00000000000E+00 0.  1.
          1   -1    0    0  501    0  0.00000000000E+00 -0.00000000000E+00 -0.95677521440E+02  0.95677521440E+02  0.00000000000E+00 0. -1.
         23    2    1    2    0    0  0.00000000000E+00  0.00000000000E+00 -0.73724792614E+02  0.11763025027E+03  0.91659864345E+02 0.  0.
          2    1    3    3  502    0  0.13937025401E+01 -0.34240712770E+02  0.21900780190E+01  0.34338975807E+02  0.00000000000E+00 0.  1.
         -2    1    3    3    0  502 -0.13937025401E+01  0.34240712770E+02 -0.75914870633E+02  0.83291274459E+02  0.00000000000E+00 0. -1.
<mgrwt>
<rscale>  0 0.91659864E+02</rscale>
<asrwt>0</asrwt>
<pdfrwt beam="2">  1        1 0.14719618E-01 0.91659864E+02</pdfrwt>
<pdfrwt beam="1">  1       -1 0.33773430E-02 0.91659864E+02</pdfrwt>
<totfact> 0.10220459E+05</totfact>
</mgrwt>
</event>
<event>
 5    1  0.3858846E+001  0.9076879E+02  0.7546771E-02  0.1301001E+00
          2   -1    0    0  501    0  0.00000000000E+00  0.00000000000E+00  0.23664422927E+02  0.23664422927E+02  0.00000000000E+00 0. -1.
         -2   -1    0    0    0  501 -0.00000000000E+00 -0.00000000000E+00 -0.87039660347E+02  0.87039660347E+02  0.00000000000E+00 0.  1.
         23    2    1    2    0    0  0.00000000000E+00  0.00000000000E+00 -0.63375237420E+02  0.11070408327E+03  0.90768790536E+02 0.  0.
          2    1    3    3  502    0 -0.22759966242E+02  0.30863069541E+02 -0.61292123467E+02  0.72299858395E+02  0.00000000000E+00 0.  1.
         -2    1    3    3    0  502  0.22759966242E+02 -0.30863069541E+02 -0.20831139538E+01  0.38404224879E+02  0.00000000000E+00 0. -1.
<mgrwt>
<rscale>  0 0.90768791E+02</rscale>
<asrwt>0</asrwt>
<pdfrwt beam="1">  1        2 0.36406804E-02 0.90768791E+02</pdfrwt>
<pdfrwt beam="2">  1       -2 0.13390717E-01 0.90768791E+02</pdfrwt>
<totfact> 0.84019248E+04</totfact>
</mgrwt>
</event>
<event>
 5    1  0.3858846E+001  0.8793346E+02  0.7546771E-02  0.1307935E+00
          2   -1    0    0  501    0  0.00000000000E+00  0.00000000000E+00  0.15683836437E+03  0.15683836437E+03  0.00000000000E+00 0. -1.
         -2   -1    0    0    0  501 -0.00000000000E+00 -0.00000000000E+00 -0.12325257527E+02  0.12325257527E+02  0.00000000000E+00 0.  1.
         23    2    1    2    0    0  0.00000000000E+00  0.00000000000E+00  0.14451310685E+03  0.16916362190E+03  0.87933457363E+02 0.  0.
          2    1    3    3  502    0  0.14052286127E+02 -0.41387103309E+02  0.81425115220E+02  0.92414330351E+02  0.00000000000E+00 0. -1.
         -2    1    3    3    0  502 -0.14052286127E+02  0.41387103309E+02  0.63087991626E+02  0.76749291548E+02  0.00000000000E+00 0.  1.
<mgrwt>
<rscale>  0 0.87933457E+02</rscale>
<asrwt>0</asrwt>
<pdfrwt beam="1">  1        2 0.24128978E-01 0.87933457E+02</pdfrwt>
<pdfrwt beam="2">  1       -2 0.18961936E-02 0.87933457E+02</pdfrwt>
<totfact> 0.15655344E+05</totfact>
</mgrwt>
</event>
<event>
 5    1  0.3858846E+001  0.9209728E+02  0.7546771E-02  0.1297851E+00
         -1   -1    0    0    0  501 -0.00000000000E+00  0.00000000000E+00  0.33945569727E+03  0.33945569727E+03  0.00000000000E+00 0.  1.
          1   -1    0    0  501    0  0.00000000000E+00 -0.00000000000E+00 -0.62466979891E+01  0.62466979891E+01  0.00000000000E+00 0. -1.
         23    2    1    2    0    0  0.00000000000E+00  0.00000000000E+00  0.33320899928E+03  0.34570239526E+03  0.92097279472E+02 0.  0.
          2    1    3    3  502    0 -0.11745075315E+02 -0.44134563030E+02  0.14450220559E+03  0.15154766203E+03  0.00000000000E+00 0. -1.
         -2    1    3    3    0  502  0.11745075315E+02  0.44134563030E+02  0.18870679370E+03  0.19415473323E+03  0.00000000000E+00 0.  1.
<mgrwt>
<rscale>  0 0.92097279E+02</rscale>
<asrwt>0</asrwt>
<pdfrwt beam="2">  1        1 0.96103073E-03 0.92097279E+02</pdfrwt>
<pdfrwt beam="1">  1       -1 0.52223939E-01 0.92097279E+02</pdfrwt>
<totfact> 0.56065620E+04</totfact>
</mgrwt>
</event>
<event>
 5    1  0.3858846E+001  0.9086943E+02  0.7546771E-02  0.1300760E+00
         -2   -1    0    0    0  501 -0.00000000000E+00  0.00000000000E+00  0.12503694292E+01  0.12503694292E+01  0.00000000000E+00 0.  1.
          2   -1    0    0  501    0  0.00000000000E+00 -0.00000000000E+00 -0.16509628850E+04  0.16509628850E+04  0.00000000000E+00 0. -1.
         23    2    1    2    0    0  0.00000000000E+00  0.00000000000E+00 -0.16497125155E+04  0.16522132544E+04  0.90869434248E+02 0.  0.
          2    1    3    3  502    0 -0.39718265072E+02  0.12669219526E+02 -0.11532786300E+04  0.11540319094E+04  0.00000000000E+00 0. -1.
         -2    1    3    3    0  502  0.39718265072E+02 -0.12669219526E+02 -0.49643388559E+03  0.49818134496E+03  0.00000000000E+00 0.  1.
<mgrwt>
<rscale>  0 0.90869434E+02</rscale>
<asrwt>0</asrwt>
<pdfrwt beam="2">  1        2 0.25399314E+00 0.90869434E+02</pdfrwt>
<pdfrwt beam="1">  1       -2 0.19236540E-03 0.90869434E+02</pdfrwt>
<totfact> 0.22796469E+05</totfact>
</mgrwt>
</event>
<event>
 5    1  0.3858846E+001  0.9641256E+02  0.7546771E-02  0.1288026E+00
          1   -1    0    0  501    0  0.00000000000E+00  0.00000000000E+00  0.92631713760E+03  0.92631713760E+03  0.00000000000E+00 0. -1.
         -1   -1    0    0    0  501 -0.00000000000E+00 -0.00000000000E+00 -0.25086929827E+01  0.25086929827E+01  0.00000000000E+00 0.  1.
         23    2    1    2    0    0  0.00000000000E+00  0.00000000000E+00  0.92380844462E+03  0.92882583058E+03  0.96412557333E+02 0.  0.
          2    1    3    3  502    0  0.25522799937E+02  0.39940824831E+02  0.54653022383E+03  0.54858177911E+03  0.00000000000E+00 0. -1.
         -2    1    3    3    0  502 -0.25522799937E+02 -0.39940824831E+02  0.37727822078E+03  0.38024405148E+03  0.00000000000E+00 0.  1.
<mgrwt>
<rscale>  0 0.96412557E+02</rscale>
<asrwt>0</asrwt>
<pdfrwt beam="1">  1        1 0.14251006E+00 0.96412557E+02</pdfrwt>
<pdfrwt beam="2">  1       -1 0.38595350E-03 0.96412557E+02</pdfrwt>
<totfact> 0.11939345E+05</totfact>
</mgrwt>
</event>
<event>
 5    1  0.3858846E+001  0.7448976E+02  0.7546771E-02  0.1345458E+00
         -3   -1    0    0    0  501 -0.00000000000E+00  0.00000000000E+00  0.29008460222E+02  0.29008460222E+02  0.00000000000E+00 0.  1.
          3   -1    0    0  501    0  0.00000000000E+00 -0.00000000000E+00 -0.47819885679E+02  0.47819885679E+02  0.00000000000E+00 0. -1.
         23    2    1    2    0    0  0.00000000000E+00  0.00000000000E+00 -0.18811425456E+02  0.76828345901E+02  0.74489764439E+02 0.  0.
          2    1    3    3  502    0  0.24551712764E+02  0.93251507187E+00 -0.38276014928E+02  0.45483068309E+02  0.00000000000E+00 0. -1.
         -2    1    3    3    0  502 -0.24551712764E+02 -0.93251507187E+00  0.19464589472E+02  0.31345277592E+02  0.00000000000E+00 0.  1.
<mgrwt>
<rscale>  0 0.74489764E+02</rscale>
<asrwt>0</asrwt>
<pdfrwt beam="2">  1        3 0.73569055E-02 0.74489764E+02</pdfrwt>
<pdfrwt beam="1">  1       -3 0.44628400E-02 0.74489764E+02</pdfrwt>
<totfact> 0.62887503E+04</totfact>
</mgrwt>
</event>
<event>
 5    1  0.3858846E+001  0.9015072E+02  0.7546771E-02  0.1302487E+00
         -3   -1    0    0    0  501 -0.00000000000E+00  0.00000000000E+00  0.12126037856E+03  0.12126037856E+03  0.00000000000E+00 0.  1.
          3   -1    0    0  501    0  0.00000000000E+00 -0.00000000000E+00 -0.16755579144E+02  0.16755579144E+02  0.00000000000E+00 0. -1.
         23    2    1    2    0    0  0.00000000000E+00  0.00000000000E+00  0.10450479941E+03  0.13801595770E+03  0.90150715359E+02 0.  0.
          2    1    3    3  502    0  0.29272162902E+02 -0.62846838956E+01  0.66537050786E+00  0.29946610668E+02  0.00000000000E+00 0. -1.
         -2    1    3    3    0  502 -0.29272162902E+02  0.62846838956E+01  0.10383942891E+03  0.10806934703E+03  0.00000000000E+00 0.  1.
<mgrwt>
<rscale>  0 0.90150715E+02</rscale>
<asrwt>0</asrwt>
<pdfrwt beam="2">  1        3 0.25777815E-02 0.90150715E+02</pdfrwt>
<pdfrwt beam="1">  1       -3 0.18655442E-01 0.90150715E+02</pdfrwt>
<totfact> 0.33054872E+04</totfact>
</mgrwt>
</event>
<event>
 5    1  0.3858846E+001  0.8924029E+02  0.7546771E-02  0.1304702E+00
         -1   -1    0    0    0  501 -0.00000000000E+00  0.00000000000E+00  0.16022048652E+03  0.16022048652E+03  0.00000000000E+00 0.  1.
          1   -1    0    0  501    0  0.00000000000E+00 -0.00000000000E+00 -0.12426360638E+02  0.12426360638E+02  0.00000000000E+00 0. -1.
         23    2    1    2    0    0  0.00000000000E+00  0.00000000000E+00  0.14779412588E+03  0.17264684716E+03  0.89240294644E+02 0.  0.
          2    1    3    3  502    0  0.40529085149E+02  0.82250213885E+01  0.10631002560E+03  0.11407050128E+03  0.00000000000E+00 0. -1.
         -2    1    3    3    0  502 -0.40529085149E+02 -0.82250213885E+01  0.41484100287E+02  0.58576345878E+02  0.00000000000E+00 0.  1.
<mgrwt>
<rscale>  0 0.89240295E+02</rscale>
<asrwt>0</asrwt>
<pdfrwt beam="2">  1        1 0.19117479E-02 0.89240295E+02</pdfrwt>
<pdfrwt beam="1">  1       -1 0.24649304E-01 0.89240295E+02</pdfrwt>
<totfact> 0.77835107E+04</totfact>
</mgrwt>
</event>
<event>
 5    1  0.3858846E+001  0.9091017E+02  0.7546771E-02  0.1300662E+00
         -2   -1    0    0    0  501 -0.00000000000E+00  0.00000000000E+00  0.18916797770E+01  0.18916797770E+01  0.00000000000E+00 0.  1.
          2   -1    0    0  501    0  0.00000000000E+00 -0.00000000000E+00 -0.10922381244E+04  0.10922381244E+04  0.00000000000E+00 0. -1.
         23    2    1    2    0    0  0.00000000000E+00  0.00000000000E+00 -0.10903464446E+04  0.10941298041E+04  0.90910170421E+02 0.  0.
          2    1    3    3  502    0  0.53930162096E+01 -0.45051852882E+02 -0.57793639714E+03  0.57971478609E+03  0.00000000000E+00 0. -1.
         -2    1    3    3    0  502 -0.53930162096E+01  0.45051852882E+02 -0.51241004745E+03  0.51441501805E+03  0.00000000000E+00 0.  1.
<mgrwt>
<rscale>  0 0.90910170E+02</rscale>
<asrwt>0</asrwt>
<pdfrwt beam="2">  1        2 0.16803651E+00 0.90910170E+02</pdfrwt>
<pdfrwt beam="1">  1       -2 0.29102787E-03 0.90910170E+02</pdfrwt>
<totfact> 0.25217583E+05</totfact>
</mgrwt>
</event>
<event>
 5    1  0.3858846E+001  0.9117659E+02  0.7546771E-02  0.1300027E+00
          2   -1    0    0  501    0  0.00000000000E+00  0.00000000000E+00  0.43927750721E+02  0.43927750721E+02  0.00000000000E+00 0. -1.
         -2   -1    0    0    0  501 -0.00000000000E+00 -0.00000000000E+00 -0.47311611639E+02  0.47311611639E+02  0.00000000000E+00 0.  1.
         23    2    1    2    0    0  0.00000000000E+00  0.00000000000E+00 -0.33838609181E+01  0.91239362360E+02  0.91176590906E+02 0.  0.
          2    1    3    3  502    0 -0.27880180133E+02 -0.46334929628E+01  0.34103060577E+02  0.44292126185E+02  0.00000000000E+00 0. -1.
         -2    1    3    3    0  502  0.27880180133E+02  0.46334929628E+01 -0.37486921495E+02  0.46947236175E+02  0.00000000000E+00 0.  1.
<mgrwt>
<rscale>  0 0.91176591E+02</rscale>
<asrwt>0</asrwt>
<pdfrwt beam="1">  1        2 0.67581155E-02 0.91176591E+02</pdfrwt>
<pdfrwt beam="2">  1       -2 0.72787095E-02 0.91176591E+02</pdfrwt>
<totfact> 0.97730395E+04</totfact>
</mgrwt>
</event>
<event>
 5    1  0.3858846E+001  0.9162342E+02  0.7546771E-02  0.1298967E+00
          2   -1    0    0  501    0  0.00000000000E+00  0.00000000000E+00  0.73376628809E+03  0.73376628809E+03  0.00000000000E+00 0. -1.
         -2   -1    0    0    0  501 -0.00000000000E+00 -0.00000000000E+00 -0.28601921589E+01  0.28601921589E+01  0.00000000000E+00 0.  1.
         23    2    1    2    0    0  0.00000000000E+00  0.00000000000E+00  0.73090609593E+03  0.73662648025E+03  0.91623415864E+02 0.  0.
          2    1    3    3  502    0 -0.23854177914E+02  0.62016046505E+01  0.67591850872E+03  0.67636773440E+03  0.00000000000E+00 0. -1.
         -2    1    3    3    0  502  0.23854177914E+02 -0.62016046505E+01  0.54987587205E+02  0.60258745845E+02  0.00000000000E+00 0.  1.
<mgrwt>
<rscale>  0 0.91623416E+02</rscale>
<asrwt>0</asrwt>
<pdfrwt beam="1">  1        2 0.11288697E+00 0.91623416E+02</pdfrwt>
<pdfrwt beam="2">  1       -2 0.44003015E-03 0.91623416E+02</pdfrwt>
<totfact> 0.23658686E+05</totfact>
</mgrwt>
</event>
<event>
 5    1  0.3858846E+001  0.8623501E+02  0.7546771E-02  0.1312234E+00
         -2   -1    0    0    0  501 -0.00000000000E+00  0.00000000000E+00  0.24993394498E+02  0.24993394498E+02  0.00000000000E+00 0. -1.
          2   -1    0    0  501    0  0.00000000000E+00 -0.00000000000E+00 -0.74384429891E+02  0.74384429891E+02  0.00000000000E+00 0.  1.
         23    2    1    2    0    0  0.00000000000E+00  0.00000000000E+00 -0.49391035393E+02  0.99377824389E+02  0.86235013788E+02 0.  0.
          2    1    3    3  502    0  0.18369910624E+02 -0.37948035630E+02 -0.14284723548E+02  0.44514720614E+02  0.00000000000E+00 0. -1.
         -2    1    3    3    0  502 -0.18369910624E+02  0.37948035630E+02 -0.35106311845E+02  0.54863103775E+02  0.00000000000E+00 0.  1.
<mgrwt>
<rscale>  0 0.86235014E+02</rscale>
<asrwt>0</asrwt>
<pdfrwt beam="2">  1        2 0.11443759E-01 0.86235014E+02</pdfrwt>
<pdfrwt beam="1">  1       -2 0.38451376E-02 0.86235014E+02</pdfrwt>
<totfact> 0.13131910E+05</totfact>
</mgrwt>
</event>
<event>
 5    1  0.3858846E+001  0.9434159E+02  0.7546771E-02  0.1292666E+00
          2   -1    0    0  501    0  0.00000000000E+00  0.00000000000E+00  0.10592448554E+04  0.10592448554E+04  0.00000000000E+00 0. -1.
         -2   -1    0    0    0  501 -0.00000000000E+00 -0.00000000000E+00 -0.21006321804E+01  0.21006321804E+01  0.00000000000E+00 0.  1.
         23    2    1    2    0    0  0.00000000000E+00  0.00000000000E+00  0.10571442232E+04  0.10613454875E+04  0.94341588499E+02 0.  0.
          2    1    3    3  502    0 -0.14511740639E+02 -0.44041410366E+02  0.62590103376E+03  0.62761639598E+03  0.00000000000E+00 0.  1.
         -2    1    3    3    0  502  0.14511740639E+02  0.44041410366E+02  0.43124318942E+03  0.43372909156E+03  0.00000000000E+00 0. -1.
<mgrwt>
<rscale>  0 0.94341588E+02</rscale>
<asrwt>0</asrwt>
<pdfrwt beam="1">  1        2 0.16296032E+00 0.94341588E+02</pdfrwt>
<pdfrwt beam="2">  1       -2 0.32317503E-03 0.94341588E+02</pdfrwt>
<totfact> 0.22879131E+05</totfact>
</mgrwt>
</event>
<event>
 5    1  0.3858846E+001  0.6718191E+02  0.7546771E-02  0.1369947E+00
          2   -1    0    0  501    0  0.00000000000E+00  0.00000000000E+00  0.82840209451E+03  0.82840209451E+03  0.00000000000E+00 0. -1.
         -2   -1    0    0    0  501 -0.00000000000E+00 -0.00000000000E+00 -0.13620827199E+01  0.13620827199E+01  0.00000000000E+00 0.  1.
         23    2    1    2    0    0  0.00000000000E+00  0.00000000000E+00  0.82704001179E+03  0.82976417723E+03  0.67181907626E+02 0.  0.
          2    1    3    3  502    0  0.25574697871E+02  0.20040771127E+02  0.51879703182E+03  0.51981348377E+03  0.00000000000E+00 0. -1.
         -2    1    3    3    0  502 -0.25574697871E+02 -0.20040771127E+02  0.30824297996E+03  0.30995069346E+03  0.00000000000E+00 0.  1.
<mgrwt>
<rscale>  0 0.67181908E+02</rscale>
<asrwt>0</asrwt>
<pdfrwt beam="1">  1        2 0.12744607E+00 0.67181908E+02</pdfrwt>
<pdfrwt beam="2">  1       -2 0.20955185E-03 0.67181908E+02</pdfrwt>
<totfact> 0.54132937E+05</totfact>
</mgrwt>
</event>
<event>
 5    1  0.3858846E+001  0.8898995E+02  0.7546771E-02  0.1305316E+00
          3   -1    0    0  501    0  0.00000000000E+00  0.00000000000E+00  0.17289547010E+02  0.17289547010E+02  0.00000000000E+00 0. -1.
         -3   -1    0    0    0  501 -0.00000000000E+00 -0.00000000000E+00 -0.11450865965E+03  0.11450865965E+03  0.00000000000E+00 0.  1.
         23    2    1    2    0    0  0.00000000000E+00  0.00000000000E+00 -0.97219112642E+02  0.13179820666E+03  0.88989951210E+02 0.  0.
          2    1    3    3  502    0  0.12629760847E+02  0.36084416820E+02 -0.14894793383E+02  0.41029877726E+02  0.00000000000E+00 0. -1.
         -2    1    3    3    0  502 -0.12629760847E+02 -0.36084416820E+02 -0.82324319259E+02  0.90768328936E+02  0.00000000000E+00 0.  1.
<mgrwt>
<rscale>  0 0.88989951E+02</rscale>
<asrwt>0</asrwt>
<pdfrwt beam="1">  1        3 0.26599303E-02 0.88989951E+02</pdfrwt>
<pdfrwt beam="2">  1       -3 0.17616717E-01 0.88989951E+02</pdfrwt>
<totfact> 0.34662380E+04</totfact>
</mgrwt>
</event>
<event>
 5    1  0.3858846E+001  0.8759715E+02  0.7546771E-02  0.1308777E+00
         -3   -1    0    0    0  501 -0.00000000000E+00  0.00000000000E+00  0.42061762260E+02  0.42061762260E+02  0.00000000000E+00 0.  1.
          3   -1    0    0  501    0  0.00000000000E+00 -0.00000000000E+00 -0.45607102121E+02  0.45607102121E+02  0.00000000000E+00 0. -1.
         23    2    1    2    0    0  0.00000000000E+00  0.00000000000E+00 -0.35453398603E+01  0.87668864381E+02  0.87597148054E+02 0.  0.
          2    1    3    3  502    0 -0.12940019099E+02  0.33869980772E+02 -0.26362999289E+02  0.44828868191E+02  0.00000000000E+00 0. -1.
         -2    1    3    3    0  502  0.12940019099E+02 -0.33869980772E+02  0.22817659429E+02  0.42839996190E+02  0.00000000000E+00 0.  1.
<mgrwt>
<rscale>  0 0.87597148E+02</rscale>
<asrwt>0</asrwt>
<pdfrwt beam="2">  1        3 0.70164772E-02 0.87597148E+02</pdfrwt>
<pdfrwt beam="1">  1       -3 0.64710404E-02 0.87597148E+02</pdfrwt>
<totfact> 0.39702228E+04</totfact>
</mgrwt>
</event>
<event>
 5    1  0.3858846E+001  0.9055649E+02  0.7546771E-02  0.1301510E+00
         -3   -1    0    0    0  501 -0.00000000000E+00  0.00000000000E+00  0.14723147371E+02  0.14723147371E+02  0.00000000000E+00 0.  1.
          3   -1    0    0  501    0  0.00000000000E+00 -0.00000000000E+00 -0.13924463930E+03  0.13924463930E+03  0.00000000000E+00 0. -1.
         23    2    1    2    0    0  0.00000000000E+00  0.00000000000E+00 -0.12452149193E+03  0.15396778667E+03  0.90556487233E+02 0.  0.
          2    1    3    3  502    0 -0.35514847206E+02  0.78044460485E+01 -0.10813276206E+03  0.11408289960E+03  0.00000000000E+00 0. -1.
         -2    1    3    3    0  502  0.35514847206E+02 -0.78044460485E+01 -0.16388729873E+02  0.39884887076E+02  0.00000000000E+00 0.  1.
<mgrwt>
<rscale>  0 0.90556487E+02</rscale>
<asrwt>0</asrwt>
<pdfrwt beam="2">  1        3 0.21422251E-01 0.90556487E+02</pdfrwt>
<pdfrwt beam="1">  1       -3 0.22650997E-02 0.90556487E+02</pdfrwt>
<totfact> 0.31644764E+04</totfact>
</mgrwt>
</event>
<event>
 5    1  0.3858846E+001  0.1231183E+03  0.7546771E-02  0.1238040E+00
         -4   -1    0    0    0  501 -0.00000000000E+00  0.00000000000E+00  0.65822554703E+02  0.65822554703E+02  0.00000000000E+00 0.  1.
          4   -1    0    0  501    0  0.00000000000E+00 -0.00000000000E+00 -0.57571937772E+02  0.57571937772E+02  0.00000000000E+00 0. -1.
         23    2    1    2    0    0  0.00000000000E+00  0.00000000000E+00  0.82506169301E+01  0.12339449248E+03  0.12311834995E+03 0.  0.
          2    1    3    3  502    0 -0.29650746408E+02 -0.14945188440E+02 -0.47827299857E+02  0.58223500682E+02  0.00000000000E+00 0. -1.
         -2    1    3    3    0  502  0.29650746408E+02  0.14945188440E+02  0.56077916788E+02  0.65170991793E+02  0.00000000000E+00 0.  1.
<mgrwt>
<rscale>  0 0.12311835E+03</rscale>
<asrwt>0</asrwt>
<pdfrwt beam="2">  1        4 0.88572212E-02 0.12311835E+03</pdfrwt>
<pdfrwt beam="1">  1       -4 0.10126547E-01 0.12311835E+03</pdfrwt>
<totfact> 0.10946663E+04</totfact>
</mgrwt>
</event>
<event>
 5    1  0.3858846E+001  0.9100392E+02  0.7546771E-02  0.1300439E+00
          2   -1    0    0  501    0  0.00000000000E+00  0.00000000000E+00  0.21806948296E+02  0.21806948296E+02  0.00000000000E+00 0. -1.
         -2   -1    0    0    0  501 -0.00000000000E+00 -0.00000000000E+00 -0.94943513354E+02  0.94943513354E+02  0.00000000000E+00 0.  1.
         23    2    1    2    0    0  0.00000000000E+00  0.00000000000E+00 -0.73136565059E+02  0.11675046165E+03  0.91003918305E+02 0.  0.
          2    1    3    3  502    0  0.33235554243E+02  0.23368616975E+01  0.31890047623E+01  0.33469878097E+02  0.00000000000E+00 0. -1.
         -2    1    3    3    0  502 -0.33235554243E+02 -0.23368616975E+01 -0.76325569821E+02  0.83280583553E+02  0.00000000000E+00 0.  1.
<mgrwt>
<rscale>  0 0.91003918E+02</rscale>
<asrwt>0</asrwt>
<pdfrwt beam="1">  1        2 0.33549150E-02 0.91003918E+02</pdfrwt>
<pdfrwt beam="2">  1       -2 0.14606695E-01 0.91003918E+02</pdfrwt>
<totfact> 0.81421989E+04</totfact>
</mgrwt>
</event>
<event>
 5    1  0.3858846E+001  0.9149699E+02  0.7546771E-02  0.1299266E+00
          4   -1    0    0  501    0  0.00000000000E+00  0.00000000000E+00  0.10103470383E+03  0.10103470383E+03  0.00000000000E+00 0. -1.
         -4   -1    0    0    0  501 -0.00000000000E+00 -0.00000000000E+00 -0.20714908748E+02  0.20714908748E+02  0.00000000000E+00 0.  1.
         23    2    1    2    0    0  0.00000000000E+00  0.00000000000E+00  0.80319795081E+02  0.12174961258E+03  0.91496987278E+02 0.  0.
          2    1    3    3  502    0 -0.75783444039E+01 -0.34227220406E+02  0.79272376270E+02  0.86677814694E+02  0.00000000000E+00 0. -1.
         -2    1    3    3    0  502  0.75783444039E+01  0.34227220406E+02  0.10474188111E+01  0.35071797884E+02  0.00000000000E+00 0.  1.
<mgrwt>
<rscale>  0 0.91496987E+02</rscale>
<asrwt>0</asrwt>
<pdfrwt beam="1">  1        4 0.15543800E-01 0.91496987E+02</pdfrwt>
<pdfrwt beam="2">  1       -4 0.31869091E-02 0.91496987E+02</pdfrwt>
<totfact> 0.24936152E+04</totfact>
</mgrwt>
</event>
<event>
 5    1  0.3858846E+001  0.8470544E+02  0.7546771E-02  0.1316205E+00
          3   -1    0    0  501    0  0.00000000000E+00  0.00000000000E+00  0.80509419798E+00  0.80509419798E+00  0.00000000000E+00 0. -1.
         -3   -1    0    0    0  501 -0.00000000000E+00 -0.00000000000E+00 -0.22280040032E+04  0.22280040032E+04  0.00000000000E+00 0.  1.
         23    2    1    2    0    0  0.00000000000E+00  0.00000000000E+00 -0.22271989090E+04  0.22288090974E+04  0.84705444833E+02 0.  0.
          2    1    3    3  502    0  0.40956319755E+02 -0.10446060866E+02 -0.11842658445E+04  0.11850198862E+04  0.00000000000E+00 0. -1.
         -2    1    3    3    0  502 -0.40956319755E+02  0.10446060866E+02 -0.10429330645E+04  0.10437892112E+04  0.00000000000E+00 0.  1.
<mgrwt>
<rscale>  0 0.84705445E+02</rscale>
<asrwt>0</asrwt>
<pdfrwt beam="1">  1        3 0.12386158E-03 0.84705445E+02</pdfrwt>
<pdfrwt beam="2">  1       -3 0.34276726E+00 0.84705445E+02</pdfrwt>
<totfact> 0.33824099E+03</totfact>
</mgrwt>
</event>
<event>
 5    1  0.3858846E+001  0.9281818E+02  0.7546771E-02  0.1296167E+00
          2   -1    0    0  501    0  0.00000000000E+00  0.00000000000E+00  0.96793333234E+01  0.96793333234E+01  0.00000000000E+00 0. -1.
         -2   -1    0    0    0  501 -0.00000000000E+00 -0.00000000000E+00 -0.22251568096E+03  0.22251568096E+03  0.00000000000E+00 0.  1.
         23    2    1    2    0    0  0.00000000000E+00  0.00000000000E+00 -0.21283634763E+03  0.23219501428E+03  0.92818175929E+02 0.  0.
          2    1    3    3  502    0 -0.38285336973E+02  0.12924957693E+02 -0.49318822662E+02  0.63758668644E+02  0.00000000000E+00 0. -1.
         -2    1    3    3    0  502  0.38285336973E+02 -0.12924957693E+02 -0.16351752497E+03  0.16843634564E+03  0.00000000000E+00 0.  1.
<mgrwt>
<rscale>  0 0.92818176E+02</rscale>
<asrwt>0</asrwt>
<pdfrwt beam="1">  1        2 0.14891281E-02 0.92818176E+02</pdfrwt>
<pdfrwt beam="2">  1       -2 0.34233183E-01 0.92818176E+02</pdfrwt>
<totfact> 0.56756459E+04</totfact>
</mgrwt>
</event>
<event>
 5    1  0.3858846E+001  0.9264422E+02  0.7546771E-02  0.1296572E+00
         -1   -1    0    0    0  501 -0.00000000000E+00  0.00000000000E+00  0.50972321683E+02  0.50972321683E+02  0.00000000000E+00 0.  1.
          1   -1    0    0  501    0  0.00000000000E+00 -0.00000000000E+00 -0.42096141641E+02  0.42096141641E+02  0.00000000000E+00 0. -1.
         23    2    1    2    0    0  0.00000000000E+00  0.00000000000E+00  0.88761800428E+01  0.93068463324E+02  0.92644224285E+02 0.  0.
          2    1    3    3  502    0 -0.35344413125E+02 -0.11726310837E+02 -0.23238098130E+02  0.43894682021E+02  0.00000000000E+00 0. -1.
         -2    1    3    3    0  502  0.35344413125E+02  0.11726310837E+02  0.32114278173E+02  0.49173781303E+02  0.00000000000E+00 0.  1.
<mgrwt>
<rscale>  0 0.92644224E+02</rscale>
<asrwt>0</asrwt>
<pdfrwt beam="2">  1        1 0.64763295E-02 0.92644224E+02</pdfrwt>
<pdfrwt beam="1">  1       -1 0.78418956E-02 0.92644224E+02</pdfrwt>
<totfact> 0.87339987E+04</totfact>
</mgrwt>
</event>
<event>
 5    1  0.3858846E+001  0.9227625E+02  0.7546771E-02  0.1297431E+00
         -2   -1    0    0    0  501 -0.00000000000E+00  0.00000000000E+00  0.59028983956E+01  0.59028983956E+01  0.00000000000E+00 0.  1.
          2   -1    0    0  501    0  0.00000000000E+00 -0.00000000000E+00 -0.36062397079E+03  0.36062397079E+03  0.00000000000E+00 0. -1.
         23    2    1    2    0    0  0.00000000000E+00  0.00000000000E+00 -0.35472107240E+03  0.36652686919E+03  0.92276251735E+02 0.  0.
          2    1    3    3  502    0 -0.14461018544E+02  0.26900736680E+02 -0.31472470644E+03  0.31620311753E+03  0.00000000000E+00 0. -1.
         -2    1    3    3    0  502  0.14461018544E+02 -0.26900736680E+02 -0.39996365954E+02  0.50323751657E+02  0.00000000000E+00 0.  1.
<mgrwt>
<rscale>  0 0.92276252E+02</rscale>
<asrwt>0</asrwt>
<pdfrwt beam="2">  1        2 0.55480621E-01 0.92276252E+02</pdfrwt>
<pdfrwt beam="1">  1       -2 0.90813804E-03 0.92276252E+02</pdfrwt>
<totfact> 0.18624515E+05</totfact>
</mgrwt>
</event>
<event>
 5    1  0.3858846E+001  0.9795474E+02  0.7546771E-02  0.1284657E+00
         -2   -1    0    0    0  501 -0.00000000000E+00  0.00000000000E+00  0.14779705240E+01  0.14779705240E+01  0.00000000000E+00 0.  1.
          2   -1    0    0  501    0  0.00000000000E+00 -0.00000000000E+00 -0.16230246737E+04  0.16230246737E+04  0.00000000000E+00 0. -1.
         23    2    1    2    0    0  0.00000000000E+00  0.00000000000E+00 -0.16215467032E+04  0.16245026442E+04  0.97954737045E+02 0.  0.
          2    1    3    3  502    0 -0.32881943431E+02 -0.21499901644E+01 -0.14116939388E+04  0.14120784756E+04  0.00000000000E+00 0. -1.
         -2    1    3    3    0  502  0.32881943431E+02  0.21499901644E+01 -0.20985276443E+03  0.21242416859E+03  0.00000000000E+00 0.  1.
<mgrwt>
<rscale>  0 0.97954737E+02</rscale>
<asrwt>0</asrwt>
<pdfrwt beam="2">  1        2 0.24969674E+00 0.97954737E+02</pdfrwt>
<pdfrwt beam="1">  1       -2 0.22737950E-03 0.97954737E+02</pdfrwt>
<totfact> 0.18856462E+05</totfact>
</mgrwt>
</event>
<event>
 5    1  0.3858846E+001  0.9124196E+02  0.7546771E-02  0.1299872E+00
         -2   -1    0    0    0  501 -0.00000000000E+00  0.00000000000E+00  0.28361663204E+01  0.28361663204E+01  0.00000000000E+00 0. -1.
          2   -1    0    0  501    0  0.00000000000E+00 -0.00000000000E+00 -0.73383347464E+03  0.73383347464E+03  0.00000000000E+00 0.  1.
         23    2    1    2    0    0  0.00000000000E+00  0.00000000000E+00 -0.73099730832E+03  0.73666964096E+03  0.91241959329E+02 0.  0.
          2    1    3    3  502    0 -0.12777982725E+02  0.29716300553E+02 -0.10576069406E+03  0.11059683435E+03  0.00000000000E+00 0. -1.
         -2    1    3    3    0  502  0.12777982725E+02 -0.29716300553E+02 -0.62523661426E+03  0.62607280661E+03  0.00000000000E+00 0.  1.
<mgrwt>
<rscale>  0 0.91241959E+02</rscale>
<asrwt>0</asrwt>
<pdfrwt beam="2">  1        2 0.11289759E+00 0.91241959E+02</pdfrwt>
<pdfrwt beam="1">  1       -2 0.43633279E-03 0.91241959E+02</pdfrwt>
<totfact> 0.23920996E+05</totfact>
</mgrwt>
</event>
<event>
 5    1  0.3858846E+001  0.9066964E+02  0.7546771E-02  0.1301238E+00
         -1   -1    0    0    0  501 -0.00000000000E+00  0.00000000000E+00  0.14122485093E+02  0.14122485093E+02  0.00000000000E+00 0.  1.
          1   -1    0    0  501    0  0.00000000000E+00 -0.00000000000E+00 -0.14553004601E+03  0.14553004601E+03  0.00000000000E+00 0. -1.
         23    2    1    2    0    0  0.00000000000E+00  0.00000000000E+00 -0.13140756092E+03  0.15965253111E+03  0.90669640022E+02 0.  0.
          2    1    3    3  502    0 -0.41955382708E+02 -0.11791910769E+02 -0.87692316348E+02  0.97924693741E+02  0.00000000000E+00 0. -1.
         -2    1    3    3    0  502  0.41955382708E+02  0.11791910769E+02 -0.43715244570E+02  0.61727837364E+02  0.00000000000E+00 0.  1.
<mgrwt>
<rscale>  0 0.90669640E+02</rscale>
<asrwt>0</asrwt>
<pdfrwt beam="2">  1        1 0.22389238E-01 0.90669640E+02</pdfrwt>
<pdfrwt beam="1">  1       -1 0.21726900E-02 0.90669640E+02</pdfrwt>
<totfact> 0.11320361E+05</totfact>
</mgrwt>
</event>
<event>
 5    1  0.3858846E+001  0.9042742E+02  0.7546771E-02  0.1301820E+00
          1   -1    0    0  501    0  0.00000000000E+00  0.00000000000E+00  0.90117645033E+03  0.90117645033E+03  0.00000000000E+00 0. -1.
         -1   -1    0    0    0  501 -0.00000000000E+00 -0.00000000000E+00 -0.22684566350E+01  0.22684566350E+01  0.00000000000E+00 0.  1.
         23    2    1    2    0    0  0.00000000000E+00  0.00000000000E+00  0.89890799370E+03  0.90344490697E+03  0.90427422789E+02 0.  0.
          2    1    3    3  502    0 -0.37408381379E+02  0.19583786139E+02  0.61097453220E+03  0.61243186614E+03  0.00000000000E+00 0. -1.
         -2    1    3    3    0  502  0.37408381379E+02 -0.19583786139E+02  0.28793346150E+03  0.29101304082E+03  0.00000000000E+00 0.  1.
<mgrwt>
<rscale>  0 0.90427423E+02</rscale>
<asrwt>0</asrwt>
<pdfrwt beam="1">  1        1 0.13864225E+00 0.90427423E+02</pdfrwt>
<pdfrwt beam="2">  1       -1 0.34899405E-03 0.90427423E+02</pdfrwt>
<totfact> 0.14221262E+05</totfact>
</mgrwt>
</event>
<event>
 5    1  0.3858846E+001  0.9134532E+02  0.7546771E-02  0.1299626E+00
         -2   -1    0    0    0  501 -0.00000000000E+00  0.00000000000E+00  0.33411453358E+01  0.33411453358E+01  0.00000000000E+00 0.  1.
          2   -1    0    0  501    0  0.00000000000E+00 -0.00000000000E+00 -0.62433443507E+03  0.62433443507E+03  0.00000000000E+00 0. -1.
         23    2    1    2    0    0  0.00000000000E+00  0.00000000000E+00 -0.62099328973E+03  0.62767558041E+03  0.91345324691E+02 0.  0.
          2    1    3    3  502    0 -0.26452097995E+02 -0.17659548860E+01 -0.56605207862E+03  0.56667255783E+03  0.00000000000E+00 0. -1.
         -2    1    3    3    0  502  0.26452097995E+02  0.17659548860E+01 -0.54941211116E+02  0.61003022580E+02  0.00000000000E+00 0.  1.
<mgrwt>
<rscale>  0 0.91345325E+02</rscale>
<asrwt>0</asrwt>
<pdfrwt beam="2">  1        2 0.96051367E-01 0.91345325E+02</pdfrwt>
<pdfrwt beam="1">  1       -2 0.51402281E-03 0.91345325E+02</pdfrwt>
<totfact> 0.22925783E+05</totfact>
</mgrwt>
</event>
<event>
 5    1  0.3858846E+001  0.9161836E+02  0.7546771E-02  0.1298979E+00
         -2   -1    0    0    0  501 -0.00000000000E+00  0.00000000000E+00  0.25623765569E+01  0.25623765569E+01  0.00000000000E+00 0.  1.
          2   -1    0    0  501    0  0.00000000000E+00 -0.00000000000E+00 -0.81895877038E+03  0.81895877038E+03  0.00000000000E+00 0. -1.
         23    2    1    2    0    0  0.00000000000E+00  0.00000000000E+00 -0.81639639382E+03  0.82152114694E+03  0.91618355242E+02 0.  0.
          2    1    3    3  502    0 -0.87669760610E+01  0.26401554190E+02 -0.73454184170E+03  0.73506844521E+03  0.00000000000E+00 0. -1.
         -2    1    3    3    0  502  0.87669760610E+01 -0.26401554190E+02 -0.81854552120E+02  0.86452701725E+02  0.00000000000E+00 0.  1.
<mgrwt>
<rscale>  0 0.91618355E+02</rscale>
<asrwt>0</asrwt>
<pdfrwt beam="2">  1        2 0.12599364E+00 0.91618355E+02</pdfrwt>
<pdfrwt beam="1">  1       -2 0.39421183E-03 0.91618355E+02</pdfrwt>
<totfact> 0.24161509E+05</totfact>
</mgrwt>
</event>
<event>
 5    1  0.3858846E+001  0.9806235E+02  0.7546771E-02  0.1284424E+00
          1   -1    0    0  501    0  0.00000000000E+00  0.00000000000E+00  0.59445169098E+02  0.59445169098E+02  0.00000000000E+00 0. -1.
         -1   -1    0    0    0  501 -0.00000000000E+00 -0.00000000000E+00 -0.40441573511E+02  0.40441573511E+02  0.00000000000E+00 0.  1.
         23    2    1    2    0    0  0.00000000000E+00  0.00000000000E+00  0.19003595587E+02  0.99886742609E+02  0.98062351103E+02 0.  0.
          2    1    3    3  502    0  0.36463966564E+02  0.26618497793E+02  0.28985942641E+02  0.53650257718E+02  0.00000000000E+00 0. -1.
         -2    1    3    3    0  502 -0.36463966564E+02 -0.26618497793E+02 -0.99823470541E+01  0.46236484891E+02  0.00000000000E+00 0.  1.
<mgrwt>
<rscale>  0 0.98062351E+02</rscale>
<asrwt>0</asrwt>
<pdfrwt beam="1">  1        1 0.91454106E-02 0.98062351E+02</pdfrwt>
<pdfrwt beam="2">  1       -1 0.62217805E-02 0.98062351E+02</pdfrwt>
<totfact> 0.78532485E+04</totfact>
</mgrwt>
</event>
<event>
 5    1  0.3858846E+001  0.8995118E+02  0.7546771E-02  0.1302970E+00
          2   -1    0    0  501    0  0.00000000000E+00  0.00000000000E+00  0.12591879236E+04  0.12591879236E+04  0.00000000000E+00 0.  1.
         -2   -1    0    0    0  501 -0.00000000000E+00 -0.00000000000E+00 -0.16064351482E+01  0.16064351482E+01  0.00000000000E+00 0. -1.
         23    2    1    2    0    0  0.00000000000E+00  0.00000000000E+00  0.12575814884E+04  0.12607943587E+04  0.89951180951E+02 0.  0.
          2    1    3    3  502    0  0.16240018550E+02  0.41411268097E+02  0.53563429252E+03  0.53747811737E+03  0.00000000000E+00 0. -1.
         -2    1    3    3    0  502 -0.16240018550E+02 -0.41411268097E+02  0.72194719590E+03  0.72331624135E+03  0.00000000000E+00 0.  1.
<mgrwt>
<rscale>  0 0.89951181E+02</rscale>
<asrwt>0</asrwt>
<pdfrwt beam="1">  1        2 0.19372043E+00 0.89951181E+02</pdfrwt>
<pdfrwt beam="2">  1       -2 0.24714488E-03 0.89951181E+02</pdfrwt>
<totfact> 0.25604073E+05</totfact>
</mgrwt>
</event>
<event>
 5    1  0.3858846E+001  0.9041103E+02  0.7546771E-02  0.1301859E+00
         -2   -1    0    0    0  501 -0.00000000000E+00  0.00000000000E+00  0.32972256688E+02  0.32972256688E+02  0.00000000000E+00 0.  1.
          2   -1    0    0  501    0  0.00000000000E+00 -0.00000000000E+00 -0.61977521304E+02  0.61977521304E+02  0.00000000000E+00 0. -1.
         23    2    1    2    0    0  0.00000000000E+00  0.00000000000E+00 -0.29005264616E+02  0.94949777992E+02  0.90411033427E+02 0.  0.
          2    1    3    3  502    0  0.73961622015E+01  0.38813762724E+02 -0.37567101510E+02  0.54520624611E+02  0.00000000000E+00 0. -1.
         -2    1    3    3    0  502 -0.73961622015E+01 -0.38813762724E+02  0.85618368939E+01  0.40429153381E+02  0.00000000000E+00 0.  1.
<mgrwt>
<rscale>  0 0.90411033E+02</rscale>
<asrwt>0</asrwt>
<pdfrwt beam="2">  1        2 0.95350033E-02 0.90411033E+02</pdfrwt>
<pdfrwt beam="1">  1       -2 0.50726549E-02 0.90411033E+02</pdfrwt>
<totfact> 0.10956694E+05</totfact>
</mgrwt>
</event>
<event>
 5    1  0.3858846E+001  0.9166382E+02  0.7546771E-02  0.1298872E+00
         -1   -1    0    0    0  501 -0.00000000000E+00  0.00000000000E+00  0.25929922365E+02  0.25929922365E+02  0.00000000000E+00 0.  1.
          1   -1    0    0  501    0  0.00000000000E+00 -0.00000000000E+00 -0.81009269083E+02  0.81009269083E+02  0.00000000000E+00 0. -1.
         23    2    1    2    0    0  0.00000000000E+00  0.00000000000E+00 -0.55079346718E+02  0.10693919145E+03  0.91663821831E+02 0.  0.
          2    1    3    3  502    0 -0.12327061303E+02  0.16832147734E+02 -0.75148053575E+02  0.77990432707E+02  0.00000000000E+00 0. -1.
         -2    1    3    3    0  502  0.12327061303E+02 -0.16832147734E+02  0.20068706857E+02  0.28948758741E+02  0.00000000000E+00 0.  1.
<mgrwt>
<rscale>  0 0.91663822E+02</rscale>
<asrwt>0</asrwt>
<pdfrwt beam="2">  1        1 0.12462964E-01 0.91663822E+02</pdfrwt>
<pdfrwt beam="1">  1       -1 0.39892189E-02 0.91663822E+02</pdfrwt>
<totfact> 0.99477448E+04</totfact>
</mgrwt>
</event>
<event>
 5    1  0.3858846E+001  0.9006226E+02  0.7546771E-02  0.1302701E+00
         -2   -1    0    0    0  501 -0.00000000000E+00  0.00000000000E+00  0.14182799979E+02  0.14182799979E+02  0.00000000000E+00 0.  1.
          2   -1    0    0  501    0  0.00000000000E+00 -0.00000000000E+00 -0.14297619152E+03  0.14297619152E+03  0.00000000000E+00 0. -1.
         23    2    1    2    0    0  0.00000000000E+00  0.00000000000E+00 -0.12879339154E+03  0.15715899150E+03  0.90062261265E+02 0.  0.
          2    1    3    3  502    0 -0.13327446238E+01 -0.43589750882E+02 -0.83981216431E+02  0.94629209568E+02  0.00000000000E+00 0. -1.
         -2    1    3    3    0  502  0.13327446238E+01  0.43589750882E+02 -0.44812175107E+02  0.62529781928E+02  0.00000000000E+00 0.  1.
<mgrwt>
<rscale>  0 0.90062261E+02</rscale>
<asrwt>0</asrwt>
<pdfrwt beam="2">  1        2 0.21996336E-01 0.90062261E+02</pdfrwt>
<pdfrwt beam="1">  1       -2 0.21819693E-02 0.90062261E+02</pdfrwt>
<totfact> 0.14223026E+05</totfact>
</mgrwt>
</event>
<event>
 4    1  0.3858846E+001  0.4881197E+02  0.7546771E-02  0.1451857E+00
         -1   -1    0    0    0  501 -0.00000000000E+00  0.00000000000E+00  0.37603644389E+00  0.37603644389E+00  0.00000000000E+00 0.  1.
          1   -1    0    0  501    0  0.00000000000E+00 -0.00000000000E+00 -0.15840276087E+04  0.15840276087E+04  0.00000000000E+00 0. -1.
          2    1    1    2  502    0 -0.66417071858E+00 -0.20459025447E+02 -0.36042282815E+03  0.36100363973E+03  0.00000000000E+00 0. -1.
         -2    1    1    2    0  502  0.66417071858E+00  0.20459025447E+02 -0.12232287441E+04  0.12234000054E+04  0.00000000000E+00 0.  1.
<mgrwt>
<rscale>  0 0.48811970E+02</rscale>
<asrwt>0</asrwt>
<pdfrwt beam="2">  1        1 0.24370086E+00 0.48811970E+02</pdfrwt>
<pdfrwt beam="1">  1       -1 0.57850738E-04 0.48811970E+02</pdfrwt>
<totfact> 0.52493163E+05</totfact>
</mgrwt>
</event>
<event>
 5    1  0.3858846E+001  0.9250576E+02  0.7546771E-02  0.1296895E+00
         -3   -1    0    0    0  501 -0.00000000000E+00  0.00000000000E+00  0.11087551757E+03  0.11087551757E+03  0.00000000000E+00 0.  1.
          3   -1    0    0  501    0  0.00000000000E+00 -0.00000000000E+00 -0.19294870778E+02  0.19294870778E+02  0.00000000000E+00 0. -1.
         23    2    1    2    0    0  0.00000000000E+00  0.00000000000E+00  0.91580646794E+02  0.13017038835E+03  0.92505757312E+02 0.  0.
          2    1    3    3  502    0  0.65423151212E+01 -0.25443845751E+02 -0.77767909529E+01  0.27398351251E+02  0.00000000000E+00 0. -1.
         -2    1    3    3    0  502 -0.65423151212E+01  0.25443845751E+02  0.99357437747E+02  0.10277203710E+03  0.00000000000E+00 0.  1.
<mgrwt>
<rscale>  0 0.92505757E+02</rscale>
<asrwt>0</asrwt>
<pdfrwt beam="2">  1        3 0.29684417E-02 0.92505757E+02</pdfrwt>
<pdfrwt beam="1">  1       -3 0.17057771E-01 0.92505757E+02</pdfrwt>
<totfact> 0.31309538E+04</totfact>
</mgrwt>
</event>
<event>
 5    1  0.3858846E+001  0.9507377E+02  0.7546771E-02  0.1291010E+00
         -2   -1    0    0    0  501 -0.00000000000E+00  0.00000000000E+00  0.33703218039E+03  0.33703218039E+03  0.00000000000E+00 0. -1.
          2   -1    0    0  501    0  0.00000000000E+00 -0.00000000000E+00 -0.67048661157E+01  0.67048661157E+01  0.00000000000E+00 0.  1.
         23    2    1    2    0    0  0.00000000000E+00  0.00000000000E+00  0.33032731427E+03  0.34373704650E+03  0.95073774432E+02 0.  0.
          2    1    3    3  502    0  0.50714822799E+01 -0.41829955486E+02  0.85599292850E+02  0.95408092135E+02  0.00000000000E+00 0. -1.
         -2    1    3    3    0  502 -0.50714822799E+01  0.41829955486E+02  0.24472802142E+03  0.24832895437E+03  0.00000000000E+00 0.  1.
<mgrwt>
<rscale>  0 0.95073774E+02</rscale>
<asrwt>0</asrwt>
<pdfrwt beam="2">  1        2 0.10315181E-02 0.95073774E+02</pdfrwt>
<pdfrwt beam="1">  1       -2 0.51851091E-01 0.95073774E+02</pdfrwt>
<totfact> 0.42764362E+04</totfact>
</mgrwt>
</event>
<event>
 5    1  0.3858846E+001  0.9252134E+02  0.7546771E-02  0.1296858E+00
         -2   -1    0    0    0  501 -0.00000000000E+00  0.00000000000E+00  0.31512953453E+01  0.31512953453E+01  0.00000000000E+00 0. -1.
          2   -1    0    0  501    0  0.00000000000E+00 -0.00000000000E+00 -0.67910154576E+03  0.67910154576E+03  0.00000000000E+00 0.  1.
         23    2    1    2    0    0  0.00000000000E+00  0.00000000000E+00 -0.67595025042E+03  0.68225284111E+03  0.92521338947E+02 0.  0.
          2    1    3    3  502    0  0.48286944760E+01  0.42787066224E+02 -0.21326933387E+03  0.21757265016E+03  0.00000000000E+00 0. -1.
         -2    1    3    3    0  502 -0.48286944760E+01 -0.42787066224E+02 -0.46268091654E+03  0.46468019095E+03  0.00000000000E+00 0.  1.
<mgrwt>
<rscale>  0 0.92521339E+02</rscale>
<asrwt>0</asrwt>
<pdfrwt beam="2">  1        2 0.10447717E+00 0.92521339E+02</pdfrwt>
<pdfrwt beam="1">  1       -2 0.48481463E-03 0.92521339E+02</pdfrwt>
<totfact> 0.22650664E+05</totfact>
</mgrwt>
</event>
<event>
 5    1  0.3858846E+001  0.8733982E+02  0.7546771E-02  0.1309425E+00
          2   -1    0    0  501    0  0.00000000000E+00  0.00000000000E+00  0.80129169834E+03  0.80129169834E+03  0.00000000000E+00 0. -1.
         -2   -1    0    0    0  501 -0.00000000000E+00 -0.00000000000E+00 -0.23799835368E+01  0.23799835368E+01  0.00000000000E+00 0.  1.
         23    2    1    2    0    0  0.00000000000E+00  0.00000000000E+00  0.79891171480E+03  0.80367168187E+03  0.87339820248E+02 0.  0.
          2    1    3    3  502    0 -0.30754954483E+02 -0.29696019086E+02  0.48141798511E+03  0.48331252535E+03  0.00000000000E+00 0. -1.
         -2    1    3    3    0  502  0.30754954483E+02  0.29696019086E+02  0.31749372969E+03  0.32035915652E+03  0.00000000000E+00 0.  1.
<mgrwt>
<rscale>  0 0.87339820E+02</rscale>
<asrwt>0</asrwt>
<pdfrwt beam="1">  1        2 0.12327543E+00 0.87339820E+02</pdfrwt>
<pdfrwt beam="2">  1       -2 0.36615195E-03 0.87339820E+02</pdfrwt>
<totfact> 0.27298740E+05</totfact>
</mgrwt>
</event>
<event>
 5    1  0.3858846E+001  0.9030629E+02  0.7546771E-02  0.1302112E+00
          2   -1    0    0  501    0  0.00000000000E+00  0.00000000000E+00  0.61414354559E+03  0.61414354559E+03  0.00000000000E+00 0. -1.
         -2   -1    0    0    0  501 -0.00000000000E+00 -0.00000000000E+00 -0.33197556551E+01  0.33197556551E+01  0.00000000000E+00 0.  1.
         23    2    1    2    0    0  0.00000000000E+00  0.00000000000E+00  0.61082378993E+03  0.61746330124E+03  0.90306290113E+02 0.  0.
          2    1    3    3  502    0 -0.37586063624E+02 -0.12477848855E+02  0.15711716893E+03  0.16203152059E+03  0.00000000000E+00 0. -1.
         -2    1    3    3    0  502  0.37586063624E+02  0.12477848855E+02  0.45370662100E+03  0.45543178065E+03  0.00000000000E+00 0.  1.
<mgrwt>
<rscale>  0 0.90306290E+02</rscale>
<asrwt>0</asrwt>
<pdfrwt beam="1">  1        2 0.94483532E-01 0.90306290E+02</pdfrwt>
<pdfrwt beam="2">  1       -2 0.51073213E-03 0.90306290E+02</pdfrwt>
<totfact> 0.23522145E+05</totfact>
</mgrwt>
</event>
<event>
 5    1  0.3858846E+001  0.9768102E+02  0.7546771E-02  0.1285249E+00
         -1   -1    0    0    0  501 -0.00000000000E+00  0.00000000000E+00  0.67893617744E+01  0.67893617744E+01  0.00000000000E+00 0.  1.
          1   -1    0    0  501    0  0.00000000000E+00 -0.00000000000E+00 -0.35134308111E+03  0.35134308111E+03  0.00000000000E+00 0. -1.
         23    2    1    2    0    0  0.00000000000E+00  0.00000000000E+00 -0.34455371934E+03  0.35813244289E+03  0.97681017288E+02 0.  0.
          2    1    3    3  502    0  0.65992745721E+01  0.38373726188E+02 -0.28037515123E+03  0.28306592644E+03  0.00000000000E+00 0. -1.
         -2    1    3    3    0  502 -0.65992745721E+01 -0.38373726188E+02 -0.64178568108E+02  0.75066516443E+02  0.00000000000E+00 0.  1.
<mgrwt>
<rscale>  0 0.97681017E+02</rscale>
<asrwt>0</asrwt>
<pdfrwt beam="2">  1        1 0.54052787E-01 0.97681017E+02</pdfrwt>
<pdfrwt beam="1">  1       -1 0.10445171E-02 0.97681017E+02</pdfrwt>
<totfact> 0.10975598E+05</totfact>
</mgrwt>
</event>
<event>
 5    1  0.3858846E+001  0.8350618E+02  0.7546771E-02  0.1319386E+00
          1   -1    0    0  501    0  0.00000000000E+00  0.00000000000E+00  0.21334005332E+01  0.21334005332E+01  0.00000000000E+00 0. -1.
         -1   -1    0    0    0  501 -0.00000000000E+00 -0.00000000000E+00 -0.81715584279E+03  0.81715584279E+03  0.00000000000E+00 0.  1.
         23    2    1    2    0    0  0.00000000000E+00  0.00000000000E+00 -0.81502244226E+03  0.81928924333E+03  0.83506184459E+02 0.  0.
          2    1    3    3  502    0  0.10784072805E+02 -0.35333074059E+02 -0.59841212198E+03  0.59955132397E+03  0.00000000000E+00 0.  1.
         -2    1    3    3    0  502 -0.10784072805E+02  0.35333074059E+02 -0.21661032028E+03  0.21973791936E+03  0.00000000000E+00 0. -1.
<mgrwt>
<rscale>  0 0.83506184E+02</rscale>
<asrwt>0</asrwt>
<pdfrwt beam="1">  1        1 0.32821529E-03 0.83506184E+02</pdfrwt>
<pdfrwt beam="2">  1       -1 0.12571635E+00 0.83506184E+02</pdfrwt>
<totfact> 0.40256738E+04</totfact>
</mgrwt>
</event>
<event>
 5    1  0.3858846E+001  0.9024980E+02  0.7546771E-02  0.1302248E+00
          2   -1    0    0  501    0  0.00000000000E+00  0.00000000000E+00  0.21517321380E+02  0.21517321380E+02  0.00000000000E+00 0. -1.
         -2   -1    0    0    0  501 -0.00000000000E+00 -0.00000000000E+00 -0.94633372825E+02  0.94633372825E+02  0.00000000000E+00 0.  1.
         23    2    1    2    0    0  0.00000000000E+00  0.00000000000E+00 -0.73116051445E+02  0.11615069420E+03  0.90249802135E+02 0.  0.
          2    1    3    3  502    0 -0.21431510241E+02 -0.32040958956E+02 -0.63665192548E+01  0.39070004472E+02  0.00000000000E+00 0. -1.
         -2    1    3    3    0  502  0.21431510241E+02  0.32040958956E+02 -0.66749532190E+02  0.77080689732E+02  0.00000000000E+00 0.  1.
<mgrwt>
<rscale>  0 0.90249802E+02</rscale>
<asrwt>0</asrwt>
<pdfrwt beam="1">  1        2 0.33103571E-02 0.90249802E+02</pdfrwt>
<pdfrwt beam="2">  1       -2 0.14558980E-01 0.90249802E+02</pdfrwt>
<totfact> 0.83198298E+04</totfact>
</mgrwt>
</event>
<event>
 5    1  0.3858846E+001  0.9080180E+02  0.7546771E-02  0.1300922E+00
         -1   -1    0    0    0  501 -0.00000000000E+00  0.00000000000E+00  0.94887359149E+01  0.94887359149E+01  0.00000000000E+00 0.  1.
          1   -1    0    0  501    0  0.00000000000E+00 -0.00000000000E+00 -0.21723037047E+03  0.21723037047E+03  0.00000000000E+00 0. -1.
         23    2    1    2    0    0  0.00000000000E+00  0.00000000000E+00 -0.20774163455E+03  0.22671910638E+03  0.90801797737E+02 0.  0.
          2    1    3    3  502    0  0.20438058313E+02  0.39940861998E+02 -0.86526207471E+02  0.97466770051E+02  0.00000000000E+00 0. -1.
         -2    1    3    3    0  502 -0.20438058313E+02 -0.39940861998E+02 -0.12121542708E+03  0.12925233633E+03  0.00000000000E+00 0.  1.
<mgrwt>
<rscale>  0 0.90801798E+02</rscale>
<asrwt>0</asrwt>
<pdfrwt beam="2">  1        1 0.33420055E-01 0.90801798E+02</pdfrwt>
<pdfrwt beam="1">  1       -1 0.14598056E-02 0.90801798E+02</pdfrwt>
<totfact> 0.12166043E+05</totfact>
</mgrwt>
</event>
<event>
 5    1  0.3858846E+001  0.9183693E+02  0.7546771E-02  0.1298463E+00
          1   -1    0    0  501    0  0.00000000000E+00  0.00000000000E+00  0.61007753598E+03  0.61007753598E+03  0.00000000000E+00 0. -1.
         -1   -1    0    0    0  501 -0.00000000000E+00 -0.00000000000E+00 -0.34561266391E+01  0.34561266391E+01  0.00000000000E+00 0.  1.
         23    2    1    2    0    0  0.00000000000E+00  0.00000000000E+00  0.60662140934E+03  0.61353366262E+03  0.91836925559E+02 0.  0.
          2    1    3    3  502    0  0.36509724508E+01  0.40748980753E+02  0.44259879285E+03  0.44448565833E+03  0.00000000000E+00 0. -1.
         -2    1    3    3    0  502 -0.36509724508E+01 -0.40748980753E+02  0.16402261649E+03  0.16904800428E+03  0.00000000000E+00 0.  1.
<mgrwt>
<rscale>  0 0.91836926E+02</rscale>
<asrwt>0</asrwt>
<pdfrwt beam="1">  1        1 0.93857997E-01 0.91836926E+02</pdfrwt>
<pdfrwt beam="2">  1       -1 0.53171227E-03 0.91836926E+02</pdfrwt>
<totfact> 0.13903911E+05</totfact>
</mgrwt>
</event>
<event>
 5    1  0.3858846E+001  0.9120655E+02  0.7546771E-02  0.1299956E+00
         -2   -1    0    0    0  501 -0.00000000000E+00  0.00000000000E+00  0.37457711904E+01  0.37457711904E+01  0.00000000000E+00 0.  1.
          2   -1    0    0  501    0  0.00000000000E+00 -0.00000000000E+00 -0.55520169869E+03  0.55520169869E+03  0.00000000000E+00 0. -1.
         23    2    1    2    0    0  0.00000000000E+00  0.00000000000E+00 -0.55145592750E+03  0.55894746988E+03  0.91206546428E+02 0.  0.
          2    1    3    3  502    0  0.16066555498E+02 -0.32479250132E+02 -0.44540997441E+03  0.44688150689E+03  0.00000000000E+00 0. -1.
         -2    1    3    3    0  502 -0.16066555498E+02  0.32479250132E+02 -0.10604595309E+03  0.11206596299E+03  0.00000000000E+00 0.  1.
<mgrwt>
<rscale>  0 0.91206546E+02</rscale>
<asrwt>0</asrwt>
<pdfrwt beam="2">  1        2 0.85415684E-01 0.91206546E+02</pdfrwt>
<pdfrwt beam="1">  1       -2 0.57627223E-03 0.91206546E+02</pdfrwt>
<totfact> 0.22252182E+05</totfact>
</mgrwt>
</event>
<event>
 5    1  0.3858846E+001  0.9064180E+02  0.7546771E-02  0.1301305E+00
         -2   -1    0    0    0  501 -0.00000000000E+00  0.00000000000E+00  0.28293560168E+02  0.28293560168E+02  0.00000000000E+00 0.  1.
          2   -1    0    0  501    0  0.00000000000E+00 -0.00000000000E+00 -0.72595461033E+02  0.72595461033E+02  0.00000000000E+00 0. -1.
         23    2    1    2    0    0  0.00000000000E+00  0.00000000000E+00 -0.44301900865E+02  0.10088902120E+03  0.90641801497E+02 0.  0.
          2    1    3    3  502    0 -0.36201122239E+01  0.45004991712E+02 -0.17778830628E+02  0.48524646419E+02  0.00000000000E+00 0. -1.
         -2    1    3    3    0  502  0.36201122239E+01 -0.45004991712E+02 -0.26523070237E+02  0.52364374782E+02  0.00000000000E+00 0.  1.
<mgrwt>
<rscale>  0 0.90641801E+02</rscale>
<asrwt>0</asrwt>
<pdfrwt beam="2">  1        2 0.11168532E-01 0.90641801E+02</pdfrwt>
<pdfrwt beam="1">  1       -2 0.43528554E-02 0.90641801E+02</pdfrwt>
<totfact> 0.11359568E+05</totfact>
</mgrwt>
</event>
<event>
 5    1  0.3858846E+001  0.8147974E+02  0.7546771E-02  0.1324904E+00
          1   -1    0    0  501    0  0.00000000000E+00  0.00000000000E+00  0.47024934160E+02  0.47024934160E+02  0.00000000000E+00 0. -1.
         -1   -1    0    0    0  501 -0.00000000000E+00 -0.00000000000E+00 -0.35294832087E+02  0.35294832087E+02  0.00000000000E+00 0.  1.
         23    2    1    2    0    0  0.00000000000E+00  0.00000000000E+00  0.11730102072E+02  0.82319766247E+02  0.81479743619E+02 0.  0.
          2    1    3    3  502    0  0.29931813827E+02 -0.15424906385E+02  0.29033895997E+02  0.44461312764E+02  0.00000000000E+00 0. -1.
         -2    1    3    3    0  502 -0.29931813827E+02  0.15424906385E+02 -0.17303793925E+02  0.37858453483E+02  0.00000000000E+00 0.  1.
<mgrwt>
<rscale>  0 0.81479744E+02</rscale>
<asrwt>0</asrwt>
<pdfrwt beam="1">  1        1 0.72346053E-02 0.81479744E+02</pdfrwt>
<pdfrwt beam="2">  1       -1 0.54299742E-02 0.81479744E+02</pdfrwt>
<totfact> 0.12693896E+05</totfact>
</mgrwt>
</event>
<event>
 5    1  0.3858846E+001  0.9093823E+02  0.7546771E-02  0.1300595E+00
         -2   -1    0    0    0  501 -0.00000000000E+00  0.00000000000E+00  0.23722813882E+02  0.23722813882E+02  0.00000000000E+00 0.  1.
          2   -1    0    0  501    0  0.00000000000E+00 -0.00000000000E+00 -0.87149873862E+02  0.87149873862E+02  0.00000000000E+00 0. -1.
         23    2    1    2    0    0  0.00000000000E+00  0.00000000000E+00 -0.63427059981E+02  0.11087268774E+03  0.90938226010E+02 0.  0.
          2    1    3    3  502    0 -0.30973412096E+02 -0.23207318785E+02 -0.60809185109E+02  0.72081127181E+02  0.00000000000E+00 0. -1.
         -2    1    3    3    0  502  0.30973412096E+02  0.23207318785E+02 -0.26178748712E+01  0.38791560563E+02  0.00000000000E+00 0.  1.
<mgrwt>
<rscale>  0 0.90938226E+02</rscale>
<asrwt>0</asrwt>
<pdfrwt beam="2">  1        2 0.13407673E-01 0.90938226E+02</pdfrwt>
<pdfrwt beam="1">  1       -2 0.36496637E-02 0.90938226E+02</pdfrwt>
<totfact> 0.11859497E+05</totfact>
</mgrwt>
</event>
<event>
 5    1  0.3858846E+001  0.9314665E+02  0.7546771E-02  0.1295406E+00
         -1   -1    0    0    0  501 -0.00000000000E+00  0.00000000000E+00  0.67870786443E+01  0.67870786443E+01  0.00000000000E+00 0.  1.
          1   -1    0    0  501    0  0.00000000000E+00 -0.00000000000E+00 -0.31958881903E+03  0.31958881903E+03  0.00000000000E+00 0. -1.
         23    2    1    2    0    0  0.00000000000E+00  0.00000000000E+00 -0.31280174039E+03  0.32637589767E+03  0.93146646716E+02 0.  0.
          2    1    3    3  502    0 -0.13949484804E+02 -0.39805602097E+02 -0.22559724790E+03  0.22950641025E+03  0.00000000000E+00 0. -1.
         -2    1    3    3    0  502  0.13949484804E+02  0.39805602097E+02 -0.87204492482E+02  0.96869487423E+02  0.00000000000E+00 0.  1.
<mgrwt>
<rscale>  0 0.93146647E+02</rscale>
<asrwt>0</asrwt>
<pdfrwt beam="2">  1        1 0.49167496E-01 0.93146647E+02</pdfrwt>
<pdfrwt beam="1">  1       -1 0.10441663E-02 0.93146647E+02</pdfrwt>
<totfact> 0.12247624E+05</totfact>
</mgrwt>
</event>
<event>
 5    1  0.3858846E+001  0.9228107E+02  0.7546771E-02  0.1297420E+00
         -2   -1    0    0    0  501 -0.00000000000E+00  0.00000000000E+00  0.11054816862E+01  0.11054816862E+01  0.00000000000E+00 0.  1.
          2   -1    0    0  501    0  0.00000000000E+00 -0.00000000000E+00 -0.19258110631E+04  0.19258110631E+04  0.00000000000E+00 0. -1.
         23    2    1    2    0    0  0.00000000000E+00  0.00000000000E+00 -0.19247055814E+04  0.19269165448E+04  0.92281067643E+02 0.  0.
          2    1    3    3  502    0  0.18439418072E+02  0.39374564067E+02 -0.63982458463E+03  0.64130013842E+03  0.00000000000E+00 0.  1.
         -2    1    3    3    0  502 -0.18439418072E+02 -0.39374564067E+02 -0.12848809968E+04  0.12856164064E+04  0.00000000000E+00 0. -1.
<mgrwt>
<rscale>  0 0.92281068E+02</rscale>
<asrwt>0</asrwt>
<pdfrwt beam="2">  1        2 0.29627613E+00 0.92281068E+02</pdfrwt>
<pdfrwt beam="1">  1       -2 0.17007554E-03 0.92281068E+02</pdfrwt>
<totfact> 0.19714667E+05</totfact>
</mgrwt>
</event>
<event>
 5    1  0.3858846E+001  0.9044880E+02  0.7546771E-02  0.1301768E+00
         -1   -1    0    0    0  501 -0.00000000000E+00  0.00000000000E+00  0.30001196538E+02  0.30001196538E+02  0.00000000000E+00 0.  1.
          1   -1    0    0  501    0  0.00000000000E+00 -0.00000000000E+00 -0.68172163064E+02  0.68172163064E+02  0.00000000000E+00 0. -1.
         23    2    1    2    0    0  0.00000000000E+00  0.00000000000E+00 -0.38170966526E+02  0.98173359602E+02  0.90448802369E+02 0.  0.
          2    1    3    3  502    0  0.17351324081E+01 -0.32926177170E+02 -0.52682200936E+02  0.62149482081E+02  0.00000000000E+00 0. -1.
         -2    1    3    3    0  502 -0.17351324081E+01  0.32926177170E+02  0.14511234410E+02  0.36023877521E+02  0.00000000000E+00 0.  1.
<mgrwt>
<rscale>  0 0.90448802E+02</rscale>
<asrwt>0</asrwt>
<pdfrwt beam="2">  1        1 0.10488025E-01 0.90448802E+02</pdfrwt>
<pdfrwt beam="1">  1       -1 0.46155687E-02 0.90448802E+02</pdfrwt>
<totfact> 0.10046196E+05</totfact>
</mgrwt>
</event>
<event>
 5    1  0.3858846E+001  0.9683949E+02  0.7546771E-02  0.1287086E+00
          2   -1    0    0  501    0  0.00000000000E+00  0.00000000000E+00  0.10352139337E+04  0.10352139337E+04  0.00000000000E+00 0. -1.
         -2   -1    0    0    0  501 -0.00000000000E+00 -0.00000000000E+00 -0.22647217886E+01  0.22647217886E+01  0.00000000000E+00 0.  1.
         23    2    1    2    0    0  0.00000000000E+00  0.00000000000E+00  0.10329492120E+04  0.10374786555E+04  0.96839486814E+02 0.  0.
          2    1    3    3  502    0 -0.10598040682E+02 -0.25294677761E+02  0.94398192281E+03  0.94438022521E+03  0.00000000000E+00 0. -1.
         -2    1    3    3    0  502  0.10598040682E+02  0.25294677761E+02  0.88967289152E+02  0.93098430322E+02  0.00000000000E+00 0.  1.
<mgrwt>
<rscale>  0 0.96839487E+02</rscale>
<asrwt>0</asrwt>
<pdfrwt beam="1">  1        2 0.15926330E+00 0.96839487E+02</pdfrwt>
<pdfrwt beam="2">  1       -2 0.34841956E-03 0.96839487E+02</pdfrwt>
<totfact> 0.21346440E+05</totfact>
</mgrwt>
</event>
<event>
 5    1  0.3858846E+001  0.9116276E+02  0.7546771E-02  0.1300060E+00
          1   -1    0    0  501    0  0.00000000000E+00  0.00000000000E+00  0.14055076363E+03  0.14055076363E+03  0.00000000000E+00 0. -1.
         -1   -1    0    0    0  501 -0.00000000000E+00 -0.00000000000E+00 -0.14782290231E+02  0.14782290231E+02  0.00000000000E+00 0.  1.
         23    2    1    2    0    0  0.00000000000E+00  0.00000000000E+00  0.12576847340E+03  0.15533305386E+03  0.91162759508E+02 0.  0.
          2    1    3    3  502    0 -0.11884599451E+01  0.37455737735E+02  0.10709788517E+03  0.11346498021E+03  0.00000000000E+00 0. -1.
         -2    1    3    3    0  502  0.11884599451E+01 -0.37455737735E+02  0.18670588226E+02  0.41868073649E+02  0.00000000000E+00 0.  1.
<mgrwt>
<rscale>  0 0.91162760E+02</rscale>
<asrwt>0</asrwt>
<pdfrwt beam="1">  1        1 0.21623194E-01 0.91162760E+02</pdfrwt>
<pdfrwt beam="2">  1       -1 0.22741986E-02 0.91162760E+02</pdfrwt>
<totfact> 0.11085508E+05</totfact>
</mgrwt>
</event>
<event>
 5    1  0.3858846E+001  0.9004297E+02  0.7546771E-02  0.1302748E+00
          2   -1    0    0  501    0  0.00000000000E+00  0.00000000000E+00  0.24692412623E+04  0.24692412623E+04  0.00000000000E+00 0.  1.
         -2   -1    0    0    0  501 -0.00000000000E+00 -0.00000000000E+00 -0.82087327103E+00  0.82087327103E+00  0.00000000000E+00 0. -1.
         23    2    1    2    0    0  0.00000000000E+00  0.00000000000E+00  0.24684203890E+04  0.24700621356E+04  0.90042970896E+02 0.  0.
          2    1    3    3  502    0  0.43421934660E+02 -0.11470756087E+02  0.11479343784E+04  0.11488125956E+04  0.00000000000E+00 0. -1.
         -2    1    3    3    0  502 -0.43421934660E+02  0.11470756087E+02  0.13204860106E+04  0.13212495400E+04  0.00000000000E+00 0.  1.
<mgrwt>
<rscale>  0 0.90042971E+02</rscale>
<asrwt>0</asrwt>
<pdfrwt beam="1">  1        2 0.37987732E+00 0.90042971E+02</pdfrwt>
<pdfrwt beam="2">  1       -2 0.12629017E-03 0.90042971E+02</pdfrwt>
<totfact> 0.15667940E+05</totfact>
</mgrwt>
</event>
<event>
 5    1  0.3858846E+001  0.9343623E+02  0.7546771E-02  0.1294737E+00
          2   -1    0    0  501    0  0.00000000000E+00  0.00000000000E+00  0.34265297186E+04  0.34265297186E+04  0.00000000000E+00 0. -1.
         -2   -1    0    0    0  501 -0.00000000000E+00 -0.00000000000E+00 -0.63696581613E+00  0.63696581613E+00  0.00000000000E+00 0.  1.
         23    2    1    2    0    0  0.00000000000E+00  0.00000000000E+00  0.34258927527E+04  0.34271666844E+04  0.93436230632E+02 0.  0.
          2    1    3    3  502    0 -0.35563744794E+02  0.16636991116E+02  0.78429374024E+03  0.78527590081E+03  0.00000000000E+00 0.  1.
         -2    1    3    3    0  502  0.35563744794E+02 -0.16636991116E+02  0.26415990125E+04  0.26418907836E+04  0.00000000000E+00 0. -1.
<mgrwt>
<rscale>  0 0.93436231E+02</rscale>
<asrwt>0</asrwt>
<pdfrwt beam="1">  1        2 0.52714366E+00 0.93436231E+02</pdfrwt>
<pdfrwt beam="2">  1       -2 0.97997485E-04 0.93436231E+02</pdfrwt>
<totfact> 0.63809279E+04</totfact>
</mgrwt>
</event>
<event>
 5    1  0.3858846E+001  0.9457113E+02  0.7546771E-02  0.1292145E+00
          3   -1    0    0  501    0  0.00000000000E+00  0.00000000000E+00  0.64587328251E+00  0.64587328251E+00  0.00000000000E+00 0. -1.
         -3   -1    0    0    0  501 -0.00000000000E+00 -0.00000000000E+00 -0.34618627786E+04  0.34618627786E+04  0.00000000000E+00 0.  1.
         23    2    1    2    0    0  0.00000000000E+00  0.00000000000E+00 -0.34612169053E+04  0.34625086519E+04  0.94571130402E+02 0.  0.
          2    1    3    3  502    0 -0.22025776746E+01 -0.40399922228E+02 -0.83459082377E+03  0.83557097136E+03  0.00000000000E+00 0. -1.
         -2    1    3    3    0  502  0.22025776746E+01  0.40399922228E+02 -0.26266260815E+04  0.26269376805E+04  0.00000000000E+00 0.  1.
<mgrwt>
<rscale>  0 0.94571130E+02</rscale>
<asrwt>0</asrwt>
<pdfrwt beam="1">  1        3 0.99365598E-04 0.94571130E+02</pdfrwt>
<pdfrwt beam="2">  1       -3 0.53259171E+00 0.94571130E+02</pdfrwt>
<totfact> 0.50438030E+02</totfact>
</mgrwt>
</event>
<event>
 5    1  0.3858846E+001  0.8963880E+02  0.7546771E-02  0.1303729E+00
         -2   -1    0    0    0  501 -0.00000000000E+00  0.00000000000E+00  0.10210155325E+01  0.10210155325E+01  0.00000000000E+00 0.  1.
          2   -1    0    0  501    0  0.00000000000E+00 -0.00000000000E+00 -0.19674319305E+04  0.19674319305E+04  0.00000000000E+00 0. -1.
         23    2    1    2    0    0  0.00000000000E+00  0.00000000000E+00 -0.19664109150E+04  0.19684529460E+04  0.89638798748E+02 0.  0.
          2    1    3    3  502    0  0.40812051569E+02  0.15694033149E+02 -0.76709088724E+03  0.76833609541E+03  0.00000000000E+00 0.  1.
         -2    1    3    3    0  502 -0.40812051569E+02 -0.15694033149E+02 -0.11993200277E+04  0.12001168506E+04  0.00000000000E+00 0. -1.
<mgrwt>
<rscale>  0 0.89638799E+02</rscale>
<asrwt>0</asrwt>
<pdfrwt beam="2">  1        2 0.30268101E+00 0.89638799E+02</pdfrwt>
<pdfrwt beam="1">  1       -2 0.15707974E-03 0.89638799E+02</pdfrwt>
<totfact> 0.20896253E+05</totfact>
</mgrwt>
</event>
<event>
 5    1  0.3858846E+001  0.8604917E+02  0.7546771E-02  0.1312711E+00
          2   -1    0    0  501    0  0.00000000000E+00  0.00000000000E+00  0.69679661956E+03  0.69679661956E+03  0.00000000000E+00 0. -1.
         -2   -1    0    0    0  501 -0.00000000000E+00 -0.00000000000E+00 -0.26566069750E+01  0.26566069750E+01  0.00000000000E+00 0.  1.
         23    2    1    2    0    0  0.00000000000E+00  0.00000000000E+00  0.69414001259E+03  0.69945322654E+03  0.86049166404E+02 0.  0.
          2    1    3    3  502    0 -0.30569384561E+02 -0.18524555525E+02  0.54172552894E+03  0.54290348602E+03  0.00000000000E+00 0. -1.
         -2    1    3    3    0  502  0.30569384561E+02  0.18524555525E+02  0.15241448365E+03  0.15654974052E+03  0.00000000000E+00 0.  1.
<mgrwt>
<rscale>  0 0.86049166E+02</rscale>
<asrwt>0</asrwt>
<pdfrwt beam="1">  1        2 0.10719933E+00 0.86049166E+02</pdfrwt>
<pdfrwt beam="2">  1       -2 0.40870932E-03 0.86049166E+02</pdfrwt>
<totfact> 0.27583263E+05</totfact>
</mgrwt>
</event>
<event>
 5    1  0.3858846E+001  0.9768042E+02  0.7546771E-02  0.1285251E+00
          3   -1    0    0  501    0  0.00000000000E+00  0.00000000000E+00  0.34146100889E+03  0.34146100889E+03  0.00000000000E+00 0. -1.
         -3   -1    0    0    0  501 -0.00000000000E+00 -0.00000000000E+00 -0.69857646675E+01  0.69857646675E+01  0.00000000000E+00 0.  1.
         23    2    1    2    0    0  0.00000000000E+00  0.00000000000E+00  0.33447524422E+03  0.34844677356E+03  0.97680422834E+02 0.  0.
          2    1    3    3  502    0 -0.40600862893E+02  0.15551242088E+02  0.24661069793E+03  0.25041387248E+03  0.00000000000E+00 0. -1.
         -2    1    3    3    0  502  0.40600862893E+02 -0.15551242088E+02  0.87864546295E+02  0.98032901078E+02  0.00000000000E+00 0.  1.
<mgrwt>
<rscale>  0 0.97680423E+02</rscale>
<asrwt>0</asrwt>
<pdfrwt beam="1">  1        3 0.52532450E-01 0.97680423E+02</pdfrwt>
<pdfrwt beam="2">  1       -3 0.10747333E-02 0.97680423E+02</pdfrwt>
<totfact> 0.18499461E+04</totfact>
</mgrwt>
</event>
<event>
 5    1  0.3858846E+001  0.9299696E+02  0.7546771E-02  0.1295752E+00
          1   -1    0    0  501    0  0.00000000000E+00  0.00000000000E+00  0.67606059336E+03  0.67606059336E+03  0.00000000000E+00 0.  1.
         -1   -1    0    0    0  501 -0.00000000000E+00 -0.00000000000E+00 -0.31980986508E+01  0.31980986508E+01  0.00000000000E+00 0. -1.
         23    2    1    2    0    0  0.00000000000E+00  0.00000000000E+00  0.67286249471E+03  0.67925869201E+03  0.92996956326E+02 0.  0.
          2    1    3    3  502    0 -0.41634962893E+02 -0.17260227627E+02  0.41994197563E+03  0.42235370069E+03  0.00000000000E+00 0.  1.
         -2    1    3    3    0  502  0.41634962893E+02  0.17260227627E+02  0.25292051908E+03  0.25690499132E+03  0.00000000000E+00 0. -1.
<mgrwt>
<rscale>  0 0.92996956E+02</rscale>
<asrwt>0</asrwt>
<pdfrwt beam="1">  1        1 0.10400921E+00 0.92996956E+02</pdfrwt>
<pdfrwt beam="2">  1       -1 0.49201572E-03 0.92996956E+02</pdfrwt>
<totfact> 0.13492672E+05</totfact>
</mgrwt>
</event>
<event>
 5    1  0.3858846E+001  0.8961562E+02  0.7546771E-02  0.1303785E+00
         -1   -1    0    0    0  501 -0.00000000000E+00  0.00000000000E+00  0.94035952600E+02  0.94035952600E+02  0.00000000000E+00 0.  1.
          1   -1    0    0  501    0  0.00000000000E+00 -0.00000000000E+00 -0.21350770227E+02  0.21350770227E+02  0.00000000000E+00 0. -1.
         23    2    1    2    0    0  0.00000000000E+00  0.00000000000E+00  0.72685182373E+02  0.11538672283E+03  0.89615624017E+02 0.  0.
          2    1    3    3  502    0  0.18038500947E+01 -0.31861755451E+02 -0.41559456184E+01  0.32182250070E+02  0.00000000000E+00 0. -1.
         -2    1    3    3    0  502 -0.18038500947E+01  0.31861755451E+02  0.76841127991E+02  0.83204472756E+02  0.00000000000E+00 0.  1.
<mgrwt>
<rscale>  0 0.89615624E+02</rscale>
<asrwt>0</asrwt>
<pdfrwt beam="2">  1        1 0.32847339E-02 0.89615624E+02</pdfrwt>
<pdfrwt beam="1">  1       -1 0.14467069E-01 0.89615624E+02</pdfrwt>
<totfact> 0.86025818E+04</totfact>
</mgrwt>
</event>
<event>
 5    1  0.3858846E+001  0.8968418E+02  0.7546771E-02  0.1303618E+00
          2   -1    0    0  501    0  0.00000000000E+00  0.00000000000E+00  0.62449985463E+03  0.62449985463E+03  0.00000000000E+00 0. -1.
         -2   -1    0    0    0  501 -0.00000000000E+00 -0.00000000000E+00 -0.32198777545E+01  0.32198777545E+01  0.00000000000E+00 0.  1.
         23    2    1    2    0    0  0.00000000000E+00  0.00000000000E+00  0.62127997687E+03  0.62771973238E+03  0.89684183436E+02 0.  0.
          2    1    3    3  502    0  0.86248584787E+01  0.30376741250E+02  0.53348353467E+03  0.53441726802E+03  0.00000000000E+00 0. -1.
         -2    1    3    3    0  502 -0.86248584787E+01 -0.30376741250E+02  0.87796442204E+02  0.93302464364E+02  0.00000000000E+00 0.  1.
<mgrwt>
<rscale>  0 0.89684183E+02</rscale>
<asrwt>0</asrwt>
<pdfrwt beam="1">  1        2 0.96076805E-01 0.89684183E+02</pdfrwt>
<pdfrwt beam="2">  1       -2 0.49536630E-03 0.89684183E+02</pdfrwt>
<totfact> 0.24064666E+05</totfact>
</mgrwt>
</event>
<event>
 5    1  0.3858846E+001  0.6700408E+02  0.7546771E-02  0.1370588E+00
         -1   -1    0    0    0  501 -0.00000000000E+00  0.00000000000E+00  0.63276265139E+02  0.63276265139E+02  0.00000000000E+00 0.  1.
          1   -1    0    0  501    0  0.00000000000E+00 -0.00000000000E+00 -0.17737876197E+02  0.17737876197E+02  0.00000000000E+00 0. -1.
         23    2    1    2    0    0  0.00000000000E+00  0.00000000000E+00  0.45538388942E+02  0.81014141337E+02  0.67004076213E+02 0.  0.
          2    1    3    3  502    0  0.22721343682E+02  0.23472569381E+02  0.13788834939E+02  0.35459172876E+02  0.00000000000E+00 0. -1.
         -2    1    3    3    0  502 -0.22721343682E+02 -0.23472569381E+02  0.31749554003E+02  0.45554968461E+02  0.00000000000E+00 0.  1.
<mgrwt>
<rscale>  0 0.67004076E+02</rscale>
<asrwt>0</asrwt>
<pdfrwt beam="2">  1        1 0.27289041E-02 0.67004076E+02</pdfrwt>
<pdfrwt beam="1">  1       -1 0.97348099E-02 0.67004076E+02</pdfrwt>
<totfact> 0.19171199E+05</totfact>
</mgrwt>
</event>
<event>
 5    1  0.3858846E+001  0.9124322E+02  0.7546771E-02  0.1299869E+00
         -1   -1    0    0    0  501 -0.00000000000E+00  0.00000000000E+00  0.34623128891E+01  0.34623128891E+01  0.00000000000E+00 0.  1.
          1   -1    0    0  501    0  0.00000000000E+00 -0.00000000000E+00 -0.60113906161E+03  0.60113906161E+03  0.00000000000E+00 0. -1.
         23    2    1    2    0    0  0.00000000000E+00  0.00000000000E+00 -0.59767674872E+03  0.60460137450E+03  0.91243224869E+02 0.  0.
          2    1    3    3  502    0  0.24548003434E+02 -0.36807370671E+02 -0.37260877741E+03  0.37522618247E+03  0.00000000000E+00 0. -1.
         -2    1    3    3    0  502 -0.24548003434E+02  0.36807370671E+02 -0.22506797131E+03  0.22937519203E+03  0.00000000000E+00 0.  1.
<mgrwt>
<rscale>  0 0.91243225E+02</rscale>
<asrwt>0</asrwt>
<pdfrwt beam="2">  1        1 0.92482911E-01 0.91243225E+02</pdfrwt>
<pdfrwt beam="1">  1       -1 0.53266365E-03 0.91243225E+02</pdfrwt>
<totfact> 0.14133063E+05</totfact>
</mgrwt>
</event>
<event>
 5    1  0.3858846E+001  0.9560536E+02  0.7546771E-02  0.1289818E+00
          2   -1    0    0  501    0  0.00000000000E+00  0.00000000000E+00  0.16695022300E+04  0.16695022300E+04  0.00000000000E+00 0. -1.
         -2   -1    0    0    0  501 -0.00000000000E+00 -0.00000000000E+00 -0.13687291762E+01  0.13687291762E+01  0.00000000000E+00 0.  1.
         23    2    1    2    0    0  0.00000000000E+00  0.00000000000E+00  0.16681335008E+04  0.16708709592E+04  0.95605364115E+02 0.  0.
          2    1    3    3  502    0  0.20663147977E+02  0.24535035201E+02  0.21464905125E+03  0.21703259856E+03  0.00000000000E+00 0.  1.
         -2    1    3    3    0  502 -0.20663147977E+02 -0.24535035201E+02  0.14534844496E+04  0.14538383606E+04  0.00000000000E+00 0. -1.
<mgrwt>
<rscale>  0 0.95605364E+02</rscale>
<asrwt>0</asrwt>
<pdfrwt beam="1">  1        2 0.25684487E+00 0.95605364E+02</pdfrwt>
<pdfrwt beam="2">  1       -2 0.21057505E-03 0.95605364E+02</pdfrwt>
<totfact> 0.19813142E+05</totfact>
</mgrwt>
</event>
<event>
 5    1  0.3858846E+001  0.8872039E+02  0.7546771E-02  0.1305980E+00
         -3   -1    0    0    0  501 -0.00000000000E+00  0.00000000000E+00  0.36390180146E+03  0.36390180146E+03  0.00000000000E+00 0.  1.
          3   -1    0    0  501    0  0.00000000000E+00 -0.00000000000E+00 -0.54075769091E+01  0.54075769091E+01  0.00000000000E+00 0. -1.
         23    2    1    2    0    0  0.00000000000E+00  0.00000000000E+00  0.35849422455E+03  0.36930937837E+03  0.88720391765E+02 0.  0.
          2    1    3    3  502    0  0.92746834904E+01  0.42924836780E+02  0.20533104508E+03  0.20997475905E+03  0.00000000000E+00 0. -1.
         -2    1    3    3    0  502 -0.92746834904E+01 -0.42924836780E+02  0.15316317947E+03  0.15933461932E+03  0.00000000000E+00 0.  1.
<mgrwt>
<rscale>  0 0.88720392E+02</rscale>
<asrwt>0</asrwt>
<pdfrwt beam="2">  1        3 0.83193520E-03 0.88720392E+02</pdfrwt>
<pdfrwt beam="1">  1       -3 0.55984873E-01 0.88720392E+02</pdfrwt>
<totfact> 0.23193965E+04</totfact>
</mgrwt>
</event>
<event>
 5    1  0.3858846E+001  0.8893727E+02  0.7546771E-02  0.1305446E+00
          1   -1    0    0  501    0  0.00000000000E+00  0.00000000000E+00  0.12857155088E+03  0.12857155088E+03  0.00000000000E+00 0. -1.
         -1   -1    0    0    0  501 -0.00000000000E+00 -0.00000000000E+00 -0.15380226899E+02  0.15380226899E+02  0.00000000000E+00 0.  1.
         23    2    1    2    0    0  0.00000000000E+00  0.00000000000E+00  0.11319132398E+03  0.14395177778E+03  0.88937272844E+02 0.  0.
          2    1    3    3  502    0 -0.41628758766E+01  0.26697101325E+02  0.11376131929E+03  0.11692605578E+03  0.00000000000E+00 0. -1.
         -2    1    3    3    0  502  0.41628758766E+01 -0.26697101325E+02 -0.56999530730E+00  0.27025721995E+02  0.00000000000E+00 0.  1.
<mgrwt>
<rscale>  0 0.88937273E+02</rscale>
<asrwt>0</asrwt>
<pdfrwt beam="1">  1        1 0.19780238E-01 0.88937273E+02</pdfrwt>
<pdfrwt beam="2">  1       -1 0.23661888E-02 0.88937273E+02</pdfrwt>
<totfact> 0.11663094E+05</totfact>
</mgrwt>
</event>
<event>
 5    1  0.3858846E+001  0.9210761E+02  0.7546771E-02  0.1297827E+00
          3   -1    0    0  501    0  0.00000000000E+00  0.00000000000E+00  0.18513380472E+01  0.18513380472E+01  0.00000000000E+00 0. -1.
         -3   -1    0    0    0  501 -0.00000000000E+00 -0.00000000000E+00 -0.11456323935E+04  0.11456323935E+04  0.00000000000E+00 0.  1.
         23    2    1    2    0    0  0.00000000000E+00  0.00000000000E+00 -0.11437810555E+04  0.11474837316E+04  0.92107607465E+02 0.  0.
          2    1    3    3  502    0  0.29373973841E+02  0.11292420285E+02 -0.15299449714E+03  0.15619751999E+03  0.00000000000E+00 0. -1.
         -2    1    3    3    0  502 -0.29373973841E+02 -0.11292420285E+02 -0.99078655836E+03  0.99128621161E+03  0.00000000000E+00 0.  1.
<mgrwt>
<rscale>  0 0.92107607E+02</rscale>
<asrwt>0</asrwt>
<pdfrwt beam="1">  1        3 0.28482009E-03 0.92107607E+02</pdfrwt>
<pdfrwt beam="2">  1       -3 0.17625185E+00 0.92107607E+02</pdfrwt>
<totfact> 0.83592341E+03</totfact>
</mgrwt>
</event>
<event>
 5    1  0.3858846E+001  0.1077190E+03  0.7546771E-02  0.1264853E+00
          1   -1    0    0  501    0  0.00000000000E+00  0.00000000000E+00  0.16647081254E+03  0.16647081254E+03  0.00000000000E+00 0. -1.
         -1   -1    0    0    0  501 -0.00000000000E+00 -0.00000000000E+00 -0.17425550153E+02  0.17425550153E+02  0.00000000000E+00 0.  1.
         23    2    1    2    0    0  0.00000000000E+00  0.00000000000E+00  0.14904526239E+03  0.18389636269E+03  0.10771899541E+03 0.  0.
          2    1    3    3  502    0 -0.51341273637E+01 -0.45826095330E+02  0.12203197143E+03  0.13045379384E+03  0.00000000000E+00 0. -1.
         -2    1    3    3    0  502  0.51341273637E+01  0.45826095330E+02  0.27013290957E+02  0.53442568851E+02  0.00000000000E+00 0.  1.
<mgrwt>
<rscale>  0 0.10771900E+03</rscale>
<asrwt>0</asrwt>
<pdfrwt beam="1">  1        1 0.25610893E-01 0.10771900E+03</pdfrwt>
<pdfrwt beam="2">  1       -1 0.26808540E-02 0.10771900E+03</pdfrwt>
<totfact> 0.72655730E+04</totfact>
</mgrwt>
</event>
<event>
 5    1  0.3858846E+001  0.9066502E+02  0.7546771E-02  0.1301249E+00
         -2   -1    0    0    0  501 -0.00000000000E+00  0.00000000000E+00  0.87800465506E+00  0.87800465506E+00  0.00000000000E+00 0.  1.
          2   -1    0    0  501    0  0.00000000000E+00 -0.00000000000E+00 -0.23405757781E+04  0.23405757781E+04  0.00000000000E+00 0. -1.
         23    2    1    2    0    0  0.00000000000E+00  0.00000000000E+00 -0.23396977734E+04  0.23414537827E+04  0.90665019245E+02 0.  0.
          2    1    3    3  502    0 -0.56658997663E+01 -0.43854100561E+02 -0.14277815605E+04  0.14284661246E+04  0.00000000000E+00 0. -1.
         -2    1    3    3    0  502  0.56658997663E+01  0.43854100561E+02 -0.91191621294E+03  0.91298765818E+03  0.00000000000E+00 0.  1.
<mgrwt>
<rscale>  0 0.90665019E+02</rscale>
<asrwt>0</asrwt>
<pdfrwt beam="2">  1        2 0.36008481E+00 0.90665019E+02</pdfrwt>
<pdfrwt beam="1">  1       -2 0.13507906E-03 0.90665019E+02</pdfrwt>
<totfact> 0.16664383E+05</totfact>
</mgrwt>
</event>
<event>
 5    1  0.3858846E+001  0.9186316E+02  0.7546771E-02  0.1298401E+00
          2   -1    0    0  501    0  0.00000000000E+00  0.00000000000E+00  0.36090196409E+03  0.36090196409E+03  0.00000000000E+00 0. -1.
         -2   -1    0    0    0  501 -0.00000000000E+00 -0.00000000000E+00 -0.58456598161E+01  0.58456598161E+01  0.00000000000E+00 0.  1.
         23    2    1    2    0    0  0.00000000000E+00  0.00000000000E+00  0.35505630427E+03  0.36674762391E+03  0.91863161475E+02 0.  0.
          2    1    3    3  502    0  0.42502734752E+02 -0.16915254584E+02  0.19403814780E+03  0.19935749572E+03  0.00000000000E+00 0.  1.
         -2    1    3    3    0  502 -0.42502734752E+02  0.16915254584E+02  0.16101815647E+03  0.16739012818E+03  0.00000000000E+00 0. -1.
<mgrwt>
<rscale>  0 0.91863161E+02</rscale>
<asrwt>0</asrwt>
<pdfrwt beam="1">  1        2 0.55523362E-01 0.91863161E+02</pdfrwt>
<pdfrwt beam="2">  1       -2 0.89933256E-03 0.91863161E+02</pdfrwt>
<totfact> 0.18853708E+05</totfact>
</mgrwt>
</event>
<event>
 5    1  0.3858846E+001  0.9112426E+02  0.7546771E-02  0.1300152E+00
         -3   -1    0    0    0  501 -0.00000000000E+00  0.00000000000E+00  0.45048175111E+01  0.45048175111E+01  0.00000000000E+00 0.  1.
          3   -1    0    0  501    0  0.00000000000E+00 -0.00000000000E+00 -0.46081950729E+03  0.46081950729E+03  0.00000000000E+00 0. -1.
         23    2    1    2    0    0  0.00000000000E+00  0.00000000000E+00 -0.45631468978E+03  0.46532432480E+03  0.91124262102E+02 0.  0.
          2    1    3    3  502    0 -0.43117908643E+02 -0.14653447020E+02 -0.23543337374E+03  0.23979731238E+03  0.00000000000E+00 0. -1.
         -2    1    3    3    0  502  0.43117908643E+02  0.14653447020E+02 -0.22088131604E+03  0.22552701242E+03  0.00000000000E+00 0.  1.
<mgrwt>
<rscale>  0 0.91124262E+02</rscale>
<asrwt>0</asrwt>
<pdfrwt beam="2">  1        3 0.70895308E-01 0.91124262E+02</pdfrwt>
<pdfrwt beam="1">  1       -3 0.69304886E-03 0.91124262E+02</pdfrwt>
<totfact> 0.18811721E+04</totfact>
</mgrwt>
</event>
<event>
 5    1  0.3858846E+001  0.9024240E+02  0.7546771E-02  0.1302266E+00
          2   -1    0    0  501    0  0.00000000000E+00  0.00000000000E+00  0.14909565261E+04  0.14909565261E+04  0.00000000000E+00 0.  1.
         -2   -1    0    0    0  501 -0.00000000000E+00 -0.00000000000E+00 -0.13655143047E+01  0.13655143047E+01  0.00000000000E+00 0. -1.
         23    2    1    2    0    0  0.00000000000E+00  0.00000000000E+00  0.14895910118E+04  0.14923220404E+04  0.90242395006E+02 0.  0.
          2    1    3    3  502    0  0.24758964500E+02  0.98438737110E+00  0.13683776396E+04  0.13686019655E+04  0.00000000000E+00 0.  1.
         -2    1    3    3    0  502 -0.24758964500E+02 -0.98438737110E+00  0.12121337213E+03  0.12372007486E+03  0.00000000000E+00 0. -1.
<mgrwt>
<rscale>  0 0.90242395E+02</rscale>
<asrwt>0</asrwt>
<pdfrwt beam="1">  1        2 0.22937662E+00 0.90242395E+02</pdfrwt>
<pdfrwt beam="2">  1       -2 0.21008032E-03 0.90242395E+02</pdfrwt>
<totfact> 0.24300515E+05</totfact>
</mgrwt>
</event>
<event>
 5    1  0.3858846E+001  0.9043702E+02  0.7546771E-02  0.1301797E+00
          2   -1    0    0  501    0  0.00000000000E+00  0.00000000000E+00  0.18035598202E+04  0.18035598202E+04  0.00000000000E+00 0. -1.
         -2   -1    0    0    0  501 -0.00000000000E+00 -0.00000000000E+00 -0.11337100273E+01  0.11337100273E+01  0.00000000000E+00 0.  1.
         23    2    1    2    0    0  0.00000000000E+00  0.00000000000E+00  0.18024261102E+04  0.18046935302E+04  0.90437024565E+02 0.  0.
          2    1    3    3  502    0  0.27284362199E+02 -0.35993482854E+02  0.85773704979E+03  0.85892538314E+03  0.00000000000E+00 0. -1.
         -2    1    3    3    0  502 -0.27284362199E+02  0.35993482854E+02  0.94468906040E+03  0.94576814710E+03  0.00000000000E+00 0.  1.
<mgrwt>
<rscale>  0 0.90437025E+02</rscale>
<asrwt>0</asrwt>
<pdfrwt beam="1">  1        2 0.27746845E+00 0.90437025E+02</pdfrwt>
<pdfrwt beam="2">  1       -2 0.17441837E-03 0.90437025E+02</pdfrwt>
<totfact> 0.21868903E+05</totfact>
</mgrwt>
</event>
<event>
 5    1  0.3858846E+001  0.8938465E+02  0.7546771E-02  0.1304349E+00
         -2   -1    0    0    0  501 -0.00000000000E+00  0.00000000000E+00  0.18188463679E+03  0.18188463679E+03  0.00000000000E+00 0.  1.
          2   -1    0    0  501    0  0.00000000000E+00 -0.00000000000E+00 -0.10981708032E+02  0.10981708032E+02  0.00000000000E+00 0. -1.
         23    2    1    2    0    0  0.00000000000E+00  0.00000000000E+00  0.17090292876E+03  0.19286634482E+03  0.89384651404E+02 0.  0.
          2    1    3    3  502    0  0.29051218161E+02 -0.31017820042E+02  0.55605887835E+02  0.69986378665E+02  0.00000000000E+00 0. -1.
         -2    1    3    3    0  502 -0.29051218161E+02  0.31017820042E+02  0.11529704093E+03  0.12287996616E+03  0.00000000000E+00 0.  1.
<mgrwt>
<rscale>  0 0.89384651E+02</rscale>
<asrwt>0</asrwt>
<pdfrwt beam="2">  1        2 0.16894937E-02 0.89384651E+02</pdfrwt>
<pdfrwt beam="1">  1       -2 0.27982250E-01 0.89384651E+02</pdfrwt>
<totfact> 0.68218143E+04</totfact>
</mgrwt>
</event>
<event>
 5    1  0.3858846E+001  0.9199797E+02  0.7546771E-02  0.1298084E+00
         -2   -1    0    0    0  501 -0.00000000000E+00  0.00000000000E+00  0.91738117087E+02  0.91738117087E+02  0.00000000000E+00 0.  1.
          2   -1    0    0  501    0  0.00000000000E+00 -0.00000000000E+00 -0.23064640787E+02  0.23064640787E+02  0.00000000000E+00 0. -1.
         23    2    1    2    0    0  0.00000000000E+00  0.00000000000E+00  0.68673476300E+02  0.11480275787E+03  0.91997972089E+02 0.  0.
          2    1    3    3  502    0  0.29239952210E+02  0.29800741595E+02  0.58432452617E+02  0.71815113476E+02  0.00000000000E+00 0. -1.
         -2    1    3    3    0  502 -0.29239952210E+02 -0.29800741595E+02  0.10241023683E+02  0.42987644398E+02  0.00000000000E+00 0.  1.
<mgrwt>
<rscale>  0 0.91997972E+02</rscale>
<asrwt>0</asrwt>
<pdfrwt beam="2">  1        2 0.35484063E-02 0.91997972E+02</pdfrwt>
<pdfrwt beam="1">  1       -2 0.14113556E-01 0.91997972E+02</pdfrwt>
<totfact> 0.80052982E+04</totfact>
</mgrwt>
</event>
<event>
 5    1  0.3858846E+001  0.9126232E+02  0.7546771E-02  0.1299823E+00
         -2   -1    0    0    0  501 -0.00000000000E+00  0.00000000000E+00  0.92939360316E+03  0.92939360316E+03  0.00000000000E+00 0.  1.
          2   -1    0    0  501    0  0.00000000000E+00 -0.00000000000E+00 -0.22403886280E+01  0.22403886280E+01  0.00000000000E+00 0. -1.
         23    2    1    2    0    0  0.00000000000E+00  0.00000000000E+00  0.92715321453E+03  0.93163399178E+03  0.91262322115E+02 0.  0.
          2    1    3    3  502    0  0.17342647476E+02 -0.35585790209E+02  0.69525956784E+03  0.69638565648E+03  0.00000000000E+00 0. -1.
         -2    1    3    3    0  502 -0.17342647476E+02  0.35585790209E+02  0.23189364669E+03  0.23524833530E+03  0.00000000000E+00 0.  1.
<mgrwt>
<rscale>  0 0.91262322E+02</rscale>
<asrwt>0</asrwt>
<pdfrwt beam="2">  1        2 0.34467592E-03 0.91262322E+02</pdfrwt>
<pdfrwt beam="1">  1       -2 0.14298332E+00 0.91262322E+02</pdfrwt>
<totfact> 0.20268251E+04</totfact>
</mgrwt>
</event>
<event>
 5    1  0.3858846E+001  0.9101558E+02  0.7546771E-02  0.1300411E+00
          1   -1    0    0  501    0  0.00000000000E+00  0.00000000000E+00  0.11986151607E+02  0.11986151607E+02  0.00000000000E+00 0. -1.
         -1   -1    0    0    0  501 -0.00000000000E+00 -0.00000000000E+00 -0.17277930225E+03  0.17277930225E+03  0.00000000000E+00 0.  1.
         23    2    1    2    0    0  0.00000000000E+00  0.00000000000E+00 -0.16079315065E+03  0.18476545386E+03  0.91015579135E+02 0.  0.
          2    1    3    3  502    0 -0.30000492184E+02  0.22857180570E+02 -0.28701057932E+02  0.47394419094E+02  0.00000000000E+00 0. -1.
         -2    1    3    3    0  502  0.30000492184E+02 -0.22857180570E+02 -0.13209209271E+03  0.13737103477E+03  0.00000000000E+00 0.  1.
<mgrwt>
<rscale>  0 0.91015579E+02</rscale>
<asrwt>0</asrwt>
<pdfrwt beam="1">  1        1 0.18440235E-02 0.91015579E+02</pdfrwt>
<pdfrwt beam="2">  1       -1 0.26581428E-01 0.91015579E+02</pdfrwt>
<totfact> 0.72571513E+04</totfact>
</mgrwt>
</event>
<event>
 5    1  0.3858846E+001  0.8811751E+02  0.7546771E-02  0.1307476E+00
         -4   -1    0    0    0  501 -0.00000000000E+00  0.00000000000E+00  0.72624534820E+03  0.72624534820E+03  0.00000000000E+00 0.  1.
          4   -1    0    0  501    0  0.00000000000E+00 -0.00000000000E+00 -0.26728901683E+01  0.26728901683E+01  0.00000000000E+00 0. -1.
         23    2    1    2    0    0  0.00000000000E+00  0.00000000000E+00  0.72357245803E+03  0.72891823837E+03  0.88117513605E+02 0.  0.
          2    1    3    3  502    0  0.38192702906E+02  0.91599668641E+01  0.19663649568E+03  0.20052056997E+03  0.00000000000E+00 0. -1.
         -2    1    3    3    0  502 -0.38192702906E+02 -0.91599668641E+01  0.52693596235E+03  0.52839766839E+03  0.00000000000E+00 0.  1.
<mgrwt>
<rscale>  0 0.88117514E+02</rscale>
<asrwt>0</asrwt>
<pdfrwt beam="2">  1        4 0.41121445E-03 0.88117514E+02</pdfrwt>
<pdfrwt beam="1">  1       -4 0.11172990E+00 0.88117514E+02</pdfrwt>
<totfact> 0.10598034E+04</totfact>
</mgrwt>
</event>
<event>
 5    1  0.3858846E+001  0.8322009E+02  0.7546771E-02  0.1320154E+00
         -2   -1    0    0    0  501 -0.00000000000E+00  0.00000000000E+00  0.17629608558E+02  0.17629608558E+02  0.00000000000E+00 0. -1.
          2   -1    0    0  501    0  0.00000000000E+00 -0.00000000000E+00 -0.98209543807E+02  0.98209543807E+02  0.00000000000E+00 0.  1.
         23    2    1    2    0    0  0.00000000000E+00  0.00000000000E+00 -0.80579935249E+02  0.11583915236E+03  0.83220089257E+02 0.  0.
          2    1    3    3  502    0  0.17724856268E+02 -0.14540788692E+02  0.80451931410E+01  0.24296711674E+02  0.00000000000E+00 0. -1.
         -2    1    3    3    0  502 -0.17724856268E+02  0.14540788692E+02 -0.88625128390E+02  0.91542440691E+02  0.00000000000E+00 0.  1.
<mgrwt>
<rscale>  0 0.83220089E+02</rscale>
<asrwt>0</asrwt>
<pdfrwt beam="2">  1        2 0.15109160E-01 0.83220089E+02</pdfrwt>
<pdfrwt beam="1">  1       -2 0.27122475E-02 0.83220089E+02</pdfrwt>
<totfact> 0.15661178E+05</totfact>
</mgrwt>
</event>
<event>
 5    1  0.3858846E+001  0.9001423E+02  0.7546771E-02  0.1302817E+00
          1   -1    0    0  501    0  0.00000000000E+00  0.00000000000E+00  0.74335968056E+02  0.74335968056E+02  0.00000000000E+00 0. -1.
         -1   -1    0    0    0  501 -0.00000000000E+00 -0.00000000000E+00 -0.27249798903E+02  0.27249798903E+02  0.00000000000E+00 0.  1.
         23    2    1    2    0    0  0.00000000000E+00  0.00000000000E+00  0.47086169153E+02  0.10158576696E+03  0.90014225115E+02 0.  0.
          2    1    3    3  502    0 -0.36084031560E+02 -0.11865515739E+02  0.50787572546E+02  0.63421016410E+02  0.00000000000E+00 0. -1.
         -2    1    3    3    0  502  0.36084031560E+02  0.11865515739E+02 -0.37014033924E+01  0.38164750549E+02  0.00000000000E+00 0.  1.
<mgrwt>
<rscale>  0 0.90014225E+02</rscale>
<asrwt>0</asrwt>
<pdfrwt beam="1">  1        1 0.11436303E-01 0.90014225E+02</pdfrwt>
<pdfrwt beam="2">  1       -1 0.41922768E-02 0.90014225E+02</pdfrwt>
<totfact> 0.10316495E+05</totfact>
</mgrwt>
</event>
<event>
 5    1  0.3858846E+001  0.9070557E+02  0.7546771E-02  0.1301152E+00
         -1   -1    0    0    0  501 -0.00000000000E+00  0.00000000000E+00  0.18107711007E+03  0.18107711007E+03  0.00000000000E+00 0.  1.
          1   -1    0    0  501    0  0.00000000000E+00 -0.00000000000E+00 -0.11359111424E+02  0.11359111424E+02  0.00000000000E+00 0. -1.
         23    2    1    2    0    0  0.00000000000E+00  0.00000000000E+00  0.16971799864E+03  0.19243622149E+03  0.90705569171E+02 0.  0.
          2    1    3    3  502    0  0.28227848184E+02 -0.36108678223E+00  0.16016448965E+03  0.16263334695E+03  0.00000000000E+00 0.  1.
         -2    1    3    3    0  502 -0.28227848184E+02  0.36108678223E+00  0.95535089976E+01  0.29802874542E+02  0.00000000000E+00 0. -1.
<mgrwt>
<rscale>  0 0.90705569E+02</rscale>
<asrwt>0</asrwt>
<pdfrwt beam="2">  1        1 0.17475557E-02 0.90705569E+02</pdfrwt>
<pdfrwt beam="1">  1       -1 0.27858015E-01 0.90705569E+02</pdfrwt>
<totfact> 0.72324341E+04</totfact>
</mgrwt>
</event>
<event>
 5    1  0.3858846E+001  0.9114123E+02  0.7546771E-02  0.1300111E+00
         -1   -1    0    0    0  501 -0.00000000000E+00  0.00000000000E+00  0.19351668553E+02  0.19351668553E+02  0.00000000000E+00 0.  1.
          1   -1    0    0  501    0  0.00000000000E+00 -0.00000000000E+00 -0.10731274913E+03  0.10731274913E+03  0.00000000000E+00 0. -1.
         23    2    1    2    0    0  0.00000000000E+00  0.00000000000E+00 -0.87961080572E+02  0.12666441768E+03  0.91141225635E+02 0.  0.
          2    1    3    3  502    0  0.41972899868E+02 -0.14797791767E+02 -0.30365021790E+02  0.53877022122E+02  0.00000000000E+00 0. -1.
         -2    1    3    3    0  502 -0.41972899868E+02  0.14797791767E+02 -0.57596058783E+02  0.72787395556E+02  0.00000000000E+00 0.  1.
<mgrwt>
<rscale>  0 0.91141226E+02</rscale>
<asrwt>0</asrwt>
<pdfrwt beam="2">  1        1 0.16509654E-01 0.91141226E+02</pdfrwt>
<pdfrwt beam="1">  1       -1 0.29771798E-02 0.91141226E+02</pdfrwt>
<totfact> 0.10580786E+05</totfact>
</mgrwt>
</event>
<event>
 5    1  0.3858846E+001  0.9191940E+02  0.7546771E-02  0.1298269E+00
          1   -1    0    0  501    0  0.00000000000E+00  0.00000000000E+00  0.43384278387E+01  0.43384278387E+01  0.00000000000E+00 0. -1.
         -1   -1    0    0    0  501 -0.00000000000E+00 -0.00000000000E+00 -0.48688005611E+03  0.48688005611E+03  0.00000000000E+00 0.  1.
         23    2    1    2    0    0  0.00000000000E+00  0.00000000000E+00 -0.48254162827E+03  0.49121848394E+03  0.91919399248E+02 0.  0.
          2    1    3    3  502    0  0.30890118398E+02 -0.11122096611E+02 -0.41314490870E+03  0.41444736220E+03  0.00000000000E+00 0.  1.
         -2    1    3    3    0  502 -0.30890118398E+02  0.11122096611E+02 -0.69396719569E+02  0.76771121749E+02  0.00000000000E+00 0. -1.
<mgrwt>
<rscale>  0 0.91919399E+02</rscale>
<asrwt>0</asrwt>
<pdfrwt beam="1">  1        1 0.66745041E-03 0.91919399E+02</pdfrwt>
<pdfrwt beam="2">  1       -1 0.74904627E-01 0.91919399E+02</pdfrwt>
<totfact> 0.46804067E+04</totfact>
</mgrwt>
</event>
<event>
 5    1  0.3858846E+001  0.9358268E+02  0.7546771E-02  0.1294401E+00
          2   -1    0    0  501    0  0.00000000000E+00  0.00000000000E+00  0.28055250005E+03  0.28055250005E+03  0.00000000000E+00 0. -1.
         -2   -1    0    0    0  501 -0.00000000000E+00 -0.00000000000E+00 -0.78039928504E+01  0.78039928504E+01  0.00000000000E+00 0.  1.
         23    2    1    2    0    0  0.00000000000E+00  0.00000000000E+00  0.27274850720E+03  0.28835649290E+03  0.93582684394E+02 0.  0.
          2    1    3    3  502    0  0.36210785320E+02 -0.10481738217E+02  0.22178479866E+03  0.22496574123E+03  0.00000000000E+00 0. -1.
         -2    1    3    3    0  502 -0.36210785320E+02  0.10481738217E+02  0.50963708540E+02  0.63390751673E+02  0.00000000000E+00 0.  1.
<mgrwt>
<rscale>  0 0.93582684E+02</rscale>
<asrwt>0</asrwt>
<pdfrwt beam="1">  1        2 0.43161915E-01 0.93582684E+02</pdfrwt>
<pdfrwt beam="2">  1       -2 0.12006145E-02 0.93582684E+02</pdfrwt>
<totfact> 0.16342409E+05</totfact>
</mgrwt>
</event>
<event>
 5    1  0.3858846E+001  0.9090186E+02  0.7546771E-02  0.1300682E+00
          2   -1    0    0  501    0  0.00000000000E+00  0.00000000000E+00  0.35477533288E+02  0.35477533288E+02  0.00000000000E+00 0. -1.
         -2   -1    0    0    0  501 -0.00000000000E+00 -0.00000000000E+00 -0.58228029482E+02  0.58228029482E+02  0.00000000000E+00 0.  1.
         23    2    1    2    0    0  0.00000000000E+00  0.00000000000E+00 -0.22750496194E+02  0.93705562771E+02  0.90901855960E+02 0.  0.
          2    1    3    3  502    0  0.38905371759E+02  0.11819205020E+02  0.95603961259E+01  0.41769878299E+02  0.00000000000E+00 0. -1.
         -2    1    3    3    0  502 -0.38905371759E+02 -0.11819205020E+02 -0.32310892320E+02  0.51935684472E+02  0.00000000000E+00 0.  1.
<mgrwt>
<rscale>  0 0.90901856E+02</rscale>
<asrwt>0</asrwt>
<pdfrwt beam="1">  1        2 0.54580821E-02 0.90901856E+02</pdfrwt>
<pdfrwt beam="2">  1       -2 0.89581583E-02 0.90901856E+02</pdfrwt>
<totfact> 0.93284495E+04</totfact>
</mgrwt>
</event>
<event>
 5    1  0.3858846E+001  0.9315314E+02  0.7546771E-02  0.1295391E+00
         -4   -1    0    0    0  501 -0.00000000000E+00  0.00000000000E+00  0.19629937867E+02  0.19629937867E+02  0.00000000000E+00 0.  1.
          4   -1    0    0  501    0  0.00000000000E+00 -0.00000000000E+00 -0.11051368828E+03  0.11051368828E+03  0.00000000000E+00 0. -1.
         23    2    1    2    0    0  0.00000000000E+00  0.00000000000E+00 -0.90883750412E+02  0.13014362615E+03  0.93153139172E+02 0.  0.
          2    1    3    3  502    0  0.32858089386E+02  0.31957867077E+02 -0.33885833559E+02  0.57001833498E+02  0.00000000000E+00 0. -1.
         -2    1    3    3    0  502 -0.32858089386E+02 -0.31957867077E+02 -0.56997916854E+02  0.73141792649E+02  0.00000000000E+00 0.  1.
<mgrwt>
<rscale>  0 0.93153139E+02</rscale>
<asrwt>0</asrwt>
<pdfrwt beam="2">  1        4 0.17002105E-01 0.93153139E+02</pdfrwt>
<pdfrwt beam="1">  1       -4 0.30199905E-02 0.93153139E+02</pdfrwt>
<totfact> 0.23316579E+04</totfact>
</mgrwt>
</event>
<event>
 5    1  0.3858846E+001  0.9059594E+02  0.7546771E-02  0.1301415E+00
          2   -1    0    0  501    0  0.00000000000E+00  0.00000000000E+00  0.29120001104E+03  0.29120001104E+03  0.00000000000E+00 0. -1.
         -2   -1    0    0    0  501 -0.00000000000E+00 -0.00000000000E+00 -0.70463806672E+01  0.70463806672E+01  0.00000000000E+00 0.  1.
         23    2    1    2    0    0  0.00000000000E+00  0.00000000000E+00  0.28415363037E+03  0.29824639170E+03  0.90595940926E+02 0.  0.
          2    1    3    3  502    0  0.22245849542E+02 -0.95035450195E+01  0.15998985677E+02  0.29002805596E+02  0.00000000000E+00 0.  1.
         -2    1    3    3    0  502 -0.22245849542E+02  0.95035450195E+01  0.26815464469E+03  0.26924358611E+03  0.00000000000E+00 0. -1.
<mgrwt>
<rscale>  0 0.90595941E+02</rscale>
<asrwt>0</asrwt>
<pdfrwt beam="1">  1        2 0.44799992E-01 0.90595941E+02</pdfrwt>
<pdfrwt beam="2">  1       -2 0.10840588E-02 0.90595941E+02</pdfrwt>
<totfact> 0.18073359E+05</totfact>
</mgrwt>
</event>
<event>
 5    1  0.3858846E+001  0.9099196E+02  0.7546771E-02  0.1300467E+00
         -3   -1    0    0    0  501 -0.00000000000E+00  0.00000000000E+00  0.26191212660E+03  0.26191212660E+03  0.00000000000E+00 0.  1.
          3   -1    0    0  501    0  0.00000000000E+00 -0.00000000000E+00 -0.79029712836E+01  0.79029712836E+01  0.00000000000E+00 0. -1.
         23    2    1    2    0    0  0.00000000000E+00  0.00000000000E+00  0.25400915532E+03  0.26981509789E+03  0.90991956026E+02 0.  0.
          2    1    3    3  502    0 -0.36025186134E+02 -0.95862428914E-01  0.20939732699E+03  0.21247367785E+03  0.00000000000E+00 0.  1.
         -2    1    3    3    0  502  0.36025186134E+02  0.95862428914E-01  0.44611828325E+02  0.57341420039E+02  0.00000000000E+00 0. -1.
<mgrwt>
<rscale>  0 0.90991956E+02</rscale>
<asrwt>0</asrwt>
<pdfrwt beam="2">  1        3 0.12158419E-02 0.90991956E+02</pdfrwt>
<pdfrwt beam="1">  1       -3 0.40294167E-01 0.90991956E+02</pdfrwt>
<totfact> 0.25380604E+04</totfact>
</mgrwt>
</event>
<event>
 5    1  0.3858846E+001  0.9402645E+02  0.7546771E-02  0.1293384E+00
         -2   -1    0    0    0  501 -0.00000000000E+00  0.00000000000E+00  0.74874227544E+02  0.74874227544E+02  0.00000000000E+00 0.  1.
          2   -1    0    0  501    0  0.00000000000E+00 -0.00000000000E+00 -0.29519415954E+02  0.29519415954E+02  0.00000000000E+00 0. -1.
         23    2    1    2    0    0  0.00000000000E+00  0.00000000000E+00  0.45354811590E+02  0.10439364350E+03  0.94026453025E+02 0.  0.
          2    1    3    3  502    0 -0.15358280880E+02  0.34321759113E+02 -0.86543790809E+01  0.38584429728E+02  0.00000000000E+00 0. -1.
         -2    1    3    3    0  502  0.15358280880E+02 -0.34321759113E+02  0.54009190670E+02  0.65809213770E+02  0.00000000000E+00 0.  1.
<mgrwt>
<rscale>  0 0.94026453E+02</rscale>
<asrwt>0</asrwt>
<pdfrwt beam="2">  1        2 0.45414486E-02 0.94026453E+02</pdfrwt>
<pdfrwt beam="1">  1       -2 0.11519112E-01 0.94026453E+02</pdfrwt>
<totfact> 0.80350176E+04</totfact>
</mgrwt>
</event>
<event>
 5    1  0.3858846E+001  0.9388864E+02  0.7546771E-02  0.1293699E+00
         -2   -1    0    0    0  501 -0.00000000000E+00  0.00000000000E+00  0.32808414102E+01  0.32808414102E+01  0.00000000000E+00 0.  1.
          2   -1    0    0  501    0  0.00000000000E+00 -0.00000000000E+00 -0.67170852527E+03  0.67170852527E+03  0.00000000000E+00 0. -1.
         23    2    1    2    0    0  0.00000000000E+00  0.00000000000E+00 -0.66842768386E+03  0.67498936668E+03  0.93888639254E+02 0.  0.
          2    1    3    3  502    0  0.42168283230E+01 -0.45732913641E+02 -0.26433069126E+03  0.26829087829E+03  0.00000000000E+00 0. -1.
         -2    1    3    3    0  502 -0.42168283230E+01  0.45732913641E+02 -0.40409699260E+03  0.40669848839E+03  0.00000000000E+00 0.  1.
<mgrwt>
<rscale>  0 0.93888639E+02</rscale>
<asrwt>0</asrwt>
<pdfrwt beam="2">  1        2 0.10333987E+00 0.93888639E+02</pdfrwt>
<pdfrwt beam="1">  1       -2 0.50474436E-03 0.93888639E+02</pdfrwt>
<totfact> 0.21729901E+05</totfact>
</mgrwt>
</event>
<event>
 5    1  0.3858846E+001  0.9112579E+02  0.7546771E-02  0.1300148E+00
          2   -1    0    0  501    0  0.00000000000E+00  0.00000000000E+00  0.72943513708E+03  0.72943513708E+03  0.00000000000E+00 0. -1.
         -2   -1    0    0    0  501 -0.00000000000E+00 -0.00000000000E+00 -0.28460066548E+01  0.28460066548E+01  0.00000000000E+00 0.  1.
         23    2    1    2    0    0  0.00000000000E+00  0.00000000000E+00  0.72658913042E+03  0.73228114373E+03  0.91125786786E+02 0.  0.
          2    1    3    3  502    0  0.16219320005E+02  0.34045866158E+02  0.15782113690E+03  0.16226428626E+03  0.00000000000E+00 0.  1.
         -2    1    3    3    0  502 -0.16219320005E+02 -0.34045866158E+02  0.56876799352E+03  0.57001685747E+03  0.00000000000E+00 0. -1.
<mgrwt>
<rscale>  0 0.91125787E+02</rscale>
<asrwt>0</asrwt>
<pdfrwt beam="1">  1        2 0.11222064E+00 0.91125787E+02</pdfrwt>
<pdfrwt beam="2">  1       -2 0.43784776E-03 0.91125787E+02</pdfrwt>
<totfact> 0.23970421E+05</totfact>
</mgrwt>
</event>
<event>
 5    1  0.3858846E+001  0.9693888E+02  0.7546771E-02  0.1286868E+00
         -1   -1    0    0    0  501 -0.00000000000E+00  0.00000000000E+00  0.18853813501E+01  0.18853813501E+01  0.00000000000E+00 0.  1.
          1   -1    0    0  501    0  0.00000000000E+00 -0.00000000000E+00 -0.12460537196E+04  0.12460537196E+04  0.00000000000E+00 0. -1.
         23    2    1    2    0    0  0.00000000000E+00  0.00000000000E+00 -0.12441683383E+04  0.12479391010E+04  0.96938876499E+02 0.  0.
          2    1    3    3  502    0  0.57274577385E+01  0.42934010693E+02 -0.90210890229E+03  0.90314816317E+03  0.00000000000E+00 0. -1.
         -2    1    3    3    0  502 -0.57274577385E+01 -0.42934010693E+02 -0.34205943600E+03  0.34479093782E+03  0.00000000000E+00 0.  1.
<mgrwt>
<rscale>  0 0.96938876E+02</rscale>
<asrwt>0</asrwt>
<pdfrwt beam="2">  1        1 0.19170072E+00 0.96938876E+02</pdfrwt>
<pdfrwt beam="1">  1       -1 0.29005845E-03 0.96938876E+02</pdfrwt>
<totfact> 0.10620632E+05</totfact>
</mgrwt>
</event>
<event>
 5    1  0.3858846E+001  0.8675894E+02  0.7546771E-02  0.1310896E+00
          1   -1    0    0  501    0  0.00000000000E+00  0.00000000000E+00  0.20506336654E+04  0.20506336654E+04  0.00000000000E+00 0. -1.
         -1   -1    0    0    0  501 -0.00000000000E+00 -0.00000000000E+00 -0.91765713930E+00  0.91765713930E+00  0.00000000000E+00 0.  1.
         23    2    1    2    0    0  0.00000000000E+00  0.00000000000E+00  0.20497160082E+04  0.20515513225E+04  0.86758944740E+02 0.  0.
          2    1    3    3  502    0  0.42368022735E+02 -0.37301737583E+01  0.82307769656E+03  0.82417586602E+03  0.00000000000E+00 0.  1.
         -2    1    3    3    0  502 -0.42368022735E+02  0.37301737583E+01  0.12266383117E+04  0.12273754565E+04  0.00000000000E+00 0. -1.
<mgrwt>
<rscale>  0 0.86758945E+02</rscale>
<asrwt>0</asrwt>
<pdfrwt beam="1">  1        1 0.31547843E+00 0.86758945E+02</pdfrwt>
<pdfrwt beam="2">  1       -1 0.14117966E-03 0.86758945E+02</pdfrwt>
<totfact> 0.87528240E+04</totfact>
</mgrwt>
</event>
<event>
 5    1  0.3858846E+001  0.9249229E+02  0.7546771E-02  0.1296926E+00
          2   -1    0    0  501    0  0.00000000000E+00  0.00000000000E+00  0.19021393574E+03  0.19021393574E+03  0.00000000000E+00 0. -1.
         -2   -1    0    0    0  501 -0.00000000000E+00 -0.00000000000E+00 -0.11243687736E+02  0.11243687736E+02  0.00000000000E+00 0.  1.
         23    2    1    2    0    0  0.00000000000E+00  0.00000000000E+00  0.17897024800E+03  0.20145762347E+03  0.92492293658E+02 0.  0.
          2    1    3    3  502    0 -0.29411025693E+01 -0.34788175390E+02  0.15554443426E+03  0.15941436027E+03  0.00000000000E+00 0. -1.
         -2    1    3    3    0  502  0.29411025693E+01  0.34788175390E+02  0.23425813740E+02  0.42043263201E+02  0.00000000000E+00 0.  1.
<mgrwt>
<rscale>  0 0.92492294E+02</rscale>
<asrwt>0</asrwt>
<pdfrwt beam="1">  1        2 0.29263680E-01 0.92492294E+02</pdfrwt>
<pdfrwt beam="2">  1       -2 0.17297983E-02 0.92492294E+02</pdfrwt>
<totfact> 0.14614615E+05</totfact>
</mgrwt>
</event>
<event>
 5    1  0.3858846E+001  0.9268159E+02  0.7546771E-02  0.1296485E+00
         -2   -1    0    0    0  501 -0.00000000000E+00  0.00000000000E+00  0.17143533906E+01  0.17143533906E+01  0.00000000000E+00 0.  1.
          2   -1    0    0  501    0  0.00000000000E+00 -0.00000000000E+00 -0.12526410110E+04  0.12526410110E+04  0.00000000000E+00 0. -1.
         23    2    1    2    0    0  0.00000000000E+00  0.00000000000E+00 -0.12509266576E+04  0.12543553644E+04  0.92681591794E+02 0.  0.
          2    1    3    3  502    0 -0.40489673477E+02 -0.78577367448E+01 -0.91138444675E+03  0.91231725155E+03  0.00000000000E+00 0. -1.
         -2    1    3    3    0  502  0.40489673477E+02  0.78577367448E+01 -0.33954221084E+03  0.34203811283E+03  0.00000000000E+00 0.  1.
<mgrwt>
<rscale>  0 0.92681592E+02</rscale>
<asrwt>0</asrwt>
<pdfrwt beam="2">  1        2 0.19271409E+00 0.92681592E+02</pdfrwt>
<pdfrwt beam="1">  1       -2 0.26374656E-03 0.92681592E+02</pdfrwt>
<totfact> 0.23684524E+05</totfact>
</mgrwt>
</event>
<event>
 5    1  0.3858846E+001  0.6832540E+02  0.7546771E-02  0.1365882E+00
         -2   -1    0    0    0  501 -0.00000000000E+00  0.00000000000E+00  0.10126983500E+01  0.10126983500E+01  0.00000000000E+00 0.  1.
          2   -1    0    0  501    0  0.00000000000E+00 -0.00000000000E+00 -0.11524556287E+04  0.11524556287E+04  0.00000000000E+00 0. -1.
         23    2    1    2    0    0  0.00000000000E+00  0.00000000000E+00 -0.11514429303E+04  0.11534683270E+04  0.68325395383E+02 0.  0.
          2    1    3    3  502    0  0.12157021670E+02  0.31926392135E+02 -0.57492551662E+03  0.57593961259E+03  0.00000000000E+00 0. -1.
         -2    1    3    3    0  502 -0.12157021670E+02 -0.31926392135E+02 -0.57651741370E+03  0.57752871443E+03  0.00000000000E+00 0.  1.
<mgrwt>
<rscale>  0 0.68325395E+02</rscale>
<asrwt>0</asrwt>
<pdfrwt beam="2">  1        2 0.17730085E+00 0.68325395E+02</pdfrwt>
<pdfrwt beam="1">  1       -2 0.15579976E-03 0.68325395E+02</pdfrwt>
<totfact> 0.52763718E+05</totfact>
</mgrwt>
</event>
<event>
 5    1  0.3858846E+001  0.9021229E+02  0.7546771E-02  0.1302338E+00
          2   -1    0    0  501    0  0.00000000000E+00  0.00000000000E+00  0.21251658413E+04  0.21251658413E+04  0.00000000000E+00 0. -1.
         -2   -1    0    0    0  501 -0.00000000000E+00 -0.00000000000E+00 -0.95736740371E+00  0.95736740371E+00  0.00000000000E+00 0.  1.
         23    2    1    2    0    0  0.00000000000E+00  0.00000000000E+00  0.21242084739E+04  0.21261232088E+04  0.90212294151E+02 0.  0.
          2    1    3    3  502    0 -0.36886673816E+02  0.25958654131E+02  0.10690187222E+04  0.10699698626E+04  0.00000000000E+00 0. -1.
         -2    1    3    3    0  502  0.36886673816E+02 -0.25958654131E+02  0.10551897518E+04  0.10561533462E+04  0.00000000000E+00 0.  1.
<mgrwt>
<rscale>  0 0.90212294E+02</rscale>
<asrwt>0</asrwt>
<pdfrwt beam="1">  1        2 0.32694482E+00 0.90212294E+02</pdfrwt>
<pdfrwt beam="2">  1       -2 0.14728899E-03 0.90212294E+02</pdfrwt>
<totfact> 0.19036181E+05</totfact>
</mgrwt>
</event>
<event>
 5    1  0.3858846E+001  0.9031619E+02  0.7546771E-02  0.1302088E+00
         -1   -1    0    0    0  501 -0.00000000000E+00  0.00000000000E+00  0.41692865101E+02  0.41692865101E+02  0.00000000000E+00 0.  1.
          1   -1    0    0  501    0  0.00000000000E+00 -0.00000000000E+00 -0.48911336296E+02  0.48911336296E+02  0.00000000000E+00 0. -1.
         23    2    1    2    0    0  0.00000000000E+00  0.00000000000E+00 -0.72184711941E+01  0.90604201397E+02  0.90316194475E+02 0.  0.
          2    1    3    3  502    0 -0.41390730170E+02  0.16743646282E+02  0.31733533308E+01  0.44761729258E+02  0.00000000000E+00 0.  1.
         -2    1    3    3    0  502  0.41390730170E+02 -0.16743646282E+02 -0.10391824525E+02  0.45842472139E+02  0.00000000000E+00 0. -1.
<mgrwt>
<rscale>  0 0.90316194E+02</rscale>
<asrwt>0</asrwt>
<pdfrwt beam="2">  1        1 0.75248209E-02 0.90316194E+02</pdfrwt>
<pdfrwt beam="1">  1       -1 0.64142870E-02 0.90316194E+02</pdfrwt>
<totfact> 0.95964065E+04</totfact>
</mgrwt>
</event>
<event>
 5    1  0.3858846E+001  0.9086688E+02  0.7546771E-02  0.1300766E+00
         -1   -1    0    0    0  501 -0.00000000000E+00  0.00000000000E+00  0.93227987451E+02  0.93227987451E+02  0.00000000000E+00 0.  1.
          1   -1    0    0  501    0  0.00000000000E+00 -0.00000000000E+00 -0.22141393644E+02  0.22141393644E+02  0.00000000000E+00 0. -1.
         23    2    1    2    0    0  0.00000000000E+00  0.00000000000E+00  0.71086593807E+02  0.11536938109E+03  0.90866882168E+02 0.  0.
          2    1    3    3  502    0 -0.42556460174E+02 -0.88635070759E+01  0.52319224561E+02  0.68021432790E+02  0.00000000000E+00 0. -1.
         -2    1    3    3    0  502  0.42556460174E+02  0.88635070759E+01  0.18767369246E+02  0.47347948304E+02  0.00000000000E+00 0.  1.
<mgrwt>
<rscale>  0 0.90866882E+02</rscale>
<asrwt>0</asrwt>
<pdfrwt beam="2">  1        1 0.34063683E-02 0.90866882E+02</pdfrwt>
<pdfrwt beam="1">  1       -1 0.14342767E-01 0.90866882E+02</pdfrwt>
<totfact> 0.83145979E+04</totfact>
</mgrwt>
</event>
<event>
 5    1  0.3858846E+001  0.8896498E+02  0.7546771E-02  0.1305378E+00
         -1   -1    0    0    0  501 -0.00000000000E+00  0.00000000000E+00  0.43252341173E+02  0.43252341173E+02  0.00000000000E+00 0.  1.
          1   -1    0    0  501    0  0.00000000000E+00 -0.00000000000E+00 -0.45747628824E+02  0.45747628824E+02  0.00000000000E+00 0. -1.
         23    2    1    2    0    0  0.00000000000E+00  0.00000000000E+00 -0.24952876500E+01  0.88999969997E+02  0.88964982993E+02 0.  0.
          2    1    3    3  502    0 -0.31666869362E+02 -0.11790398949E+01 -0.32477084050E+02  0.45375563232E+02  0.00000000000E+00 0. -1.
         -2    1    3    3    0  502  0.31666869362E+02  0.11790398949E+01  0.29981796400E+02  0.43624406765E+02  0.00000000000E+00 0.  1.
<mgrwt>
<rscale>  0 0.88964983E+02</rscale>
<asrwt>0</asrwt>
<pdfrwt beam="2">  1        1 0.70380967E-02 0.88964983E+02</pdfrwt>
<pdfrwt beam="1">  1       -1 0.66542063E-02 0.88964983E+02</pdfrwt>
<totfact> 0.99102829E+04</totfact>
</mgrwt>
</event>
<event>
 5    1  0.3858846E+001  0.8786095E+02  0.7546771E-02  0.1308116E+00
         -1   -1    0    0    0  501 -0.00000000000E+00  0.00000000000E+00  0.33463245220E+01  0.33463245220E+01  0.00000000000E+00 0.  1.
          1   -1    0    0  501    0  0.00000000000E+00 -0.00000000000E+00 -0.57671837669E+03  0.57671837669E+03  0.00000000000E+00 0. -1.
         23    2    1    2    0    0  0.00000000000E+00  0.00000000000E+00 -0.57337205217E+03  0.58006470121E+03  0.87860954837E+02 0.  0.
          2    1    3    3  502    0  0.17197293102E+02  0.24119533248E+02 -0.50086087929E+03  0.50173610512E+03  0.00000000000E+00 0. -1.
         -2    1    3    3    0  502 -0.17197293102E+02 -0.24119533248E+02 -0.72511172876E+02  0.78328596093E+02  0.00000000000E+00 0.  1.
<mgrwt>
<rscale>  0 0.87860955E+02</rscale>
<asrwt>0</asrwt>
<pdfrwt beam="2">  1        1 0.88725920E-01 0.87860955E+02</pdfrwt>
<pdfrwt beam="1">  1       -1 0.51481906E-03 0.87860955E+02</pdfrwt>
<totfact> 0.15573114E+05</totfact>
</mgrwt>
</event>
<event>
 5    1  0.3858846E+001  0.8989335E+02  0.7546771E-02  0.1303110E+00
          2   -1    0    0  501    0  0.00000000000E+00  0.00000000000E+00  0.54898454013E+03  0.54898454013E+03  0.00000000000E+00 0. -1.
         -2   -1    0    0    0  501 -0.00000000000E+00 -0.00000000000E+00 -0.36798912150E+01  0.36798912150E+01  0.00000000000E+00 0.  1.
         23    2    1    2    0    0  0.00000000000E+00  0.00000000000E+00  0.54530464892E+03  0.55266443135E+03  0.89893345391E+02 0.  0.
          2    1    3    3  502    0 -0.26193950252E+02 -0.35370921067E+02  0.21664868680E+03  0.22107437341E+03  0.00000000000E+00 0. -1.
         -2    1    3    3    0  502  0.26193950252E+02  0.35370921067E+02  0.32865596212E+03  0.33159005794E+03  0.00000000000E+00 0.  1.
<mgrwt>
<rscale>  0 0.89893345E+02</rscale>
<asrwt>0</asrwt>
<pdfrwt beam="1">  1        2 0.84459095E-01 0.89893345E+02</pdfrwt>
<pdfrwt beam="2">  1       -2 0.56613755E-03 0.89893345E+02</pdfrwt>
<totfact> 0.23041728E+05</totfact>
</mgrwt>
</event>
<event>
 5    1  0.3858846E+001  0.9256471E+02  0.7546771E-02  0.1296757E+00
         -1   -1    0    0    0  501 -0.00000000000E+00  0.00000000000E+00  0.13793791628E+02  0.13793791628E+02  0.00000000000E+00 0.  1.
          1   -1    0    0  501    0  0.00000000000E+00 -0.00000000000E+00 -0.15529132729E+03  0.15529132729E+03  0.00000000000E+00 0. -1.
         23    2    1    2    0    0  0.00000000000E+00  0.00000000000E+00 -0.14149753567E+03  0.16908511892E+03  0.92564706240E+02 0.  0.
          2    1    3    3  502    0  0.39058211789E+02  0.11846873183E+02 -0.11060885026E+03  0.11789915211E+03  0.00000000000E+00 0. -1.
         -2    1    3    3    0  502 -0.39058211789E+02 -0.11846873183E+02 -0.30888685405E+02  0.51185966812E+02  0.00000000000E+00 0.  1.
<mgrwt>
<rscale>  0 0.92564706E+02</rscale>
<asrwt>0</asrwt>
<pdfrwt beam="2">  1        1 0.23890973E-01 0.92564706E+02</pdfrwt>
<pdfrwt beam="1">  1       -1 0.21221218E-02 0.92564706E+02</pdfrwt>
<totfact> 0.10834124E+05</totfact>
</mgrwt>
</event>
<event>
 5    1  0.3858846E+001  0.8673840E+02  0.7546771E-02  0.1310948E+00
         -1   -1    0    0    0  501 -0.00000000000E+00  0.00000000000E+00  0.21073655559E+01  0.21073655559E+01  0.00000000000E+00 0.  1.
          1   -1    0    0  501    0  0.00000000000E+00 -0.00000000000E+00 -0.89253016537E+03  0.89253016537E+03  0.00000000000E+00 0. -1.
         23    2    1    2    0    0  0.00000000000E+00  0.00000000000E+00 -0.89042279981E+03  0.89463753092E+03  0.86738395837E+02 0.  0.
          2    1    3    3  502    0 -0.19300839487E+02  0.38626095009E+02 -0.48696763456E+03  0.48887828212E+03  0.00000000000E+00 0. -1.
         -2    1    3    3    0  502  0.19300839487E+02 -0.38626095009E+02 -0.40345516525E+03  0.40575924880E+03  0.00000000000E+00 0.  1.
<mgrwt>
<rscale>  0 0.86738396E+02</rscale>
<asrwt>0</asrwt>
<pdfrwt beam="2">  1        1 0.13731227E+00 0.86738396E+02</pdfrwt>
<pdfrwt beam="1">  1       -1 0.32421022E-03 0.86738396E+02</pdfrwt>
<totfact> 0.15897736E+05</totfact>
</mgrwt>
</event>
<event>
 5    1  0.3858846E+001  0.9200712E+02  0.7546771E-02  0.1298063E+00
          4   -1    0    0  501    0  0.00000000000E+00  0.00000000000E+00  0.18859168136E+03  0.18859168136E+03  0.00000000000E+00 0. -1.
         -4   -1    0    0    0  501 -0.00000000000E+00 -0.00000000000E+00 -0.11221744351E+02  0.11221744351E+02  0.00000000000E+00 0.  1.
         23    2    1    2    0    0  0.00000000000E+00  0.00000000000E+00  0.17736993701E+03  0.19981342571E+03  0.92007122221E+02 0.  0.
          2    1    3    3  502    0 -0.34023046281E+02 -0.22986271265E+02  0.13373913456E+03  0.13990029470E+03  0.00000000000E+00 0. -1.
         -2    1    3    3    0  502  0.34023046281E+02  0.22986271265E+02  0.43630802451E+02  0.59913131010E+02  0.00000000000E+00 0.  1.
<mgrwt>
<rscale>  0 0.92007122E+02</rscale>
<asrwt>0</asrwt>
<pdfrwt beam="1">  1        4 0.29014102E-01 0.92007122E+02</pdfrwt>
<pdfrwt beam="2">  1       -4 0.17264223E-02 0.92007122E+02</pdfrwt>
<totfact> 0.20879821E+04</totfact>
</mgrwt>
</event>
<event>
 5    1  0.3858846E+001  0.9601656E+02  0.7546771E-02  0.1288903E+00
         -2   -1    0    0    0  501 -0.00000000000E+00  0.00000000000E+00  0.26465692989E+03  0.26465692989E+03  0.00000000000E+00 0.  1.
          2   -1    0    0  501    0  0.00000000000E+00 -0.00000000000E+00 -0.87086131816E+01  0.87086131816E+01  0.00000000000E+00 0. -1.
         23    2    1    2    0    0  0.00000000000E+00  0.00000000000E+00  0.25594831671E+03  0.27336554307E+03  0.96016557494E+02 0.  0.
          2    1    3    3  502    0 -0.37372344098E+02 -0.27080724095E+02  0.90339306387E+02  0.10144578848E+03  0.00000000000E+00 0. -1.
         -2    1    3    3    0  502  0.37372344098E+02  0.27080724095E+02  0.16560901032E+03  0.17191975460E+03  0.00000000000E+00 0.  1.
<mgrwt>
<rscale>  0 0.96016557E+02</rscale>
<asrwt>0</asrwt>
<pdfrwt beam="2">  1        2 0.13397868E-02 0.96016557E+02</pdfrwt>
<pdfrwt beam="1">  1       -2 0.40716445E-01 0.96016557E+02</pdfrwt>
<totfact> 0.47771018E+04</totfact>
</mgrwt>
</event>
<event>
 5    1  0.3858846E+001  0.9204656E+02  0.7546771E-02  0.1297970E+00
         -2   -1    0    0    0  501 -0.00000000000E+00  0.00000000000E+00  0.26674546858E+02  0.26674546858E+02  0.00000000000E+00 0.  1.
          2   -1    0    0  501    0  0.00000000000E+00 -0.00000000000E+00 -0.79406873600E+02  0.79406873600E+02  0.00000000000E+00 0. -1.
         23    2    1    2    0    0  0.00000000000E+00  0.00000000000E+00 -0.52732326742E+02  0.10608142046E+03  0.92046561493E+02 0.  0.
          2    1    3    3  502    0  0.20596697092E+02  0.28665557062E+02 -0.60402347392E+02  0.69959857513E+02  0.00000000000E+00 0. -1.
         -2    1    3    3    0  502 -0.20596697092E+02 -0.28665557062E+02  0.76700206501E+01  0.36121562944E+02  0.00000000000E+00 0.  1.
<mgrwt>
<rscale>  0 0.92046561E+02</rscale>
<asrwt>0</asrwt>
<pdfrwt beam="2">  1        2 0.12216442E-01 0.92046561E+02</pdfrwt>
<pdfrwt beam="1">  1       -2 0.41037766E-02 0.92046561E+02</pdfrwt>
<totfact> 0.11162118E+05</totfact>
</mgrwt>
</event>
<event>
 5    1  0.3858846E+001  0.9224361E+02  0.7546771E-02  0.1297508E+00
         -2   -1    0    0    0  501 -0.00000000000E+00  0.00000000000E+00  0.48478351581E+03  0.48478351581E+03  0.00000000000E+00 0.  1.
          2   -1    0    0  501    0  0.00000000000E+00 -0.00000000000E+00 -0.43879808123E+01  0.43879808123E+01  0.00000000000E+00 0. -1.
         23    2    1    2    0    0  0.00000000000E+00  0.00000000000E+00  0.48039553500E+03  0.48917149663E+03  0.92243607161E+02 0.  0.
          2    1    3    3  502    0 -0.41816719399E+02 -0.19446227159E+02  0.23673250987E+03  0.24118265900E+03  0.00000000000E+00 0. -1.
         -2    1    3    3    0  502  0.41816719399E+02  0.19446227159E+02  0.24366302513E+03  0.24798883763E+03  0.00000000000E+00 0.  1.
<mgrwt>
<rscale>  0 0.92243607E+02</rscale>
<asrwt>0</asrwt>
<pdfrwt beam="2">  1        2 0.67507435E-03 0.92243607E+02</pdfrwt>
<pdfrwt beam="1">  1       -2 0.74582037E-01 0.92243607E+02</pdfrwt>
<totfact> 0.36075331E+04</totfact>
</mgrwt>
</event>
<event>
 5    1  0.3858846E+001  0.9193119E+02  0.7546771E-02  0.1298241E+00
         -2   -1    0    0    0  501 -0.00000000000E+00  0.00000000000E+00  0.62239100150E+01  0.62239100150E+01  0.00000000000E+00 0.  1.
          2   -1    0    0  501    0  0.00000000000E+00 -0.00000000000E+00 -0.33947082754E+03  0.33947082754E+03  0.00000000000E+00 0. -1.
         23    2    1    2    0    0  0.00000000000E+00  0.00000000000E+00 -0.33324691752E+03  0.34569473755E+03  0.91931189121E+02 0.  0.
          2    1    3    3  502    0  0.24370345577E+02  0.18482112008E+02 -0.29565018373E+03  0.29722808304E+03  0.00000000000E+00 0. -1.
         -2    1    3    3    0  502 -0.24370345577E+02 -0.18482112008E+02 -0.37596733792E+02  0.48466654513E+02  0.00000000000E+00 0.  1.
<mgrwt>
<rscale>  0 0.91931189E+02</rscale>
<asrwt>0</asrwt>
<pdfrwt beam="2">  1        2 0.52226266E-01 0.91931189E+02</pdfrwt>
<pdfrwt beam="1">  1       -2 0.95752490E-03 0.91931189E+02</pdfrwt>
<totfact> 0.18399285E+05</totfact>
</mgrwt>
</event>
<event>
 5    1  0.3858846E+001  0.9378736E+02  0.7546771E-02  0.1293931E+00
         -1   -1    0    0    0  501 -0.00000000000E+00  0.00000000000E+00  0.51005617063E+01  0.51005617063E+01  0.00000000000E+00 0.  1.
          1   -1    0    0  501    0  0.00000000000E+00 -0.00000000000E+00 -0.43113233488E+03  0.43113233488E+03  0.00000000000E+00 0. -1.
         23    2    1    2    0    0  0.00000000000E+00  0.00000000000E+00 -0.42603177317E+03  0.43623289659E+03  0.93787356880E+02 0.  0.
          2    1    3    3  502    0  0.46675095567E+02 -0.18282570905E+01 -0.19377614587E+03  0.19932662085E+03  0.00000000000E+00 0. -1.
         -2    1    3    3    0  502 -0.46675095567E+02  0.18282570905E+01 -0.23225562730E+03  0.23690627574E+03  0.00000000000E+00 0.  1.
<mgrwt>
<rscale>  0 0.93787357E+02</rscale>
<asrwt>0</asrwt>
<pdfrwt beam="2">  1        1 0.66328045E-01 0.93787357E+02</pdfrwt>
<pdfrwt beam="1">  1       -1 0.78470187E-03 0.93787357E+02</pdfrwt>
<totfact> 0.12662730E+05</totfact>
</mgrwt>
</event>
<event>
 5    1  0.3858846E+001  0.9264020E+02  0.7546771E-02  0.1296581E+00
          4   -1    0    0  501    0  0.00000000000E+00  0.00000000000E+00  0.29899342147E+03  0.29899342147E+03  0.00000000000E+00 0. -1.
         -4   -1    0    0    0  501 -0.00000000000E+00 -0.00000000000E+00 -0.71759166499E+01  0.71759166499E+01  0.00000000000E+00 0.  1.
         23    2    1    2    0    0  0.00000000000E+00  0.00000000000E+00  0.29181750482E+03  0.30616933812E+03  0.92640204476E+02 0.  0.
          2    1    3    3  502    0 -0.35018554690E+02 -0.20468898549E+02  0.21982968060E+03  0.22354051859E+03  0.00000000000E+00 0. -1.
         -2    1    3    3    0  502  0.35018554690E+02  0.20468898549E+02  0.71987824219E+02  0.82628819526E+02  0.00000000000E+00 0.  1.
<mgrwt>
<rscale>  0 0.92640204E+02</rscale>
<asrwt>0</asrwt>
<pdfrwt beam="1">  1        4 0.45998978E-01 0.92640204E+02</pdfrwt>
<pdfrwt beam="2">  1       -4 0.11039874E-02 0.92640204E+02</pdfrwt>
<totfact> 0.16901137E+04</totfact>
</mgrwt>
</event>
<event>
 5    1  0.3858846E+001  0.9131479E+02  0.7546771E-02  0.1299699E+00
         -2   -1    0    0    0  501 -0.00000000000E+00  0.00000000000E+00  0.13436996191E+01  0.13436996191E+01  0.00000000000E+00 0.  1.
          2   -1    0    0  501    0  0.00000000000E+00 -0.00000000000E+00 -0.15513868138E+04  0.15513868138E+04  0.00000000000E+00 0. -1.
         23    2    1    2    0    0  0.00000000000E+00  0.00000000000E+00 -0.15500431142E+04  0.15527305135E+04  0.91314793344E+02 0.  0.
          2    1    3    3  502    0  0.12808173421E+02 -0.43797940639E+02 -0.80074766454E+03  0.80204683852E+03  0.00000000000E+00 0. -1.
         -2    1    3    3    0  502 -0.12808173421E+02  0.43797940639E+02 -0.74929544967E+03  0.75068367494E+03  0.00000000000E+00 0.  1.
<mgrwt>
<rscale>  0 0.91314793E+02</rscale>
<asrwt>0</asrwt>
<pdfrwt beam="2">  1        2 0.23867335E+00 0.91314793E+02</pdfrwt>
<pdfrwt beam="1">  1       -2 0.20672436E-03 0.91314793E+02</pdfrwt>
<totfact> 0.23185516E+05</totfact>
</mgrwt>
</event>
<event>
 5    1  0.3858846E+001  0.9179831E+02  0.7546771E-02  0.1298554E+00
         -3   -1    0    0    0  501 -0.00000000000E+00  0.00000000000E+00  0.23406841218E+02  0.23406841218E+02  0.00000000000E+00 0.  1.
          3   -1    0    0  501    0  0.00000000000E+00 -0.00000000000E+00 -0.90004978541E+02  0.90004978541E+02  0.00000000000E+00 0. -1.
         23    2    1    2    0    0  0.00000000000E+00  0.00000000000E+00 -0.66598137323E+02  0.11341181976E+03  0.91798305900E+02 0.  0.
          2    1    3    3  502    0 -0.99145042013E+01  0.44812101086E+02 -0.32610708929E+02  0.56301688555E+02  0.00000000000E+00 0. -1.
         -2    1    3    3    0  502  0.99145042013E+01 -0.44812101086E+02 -0.33987428393E+02  0.57110131203E+02  0.00000000000E+00 0.  1.
<mgrwt>
<rscale>  0 0.91798306E+02</rscale>
<asrwt>0</asrwt>
<pdfrwt beam="2">  1        3 0.13846920E-01 0.91798306E+02</pdfrwt>
<pdfrwt beam="1">  1       -3 0.36010525E-02 0.91798306E+02</pdfrwt>
<totfact> 0.33085417E+04</totfact>
</mgrwt>
</event>
<event>
 5    1  0.3858846E+001  0.8789175E+02  0.7546771E-02  0.1308039E+00
         -2   -1    0    0    0  501 -0.00000000000E+00  0.00000000000E+00  0.63722684960E+00  0.63722684960E+00  0.00000000000E+00 0. -1.
          2   -1    0    0  501    0  0.00000000000E+00 -0.00000000000E+00 -0.30306947440E+04  0.30306947440E+04  0.00000000000E+00 0.  1.
         23    2    1    2    0    0  0.00000000000E+00  0.00000000000E+00 -0.30300575172E+04  0.30313319709E+04  0.87891753057E+02 0.  0.
          2    1    3    3  502    0  0.17523672584E+02 -0.38945548679E+02 -0.11575929742E+04  0.11583804766E+04  0.00000000000E+00 0. -1.
         -2    1    3    3    0  502 -0.17523672584E+02  0.38945548679E+02 -0.18724645430E+04  0.18729514942E+04  0.00000000000E+00 0.  1.
<mgrwt>
<rscale>  0 0.87891753E+02</rscale>
<asrwt>0</asrwt>
<pdfrwt beam="2">  1        2 0.46625367E+00 0.87891753E+02</pdfrwt>
<pdfrwt beam="1">  1       -2 0.98036383E-04 0.87891753E+02</pdfrwt>
<totfact> 0.10948386E+05</totfact>
</mgrwt>
</event>
<event>
 5    1  0.3858846E+001  0.9407463E+02  0.7546771E-02  0.1293274E+00
         -2   -1    0    0    0  501 -0.00000000000E+00  0.00000000000E+00  0.65062731599E+01  0.65062731599E+01  0.00000000000E+00 0.  1.
          2   -1    0    0  501    0  0.00000000000E+00 -0.00000000000E+00 -0.34005777563E+03  0.34005777563E+03  0.00000000000E+00 0. -1.
         23    2    1    2    0    0  0.00000000000E+00  0.00000000000E+00 -0.33355150247E+03  0.34656404879E+03  0.94074625238E+02 0.  0.
          2    1    3    3  502    0  0.16075067013E+02  0.39943986529E+02 -0.97016244548E+02  0.10614179924E+03  0.00000000000E+00 0.  1.
         -2    1    3    3    0  502 -0.16075067013E+02 -0.39943986529E+02 -0.23653525792E+03  0.24042224955E+03  0.00000000000E+00 0. -1.
<mgrwt>
<rscale>  0 0.94074625E+02</rscale>
<asrwt>0</asrwt>
<pdfrwt beam="2">  1        2 0.52316602E-01 0.94074625E+02</pdfrwt>
<pdfrwt beam="1">  1       -2 0.10009647E-02 0.94074625E+02</pdfrwt>
<totfact> 0.17312478E+05</totfact>
</mgrwt>
</event>
<event>
 5    1  0.3858846E+001  0.9053136E+02  0.7546771E-02  0.1301570E+00
         -1   -1    0    0    0  501 -0.00000000000E+00  0.00000000000E+00  0.48278223472E+01  0.48278223472E+01  0.00000000000E+00 0.  1.
          1   -1    0    0  501    0  0.00000000000E+00 -0.00000000000E+00 -0.42441114458E+03  0.42441114458E+03  0.00000000000E+00 0. -1.
         23    2    1    2    0    0  0.00000000000E+00  0.00000000000E+00 -0.41958332223E+03  0.42923896693E+03  0.90531356075E+02 0.  0.
          2    1    3    3  502    0  0.29049693734E+02 -0.19556272905E+02 -0.34578180291E+03  0.34755055422E+03  0.00000000000E+00 0. -1.
         -2    1    3    3    0  502 -0.29049693734E+02  0.19556272905E+02 -0.73801519320E+02  0.81688412703E+02  0.00000000000E+00 0.  1.
<mgrwt>
<rscale>  0 0.90531356E+02</rscale>
<asrwt>0</asrwt>
<pdfrwt beam="2">  1        1 0.65294034E-01 0.90531356E+02</pdfrwt>
<pdfrwt beam="1">  1       -1 0.74274176E-03 0.90531356E+02</pdfrwt>
<totfact> 0.13875824E+05</totfact>
</mgrwt>
</event>
<event>
 5    1  0.3858846E+001  0.8717369E+02  0.7546771E-02  0.1309844E+00
          1   -1    0    0  501    0  0.00000000000E+00  0.00000000000E+00  0.18289252786E+03  0.18289252786E+03  0.00000000000E+00 0. -1.
         -1   -1    0    0    0  501 -0.00000000000E+00 -0.00000000000E+00 -0.10387593657E+02  0.10387593657E+02  0.00000000000E+00 0.  1.
         23    2    1    2    0    0  0.00000000000E+00  0.00000000000E+00  0.17250493420E+03  0.19328012152E+03  0.87173694708E+02 0.  0.
          2    1    3    3  502    0 -0.26705923039E+02 -0.33819775351E+02  0.71742233115E+02  0.83689494815E+02  0.00000000000E+00 0.  1.
         -2    1    3    3    0  502  0.26705923039E+02  0.33819775351E+02  0.10076270109E+03  0.10959062670E+03  0.00000000000E+00 0. -1.
<mgrwt>
<rscale>  0 0.87173695E+02</rscale>
<asrwt>0</asrwt>
<pdfrwt beam="1">  1        1 0.28137310E-01 0.87173695E+02</pdfrwt>
<pdfrwt beam="2">  1       -1 0.15980915E-02 0.87173695E+02</pdfrwt>
<totfact> 0.13124924E+05</totfact>
</mgrwt>
</event>
<event>
 5    1  0.3858846E+001  0.9294826E+02  0.7546771E-02  0.1295865E+00
         -1   -1    0    0    0  501 -0.00000000000E+00  0.00000000000E+00  0.91150973675E+01  0.91150973675E+01  0.00000000000E+00 0.  1.
          1   -1    0    0  501    0  0.00000000000E+00 -0.00000000000E+00 -0.23695245596E+03  0.23695245596E+03  0.00000000000E+00 0. -1.
         23    2    1    2    0    0  0.00000000000E+00  0.00000000000E+00 -0.22783735859E+03  0.24606755332E+03  0.92948258886E+02 0.  0.
          2    1    3    3  502    0  0.30062157514E+02 -0.34870064340E+02 -0.13070177719E+03  0.13857347964E+03  0.00000000000E+00 0. -1.
         -2    1    3    3    0  502 -0.30062157514E+02  0.34870064340E+02 -0.97135581402E+02  0.10749407368E+03  0.00000000000E+00 0.  1.
<mgrwt>
<rscale>  0 0.92948259E+02</rscale>
<asrwt>0</asrwt>
<pdfrwt beam="2">  1        1 0.36454219E-01 0.92948259E+02</pdfrwt>
<pdfrwt beam="1">  1       -1 0.14023229E-02 0.92948259E+02</pdfrwt>
<totfact> 0.11623649E+05</totfact>
</mgrwt>
</event>
<event>
 5    1  0.3858846E+001  0.9271748E+02  0.7546771E-02  0.1296401E+00
          2   -1    0    0  501    0  0.00000000000E+00  0.00000000000E+00  0.36169654546E+03  0.36169654546E+03  0.00000000000E+00 0. -1.
         -2   -1    0    0    0  501 -0.00000000000E+00 -0.00000000000E+00 -0.59418116836E+01  0.59418116836E+01  0.00000000000E+00 0.  1.
         23    2    1    2    0    0  0.00000000000E+00  0.00000000000E+00  0.35575473378E+03  0.36763835714E+03  0.92717479684E+02 0.  0.
          2    1    3    3  502    0  0.64461347602E+01 -0.45908386562E+02  0.17792587472E+03  0.18386611842E+03  0.00000000000E+00 0. -1.
         -2    1    3    3    0  502 -0.64461347602E+01  0.45908386562E+02  0.17782885906E+03  0.18377223872E+03  0.00000000000E+00 0.  1.
<mgrwt>
<rscale>  0 0.92717480E+02</rscale>
<asrwt>0</asrwt>
<pdfrwt beam="1">  1        2 0.55645605E-01 0.92717480E+02</pdfrwt>
<pdfrwt beam="2">  1       -2 0.91412515E-03 0.92717480E+02</pdfrwt>
<totfact> 0.18409196E+05</totfact>
</mgrwt>
</event>
<event>
 5    1  0.3858846E+001  0.8639598E+02  0.7546771E-02  0.1311822E+00
          1   -1    0    0  501    0  0.00000000000E+00  0.00000000000E+00  0.12592713446E+02  0.12592713446E+02  0.00000000000E+00 0. -1.
         -1   -1    0    0    0  501 -0.00000000000E+00 -0.00000000000E+00 -0.14818621436E+03  0.14818621436E+03  0.00000000000E+00 0.  1.
         23    2    1    2    0    0  0.00000000000E+00  0.00000000000E+00 -0.13559350091E+03  0.16077892780E+03  0.86395984492E+02 0.  0.
          2    1    3    3  502    0  0.27851520747E+02 -0.29320915888E+01 -0.65896982122E+01  0.28770270967E+02  0.00000000000E+00 0. -1.
         -2    1    3    3    0  502 -0.27851520747E+02  0.29320915888E+01 -0.12900380270E+03  0.13200865683E+03  0.00000000000E+00 0.  1.
<mgrwt>
<rscale>  0 0.86395984E+02</rscale>
<asrwt>0</asrwt>
<pdfrwt beam="1">  1        1 0.19373405E-02 0.86395984E+02</pdfrwt>
<pdfrwt beam="2">  1       -1 0.22797879E-01 0.86395984E+02</pdfrwt>
<totfact> 0.86225688E+04</totfact>
</mgrwt>
</event>
<event>
 5    1  0.3858846E+001  0.9317188E+02  0.7546771E-02  0.1295347E+00
         -2   -1    0    0    0  501 -0.00000000000E+00  0.00000000000E+00  0.17634920748E+01  0.17634920748E+01  0.00000000000E+00 0.  1.
          2   -1    0    0  501    0  0.00000000000E+00 -0.00000000000E+00 -0.12306547673E+04  0.12306547673E+04  0.00000000000E+00 0. -1.
         23    2    1    2    0    0  0.00000000000E+00  0.00000000000E+00 -0.12288912752E+04  0.12324182594E+04  0.93171882646E+02 0.  0.
          2    1    3    3  502    0  0.25049870075E+02  0.11861960026E+02 -0.11097300612E+04  0.11100761284E+04  0.00000000000E+00 0. -1.
         -2    1    3    3    0  502 -0.25049870075E+02 -0.11861960026E+02 -0.11916121403E+03  0.12234213099E+03  0.00000000000E+00 0.  1.
<mgrwt>
<rscale>  0 0.93171883E+02</rscale>
<asrwt>0</asrwt>
<pdfrwt beam="2">  1        2 0.18933139E+00 0.93171883E+02</pdfrwt>
<pdfrwt beam="1">  1       -2 0.27130663E-03 0.93171883E+02</pdfrwt>
<totfact> 0.23417085E+05</totfact>
</mgrwt>
</event>
<event>
 5    1  0.3858846E+001  0.9278210E+02  0.7546771E-02  0.1296251E+00
          2   -1    0    0  501    0  0.00000000000E+00  0.00000000000E+00  0.19947774418E+04  0.19947774418E+04  0.00000000000E+00 0. -1.
         -2   -1    0    0    0  501 -0.00000000000E+00 -0.00000000000E+00 -0.10788821004E+01  0.10788821004E+01  0.00000000000E+00 0.  1.
         23    2    1    2    0    0  0.00000000000E+00  0.00000000000E+00  0.19936985597E+04  0.19958563239E+04  0.92782103365E+02 0.  0.
          2    1    3    3  502    0 -0.14600757010E+02 -0.23710288611E+02  0.17950198744E+04  0.17952358367E+04  0.00000000000E+00 0. -1.
         -2    1    3    3    0  502  0.14600757010E+02  0.23710288611E+02  0.19867868538E+03  0.20062048728E+03  0.00000000000E+00 0.  1.
<mgrwt>
<rscale>  0 0.92782103E+02</rscale>
<asrwt>0</asrwt>
<pdfrwt beam="1">  1        2 0.30688589E+00 0.92782103E+02</pdfrwt>
<pdfrwt beam="2">  1       -2 0.16598346E-03 0.92782103E+02</pdfrwt>
<totfact> 0.18839151E+05</totfact>
</mgrwt>
</event>
<event>
 5    1  0.3858846E+001  0.9492691E+02  0.7546771E-02  0.1291341E+00
          1   -1    0    0  501    0  0.00000000000E+00  0.00000000000E+00  0.31872559647E+02  0.31872559647E+02  0.00000000000E+00 0. -1.
         -1   -1    0    0    0  501 -0.00000000000E+00 -0.00000000000E+00 -0.70680854418E+02  0.70680854418E+02  0.00000000000E+00 0.  1.
         23    2    1    2    0    0  0.00000000000E+00  0.00000000000E+00 -0.38808294771E+02  0.10255341407E+03  0.94926913957E+02 0.  0.
          2    1    3    3  502    0 -0.39111682725E+02 -0.70145481969E+01 -0.47448348009E+02  0.61889202134E+02  0.00000000000E+00 0. -1.
         -2    1    3    3    0  502  0.39111682725E+02  0.70145481969E+01  0.86400532386E+01  0.40664211931E+02  0.00000000000E+00 0.  1.
<mgrwt>
<rscale>  0 0.94926914E+02</rscale>
<asrwt>0</asrwt>
<pdfrwt beam="1">  1        1 0.49034708E-02 0.94926914E+02</pdfrwt>
<pdfrwt beam="2">  1       -1 0.10873977E-01 0.94926914E+02</pdfrwt>
<totfact> 0.77954194E+04</totfact>
</mgrwt>
</event>
<event>
 5    1  0.3858846E+001  0.9316407E+02  0.7546771E-02  0.1295365E+00
         -1   -1    0    0    0  501 -0.00000000000E+00  0.00000000000E+00  0.65564356267E+01  0.65564356267E+01  0.00000000000E+00 0.  1.
          1   -1    0    0  501    0  0.00000000000E+00 -0.00000000000E+00 -0.33095509350E+03  0.33095509350E+03  0.00000000000E+00 0. -1.
         23    2    1    2    0    0  0.00000000000E+00  0.00000000000E+00 -0.32439865787E+03  0.33751152912E+03  0.93164065301E+02 0.  0.
          2    1    3    3  502    0 -0.26289154144E+02  0.34437973682E+02 -0.22418907615E+03  0.22833710938E+03  0.00000000000E+00 0. -1.
         -2    1    3    3    0  502  0.26289154144E+02 -0.34437973682E+02 -0.10020958172E+03  0.10917441974E+03  0.00000000000E+00 0.  1.
<mgrwt>
<rscale>  0 0.93164065E+02</rscale>
<asrwt>0</asrwt>
<pdfrwt beam="2">  1        1 0.50916162E-01 0.93164065E+02</pdfrwt>
<pdfrwt beam="1">  1       -1 0.10086825E-02 0.93164065E+02</pdfrwt>
<totfact> 0.12321339E+05</totfact>
</mgrwt>
</event>
<event>
 5    1  0.3858846E+001  0.9118053E+02  0.7546771E-02  0.1300018E+00
          1   -1    0    0  501    0  0.00000000000E+00  0.00000000000E+00  0.19625339751E+04  0.19625339751E+04  0.00000000000E+00 0. -1.
         -1   -1    0    0    0  501 -0.00000000000E+00 -0.00000000000E+00 -0.10590758924E+01  0.10590758924E+01  0.00000000000E+00 0.  1.
         23    2    1    2    0    0  0.00000000000E+00  0.00000000000E+00  0.19614748992E+04  0.19635930510E+04  0.91180533473E+02 0.  0.
          2    1    3    3  502    0  0.45130933692E+02 -0.53776124879E+00  0.84220376022E+03  0.84341227409E+03  0.00000000000E+00 0. -1.
         -2    1    3    3    0  502 -0.45130933692E+02  0.53776124879E+00  0.11192711390E+04  0.11201807769E+04  0.00000000000E+00 0.  1.
<mgrwt>
<rscale>  0 0.91180533E+02</rscale>
<asrwt>0</asrwt>
<pdfrwt beam="1">  1        1 0.30192539E+00 0.91180533E+02</pdfrwt>
<pdfrwt beam="2">  1       -1 0.16293632E-03 0.91180533E+02</pdfrwt>
<totfact> 0.81986635E+04</totfact>
</mgrwt>
</event>
<event>
 5    1  0.3858846E+001  0.9374442E+02  0.7546771E-02  0.1294029E+00
         -1   -1    0    0    0  501 -0.00000000000E+00  0.00000000000E+00  0.69012241326E+01  0.69012241326E+01  0.00000000000E+00 0.  1.
          1   -1    0    0  501    0  0.00000000000E+00 -0.00000000000E+00 -0.31834990400E+03  0.31834990400E+03  0.00000000000E+00 0. -1.
         23    2    1    2    0    0  0.00000000000E+00  0.00000000000E+00 -0.31144867987E+03  0.32525112813E+03  0.93744419356E+02 0.  0.
          2    1    3    3  502    0 -0.37019127157E+02  0.28747353485E+02 -0.15426081286E+03  0.16122414363E+03  0.00000000000E+00 0. -1.
         -2    1    3    3    0  502  0.37019127157E+02 -0.28747353485E+02 -0.15718786701E+03  0.16402698450E+03  0.00000000000E+00 0.  1.
<mgrwt>
<rscale>  0 0.93744419E+02</rscale>
<asrwt>0</asrwt>
<pdfrwt beam="2">  1        1 0.48976907E-01 0.93744419E+02</pdfrwt>
<pdfrwt beam="1">  1       -1 0.10617268E-02 0.93744419E+02</pdfrwt>
<totfact> 0.12031403E+05</totfact>
</mgrwt>
</event>
<event>
 5    1  0.3858846E+001  0.9449578E+02  0.7546771E-02  0.1292316E+00
          2   -1    0    0  501    0  0.00000000000E+00  0.00000000000E+00  0.21766049143E+02  0.21766049143E+02  0.00000000000E+00 0. -1.
         -2   -1    0    0    0  501 -0.00000000000E+00 -0.00000000000E+00 -0.10256169420E+03  0.10256169420E+03  0.00000000000E+00 0.  1.
         23    2    1    2    0    0  0.00000000000E+00  0.00000000000E+00 -0.80795645053E+02  0.12432774334E+03  0.94495775059E+02 0.  0.
          2    1    3    3  502    0  0.53163396765E+01 -0.45542901800E+02 -0.25399836440E+02  0.52417278288E+02  0.00000000000E+00 0. -1.
         -2    1    3    3    0  502 -0.53163396765E+01  0.45542901800E+02 -0.55395808612E+02  0.71910465050E+02  0.00000000000E+00 0.  1.
<mgrwt>
<rscale>  0 0.94495775E+02</rscale>
<asrwt>0</asrwt>
<pdfrwt beam="1">  1        2 0.33486229E-02 0.94495775E+02</pdfrwt>
<pdfrwt beam="2">  1       -2 0.15778722E-01 0.94495775E+02</pdfrwt>
<totfact> 0.72449121E+04</totfact>
</mgrwt>
</event>
<event>
 5    1  0.3858846E+001  0.9166177E+02  0.7546771E-02  0.1298877E+00
          2   -1    0    0  501    0  0.00000000000E+00  0.00000000000E+00  0.89413239337E+03  0.89413239337E+03  0.00000000000E+00 0. -1.
         -2   -1    0    0    0  501 -0.00000000000E+00 -0.00000000000E+00 -0.23491711458E+01  0.23491711458E+01  0.00000000000E+00 0.  1.
         23    2    1    2    0    0  0.00000000000E+00  0.00000000000E+00  0.89178322223E+03  0.89648156452E+03  0.91661769981E+02 0.  0.
          2    1    3    3  502    0 -0.38526883354E+02  0.23018353808E+02  0.35503212798E+03  0.35785748176E+03  0.00000000000E+00 0.  1.
         -2    1    3    3    0  502  0.38526883354E+02 -0.23018353808E+02  0.53675109425E+03  0.53862408276E+03  0.00000000000E+00 0. -1.
<mgrwt>
<rscale>  0 0.91661770E+02</rscale>
<asrwt>0</asrwt>
<pdfrwt beam="1">  1        2 0.13755856E+00 0.91661770E+02</pdfrwt>
<pdfrwt beam="2">  1       -2 0.36141166E-03 0.91661770E+02</pdfrwt>
<totfact> 0.24431750E+05</totfact>
</mgrwt>
</event>
<event>
 5    1  0.3858846E+001  0.9141789E+02  0.7546771E-02  0.1299454E+00
          1   -1    0    0  501    0  0.00000000000E+00  0.00000000000E+00  0.22915314914E+01  0.22915314914E+01  0.00000000000E+00 0. -1.
         -1   -1    0    0    0  501 -0.00000000000E+00 -0.00000000000E+00 -0.91175165096E+03  0.91175165096E+03  0.00000000000E+00 0.  1.
         23    2    1    2    0    0  0.00000000000E+00  0.00000000000E+00 -0.90946011946E+03  0.91404318245E+03  0.91417889289E+02 0.  0.
          2    1    3    3  502    0  0.42206049512E+02  0.10638615388E+02 -0.31518829447E+03  0.31817949608E+03  0.00000000000E+00 0. -1.
         -2    1    3    3    0  502 -0.42206049512E+02 -0.10638615388E+02 -0.59427182499E+03  0.59586368637E+03  0.00000000000E+00 0.  1.
<mgrwt>
<rscale>  0 0.91417889E+02</rscale>
<asrwt>0</asrwt>
<pdfrwt beam="1">  1        1 0.35254307E-03 0.91417889E+02</pdfrwt>
<pdfrwt beam="2">  1       -1 0.14026958E+00 0.91417889E+02</pdfrwt>
<totfact> 0.28335537E+04</totfact>
</mgrwt>
</event>
<event>
 5    1  0.3858846E+001  0.8888903E+02  0.7546771E-02  0.1305565E+00
         -2   -1    0    0    0  501 -0.00000000000E+00  0.00000000000E+00  0.70235599804E+00  0.70235599804E+00  0.00000000000E+00 0.  1.
          2   -1    0    0  501    0  0.00000000000E+00 -0.00000000000E+00 -0.28124125038E+04  0.28124125038E+04  0.00000000000E+00 0. -1.
         23    2    1    2    0    0  0.00000000000E+00  0.00000000000E+00 -0.28117101478E+04  0.28131148598E+04  0.88889027241E+02 0.  0.
          2    1    3    3  502    0 -0.39784696958E+02 -0.75366519528E+01 -0.19856968742E+04  0.19861096897E+04  0.00000000000E+00 0. -1.
         -2    1    3    3    0  502  0.39784696958E+02  0.75366519528E+01 -0.82601327361E+03  0.82700517013E+03  0.00000000000E+00 0.  1.
<mgrwt>
<rscale>  0 0.88889027E+02</rscale>
<asrwt>0</asrwt>
<pdfrwt beam="2">  1        2 0.43267675E+00 0.88889027E+02</pdfrwt>
<pdfrwt beam="1">  1       -2 0.10805529E-03 0.88889027E+02</pdfrwt>
<totfact> 0.12705738E+05</totfact>
</mgrwt>
</event>
<event>
 5    1  0.3858846E+001  0.8675739E+02  0.7546771E-02  0.1310900E+00
          2   -1    0    0  501    0  0.00000000000E+00  0.00000000000E+00  0.14197429925E+04  0.14197429925E+04  0.00000000000E+00 0.  1.
         -2   -1    0    0    0  501 -0.00000000000E+00 -0.00000000000E+00 -0.13253886404E+01  0.13253886404E+01  0.00000000000E+00 0. -1.
         23    2    1    2    0    0  0.00000000000E+00  0.00000000000E+00  0.14184176039E+04  0.14210683812E+04  0.86757391260E+02 0.  0.
          2    1    3    3  502    0  0.37690712883E+02  0.57388707537E+01  0.37026701970E+03  0.37222465039E+03  0.00000000000E+00 0. -1.
         -2    1    3    3    0  502 -0.37690712883E+02 -0.57388707537E+01  0.10481505842E+04  0.10488437308E+04  0.00000000000E+00 0.  1.
<mgrwt>
<rscale>  0 0.86757391E+02</rscale>
<asrwt>0</asrwt>
<pdfrwt beam="1">  1        2 0.21842078E+00 0.86757391E+02</pdfrwt>
<pdfrwt beam="2">  1       -2 0.20390708E-03 0.86757391E+02</pdfrwt>
<totfact> 0.27395057E+05</totfact>
</mgrwt>
</event>
<event>
 5    1  0.3858846E+001  0.9877820E+02  0.7546771E-02  0.1282886E+00
          1   -1    0    0  501    0  0.00000000000E+00  0.00000000000E+00  0.14842513742E+04  0.14842513742E+04  0.00000000000E+00 0. -1.
         -1   -1    0    0    0  501 -0.00000000000E+00 -0.00000000000E+00 -0.16434433337E+01  0.16434433337E+01  0.00000000000E+00 0.  1.
         23    2    1    2    0    0  0.00000000000E+00  0.00000000000E+00  0.14826079309E+04  0.14858948176E+04  0.98778196512E+02 0.  0.
          2    1    3    3  502    0 -0.21005104476E+02  0.63483772953E+01  0.14068949734E+04  0.14070660903E+04  0.00000000000E+00 0. -1.
         -2    1    3    3    0  502  0.21005104476E+02 -0.63483772953E+01  0.75712957489E+02  0.78828727251E+02  0.00000000000E+00 0.  1.
<mgrwt>
<rscale>  0 0.98778197E+02</rscale>
<asrwt>0</asrwt>
<pdfrwt beam="1">  1        1 0.22834529E+00 0.98778197E+02</pdfrwt>
<pdfrwt beam="2">  1       -1 0.25283862E-03 0.98778197E+02</pdfrwt>
<totfact> 0.90095772E+04</totfact>
</mgrwt>
</event>
<event>
 5    1  0.3858846E+001  0.9033514E+02  0.7546771E-02  0.1302042E+00
         -2   -1    0    0    0  501 -0.00000000000E+00  0.00000000000E+00  0.61286766572E+02  0.61286766572E+02  0.00000000000E+00 0.  1.
          2   -1    0    0  501    0  0.00000000000E+00 -0.00000000000E+00 -0.33287928401E+02  0.33287928401E+02  0.00000000000E+00 0. -1.
         23    2    1    2    0    0  0.00000000000E+00  0.00000000000E+00  0.27998838171E+02  0.94574694973E+02  0.90335142610E+02 0.  0.
          2    1    3    3  502    0 -0.21376854115E+02  0.42179981404E+01 -0.27421876584E+02  0.35024573025E+02  0.00000000000E+00 0. -1.
         -2    1    3    3    0  502  0.21376854115E+02 -0.42179981404E+01  0.55420714755E+02  0.59550121949E+02  0.00000000000E+00 0.  1.
<mgrwt>
<rscale>  0 0.90335143E+02</rscale>
<asrwt>0</asrwt>
<pdfrwt beam="2">  1        2 0.51212198E-02 0.90335143E+02</pdfrwt>
<pdfrwt beam="1">  1       -2 0.94287333E-02 0.90335143E+02</pdfrwt>
<totfact> 0.93444883E+04</totfact>
</mgrwt>
</event>
<event>
 5    1  0.3858846E+001  0.8765940E+02  0.7546771E-02  0.1308621E+00
         -1   -1    0    0    0  501 -0.00000000000E+00  0.00000000000E+00  0.93296954416E+01  0.93296954416E+01  0.00000000000E+00 0.  1.
          1   -1    0    0  501    0  0.00000000000E+00 -0.00000000000E+00 -0.20590626920E+03  0.20590626920E+03  0.00000000000E+00 0. -1.
         23    2    1    2    0    0  0.00000000000E+00  0.00000000000E+00 -0.19657657376E+03  0.21523596464E+03  0.87659404086E+02 0.  0.
          2    1    3    3  502    0 -0.22520170748E+02 -0.17662491541E+02 -0.16781912803E+02  0.33177617385E+02  0.00000000000E+00 0.  1.
         -2    1    3    3    0  502  0.22520170748E+02  0.17662491541E+02 -0.17979466096E+03  0.18205834726E+03  0.00000000000E+00 0. -1.
<mgrwt>
<rscale>  0 0.87659404E+02</rscale>
<asrwt>0</asrwt>
<pdfrwt beam="2">  1        1 0.31677885E-01 0.87659404E+02</pdfrwt>
<pdfrwt beam="1">  1       -1 0.14353379E-02 0.87659404E+02</pdfrwt>
<totfact> 0.13228137E+05</totfact>
</mgrwt>
</event>
<event>
 5    1  0.3858846E+001  0.9168274E+02  0.7546771E-02  0.1298827E+00
         -2   -1    0    0    0  501 -0.00000000000E+00  0.00000000000E+00  0.46721916082E+01  0.46721916082E+01  0.00000000000E+00 0.  1.
          2   -1    0    0  501    0  0.00000000000E+00 -0.00000000000E+00 -0.44977419792E+03  0.44977419792E+03  0.00000000000E+00 0. -1.
         23    2    1    2    0    0  0.00000000000E+00  0.00000000000E+00 -0.44510200631E+03  0.45444638953E+03  0.91682740647E+02 0.  0.
          2    1    3    3  502    0  0.20164646353E+02 -0.26817590006E+02 -0.37737518251E+03  0.37886386008E+03  0.00000000000E+00 0. -1.
         -2    1    3    3    0  502 -0.20164646353E+02  0.26817590006E+02 -0.67726823801E+02  0.75582529452E+02  0.00000000000E+00 0.  1.
<mgrwt>
<rscale>  0 0.91682741E+02</rscale>
<asrwt>0</asrwt>
<pdfrwt beam="2">  1        2 0.69196046E-01 0.91682741E+02</pdfrwt>
<pdfrwt beam="1">  1       -2 0.71879855E-03 0.91682741E+02</pdfrwt>
<totfact> 0.20497381E+05</totfact>
</mgrwt>
</event>
<event>
 5    1  0.3858846E+001  0.9398036E+02  0.7546771E-02  0.1293489E+00
         -1   -1    0    0    0  501 -0.00000000000E+00  0.00000000000E+00  0.15966336541E+02  0.15966336541E+02  0.00000000000E+00 0.  1.
          1   -1    0    0  501    0  0.00000000000E+00 -0.00000000000E+00 -0.13829577276E+03  0.13829577276E+03  0.00000000000E+00 0. -1.
         23    2    1    2    0    0  0.00000000000E+00  0.00000000000E+00 -0.12232943622E+03  0.15426210931E+03  0.93980356461E+02 0.  0.
          2    1    3    3  502    0  0.10156363226E+02 -0.31397875509E+02 -0.11607533767E+03  0.12067502772E+03  0.00000000000E+00 0. -1.
         -2    1    3    3    0  502 -0.10156363226E+02  0.31397875509E+02 -0.62540985517E+01  0.33587081582E+02  0.00000000000E+00 0.  1.
<mgrwt>
<rscale>  0 0.93980356E+02</rscale>
<asrwt>0</asrwt>
<pdfrwt beam="2">  1        1 0.21276273E-01 0.93980356E+02</pdfrwt>
<pdfrwt beam="1">  1       -1 0.24563595E-02 0.93980356E+02</pdfrwt>
<totfact> 0.10177996E+05</totfact>
</mgrwt>
</event>
<event>
 5    1  0.3858846E+001  0.9005982E+02  0.7546771E-02  0.1302707E+00
          1   -1    0    0  501    0  0.00000000000E+00  0.00000000000E+00  0.18732795727E+01  0.18732795727E+01  0.00000000000E+00 0. -1.
         -1   -1    0    0    0  501 -0.00000000000E+00 -0.00000000000E+00 -0.10824294185E+04  0.10824294185E+04  0.00000000000E+00 0.  1.
         23    2    1    2    0    0  0.00000000000E+00  0.00000000000E+00 -0.10805561389E+04  0.10843026981E+04  0.90059822753E+02 0.  0.
          2    1    3    3  502    0  0.17263198545E+02 -0.21737557409E+02 -0.11339040674E+03  0.11673869867E+03  0.00000000000E+00 0. -1.
         -2    1    3    3    0  502 -0.17263198545E+02  0.21737557409E+02 -0.96716573220E+03  0.96756399942E+03  0.00000000000E+00 0.  1.
<mgrwt>
<rscale>  0 0.90059823E+02</rscale>
<asrwt>0</asrwt>
<pdfrwt beam="1">  1        1 0.28819639E-03 0.90059823E+02</pdfrwt>
<pdfrwt beam="2">  1       -1 0.16652787E+00 0.90059823E+02</pdfrwt>
<totfact> 0.23967677E+04</totfact>
</mgrwt>
</event>
<event>
 5    1  0.3858846E+001  0.9192829E+02  0.7546771E-02  0.1298248E+00
         -1   -1    0    0    0  501 -0.00000000000E+00  0.00000000000E+00  0.21815732610E+03  0.21815732610E+03  0.00000000000E+00 0.  1.
          1   -1    0    0  501    0  0.00000000000E+00 -0.00000000000E+00 -0.96843073174E+01  0.96843073174E+01  0.00000000000E+00 0. -1.
         23    2    1    2    0    0  0.00000000000E+00  0.00000000000E+00  0.20847301878E+03  0.22784163341E+03  0.91928289214E+02 0.  0.
          2    1    3    3  502    0 -0.41255330269E+02 -0.60254303997E+01  0.56279881364E+02  0.70040938982E+02  0.00000000000E+00 0. -1.
         -2    1    3    3    0  502  0.41255330269E+02  0.60254303997E+01  0.15219313742E+03  0.15780069443E+03  0.00000000000E+00 0.  1.
<mgrwt>
<rscale>  0 0.91928289E+02</rscale>
<asrwt>0</asrwt>
<pdfrwt beam="2">  1        1 0.14898936E-02 0.91928289E+02</pdfrwt>
<pdfrwt beam="1">  1       -1 0.33562662E-01 0.91928289E+02</pdfrwt>
<totfact> 0.66230588E+04</totfact>
</mgrwt>
</event>
<event>
 5    1  0.3858846E+001  0.9074403E+02  0.7546771E-02  0.1301060E+00
          1   -1    0    0  501    0  0.00000000000E+00  0.00000000000E+00  0.49386033877E+03  0.49386033877E+03  0.00000000000E+00 0. -1.
         -1   -1    0    0    0  501 -0.00000000000E+00 -0.00000000000E+00 -0.41684249902E+01  0.41684249902E+01  0.00000000000E+00 0.  1.
         23    2    1    2    0    0  0.00000000000E+00  0.00000000000E+00  0.48969191378E+03  0.49802876376E+03  0.90744030719E+02 0.  0.
          2    1    3    3  502    0  0.38204057113E+02 -0.21572318377E+02  0.30830740615E+03  0.31141350578E+03  0.00000000000E+00 0. -1.
         -2    1    3    3    0  502 -0.38204057113E+02  0.21572318377E+02  0.18138450763E+03  0.18661525798E+03  0.00000000000E+00 0.  1.
<mgrwt>
<rscale>  0 0.90744031E+02</rscale>
<asrwt>0</asrwt>
<pdfrwt beam="1">  1        1 0.75978467E-01 0.90744031E+02</pdfrwt>
<pdfrwt beam="2">  1       -1 0.64129654E-03 0.90744031E+02</pdfrwt>
<totfact> 0.14082337E+05</totfact>
</mgrwt>
</event>
<event>
 5    1  0.3858846E+001  0.9033849E+02  0.7546771E-02  0.1302034E+00
         -3   -1    0    0    0  501 -0.00000000000E+00  0.00000000000E+00  0.59111772874E+01  0.59111772874E+01  0.00000000000E+00 0.  1.
          3   -1    0    0  501    0  0.00000000000E+00 -0.00000000000E+00 -0.34515301562E+03  0.34515301562E+03  0.00000000000E+00 0. -1.
         23    2    1    2    0    0  0.00000000000E+00  0.00000000000E+00 -0.33924183833E+03  0.35106419290E+03  0.90338489396E+02 0.  0.
          2    1    3    3  502    0  0.31423213470E+02 -0.13520064112E+02 -0.54994199552E+02  0.64765519088E+02  0.00000000000E+00 0.  1.
         -2    1    3    3    0  502 -0.31423213470E+02  0.13520064112E+02 -0.28424763878E+03  0.28629867382E+03  0.00000000000E+00 0. -1.
<mgrwt>
<rscale>  0 0.90338489E+02</rscale>
<asrwt>0</asrwt>
<pdfrwt beam="2">  1        3 0.53100468E-01 0.90338489E+02</pdfrwt>
<pdfrwt beam="1">  1       -3 0.90941183E-03 0.90338489E+02</pdfrwt>
<totfact> 0.22735957E+04</totfact>
</mgrwt>
</event>
<event>
 5    1  0.3858846E+001  0.9177159E+02  0.7546771E-02  0.1298617E+00
          1   -1    0    0  501    0  0.00000000000E+00  0.00000000000E+00  0.10350914668E+01  0.10350914668E+01  0.00000000000E+00 0. -1.
         -1   -1    0    0    0  501 -0.00000000000E+00 -0.00000000000E+00 -0.20341258011E+04  0.20341258011E+04  0.00000000000E+00 0.  1.
         23    2    1    2    0    0  0.00000000000E+00  0.00000000000E+00 -0.20330907096E+04  0.20351608925E+04  0.91771591665E+02 0.  0.
          2    1    3    3  502    0 -0.30014196971E+02 -0.28728255627E+02 -0.58462298021E+03  0.58609742679E+03  0.00000000000E+00 0. -1.
         -2    1    3    3    0  502  0.30014196971E+02  0.28728255627E+02 -0.14484677294E+04  0.14490634658E+04  0.00000000000E+00 0.  1.
<mgrwt>
<rscale>  0 0.91771592E+02</rscale>
<asrwt>0</asrwt>
<pdfrwt beam="1">  1        1 0.15924582E-03 0.91771592E+02</pdfrwt>
<pdfrwt beam="2">  1       -1 0.31294051E+00 0.91771592E+02</pdfrwt>
<totfact> 0.65046862E+03</totfact>
</mgrwt>
</event>
<event>
 5    1  0.3858846E+001  0.8955951E+02  0.7546771E-02  0.1303922E+00
         -1   -1    0    0    0  501 -0.00000000000E+00  0.00000000000E+00  0.27999570161E+02  0.27999570161E+02  0.00000000000E+00 0.  1.
          1   -1    0    0  501    0  0.00000000000E+00 -0.00000000000E+00 -0.71616330410E+02  0.71616330410E+02  0.00000000000E+00 0. -1.
         23    2    1    2    0    0  0.00000000000E+00  0.00000000000E+00 -0.43616760249E+02  0.99615900572E+02  0.89559510227E+02 0.  0.
          2    1    3    3  502    0  0.32686987147E+01 -0.44170358981E+02 -0.14470532236E+02  0.46595078141E+02  0.00000000000E+00 0. -1.
         -2    1    3    3    0  502 -0.32686987147E+01  0.44170358981E+02 -0.29146228013E+02  0.53020822430E+02  0.00000000000E+00 0.  1.
<mgrwt>
<rscale>  0 0.89559510E+02</rscale>
<asrwt>0</asrwt>
<pdfrwt beam="2">  1        1 0.11017897E-01 0.89559510E+02</pdfrwt>
<pdfrwt beam="1">  1       -1 0.43076261E-02 0.89559510E+02</pdfrwt>
<totfact> 0.10401102E+05</totfact>
</mgrwt>
</event>
<event>
 5    1  0.3858846E+001  0.9064543E+02  0.7546771E-02  0.1301296E+00
         -1   -1    0    0    0  501 -0.00000000000E+00  0.00000000000E+00  0.34519231915E+02  0.34519231915E+02  0.00000000000E+00 0.  1.
          1   -1    0    0  501    0  0.00000000000E+00 -0.00000000000E+00 -0.59507368477E+02  0.59507368477E+02  0.00000000000E+00 0. -1.
         23    2    1    2    0    0  0.00000000000E+00  0.00000000000E+00 -0.24988136562E+02  0.94026600392E+02  0.90645433489E+02 0.  0.
          2    1    3    3  502    0 -0.35498497721E+01  0.44452290431E+02 -0.40963432398E+01  0.44781554081E+02  0.00000000000E+00 0.  1.
         -2    1    3    3    0  502  0.35498497721E+01 -0.44452290431E+02 -0.20891793322E+02  0.49245046311E+02  0.00000000000E+00 0. -1.
<mgrwt>
<rscale>  0 0.90645433E+02</rscale>
<asrwt>0</asrwt>
<pdfrwt beam="2">  1        1 0.91549798E-02 0.90645433E+02</pdfrwt>
<pdfrwt beam="1">  1       -1 0.53106510E-02 0.90645433E+02</pdfrwt>
<totfact> 0.97823525E+04</totfact>
</mgrwt>
</event>
<event>
 5    1  0.3858846E+001  0.9865498E+02  0.7546771E-02  0.1283150E+00
         -1   -1    0    0    0  501 -0.00000000000E+00  0.00000000000E+00  0.15365980897E+03  0.15365980897E+03  0.00000000000E+00 0.  1.
          1   -1    0    0  501    0  0.00000000000E+00 -0.00000000000E+00 -0.15834988747E+02  0.15834988747E+02  0.00000000000E+00 0. -1.
         23    2    1    2    0    0  0.00000000000E+00  0.00000000000E+00  0.13782482022E+03  0.16949479771E+03  0.98654981544E+02 0.  0.
          2    1    3    3  502    0  0.21796954371E+01  0.45557099512E+02  0.36633021885E+02  0.58499390429E+02  0.00000000000E+00 0.  1.
         -2    1    3    3    0  502 -0.21796954371E+01 -0.45557099512E+02  0.10119179833E+03  0.11099540728E+03  0.00000000000E+00 0. -1.
<mgrwt>
<rscale>  0 0.98654982E+02</rscale>
<asrwt>0</asrwt>
<pdfrwt beam="2">  1        1 0.24361522E-02 0.98654982E+02</pdfrwt>
<pdfrwt beam="1">  1       -1 0.23639970E-01 0.98654982E+02</pdfrwt>
<totfact> 0.60568815E+04</totfact>
</mgrwt>
</event>
<event>
 5    1  0.3858846E+001  0.9032318E+02  0.7546771E-02  0.1302071E+00
          4   -1    0    0  501    0  0.00000000000E+00  0.00000000000E+00  0.16860404394E+01  0.16860404394E+01  0.00000000000E+00 0. -1.
         -4   -1    0    0    0  501 -0.00000000000E+00 -0.00000000000E+00 -0.12096798691E+04  0.12096798691E+04  0.00000000000E+00 0.  1.
         23    2    1    2    0    0  0.00000000000E+00  0.00000000000E+00 -0.12079938286E+04  0.12113659095E+04  0.90323179263E+02 0.  0.
          2    1    3    3  502    0 -0.14539601123E+02 -0.31735067421E+02 -0.21970418283E+03  0.22245997946E+03  0.00000000000E+00 0. -1.
         -2    1    3    3    0  502  0.14539601123E+02  0.31735067421E+02 -0.98828964582E+03  0.98890593007E+03  0.00000000000E+00 0.  1.
<mgrwt>
<rscale>  0 0.90323179E+02</rscale>
<asrwt>0</asrwt>
<pdfrwt beam="1">  1        4 0.25939098E-03 0.90323179E+02</pdfrwt>
<pdfrwt beam="2">  1       -4 0.18610449E+00 0.90323179E+02</pdfrwt>
<totfact> 0.58219938E+03</totfact>
</mgrwt>
</event>
<event>
 5    1  0.3858846E+001  0.8820543E+02  0.7546771E-02  0.1307257E+00
         -2   -1    0    0    0  501 -0.00000000000E+00  0.00000000000E+00  0.33976949805E+02  0.33976949805E+02  0.00000000000E+00 0.  1.
          2   -1    0    0  501    0  0.00000000000E+00 -0.00000000000E+00 -0.57246148061E+02  0.57246148061E+02  0.00000000000E+00 0. -1.
         23    2    1    2    0    0  0.00000000000E+00  0.00000000000E+00 -0.23269198256E+02  0.91223097866E+02  0.88205430654E+02 0.  0.
          2    1    3    3  502    0  0.33492851384E+02 -0.68236855220E+01 -0.40457689245E+02  0.52963746063E+02  0.00000000000E+00 0. -1.
         -2    1    3    3    0  502 -0.33492851384E+02  0.68236855220E+01  0.17188490989E+02  0.38259351803E+02  0.00000000000E+00 0.  1.
<mgrwt>
<rscale>  0 0.88205431E+02</rscale>
<asrwt>0</asrwt>
<pdfrwt beam="2">  1        2 0.88070997E-02 0.88205431E+02</pdfrwt>
<pdfrwt beam="1">  1       -2 0.52272230E-02 0.88205431E+02</pdfrwt>
<totfact> 0.11499467E+05</totfact>
</mgrwt>
</event>
<event>
 5    1  0.3858846E+001  0.9186006E+02  0.7546771E-02  0.1298409E+00
          1   -1    0    0  501    0  0.00000000000E+00  0.00000000000E+00  0.22894990672E+03  0.22894990672E+03  0.00000000000E+00 0. -1.
         -1   -1    0    0    0  501 -0.00000000000E+00 -0.00000000000E+00 -0.92141014949E+01  0.92141014949E+01  0.00000000000E+00 0.  1.
         23    2    1    2    0    0  0.00000000000E+00  0.00000000000E+00  0.21973580523E+03  0.23816400822E+03  0.91860060479E+02 0.  0.
          2    1    3    3  502    0 -0.32947479619E+02  0.20500438087E+02  0.46161547214E+02  0.60304998269E+02  0.00000000000E+00 0.  1.
         -2    1    3    3    0  502  0.32947479619E+02 -0.20500438087E+02  0.17357425802E+03  0.17785900995E+03  0.00000000000E+00 0. -1.
<mgrwt>
<rscale>  0 0.91860060E+02</rscale>
<asrwt>0</asrwt>
<pdfrwt beam="1">  1        1 0.35223058E-01 0.91860060E+02</pdfrwt>
<pdfrwt beam="2">  1       -1 0.14175543E-02 0.91860060E+02</pdfrwt>
<totfact> 0.11915942E+05</totfact>
</mgrwt>
</event>
<event>
 5    1  0.3858846E+001  0.9076741E+02  0.7546771E-02  0.1301004E+00
          1   -1    0    0  501    0  0.00000000000E+00  0.00000000000E+00  0.62393425735E+02  0.62393425735E+02  0.00000000000E+00 0. -1.
         -1   -1    0    0    0  501 -0.00000000000E+00 -0.00000000000E+00 -0.33011178220E+02  0.33011178220E+02  0.00000000000E+00 0.  1.
         23    2    1    2    0    0  0.00000000000E+00  0.00000000000E+00  0.29382247515E+02  0.95404603954E+02  0.90767405971E+02 0.  0.
          2    1    3    3  502    0 -0.27721160707E+02 -0.24964599992E+01  0.52369181840E+02  0.59306207686E+02  0.00000000000E+00 0. -1.
         -2    1    3    3    0  502  0.27721160707E+02  0.24964599992E+01 -0.22986934325E+02  0.36098396269E+02  0.00000000000E+00 0.  1.
<mgrwt>
<rscale>  0 0.90767406E+02</rscale>
<asrwt>0</asrwt>
<pdfrwt beam="1">  1        1 0.95989886E-02 0.90767406E+02</pdfrwt>
<pdfrwt beam="2">  1       -1 0.50786428E-02 0.90767406E+02</pdfrwt>
<totfact> 0.98159814E+04</totfact>
</mgrwt>
</event>
<event>
 5    1  0.3858846E+001  0.9027261E+02  0.7546771E-02  0.1302193E+00
         -2   -1    0    0    0  501 -0.00000000000E+00  0.00000000000E+00  0.63469610336E+03  0.63469610336E+03  0.00000000000E+00 0. -1.
          2   -1    0    0  501    0  0.00000000000E+00 -0.00000000000E+00 -0.32098607862E+01  0.32098607862E+01  0.00000000000E+00 0.  1.
         23    2    1    2    0    0  0.00000000000E+00  0.00000000000E+00  0.63148624257E+03  0.63790596414E+03  0.90272612310E+02 0.  0.
          2    1    3    3  502    0 -0.37678013248E+01 -0.37640098609E+02  0.48974302772E+03  0.49120179820E+03  0.00000000000E+00 0. -1.
         -2    1    3    3    0  502  0.37678013248E+01  0.37640098609E+02  0.14174321485E+03  0.14670416594E+03  0.00000000000E+00 0.  1.
<mgrwt>
<rscale>  0 0.90272612E+02</rscale>
<asrwt>0</asrwt>
<pdfrwt beam="2">  1        2 0.49382524E-03 0.90272612E+02</pdfrwt>
<pdfrwt beam="1">  1       -2 0.97645455E-01 0.90272612E+02</pdfrwt>
<totfact> 0.30534674E+04</totfact>
</mgrwt>
</event>
<event>
 5    1  0.3858846E+001  0.9040505E+02  0.7546771E-02  0.1301874E+00
         -1   -1    0    0    0  501 -0.00000000000E+00  0.00000000000E+00  0.50159789921E+03  0.50159789921E+03  0.00000000000E+00 0.  1.
          1   -1    0    0  501    0  0.00000000000E+00 -0.00000000000E+00 -0.40735188082E+01  0.40735188082E+01  0.00000000000E+00 0. -1.
         23    2    1    2    0    0  0.00000000000E+00  0.00000000000E+00  0.49752438040E+03  0.50567141802E+03  0.90405054650E+02 0.  0.
          2    1    3    3  502    0 -0.11336925577E+02  0.29718823386E+02  0.42840816677E+03  0.42958735049E+03  0.00000000000E+00 0.  1.
         -2    1    3    3    0  502  0.11336925577E+02 -0.29718823386E+02  0.69116213634E+02  0.76084067531E+02  0.00000000000E+00 0. -1.
<mgrwt>
<rscale>  0 0.90405055E+02</rscale>
<asrwt>0</asrwt>
<pdfrwt beam="2">  1        1 0.62669560E-03 0.90405055E+02</pdfrwt>
<pdfrwt beam="1">  1       -1 0.77168859E-01 0.90405055E+02</pdfrwt>
<totfact> 0.48007895E+04</totfact>
</mgrwt>
</event>
<event>
 5    1  0.3858846E+001  0.8951772E+02  0.7546771E-02  0.1304024E+00
         -1   -1    0    0    0  501 -0.00000000000E+00  0.00000000000E+00  0.10642416522E+02  0.10642416522E+02  0.00000000000E+00 0.  1.
          1   -1    0    0  501    0  0.00000000000E+00 -0.00000000000E+00 -0.18824254746E+03  0.18824254746E+03  0.00000000000E+00 0. -1.
         23    2    1    2    0    0  0.00000000000E+00  0.00000000000E+00 -0.17760013094E+03  0.19888496399E+03  0.89517721090E+02 0.  0.
          2    1    3    3  502    0 -0.60215990485E+01 -0.33008838863E+02 -0.15461426281E+03  0.15821318960E+03  0.00000000000E+00 0. -1.
         -2    1    3    3    0  502  0.60215990485E+01  0.33008838863E+02 -0.22985868132E+02  0.40671774389E+02  0.00000000000E+00 0.  1.
<mgrwt>
<rscale>  0 0.89517721E+02</rscale>
<asrwt>0</asrwt>
<pdfrwt beam="2">  1        1 0.28960393E-01 0.89517721E+02</pdfrwt>
<pdfrwt beam="1">  1       -1 0.16372948E-02 0.89517721E+02</pdfrwt>
<totfact> 0.12293214E+05</totfact>
</mgrwt>
</event>
<event>
 5    1  0.3858846E+001  0.9105938E+02  0.7546771E-02  0.1300306E+00
         -1   -1    0    0    0  501 -0.00000000000E+00  0.00000000000E+00  0.18111529049E+02  0.18111529049E+02  0.00000000000E+00 0.  1.
          1   -1    0    0  501    0  0.00000000000E+00 -0.00000000000E+00 -0.11445486604E+03  0.11445486604E+03  0.00000000000E+00 0. -1.
         23    2    1    2    0    0  0.00000000000E+00  0.00000000000E+00 -0.96343336988E+02  0.13256639509E+03  0.91059379111E+02 0.  0.
          2    1    3    3  502    0 -0.17501339174E+02 -0.39997014574E+02 -0.66979117052E+02  0.79951611421E+02  0.00000000000E+00 0. -1.
         -2    1    3    3    0  502  0.17501339174E+02  0.39997014574E+02 -0.29364219935E+02  0.52614783665E+02  0.00000000000E+00 0.  1.
<mgrwt>
<rscale>  0 0.91059379E+02</rscale>
<asrwt>0</asrwt>
<pdfrwt beam="2">  1        1 0.17608441E-01 0.91059379E+02</pdfrwt>
<pdfrwt beam="1">  1       -1 0.27863891E-02 0.91059379E+02</pdfrwt>
<totfact> 0.10723707E+05</totfact>
</mgrwt>
</event>
<event>
 5    1  0.3858846E+001  0.8903495E+02  0.7546771E-02  0.1305206E+00
          4   -1    0    0  501    0  0.00000000000E+00  0.00000000000E+00  0.20018377530E+04  0.20018377530E+04  0.00000000000E+00 0. -1.
         -4   -1    0    0    0  501 -0.00000000000E+00 -0.00000000000E+00 -0.98999307247E+00  0.98999307247E+00  0.00000000000E+00 0.  1.
         23    2    1    2    0    0  0.00000000000E+00  0.00000000000E+00  0.20008477599E+04  0.20028277460E+04  0.89034948367E+02 0.  0.
          2    1    3    3  502    0  0.16384348002E+02 -0.38400079372E+02  0.65281290732E+03  0.65414654697E+03  0.00000000000E+00 0. -1.
         -2    1    3    3    0  502 -0.16384348002E+02  0.38400079372E+02  0.13480348526E+04  0.13486811991E+04  0.00000000000E+00 0.  1.
<mgrwt>
<rscale>  0 0.89034948E+02</rscale>
<asrwt>0</asrwt>
<pdfrwt beam="1">  1        4 0.30797180E+00 0.89034948E+02</pdfrwt>
<pdfrwt beam="2">  1       -4 0.15230823E-03 0.89034948E+02</pdfrwt>
<totfact> 0.24543911E+03</totfact>
</mgrwt>
</event>
<event>
 5    1  0.3858846E+001  0.9152252E+02  0.7546771E-02  0.1299206E+00
          1   -1    0    0  501    0  0.00000000000E+00  0.00000000000E+00  0.12867366665E+03  0.12867366665E+03  0.00000000000E+00 0. -1.
         -1   -1    0    0    0  501 -0.00000000000E+00 -0.00000000000E+00 -0.16274448189E+02  0.16274448189E+02  0.00000000000E+00 0.  1.
         23    2    1    2    0    0  0.00000000000E+00  0.00000000000E+00  0.11239921846E+03  0.14494811484E+03  0.91522520096E+02 0.  0.
          2    1    3    3  502    0  0.38330264506E+02  0.19958205878E+02  0.32361585889E+02  0.53988993325E+02  0.00000000000E+00 0.  1.
         -2    1    3    3    0  502 -0.38330264506E+02 -0.19958205878E+02  0.80037632569E+02  0.90959121512E+02  0.00000000000E+00 0. -1.
<mgrwt>
<rscale>  0 0.91522520E+02</rscale>
<asrwt>0</asrwt>
<pdfrwt beam="1">  1        1 0.19795948E-01 0.91522520E+02</pdfrwt>
<pdfrwt beam="2">  1       -1 0.25037613E-02 0.91522520E+02</pdfrwt>
<totfact> 0.10795530E+05</totfact>
</mgrwt>
</event>
<event>
 5    1  0.3858846E+001  0.9116802E+02  0.7546771E-02  0.1300048E+00
          2   -1    0    0  501    0  0.00000000000E+00  0.00000000000E+00  0.44252639118E+03  0.44252639118E+03  0.00000000000E+00 0. -1.
         -2   -1    0    0    0  501 -0.00000000000E+00 -0.00000000000E+00 -0.46955433821E+01  0.46955433821E+01  0.00000000000E+00 0.  1.
         23    2    1    2    0    0  0.00000000000E+00  0.00000000000E+00  0.43783084780E+03  0.44722193456E+03  0.91168017802E+02 0.  0.
          2    1    3    3  502    0  0.13217871014E+02  0.43583370319E+02  0.22832521546E+03  0.23282316530E+03  0.00000000000E+00 0. -1.
         -2    1    3    3    0  502 -0.13217871014E+02 -0.43583370319E+02  0.20950563233E+03  0.21439876926E+03  0.00000000000E+00 0.  1.
<mgrwt>
<rscale>  0 0.91168018E+02</rscale>
<asrwt>0</asrwt>
<pdfrwt beam="1">  1        2 0.68080951E-01 0.91168018E+02</pdfrwt>
<pdfrwt beam="2">  1       -2 0.72239164E-03 0.91168018E+02</pdfrwt>
<totfact> 0.20689815E+05</totfact>
</mgrwt>
</event>
<event>
 5    1  0.3858846E+001  0.9358692E+02  0.7546771E-02  0.1294391E+00
          2   -1    0    0  501    0  0.00000000000E+00  0.00000000000E+00  0.50824034803E+02  0.50824034803E+02  0.00000000000E+00 0. -1.
         -2   -1    0    0    0  501 -0.00000000000E+00 -0.00000000000E+00 -0.43082526200E+02  0.43082526200E+02  0.00000000000E+00 0.  1.
         23    2    1    2    0    0  0.00000000000E+00  0.00000000000E+00  0.77415086022E+01  0.93906561003E+02  0.93586918124E+02 0.  0.
          2    1    3    3  502    0 -0.29294201815E+02 -0.34439189776E+02  0.15970952945E+02  0.47950801770E+02  0.00000000000E+00 0. -1.
         -2    1    3    3    0  502  0.29294201815E+02  0.34439189776E+02 -0.82294443431E+01  0.45955759233E+02  0.00000000000E+00 0.  1.
<mgrwt>
<rscale>  0 0.93586918E+02</rscale>
<asrwt>0</asrwt>
<pdfrwt beam="1">  1        2 0.78190823E-02 0.93586918E+02</pdfrwt>
<pdfrwt beam="2">  1       -2 0.66280810E-02 0.93586918E+02</pdfrwt>
<totfact> 0.94213781E+04</totfact>
</mgrwt>
</event>
<event>
 5    1  0.3858846E+001  0.8504840E+02  0.7546771E-02  0.1315306E+00
          1   -1    0    0  501    0  0.00000000000E+00  0.00000000000E+00  0.22847442281E+02  0.22847442281E+02  0.00000000000E+00 0. -1.
         -1   -1    0    0    0  501 -0.00000000000E+00 -0.00000000000E+00 -0.79147048866E+02  0.79147048866E+02  0.00000000000E+00 0.  1.
         23    2    1    2    0    0  0.00000000000E+00  0.00000000000E+00 -0.56299606585E+02  0.10199449115E+03  0.85048401058E+02 0.  0.
          2    1    3    3  502    0 -0.20196626075E+02  0.27146888401E+02  0.27399745387E+01  0.33946497833E+02  0.00000000000E+00 0. -1.
         -2    1    3    3    0  502  0.20196626075E+02 -0.27146888401E+02 -0.59039581124E+02  0.68047993313E+02  0.00000000000E+00 0.  1.
<mgrwt>
<rscale>  0 0.85048401E+02</rscale>
<asrwt>0</asrwt>
<pdfrwt beam="1">  1        1 0.35149912E-02 0.85048401E+02</pdfrwt>
<pdfrwt beam="2">  1       -1 0.12176469E-01 0.85048401E+02</pdfrwt>
<totfact> 0.10130230E+05</totfact>
</mgrwt>
</event>
<event>
 5    1  0.3858846E+001  0.8546418E+02  0.7546771E-02  0.1314223E+00
          1   -1    0    0  501    0  0.00000000000E+00  0.00000000000E+00  0.23076136402E+02  0.23076136402E+02  0.00000000000E+00 0. -1.
         -1   -1    0    0    0  501 -0.00000000000E+00 -0.00000000000E+00 -0.79130721166E+02  0.79130721166E+02  0.00000000000E+00 0.  1.
         23    2    1    2    0    0  0.00000000000E+00  0.00000000000E+00 -0.56054584764E+02  0.10220685757E+03  0.85464175306E+02 0.  0.
          2    1    3    3  502    0 -0.28304797113E+02  0.31962884941E+02 -0.30181166942E+02  0.52284705138E+02  0.00000000000E+00 0. -1.
         -2    1    3    3    0  502  0.28304797113E+02 -0.31962884941E+02 -0.25873417822E+02  0.49922152430E+02  0.00000000000E+00 0.  1.
<mgrwt>
<rscale>  0 0.85464175E+02</rscale>
<asrwt>0</asrwt>
<pdfrwt beam="1">  1        1 0.35501748E-02 0.85464175E+02</pdfrwt>
<pdfrwt beam="2">  1       -1 0.12173957E-01 0.85464175E+02</pdfrwt>
<totfact> 0.10005212E+05</totfact>
</mgrwt>
</event>
<event>
 5    1  0.3858846E+001  0.9097315E+02  0.7546771E-02  0.1300512E+00
         -4   -1    0    0    0  501 -0.00000000000E+00  0.00000000000E+00  0.97041351320E+01  0.97041351320E+01  0.00000000000E+00 0.  1.
          4   -1    0    0  501    0  0.00000000000E+00 -0.00000000000E+00 -0.21321101227E+03  0.21321101227E+03  0.00000000000E+00 0. -1.
         23    2    1    2    0    0  0.00000000000E+00  0.00000000000E+00 -0.20350687714E+03  0.22291514740E+03  0.90973149329E+02 0.  0.
          2    1    3    3  502    0  0.30886462793E+02 -0.17835296854E+02 -0.32579290897E+02  0.48306123764E+02  0.00000000000E+00 0.  1.
         -2    1    3    3    0  502 -0.30886462793E+02  0.17835296854E+02 -0.17092758624E+03  0.17460902364E+03  0.00000000000E+00 0. -1.
<mgrwt>
<rscale>  0 0.90973149E+02</rscale>
<asrwt>0</asrwt>
<pdfrwt beam="2">  1        4 0.32801691E-01 0.90973149E+02</pdfrwt>
<pdfrwt beam="1">  1       -4 0.14929440E-02 0.90973149E+02</pdfrwt>
<totfact> 0.20588393E+04</totfact>
</mgrwt>
</event>
<event>
 5    1  0.3858846E+001  0.9023434E+02  0.7546771E-02  0.1302285E+00
         -2   -1    0    0    0  501 -0.00000000000E+00  0.00000000000E+00  0.33443114128E+01  0.33443114128E+01  0.00000000000E+00 0.  1.
          2   -1    0    0  501    0  0.00000000000E+00 -0.00000000000E+00 -0.60866308778E+03  0.60866308778E+03  0.00000000000E+00 0. -1.
         23    2    1    2    0    0  0.00000000000E+00  0.00000000000E+00 -0.60531877637E+03  0.61200739919E+03  0.90234337389E+02 0.  0.
          2    1    3    3  502    0  0.30057137183E+02  0.33622833793E+02 -0.31132514561E+03  0.31457474904E+03  0.00000000000E+00 0. -1.
         -2    1    3    3    0  502 -0.30057137183E+02 -0.33622833793E+02 -0.29399363076E+03  0.29743265015E+03  0.00000000000E+00 0.  1.
<mgrwt>
<rscale>  0 0.90234337E+02</rscale>
<asrwt>0</asrwt>
<pdfrwt beam="2">  1        2 0.93640456E-01 0.90234337E+02</pdfrwt>
<pdfrwt beam="1">  1       -2 0.51450955E-03 0.90234337E+02</pdfrwt>
<totfact> 0.23513038E+05</totfact>
</mgrwt>
</event>
<event>
 5    1  0.3858846E+001  0.9269903E+02  0.7546771E-02  0.1296444E+00
          1   -1    0    0  501    0  0.00000000000E+00  0.00000000000E+00  0.65283614002E+03  0.65283614002E+03  0.00000000000E+00 0. -1.
         -1   -1    0    0    0  501 -0.00000000000E+00 -0.00000000000E+00 -0.32906840446E+01  0.32906840446E+01  0.00000000000E+00 0.  1.
         23    2    1    2    0    0  0.00000000000E+00  0.00000000000E+00  0.64954545597E+03  0.65612682406E+03  0.92699028468E+02 0.  0.
          2    1    3    3  502    0  0.14503563055E+02  0.37216043214E+02  0.49120290635E+03  0.49282419017E+03  0.00000000000E+00 0. -1.
         -2    1    3    3    0  502 -0.14503563055E+02 -0.37216043214E+02  0.15834254962E+03  0.16330263389E+03  0.00000000000E+00 0.  1.
<mgrwt>
<rscale>  0 0.92699028E+02</rscale>
<asrwt>0</asrwt>
<pdfrwt beam="1">  1        1 0.10043623E+00 0.92699028E+02</pdfrwt>
<pdfrwt beam="2">  1       -1 0.50625960E-03 0.92699028E+02</pdfrwt>
<totfact> 0.13600162E+05</totfact>
</mgrwt>
</event>
<event>
 5    1  0.3858846E+001  0.8991068E+02  0.7546771E-02  0.1303068E+00
          2   -1    0    0  501    0  0.00000000000E+00  0.00000000000E+00  0.30224793725E+03  0.30224793725E+03  0.00000000000E+00 0. -1.
         -2   -1    0    0    0  501 -0.00000000000E+00 -0.00000000000E+00 -0.66865055873E+01  0.66865055873E+01  0.00000000000E+00 0.  1.
         23    2    1    2    0    0  0.00000000000E+00  0.00000000000E+00  0.29556143166E+03  0.30893444284E+03  0.89910678368E+02 0.  0.
          2    1    3    3  502    0  0.39735129831E+02  0.13061482017E+00  0.75535697549E+02  0.85349512050E+02  0.00000000000E+00 0.  1.
         -2    1    3    3    0  502 -0.39735129831E+02 -0.13061482017E+00  0.22002573411E+03  0.22358493079E+03  0.00000000000E+00 0. -1.
<mgrwt>
<rscale>  0 0.89910678E+02</rscale>
<asrwt>0</asrwt>
<pdfrwt beam="1">  1        2 0.46499672E-01 0.89910678E+02</pdfrwt>
<pdfrwt beam="2">  1       -2 0.10286934E-02 0.89910678E+02</pdfrwt>
<totfact> 0.18699944E+05</totfact>
</mgrwt>
</event>
<event>
 5    1  0.3858846E+001  0.9113893E+02  0.7546771E-02  0.1300117E+00
          2   -1    0    0  501    0  0.00000000000E+00  0.00000000000E+00  0.95787536564E+03  0.95787536564E+03  0.00000000000E+00 0.  1.
         -2   -1    0    0    0  501 -0.00000000000E+00 -0.00000000000E+00 -0.21678979368E+01  0.21678979368E+01  0.00000000000E+00 0. -1.
         23    2    1    2    0    0  0.00000000000E+00  0.00000000000E+00  0.95570746770E+03  0.96004326357E+03  0.91138927554E+02 0.  0.
          2    1    3    3  502    0 -0.30424875206E+02  0.28513489646E+02  0.28422462635E+03  0.28726700184E+03  0.00000000000E+00 0. -1.
         -2    1    3    3    0  502  0.30424875206E+02 -0.28513489646E+02  0.67148284135E+03  0.67277626174E+03  0.00000000000E+00 0.  1.
<mgrwt>
<rscale>  0 0.91138928E+02</rscale>
<asrwt>0</asrwt>
<pdfrwt beam="1">  1        2 0.14736510E+00 0.91138928E+02</pdfrwt>
<pdfrwt beam="2">  1       -2 0.33352352E-03 0.91138928E+02</pdfrwt>
<totfact> 0.24965835E+05</totfact>
</mgrwt>
</event>
<event>
 5    1  0.3858846E+001  0.9515613E+02  0.7546771E-02  0.1290825E+00
          1   -1    0    0  501    0  0.00000000000E+00  0.00000000000E+00  0.22361488776E+03  0.22361488776E+03  0.00000000000E+00 0. -1.
         -1   -1    0    0    0  501 -0.00000000000E+00 -0.00000000000E+00 -0.10123084315E+02  0.10123084315E+02  0.00000000000E+00 0.  1.
         23    2    1    2    0    0  0.00000000000E+00  0.00000000000E+00  0.21349180344E+03  0.23373797207E+03  0.95156131970E+02 0.  0.
          2    1    3    3  502    0  0.31987767603E+02 -0.12834716047E+02  0.26181506164E+02  0.43283004485E+02  0.00000000000E+00 0.  1.
         -2    1    3    3    0  502 -0.31987767603E+02  0.12834716047E+02  0.18731029728E+03  0.19045496759E+03  0.00000000000E+00 0. -1.
<mgrwt>
<rscale>  0 0.95156132E+02</rscale>
<asrwt>0</asrwt>
<pdfrwt beam="1">  1        1 0.34402287E-01 0.95156132E+02</pdfrwt>
<pdfrwt beam="2">  1       -1 0.15573978E-02 0.95156132E+02</pdfrwt>
<totfact> 0.10789673E+05</totfact>
</mgrwt>
</event>
<event>
 5    1  0.3858846E+001  0.9118838E+02  0.7546771E-02  0.1299999E+00
          1   -1    0    0  501    0  0.00000000000E+00  0.00000000000E+00  0.14688595664E+03  0.14688595664E+03  0.00000000000E+00 0. -1.
         -1   -1    0    0    0  501 -0.00000000000E+00 -0.00000000000E+00 -0.14152682267E+02  0.14152682267E+02  0.00000000000E+00 0.  1.
         23    2    1    2    0    0  0.00000000000E+00  0.00000000000E+00  0.13273327437E+03  0.16103863890E+03  0.91188382456E+02 0.  0.
          2    1    3    3  502    0  0.10585335558E+02 -0.34955645635E+02  0.11456528326E+03  0.12024620834E+03  0.00000000000E+00 0. -1.
         -2    1    3    3    0  502 -0.10585335558E+02  0.34955645635E+02  0.18167991111E+02  0.40792430568E+02  0.00000000000E+00 0.  1.
<mgrwt>
<rscale>  0 0.91188382E+02</rscale>
<asrwt>0</asrwt>
<pdfrwt beam="1">  1        1 0.22597838E-01 0.91188382E+02</pdfrwt>
<pdfrwt beam="2">  1       -1 0.21773358E-02 0.91188382E+02</pdfrwt>
<totfact> 0.11166384E+05</totfact>
</mgrwt>
</event>
<event>
 5    1  0.3858846E+001  0.9071401E+02  0.7546771E-02  0.1301132E+00
          1   -1    0    0  501    0  0.00000000000E+00  0.00000000000E+00  0.15750905304E+04  0.15750905304E+04  0.00000000000E+00 0. -1.
         -1   -1    0    0    0  501 -0.00000000000E+00 -0.00000000000E+00 -0.13061204746E+01  0.13061204746E+01  0.00000000000E+00 0.  1.
         23    2    1    2    0    0  0.00000000000E+00  0.00000000000E+00  0.15737844100E+04  0.15763966509E+04  0.90714011954E+02 0.  0.
          2    1    3    3  502    0  0.25649681758E+02 -0.35279444354E+02  0.10030415896E+04  0.10039895298E+04  0.00000000000E+00 0. -1.
         -2    1    3    3    0  502 -0.25649681758E+02  0.35279444354E+02  0.57074282036E+03  0.57240712117E+03  0.00000000000E+00 0.  1.
<mgrwt>
<rscale>  0 0.90714012E+02</rscale>
<asrwt>0</asrwt>
<pdfrwt beam="1">  1        1 0.24232010E+00 0.90714012E+02</pdfrwt>
<pdfrwt beam="2">  1       -1 0.20094287E-03 0.90714012E+02</pdfrwt>
<totfact> 0.10737413E+05</totfact>
</mgrwt>
</event>
<event>
 5    1  0.3858846E+001  0.9090551E+02  0.7546771E-02  0.1300674E+00
         -1   -1    0    0    0  501 -0.00000000000E+00  0.00000000000E+00  0.82850240784E+01  0.82850240784E+01  0.00000000000E+00 0.  1.
          1   -1    0    0  501    0  0.00000000000E+00 -0.00000000000E+00 -0.24935991771E+03  0.24935991771E+03  0.00000000000E+00 0. -1.
         23    2    1    2    0    0  0.00000000000E+00  0.00000000000E+00 -0.24107489363E+03  0.25764494178E+03  0.90905509676E+02 0.  0.
          2    1    3    3  502    0 -0.30903156132E+02  0.19866625477E+02 -0.44685226745E+02  0.57848572636E+02  0.00000000000E+00 0.  1.
         -2    1    3    3    0  502  0.30903156132E+02 -0.19866625477E+02 -0.19638966688E+03  0.19979636915E+03  0.00000000000E+00 0. -1.
<mgrwt>
<rscale>  0 0.90905510E+02</rscale>
<asrwt>0</asrwt>
<pdfrwt beam="2">  1        1 0.38363065E-01 0.90905510E+02</pdfrwt>
<pdfrwt beam="1">  1       -1 0.12746191E-02 0.90905510E+02</pdfrwt>
<totfact> 0.12459628E+05</totfact>
</mgrwt>
</event>
<event>
 5    1  0.3858846E+001  0.9044054E+02  0.7546771E-02  0.1301788E+00
          1   -1    0    0  501    0  0.00000000000E+00  0.00000000000E+00  0.14859559381E+02  0.14859559381E+02  0.00000000000E+00 0. -1.
         -1   -1    0    0    0  501 -0.00000000000E+00 -0.00000000000E+00 -0.13761329032E+03  0.13761329032E+03  0.00000000000E+00 0.  1.
         23    2    1    2    0    0  0.00000000000E+00  0.00000000000E+00 -0.12275373094E+03  0.15247284970E+03  0.90440540890E+02 0.  0.
          2    1    3    3  502    0 -0.39169833034E+02  0.21295040605E+02 -0.48635471484E+02  0.65978509083E+02  0.00000000000E+00 0. -1.
         -2    1    3    3    0  502  0.39169833034E+02 -0.21295040605E+02 -0.74118259459E+02  0.86494340621E+02  0.00000000000E+00 0.  1.
<mgrwt>
<rscale>  0 0.90440541E+02</rscale>
<asrwt>0</asrwt>
<pdfrwt beam="1">  1        1 0.22860861E-02 0.90440541E+02</pdfrwt>
<pdfrwt beam="2">  1       -1 0.21171275E-01 0.90440541E+02</pdfrwt>
<totfact> 0.77890593E+04</totfact>
</mgrwt>
</event>
<event>
 5    1  0.3858846E+001  0.9190044E+02  0.7546771E-02  0.1298314E+00
          3   -1    0    0  501    0  0.00000000000E+00  0.00000000000E+00  0.20419341573E+03  0.20419341573E+03  0.00000000000E+00 0. -1.
         -3   -1    0    0    0  501 -0.00000000000E+00 -0.00000000000E+00 -0.10340306715E+02  0.10340306715E+02  0.00000000000E+00 0.  1.
         23    2    1    2    0    0  0.00000000000E+00  0.00000000000E+00  0.19385310902E+03  0.21453372245E+03  0.91900436295E+02 0.  0.
          2    1    3    3  502    0 -0.17700466866E+02 -0.38794291822E+02  0.13689340610E+03  0.14338098981E+03  0.00000000000E+00 0. -1.
         -2    1    3    3    0  502  0.17700466866E+02  0.38794291822E+02  0.56959702914E+02  0.71152732634E+02  0.00000000000E+00 0.  1.
<mgrwt>
<rscale>  0 0.91900436E+02</rscale>
<asrwt>0</asrwt>
<pdfrwt beam="1">  1        3 0.31414369E-01 0.91900436E+02</pdfrwt>
<pdfrwt beam="2">  1       -3 0.15908166E-02 0.91900436E+02</pdfrwt>
<totfact> 0.27177784E+04</totfact>
</mgrwt>
</event>
<event>
 5    1  0.3858846E+001  0.9322124E+02  0.7546771E-02  0.1295233E+00
         -2   -1    0    0    0  501 -0.00000000000E+00  0.00000000000E+00  0.44384834169E+01  0.44384834169E+01  0.00000000000E+00 0.  1.
          2   -1    0    0  501    0  0.00000000000E+00 -0.00000000000E+00 -0.48948020035E+03  0.48948020035E+03  0.00000000000E+00 0. -1.
         23    2    1    2    0    0  0.00000000000E+00  0.00000000000E+00 -0.48504171693E+03  0.49391868377E+03  0.93221236897E+02 0.  0.
          2    1    3    3  502    0 -0.44943473045E+02 -0.12330121731E+02 -0.23840966397E+03  0.24292203594E+03  0.00000000000E+00 0. -1.
         -2    1    3    3    0  502  0.44943473045E+02  0.12330121731E+02 -0.24663205296E+03  0.25099664782E+03  0.00000000000E+00 0.  1.
<mgrwt>
<rscale>  0 0.93221237E+02</rscale>
<asrwt>0</asrwt>
<pdfrwt beam="2">  1        2 0.75304652E-01 0.93221237E+02</pdfrwt>
<pdfrwt beam="1">  1       -2 0.68284355E-03 0.93221237E+02</pdfrwt>
<totfact> 0.20178373E+05</totfact>
</mgrwt>
</event>
<event>
 5    1  0.3858846E+001  0.8806999E+02  0.7546771E-02  0.1307594E+00
         -1   -1    0    0    0  501 -0.00000000000E+00  0.00000000000E+00  0.16016074858E+03  0.16016074858E+03  0.00000000000E+00 0.  1.
          1   -1    0    0  501    0  0.00000000000E+00 -0.00000000000E+00 -0.12107090210E+02  0.12107090210E+02  0.00000000000E+00 0. -1.
         23    2    1    2    0    0  0.00000000000E+00  0.00000000000E+00  0.14805365837E+03  0.17226783879E+03  0.88069986514E+02 0.  0.
          2    1    3    3  502    0 -0.31633431375E+02 -0.89631604784E+01  0.13132453469E+03  0.13537778857E+03  0.00000000000E+00 0.  1.
         -2    1    3    3    0  502  0.31633431375E+02  0.89631604784E+01  0.16729123685E+02  0.36890050225E+02  0.00000000000E+00 0. -1.
<mgrwt>
<rscale>  0 0.88069987E+02</rscale>
<asrwt>0</asrwt>
<pdfrwt beam="2">  1        1 0.18626294E-02 0.88069987E+02</pdfrwt>
<pdfrwt beam="1">  1       -1 0.24640114E-01 0.88069987E+02</pdfrwt>
<totfact> 0.80551705E+04</totfact>
</mgrwt>
</event>
<event>
 5    1  0.3858846E+001  0.9085059E+02  0.7546771E-02  0.1300805E+00
          1   -1    0    0  501    0  0.00000000000E+00  0.00000000000E+00  0.74085753884E+03  0.74085753884E+03  0.00000000000E+00 0. -1.
         -1   -1    0    0    0  501 -0.00000000000E+00 -0.00000000000E+00 -0.27852283984E+01  0.27852283984E+01  0.00000000000E+00 0.  1.
         23    2    1    2    0    0  0.00000000000E+00  0.00000000000E+00  0.73807231044E+03  0.74364276724E+03  0.90850590672E+02 0.  0.
          2    1    3    3  502    0  0.18696999962E+02 -0.18614998975E+02  0.67171235374E+03  0.67223030440E+03  0.00000000000E+00 0. -1.
         -2    1    3    3    0  502 -0.18696999962E+02  0.18614998975E+02  0.66359956705E+02  0.71412462837E+02  0.00000000000E+00 0.  1.
<mgrwt>
<rscale>  0 0.90850591E+02</rscale>
<asrwt>0</asrwt>
<pdfrwt beam="1">  1        1 0.11397793E+00 0.90850591E+02</pdfrwt>
<pdfrwt beam="2">  1       -1 0.42849727E-03 0.90850591E+02</pdfrwt>
<totfact> 0.14333363E+05</totfact>
</mgrwt>
</event>
<event>
 5    1  0.3858846E+001  0.9173650E+02  0.7546771E-02  0.1298700E+00
         -1   -1    0    0    0  501 -0.00000000000E+00  0.00000000000E+00  0.13190836605E+02  0.13190836605E+02  0.00000000000E+00 0.  1.
          1   -1    0    0  501    0  0.00000000000E+00 -0.00000000000E+00 -0.15949681521E+03  0.15949681521E+03  0.00000000000E+00 0. -1.
         23    2    1    2    0    0  0.00000000000E+00  0.00000000000E+00 -0.14630597861E+03  0.17268765182E+03  0.91736501534E+02 0.  0.
          2    1    3    3  502    0  0.18813527922E+01  0.39710331485E+02 -0.11622104499E+03  0.12283232968E+03  0.00000000000E+00 0. -1.
         -2    1    3    3    0  502 -0.18813527922E+01 -0.39710331485E+02 -0.30084933616E+02  0.49855322140E+02  0.00000000000E+00 0.  1.
<mgrwt>
<rscale>  0 0.91736502E+02</rscale>
<asrwt>0</asrwt>
<pdfrwt beam="2">  1        1 0.24537974E-01 0.91736502E+02</pdfrwt>
<pdfrwt beam="1">  1       -1 0.20293593E-02 0.91736502E+02</pdfrwt>
<totfact> 0.11155696E+05</totfact>
</mgrwt>
</event>
<event>
 5    1  0.3858846E+001  0.8828777E+02  0.7546771E-02  0.1307052E+00
         -2   -1    0    0    0  501 -0.00000000000E+00  0.00000000000E+00  0.42375803292E+03  0.42375803292E+03  0.00000000000E+00 0.  1.
          2   -1    0    0  501    0  0.00000000000E+00 -0.00000000000E+00 -0.45985733092E+01  0.45985733092E+01  0.00000000000E+00 0. -1.
         23    2    1    2    0    0  0.00000000000E+00  0.00000000000E+00  0.41915945961E+03  0.42835660623E+03  0.88287765398E+02 0.  0.
          2    1    3    3  502    0 -0.87364543943E+01  0.20121741059E+02  0.23718033013E+02  0.32307200260E+02  0.00000000000E+00 0. -1.
         -2    1    3    3    0  502  0.87364543943E+01 -0.20121741059E+02  0.39544142660E+03  0.39604940597E+03  0.00000000000E+00 0.  1.
<mgrwt>
<rscale>  0 0.88287765E+02</rscale>
<asrwt>0</asrwt>
<pdfrwt beam="2">  1        2 0.70747315E-03 0.88287765E+02</pdfrwt>
<pdfrwt beam="1">  1       -2 0.65193513E-01 0.88287765E+02</pdfrwt>
<totfact> 0.44586368E+04</totfact>
</mgrwt>
</event>
<event>
 4    1  0.3858846E+001  0.5142672E+02  0.7546771E-02  0.1437795E+00
          1   -1    0    0  501    0  0.00000000000E+00  0.00000000000E+00  0.39507947934E+00  0.39507947934E+00  0.00000000000E+00 0. -1.
         -1   -1    0    0    0  501 -0.00000000000E+00 -0.00000000000E+00 -0.16735290687E+04  0.16735290687E+04  0.00000000000E+00 0.  1.
          2    1    1    2  502    0 -0.14659580687E+02 -0.21122297179E+02 -0.82518627549E+03  0.82558672712E+03  0.00000000000E+00 0. -1.
         -2    1    1    2    0  502  0.14659580687E+02  0.21122297179E+02 -0.84794771370E+03  0.84833742102E+03  0.00000000000E+00 0.  1.
<mgrwt>
<rscale>  0 0.51426724E+02</rscale>
<asrwt>0</asrwt>
<pdfrwt beam="1">  1        1 0.60780452E-04 0.51426724E+02</pdfrwt>
<pdfrwt beam="2">  1       -1 0.25747027E+00 0.51426724E+02</pdfrwt>
<totfact> 0.48001620E+04</totfact>
</mgrwt>
</event>
<event>
 5    1  0.3858846E+001  0.8414966E+02  0.7546771E-02  0.1317671E+00
          2   -1    0    0  501    0  0.00000000000E+00  0.00000000000E+00  0.36830698622E+03  0.36830698622E+03  0.00000000000E+00 0.  1.
         -2   -1    0    0    0  501 -0.00000000000E+00 -0.00000000000E+00 -0.48065645648E+01  0.48065645648E+01  0.00000000000E+00 0. -1.
         23    2    1    2    0    0  0.00000000000E+00  0.00000000000E+00  0.36350042165E+03  0.37311355078E+03  0.84149659748E+02 0.  0.
          2    1    3    3  502    0  0.16629485183E+02 -0.20379702369E+02  0.36143136356E+02  0.44701211972E+02  0.00000000000E+00 0. -1.
         -2    1    3    3    0  502 -0.16629485183E+02  0.20379702369E+02  0.32735728530E+03  0.32841233881E+03  0.00000000000E+00 0.  1.
<mgrwt>
<rscale>  0 0.84149660E+02</rscale>
<asrwt>0</asrwt>
<pdfrwt beam="1">  1        2 0.56662591E-01 0.84149660E+02</pdfrwt>
<pdfrwt beam="2">  1       -2 0.73947177E-03 0.84149660E+02</pdfrwt>
<totfact> 0.23956907E+05</totfact>
</mgrwt>
</event>
<event>
 5    1  0.3858846E+001  0.8410863E+02  0.7546771E-02  0.1317780E+00
          2   -1    0    0  501    0  0.00000000000E+00  0.00000000000E+00  0.39512400071E+02  0.39512400071E+02  0.00000000000E+00 0. -1.
         -2   -1    0    0    0  501 -0.00000000000E+00 -0.00000000000E+00 -0.44759754698E+02  0.44759754698E+02  0.00000000000E+00 0.  1.
         23    2    1    2    0    0  0.00000000000E+00  0.00000000000E+00 -0.52473546266E+01  0.84272154769E+02  0.84108628206E+02 0.  0.
          2    1    3    3  502    0  0.31641190055E+02  0.24455296273E+02 -0.15662006143E+02  0.42947931968E+02  0.00000000000E+00 0. -1.
         -2    1    3    3    0  502 -0.31641190055E+02 -0.24455296273E+02  0.10414651516E+02  0.41324222801E+02  0.00000000000E+00 0.  1.
<mgrwt>
<rscale>  0 0.84108628E+02</rscale>
<asrwt>0</asrwt>
<pdfrwt beam="1">  1        2 0.60788308E-02 0.84108628E+02</pdfrwt>
<pdfrwt beam="2">  1       -2 0.68861161E-02 0.84108628E+02</pdfrwt>
<totfact> 0.11988806E+05</totfact>
</mgrwt>
</event>
<event>
 5    1  0.3858846E+001  0.9822215E+02  0.7546771E-02  0.1284080E+00
         -1   -1    0    0    0  501 -0.00000000000E+00  0.00000000000E+00  0.55763520586E+01  0.55763520586E+01  0.00000000000E+00 0.  1.
          1   -1    0    0  501    0  0.00000000000E+00 -0.00000000000E+00 -0.43252250589E+03  0.43252250589E+03  0.00000000000E+00 0. -1.
         23    2    1    2    0    0  0.00000000000E+00  0.00000000000E+00 -0.42694615383E+03  0.43809885795E+03  0.98222151597E+02 0.  0.
          2    1    3    3  502    0 -0.37574564187E+02 -0.16623793892E+02 -0.33346217107E+03  0.33598395488E+03  0.00000000000E+00 0. -1.
         -2    1    3    3    0  502  0.37574564187E+02  0.16623793892E+02 -0.93483982758E+02  0.10211490307E+03  0.00000000000E+00 0.  1.
<mgrwt>
<rscale>  0 0.98222152E+02</rscale>
<asrwt>0</asrwt>
<pdfrwt beam="2">  1        1 0.66541922E-01 0.98222152E+02</pdfrwt>
<pdfrwt beam="1">  1       -1 0.85790034E-03 0.98222152E+02</pdfrwt>
<totfact> 0.11199881E+05</totfact>
</mgrwt>
</event>
<event>
 5    1  0.3858846E+001  0.8975820E+02  0.7546771E-02  0.1303438E+00
         -2   -1    0    0    0  501 -0.00000000000E+00  0.00000000000E+00  0.15375802969E+02  0.15375802969E+02  0.00000000000E+00 0.  1.
          2   -1    0    0  501    0  0.00000000000E+00 -0.00000000000E+00 -0.13099371909E+03  0.13099371909E+03  0.00000000000E+00 0. -1.
         23    2    1    2    0    0  0.00000000000E+00  0.00000000000E+00 -0.11561791612E+03  0.14636952206E+03  0.89758199958E+02 0.  0.
          2    1    3    3  502    0 -0.22588918590E+02  0.43043450054E+01 -0.12065681597E+03  0.12282855478E+03  0.00000000000E+00 0. -1.
         -2    1    3    3    0  502  0.22588918590E+02 -0.43043450054E+01  0.50388998455E+01  0.23540967284E+02  0.00000000000E+00 0.  1.
<mgrwt>
<rscale>  0 0.89758200E+02</rscale>
<asrwt>0</asrwt>
<pdfrwt beam="2">  1        2 0.20152880E-01 0.89758200E+02</pdfrwt>
<pdfrwt beam="1">  1       -2 0.23655081E-02 0.89758200E+02</pdfrwt>
<totfact> 0.13943912E+05</totfact>
</mgrwt>
</event>
<event>
 5    1  0.3858846E+001  0.9134185E+02  0.7546771E-02  0.1299634E+00
         -1   -1    0    0    0  501 -0.00000000000E+00  0.00000000000E+00  0.27422559217E+03  0.27422559217E+03  0.00000000000E+00 0.  1.
          1   -1    0    0  501    0  0.00000000000E+00 -0.00000000000E+00 -0.76062675732E+01  0.76062675732E+01  0.00000000000E+00 0. -1.
         23    2    1    2    0    0  0.00000000000E+00  0.00000000000E+00  0.26661932460E+03  0.28183185975E+03  0.91341846478E+02 0.  0.
          2    1    3    3  502    0 -0.19700720143E+02  0.30883192660E+02  0.49152669478E+02  0.61301507973E+02  0.00000000000E+00 0. -1.
         -2    1    3    3    0  502  0.19700720143E+02 -0.30883192660E+02  0.21746665512E+03  0.22053035177E+03  0.00000000000E+00 0.  1.
<mgrwt>
<rscale>  0 0.91341846E+02</rscale>
<asrwt>0</asrwt>
<pdfrwt beam="2">  1        1 0.11701952E-02 0.91341846E+02</pdfrwt>
<pdfrwt beam="1">  1       -1 0.42188545E-01 0.91341846E+02</pdfrwt>
<totfact> 0.62392259E+04</totfact>
</mgrwt>
</event>
<event>
 5    1  0.3858846E+001  0.8892268E+02  0.7546771E-02  0.1305482E+00
          1   -1    0    0  501    0  0.00000000000E+00  0.00000000000E+00  0.25394852292E+03  0.25394852292E+03  0.00000000000E+00 0. -1.
         -1   -1    0    0    0  501 -0.00000000000E+00 -0.00000000000E+00 -0.77842968906E+01  0.77842968906E+01  0.00000000000E+00 0.  1.
         23    2    1    2    0    0  0.00000000000E+00  0.00000000000E+00  0.24616422603E+03  0.26173281981E+03  0.88922678713E+02 0.  0.
          2    1    3    3  502    0 -0.30874809356E+02 -0.25039390771E+02  0.64466379757E+02  0.75737302975E+02  0.00000000000E+00 0. -1.
         -2    1    3    3    0  502  0.30874809356E+02  0.25039390771E+02  0.18169784628E+03  0.18599551684E+03  0.00000000000E+00 0.  1.
<mgrwt>
<rscale>  0 0.88922679E+02</rscale>
<asrwt>0</asrwt>
<pdfrwt beam="1">  1        1 0.39068997E-01 0.88922679E+02</pdfrwt>
<pdfrwt beam="2">  1       -1 0.11975843E-02 0.88922679E+02</pdfrwt>
<totfact> 0.13260839E+05</totfact>
</mgrwt>
</event>
<event>
 5    1  0.3858846E+001  0.8988531E+02  0.7546771E-02  0.1303130E+00
          2   -1    0    0  501    0  0.00000000000E+00  0.00000000000E+00  0.12346871134E+04  0.12346871134E+04  0.00000000000E+00 0. -1.
         -2   -1    0    0    0  501 -0.00000000000E+00 -0.00000000000E+00 -0.16359140961E+01  0.16359140961E+01  0.00000000000E+00 0.  1.
         23    2    1    2    0    0  0.00000000000E+00  0.00000000000E+00  0.12330511994E+04  0.12363230275E+04  0.89885305877E+02 0.  0.
          2    1    3    3  502    0  0.39814504739E+02 -0.19269427147E+02  0.72598929176E+03  0.72733551911E+03  0.00000000000E+00 0. -1.
         -2    1    3    3    0  502 -0.39814504739E+02  0.19269427147E+02  0.50706190759E+03  0.50898750843E+03  0.00000000000E+00 0.  1.
<mgrwt>
<rscale>  0 0.89885306E+02</rscale>
<asrwt>0</asrwt>
<pdfrwt beam="1">  1        2 0.18995112E+00 0.89885306E+02</pdfrwt>
<pdfrwt beam="2">  1       -2 0.25168008E-03 0.89885306E+02</pdfrwt>
<totfact> 0.25728551E+05</totfact>
</mgrwt>
</event>
<event>
 5    1  0.3858846E+001  0.7369489E+02  0.7546771E-02  0.1347961E+00
         -1   -1    0    0    0  501 -0.00000000000E+00  0.00000000000E+00  0.48962390758E+02  0.48962390758E+02  0.00000000000E+00 0.  1.
          1   -1    0    0  501    0  0.00000000000E+00 -0.00000000000E+00 -0.27730145721E+02  0.27730145721E+02  0.00000000000E+00 0. -1.
         23    2    1    2    0    0  0.00000000000E+00  0.00000000000E+00  0.21232245037E+02  0.76692536479E+02  0.73694890748E+02 0.  0.
          2    1    3    3  502    0 -0.11093690691E+02  0.17836062310E+02  0.42121974612E+02  0.47068629013E+02  0.00000000000E+00 0.  1.
         -2    1    3    3    0  502  0.11093690691E+02 -0.17836062310E+02 -0.20889729575E+02  0.29623907467E+02  0.00000000000E+00 0. -1.
<mgrwt>
<rscale>  0 0.73694891E+02</rscale>
<asrwt>0</asrwt>
<pdfrwt beam="2">  1        1 0.42661763E-02 0.73694891E+02</pdfrwt>
<pdfrwt beam="1">  1       -1 0.75326755E-02 0.73694891E+02</pdfrwt>
<totfact> 0.15616914E+05</totfact>
</mgrwt>
</event>
<event>
 5    1  0.3858846E+001  0.9205195E+02  0.7546771E-02  0.1297957E+00
          3   -1    0    0  501    0  0.00000000000E+00  0.00000000000E+00  0.28118725808E+02  0.28118725808E+02  0.00000000000E+00 0. -1.
         -3   -1    0    0    0  501 -0.00000000000E+00 -0.00000000000E+00 -0.75337356738E+02  0.75337356738E+02  0.00000000000E+00 0.  1.
         23    2    1    2    0    0  0.00000000000E+00  0.00000000000E+00 -0.47218630930E+02  0.10345608255E+03  0.92051952228E+02 0.  0.
          2    1    3    3  502    0 -0.22139835427E+02 -0.30234670864E+02  0.64235883428E+01  0.38020653890E+02  0.00000000000E+00 0. -1.
         -2    1    3    3    0  502  0.22139835427E+02  0.30234670864E+02 -0.53642219273E+02  0.65435428657E+02  0.00000000000E+00 0.  1.
<mgrwt>
<rscale>  0 0.92051952E+02</rscale>
<asrwt>0</asrwt>
<pdfrwt beam="1">  1        3 0.43259578E-02 0.92051952E+02</pdfrwt>
<pdfrwt beam="2">  1       -3 0.11590363E-01 0.92051952E+02</pdfrwt>
<totfact> 0.33533356E+04</totfact>
</mgrwt>
</event>
<event>
 5    1  0.3858846E+001  0.9987194E+02  0.7546771E-02  0.1280565E+00
          1   -1    0    0  501    0  0.00000000000E+00  0.00000000000E+00  0.13692992789E+04  0.13692992789E+04  0.00000000000E+00 0. -1.
         -1   -1    0    0    0  501 -0.00000000000E+00 -0.00000000000E+00 -0.18210781408E+01  0.18210781408E+01  0.00000000000E+00 0.  1.
         23    2    1    2    0    0  0.00000000000E+00  0.00000000000E+00  0.13674782007E+04  0.13711203570E+04  0.99871937699E+02 0.  0.
          2    1    3    3  502    0  0.21074388426E+02  0.63028502411E+01  0.12992030288E+04  0.12993892280E+04  0.00000000000E+00 0. -1.
         -2    1    3    3    0  502 -0.21074388426E+02 -0.63028502411E+01  0.68275171902E+02  0.71731128995E+02  0.00000000000E+00 0.  1.
<mgrwt>
<rscale>  0 0.99871938E+02</rscale>
<asrwt>0</asrwt>
<pdfrwt beam="1">  1        1 0.21066060E+00 0.99871938E+02</pdfrwt>
<pdfrwt beam="2">  1       -1 0.28016696E-03 0.99871938E+02</pdfrwt>
<totfact> 0.92788457E+04</totfact>
</mgrwt>
</event>
<event>
 5    1  0.3858846E+001  0.8997061E+02  0.7546771E-02  0.1302923E+00
         -3   -1    0    0    0  501 -0.00000000000E+00  0.00000000000E+00  0.25763576406E+01  0.25763576406E+01  0.00000000000E+00 0.  1.
          3   -1    0    0  501    0  0.00000000000E+00 -0.00000000000E+00 -0.78548007520E+03  0.78548007520E+03  0.00000000000E+00 0. -1.
         23    2    1    2    0    0  0.00000000000E+00  0.00000000000E+00 -0.78290371756E+03  0.78805643284E+03  0.89970608385E+02 0.  0.
          2    1    3    3  502    0  0.26363140781E+02  0.22427674612E+02 -0.64313710659E+03  0.64406781759E+03  0.00000000000E+00 0. -1.
         -2    1    3    3    0  502 -0.26363140781E+02 -0.22427674612E+02 -0.13976661097E+03  0.14398861526E+03  0.00000000000E+00 0.  1.
<mgrwt>
<rscale>  0 0.89970608E+02</rscale>
<asrwt>0</asrwt>
<pdfrwt beam="2">  1        3 0.12084313E+00 0.89970608E+02</pdfrwt>
<pdfrwt beam="1">  1       -3 0.39636257E-03 0.89970608E+02</pdfrwt>
<totfact> 0.13031242E+04</totfact>
</mgrwt>
</event>
<event>
 5    1  0.3858846E+001  0.9273798E+02  0.7546771E-02  0.1296354E+00
         -2   -1    0    0    0  501 -0.00000000000E+00  0.00000000000E+00  0.93563939724E+00  0.93563939724E+00  0.00000000000E+00 0.  1.
          2   -1    0    0  501    0  0.00000000000E+00 -0.00000000000E+00 -0.22979826048E+04  0.22979826048E+04  0.00000000000E+00 0. -1.
         23    2    1    2    0    0  0.00000000000E+00  0.00000000000E+00 -0.22970469654E+04  0.22989182442E+04  0.92737976240E+02 0.  0.
          2    1    3    3  502    0  0.18128600694E+02  0.34039460745E+02 -0.17867009098E+04  0.17871170841E+04  0.00000000000E+00 0. -1.
         -2    1    3    3    0  502 -0.18128600694E+02 -0.34039460745E+02 -0.51034605564E+03  0.51180116017E+03  0.00000000000E+00 0.  1.
<mgrwt>
<rscale>  0 0.92737976E+02</rscale>
<asrwt>0</asrwt>
<pdfrwt beam="2">  1        2 0.35353570E+00 0.92737976E+02</pdfrwt>
<pdfrwt beam="1">  1       -2 0.14394456E-03 0.92737976E+02</pdfrwt>
<totfact> 0.16094120E+05</totfact>
</mgrwt>
</event>
<event>
 5    1  0.3858846E+001  0.9180027E+02  0.7546771E-02  0.1298550E+00
         -2   -1    0    0    0  501 -0.00000000000E+00  0.00000000000E+00  0.30821812206E+01  0.30821812206E+01  0.00000000000E+00 0.  1.
          2   -1    0    0  501    0  0.00000000000E+00 -0.00000000000E+00 -0.68354923676E+03  0.68354923676E+03  0.00000000000E+00 0. -1.
         23    2    1    2    0    0  0.00000000000E+00  0.00000000000E+00 -0.68046705554E+03  0.68663141798E+03  0.91800274964E+02 0.  0.
          2    1    3    3  502    0  0.81927762042E+01 -0.38498830649E+02 -0.51684468022E+03  0.51834130167E+03  0.00000000000E+00 0. -1.
         -2    1    3    3    0  502 -0.81927762042E+01  0.38498830649E+02 -0.16362237532E+03  0.16829011631E+03  0.00000000000E+00 0.  1.
<mgrwt>
<rscale>  0 0.91800275E+02</rscale>
<asrwt>0</asrwt>
<pdfrwt beam="2">  1        2 0.10516149E+00 0.91800275E+02</pdfrwt>
<pdfrwt beam="1">  1       -2 0.47418140E-03 0.91800275E+02</pdfrwt>
<totfact> 0.23160454E+05</totfact>
</mgrwt>
</event>
<event>
 5    1  0.3858846E+001  0.9159253E+02  0.7546771E-02  0.1299040E+00
          1   -1    0    0  501    0  0.00000000000E+00  0.00000000000E+00  0.22674145131E+03  0.22674145131E+03  0.00000000000E+00 0. -1.
         -1   -1    0    0    0  501 -0.00000000000E+00 -0.00000000000E+00 -0.92497332234E+01  0.92497332234E+01  0.00000000000E+00 0.  1.
         23    2    1    2    0    0  0.00000000000E+00  0.00000000000E+00  0.21749171808E+03  0.23599118453E+03  0.91592531033E+02 0.  0.
          2    1    3    3  502    0 -0.11031343787E+02  0.33628423592E+02  0.18363112111E+03  0.18701056136E+03  0.00000000000E+00 0. -1.
         -2    1    3    3    0  502  0.11031343787E+02 -0.33628423592E+02  0.33860596973E+02  0.48980623172E+02  0.00000000000E+00 0.  1.
<mgrwt>
<rscale>  0 0.91592531E+02</rscale>
<asrwt>0</asrwt>
<pdfrwt beam="1">  1        1 0.34883296E-01 0.91592531E+02</pdfrwt>
<pdfrwt beam="2">  1       -1 0.14230360E-02 0.91592531E+02</pdfrwt>
<totfact> 0.11986681E+05</totfact>
</mgrwt>
</event>
<event>
 5    1  0.3858846E+001  0.1192983E+03  0.7546771E-02  0.1244259E+00
          2   -1    0    0  501    0  0.00000000000E+00  0.00000000000E+00  0.34313605600E+02  0.34313605600E+02  0.00000000000E+00 0. -1.
         -2   -1    0    0    0  501 -0.00000000000E+00 -0.00000000000E+00 -0.10369125129E+03  0.10369125129E+03  0.00000000000E+00 0.  1.
         23    2    1    2    0    0  0.00000000000E+00  0.00000000000E+00 -0.69377645694E+02  0.13800485689E+03  0.11929829338E+03 0.  0.
          2    1    3    3  502    0  0.70419121412E+00 -0.25768230600E+02  0.27537425456E+02  0.37720119224E+02  0.00000000000E+00 0. -1.
         -2    1    3    3    0  502 -0.70419121412E+00  0.25768230600E+02 -0.96915071150E+02  0.10028473767E+03  0.00000000000E+00 0.  1.
<mgrwt>
<rscale>  0 0.11929829E+03</rscale>
<asrwt>0</asrwt>
<pdfrwt beam="1">  1        2 0.52790163E-02 0.11929829E+03</pdfrwt>
<pdfrwt beam="2">  1       -2 0.15952500E-01 0.11929829E+03</pdfrwt>
<totfact> 0.40507290E+04</totfact>
</mgrwt>
</event>
<event>
 5    1  0.3858846E+001  0.8867009E+02  0.7546771E-02  0.1306105E+00
          1   -1    0    0  501    0  0.00000000000E+00  0.00000000000E+00  0.97942075933E+02  0.97942075933E+02  0.00000000000E+00 0. -1.
         -1   -1    0    0    0  501 -0.00000000000E+00 -0.00000000000E+00 -0.20068966461E+02  0.20068966461E+02  0.00000000000E+00 0.  1.
         23    2    1    2    0    0  0.00000000000E+00  0.00000000000E+00  0.77873109472E+02  0.11801104239E+03  0.88670090492E+02 0.  0.
          2    1    3    3  502    0  0.11960990659E+02  0.22488475390E+02  0.87231903553E+02  0.90874648942E+02  0.00000000000E+00 0. -1.
         -2    1    3    3    0  502 -0.11960990659E+02 -0.22488475390E+02 -0.93587940805E+01  0.27136393451E+02  0.00000000000E+00 0.  1.
<mgrwt>
<rscale>  0 0.88670090E+02</rscale>
<asrwt>0</asrwt>
<pdfrwt beam="1">  1        1 0.15068011E-01 0.88670090E+02</pdfrwt>
<pdfrwt beam="2">  1       -1 0.30875334E-02 0.88670090E+02</pdfrwt>
<totfact> 0.11229409E+05</totfact>
</mgrwt>
</event>
<event>
 5    1  0.3858846E+001  0.1166192E+03  0.7546771E-02  0.1248781E+00
         -1   -1    0    0    0  501 -0.00000000000E+00  0.00000000000E+00  0.13196363070E+04  0.13196363070E+04  0.00000000000E+00 0.  1.
          1   -1    0    0  501    0  0.00000000000E+00 -0.00000000000E+00 -0.25764743230E+01  0.25764743230E+01  0.00000000000E+00 0. -1.
         23    2    1    2    0    0  0.00000000000E+00  0.00000000000E+00  0.13170598326E+04  0.13222127813E+04  0.11661919328E+03 0.  0.
          2    1    3    3  502    0 -0.28685716572E+02  0.38611029963E+02  0.28483978992E+03  0.28887261534E+03  0.00000000000E+00 0. -1.
         -2    1    3    3    0  502  0.28685716572E+02 -0.38611029963E+02  0.10322200427E+04  0.10333401659E+04  0.00000000000E+00 0.  1.
<mgrwt>
<rscale>  0 0.11661919E+03</rscale>
<asrwt>0</asrwt>
<pdfrwt beam="2">  1        1 0.39638172E-03 0.11661919E+03</pdfrwt>
<pdfrwt beam="1">  1       -1 0.20302043E+00 0.11661919E+03</pdfrwt>
<totfact> 0.89960596E+03</totfact>
</mgrwt>
</event>
<event>
 5    1  0.3858846E+001  0.9212087E+02  0.7546771E-02  0.1297795E+00
         -2   -1    0    0    0  501 -0.00000000000E+00  0.00000000000E+00  0.57518249296E+01  0.57518249296E+01  0.00000000000E+00 0.  1.
          2   -1    0    0  501    0  0.00000000000E+00 -0.00000000000E+00 -0.36885053479E+03  0.36885053479E+03  0.00000000000E+00 0. -1.
         23    2    1    2    0    0  0.00000000000E+00  0.00000000000E+00 -0.36309870986E+03  0.37460235971E+03  0.92120870627E+02 0.  0.
          2    1    3    3  502    0 -0.29888909448E+02  0.24389656952E+02 -0.28388767421E+03  0.28649679552E+03  0.00000000000E+00 0. -1.
         -2    1    3    3    0  502  0.29888909448E+02 -0.24389656952E+02 -0.79211035644E+02  0.88105564195E+02  0.00000000000E+00 0.  1.
<mgrwt>
<rscale>  0 0.92120871E+02</rscale>
<asrwt>0</asrwt>
<pdfrwt beam="2">  1        2 0.56746253E-01 0.92120871E+02</pdfrwt>
<pdfrwt beam="1">  1       -2 0.88489588E-03 0.92120871E+02</pdfrwt>
<totfact> 0.18862435E+05</totfact>
</mgrwt>
</event>
<event>
 5    1  0.3858846E+001  0.8802756E+02  0.7546771E-02  0.1307700E+00
          1   -1    0    0  501    0  0.00000000000E+00  0.00000000000E+00  0.41434947436E+02  0.41434947436E+02  0.00000000000E+00 0. -1.
         -1   -1    0    0    0  501 -0.00000000000E+00 -0.00000000000E+00 -0.46753114288E+02  0.46753114288E+02  0.00000000000E+00 0.  1.
         23    2    1    2    0    0  0.00000000000E+00  0.00000000000E+00 -0.53181668518E+01  0.88188061724E+02  0.88027560071E+02 0.  0.
          2    1    3    3  502    0  0.38446939501E+02 -0.22815766457E+01  0.18683282338E+02  0.42806982934E+02  0.00000000000E+00 0. -1.
         -2    1    3    3    0  502 -0.38446939501E+02  0.22815766457E+01 -0.24001449190E+02  0.45381078790E+02  0.00000000000E+00 0.  1.
<mgrwt>
<rscale>  0 0.88027560E+02</rscale>
<asrwt>0</asrwt>
<pdfrwt beam="1">  1        1 0.63746074E-02 0.88027560E+02</pdfrwt>
<pdfrwt beam="2">  1       -1 0.71927868E-02 0.88027560E+02</pdfrwt>
<totfact> 0.10060916E+05</totfact>
</mgrwt>
</event>
<event>
 5    1  0.3858846E+001  0.9230720E+02  0.7546771E-02  0.1297359E+00
          1   -1    0    0  501    0  0.00000000000E+00  0.00000000000E+00  0.78149006218E+02  0.78149006218E+02  0.00000000000E+00 0. -1.
         -1   -1    0    0    0  501 -0.00000000000E+00 -0.00000000000E+00 -0.27257604974E+02  0.27257604974E+02  0.00000000000E+00 0.  1.
         23    2    1    2    0    0  0.00000000000E+00  0.00000000000E+00  0.50891401244E+02  0.10540661119E+03  0.92307198865E+02 0.  0.
          2    1    3    3  502    0  0.13763434930E+02  0.41277334687E+02  0.43021646082E+02  0.61189153708E+02  0.00000000000E+00 0. -1.
         -2    1    3    3    0  502 -0.13763434930E+02 -0.41277334687E+02  0.78697551623E+01  0.44217457483E+02  0.00000000000E+00 0.  1.
<mgrwt>
<rscale>  0 0.92307199E+02</rscale>
<asrwt>0</asrwt>
<pdfrwt beam="1">  1        1 0.12022924E-01 0.92307199E+02</pdfrwt>
<pdfrwt beam="2">  1       -1 0.41934777E-02 0.92307199E+02</pdfrwt>
<totfact> 0.97027197E+04</totfact>
</mgrwt>
</event>
<event>
 5    1  0.3858846E+001  0.9467060E+02  0.7546771E-02  0.1291920E+00
         -2   -1    0    0    0  501 -0.00000000000E+00  0.00000000000E+00  0.34029056135E+01  0.34029056135E+01  0.00000000000E+00 0.  1.
          2   -1    0    0  501    0  0.00000000000E+00 -0.00000000000E+00 -0.65844634377E+03  0.65844634377E+03  0.00000000000E+00 0. -1.
         23    2    1    2    0    0  0.00000000000E+00  0.00000000000E+00 -0.65504343815E+03  0.66184924938E+03  0.94670602815E+02 0.  0.
          2    1    3    3  502    0 -0.34126213719E+02 -0.39094060221E+01 -0.55521500319E+03  0.55627653346E+03  0.00000000000E+00 0. -1.
         -2    1    3    3    0  502  0.34126213719E+02  0.39094060221E+01 -0.99828434967E+02  0.10557271592E+03  0.00000000000E+00 0.  1.
<mgrwt>
<rscale>  0 0.94670603E+02</rscale>
<asrwt>0</asrwt>
<pdfrwt beam="2">  1        2 0.10129952E+00 0.94670603E+02</pdfrwt>
<pdfrwt beam="1">  1       -2 0.52352351E-03 0.94670603E+02</pdfrwt>
<totfact> 0.21151194E+05</totfact>
</mgrwt>
</event>
<event>
 5    1  0.3858846E+001  0.9196893E+02  0.7546771E-02  0.1298152E+00
         -2   -1    0    0    0  501 -0.00000000000E+00  0.00000000000E+00  0.47471751792E+01  0.47471751792E+01  0.00000000000E+00 0.  1.
          2   -1    0    0  501    0  0.00000000000E+00 -0.00000000000E+00 -0.44543779238E+03  0.44543779238E+03  0.00000000000E+00 0. -1.
         23    2    1    2    0    0  0.00000000000E+00  0.00000000000E+00 -0.44069061720E+03  0.45018496756E+03  0.91968934578E+02 0.  0.
          2    1    3    3  502    0  0.25977322328E+02  0.33123374904E+02 -0.31094744470E+03  0.31378383101E+03  0.00000000000E+00 0.  1.
         -2    1    3    3    0  502 -0.25977322328E+02 -0.33123374904E+02 -0.12974317251E+03  0.13640113655E+03  0.00000000000E+00 0. -1.
<mgrwt>
<rscale>  0 0.91968935E+02</rscale>
<asrwt>0</asrwt>
<pdfrwt beam="2">  1        2 0.68528884E-01 0.91968935E+02</pdfrwt>
<pdfrwt beam="1">  1       -2 0.73033472E-03 0.91968935E+02</pdfrwt>
<totfact> 0.20260943E+05</totfact>
</mgrwt>
</event>
<event>
 5    1  0.3858846E+001  0.8622411E+02  0.7546771E-02  0.1312262E+00
          2   -1    0    0  501    0  0.00000000000E+00  0.00000000000E+00  0.35200016021E+03  0.35200016021E+03  0.00000000000E+00 0.  1.
         -2   -1    0    0    0  501 -0.00000000000E+00 -0.00000000000E+00 -0.52802517511E+01  0.52802517511E+01  0.00000000000E+00 0. -1.
         23    2    1    2    0    0  0.00000000000E+00  0.00000000000E+00  0.34671990846E+03  0.35728041196E+03  0.86224114083E+02 0.  0.
          2    1    3    3  502    0  0.27523696638E+01 -0.30817471327E+02  0.48957491998E+02  0.57914834891E+02  0.00000000000E+00 0. -1.
         -2    1    3    3    0  502 -0.27523696638E+01  0.30817471327E+02  0.29776241646E+03  0.29936557707E+03  0.00000000000E+00 0.  1.
<mgrwt>
<rscale>  0 0.86224114E+02</rscale>
<asrwt>0</asrwt>
<pdfrwt beam="1">  1        2 0.54153852E-01 0.86224114E+02</pdfrwt>
<pdfrwt beam="2">  1       -2 0.81234670E-03 0.86224114E+02</pdfrwt>
<totfact> 0.22101009E+05</totfact>
</mgrwt>
</event>
<event>
 5    1  0.3858846E+001  0.9009463E+02  0.7546771E-02  0.1302623E+00
         -2   -1    0    0    0  501 -0.00000000000E+00  0.00000000000E+00  0.24577314204E+01  0.24577314204E+01  0.00000000000E+00 0.  1.
          2   -1    0    0  501    0  0.00000000000E+00 -0.00000000000E+00 -0.82566405606E+03  0.82566405606E+03  0.00000000000E+00 0. -1.
         23    2    1    2    0    0  0.00000000000E+00  0.00000000000E+00 -0.82320632464E+03  0.82812178748E+03  0.90094627881E+02 0.  0.
          2    1    3    3  502    0  0.35768642983E+02 -0.27084268612E+02 -0.44872104814E+03  0.45095845981E+03  0.00000000000E+00 0. -1.
         -2    1    3    3    0  502 -0.35768642983E+02  0.27084268612E+02 -0.37448527650E+03  0.37716332767E+03  0.00000000000E+00 0.  1.
<mgrwt>
<rscale>  0 0.90094628E+02</rscale>
<asrwt>0</asrwt>
<pdfrwt beam="2">  1        2 0.12702557E+00 0.90094628E+02</pdfrwt>
<pdfrwt beam="1">  1       -2 0.37811156E-03 0.90094628E+02</pdfrwt>
<totfact> 0.25286109E+05</totfact>
</mgrwt>
</event>
<event>
 5    1  0.3858846E+001  0.8975765E+02  0.7546771E-02  0.1303440E+00
          1   -1    0    0  501    0  0.00000000000E+00  0.00000000000E+00  0.12791109841E+04  0.12791109841E+04  0.00000000000E+00 0. -1.
         -1   -1    0    0    0  501 -0.00000000000E+00 -0.00000000000E+00 -0.15746162189E+01  0.15746162189E+01  0.00000000000E+00 0.  1.
         23    2    1    2    0    0  0.00000000000E+00  0.00000000000E+00  0.12775363679E+04  0.12806856003E+04  0.89757649286E+02 0.  0.
          2    1    3    3  502    0 -0.30662519776E+02 -0.32143720635E+02  0.54774158977E+03  0.54954004228E+03  0.00000000000E+00 0. -1.
         -2    1    3    3    0  502  0.30662519776E+02  0.32143720635E+02  0.72979477813E+03  0.73114555806E+03  0.00000000000E+00 0.  1.
<mgrwt>
<rscale>  0 0.89757649E+02</rscale>
<asrwt>0</asrwt>
<pdfrwt beam="1">  1        1 0.19678547E+00 0.89757649E+02</pdfrwt>
<pdfrwt beam="2">  1       -1 0.24224967E-03 0.89757649E+02</pdfrwt>
<totfact> 0.12841715E+05</totfact>
</mgrwt>
</event>
<event>
 5    1  0.3858846E+001  0.9389133E+02  0.7546771E-02  0.1293693E+00
          2   -1    0    0  501    0  0.00000000000E+00  0.00000000000E+00  0.64541531350E+03  0.64541531350E+03  0.00000000000E+00 0. -1.
         -2   -1    0    0    0  501 -0.00000000000E+00 -0.00000000000E+00 -0.34146936447E+01  0.34146936447E+01  0.00000000000E+00 0.  1.
         23    2    1    2    0    0  0.00000000000E+00  0.00000000000E+00  0.64200061985E+03  0.64883000714E+03  0.93891332277E+02 0.  0.
          2    1    3    3  502    0 -0.45674178103E+02  0.10604622900E+02  0.30508079448E+03  0.30866305211E+03  0.00000000000E+00 0. -1.
         -2    1    3    3    0  502  0.45674178103E+02 -0.10604622900E+02  0.33691982537E+03  0.34016695503E+03  0.00000000000E+00 0.  1.
<mgrwt>
<rscale>  0 0.93891332E+02</rscale>
<asrwt>0</asrwt>
<pdfrwt beam="1">  1        2 0.99294567E-01 0.93891332E+02</pdfrwt>
<pdfrwt beam="2">  1       -2 0.52533800E-03 0.93891332E+02</pdfrwt>
<totfact> 0.21507820E+05</totfact>
</mgrwt>
</event>
<event>
 5    1  0.3858846E+001  0.9054181E+02  0.7546771E-02  0.1301545E+00
         -1   -1    0    0    0  501 -0.00000000000E+00  0.00000000000E+00  0.27134343660E+01  0.27134343660E+01  0.00000000000E+00 0.  1.
          1   -1    0    0  501    0  0.00000000000E+00 -0.00000000000E+00 -0.75529924417E+03  0.75529924417E+03  0.00000000000E+00 0. -1.
         23    2    1    2    0    0  0.00000000000E+00  0.00000000000E+00 -0.75258580981E+03  0.75801267854E+03  0.90541811905E+02 0.  0.
          2    1    3    3  502    0  0.10735767573E+02  0.43956037905E+02 -0.38832336610E+03  0.39095067033E+03  0.00000000000E+00 0. -1.
         -2    1    3    3    0  502 -0.10735767573E+02 -0.43956037905E+02 -0.36426244371E+03  0.36706200821E+03  0.00000000000E+00 0.  1.
<mgrwt>
<rscale>  0 0.90541812E+02</rscale>
<asrwt>0</asrwt>
<pdfrwt beam="2">  1        1 0.11619982E+00 0.90541812E+02</pdfrwt>
<pdfrwt beam="1">  1       -1 0.41745166E-03 0.90541812E+02</pdfrwt>
<totfact> 0.14450347E+05</totfact>
</mgrwt>
</event>
<event>
 5    1  0.3858846E+001  0.9044419E+02  0.7546771E-02  0.1301780E+00
          3   -1    0    0  501    0  0.00000000000E+00  0.00000000000E+00  0.32739146237E+02  0.32739146237E+02  0.00000000000E+00 0. -1.
         -3   -1    0    0    0  501 -0.00000000000E+00 -0.00000000000E+00 -0.62464603212E+02  0.62464603212E+02  0.00000000000E+00 0.  1.
         23    2    1    2    0    0  0.00000000000E+00  0.00000000000E+00 -0.29725456975E+02  0.95203749448E+02  0.90444187855E+02 0.  0.
          2    1    3    3  502    0  0.18632138955E+02  0.22545080419E+02  0.21442900326E+02  0.36266171945E+02  0.00000000000E+00 0. -1.
         -2    1    3    3    0  502 -0.18632138955E+02 -0.22545080419E+02 -0.51168357301E+02  0.58937577504E+02  0.00000000000E+00 0.  1.
<mgrwt>
<rscale>  0 0.90444188E+02</rscale>
<asrwt>0</asrwt>
<pdfrwt beam="1">  1        3 0.50367917E-02 0.90444188E+02</pdfrwt>
<pdfrwt beam="2">  1       -3 0.96099389E-02 0.90444188E+02</pdfrwt>
<totfact> 0.35808708E+04</totfact>
</mgrwt>
</event>
<event>
 5    1  0.3858846E+001  0.9157694E+02  0.7546771E-02  0.1299077E+00
         -4   -1    0    0    0  501 -0.00000000000E+00  0.00000000000E+00  0.16853395772E+03  0.16853395772E+03  0.00000000000E+00 0.  1.
          4   -1    0    0  501    0  0.00000000000E+00 -0.00000000000E+00 -0.12440127069E+02  0.12440127069E+02  0.00000000000E+00 0. -1.
         23    2    1    2    0    0  0.00000000000E+00  0.00000000000E+00  0.15609383066E+03  0.18097408479E+03  0.91576937042E+02 0.  0.
          2    1    3    3  502    0 -0.32347080868E+02  0.31682953614E-01  0.14209062146E+03  0.14572604212E+03  0.00000000000E+00 0. -1.
         -2    1    3    3    0  502  0.32347080868E+02 -0.31682953614E-01  0.14003209191E+02  0.35248042671E+02  0.00000000000E+00 0.  1.
<mgrwt>
<rscale>  0 0.91576937E+02</rscale>
<asrwt>0</asrwt>
<pdfrwt beam="2">  1        4 0.19138658E-02 0.91576937E+02</pdfrwt>
<pdfrwt beam="1">  1       -4 0.25928300E-01 0.91576937E+02</pdfrwt>
<totfact> 0.21947981E+04</totfact>
</mgrwt>
</event>
<event>
 5    1  0.3858846E+001  0.9830165E+02  0.7546771E-02  0.1283908E+00
         -2   -1    0    0    0  501 -0.00000000000E+00  0.00000000000E+00  0.14929006852E+01  0.14929006852E+01  0.00000000000E+00 0.  1.
          2   -1    0    0  501    0  0.00000000000E+00 -0.00000000000E+00 -0.16181944096E+04  0.16181944096E+04  0.00000000000E+00 0. -1.
         23    2    1    2    0    0  0.00000000000E+00  0.00000000000E+00 -0.16167015089E+04  0.16196873103E+04  0.98301648875E+02 0.  0.
          2    1    3    3  502    0  0.25103504561E+02  0.31668221612E+02 -0.12693280262E+04  0.12699711415E+04  0.00000000000E+00 0. -1.
         -2    1    3    3    0  502 -0.25103504561E+02 -0.31668221612E+02 -0.34737348274E+03  0.34971616879E+03  0.00000000000E+00 0.  1.
<mgrwt>
<rscale>  0 0.98301649E+02</rscale>
<asrwt>0</asrwt>
<pdfrwt beam="2">  1        2 0.24895366E+00 0.98301649E+02</pdfrwt>
<pdfrwt beam="1">  1       -2 0.22967641E-03 0.98301649E+02</pdfrwt>
<totfact> 0.18708191E+05</totfact>
</mgrwt>
</event>
<event>
 5    1  0.3858846E+001  0.9147435E+02  0.7546771E-02  0.1299320E+00
          3   -1    0    0  501    0  0.00000000000E+00  0.00000000000E+00  0.67977825202E+02  0.67977825202E+02  0.00000000000E+00 0. -1.
         -3   -1    0    0    0  501 -0.00000000000E+00 -0.00000000000E+00 -0.30773108902E+02  0.30773108902E+02  0.00000000000E+00 0.  1.
         23    2    1    2    0    0  0.00000000000E+00  0.00000000000E+00  0.37204716300E+02  0.98750934103E+02  0.91474346521E+02 0.  0.
          2    1    3    3  502    0 -0.24616014590E+02  0.29330970529E+02 -0.84000451198E+01  0.39202229075E+02  0.00000000000E+00 0. -1.
         -2    1    3    3    0  502  0.24616014590E+02 -0.29330970529E+02  0.45604761420E+02  0.59548705028E+02  0.00000000000E+00 0.  1.
<mgrwt>
<rscale>  0 0.91474347E+02</rscale>
<asrwt>0</asrwt>
<pdfrwt beam="1">  1        3 0.10458127E-01 0.91474347E+02</pdfrwt>
<pdfrwt beam="2">  1       -3 0.47343245E-02 0.91474347E+02</pdfrwt>
<totfact> 0.34456364E+04</totfact>
</mgrwt>
</event>
<event>
 5    1  0.3858846E+001  0.7576846E+02  0.7546771E-02  0.1341508E+00
          1   -1    0    0  501    0  0.00000000000E+00  0.00000000000E+00  0.92429260130E+03  0.92429260130E+03  0.00000000000E+00 0. -1.
         -1   -1    0    0    0  501 -0.00000000000E+00 -0.00000000000E+00 -0.15527711694E+01  0.15527711694E+01  0.00000000000E+00 0.  1.
         23    2    1    2    0    0  0.00000000000E+00  0.00000000000E+00  0.92273983013E+03  0.92584537247E+03  0.75768460547E+02 0.  0.
          2    1    3    3  502    0 -0.16944334079E+02 -0.24180012184E+02  0.75141836041E+03  0.75199822859E+03  0.00000000000E+00 0. -1.
         -2    1    3    3    0  502  0.16944334079E+02  0.24180012184E+02  0.17132146973E+03  0.17384714388E+03  0.00000000000E+00 0.  1.
<mgrwt>
<rscale>  0 0.75768461E+02</rscale>
<asrwt>0</asrwt>
<pdfrwt beam="1">  1        1 0.14219842E+00 0.75768461E+02</pdfrwt>
<pdfrwt beam="2">  1       -1 0.23888861E-03 0.75768461E+02</pdfrwt>
<totfact> 0.22492430E+05</totfact>
</mgrwt>
</event>
<event>
 5    1  0.3858846E+001  0.9055166E+02  0.7546771E-02  0.1301521E+00
         -2   -1    0    0    0  501 -0.00000000000E+00  0.00000000000E+00  0.10967233603E+04  0.10967233603E+04  0.00000000000E+00 0.  1.
          2   -1    0    0  501    0  0.00000000000E+00 -0.00000000000E+00 -0.18691139107E+01  0.18691139107E+01  0.00000000000E+00 0. -1.
         23    2    1    2    0    0  0.00000000000E+00  0.00000000000E+00  0.10948542464E+04  0.10985924742E+04  0.90551662359E+02 0.  0.
          2    1    3    3  502    0  0.95696275811E+01  0.30940947664E+02  0.16358460319E+03  0.16675983453E+03  0.00000000000E+00 0. -1.
         -2    1    3    3    0  502 -0.95696275811E+01 -0.30940947664E+02  0.93126964324E+03  0.93183263971E+03  0.00000000000E+00 0.  1.
<mgrwt>
<rscale>  0 0.90551662E+02</rscale>
<asrwt>0</asrwt>
<pdfrwt beam="2">  1        2 0.28755686E-03 0.90551662E+02</pdfrwt>
<pdfrwt beam="1">  1       -2 0.16872616E+00 0.90551662E+02</pdfrwt>
<totfact> 0.17006015E+04</totfact>
</mgrwt>
</event>
<event>
 5    1  0.3858846E+001  0.9139509E+02  0.7546771E-02  0.1299508E+00
         -3   -1    0    0    0  501 -0.00000000000E+00  0.00000000000E+00  0.67884823216E+02  0.67884823216E+02  0.00000000000E+00 0.  1.
          3   -1    0    0  501    0  0.00000000000E+00 -0.00000000000E+00 -0.30761888913E+02  0.30761888913E+02  0.00000000000E+00 0. -1.
         23    2    1    2    0    0  0.00000000000E+00  0.00000000000E+00  0.37122934303E+02  0.98646712130E+02  0.91395085003E+02 0.  0.
          2    1    3    3  502    0  0.38494382918E+02 -0.15404809661E+02 -0.21759736535E+01  0.41519399541E+02  0.00000000000E+00 0. -1.
         -2    1    3    3    0  502 -0.38494382918E+02  0.15404809661E+02  0.39298907957E+02  0.57127312588E+02  0.00000000000E+00 0.  1.
<mgrwt>
<rscale>  0 0.91395085E+02</rscale>
<asrwt>0</asrwt>
<pdfrwt beam="2">  1        3 0.47325983E-02 0.91395085E+02</pdfrwt>
<pdfrwt beam="1">  1       -3 0.10443819E-01 0.91395085E+02</pdfrwt>
<totfact> 0.34546885E+04</totfact>
</mgrwt>
</event>
<event>
 5    1  0.3858846E+001  0.9222276E+02  0.7546771E-02  0.1297557E+00
          2   -1    0    0  501    0  0.00000000000E+00  0.00000000000E+00  0.14782497044E+04  0.14782497044E+04  0.00000000000E+00 0. -1.
         -2   -1    0    0    0  501 -0.00000000000E+00 -0.00000000000E+00 -0.14383628215E+01  0.14383628215E+01  0.00000000000E+00 0.  1.
         23    2    1    2    0    0  0.00000000000E+00  0.00000000000E+00  0.14768113416E+04  0.14796880672E+04  0.92222761089E+02 0.  0.
          2    1    3    3  502    0  0.28601169761E+02  0.17534252654E+02  0.12459826299E+04  0.12464341904E+04  0.00000000000E+00 0. -1.
         -2    1    3    3    0  502 -0.28601169761E+02 -0.17534252654E+02  0.23082871165E+03  0.23325387682E+03  0.00000000000E+00 0.  1.
<mgrwt>
<rscale>  0 0.92222761E+02</rscale>
<asrwt>0</asrwt>
<pdfrwt beam="1">  1        2 0.22742182E+00 0.92222761E+02</pdfrwt>
<pdfrwt beam="2">  1       -2 0.22128777E-03 0.92222761E+02</pdfrwt>
<totfact> 0.23021108E+05</totfact>
</mgrwt>
</event>
<event>
 5    1  0.3858846E+001  0.9341066E+02  0.7546771E-02  0.1294796E+00
         -3   -1    0    0    0  501 -0.00000000000E+00  0.00000000000E+00  0.39327323575E+02  0.39327323575E+02  0.00000000000E+00 0.  1.
          3   -1    0    0  501    0  0.00000000000E+00 -0.00000000000E+00 -0.55467484622E+02  0.55467484622E+02  0.00000000000E+00 0. -1.
         23    2    1    2    0    0  0.00000000000E+00  0.00000000000E+00 -0.16140161046E+02  0.94794808197E+02  0.93410657114E+02 0.  0.
          2    1    3    3  502    0  0.21806013316E+02  0.41286058436E+02 -0.92478280726E+01  0.47597932329E+02  0.00000000000E+00 0.  1.
         -2    1    3    3    0  502 -0.21806013316E+02 -0.41286058436E+02 -0.68923329736E+01  0.47196875868E+02  0.00000000000E+00 0. -1.
<mgrwt>
<rscale>  0 0.93410657E+02</rscale>
<asrwt>0</asrwt>
<pdfrwt beam="2">  1        3 0.85334592E-02 0.93410657E+02</pdfrwt>
<pdfrwt beam="1">  1       -3 0.60503574E-02 0.93410657E+02</pdfrwt>
<totfact> 0.32819445E+04</totfact>
</mgrwt>
</event>
<event>
 5    1  0.3858846E+001  0.1069319E+03  0.7546771E-02  0.1266359E+00
         -1   -1    0    0    0  501 -0.00000000000E+00  0.00000000000E+00  0.13582163827E+03  0.13582163827E+03  0.00000000000E+00 0. -1.
          1   -1    0    0  501    0  0.00000000000E+00 -0.00000000000E+00 -0.21046768175E+02  0.21046768175E+02  0.00000000000E+00 0.  1.
         23    2    1    2    0    0  0.00000000000E+00  0.00000000000E+00  0.11477487010E+03  0.15686840645E+03  0.10693187614E+03 0.  0.
          2    1    3    3  502    0 -0.33975721226E+02  0.18744475408E+02  0.34287454578E+01  0.38954605460E+02  0.00000000000E+00 0. -1.
         -2    1    3    3    0  502  0.33975721226E+02 -0.18744475408E+02  0.11134612464E+03  0.11791380099E+03  0.00000000000E+00 0.  1.
<mgrwt>
<rscale>  0 0.10693188E+03</rscale>
<asrwt>0</asrwt>
<pdfrwt beam="2">  1        1 0.32379644E-02 0.10693188E+03</pdfrwt>
<pdfrwt beam="1">  1       -1 0.20895636E-01 0.10693188E+03</pdfrwt>
<totfact> 0.50536792E+04</totfact>
</mgrwt>
</event>
<event>
 5    1  0.3858846E+001  0.9094187E+02  0.7546771E-02  0.1300587E+00
         -2   -1    0    0    0  501 -0.00000000000E+00  0.00000000000E+00  0.19174161258E+02  0.19174161258E+02  0.00000000000E+00 0.  1.
          2   -1    0    0  501    0  0.00000000000E+00 -0.00000000000E+00 -0.10783291758E+03  0.10783291758E+03  0.00000000000E+00 0. -1.
         23    2    1    2    0    0  0.00000000000E+00  0.00000000000E+00 -0.88658756319E+02  0.12700707884E+03  0.90941866059E+02 0.  0.
          2    1    3    3  502    0 -0.23874679651E+02  0.24843206971E+02 -0.28903905613E+01  0.34576576155E+02  0.00000000000E+00 0.  1.
         -2    1    3    3    0  502  0.23874679651E+02 -0.24843206971E+02 -0.85768365757E+02  0.92430502680E+02  0.00000000000E+00 0. -1.
<mgrwt>
<rscale>  0 0.90941866E+02</rscale>
<asrwt>0</asrwt>
<pdfrwt beam="2">  1        2 0.16589679E-01 0.90941866E+02</pdfrwt>
<pdfrwt beam="1">  1       -2 0.29498710E-02 0.90941866E+02</pdfrwt>
<totfact> 0.12644908E+05</totfact>
</mgrwt>
</event>
<event>
 5    1  0.3858846E+001  0.9078715E+02  0.7546771E-02  0.1300957E+00
          2   -1    0    0  501    0  0.00000000000E+00  0.00000000000E+00  0.20059396451E+02  0.20059396451E+02  0.00000000000E+00 0. -1.
         -2   -1    0    0    0  501 -0.00000000000E+00 -0.00000000000E+00 -0.10272375544E+03  0.10272375544E+03  0.00000000000E+00 0.  1.
         23    2    1    2    0    0  0.00000000000E+00  0.00000000000E+00 -0.82664358993E+02  0.12278315189E+03  0.90787147446E+02 0.  0.
          2    1    3    3  502    0 -0.28069614784E+02  0.84321485422E+00  0.69016249341E+01  0.28917930634E+02  0.00000000000E+00 0. -1.
         -2    1    3    3    0  502  0.28069614784E+02 -0.84321485422E+00 -0.89565983927E+02  0.93865221260E+02  0.00000000000E+00 0.  1.
<mgrwt>
<rscale>  0 0.90787147E+02</rscale>
<asrwt>0</asrwt>
<pdfrwt beam="1">  1        2 0.30860610E-02 0.90787147E+02</pdfrwt>
<pdfrwt beam="2">  1       -2 0.15803654E-01 0.90787147E+02</pdfrwt>
<totfact> 0.80014700E+04</totfact>
</mgrwt>
</event>
<event>
 5    1  0.3858846E+001  0.9250341E+02  0.7546771E-02  0.1296900E+00
         -2   -1    0    0    0  501 -0.00000000000E+00  0.00000000000E+00  0.96251447866E+00  0.96251447866E+00  0.00000000000E+00 0.  1.
          2   -1    0    0  501    0  0.00000000000E+00 -0.00000000000E+00 -0.22225329369E+04  0.22225329369E+04  0.00000000000E+00 0. -1.
         23    2    1    2    0    0  0.00000000000E+00  0.00000000000E+00 -0.22215704224E+04  0.22234954514E+04  0.92503408176E+02 0.  0.
          2    1    3    3  502    0 -0.35327845774E+02 -0.14613996169E+02 -0.48508908445E+03  0.48659330598E+03  0.00000000000E+00 0.  1.
         -2    1    3    3    0  502  0.35327845774E+02  0.14613996169E+02 -0.17364813380E+04  0.17369021454E+04  0.00000000000E+00 0. -1.
<mgrwt>
<rscale>  0 0.92503408E+02</rscale>
<asrwt>0</asrwt>
<pdfrwt beam="2">  1        2 0.34192747E+00 0.92503408E+02</pdfrwt>
<pdfrwt beam="1">  1       -2 0.14807944E-03 0.92503408E+02</pdfrwt>
<totfact> 0.16910984E+05</totfact>
</mgrwt>
</event>
<event>
 5    1  0.3858846E+001  0.8566753E+02  0.7546771E-02  0.1313696E+00
          1   -1    0    0  501    0  0.00000000000E+00  0.00000000000E+00  0.26668537701E+03  0.26668537701E+03  0.00000000000E+00 0. -1.
         -1   -1    0    0    0  501 -0.00000000000E+00 -0.00000000000E+00 -0.68797608820E+01  0.68797608820E+01  0.00000000000E+00 0.  1.
         23    2    1    2    0    0  0.00000000000E+00  0.00000000000E+00  0.25980561612E+03  0.27356513789E+03  0.85667534680E+02 0.  0.
          2    1    3    3  502    0 -0.28555294747E+01  0.42333626922E+02  0.11116209161E+03  0.11898445541E+03  0.00000000000E+00 0.  1.
         -2    1    3    3    0  502  0.28555294747E+01 -0.42333626922E+02  0.14864352451E+03  0.15458068248E+03  0.00000000000E+00 0. -1.
<mgrwt>
<rscale>  0 0.85667535E+02</rscale>
<asrwt>0</asrwt>
<pdfrwt beam="1">  1        1 0.41028512E-01 0.85667535E+02</pdfrwt>
<pdfrwt beam="2">  1       -1 0.10584250E-02 0.85667535E+02</pdfrwt>
<totfact> 0.14781308E+05</totfact>
</mgrwt>
</event>
<event>
 5    1  0.3858846E+001  0.8597118E+02  0.7546771E-02  0.1312912E+00
          2   -1    0    0  501    0  0.00000000000E+00  0.00000000000E+00  0.17866486475E+02  0.17866486475E+02  0.00000000000E+00 0. -1.
         -2   -1    0    0    0  501 -0.00000000000E+00 -0.00000000000E+00 -0.10342049834E+03  0.10342049834E+03  0.00000000000E+00 0.  1.
         23    2    1    2    0    0  0.00000000000E+00  0.00000000000E+00 -0.85554011864E+02  0.12128698481E+03  0.85971179700E+02 0.  0.
          2    1    3    3  502    0  0.23968776191E+02 -0.28185854508E+02 -0.11906355468E+02  0.38867800644E+02  0.00000000000E+00 0. -1.
         -2    1    3    3    0  502 -0.23968776191E+02  0.28185854508E+02 -0.73647656396E+02  0.82419184169E+02  0.00000000000E+00 0.  1.
<mgrwt>
<rscale>  0 0.85971180E+02</rscale>
<asrwt>0</asrwt>
<pdfrwt beam="1">  1        2 0.27486902E-02 0.85971180E+02</pdfrwt>
<pdfrwt beam="2">  1       -2 0.15910846E-01 0.85971180E+02</pdfrwt>
<totfact> 0.91465516E+04</totfact>
</mgrwt>
</event>
<event>
 5    1  0.3858846E+001  0.8912669E+02  0.7546771E-02  0.1304980E+00
         -2   -1    0    0    0  501 -0.00000000000E+00  0.00000000000E+00  0.79951768556E+00  0.79951768556E+00  0.00000000000E+00 0.  1.
          2   -1    0    0  501    0  0.00000000000E+00 -0.00000000000E+00 -0.24838621540E+04  0.24838621540E+04  0.00000000000E+00 0. -1.
         23    2    1    2    0    0  0.00000000000E+00  0.00000000000E+00 -0.24830626364E+04  0.24846616717E+04  0.89126690069E+02 0.  0.
          2    1    3    3  502    0  0.16452051629E+02  0.38881451075E+02 -0.16391741071E+04  0.16397177168E+04  0.00000000000E+00 0. -1.
         -2    1    3    3    0  502 -0.16452051629E+02 -0.38881451075E+02 -0.84388852921E+03  0.84494395493E+03  0.00000000000E+00 0.  1.
<mgrwt>
<rscale>  0 0.89126690E+02</rscale>
<asrwt>0</asrwt>
<pdfrwt beam="2">  1        2 0.38212788E+00 0.89126690E+02</pdfrwt>
<pdfrwt beam="1">  1       -2 0.12300425E-03 0.89126690E+02</pdfrwt>
<totfact> 0.15947043E+05</totfact>
</mgrwt>
</event>
<event>
 5    1  0.3858846E+001  0.8868376E+02  0.7546771E-02  0.1306071E+00
          2   -1    0    0  501    0  0.00000000000E+00  0.00000000000E+00  0.45369444943E+03  0.45369444943E+03  0.00000000000E+00 0.  1.
         -2   -1    0    0    0  501 -0.00000000000E+00 -0.00000000000E+00 -0.43337589393E+01  0.43337589393E+01  0.00000000000E+00 0. -1.
         23    2    1    2    0    0  0.00000000000E+00  0.00000000000E+00  0.44936069049E+03  0.45802820837E+03  0.88683761218E+02 0.  0.
          2    1    3    3  502    0  0.34462514492E+02  0.16831322233E+02  0.33961679030E+03  0.34177554413E+03  0.00000000000E+00 0. -1.
         -2    1    3    3    0  502 -0.34462514492E+02 -0.16831322233E+02  0.10974390020E+03  0.11625266424E+03  0.00000000000E+00 0.  1.
<mgrwt>
<rscale>  0 0.88683761E+02</rscale>
<asrwt>0</asrwt>
<pdfrwt beam="1">  1        2 0.69799109E-01 0.88683761E+02</pdfrwt>
<pdfrwt beam="2">  1       -2 0.66673250E-03 0.88683761E+02</pdfrwt>
<totfact> 0.22449709E+05</totfact>
</mgrwt>
</event>
<event>
 5    1  0.3858846E+001  0.9055158E+02  0.7546771E-02  0.1301521E+00
         -1   -1    0    0    0  501 -0.00000000000E+00  0.00000000000E+00  0.48931647030E+01  0.48931647030E+01  0.00000000000E+00 0.  1.
          1   -1    0    0  501    0  0.00000000000E+00 -0.00000000000E+00 -0.41893073909E+03  0.41893073909E+03  0.00000000000E+00 0. -1.
         23    2    1    2    0    0  0.00000000000E+00  0.00000000000E+00 -0.41403757439E+03  0.42382390379E+03  0.90551578794E+02 0.  0.
          2    1    3    3  502    0  0.30493798273E+02 -0.14658088702E+02 -0.34783526940E+03  0.34947690330E+03  0.00000000000E+00 0.  1.
         -2    1    3    3    0  502 -0.30493798273E+02  0.14658088702E+02 -0.66202304984E+02  0.74347000496E+02  0.00000000000E+00 0. -1.
<mgrwt>
<rscale>  0 0.90551579E+02</rscale>
<asrwt>0</asrwt>
<pdfrwt beam="2">  1        1 0.64450893E-01 0.90551579E+02</pdfrwt>
<pdfrwt beam="1">  1       -1 0.75279446E-03 0.90551579E+02</pdfrwt>
<totfact> 0.13839705E+05</totfact>
</mgrwt>
</event>
<event>
 5    1  0.3858846E+001  0.9118433E+02  0.7546771E-02  0.1300009E+00
          2   -1    0    0  501    0  0.00000000000E+00  0.00000000000E+00  0.38532690865E+03  0.38532690865E+03  0.00000000000E+00 0. -1.
         -2   -1    0    0    0  501 -0.00000000000E+00 -0.00000000000E+00 -0.53944988952E+01  0.53944988952E+01  0.00000000000E+00 0.  1.
         23    2    1    2    0    0  0.00000000000E+00  0.00000000000E+00  0.37993240975E+03  0.39072140754E+03  0.91184331614E+02 0.  0.
          2    1    3    3  502    0  0.45718611470E+01 -0.25297231004E+02  0.35131046502E+03  0.35224976173E+03  0.00000000000E+00 0. -1.
         -2    1    3    3    0  502 -0.45718611470E+01  0.25297231004E+02  0.28621944733E+02  0.38471645807E+02  0.00000000000E+00 0.  1.
<mgrwt>
<rscale>  0 0.91184332E+02</rscale>
<asrwt>0</asrwt>
<pdfrwt beam="1">  1        2 0.59281041E-01 0.91184332E+02</pdfrwt>
<pdfrwt beam="2">  1       -2 0.82992321E-03 0.91184332E+02</pdfrwt>
<totfact> 0.19691900E+05</totfact>
</mgrwt>
</event>
<event>
 5    1  0.3858846E+001  0.9107343E+02  0.7546771E-02  0.1300273E+00
          2   -1    0    0  501    0  0.00000000000E+00  0.00000000000E+00  0.20166818357E+04  0.20166818357E+04  0.00000000000E+00 0. -1.
         -2   -1    0    0    0  501 -0.00000000000E+00 -0.00000000000E+00 -0.10282198773E+01  0.10282198773E+01  0.00000000000E+00 0.  1.
         23    2    1    2    0    0  0.00000000000E+00  0.00000000000E+00  0.20156536158E+04  0.20177100555E+04  0.91073428610E+02 0.  0.
          2    1    3    3  502    0 -0.30766217501E+02 -0.32092268949E+02  0.12261591227E+04  0.12269648194E+04  0.00000000000E+00 0. -1.
         -2    1    3    3    0  502  0.30766217501E+02  0.32092268949E+02  0.78949449312E+03  0.79074523617E+03  0.00000000000E+00 0.  1.
<mgrwt>
<rscale>  0 0.91073429E+02</rscale>
<asrwt>0</asrwt>
<pdfrwt beam="1">  1        2 0.31025558E+00 0.91073429E+02</pdfrwt>
<pdfrwt beam="2">  1       -2 0.15818929E-03 0.91073429E+02</pdfrwt>
<totfact> 0.19585785E+05</totfact>
</mgrwt>
</event>
<event>
 5    1  0.3858846E+001  0.8561011E+02  0.7546771E-02  0.1313845E+00
          2   -1    0    0  501    0  0.00000000000E+00  0.00000000000E+00  0.11552224883E+03  0.11552224883E+03  0.00000000000E+00 0.  1.
         -2   -1    0    0    0  501 -0.00000000000E+00 -0.00000000000E+00 -0.15860779026E+02  0.15860779026E+02  0.00000000000E+00 0. -1.
         23    2    1    2    0    0  0.00000000000E+00  0.00000000000E+00  0.99661469803E+02  0.13138302786E+03  0.85610112985E+02 0.  0.
          2    1    3    3  502    0  0.19982168169E+02  0.12827009039E+02 -0.48269834490E+01  0.24230538064E+02  0.00000000000E+00 0. -1.
         -2    1    3    3    0  502 -0.19982168169E+02 -0.12827009039E+02  0.10448845325E+03  0.10715248979E+03  0.00000000000E+00 0.  1.
<mgrwt>
<rscale>  0 0.85610113E+02</rscale>
<asrwt>0</asrwt>
<pdfrwt beam="1">  1        2 0.17772653E-01 0.85610113E+02</pdfrwt>
<pdfrwt beam="2">  1       -2 0.24401199E-02 0.85610113E+02</pdfrwt>
<totfact> 0.15231706E+05</totfact>
</mgrwt>
</event>
<event>
 5    1  0.3858846E+001  0.9062068E+02  0.7546771E-02  0.1301356E+00
         -2   -1    0    0    0  501 -0.00000000000E+00  0.00000000000E+00  0.72000180960E+00  0.72000180960E+00  0.00000000000E+00 0.  1.
          2   -1    0    0  501    0  0.00000000000E+00 -0.00000000000E+00 -0.28514193039E+04  0.28514193039E+04  0.00000000000E+00 0. -1.
         23    2    1    2    0    0  0.00000000000E+00  0.00000000000E+00 -0.28506993021E+04  0.28521393057E+04  0.90620683263E+02 0.  0.
          2    1    3    3  502    0  0.18129175799E+02  0.28462335174E+02 -0.23769995306E+04  0.23772390583E+04  0.00000000000E+00 0. -1.
         -2    1    3    3    0  502 -0.18129175799E+02 -0.28462335174E+02 -0.47369977149E+03  0.47490024747E+03  0.00000000000E+00 0.  1.
<mgrwt>
<rscale>  0 0.90620683E+02</rscale>
<asrwt>0</asrwt>
<pdfrwt beam="2">  1        2 0.43868690E+00 0.90620683E+02</pdfrwt>
<pdfrwt beam="1">  1       -2 0.11076774E-03 0.90620683E+02</pdfrwt>
<totfact> 0.11704752E+05</totfact>
</mgrwt>
</event>
<event>
 5    1  0.3858846E+001  0.8909554E+02  0.7546771E-02  0.1305057E+00
          1   -1    0    0  501    0  0.00000000000E+00  0.00000000000E+00  0.14546274137E+04  0.14546274137E+04  0.00000000000E+00 0. -1.
         -1   -1    0    0    0  501 -0.00000000000E+00 -0.00000000000E+00 -0.13642693533E+01  0.13642693533E+01  0.00000000000E+00 0.  1.
         23    2    1    2    0    0  0.00000000000E+00  0.00000000000E+00  0.14532631444E+04  0.14559916831E+04  0.89095535263E+02 0.  0.
          2    1    3    3  502    0 -0.36927021749E+02  0.24736405852E+02  0.77568152843E+03  0.77695387782E+03  0.00000000000E+00 0.  1.
         -2    1    3    3    0  502  0.36927021749E+02 -0.24736405852E+02  0.67758161594E+03  0.67903780525E+03  0.00000000000E+00 0. -1.
<mgrwt>
<rscale>  0 0.89095535E+02</rscale>
<asrwt>0</asrwt>
<pdfrwt beam="1">  1        1 0.22378759E+00 0.89095535E+02</pdfrwt>
<pdfrwt beam="2">  1       -1 0.20988876E-03 0.89095535E+02</pdfrwt>
<totfact> 0.12035946E+05</totfact>
</mgrwt>
</event>
<event>
 5    1  0.3858846E+001  0.9125910E+02  0.7546771E-02  0.1299831E+00
          4   -1    0    0  501    0  0.00000000000E+00  0.00000000000E+00  0.76061920443E+02  0.76061920443E+02  0.00000000000E+00 0. -1.
         -4   -1    0    0    0  501 -0.00000000000E+00 -0.00000000000E+00 -0.27373169226E+02  0.27373169226E+02  0.00000000000E+00 0.  1.
         23    2    1    2    0    0  0.00000000000E+00  0.00000000000E+00  0.48688751218E+02  0.10343508967E+03  0.91259099709E+02 0.  0.
          2    1    3    3  502    0  0.26509173410E+02 -0.32328730286E+02  0.45063778105E+02  0.61470539072E+02  0.00000000000E+00 0. -1.
         -2    1    3    3    0  502 -0.26509173410E+02  0.32328730286E+02  0.36249731130E+01  0.41964550597E+02  0.00000000000E+00 0.  1.
<mgrwt>
<rscale>  0 0.91259100E+02</rscale>
<asrwt>0</asrwt>
<pdfrwt beam="1">  1        4 0.11701834E-01 0.91259100E+02</pdfrwt>
<pdfrwt beam="2">  1       -4 0.42112568E-02 0.91259100E+02</pdfrwt>
<totfact> 0.26183224E+04</totfact>
</mgrwt>
</event>
<event>
 5    1  0.3858846E+001  0.9146098E+02  0.7546771E-02  0.1299352E+00
         -1   -1    0    0    0  501 -0.00000000000E+00  0.00000000000E+00  0.23435052752E+02  0.23435052752E+02  0.00000000000E+00 0.  1.
          1   -1    0    0  501    0  0.00000000000E+00 -0.00000000000E+00 -0.89237173474E+02  0.89237173474E+02  0.00000000000E+00 0. -1.
         23    2    1    2    0    0  0.00000000000E+00  0.00000000000E+00 -0.65802120722E+02  0.11267222623E+03  0.91460983326E+02 0.  0.
          2    1    3    3  502    0  0.37593580481E+02 -0.16494143521E+02 -0.57721757052E+02  0.70831739362E+02  0.00000000000E+00 0. -1.
         -2    1    3    3    0  502 -0.37593580481E+02  0.16494143521E+02 -0.80803636699E+01  0.41840486863E+02  0.00000000000E+00 0.  1.
<mgrwt>
<rscale>  0 0.91460983E+02</rscale>
<asrwt>0</asrwt>
<pdfrwt beam="2">  1        1 0.13728796E-01 0.91460983E+02</pdfrwt>
<pdfrwt beam="1">  1       -1 0.36053928E-02 0.91460983E+02</pdfrwt>
<totfact> 0.10164905E+05</totfact>
</mgrwt>
</event>
<event>
 5    1  0.3858846E+001  0.9037233E+02  0.7546771E-02  0.1301953E+00
          3   -1    0    0  501    0  0.00000000000E+00  0.00000000000E+00  0.30281327935E+02  0.30281327935E+02  0.00000000000E+00 0. -1.
         -3   -1    0    0    0  501 -0.00000000000E+00 -0.00000000000E+00 -0.67427348534E+02  0.67427348534E+02  0.00000000000E+00 0.  1.
         23    2    1    2    0    0  0.00000000000E+00  0.00000000000E+00 -0.37146020599E+02  0.97708676470E+02  0.90372333217E+02 0.  0.
          2    1    3    3  502    0  0.83126942684E+01  0.34489827282E+02  0.11683406902E+02  0.37351721096E+02  0.00000000000E+00 0. -1.
         -2    1    3    3    0  502 -0.83126942684E+01 -0.34489827282E+02 -0.48829427501E+02  0.60356955374E+02  0.00000000000E+00 0.  1.
<mgrwt>
<rscale>  0 0.90372333E+02</rscale>
<asrwt>0</asrwt>
<pdfrwt beam="1">  1        3 0.46586659E-02 0.90372333E+02</pdfrwt>
<pdfrwt beam="2">  1       -3 0.10373438E-01 0.90372333E+02</pdfrwt>
<totfact> 0.35692538E+04</totfact>
</mgrwt>
</event>
<event>
 5    1  0.3858846E+001  0.9285554E+02  0.7546771E-02  0.1296080E+00
         -3   -1    0    0    0  501 -0.00000000000E+00  0.00000000000E+00  0.13645100731E+02  0.13645100731E+02  0.00000000000E+00 0.  1.
          3   -1    0    0  501    0  0.00000000000E+00 -0.00000000000E+00 -0.15797157254E+03  0.15797157254E+03  0.00000000000E+00 0. -1.
         23    2    1    2    0    0  0.00000000000E+00  0.00000000000E+00 -0.14432647180E+03  0.17161667327E+03  0.92855544150E+02 0.  0.
          2    1    3    3  502    0 -0.26733955664E+02 -0.32162232012E+02 -0.10942312533E+03  0.11714321966E+03  0.00000000000E+00 0. -1.
         -2    1    3    3    0  502  0.26733955664E+02  0.32162232012E+02 -0.34903346471E+02  0.54473453611E+02  0.00000000000E+00 0.  1.
<mgrwt>
<rscale>  0 0.92855544E+02</rscale>
<asrwt>0</asrwt>
<pdfrwt beam="2">  1        3 0.24303319E-01 0.92855544E+02</pdfrwt>
<pdfrwt beam="1">  1       -3 0.20992462E-02 0.92855544E+02</pdfrwt>
<totfact> 0.28585570E+04</totfact>
</mgrwt>
</event>
<event>
 5    1  0.3858846E+001  0.9214117E+02  0.7546771E-02  0.1297748E+00
         -2   -1    0    0    0  501 -0.00000000000E+00  0.00000000000E+00  0.77866861068E+02  0.77866861068E+02  0.00000000000E+00 0.  1.
          2   -1    0    0  501    0  0.00000000000E+00 -0.00000000000E+00 -0.27258053008E+02  0.27258053008E+02  0.00000000000E+00 0. -1.
         23    2    1    2    0    0  0.00000000000E+00  0.00000000000E+00  0.50608808060E+02  0.10512491408E+03  0.92141174869E+02 0.  0.
          2    1    3    3  502    0  0.40588552372E+02 -0.10340427256E+02  0.34136472435E+01  0.42023898046E+02  0.00000000000E+00 0. -1.
         -2    1    3    3    0  502 -0.40588552372E+02  0.10340427256E+02  0.47195160816E+02  0.63101016030E+02  0.00000000000E+00 0.  1.
<mgrwt>
<rscale>  0 0.92141175E+02</rscale>
<asrwt>0</asrwt>
<pdfrwt beam="2">  1        2 0.41935466E-02 0.92141175E+02</pdfrwt>
<pdfrwt beam="1">  1       -2 0.11979517E-01 0.92141175E+02</pdfrwt>
<totfact> 0.83528512E+04</totfact>
</mgrwt>
</event>
<event>
 5    1  0.3858846E+001  0.8118269E+02  0.7546771E-02  0.1325728E+00
         -1   -1    0    0    0  501 -0.00000000000E+00  0.00000000000E+00  0.18644013696E+01  0.18644013696E+01  0.00000000000E+00 0.  1.
          1   -1    0    0  501    0  0.00000000000E+00 -0.00000000000E+00 -0.88374600405E+03  0.88374600405E+03  0.00000000000E+00 0. -1.
         23    2    1    2    0    0  0.00000000000E+00  0.00000000000E+00 -0.88188160268E+03  0.88561040542E+03  0.81182689297E+02 0.  0.
          2    1    3    3  502    0 -0.35180220386E+01 -0.24920943242E+02 -0.78835450069E+03  0.78875614016E+03  0.00000000000E+00 0. -1.
         -2    1    3    3    0  502  0.35180220386E+01  0.24920943242E+02 -0.93527101989E+02  0.96854265252E+02  0.00000000000E+00 0.  1.
<mgrwt>
<rscale>  0 0.81182689E+02</rscale>
<asrwt>0</asrwt>
<pdfrwt beam="2">  1        1 0.13596114E+00 0.81182689E+02</pdfrwt>
<pdfrwt beam="1">  1       -1 0.28683052E-03 0.81182689E+02</pdfrwt>
<totfact> 0.18941462E+05</totfact>
</mgrwt>
</event>
<event>
 5    1  0.3858846E+001  0.9046180E+02  0.7546771E-02  0.1301737E+00
         -1   -1    0    0    0  501 -0.00000000000E+00  0.00000000000E+00  0.17431932065E+02  0.17431932065E+02  0.00000000000E+00 0.  1.
          1   -1    0    0  501    0  0.00000000000E+00 -0.00000000000E+00 -0.11736130034E+03  0.11736130034E+03  0.00000000000E+00 0. -1.
         23    2    1    2    0    0  0.00000000000E+00  0.00000000000E+00 -0.99929368279E+02  0.13479323241E+03  0.90461797785E+02 0.  0.
          2    1    3    3  502    0  0.42435711368E+02 -0.87129175251E+01 -0.69342855488E+02  0.81762681820E+02  0.00000000000E+00 0. -1.
         -2    1    3    3    0  502 -0.42435711368E+02  0.87129175251E+01 -0.30586512791E+02  0.53030550589E+02  0.00000000000E+00 0.  1.
<mgrwt>
<rscale>  0 0.90461798E+02</rscale>
<asrwt>0</asrwt>
<pdfrwt beam="2">  1        1 0.18055585E-01 0.90461798E+02</pdfrwt>
<pdfrwt beam="1">  1       -1 0.26818356E-02 0.90461798E+02</pdfrwt>
<totfact> 0.10963978E+05</totfact>
</mgrwt>
</event>
<event>
 5    1  0.3858846E+001  0.1041822E+03  0.7546771E-02  0.1271739E+00
         -2   -1    0    0    0  501 -0.00000000000E+00  0.00000000000E+00  0.12327286831E+01  0.12327286831E+01  0.00000000000E+00 0.  1.
          2   -1    0    0  501    0  0.00000000000E+00 -0.00000000000E+00 -0.22012009618E+04  0.22012009618E+04  0.00000000000E+00 0. -1.
         23    2    1    2    0    0  0.00000000000E+00  0.00000000000E+00 -0.21999682331E+04  0.22024336905E+04  0.10418221658E+03 0.  0.
          2    1    3    3  502    0  0.91244262177E+01  0.37740780563E+02 -0.18340888660E+04  0.18344998201E+04  0.00000000000E+00 0. -1.
         -2    1    3    3    0  502 -0.91244262177E+01 -0.37740780563E+02 -0.36587936711E+03  0.36793387035E+03  0.00000000000E+00 0.  1.
<mgrwt>
<rscale>  0 0.10418222E+03</rscale>
<asrwt>0</asrwt>
<pdfrwt beam="2">  1        2 0.33864160E+00 0.10418222E+03</pdfrwt>
<pdfrwt beam="1">  1       -2 0.18965320E-03 0.10418222E+03</pdfrwt>
<totfact> 0.12463026E+05</totfact>
</mgrwt>
</event>
<event>
 5    1  0.3858846E+001  0.9481966E+02  0.7546771E-02  0.1291583E+00
          2   -1    0    0  501    0  0.00000000000E+00  0.00000000000E+00  0.31296217201E+03  0.31296217201E+03  0.00000000000E+00 0. -1.
         -2   -1    0    0    0  501 -0.00000000000E+00 -0.00000000000E+00 -0.71819917702E+01  0.71819917702E+01  0.00000000000E+00 0.  1.
         23    2    1    2    0    0  0.00000000000E+00  0.00000000000E+00  0.30578018024E+03  0.32014416378E+03  0.94819655003E+02 0.  0.
          2    1    3    3  502    0 -0.22249943448E+02  0.18144916525E+02  0.28027258415E+03  0.28173927558E+03  0.00000000000E+00 0. -1.
         -2    1    3    3    0  502  0.22249943448E+02 -0.18144916525E+02  0.25507596085E+02  0.38404888193E+02  0.00000000000E+00 0.  1.
<mgrwt>
<rscale>  0 0.94819655E+02</rscale>
<asrwt>0</asrwt>
<pdfrwt beam="1">  1        2 0.48148016E-01 0.94819655E+02</pdfrwt>
<pdfrwt beam="2">  1       -2 0.11049221E-02 0.94819655E+02</pdfrwt>
<totfact> 0.16436129E+05</totfact>
</mgrwt>
</event>
<event>
 5    1  0.3858846E+001  0.9269059E+02  0.7546771E-02  0.1296464E+00
          1   -1    0    0  501    0  0.00000000000E+00  0.00000000000E+00  0.62557351487E+03  0.62557351487E+03  0.00000000000E+00 0. -1.
         -1   -1    0    0    0  501 -0.00000000000E+00 -0.00000000000E+00 -0.34334675544E+01  0.34334675544E+01  0.00000000000E+00 0.  1.
         23    2    1    2    0    0  0.00000000000E+00  0.00000000000E+00  0.62214004732E+03  0.62900698243E+03  0.92690589948E+02 0.  0.
          2    1    3    3  502    0 -0.15695347097E+02 -0.27323102585E+02  0.54169642810E+03  0.54261212304E+03  0.00000000000E+00 0. -1.
         -2    1    3    3    0  502  0.15695347097E+02  0.27323102585E+02  0.80443619220E+02  0.86394859387E+02  0.00000000000E+00 0.  1.
<mgrwt>
<rscale>  0 0.92690590E+02</rscale>
<asrwt>0</asrwt>
<pdfrwt beam="1">  1        1 0.96241989E-01 0.92690590E+02</pdfrwt>
<pdfrwt beam="2">  1       -1 0.52822628E-03 0.92690590E+02</pdfrwt>
<totfact> 0.13583624E+05</totfact>
</mgrwt>
</event>
<event>
 5    1  0.3858846E+001  0.9105161E+02  0.7546771E-02  0.1300325E+00
          1   -1    0    0  501    0  0.00000000000E+00  0.00000000000E+00  0.57992842166E+02  0.57992842166E+02  0.00000000000E+00 0.  1.
         -1   -1    0    0    0  501 -0.00000000000E+00 -0.00000000000E+00 -0.35738873770E+02  0.35738873770E+02  0.00000000000E+00 0. -1.
         23    2    1    2    0    0  0.00000000000E+00  0.00000000000E+00  0.22253968396E+02  0.93731715936E+02  0.91051608789E+02 0.  0.
          2    1    3    3  502    0 -0.42359466760E+01  0.41552891101E+02  0.29771211162E+02  0.51292407013E+02  0.00000000000E+00 0.  1.
         -2    1    3    3    0  502  0.42359466760E+01 -0.41552891101E+02 -0.75172427661E+01  0.42439308924E+02  0.00000000000E+00 0. -1.
<mgrwt>
<rscale>  0 0.91051609E+02</rscale>
<asrwt>0</asrwt>
<pdfrwt beam="1">  1        1 0.89219757E-02 0.91051609E+02</pdfrwt>
<pdfrwt beam="2">  1       -1 0.54982883E-02 0.91051609E+02</pdfrwt>
<totfact> 0.96244085E+04</totfact>
</mgrwt>
</event>
<event>
 5    1  0.3858846E+001  0.8914665E+02  0.7546771E-02  0.1304931E+00
         -2   -1    0    0    0  501 -0.00000000000E+00  0.00000000000E+00  0.91876294493E+02  0.91876294493E+02  0.00000000000E+00 0. -1.
          2   -1    0    0  501    0  0.00000000000E+00 -0.00000000000E+00 -0.21624524949E+02  0.21624524949E+02  0.00000000000E+00 0.  1.
         23    2    1    2    0    0  0.00000000000E+00  0.00000000000E+00  0.70251769545E+02  0.11350081944E+03  0.89146648226E+02 0.  0.
          2    1    3    3  502    0  0.41530758023E+02 -0.13236631955E+02  0.46985650531E+02  0.64091057436E+02  0.00000000000E+00 0. -1.
         -2    1    3    3    0  502 -0.41530758023E+02  0.13236631955E+02  0.23266119014E+02  0.49409762006E+02  0.00000000000E+00 0.  1.
<mgrwt>
<rscale>  0 0.89146648E+02</rscale>
<asrwt>0</asrwt>
<pdfrwt beam="2">  1        2 0.33268501E-02 0.89146648E+02</pdfrwt>
<pdfrwt beam="1">  1       -2 0.14134814E-01 0.89146648E+02</pdfrwt>
<totfact> 0.86507086E+04</totfact>
</mgrwt>
</event>
<event>
 5    1  0.3858846E+001  0.9111003E+02  0.7546771E-02  0.1300186E+00
          2   -1    0    0  501    0  0.00000000000E+00  0.00000000000E+00  0.41930834575E+02  0.41930834575E+02  0.00000000000E+00 0.  1.
         -2   -1    0    0    0  501 -0.00000000000E+00 -0.00000000000E+00 -0.49492444126E+02  0.49492444126E+02  0.00000000000E+00 0. -1.
         23    2    1    2    0    0  0.00000000000E+00  0.00000000000E+00 -0.75616095512E+01  0.91423278701E+02  0.91110032101E+02 0.  0.
          2    1    3    3  502    0 -0.29015339871E+02  0.29292082005E+02 -0.23221197126E+02  0.47319552111E+02  0.00000000000E+00 0. -1.
         -2    1    3    3    0  502  0.29015339871E+02 -0.29292082005E+02  0.15659587575E+02  0.44103726589E+02  0.00000000000E+00 0.  1.
<mgrwt>
<rscale>  0 0.91110032E+02</rscale>
<asrwt>0</asrwt>
<pdfrwt beam="1">  1        2 0.64508977E-02 0.91110032E+02</pdfrwt>
<pdfrwt beam="2">  1       -2 0.76142221E-02 0.91110032E+02</pdfrwt>
<totfact> 0.96764043E+04</totfact>
</mgrwt>
</event>
<event>
 5    1  0.3858846E+001  0.9159365E+02  0.7546771E-02  0.1299038E+00
         -4   -1    0    0    0  501 -0.00000000000E+00  0.00000000000E+00  0.55758279811E+02  0.55758279811E+02  0.00000000000E+00 0.  1.
          4   -1    0    0  501    0  0.00000000000E+00 -0.00000000000E+00 -0.37615024355E+02  0.37615024355E+02  0.00000000000E+00 0. -1.
         23    2    1    2    0    0  0.00000000000E+00  0.00000000000E+00  0.18143255456E+02  0.93373304166E+02  0.91593647227E+02 0.  0.
          2    1    3    3  502    0  0.20466421285E+02 -0.14839813524E+02 -0.29857444192E+02  0.39122390512E+02  0.00000000000E+00 0. -1.
         -2    1    3    3    0  502 -0.20466421285E+02  0.14839813524E+02  0.48000699648E+02  0.54250913654E+02  0.00000000000E+00 0.  1.
<mgrwt>
<rscale>  0 0.91593647E+02</rscale>
<asrwt>0</asrwt>
<pdfrwt beam="2">  1        4 0.57869268E-02 0.91593647E+02</pdfrwt>
<pdfrwt beam="1">  1       -4 0.85781969E-02 0.91593647E+02</pdfrwt>
<totfact> 0.26544304E+04</totfact>
</mgrwt>
</event>
<event>
 5    1  0.3858846E+001  0.8850541E+02  0.7546771E-02  0.1306512E+00
         -1   -1    0    0    0  501 -0.00000000000E+00  0.00000000000E+00  0.29562603914E+03  0.29562603914E+03  0.00000000000E+00 0.  1.
          1   -1    0    0  501    0  0.00000000000E+00 -0.00000000000E+00 -0.66242536999E+01  0.66242536999E+01  0.00000000000E+00 0. -1.
         23    2    1    2    0    0  0.00000000000E+00  0.00000000000E+00  0.28900178544E+03  0.30225029284E+03  0.88505409633E+02 0.  0.
          2    1    3    3  502    0  0.37795323754E+02  0.92741940318E+01  0.72557176425E+02  0.82334931975E+02  0.00000000000E+00 0. -1.
         -2    1    3    3    0  502 -0.37795323754E+02 -0.92741940318E+01  0.21644460902E+03  0.21991536087E+03  0.00000000000E+00 0.  1.
<mgrwt>
<rscale>  0 0.88505410E+02</rscale>
<asrwt>0</asrwt>
<pdfrwt beam="2">  1        1 0.10191162E-02 0.88505410E+02</pdfrwt>
<pdfrwt beam="1">  1       -1 0.45480919E-01 0.88505410E+02</pdfrwt>
<totfact> 0.65854957E+04</totfact>
</mgrwt>
</event>
<event>
 5    1  0.3858846E+001  0.9202416E+02  0.7546771E-02  0.1298023E+00
          1   -1    0    0  501    0  0.00000000000E+00  0.00000000000E+00  0.12324352539E+04  0.12324352539E+04  0.00000000000E+00 0. -1.
         -1   -1    0    0    0  501 -0.00000000000E+00 -0.00000000000E+00 -0.17178277285E+01  0.17178277285E+01  0.00000000000E+00 0.  1.
         23    2    1    2    0    0  0.00000000000E+00  0.00000000000E+00  0.12307174262E+04  0.12341530816E+04  0.92024158845E+02 0.  0.
          2    1    3    3  502    0 -0.38165649838E+02 -0.18547854332E+02  0.85393904182E+03  0.85499270574E+03  0.00000000000E+00 0. -1.
         -2    1    3    3    0  502  0.38165649838E+02  0.18547854332E+02  0.37677838436E+03  0.37916037589E+03  0.00000000000E+00 0.  1.
<mgrwt>
<rscale>  0 0.92024159E+02</rscale>
<asrwt>0</asrwt>
<pdfrwt beam="1">  1        1 0.18960472E+00 0.92024159E+02</pdfrwt>
<pdfrwt beam="2">  1       -1 0.26428218E-03 0.92024159E+02</pdfrwt>
<totfact> 0.12261877E+05</totfact>
</mgrwt>
</event>
<event>
 5    1  0.3858846E+001  0.9152482E+02  0.7546771E-02  0.1299201E+00
         -2   -1    0    0    0  501 -0.00000000000E+00  0.00000000000E+00  0.46152940312E+02  0.46152940312E+02  0.00000000000E+00 0.  1.
          2   -1    0    0  501    0  0.00000000000E+00 -0.00000000000E+00 -0.45375187512E+02  0.45375187512E+02  0.00000000000E+00 0. -1.
         23    2    1    2    0    0  0.00000000000E+00  0.00000000000E+00  0.77775279970E+00  0.91528127824E+02  0.91524823319E+02 0.  0.
          2    1    3    3  502    0 -0.44718177773E+02  0.88819105886E+01  0.43380140186E+01  0.45797621387E+02  0.00000000000E+00 0. -1.
         -2    1    3    3    0  502  0.44718177773E+02 -0.88819105886E+01 -0.35602612189E+01  0.45730506437E+02  0.00000000000E+00 0.  1.
<mgrwt>
<rscale>  0 0.91524823E+02</rscale>
<asrwt>0</asrwt>
<pdfrwt beam="2">  1        2 0.69807981E-02 0.91524823E+02</pdfrwt>
<pdfrwt beam="1">  1       -2 0.71004524E-02 0.91524823E+02</pdfrwt>
<totfact> 0.97481304E+04</totfact>
</mgrwt>
</event>
<event>
 5    1  0.3858846E+001  0.8977326E+02  0.7546771E-02  0.1303402E+00
         -2   -1    0    0    0  501 -0.00000000000E+00  0.00000000000E+00  0.54330181865E+01  0.54330181865E+01  0.00000000000E+00 0.  1.
          2   -1    0    0  501    0  0.00000000000E+00 -0.00000000000E+00 -0.37084532994E+03  0.37084532994E+03  0.00000000000E+00 0. -1.
         23    2    1    2    0    0  0.00000000000E+00  0.00000000000E+00 -0.36541231176E+03  0.37627834813E+03  0.89773257086E+02 0.  0.
          2    1    3    3  502    0  0.16162195303E+02  0.22552907099E+02 -0.34815813589E+02  0.44519558078E+02  0.00000000000E+00 0.  1.
         -2    1    3    3    0  502 -0.16162195303E+02 -0.22552907099E+02 -0.33059649817E+03  0.33175879005E+03  0.00000000000E+00 0. -1.
<mgrwt>
<rscale>  0 0.89773257E+02</rscale>
<asrwt>0</asrwt>
<pdfrwt beam="2">  1        2 0.57053120E-01 0.89773257E+02</pdfrwt>
<pdfrwt beam="1">  1       -2 0.83584907E-03 0.89773257E+02</pdfrwt>
<totfact> 0.20241205E+05</totfact>
</mgrwt>
</event>
<event>
 5    1  0.3858846E+001  0.8848632E+02  0.7546771E-02  0.1306559E+00
          1   -1    0    0  501    0  0.00000000000E+00  0.00000000000E+00  0.83790825167E+02  0.83790825167E+02  0.00000000000E+00 0. -1.
         -1   -1    0    0    0  501 -0.00000000000E+00 -0.00000000000E+00 -0.23361234615E+02  0.23361234615E+02  0.00000000000E+00 0.  1.
         23    2    1    2    0    0  0.00000000000E+00  0.00000000000E+00  0.60429590552E+02  0.10715205978E+03  0.88486318159E+02 0.  0.
          2    1    3    3  502    0 -0.37338645917E+02  0.19165182657E+02  0.47167091210E+02  0.63136464887E+02  0.00000000000E+00 0. -1.
         -2    1    3    3    0  502  0.37338645917E+02 -0.19165182657E+02  0.13262499342E+02  0.44015594896E+02  0.00000000000E+00 0.  1.
<mgrwt>
<rscale>  0 0.88486318E+02</rscale>
<asrwt>0</asrwt>
<pdfrwt beam="1">  1        1 0.12890896E-01 0.88486318E+02</pdfrwt>
<pdfrwt beam="2">  1       -1 0.35940361E-02 0.88486318E+02</pdfrwt>
<totfact> 0.11014350E+05</totfact>
</mgrwt>
</event>
<event>
 5    1  0.3858846E+001  0.9156722E+02  0.7546771E-02  0.1299100E+00
         -3   -1    0    0    0  501 -0.00000000000E+00  0.00000000000E+00  0.40681865522E+02  0.40681865522E+02  0.00000000000E+00 0.  1.
          3   -1    0    0  501    0  0.00000000000E+00 -0.00000000000E+00 -0.51525140433E+02  0.51525140433E+02  0.00000000000E+00 0. -1.
         23    2    1    2    0    0  0.00000000000E+00  0.00000000000E+00 -0.10843274911E+02  0.92207005955E+02  0.91567217586E+02 0.  0.
          2    1    3    3  502    0  0.36354976461E+02 -0.18248450818E+02 -0.26579118311E+02  0.48591561005E+02  0.00000000000E+00 0. -1.
         -2    1    3    3    0  502 -0.36354976461E+02  0.18248450818E+02  0.15735843399E+02  0.43615444950E+02  0.00000000000E+00 0.  1.
<mgrwt>
<rscale>  0 0.91567218E+02</rscale>
<asrwt>0</asrwt>
<pdfrwt beam="2">  1        3 0.79269446E-02 0.91567218E+02</pdfrwt>
<pdfrwt beam="1">  1       -3 0.62587486E-02 0.91567218E+02</pdfrwt>
<totfact> 0.34850949E+04</totfact>
</mgrwt>
</event>
<event>
 5    1  0.3858846E+001  0.9110535E+02  0.7546771E-02  0.1300197E+00
          2   -1    0    0  501    0  0.00000000000E+00  0.00000000000E+00  0.13560036446E+04  0.13560036446E+04  0.00000000000E+00 0. -1.
         -2   -1    0    0    0  501 -0.00000000000E+00 -0.00000000000E+00 -0.15302659725E+01  0.15302659725E+01  0.00000000000E+00 0.  1.
         23    2    1    2    0    0  0.00000000000E+00  0.00000000000E+00  0.13544733787E+04  0.13575339106E+04  0.91105350797E+02 0.  0.
          2    1    3    3  502    0  0.32972142484E+02 -0.44579676970E+01  0.11408403475E+04  0.11413254287E+04  0.00000000000E+00 0. -1.
         -2    1    3    3    0  502 -0.32972142484E+02  0.44579676970E+01  0.21363303118E+03  0.21620848195E+03  0.00000000000E+00 0.  1.
<mgrwt>
<rscale>  0 0.91105351E+02</rscale>
<asrwt>0</asrwt>
<pdfrwt beam="1">  1        2 0.20861499E+00 0.91105351E+02</pdfrwt>
<pdfrwt beam="2">  1       -2 0.23542662E-03 0.91105351E+02</pdfrwt>
<totfact> 0.24394165E+05</totfact>
</mgrwt>
</event>
<event>
 5    1  0.3858846E+001  0.9050343E+02  0.7546771E-02  0.1301637E+00
         -2   -1    0    0    0  501 -0.00000000000E+00  0.00000000000E+00  0.59711848034E+01  0.59711848034E+01  0.00000000000E+00 0. -1.
          2   -1    0    0  501    0  0.00000000000E+00 -0.00000000000E+00 -0.34293325196E+03  0.34293325196E+03  0.00000000000E+00 0.  1.
         23    2    1    2    0    0  0.00000000000E+00  0.00000000000E+00 -0.33696206716E+03  0.34890443677E+03  0.90503432481E+02 0.  0.
          2    1    3    3  502    0  0.68509165753E+01 -0.44730024742E+02 -0.16881825244E+03  0.17477789485E+03  0.00000000000E+00 0. -1.
         -2    1    3    3    0  502 -0.68509165753E+01  0.44730024742E+02 -0.16814381472E+03  0.17412654192E+03  0.00000000000E+00 0.  1.
<mgrwt>
<rscale>  0 0.90503432E+02</rscale>
<asrwt>0</asrwt>
<pdfrwt beam="2">  1        2 0.52758964E-01 0.90503432E+02</pdfrwt>
<pdfrwt beam="1">  1       -2 0.91864378E-03 0.90503432E+02</pdfrwt>
<totfact> 0.19253866E+05</totfact>
</mgrwt>
</event>
<event>
 5    1  0.3858846E+001  0.7955995E+02  0.7546771E-02  0.1330305E+00
          1   -1    0    0  501    0  0.00000000000E+00  0.00000000000E+00  0.28760537416E+03  0.28760537416E+03  0.00000000000E+00 0. -1.
         -1   -1    0    0    0  501 -0.00000000000E+00 -0.00000000000E+00 -0.55021443480E+01  0.55021443480E+01  0.00000000000E+00 0.  1.
         23    2    1    2    0    0  0.00000000000E+00  0.00000000000E+00  0.28210322981E+03  0.29310751851E+03  0.79559946804E+02 0.  0.
          2    1    3    3  502    0 -0.31061450598E+02  0.87811151593E+01  0.22670414605E+03  0.22899059267E+03  0.00000000000E+00 0. -1.
         -2    1    3    3    0  502  0.31061450598E+02 -0.87811151593E+01  0.55399083758E+02  0.64116925831E+02  0.00000000000E+00 0.  1.
<mgrwt>
<rscale>  0 0.79559947E+02</rscale>
<asrwt>0</asrwt>
<pdfrwt beam="1">  1        1 0.44246969E-01 0.79559947E+02</pdfrwt>
<pdfrwt beam="2">  1       -1 0.84648397E-03 0.79559947E+02</pdfrwt>
<totfact> 0.18228247E+05</totfact>
</mgrwt>
</event>
<event>
 5    1  0.3858846E+001  0.9709197E+02  0.7546771E-02  0.1286533E+00
         -1   -1    0    0    0  501 -0.00000000000E+00  0.00000000000E+00  0.53132566791E+01  0.53132566791E+01  0.00000000000E+00 0.  1.
          1   -1    0    0  501    0  0.00000000000E+00 -0.00000000000E+00 -0.44355331486E+03  0.44355331486E+03  0.00000000000E+00 0. -1.
         23    2    1    2    0    0  0.00000000000E+00  0.00000000000E+00 -0.43824005819E+03  0.44886657154E+03  0.97091969034E+02 0.  0.
          2    1    3    3  502    0  0.30816535610E+02 -0.37342362188E+02 -0.20270849899E+03  0.20841028392E+03  0.00000000000E+00 0. -1.
         -2    1    3    3    0  502 -0.30816535610E+02  0.37342362188E+02 -0.23553155920E+03  0.24045628763E+03  0.00000000000E+00 0.  1.
<mgrwt>
<rscale>  0 0.97091969E+02</rscale>
<asrwt>0</asrwt>
<pdfrwt beam="2">  1        1 0.68239010E-01 0.97091969E+02</pdfrwt>
<pdfrwt beam="1">  1       -1 0.81742364E-03 0.97091969E+02</pdfrwt>
<totfact> 0.11595286E+05</totfact>
</mgrwt>
</event>
<event>
 5    1  0.3858846E+001  0.9040335E+02  0.7546771E-02  0.1301878E+00
          3   -1    0    0  501    0  0.00000000000E+00  0.00000000000E+00  0.13903900287E+02  0.13903900287E+02  0.00000000000E+00 0. -1.
         -3   -1    0    0    0  501 -0.00000000000E+00 -0.00000000000E+00 -0.14695096091E+03  0.14695096091E+03  0.00000000000E+00 0.  1.
         23    2    1    2    0    0  0.00000000000E+00  0.00000000000E+00 -0.13304706062E+03  0.16085486120E+03  0.90403351877E+02 0.  0.
          2    1    3    3  502    0  0.23199197981E+02 -0.81030491160E+01  0.98050616245E+00  0.24593161332E+02  0.00000000000E+00 0. -1.
         -2    1    3    3    0  502 -0.23199197981E+02  0.81030491160E+01 -0.13402756679E+03  0.13626169987E+03  0.00000000000E+00 0.  1.
<mgrwt>
<rscale>  0 0.90403352E+02</rscale>
<asrwt>0</asrwt>
<pdfrwt beam="1">  1        3 0.21390615E-02 0.90403352E+02</pdfrwt>
<pdfrwt beam="2">  1       -3 0.22607841E-01 0.90403352E+02</pdfrwt>
<totfact> 0.31370375E+04</totfact>
</mgrwt>
</event>
<event>
 5    1  0.3858846E+001  0.9137046E+02  0.7546771E-02  0.1299566E+00
         -1   -1    0    0    0  501 -0.00000000000E+00  0.00000000000E+00  0.14780918059E+03  0.14780918059E+03  0.00000000000E+00 0. -1.
          1   -1    0    0  501    0  0.00000000000E+00 -0.00000000000E+00 -0.14120504045E+02  0.14120504045E+02  0.00000000000E+00 0.  1.
         23    2    1    2    0    0  0.00000000000E+00  0.00000000000E+00  0.13368867655E+03  0.16192968464E+03  0.91370457641E+02 0.  0.
          2    1    3    3  502    0  0.19911469678E+02  0.70866922011E+01  0.13862417622E+03  0.14022606770E+03  0.00000000000E+00 0. -1.
         -2    1    3    3    0  502 -0.19911469678E+02 -0.70866922011E+01 -0.49354996691E+01  0.21703616936E+02  0.00000000000E+00 0.  1.
<mgrwt>
<rscale>  0 0.91370458E+02</rscale>
<asrwt>0</asrwt>
<pdfrwt beam="2">  1        1 0.21723853E-02 0.91370458E+02</pdfrwt>
<pdfrwt beam="1">  1       -1 0.22739873E-01 0.91370458E+02</pdfrwt>
<totfact> 0.74633006E+04</totfact>
</mgrwt>
</event>
<event>
 5    1  0.3858846E+001  0.9153625E+02  0.7546771E-02  0.1299174E+00
         -2   -1    0    0    0  501 -0.00000000000E+00  0.00000000000E+00  0.69143657455E+00  0.69143657455E+00  0.00000000000E+00 0.  1.
          2   -1    0    0  501    0  0.00000000000E+00 -0.00000000000E+00 -0.30295207196E+04  0.30295207196E+04  0.00000000000E+00 0. -1.
         23    2    1    2    0    0  0.00000000000E+00  0.00000000000E+00 -0.30288292830E+04  0.30302121562E+04  0.91536253559E+02 0.  0.
          2    1    3    3  502    0  0.37703569735E+02  0.19711796090E+02 -0.20728886436E+04  0.20733252139E+04  0.00000000000E+00 0. -1.
         -2    1    3    3    0  502 -0.37703569735E+02 -0.19711796090E+02 -0.95594063946E+03  0.95688694225E+03  0.00000000000E+00 0.  1.
<mgrwt>
<rscale>  0 0.91536254E+02</rscale>
<asrwt>0</asrwt>
<pdfrwt beam="2">  1        2 0.46608618E+00 0.91536254E+02</pdfrwt>
<pdfrwt beam="1">  1       -2 0.10637347E-03 0.91536254E+02</pdfrwt>
<totfact> 0.98321141E+04</totfact>
</mgrwt>
</event>
<event>
 5    1  0.3858846E+001  0.9281521E+02  0.7546771E-02  0.1296174E+00
         -2   -1    0    0    0  501 -0.00000000000E+00  0.00000000000E+00  0.45762755483E+02  0.45762755483E+02  0.00000000000E+00 0. -1.
          2   -1    0    0  501    0  0.00000000000E+00 -0.00000000000E+00 -0.47061537015E+02  0.47061537015E+02  0.00000000000E+00 0.  1.
         23    2    1    2    0    0  0.00000000000E+00  0.00000000000E+00 -0.12987815312E+01  0.92824292498E+02  0.92815205890E+02 0.  0.
          2    1    3    3  502    0 -0.21786418702E+02 -0.56327233933E+01  0.39941403185E+02  0.45844206843E+02  0.00000000000E+00 0. -1.
         -2    1    3    3    0  502  0.21786418702E+02  0.56327233933E+01 -0.41240184716E+02  0.46980085655E+02  0.00000000000E+00 0.  1.
<mgrwt>
<rscale>  0 0.92815206E+02</rscale>
<asrwt>0</asrwt>
<pdfrwt beam="2">  1        2 0.72402364E-02 0.92815206E+02</pdfrwt>
<pdfrwt beam="1">  1       -2 0.70404239E-02 0.92815206E+02</pdfrwt>
<totfact> 0.94533246E+04</totfact>
</mgrwt>
</event>
<event>
 5    1  0.3858846E+001  0.9093601E+02  0.7546771E-02  0.1300601E+00
         -2   -1    0    0    0  501 -0.00000000000E+00  0.00000000000E+00  0.63003792246E+01  0.63003792246E+01  0.00000000000E+00 0.  1.
          2   -1    0    0  501    0  0.00000000000E+00 -0.00000000000E+00 -0.32812934947E+03  0.32812934947E+03  0.00000000000E+00 0. -1.
         23    2    1    2    0    0  0.00000000000E+00  0.00000000000E+00 -0.32182897024E+03  0.33442972869E+03  0.90936006870E+02 0.  0.
          2    1    3    3  502    0 -0.17214492583E+02 -0.36014750186E+02 -0.24097712818E+03  0.24426087957E+03  0.00000000000E+00 0. -1.
         -2    1    3    3    0  502  0.17214492583E+02  0.36014750186E+02 -0.80851842069E+02  0.90168849121E+02  0.00000000000E+00 0.  1.
<mgrwt>
<rscale>  0 0.90936007E+02</rscale>
<asrwt>0</asrwt>
<pdfrwt beam="2">  1        2 0.50481456E-01 0.90936007E+02</pdfrwt>
<pdfrwt beam="1">  1       -2 0.96928878E-03 0.90936007E+02</pdfrwt>
<totfact> 0.18704932E+05</totfact>
</mgrwt>
</event>
<event>
 5    1  0.3858846E+001  0.9257389E+02  0.7546771E-02  0.1296736E+00
         -1   -1    0    0    0  501 -0.00000000000E+00  0.00000000000E+00  0.48269888517E+02  0.48269888517E+02  0.00000000000E+00 0.  1.
          1   -1    0    0  501    0  0.00000000000E+00 -0.00000000000E+00 -0.44385462346E+02  0.44385462346E+02  0.00000000000E+00 0. -1.
         23    2    1    2    0    0  0.00000000000E+00  0.00000000000E+00  0.38844261703E+01  0.92655350863E+02  0.92573890903E+02 0.  0.
          2    1    3    3  502    0 -0.31018272687E+02 -0.68122775046E+01 -0.31761457990E+02  0.44914703372E+02  0.00000000000E+00 0. -1.
         -2    1    3    3    0  502  0.31018272687E+02  0.68122775046E+01  0.35645884161E+02  0.47740647491E+02  0.00000000000E+00 0.  1.
<mgrwt>
<rscale>  0 0.92573891E+02</rscale>
<asrwt>0</asrwt>
<pdfrwt beam="2">  1        1 0.68285327E-02 0.92573891E+02</pdfrwt>
<pdfrwt beam="1">  1       -1 0.74261366E-02 0.92573891E+02</pdfrwt>
<totfact> 0.88239434E+04</totfact>
</mgrwt>
</event>
<event>
 5    1  0.3858846E+001  0.9147147E+02  0.7546771E-02  0.1299327E+00
          2   -1    0    0  501    0  0.00000000000E+00  0.00000000000E+00  0.45943745788E+02  0.45943745788E+02  0.00000000000E+00 0. -1.
         -2   -1    0    0    0  501 -0.00000000000E+00 -0.00000000000E+00 -0.45528661006E+02  0.45528661006E+02  0.00000000000E+00 0.  1.
         23    2    1    2    0    0  0.00000000000E+00  0.00000000000E+00  0.41508478225E+00  0.91472406794E+02  0.91471465000E+02 0.  0.
          2    1    3    3  502    0 -0.42284171371E+01 -0.27060623731E+02  0.36835782665E+02  0.45902415544E+02  0.00000000000E+00 0. -1.
         -2    1    3    3    0  502  0.42284171371E+01  0.27060623731E+02 -0.36420697883E+02  0.45569991250E+02  0.00000000000E+00 0.  1.
<mgrwt>
<rscale>  0 0.91471465E+02</rscale>
<asrwt>0</asrwt>
<pdfrwt beam="1">  1        2 0.70682686E-02 0.91471465E+02</pdfrwt>
<pdfrwt beam="2">  1       -2 0.70044094E-02 0.91471465E+02</pdfrwt>
<totfact> 0.97961827E+04</totfact>
</mgrwt>
</event>
<event>
 5    1  0.3858846E+001  0.8938407E+02  0.7546771E-02  0.1304350E+00
          1   -1    0    0  501    0  0.00000000000E+00  0.00000000000E+00  0.16057736983E+02  0.16057736983E+02  0.00000000000E+00 0. -1.
         -1   -1    0    0    0  501 -0.00000000000E+00 -0.00000000000E+00 -0.12438727360E+03  0.12438727360E+03  0.00000000000E+00 0.  1.
         23    2    1    2    0    0  0.00000000000E+00  0.00000000000E+00 -0.10832953662E+03  0.14044501059E+03  0.89384072934E+02 0.  0.
          2    1    3    3  502    0 -0.44108242054E+02  0.69489421413E+01 -0.57126615845E+02  0.72507068979E+02  0.00000000000E+00 0. -1.
         -2    1    3    3    0  502  0.44108242054E+02 -0.69489421413E+01 -0.51202920774E+02  0.67937941607E+02  0.00000000000E+00 0.  1.
<mgrwt>
<rscale>  0 0.89384073E+02</rscale>
<asrwt>0</asrwt>
<pdfrwt beam="1">  1        1 0.24704211E-02 0.89384073E+02</pdfrwt>
<pdfrwt beam="2">  1       -1 0.19136504E-01 0.89384073E+02</pdfrwt>
<totfact> 0.82053773E+04</totfact>
</mgrwt>
</event>
<event>
 5    1  0.3858846E+001  0.9181599E+02  0.7546771E-02  0.1298513E+00
          1   -1    0    0  501    0  0.00000000000E+00  0.00000000000E+00  0.91316058164E+01  0.91316058164E+01  0.00000000000E+00 0. -1.
         -1   -1    0    0    0  501 -0.00000000000E+00 -0.00000000000E+00 -0.23079664504E+03  0.23079664504E+03  0.00000000000E+00 0.  1.
         23    2    1    2    0    0  0.00000000000E+00  0.00000000000E+00 -0.22166503923E+03  0.23992825086E+03  0.91815989594E+02 0.  0.
          2    1    3    3  502    0  0.35041566778E+02 -0.11335179113E+02 -0.39214000906E+02  0.53797170509E+02  0.00000000000E+00 0. -1.
         -2    1    3    3    0  502 -0.35041566778E+02  0.11335179113E+02 -0.18245103832E+03  0.18613108035E+03  0.00000000000E+00 0.  1.
<mgrwt>
<rscale>  0 0.91815990E+02</rscale>
<asrwt>0</asrwt>
<pdfrwt beam="1">  1        1 0.14048625E-02 0.91815990E+02</pdfrwt>
<pdfrwt beam="2">  1       -1 0.35507174E-01 0.91815990E+02</pdfrwt>
<totfact> 0.65285748E+04</totfact>
</mgrwt>
</event>
<event>
 5    1  0.3858846E+001  0.9441861E+02  0.7546771E-02  0.1292491E+00
         -1   -1    0    0    0  501 -0.00000000000E+00  0.00000000000E+00  0.59667693094E+03  0.59667693094E+03  0.00000000000E+00 0.  1.
          1   -1    0    0  501    0  0.00000000000E+00 -0.00000000000E+00 -0.37352178252E+01  0.37352178252E+01  0.00000000000E+00 0. -1.
         23    2    1    2    0    0  0.00000000000E+00  0.00000000000E+00  0.59294171312E+03  0.60041214877E+03  0.94418606394E+02 0.  0.
          2    1    3    3  502    0  0.35439035538E+02  0.21558924640E+02  0.15314444214E+03  0.15866295293E+03  0.00000000000E+00 0. -1.
         -2    1    3    3    0  502 -0.35439035538E+02 -0.21558924640E+02  0.43979727097E+03  0.44174919584E+03  0.00000000000E+00 0.  1.
<mgrwt>
<rscale>  0 0.94418606E+02</rscale>
<asrwt>0</asrwt>
<pdfrwt beam="2">  1        1 0.57464937E-03 0.94418606E+02</pdfrwt>
<pdfrwt beam="1">  1       -1 0.91796375E-01 0.94418606E+02</pdfrwt>
<totfact> 0.38117173E+04</totfact>
</mgrwt>
</event>
<event>
 5    1  0.3858846E+001  0.7072266E+02  0.7546771E-02  0.1357653E+00
          4   -1    0    0  501    0  0.00000000000E+00  0.00000000000E+00  0.87492647591E+00  0.87492647591E+00  0.00000000000E+00 0. -1.
         -4   -1    0    0    0  501 -0.00000000000E+00 -0.00000000000E+00 -0.14291756105E+04  0.14291756105E+04  0.00000000000E+00 0.  1.
         23    2    1    2    0    0  0.00000000000E+00  0.00000000000E+00 -0.14283006840E+04  0.14300505370E+04  0.70722657765E+02 0.  0.
          2    1    3    3  502    0  0.36911056338E+01 -0.32301473572E+02 -0.43293636296E+03  0.43415539134E+03  0.00000000000E+00 0. -1.
         -2    1    3    3    0  502 -0.36911056338E+01  0.32301473572E+02 -0.99536432105E+03  0.99589514562E+03  0.00000000000E+00 0.  1.
<mgrwt>
<rscale>  0 0.70722658E+02</rscale>
<asrwt>0</asrwt>
<pdfrwt beam="1">  1        4 0.13460399E-03 0.70722658E+02</pdfrwt>
<pdfrwt beam="2">  1       -4 0.21987330E+00 0.70722658E+02</pdfrwt>
<totfact> 0.86882040E+03</totfact>
</mgrwt>
</event>
<event>
 5    1  0.3858846E+001  0.8519264E+02  0.7546771E-02  0.1314930E+00
         -1   -1    0    0    0  501 -0.00000000000E+00  0.00000000000E+00  0.17259055938E+02  0.17259055938E+02  0.00000000000E+00 0.  1.
          1   -1    0    0  501    0  0.00000000000E+00 -0.00000000000E+00 -0.10513010341E+03  0.10513010341E+03  0.00000000000E+00 0. -1.
         23    2    1    2    0    0  0.00000000000E+00  0.00000000000E+00 -0.87871047474E+02  0.12238915935E+03  0.85192636668E+02 0.  0.
          2    1    3    3  502    0  0.14723046577E+02  0.21477681651E+02 -0.92364367674E+02  0.95964760852E+02  0.00000000000E+00 0. -1.
         -2    1    3    3    0  502 -0.14723046577E+02 -0.21477681651E+02  0.44933201999E+01  0.26424398499E+02  0.00000000000E+00 0.  1.
<mgrwt>
<rscale>  0 0.85192637E+02</rscale>
<asrwt>0</asrwt>
<pdfrwt beam="2">  1        1 0.16173862E-01 0.85192637E+02</pdfrwt>
<pdfrwt beam="1">  1       -1 0.26552393E-02 0.85192637E+02</pdfrwt>
<totfact> 0.12658834E+05</totfact>
</mgrwt>
</event>
<event>
 5    1  0.3858846E+001  0.9069780E+02  0.7546771E-02  0.1301171E+00
         -2   -1    0    0    0  501 -0.00000000000E+00  0.00000000000E+00  0.27704082960E+02  0.27704082960E+02  0.00000000000E+00 0.  1.
          2   -1    0    0  501    0  0.00000000000E+00 -0.00000000000E+00 -0.74231761715E+02  0.74231761715E+02  0.00000000000E+00 0. -1.
         23    2    1    2    0    0  0.00000000000E+00  0.00000000000E+00 -0.46527678755E+02  0.10193584467E+03  0.90697803387E+02 0.  0.
          2    1    3    3  502    0 -0.18792042131E+02 -0.33920362505E+02 -0.49688575337E+02  0.63029250027E+02  0.00000000000E+00 0.  1.
         -2    1    3    3    0  502  0.18792042131E+02  0.33920362505E+02  0.31608965825E+01  0.38906594648E+02  0.00000000000E+00 0. -1.
<mgrwt>
<rscale>  0 0.90697803E+02</rscale>
<asrwt>0</asrwt>
<pdfrwt beam="2">  1        2 0.11420271E-01 0.90697803E+02</pdfrwt>
<pdfrwt beam="1">  1       -2 0.42621667E-02 0.90697803E+02</pdfrwt>
<totfact> 0.11410883E+05</totfact>
</mgrwt>
</event>
<event>
 5    1  0.3858846E+001  0.9009910E+02  0.7546771E-02  0.1302612E+00
         -2   -1    0    0    0  501 -0.00000000000E+00  0.00000000000E+00  0.86451993537E+01  0.86451993537E+01  0.00000000000E+00 0.  1.
          2   -1    0    0  501    0  0.00000000000E+00 -0.00000000000E+00 -0.23475015827E+03  0.23475015827E+03  0.00000000000E+00 0. -1.
         23    2    1    2    0    0  0.00000000000E+00  0.00000000000E+00 -0.22610495892E+03  0.24339535762E+03  0.90099099142E+02 0.  0.
          2    1    3    3  502    0  0.24223412066E+02  0.33476190923E+02 -0.64574786892E+02  0.76663760363E+02  0.00000000000E+00 0. -1.
         -2    1    3    3    0  502 -0.24223412066E+02 -0.33476190923E+02 -0.16153017203E+03  0.16673159726E+03  0.00000000000E+00 0.  1.
<mgrwt>
<rscale>  0 0.90099099E+02</rscale>
<asrwt>0</asrwt>
<pdfrwt beam="2">  1        2 0.36115405E-01 0.90099099E+02</pdfrwt>
<pdfrwt beam="1">  1       -2 0.13300308E-02 0.90099099E+02</pdfrwt>
<totfact> 0.16931139E+05</totfact>
</mgrwt>
</event>
<event>
 5    1  0.3858846E+001  0.9233162E+02  0.7546771E-02  0.1297302E+00
         -3   -1    0    0    0  501 -0.00000000000E+00  0.00000000000E+00  0.21547580374E+03  0.21547580374E+03  0.00000000000E+00 0.  1.
          3   -1    0    0  501    0  0.00000000000E+00 -0.00000000000E+00 -0.98910507322E+01  0.98910507322E+01  0.00000000000E+00 0. -1.
         23    2    1    2    0    0  0.00000000000E+00  0.00000000000E+00  0.20558475301E+03  0.22536685447E+03  0.92331622023E+02 0.  0.
          2    1    3    3  502    0 -0.28149044559E+02 -0.55736549477E+01  0.14521350261E+02  0.32160596271E+02  0.00000000000E+00 0. -1.
         -2    1    3    3    0  502  0.28149044559E+02  0.55736549477E+01  0.19106340275E+03  0.19320625820E+03  0.00000000000E+00 0.  1.
<mgrwt>
<rscale>  0 0.92331622E+02</rscale>
<asrwt>0</asrwt>
<pdfrwt beam="2">  1        3 0.15217003E-02 0.92331622E+02</pdfrwt>
<pdfrwt beam="1">  1       -3 0.33150120E-01 0.92331622E+02</pdfrwt>
<totfact> 0.26325540E+04</totfact>
</mgrwt>
</event>
<event>
 5    1  0.3858846E+001  0.9107017E+02  0.7546771E-02  0.1300281E+00
         -2   -1    0    0    0  501 -0.00000000000E+00  0.00000000000E+00  0.90301238513E+00  0.90301238513E+00  0.00000000000E+00 0.  1.
          2   -1    0    0  501    0  0.00000000000E+00 -0.00000000000E+00 -0.22961410815E+04  0.22961410815E+04  0.00000000000E+00 0. -1.
         23    2    1    2    0    0  0.00000000000E+00  0.00000000000E+00 -0.22952380691E+04  0.22970440939E+04  0.91070167115E+02 0.  0.
          2    1    3    3  502    0 -0.23703494355E+02 -0.37655032083E+02 -0.90348277724E+03  0.90457773898E+03  0.00000000000E+00 0. -1.
         -2    1    3    3    0  502  0.23703494355E+02  0.37655032083E+02 -0.13917552919E+04  0.13924663549E+04  0.00000000000E+00 0.  1.
<mgrwt>
<rscale>  0 0.91070167E+02</rscale>
<asrwt>0</asrwt>
<pdfrwt beam="2">  1        2 0.35325008E+00 0.91070167E+02</pdfrwt>
<pdfrwt beam="1">  1       -2 0.13892592E-03 0.91070167E+02</pdfrwt>
<totfact> 0.16904946E+05</totfact>
</mgrwt>
</event>
<event>
 5    1  0.3858846E+001  0.9216748E+02  0.7546771E-02  0.1297686E+00
          2   -1    0    0  501    0  0.00000000000E+00  0.00000000000E+00  0.22195404530E+03  0.22195404530E+03  0.00000000000E+00 0. -1.
         -2   -1    0    0    0  501 -0.00000000000E+00 -0.00000000000E+00 -0.95682476180E+01  0.95682476180E+01  0.00000000000E+00 0.  1.
         23    2    1    2    0    0  0.00000000000E+00  0.00000000000E+00  0.21238579768E+03  0.23152229292E+03  0.92167483751E+02 0.  0.
          2    1    3    3  502    0  0.16471475883E+01 -0.43170828497E+02  0.65901143576E+02  0.78799709726E+02  0.00000000000E+00 0.  1.
         -2    1    3    3    0  502 -0.16471475883E+01  0.43170828497E+02  0.14648465410E+03  0.15272258319E+03  0.00000000000E+00 0. -1.
<mgrwt>
<rscale>  0 0.92167484E+02</rscale>
<asrwt>0</asrwt>
<pdfrwt beam="1">  1        2 0.34146772E-01 0.92167484E+02</pdfrwt>
<pdfrwt beam="2">  1       -2 0.14720383E-02 0.92167484E+02</pdfrwt>
<totfact> 0.15605807E+05</totfact>
</mgrwt>
</event>
<event>
 5    1  0.3858846E+001  0.8687251E+02  0.7546771E-02  0.1310607E+00
         -2   -1    0    0    0  501 -0.00000000000E+00  0.00000000000E+00  0.87225070635E+00  0.87225070635E+00  0.00000000000E+00 0. -1.
          2   -1    0    0  501    0  0.00000000000E+00 -0.00000000000E+00 -0.21630343168E+04  0.21630343168E+04  0.00000000000E+00 0.  1.
         23    2    1    2    0    0  0.00000000000E+00  0.00000000000E+00 -0.21621620661E+04  0.21639065675E+04  0.86872509132E+02 0.  0.
          2    1    3    3  502    0 -0.34918560480E+02 -0.62059975398E+00 -0.43776458363E+03  0.43915546415E+03  0.00000000000E+00 0. -1.
         -2    1    3    3    0  502  0.34918560480E+02  0.62059975398E+00 -0.17243974825E+04  0.17247511034E+04  0.00000000000E+00 0.  1.
<mgrwt>
<rscale>  0 0.86872509E+02</rscale>
<asrwt>0</asrwt>
<pdfrwt beam="2">  1        2 0.33277361E+00 0.86872509E+02</pdfrwt>
<pdfrwt beam="1">  1       -2 0.13419278E-03 0.86872509E+02</pdfrwt>
<totfact> 0.20618469E+05</totfact>
</mgrwt>
</event>
<event>
 5    1  0.3858846E+001  0.8980677E+02  0.7546771E-02  0.1303320E+00
         -2   -1    0    0    0  501 -0.00000000000E+00  0.00000000000E+00  0.33755014793E+01  0.33755014793E+01  0.00000000000E+00 0.  1.
          2   -1    0    0  501    0  0.00000000000E+00 -0.00000000000E+00 -0.59733759341E+03  0.59733759341E+03  0.00000000000E+00 0. -1.
         23    2    1    2    0    0  0.00000000000E+00  0.00000000000E+00 -0.59396209193E+03  0.60071309489E+03  0.89806768792E+02 0.  0.
          2    1    3    3  502    0  0.27734955048E+02 -0.25618508565E+02 -0.45956222373E+03  0.46111058673E+03  0.00000000000E+00 0. -1.
         -2    1    3    3    0  502 -0.27734955048E+02  0.25618508565E+02 -0.13439986820E+03  0.13960250816E+03  0.00000000000E+00 0.  1.
<mgrwt>
<rscale>  0 0.89806769E+02</rscale>
<asrwt>0</asrwt>
<pdfrwt beam="2">  1        2 0.91898016E-01 0.89806769E+02</pdfrwt>
<pdfrwt beam="1">  1       -2 0.51930834E-03 0.89806769E+02</pdfrwt>
<totfact> 0.23683736E+05</totfact>
</mgrwt>
</event>
<event>
 5    1  0.3858846E+001  0.9202105E+02  0.7546771E-02  0.1298030E+00
         -2   -1    0    0    0  501 -0.00000000000E+00  0.00000000000E+00  0.35101231859E+02  0.35101231859E+02  0.00000000000E+00 0. -1.
          2   -1    0    0  501    0  0.00000000000E+00 -0.00000000000E+00 -0.60310369088E+02  0.60310369088E+02  0.00000000000E+00 0.  1.
         23    2    1    2    0    0  0.00000000000E+00  0.00000000000E+00 -0.25209137229E+02  0.95411600947E+02  0.92021046481E+02 0.  0.
          2    1    3    3  502    0  0.38314567691E+02 -0.54220484156E+00  0.13802810938E+02  0.40728585456E+02  0.00000000000E+00 0. -1.
         -2    1    3    3    0  502 -0.38314567691E+02  0.54220484156E+00 -0.39011948168E+02  0.54683015492E+02  0.00000000000E+00 0.  1.
<mgrwt>
<rscale>  0 0.92021046E+02</rscale>
<asrwt>0</asrwt>
<pdfrwt beam="2">  1        2 0.92785184E-02 0.92021046E+02</pdfrwt>
<pdfrwt beam="1">  1       -2 0.54001895E-02 0.92021046E+02</pdfrwt>
<totfact> 0.10348662E+05</totfact>
</mgrwt>
</event>
<event>
 5    1  0.3858846E+001  0.9072820E+02  0.7546771E-02  0.1301098E+00
         -2   -1    0    0    0  501 -0.00000000000E+00  0.00000000000E+00  0.79592379115E+01  0.79592379115E+01  0.00000000000E+00 0.  1.
          2   -1    0    0  501    0  0.00000000000E+00 -0.00000000000E+00 -0.25855508113E+03  0.25855508113E+03  0.00000000000E+00 0. -1.
         23    2    1    2    0    0  0.00000000000E+00  0.00000000000E+00 -0.25059584321E+03  0.26651431904E+03  0.90728196365E+02 0.  0.
          2    1    3    3  502    0  0.20996122714E+02  0.31977202309E+02 -0.19692257203E+03  0.20060378364E+03  0.00000000000E+00 0. -1.
         -2    1    3    3    0  502 -0.20996122714E+02 -0.31977202309E+02 -0.53673271186E+02  0.65910535397E+02  0.00000000000E+00 0.  1.
<mgrwt>
<rscale>  0 0.90728196E+02</rscale>
<asrwt>0</asrwt>
<pdfrwt beam="2">  1        2 0.39777702E-01 0.90728196E+02</pdfrwt>
<pdfrwt beam="1">  1       -2 0.12244982E-02 0.90728196E+02</pdfrwt>
<totfact> 0.17222581E+05</totfact>
</mgrwt>
</event>
<event>
 5    1  0.3858846E+001  0.9257163E+02  0.7546771E-02  0.1296741E+00
         -3   -1    0    0    0  501 -0.00000000000E+00  0.00000000000E+00  0.21198913110E+03  0.21198913110E+03  0.00000000000E+00 0.  1.
          3   -1    0    0  501    0  0.00000000000E+00 -0.00000000000E+00 -0.10106069420E+02  0.10106069420E+02  0.00000000000E+00 0. -1.
         23    2    1    2    0    0  0.00000000000E+00  0.00000000000E+00  0.20188306168E+03  0.22209520052E+03  0.92571634430E+02 0.  0.
          2    1    3    3  502    0 -0.18146505173E+02  0.22540197045E+02  0.14271300818E+02  0.32264937004E+02  0.00000000000E+00 0. -1.
         -2    1    3    3    0  502  0.18146505173E+02 -0.22540197045E+02  0.18761176086E+03  0.18983026352E+03  0.00000000000E+00 0.  1.
<mgrwt>
<rscale>  0 0.92571634E+02</rscale>
<asrwt>0</asrwt>
<pdfrwt beam="2">  1        3 0.15547801E-02 0.92571634E+02</pdfrwt>
<pdfrwt beam="1">  1       -3 0.32613709E-01 0.92571634E+02</pdfrwt>
<totfact> 0.26292241E+04</totfact>
</mgrwt>
</event>
<event>
 5    1  0.3858846E+001  0.9255321E+02  0.7546771E-02  0.1296784E+00
          2   -1    0    0  501    0  0.00000000000E+00  0.00000000000E+00  0.52529580035E+02  0.52529580035E+02  0.00000000000E+00 0. -1.
         -2   -1    0    0    0  501 -0.00000000000E+00 -0.00000000000E+00 -0.40767967580E+02  0.40767967580E+02  0.00000000000E+00 0.  1.
         23    2    1    2    0    0  0.00000000000E+00  0.00000000000E+00  0.11761612454E+02  0.93297547615E+02  0.92553210984E+02 0.  0.
          2    1    3    3  502    0  0.55789371459E+01  0.43510666557E+02  0.20737775112E+02  0.48521726685E+02  0.00000000000E+00 0. -1.
         -2    1    3    3    0  502 -0.55789371459E+01 -0.43510666557E+02 -0.89761626576E+01  0.44775820930E+02  0.00000000000E+00 0.  1.
<mgrwt>
<rscale>  0 0.92553211E+02</rscale>
<asrwt>0</asrwt>
<pdfrwt beam="1">  1        2 0.80814739E-02 0.92553211E+02</pdfrwt>
<pdfrwt beam="2">  1       -2 0.62719950E-02 0.92553211E+02</pdfrwt>
<totfact> 0.98113007E+04</totfact>
</mgrwt>
</event>
<event>
 5    1  0.3858846E+001  0.9217635E+02  0.7546771E-02  0.1297665E+00
          1   -1    0    0  501    0  0.00000000000E+00  0.00000000000E+00  0.65795382784E+03  0.65795382784E+03  0.00000000000E+00 0. -1.
         -1   -1    0    0    0  501 -0.00000000000E+00 -0.00000000000E+00 -0.32283721199E+01  0.32283721199E+01  0.00000000000E+00 0.  1.
         23    2    1    2    0    0  0.00000000000E+00  0.00000000000E+00  0.65472545572E+03  0.66118219996E+03  0.92176348246E+02 0.  0.
          2    1    3    3  502    0  0.12898475809E+02 -0.43776416694E+02  0.37350168871E+03  0.37627949294E+03  0.00000000000E+00 0. -1.
         -2    1    3    3    0  502 -0.12898475809E+02  0.43776416694E+02  0.28122376701E+03  0.28490270702E+03  0.00000000000E+00 0.  1.
<mgrwt>
<rscale>  0 0.92176348E+02</rscale>
<asrwt>0</asrwt>
<pdfrwt beam="1">  1        1 0.10122356E+00 0.92176348E+02</pdfrwt>
<pdfrwt beam="2">  1       -1 0.49667316E-03 0.92176348E+02</pdfrwt>
<totfact> 0.13807881E+05</totfact>
</mgrwt>
</event>
<event>
 5    1  0.3858846E+001  0.8687183E+02  0.7546771E-02  0.1310609E+00
         -2   -1    0    0    0  501 -0.00000000000E+00  0.00000000000E+00  0.64005630023E+01  0.64005630023E+01  0.00000000000E+00 0. -1.
          2   -1    0    0  501    0  0.00000000000E+00 -0.00000000000E+00 -0.29476763960E+03  0.29476763960E+03  0.00000000000E+00 0.  1.
         23    2    1    2    0    0  0.00000000000E+00  0.00000000000E+00 -0.28836707660E+03  0.30116820261E+03  0.86871833141E+02 0.  0.
          2    1    3    3  502    0 -0.12550697071E+02 -0.41370104539E+02 -0.15875788101E+03  0.16453896296E+03  0.00000000000E+00 0. -1.
         -2    1    3    3    0  502  0.12550697071E+02  0.41370104539E+02 -0.12960919559E+03  0.13662923965E+03  0.00000000000E+00 0.  1.
<mgrwt>
<rscale>  0 0.86871833E+02</rscale>
<asrwt>0</asrwt>
<pdfrwt beam="2">  1        2 0.45348871E-01 0.86871833E+02</pdfrwt>
<pdfrwt beam="1">  1       -2 0.98470192E-03 0.86871833E+02</pdfrwt>
<totfact> 0.20299746E+05</totfact>
</mgrwt>
</event>
<event>
 5    1  0.3858846E+001  0.8990456E+02  0.7546771E-02  0.1303083E+00
          1   -1    0    0  501    0  0.00000000000E+00  0.00000000000E+00  0.64866228680E+03  0.64866228680E+03  0.00000000000E+00 0. -1.
         -1   -1    0    0    0  501 -0.00000000000E+00 -0.00000000000E+00 -0.31151921948E+01  0.31151921948E+01  0.00000000000E+00 0.  1.
         23    2    1    2    0    0  0.00000000000E+00  0.00000000000E+00  0.64554709460E+03  0.65177747899E+03  0.89904564798E+02 0.  0.
          2    1    3    3  502    0  0.25436154477E+02 -0.42115187546E+01  0.55815446678E+02  0.61482509160E+02  0.00000000000E+00 0.  1.
         -2    1    3    3    0  502 -0.25436154477E+02  0.42115187546E+01  0.58973164793E+03  0.59029496983E+03  0.00000000000E+00 0. -1.
<mgrwt>
<rscale>  0 0.89904565E+02</rscale>
<asrwt>0</asrwt>
<pdfrwt beam="1">  1        1 0.99794090E-01 0.89904565E+02</pdfrwt>
<pdfrwt beam="2">  1       -1 0.47926085E-03 0.89904565E+02</pdfrwt>
<totfact> 0.14745118E+05</totfact>
</mgrwt>
</event>
<event>
 5    1  0.3858846E+001  0.8178177E+02  0.7546771E-02  0.1324070E+00
         -1   -1    0    0    0  501 -0.00000000000E+00  0.00000000000E+00  0.87969693750E+00  0.87969693750E+00  0.00000000000E+00 0.  1.
          1   -1    0    0  501    0  0.00000000000E+00 -0.00000000000E+00 -0.19007278791E+04  0.19007278791E+04  0.00000000000E+00 0. -1.
         23    2    1    2    0    0  0.00000000000E+00  0.00000000000E+00 -0.18998481822E+04  0.19016075760E+04  0.81781770445E+02 0.  0.
          2    1    3    3  502    0 -0.10292897797E+02  0.27745726634E+02 -0.29377656598E+03  0.29526333977E+03  0.00000000000E+00 0.  1.
         -2    1    3    3    0  502  0.10292897797E+02 -0.27745726634E+02 -0.16060716162E+04  0.16063442363E+04  0.00000000000E+00 0. -1.
<mgrwt>
<rscale>  0 0.81781770E+02</rscale>
<asrwt>0</asrwt>
<pdfrwt beam="2">  1        1 0.29241908E+00 0.81781770E+02</pdfrwt>
<pdfrwt beam="1">  1       -1 0.13533826E-03 0.81781770E+02</pdfrwt>
<totfact> 0.11430913E+05</totfact>
</mgrwt>
</event>
<event>
 5    1  0.3858846E+001  0.8903276E+02  0.7546771E-02  0.1305211E+00
         -2   -1    0    0    0  501 -0.00000000000E+00  0.00000000000E+00  0.61975450498E+03  0.61975450498E+03  0.00000000000E+00 0.  1.
          2   -1    0    0  501    0  0.00000000000E+00 -0.00000000000E+00 -0.31975693752E+01  0.31975693752E+01  0.00000000000E+00 0. -1.
         23    2    1    2    0    0  0.00000000000E+00  0.00000000000E+00  0.61655693560E+03  0.62295207435E+03  0.89032758584E+02 0.  0.
          2    1    3    3  502    0  0.17040582945E+02 -0.27082539661E+02  0.91729351577E+02  0.97149983852E+02  0.00000000000E+00 0. -1.
         -2    1    3    3    0  502 -0.17040582945E+02  0.27082539661E+02  0.52482758403E+03  0.52580209050E+03  0.00000000000E+00 0.  1.
<mgrwt>
<rscale>  0 0.89032759E+02</rscale>
<asrwt>0</asrwt>
<pdfrwt beam="2">  1        2 0.49193424E-03 0.89032759E+02</pdfrwt>
<pdfrwt beam="1">  1       -2 0.95346751E-01 0.89032759E+02</pdfrwt>
<totfact> 0.32323944E+04</totfact>
</mgrwt>
</event>
<event>
 5    1  0.3858846E+001  0.9225663E+02  0.7546771E-02  0.1297477E+00
         -2   -1    0    0    0  501 -0.00000000000E+00  0.00000000000E+00  0.18751834850E+02  0.18751834850E+02  0.00000000000E+00 0.  1.
          2   -1    0    0  501    0  0.00000000000E+00 -0.00000000000E+00 -0.11347270778E+03  0.11347270778E+03  0.00000000000E+00 0. -1.
         23    2    1    2    0    0  0.00000000000E+00  0.00000000000E+00 -0.94720872929E+02  0.13222454263E+03  0.92256630682E+02 0.  0.
          2    1    3    3  502    0 -0.29392477978E+02  0.27472908429E+02 -0.79700016784E+02  0.89279175257E+02  0.00000000000E+00 0. -1.
         -2    1    3    3    0  502  0.29392477978E+02 -0.27472908429E+02 -0.15020856145E+02  0.42945367371E+02  0.00000000000E+00 0.  1.
<mgrwt>
<rscale>  0 0.92256631E+02</rscale>
<asrwt>0</asrwt>
<pdfrwt beam="2">  1        2 0.17457340E-01 0.92256631E+02</pdfrwt>
<pdfrwt beam="1">  1       -2 0.28848977E-02 0.92256631E+02</pdfrwt>
<totfact> 0.12352090E+05</totfact>
</mgrwt>
</event>
<event>
 5    1  0.3858846E+001  0.9082467E+02  0.7546771E-02  0.1300867E+00
         -1   -1    0    0    0  501 -0.00000000000E+00  0.00000000000E+00  0.30338571332E+02  0.30338571332E+02  0.00000000000E+00 0.  1.
          1   -1    0    0  501    0  0.00000000000E+00 -0.00000000000E+00 -0.67975515873E+02  0.67975515873E+02  0.00000000000E+00 0. -1.
         23    2    1    2    0    0  0.00000000000E+00  0.00000000000E+00 -0.37636944541E+02  0.98314087206E+02  0.90824667072E+02 0.  0.
          2    1    3    3  502    0  0.39336622292E+02 -0.75898218122E+01  0.43295990287E+01  0.40295417558E+02  0.00000000000E+00 0.  1.
         -2    1    3    3    0  502 -0.39336622292E+02  0.75898218122E+01 -0.41966543570E+02  0.58018669647E+02  0.00000000000E+00 0. -1.
<mgrwt>
<rscale>  0 0.90824667E+02</rscale>
<asrwt>0</asrwt>
<pdfrwt beam="2">  1        1 0.10457772E-01 0.90824667E+02</pdfrwt>
<pdfrwt beam="1">  1       -1 0.46674725E-02 0.90824667E+02</pdfrwt>
<totfact> 0.99276614E+04</totfact>
</mgrwt>
</event>
<event>
 5    1  0.3858846E+001  0.9523680E+02  0.7546771E-02  0.1290644E+00
         -1   -1    0    0    0  501 -0.00000000000E+00  0.00000000000E+00  0.60381649929E+03  0.60381649929E+03  0.00000000000E+00 0.  1.
          1   -1    0    0  501    0  0.00000000000E+00 -0.00000000000E+00 -0.37553002349E+01  0.37553002349E+01  0.00000000000E+00 0. -1.
         23    2    1    2    0    0  0.00000000000E+00  0.00000000000E+00  0.60006119906E+03  0.60757179953E+03  0.95236804685E+02 0.  0.
          2    1    3    3  502    0  0.39031823116E+02 -0.20872293969E+02  0.18800085691E+03  0.19314103156E+03  0.00000000000E+00 0.  1.
         -2    1    3    3    0  502 -0.39031823116E+02  0.20872293969E+02  0.41206034215E+03  0.41443076797E+03  0.00000000000E+00 0. -1.
<mgrwt>
<rscale>  0 0.95236805E+02</rscale>
<asrwt>0</asrwt>
<pdfrwt beam="2">  1        1 0.57773898E-03 0.95236805E+02</pdfrwt>
<pdfrwt beam="1">  1       -1 0.92894769E-01 0.95236805E+02</pdfrwt>
<totfact> 0.36937666E+04</totfact>
</mgrwt>
</event>
<event>
 5    1  0.3858846E+001  0.8684336E+02  0.7546771E-02  0.1310681E+00
          1   -1    0    0  501    0  0.00000000000E+00  0.00000000000E+00  0.96183724656E+02  0.96183724656E+02  0.00000000000E+00 0. -1.
         -1   -1    0    0    0  501 -0.00000000000E+00 -0.00000000000E+00 -0.19602507703E+02  0.19602507703E+02  0.00000000000E+00 0.  1.
         23    2    1    2    0    0  0.00000000000E+00  0.00000000000E+00  0.76581216954E+02  0.11578623236E+03  0.86843357914E+02 0.  0.
          2    1    3    3  502    0  0.92253978325E+01 -0.32505415532E+02  0.74651004679E+02  0.81941945936E+02  0.00000000000E+00 0. -1.
         -2    1    3    3    0  502 -0.92253978325E+01  0.32505415532E+02  0.19302122742E+01  0.33844286423E+02  0.00000000000E+00 0.  1.
<mgrwt>
<rscale>  0 0.86843358E+02</rscale>
<asrwt>0</asrwt>
<pdfrwt beam="1">  1        1 0.14797496E-01 0.86843358E+02</pdfrwt>
<pdfrwt beam="2">  1       -1 0.30157705E-02 0.86843358E+02</pdfrwt>
<totfact> 0.11846955E+05</totfact>
</mgrwt>
</event>
<event>
 5    1  0.3858846E+001  0.9223845E+02  0.7546771E-02  0.1297520E+00
          1   -1    0    0  501    0  0.00000000000E+00  0.00000000000E+00  0.15654569148E+03  0.15654569148E+03  0.00000000000E+00 0. -1.
         -1   -1    0    0    0  501 -0.00000000000E+00 -0.00000000000E+00 -0.13586979226E+02  0.13586979226E+02  0.00000000000E+00 0.  1.
         23    2    1    2    0    0  0.00000000000E+00  0.00000000000E+00  0.14295871226E+03  0.17013267071E+03  0.92238453113E+02 0.  0.
          2    1    3    3  502    0  0.43612779623E+02  0.11531569663E+02  0.89164462477E+02  0.99926738235E+02  0.00000000000E+00 0. -1.
         -2    1    3    3    0  502 -0.43612779623E+02 -0.11531569663E+02  0.53794249778E+02  0.70205932473E+02  0.00000000000E+00 0.  1.
<mgrwt>
<rscale>  0 0.92238453E+02</rscale>
<asrwt>0</asrwt>
<pdfrwt beam="1">  1        1 0.24083951E-01 0.92238453E+02</pdfrwt>
<pdfrwt beam="2">  1       -1 0.20903046E-02 0.92238453E+02</pdfrwt>
<totfact> 0.10954365E+05</totfact>
</mgrwt>
</event>
<event>
 5    1  0.3858846E+001  0.9416856E+02  0.7546771E-02  0.1293060E+00
          1   -1    0    0  501    0  0.00000000000E+00  0.00000000000E+00  0.11413010755E+04  0.11413010755E+04  0.00000000000E+00 0. -1.
         -1   -1    0    0    0  501 -0.00000000000E+00 -0.00000000000E+00 -0.19424579876E+01  0.19424579876E+01  0.00000000000E+00 0.  1.
         23    2    1    2    0    0  0.00000000000E+00  0.00000000000E+00  0.11393586175E+04  0.11432435335E+04  0.94168559304E+02 0.  0.
          2    1    3    3  502    0 -0.31533888924E+02  0.13144114472E+01  0.99386679829E+03  0.99436780246E+03  0.00000000000E+00 0. -1.
         -2    1    3    3    0  502  0.31533888924E+02 -0.13144114472E+01  0.14549181924E+03  0.14887573104E+03  0.00000000000E+00 0.  1.
<mgrwt>
<rscale>  0 0.94168559E+02</rscale>
<asrwt>0</asrwt>
<pdfrwt beam="1">  1        1 0.17558425E+00 0.94168559E+02</pdfrwt>
<pdfrwt beam="2">  1       -1 0.29884060E-03 0.94168559E+02</pdfrwt>
<totfact> 0.11947230E+05</totfact>
</mgrwt>
</event>
<event>
 5    1  0.3858846E+001  0.9155061E+02  0.7546771E-02  0.1299140E+00
         -2   -1    0    0    0  501 -0.00000000000E+00  0.00000000000E+00  0.56054677640E+02  0.56054677640E+02  0.00000000000E+00 0.  1.
          2   -1    0    0  501    0  0.00000000000E+00 -0.00000000000E+00 -0.37380976574E+02  0.37380976574E+02  0.00000000000E+00 0. -1.
         23    2    1    2    0    0  0.00000000000E+00  0.00000000000E+00  0.18673701066E+02  0.93435654213E+02  0.91550610958E+02 0.  0.
          2    1    3    3  502    0  0.16477111990E+02 -0.16374694944E+02 -0.30918320003E+02  0.38672578991E+02  0.00000000000E+00 0. -1.
         -2    1    3    3    0  502 -0.16477111990E+02  0.16374694944E+02  0.49592021069E+02  0.54763075222E+02  0.00000000000E+00 0.  1.
<mgrwt>
<rscale>  0 0.91550611E+02</rscale>
<asrwt>0</asrwt>
<pdfrwt beam="2">  1        2 0.57509195E-02 0.91550611E+02</pdfrwt>
<pdfrwt beam="1">  1       -2 0.86237966E-02 0.91550611E+02</pdfrwt>
<totfact> 0.92617908E+04</totfact>
</mgrwt>
</event>
<event>
 5    1  0.3858846E+001  0.8878809E+02  0.7546771E-02  0.1305813E+00
         -2   -1    0    0    0  501 -0.00000000000E+00  0.00000000000E+00  0.30483148730E+01  0.30483148730E+01  0.00000000000E+00 0.  1.
          2   -1    0    0  501    0  0.00000000000E+00 -0.00000000000E+00 -0.64653134250E+03  0.64653134250E+03  0.00000000000E+00 0. -1.
         23    2    1    2    0    0  0.00000000000E+00  0.00000000000E+00 -0.64348302763E+03  0.64957965737E+03  0.88788087201E+02 0.  0.
          2    1    3    3  502    0  0.23746560736E+02  0.21355863489E+01 -0.59571542704E+03  0.59619235981E+03  0.00000000000E+00 0. -1.
         -2    1    3    3    0  502 -0.23746560736E+02 -0.21355863489E+01 -0.47767600586E+02  0.53387297568E+02  0.00000000000E+00 0.  1.
<mgrwt>
<rscale>  0 0.88788087E+02</rscale>
<asrwt>0</asrwt>
<pdfrwt beam="2">  1        2 0.99466339E-01 0.88788087E+02</pdfrwt>
<pdfrwt beam="1">  1       -2 0.46897162E-03 0.88788087E+02</pdfrwt>
<totfact> 0.24938236E+05</totfact>
</mgrwt>
</event>
<event>
 5    1  0.3858846E+001  0.7762083E+02  0.7546771E-02  0.1335942E+00
          3   -1    0    0  501    0  0.00000000000E+00  0.00000000000E+00  0.28136912765E+03  0.28136912765E+03  0.00000000000E+00 0. -1.
         -3   -1    0    0    0  501 -0.00000000000E+00 -0.00000000000E+00 -0.53532821471E+01  0.53532821471E+01  0.00000000000E+00 0.  1.
         23    2    1    2    0    0  0.00000000000E+00  0.00000000000E+00  0.27601584550E+03  0.28672240980E+03  0.77620830394E+02 0.  0.
          2    1    3    3  502    0  0.84699750523E+01  0.26728941578E+02  0.23713017795E+03  0.23878211426E+03  0.00000000000E+00 0. -1.
         -2    1    3    3    0  502 -0.84699750523E+01 -0.26728941578E+02  0.38885667551E+02  0.47940295537E+02  0.00000000000E+00 0.  1.
<mgrwt>
<rscale>  0 0.77620830E+02</rscale>
<asrwt>0</asrwt>
<pdfrwt beam="1">  1        3 0.43287546E-01 0.77620830E+02</pdfrwt>
<pdfrwt beam="2">  1       -3 0.82358209E-03 0.77620830E+02</pdfrwt>
<totfact> 0.37667573E+04</totfact>
</mgrwt>
</event>
<event>
 5    1  0.3858846E+001  0.9008678E+02  0.7546771E-02  0.1302642E+00
          1   -1    0    0  501    0  0.00000000000E+00  0.00000000000E+00  0.28497358723E+02  0.28497358723E+02  0.00000000000E+00 0. -1.
         -1   -1    0    0    0  501 -0.00000000000E+00 -0.00000000000E+00 -0.71196322169E+02  0.71196322169E+02  0.00000000000E+00 0.  1.
         23    2    1    2    0    0  0.00000000000E+00  0.00000000000E+00 -0.42698963446E+02  0.99693680892E+02  0.90086783328E+02 0.  0.
          2    1    3    3  502    0 -0.22472953702E+02 -0.21434091963E+02  0.14755724869E+02  0.34382922546E+02  0.00000000000E+00 0. -1.
         -2    1    3    3    0  502  0.22472953702E+02  0.21434091963E+02 -0.57454688315E+02  0.65310758346E+02  0.00000000000E+00 0.  1.
<mgrwt>
<rscale>  0 0.90086783E+02</rscale>
<asrwt>0</asrwt>
<pdfrwt beam="1">  1        1 0.43842091E-02 0.90086783E+02</pdfrwt>
<pdfrwt beam="2">  1       -1 0.10953280E-01 0.90086783E+02</pdfrwt>
<totfact> 0.88988061E+04</totfact>
</mgrwt>
</event>
<event>
 5    1  0.3858846E+001  0.8974238E+02  0.7546771E-02  0.1303477E+00
          1   -1    0    0  501    0  0.00000000000E+00  0.00000000000E+00  0.17503265420E+02  0.17503265420E+02  0.00000000000E+00 0. -1.
         -1   -1    0    0    0  501 -0.00000000000E+00 -0.00000000000E+00 -0.11503131355E+03  0.11503131355E+03  0.00000000000E+00 0.  1.
         23    2    1    2    0    0  0.00000000000E+00  0.00000000000E+00 -0.97528048127E+02  0.13253457897E+03  0.89742378231E+02 0.  0.
          2    1    3    3  502    0 -0.17334140902E+02  0.38910011732E+02 -0.27932700214E+02  0.50938170315E+02  0.00000000000E+00 0. -1.
         -2    1    3    3    0  502  0.17334140902E+02 -0.38910011732E+02 -0.69595347913E+02  0.81596408653E+02  0.00000000000E+00 0.  1.
<mgrwt>
<rscale>  0 0.89742378E+02</rscale>
<asrwt>0</asrwt>
<pdfrwt beam="1">  1        1 0.26928101E-02 0.89742378E+02</pdfrwt>
<pdfrwt beam="2">  1       -1 0.17697125E-01 0.89742378E+02</pdfrwt>
<totfact> 0.82512618E+04</totfact>
</mgrwt>
</event>
<event>
 5    1  0.3858846E+001  0.9149764E+02  0.7546771E-02  0.1299265E+00
          3   -1    0    0  501    0  0.00000000000E+00  0.00000000000E+00  0.96154133370E+02  0.96154133370E+02  0.00000000000E+00 0. -1.
         -3   -1    0    0    0  501 -0.00000000000E+00 -0.00000000000E+00 -0.21766664193E+02  0.21766664193E+02  0.00000000000E+00 0.  1.
         23    2    1    2    0    0  0.00000000000E+00  0.00000000000E+00  0.74387469177E+02  0.11792079756E+03  0.91497644382E+02 0.  0.
          2    1    3    3  502    0 -0.20248012417E+02  0.38080736908E+02  0.56859015375E+02  0.71365763218E+02  0.00000000000E+00 0. -1.
         -2    1    3    3    0  502  0.20248012417E+02 -0.38080736908E+02  0.17528453802E+02  0.46555034346E+02  0.00000000000E+00 0.  1.
<mgrwt>
<rscale>  0 0.91497644E+02</rscale>
<asrwt>0</asrwt>
<pdfrwt beam="1">  1        3 0.14792943E-01 0.91497644E+02</pdfrwt>
<pdfrwt beam="2">  1       -3 0.33487176E-02 0.91497644E+02</pdfrwt>
<totfact> 0.33071455E+04</totfact>
</mgrwt>
</event>
<event>
 5    1  0.3858846E+001  0.7647730E+02  0.7546771E-02  0.1339356E+00
         -2   -1    0    0    0  501 -0.00000000000E+00  0.00000000000E+00  0.37577253040E+01  0.37577253040E+01  0.00000000000E+00 0.  1.
          2   -1    0    0  501    0  0.00000000000E+00 -0.00000000000E+00 -0.38911691976E+03  0.38911691976E+03  0.00000000000E+00 0. -1.
         23    2    1    2    0    0  0.00000000000E+00  0.00000000000E+00 -0.38535919446E+03  0.39287464506E+03  0.76477303708E+02 0.  0.
          2    1    3    3  502    0 -0.84956247570E+01  0.37037874660E+02 -0.21460423365E+03  0.21794255413E+03  0.00000000000E+00 0. -1.
         -2    1    3    3    0  502  0.84956247570E+01 -0.37037874660E+02 -0.17075496080E+03  0.17493209093E+03  0.00000000000E+00 0.  1.
<mgrwt>
<rscale>  0 0.76477304E+02</rscale>
<asrwt>0</asrwt>
<pdfrwt beam="2">  1        2 0.59864133E-01 0.76477304E+02</pdfrwt>
<pdfrwt beam="1">  1       -2 0.57811167E-03 0.76477304E+02</pdfrwt>
<totfact> 0.31388863E+05</totfact>
</mgrwt>
</event>
<event>
 5    1  0.3858846E+001  0.1041079E+03  0.7546771E-02  0.1271887E+00
          2   -1    0    0  501    0  0.00000000000E+00  0.00000000000E+00  0.31506465296E+04  0.31506465296E+04  0.00000000000E+00 0.  1.
         -2   -1    0    0    0  501 -0.00000000000E+00 -0.00000000000E+00 -0.86001894195E+00  0.86001894195E+00  0.00000000000E+00 0. -1.
         23    2    1    2    0    0  0.00000000000E+00  0.00000000000E+00  0.31497865107E+04  0.31515065485E+04  0.10410793812E+03 0.  0.
          2    1    3    3  502    0  0.45378442528E+02  0.22876610241E+02  0.19161345747E+04  0.19168083500E+04  0.00000000000E+00 0.  1.
         -2    1    3    3    0  502 -0.45378442528E+02 -0.22876610241E+02  0.12336519359E+04  0.12346981985E+04  0.00000000000E+00 0. -1.
<mgrwt>
<rscale>  0 0.10410794E+03</rscale>
<asrwt>0</asrwt>
<pdfrwt beam="1">  1        2 0.48470561E+00 0.10410794E+03</pdfrwt>
<pdfrwt beam="2">  1       -2 0.13231313E-03 0.10410794E+03</pdfrwt>
<totfact> 0.62451160E+04</totfact>
</mgrwt>
</event>
<event>
 5    1  0.3858846E+001  0.8870867E+02  0.7546771E-02  0.1306009E+00
          2   -1    0    0  501    0  0.00000000000E+00  0.00000000000E+00  0.38920659969E+02  0.38920659969E+02  0.00000000000E+00 0. -1.
         -2   -1    0    0    0  501 -0.00000000000E+00 -0.00000000000E+00 -0.50546601876E+02  0.50546601876E+02  0.00000000000E+00 0.  1.
         23    2    1    2    0    0  0.00000000000E+00  0.00000000000E+00 -0.11625941907E+02  0.89467261845E+02  0.88708671599E+02 0.  0.
          2    1    3    3  502    0  0.21283385648E+02  0.27096535560E+02  0.22356187067E+02  0.41073152352E+02  0.00000000000E+00 0. -1.
         -2    1    3    3    0  502 -0.21283385648E+02 -0.27096535560E+02 -0.33982128974E+02  0.48394109493E+02  0.00000000000E+00 0.  1.
<mgrwt>
<rscale>  0 0.88708672E+02</rscale>
<asrwt>0</asrwt>
<pdfrwt beam="1">  1        2 0.59877939E-02 0.88708672E+02</pdfrwt>
<pdfrwt beam="2">  1       -2 0.77764002E-02 0.88708672E+02</pdfrwt>
<totfact> 0.10253761E+05</totfact>
</mgrwt>
</event>
<event>
 5    1  0.3858846E+001  0.9102950E+02  0.7546771E-02  0.1300378E+00
         -3   -1    0    0    0  501 -0.00000000000E+00  0.00000000000E+00  0.39629843694E+03  0.39629843694E+03  0.00000000000E+00 0.  1.
          3   -1    0    0  501    0  0.00000000000E+00 -0.00000000000E+00 -0.52273543236E+01  0.52273543236E+01  0.00000000000E+00 0. -1.
         23    2    1    2    0    0  0.00000000000E+00  0.00000000000E+00  0.39107108262E+03  0.40152579126E+03  0.91029497368E+02 0.  0.
          2    1    3    3  502    0  0.31400727365E+02  0.30107026845E+02  0.13649585034E+03  0.14326044780E+03  0.00000000000E+00 0. -1.
         -2    1    3    3    0  502 -0.31400727365E+02 -0.30107026845E+02  0.25457523228E+03  0.25826534346E+03  0.00000000000E+00 0.  1.
<mgrwt>
<rscale>  0 0.91029497E+02</rscale>
<asrwt>0</asrwt>
<pdfrwt beam="2">  1        3 0.80420867E-03 0.91029497E+02</pdfrwt>
<pdfrwt beam="1">  1       -3 0.60968967E-01 0.91029497E+02</pdfrwt>
<totfact> 0.20643306E+04</totfact>
</mgrwt>
</event>
<event>
 5    1  0.3858846E+001  0.1140406E+03  0.7546771E-02  0.1253265E+00
         -1   -1    0    0    0  501 -0.00000000000E+00  0.00000000000E+00  0.66774527892E+02  0.66774527892E+02  0.00000000000E+00 0.  1.
          1   -1    0    0  501    0  0.00000000000E+00 -0.00000000000E+00 -0.48690967384E+02  0.48690967384E+02  0.00000000000E+00 0. -1.
         23    2    1    2    0    0  0.00000000000E+00  0.00000000000E+00  0.18083560509E+02  0.11546549528E+03  0.11404063065E+03 0.  0.
          2    1    3    3  502    0  0.44279354994E+02 -0.27538111422E+02 -0.14318277125E+02  0.54074226016E+02  0.00000000000E+00 0. -1.
         -2    1    3    3    0  502 -0.44279354994E+02  0.27538111422E+02  0.32401837633E+02  0.61391269260E+02  0.00000000000E+00 0.  1.
<mgrwt>
<rscale>  0 0.11404063E+03</rscale>
<asrwt>0</asrwt>
<pdfrwt beam="2">  1        1 0.74909180E-02 0.11404063E+03</pdfrwt>
<pdfrwt beam="1">  1       -1 0.10273004E-01 0.11404063E+03</pdfrwt>
<totfact> 0.49321580E+04</totfact>
</mgrwt>
</event>
<event>
 5    1  0.3858846E+001  0.9174311E+02  0.7546771E-02  0.1298685E+00
         -1   -1    0    0    0  501 -0.00000000000E+00  0.00000000000E+00  0.53101132131E+02  0.53101132131E+02  0.00000000000E+00 0.  1.
          1   -1    0    0  501    0  0.00000000000E+00 -0.00000000000E+00 -0.39626267095E+02  0.39626267095E+02  0.00000000000E+00 0. -1.
         23    2    1    2    0    0  0.00000000000E+00  0.00000000000E+00  0.13474865036E+02  0.92727399225E+02  0.91743111891E+02 0.  0.
          2    1    3    3  502    0  0.45375230598E+01  0.38975761703E+02  0.30751558713E+02  0.49853359758E+02  0.00000000000E+00 0.  1.
         -2    1    3    3    0  502 -0.45375230598E+01 -0.38975761703E+02 -0.17276693677E+02  0.42874039468E+02  0.00000000000E+00 0. -1.
<mgrwt>
<rscale>  0 0.91743112E+02</rscale>
<asrwt>0</asrwt>
<pdfrwt beam="2">  1        1 0.60963488E-02 0.91743112E+02</pdfrwt>
<pdfrwt beam="1">  1       -1 0.81694049E-02 0.91743112E+02</pdfrwt>
<totfact> 0.88961628E+04</totfact>
</mgrwt>
</event>
<event>
 5    1  0.3858846E+001  0.8965838E+02  0.7546771E-02  0.1303681E+00
         -3   -1    0    0    0  501 -0.00000000000E+00  0.00000000000E+00  0.64099143721E+02  0.64099143721E+02  0.00000000000E+00 0. -1.
          3   -1    0    0  501    0  0.00000000000E+00 -0.00000000000E+00 -0.31352312728E+02  0.31352312728E+02  0.00000000000E+00 0.  1.
         23    2    1    2    0    0  0.00000000000E+00  0.00000000000E+00  0.32746830993E+02  0.95451456449E+02  0.89658382754E+02 0.  0.
          2    1    3    3  502    0 -0.36933619106E+02  0.21098540322E+01  0.43329626489E+02  0.56973680204E+02  0.00000000000E+00 0. -1.
         -2    1    3    3    0  502  0.36933619106E+02 -0.21098540322E+01 -0.10582795496E+02  0.38477776245E+02  0.00000000000E+00 0.  1.
<mgrwt>
<rscale>  0 0.89658383E+02</rscale>
<asrwt>0</asrwt>
<pdfrwt beam="2">  1        3 0.48234327E-02 0.89658383E+02</pdfrwt>
<pdfrwt beam="1">  1       -3 0.98614067E-02 0.89658383E+02</pdfrwt>
<totfact> 0.36647362E+04</totfact>
</mgrwt>
</event>
<event>
 5    1  0.3858846E+001  0.9124838E+02  0.7546771E-02  0.1299856E+00
          1   -1    0    0  501    0  0.00000000000E+00  0.00000000000E+00  0.99758544973E+03  0.99758544973E+03  0.00000000000E+00 0. -1.
         -1   -1    0    0    0  501 -0.00000000000E+00 -0.00000000000E+00 -0.20866049306E+01  0.20866049306E+01  0.00000000000E+00 0.  1.
         23    2    1    2    0    0  0.00000000000E+00  0.00000000000E+00  0.99549884480E+03  0.99967205466E+03  0.91248380107E+02 0.  0.
          2    1    3    3  502    0  0.33151894370E+02 -0.23829033844E+02  0.72084819856E+03  0.72200346005E+03  0.00000000000E+00 0. -1.
         -2    1    3    3    0  502 -0.33151894370E+02  0.23829033844E+02  0.27465064624E+03  0.27766859461E+03  0.00000000000E+00 0.  1.
<mgrwt>
<rscale>  0 0.91248380E+02</rscale>
<asrwt>0</asrwt>
<pdfrwt beam="1">  1        1 0.15347430E+00 0.91248380E+02</pdfrwt>
<pdfrwt beam="2">  1       -1 0.32101694E-03 0.91248380E+02</pdfrwt>
<totfact> 0.13582039E+05</totfact>
</mgrwt>
</event>
<event>
 5    1  0.3858846E+001  0.9855642E+02  0.7546771E-02  0.1283361E+00
          1   -1    0    0  501    0  0.00000000000E+00  0.00000000000E+00  0.52493755908E+03  0.52493755908E+03  0.00000000000E+00 0. -1.
         -1   -1    0    0    0  501 -0.00000000000E+00 -0.00000000000E+00 -0.46259633976E+01  0.46259633976E+01  0.00000000000E+00 0.  1.
         23    2    1    2    0    0  0.00000000000E+00  0.00000000000E+00  0.52031159569E+03  0.52956352248E+03  0.98556419057E+02 0.  0.
          2    1    3    3  502    0 -0.86487930167E+01  0.42309978447E+02  0.38769505852E+03  0.39009280216E+03  0.00000000000E+00 0. -1.
         -2    1    3    3    0  502  0.86487930167E+01 -0.42309978447E+02  0.13261653717E+03  0.13947072033E+03  0.00000000000E+00 0.  1.
<mgrwt>
<rscale>  0 0.98556419E+02</rscale>
<asrwt>0</asrwt>
<pdfrwt beam="1">  1        1 0.80759577E-01 0.98556419E+02</pdfrwt>
<pdfrwt beam="2">  1       -1 0.71168709E-03 0.98556419E+02</pdfrwt>
<totfact> 0.11384006E+05</totfact>
</mgrwt>
</event>
<event>
 4    1  0.3858846E+001  0.2120057E+03  0.7546771E-02  0.1139987E+00
          2   -1    0    0  501    0  0.00000000000E+00  0.00000000000E+00  0.10224151710E+04  0.10224151710E+04  0.00000000000E+00 0. -1.
         -2   -1    0    0    0  501 -0.00000000000E+00 -0.00000000000E+00 -0.10990253597E+02  0.10990253597E+02  0.00000000000E+00 0.  1.
          2    1    1    2  502    0  0.98615195922E+02  0.18948811674E+02  0.67119806619E+03  0.67866844511E+03  0.00000000000E+00 0. -1.
         -2    1    1    2    0  502 -0.98615195922E+02 -0.18948811674E+02  0.34022685126E+03  0.35473697953E+03  0.00000000000E+00 0.  1.
<mgrwt>
<rscale>  0 0.21200568E+03</rscale>
<asrwt>0</asrwt>
<pdfrwt beam="1">  1        2 0.15729457E+00 0.21200568E+03</pdfrwt>
<pdfrwt beam="2">  1       -2 0.16908090E-02 0.21200568E+03</pdfrwt>
<totfact> 0.24727820E+04</totfact>
</mgrwt>
</event>
<event>
 5    1  0.3858846E+001  0.9129051E+02  0.7546771E-02  0.1299756E+00
         -1   -1    0    0    0  501 -0.00000000000E+00  0.00000000000E+00  0.55976565345E+01  0.55976565345E+01  0.00000000000E+00 0.  1.
          1   -1    0    0  501    0  0.00000000000E+00 -0.00000000000E+00 -0.37220739926E+03  0.37220739926E+03  0.00000000000E+00 0. -1.
         23    2    1    2    0    0  0.00000000000E+00  0.00000000000E+00 -0.36660974272E+03  0.37780505579E+03  0.91290507297E+02 0.  0.
          2    1    3    3  502    0 -0.17983408344E+01  0.45496513048E+02 -0.17000848680E+03  0.17600014862E+03  0.00000000000E+00 0. -1.
         -2    1    3    3    0  502  0.17983408344E+01 -0.45496513048E+02 -0.19660125592E+03  0.20180490717E+03  0.00000000000E+00 0.  1.
<mgrwt>
<rscale>  0 0.91290507E+02</rscale>
<asrwt>0</asrwt>
<pdfrwt beam="2">  1        1 0.57262671E-01 0.91290507E+02</pdfrwt>
<pdfrwt beam="1">  1       -1 0.86117802E-03 0.91290507E+02</pdfrwt>
<totfact> 0.13282102E+05</totfact>
</mgrwt>
</event>
<event>
 5    1  0.3858846E+001  0.9125367E+02  0.7546771E-02  0.1299844E+00
         -2   -1    0    0    0  501 -0.00000000000E+00  0.00000000000E+00  0.71829254444E+02  0.71829254444E+02  0.00000000000E+00 0.  1.
          2   -1    0    0  501    0  0.00000000000E+00 -0.00000000000E+00 -0.28982733975E+02  0.28982733975E+02  0.00000000000E+00 0. -1.
         23    2    1    2    0    0  0.00000000000E+00  0.00000000000E+00  0.42846520469E+02  0.10081198842E+03  0.91253672214E+02 0.  0.
          2    1    3    3  502    0 -0.33078007060E+02 -0.22668775353E+02 -0.26231529468E+01  0.40185928612E+02  0.00000000000E+00 0. -1.
         -2    1    3    3    0  502  0.33078007060E+02  0.22668775353E+02  0.45469673416E+02  0.60626059806E+02  0.00000000000E+00 0.  1.
<mgrwt>
<rscale>  0 0.91253672E+02</rscale>
<asrwt>0</asrwt>
<pdfrwt beam="2">  1        2 0.44588822E-02 0.91253672E+02</pdfrwt>
<pdfrwt beam="1">  1       -2 0.11050654E-01 0.91253672E+02</pdfrwt>
<totfact> 0.87432404E+04</totfact>
</mgrwt>
</event>
<event>
 5    1  0.3858846E+001  0.9454646E+02  0.7546771E-02  0.1292201E+00
         -2   -1    0    0    0  501 -0.00000000000E+00  0.00000000000E+00  0.59438839960E+01  0.59438839960E+01  0.00000000000E+00 0.  1.
          2   -1    0    0  501    0  0.00000000000E+00 -0.00000000000E+00 -0.37597606180E+03  0.37597606180E+03  0.00000000000E+00 0. -1.
         23    2    1    2    0    0  0.00000000000E+00  0.00000000000E+00 -0.37003217780E+03  0.38191994579E+03  0.94546456234E+02 0.  0.
          2    1    3    3  502    0  0.35273869745E+02 -0.29211032675E+02 -0.23233645580E+03  0.23680743023E+03  0.00000000000E+00 0. -1.
         -2    1    3    3    0  502 -0.35273869745E+02  0.29211032675E+02 -0.13769572200E+03  0.14511251556E+03  0.00000000000E+00 0.  1.
<mgrwt>
<rscale>  0 0.94546456E+02</rscale>
<asrwt>0</asrwt>
<pdfrwt beam="2">  1        2 0.57842490E-01 0.94546456E+02</pdfrwt>
<pdfrwt beam="1">  1       -2 0.91444340E-03 0.94546456E+02</pdfrwt>
<totfact> 0.17722855E+05</totfact>
</mgrwt>
</event>
<event>
 5    1  0.3858846E+001  0.9028390E+02  0.7546771E-02  0.1302166E+00
         -2   -1    0    0    0  501 -0.00000000000E+00  0.00000000000E+00  0.47504966719E+02  0.47504966719E+02  0.00000000000E+00 0. -1.
          2   -1    0    0  501    0  0.00000000000E+00 -0.00000000000E+00 -0.42896472539E+02  0.42896472539E+02  0.00000000000E+00 0.  1.
         23    2    1    2    0    0  0.00000000000E+00  0.00000000000E+00  0.46084941798E+01  0.90401439257E+02  0.90283896688E+02 0.  0.
          2    1    3    3  502    0  0.22853401221E+02 -0.63521862067E+01  0.40762157700E+02  0.47161231084E+02  0.00000000000E+00 0. -1.
         -2    1    3    3    0  502 -0.22853401221E+02  0.63521862067E+01 -0.36153663520E+02  0.43240208174E+02  0.00000000000E+00 0.  1.
<mgrwt>
<rscale>  0 0.90283897E+02</rscale>
<asrwt>0</asrwt>
<pdfrwt beam="2">  1        2 0.65994573E-02 0.90283897E+02</pdfrwt>
<pdfrwt beam="1">  1       -2 0.73084564E-02 0.90283897E+02</pdfrwt>
<totfact> 0.99919697E+04</totfact>
</mgrwt>
</event>
<event>
 5    1  0.3858846E+001  0.9197199E+02  0.7546771E-02  0.1298145E+00
         -2   -1    0    0    0  501 -0.00000000000E+00  0.00000000000E+00  0.37854519010E+01  0.37854519010E+01  0.00000000000E+00 0.  1.
          2   -1    0    0  501    0  0.00000000000E+00 -0.00000000000E+00 -0.55864180982E+03  0.55864180982E+03  0.00000000000E+00 0. -1.
         23    2    1    2    0    0  0.00000000000E+00  0.00000000000E+00 -0.55485635792E+03  0.56242726172E+03  0.91971989235E+02 0.  0.
          2    1    3    3  502    0 -0.28167066185E+02 -0.34295791424E+02 -0.20375921630E+03  0.20853633534E+03  0.00000000000E+00 0. -1.
         -2    1    3    3    0  502  0.28167066185E+02  0.34295791424E+02 -0.35109714161E+03  0.35389092638E+03  0.00000000000E+00 0.  1.
<mgrwt>
<rscale>  0 0.91971989E+02</rscale>
<asrwt>0</asrwt>
<pdfrwt beam="2">  1        2 0.85944896E-01 0.91971989E+02</pdfrwt>
<pdfrwt beam="1">  1       -2 0.58237720E-03 0.91971989E+02</pdfrwt>
<totfact> 0.21806376E+05</totfact>
</mgrwt>
</event>
<event>
 5    1  0.3858846E+001  0.8954354E+02  0.7546771E-02  0.1303961E+00
          2   -1    0    0  501    0  0.00000000000E+00  0.00000000000E+00  0.13323840889E+02  0.13323840889E+02  0.00000000000E+00 0. -1.
         -2   -1    0    0    0  501 -0.00000000000E+00 -0.00000000000E+00 -0.15044547424E+03  0.15044547424E+03  0.00000000000E+00 0.  1.
         23    2    1    2    0    0  0.00000000000E+00  0.00000000000E+00 -0.13712163336E+03  0.16376931513E+03  0.89543543852E+02 0.  0.
          2    1    3    3  502    0  0.41504764137E+02  0.42520420714E+01 -0.38856173878E+02  0.57013398042E+02  0.00000000000E+00 0. -1.
         -2    1    3    3    0  502 -0.41504764137E+02 -0.42520420714E+01 -0.98265459477E+02  0.10675591709E+03  0.00000000000E+00 0.  1.
<mgrwt>
<rscale>  0 0.89543544E+02</rscale>
<asrwt>0</asrwt>
<pdfrwt beam="1">  1        2 0.20498217E-02 0.89543544E+02</pdfrwt>
<pdfrwt beam="2">  1       -2 0.23145457E-01 0.89543544E+02</pdfrwt>
<totfact> 0.73045976E+04</totfact>
</mgrwt>
</event>
<event>
 5    1  0.3858846E+001  0.7817261E+02  0.7546771E-02  0.1334319E+00
          2   -1    0    0  501    0  0.00000000000E+00  0.00000000000E+00  0.16413581164E+04  0.16413581164E+04  0.00000000000E+00 0. -1.
         -2   -1    0    0    0  501 -0.00000000000E+00 -0.00000000000E+00 -0.93077750229E+00  0.93077750229E+00  0.00000000000E+00 0.  1.
         23    2    1    2    0    0  0.00000000000E+00  0.00000000000E+00  0.16404273389E+04  0.16422888939E+04  0.78172609217E+02 0.  0.
          2    1    3    3  502    0  0.69506485377E+00  0.30552410941E+02  0.13321516379E+04  0.13325021273E+04  0.00000000000E+00 0. -1.
         -2    1    3    3    0  502 -0.69506485377E+00 -0.30552410941E+02  0.30827570105E+03  0.30978676664E+03  0.00000000000E+00 0.  1.
<mgrwt>
<rscale>  0 0.78172609E+02</rscale>
<asrwt>0</asrwt>
<pdfrwt beam="1">  1        2 0.25251432E+00 0.78172609E+02</pdfrwt>
<pdfrwt beam="2">  1       -2 0.14319785E-03 0.78172609E+02</pdfrwt>
<totfact> 0.33904042E+05</totfact>
</mgrwt>
</event>
<event>
 5    1  0.3858846E+001  0.9606473E+02  0.7546771E-02  0.1288796E+00
          1   -1    0    0  501    0  0.00000000000E+00  0.00000000000E+00  0.16378607130E+01  0.16378607130E+01  0.00000000000E+00 0. -1.
         -1   -1    0    0    0  501 -0.00000000000E+00 -0.00000000000E+00 -0.14086106878E+04  0.14086106878E+04  0.00000000000E+00 0.  1.
         23    2    1    2    0    0  0.00000000000E+00  0.00000000000E+00 -0.14069728271E+04  0.14102485485E+04  0.96064730373E+02 0.  0.
          2    1    3    3  502    0 -0.45412835699E+02  0.53914914830E+01 -0.48787530127E+03  0.49001398288E+03  0.00000000000E+00 0. -1.
         -2    1    3    3    0  502  0.45412835699E+02 -0.53914914830E+01 -0.91909752580E+03  0.92023456561E+03  0.00000000000E+00 0.  1.
<mgrwt>
<rscale>  0 0.96064730E+02</rscale>
<asrwt>0</asrwt>
<pdfrwt beam="1">  1        1 0.25197670E-03 0.96064730E+02</pdfrwt>
<pdfrwt beam="2">  1       -1 0.21671095E+00 0.96064730E+02</pdfrwt>
<totfact> 0.13499168E+04</totfact>
</mgrwt>
</event>
<event>
 5    1  0.3858846E+001  0.8851712E+02  0.7546771E-02  0.1306483E+00
          3   -1    0    0  501    0  0.00000000000E+00  0.00000000000E+00  0.14156630417E+03  0.14156630417E+03  0.00000000000E+00 0. -1.
         -3   -1    0    0    0  501 -0.00000000000E+00 -0.00000000000E+00 -0.13836768172E+02  0.13836768172E+02  0.00000000000E+00 0.  1.
         23    2    1    2    0    0  0.00000000000E+00  0.00000000000E+00  0.12772953600E+03  0.15540307234E+03  0.88517119964E+02 0.  0.
          2    1    3    3  502    0  0.50954188119E+01 -0.25382557061E+02  0.12688622840E+03  0.12950039558E+03  0.00000000000E+00 0. -1.
         -2    1    3    3    0  502 -0.50954188119E+01  0.25382557061E+02  0.84330759257E+00  0.25902676763E+02  0.00000000000E+00 0.  1.
<mgrwt>
<rscale>  0 0.88517120E+02</rscale>
<asrwt>0</asrwt>
<pdfrwt beam="1">  1        3 0.21779430E-01 0.88517120E+02</pdfrwt>
<pdfrwt beam="2">  1       -3 0.21287337E-02 0.88517120E+02</pdfrwt>
<totfact> 0.33556059E+04</totfact>
</mgrwt>
</event>
<event>
 5    1  0.3858846E+001  0.9184146E+02  0.7546771E-02  0.1298453E+00
         -4   -1    0    0    0  501 -0.00000000000E+00  0.00000000000E+00  0.33111594600E+02  0.33111594600E+02  0.00000000000E+00 0.  1.
          4   -1    0    0  501    0  0.00000000000E+00 -0.00000000000E+00 -0.63685051166E+02  0.63685051166E+02  0.00000000000E+00 0. -1.
         23    2    1    2    0    0  0.00000000000E+00  0.00000000000E+00 -0.30573456567E+02  0.96796645766E+02  0.91841463322E+02 0.  0.
          2    1    3    3  502    0  0.25541387497E+02  0.32528270381E+01 -0.55361508895E+02  0.61056040046E+02  0.00000000000E+00 0. -1.
         -2    1    3    3    0  502 -0.25541387497E+02 -0.32528270381E+01  0.24788052328E+02  0.35740605720E+02  0.00000000000E+00 0.  1.
<mgrwt>
<rscale>  0 0.91841463E+02</rscale>
<asrwt>0</asrwt>
<pdfrwt beam="2">  1        4 0.97977000E-02 0.91841463E+02</pdfrwt>
<pdfrwt beam="1">  1       -4 0.50940915E-02 0.91841463E+02</pdfrwt>
<totfact> 0.26136975E+04</totfact>
</mgrwt>
</event>
<event>
 5    1  0.3858846E+001  0.9096536E+02  0.7546771E-02  0.1300531E+00
          2   -1    0    0  501    0  0.00000000000E+00  0.00000000000E+00  0.66760638086E+03  0.66760638086E+03  0.00000000000E+00 0. -1.
         -2   -1    0    0    0  501 -0.00000000000E+00 -0.00000000000E+00 -0.30986432882E+01  0.30986432882E+01  0.00000000000E+00 0.  1.
         23    2    1    2    0    0  0.00000000000E+00  0.00000000000E+00  0.66450773757E+03  0.67070502415E+03  0.90965356730E+02 0.  0.
          2    1    3    3  502    0 -0.27232046165E+02  0.33781229898E+02  0.43278868423E+03  0.43495839000E+03  0.00000000000E+00 0. -1.
         -2    1    3    3    0  502  0.27232046165E+02 -0.33781229898E+02  0.23171905335E+03  0.23574663415E+03  0.00000000000E+00 0.  1.
<mgrwt>
<rscale>  0 0.90965357E+02</rscale>
<asrwt>0</asrwt>
<pdfrwt beam="1">  1        2 0.10270856E+00 0.90965357E+02</pdfrwt>
<pdfrwt beam="2">  1       -2 0.47671488E-03 0.90965357E+02</pdfrwt>
<totfact> 0.23588523E+05</totfact>
</mgrwt>
</event>
<event>
 5    1  0.3858846E+001  0.9371505E+02  0.7546771E-02  0.1294097E+00
         -2   -1    0    0    0  501 -0.00000000000E+00  0.00000000000E+00  0.14323245197E+02  0.14323245197E+02  0.00000000000E+00 0.  1.
          2   -1    0    0  501    0  0.00000000000E+00 -0.00000000000E+00 -0.15329122538E+03  0.15329122538E+03  0.00000000000E+00 0. -1.
         23    2    1    2    0    0  0.00000000000E+00  0.00000000000E+00 -0.13896798018E+03  0.16761447058E+03  0.93715053383E+02 0.  0.
          2    1    3    3  502    0 -0.66581912109E+01  0.40034487949E+02 -0.27594531342E+02  0.49076979283E+02  0.00000000000E+00 0.  1.
         -2    1    3    3    0  502  0.66581912109E+01 -0.40034487949E+02 -0.11137344884E+03  0.11853749129E+03  0.00000000000E+00 0. -1.
<mgrwt>
<rscale>  0 0.93715053E+02</rscale>
<asrwt>0</asrwt>
<pdfrwt beam="2">  1        2 0.23583267E-01 0.93715053E+02</pdfrwt>
<pdfrwt beam="1">  1       -2 0.22035760E-02 0.93715053E+02</pdfrwt>
<totfact> 0.13071450E+05</totfact>
</mgrwt>
</event>
<event>
 5    1  0.3858846E+001  0.1233822E+03  0.7546771E-02  0.1237619E+00
          1   -1    0    0  501    0  0.00000000000E+00  0.00000000000E+00  0.91237672886E+01  0.91237672886E+01  0.00000000000E+00 0. -1.
         -1   -1    0    0    0  501 -0.00000000000E+00 -0.00000000000E+00 -0.41712962899E+03  0.41712962899E+03  0.00000000000E+00 0.  1.
         23    2    1    2    0    0  0.00000000000E+00  0.00000000000E+00 -0.40800586170E+03  0.42625339628E+03  0.12338222990E+03 0.  0.
          2    1    3    3  502    0 -0.32392281292E+02  0.19589306721E+02 -0.35718030925E+02  0.52045927394E+02  0.00000000000E+00 0. -1.
         -2    1    3    3    0  502  0.32392281292E+02 -0.19589306721E+02 -0.37228783078E+03  0.37420746889E+03  0.00000000000E+00 0.  1.
<mgrwt>
<rscale>  0 0.12338223E+03</rscale>
<asrwt>0</asrwt>
<pdfrwt beam="1">  1        1 0.14036570E-02 0.12338223E+03</pdfrwt>
<pdfrwt beam="2">  1       -1 0.64173768E-01 0.12338223E+03</pdfrwt>
<totfact> 0.23405672E+04</totfact>
</mgrwt>
</event>
<event>
 5    1  0.3858846E+001  0.9078917E+02  0.7546771E-02  0.1300952E+00
         -4   -1    0    0    0  501 -0.00000000000E+00  0.00000000000E+00  0.24010529354E+03  0.24010529354E+03  0.00000000000E+00 0.  1.
          4   -1    0    0  501    0  0.00000000000E+00 -0.00000000000E+00 -0.85823525070E+01  0.85823525070E+01  0.00000000000E+00 0. -1.
         23    2    1    2    0    0  0.00000000000E+00  0.00000000000E+00  0.23152294103E+03  0.24868764605E+03  0.90789168252E+02 0.  0.
          2    1    3    3  502    0 -0.24225553425E+02 -0.10073877863E+02  0.14289535491E+02  0.29875596705E+02  0.00000000000E+00 0. -1.
         -2    1    3    3    0  502  0.24225553425E+02  0.10073877863E+02  0.21723340554E+03  0.21881204934E+03  0.00000000000E+00 0.  1.
<mgrwt>
<rscale>  0 0.90789168E+02</rscale>
<asrwt>0</asrwt>
<pdfrwt beam="2">  1        4 0.13203621E-02 0.90789168E+02</pdfrwt>
<pdfrwt beam="1">  1       -4 0.36939271E-01 0.90789168E+02</pdfrwt>
<totfact> 0.19733035E+04</totfact>
</mgrwt>
</event>
<event>
 5    1  0.3858846E+001  0.9235784E+02  0.7546771E-02  0.1297240E+00
          2   -1    0    0  501    0  0.00000000000E+00  0.00000000000E+00  0.14246089374E+02  0.14246089374E+02  0.00000000000E+00 0. -1.
         -2   -1    0    0    0  501 -0.00000000000E+00 -0.00000000000E+00 -0.14968967578E+03  0.14968967578E+03  0.00000000000E+00 0.  1.
         23    2    1    2    0    0  0.00000000000E+00  0.00000000000E+00 -0.13544358641E+03  0.16393576515E+03  0.92357836689E+02 0.  0.
          2    1    3    3  502    0  0.88979493828E+01 -0.45280126331E+02 -0.64632488399E+02  0.79415501638E+02  0.00000000000E+00 0. -1.
         -2    1    3    3    0  502 -0.88979493828E+01  0.45280126331E+02 -0.70811098009E+02  0.84520263517E+02  0.00000000000E+00 0.  1.
<mgrwt>
<rscale>  0 0.92357837E+02</rscale>
<asrwt>0</asrwt>
<pdfrwt beam="1">  1        2 0.21917061E-02 0.92357837E+02</pdfrwt>
<pdfrwt beam="2">  1       -2 0.23029181E-01 0.92357837E+02</pdfrwt>
<totfact> 0.67666116E+04</totfact>
</mgrwt>
</event>
<event>
 5    1  0.3858846E+001  0.9177120E+02  0.7546771E-02  0.1298618E+00
          1   -1    0    0  501    0  0.00000000000E+00  0.00000000000E+00  0.11402716341E+03  0.11402716341E+03  0.00000000000E+00 0. -1.
         -1   -1    0    0    0  501 -0.00000000000E+00 -0.00000000000E+00 -0.18464795283E+02  0.18464795283E+02  0.00000000000E+00 0.  1.
         23    2    1    2    0    0  0.00000000000E+00  0.00000000000E+00  0.95562368131E+02  0.13249195870E+03  0.91771198732E+02 0.  0.
          2    1    3    3  502    0  0.15307108559E+02  0.38951121415E+02  0.20618098489E+02  0.46654082535E+02  0.00000000000E+00 0. -1.
         -2    1    3    3    0  502 -0.15307108559E+02 -0.38951121415E+02  0.74944269642E+02  0.85837876163E+02  0.00000000000E+00 0.  1.
<mgrwt>
<rscale>  0 0.91771199E+02</rscale>
<asrwt>0</asrwt>
<pdfrwt beam="1">  1        1 0.17542640E-01 0.91771199E+02</pdfrwt>
<pdfrwt beam="2">  1       -1 0.28407378E-02 0.91771199E+02</pdfrwt>
<totfact> 0.10492302E+05</totfact>
</mgrwt>
</event>
<event>
 5    1  0.3858846E+001  0.9385401E+02  0.7546771E-02  0.1293778E+00
         -1   -1    0    0    0  501 -0.00000000000E+00  0.00000000000E+00  0.22876236933E+01  0.22876236933E+01  0.00000000000E+00 0.  1.
          1   -1    0    0  501    0  0.00000000000E+00 -0.00000000000E+00 -0.96263366253E+03  0.96263366253E+03  0.00000000000E+00 0. -1.
         23    2    1    2    0    0  0.00000000000E+00  0.00000000000E+00 -0.96034603884E+03  0.96492128622E+03  0.93854005228E+02 0.  0.
          2    1    3    3  502    0  0.42015800614E+02  0.17267005494E+02 -0.35910623683E+03  0.36196790785E+03  0.00000000000E+00 0.  1.
         -2    1    3    3    0  502 -0.42015800614E+02 -0.17267005494E+02 -0.60123980200E+03  0.60295337837E+03  0.00000000000E+00 0. -1.
<mgrwt>
<rscale>  0 0.93854005E+02</rscale>
<asrwt>0</asrwt>
<pdfrwt beam="2">  1        1 0.14809796E+00 0.93854005E+02</pdfrwt>
<pdfrwt beam="1">  1       -1 0.35194098E-03 0.93854005E+02</pdfrwt>
<totfact> 0.12717991E+05</totfact>
</mgrwt>
</event>
<event>
 5    1  0.3858846E+001  0.9247687E+02  0.7546771E-02  0.1296962E+00
          1   -1    0    0  501    0  0.00000000000E+00  0.00000000000E+00  0.31686916892E+02  0.31686916892E+02  0.00000000000E+00 0. -1.
         -1   -1    0    0    0  501 -0.00000000000E+00 -0.00000000000E+00 -0.67472417553E+02  0.67472417553E+02  0.00000000000E+00 0.  1.
         23    2    1    2    0    0  0.00000000000E+00  0.00000000000E+00 -0.35785500661E+02  0.99159334445E+02  0.92476870352E+02 0.  0.
          2    1    3    3  502    0  0.10325366451E+02  0.42801984801E+02 -0.27526010401E+01  0.44115755777E+02  0.00000000000E+00 0. -1.
         -2    1    3    3    0  502 -0.10325366451E+02 -0.42801984801E+02 -0.33032899621E+02  0.55043578668E+02  0.00000000000E+00 0.  1.
<mgrwt>
<rscale>  0 0.92476870E+02</rscale>
<asrwt>0</asrwt>
<pdfrwt beam="1">  1        1 0.48749103E-02 0.92476870E+02</pdfrwt>
<pdfrwt beam="2">  1       -1 0.10380372E-01 0.92476870E+02</pdfrwt>
<totfact> 0.83967362E+04</totfact>
</mgrwt>
</event>
<event>
 5    1  0.3858846E+001  0.9133349E+02  0.7546771E-02  0.1299654E+00
          1   -1    0    0  501    0  0.00000000000E+00  0.00000000000E+00  0.23943073257E+03  0.23943073257E+03  0.00000000000E+00 0. -1.
         -1   -1    0    0    0  501 -0.00000000000E+00 -0.00000000000E+00 -0.87100411824E+01  0.87100411824E+01  0.00000000000E+00 0.  1.
         23    2    1    2    0    0  0.00000000000E+00  0.00000000000E+00  0.23072069139E+03  0.24814077375E+03  0.91333488732E+02 0.  0.
          2    1    3    3  502    0 -0.22750099178E+02 -0.39161678288E+02  0.13125980694E+03  0.13885366750E+03  0.00000000000E+00 0. -1.
         -2    1    3    3    0  502  0.22750099178E+02  0.39161678288E+02  0.99460884441E+02  0.10928710625E+03  0.00000000000E+00 0.  1.
<mgrwt>
<rscale>  0 0.91333489E+02</rscale>
<asrwt>0</asrwt>
<pdfrwt beam="1">  1        1 0.36835492E-01 0.91333489E+02</pdfrwt>
<pdfrwt beam="2">  1       -1 0.13400065E-02 0.91333489E+02</pdfrwt>
<totfact> 0.12207107E+05</totfact>
</mgrwt>
</event>
<event>
 5    1  0.3858846E+001  0.9186405E+02  0.7546771E-02  0.1298399E+00
         -2   -1    0    0    0  501 -0.00000000000E+00  0.00000000000E+00  0.93552723815E+02  0.93552723815E+02  0.00000000000E+00 0. -1.
          2   -1    0    0  501    0  0.00000000000E+00 -0.00000000000E+00 -0.22551464284E+02  0.22551464284E+02  0.00000000000E+00 0.  1.
         23    2    1    2    0    0  0.00000000000E+00  0.00000000000E+00  0.71001259531E+02  0.11610418810E+03  0.91864049765E+02 0.  0.
          2    1    3    3  502    0 -0.36693986917E+02  0.19228782721E+02  0.60573592195E+02  0.73384976884E+02  0.00000000000E+00 0. -1.
         -2    1    3    3    0  502  0.36693986917E+02 -0.19228782721E+02  0.10427667335E+02  0.42719211215E+02  0.00000000000E+00 0.  1.
<mgrwt>
<rscale>  0 0.91864050E+02</rscale>
<asrwt>0</asrwt>
<pdfrwt beam="2">  1        2 0.34694561E-02 0.91864050E+02</pdfrwt>
<pdfrwt beam="1">  1       -2 0.14392727E-01 0.91864050E+02</pdfrwt>
<totfact> 0.79885940E+04</totfact>
</mgrwt>
</event>
<event>
 5    1  0.3858846E+001  0.9283048E+02  0.7546771E-02  0.1296139E+00
         -4   -1    0    0    0  501 -0.00000000000E+00  0.00000000000E+00  0.41373673998E+02  0.41373673998E+02  0.00000000000E+00 0.  1.
          4   -1    0    0  501    0  0.00000000000E+00 -0.00000000000E+00 -0.52071138075E+02  0.52071138075E+02  0.00000000000E+00 0. -1.
         23    2    1    2    0    0  0.00000000000E+00  0.00000000000E+00 -0.10697464077E+02  0.93444812073E+02  0.92830475414E+02 0.  0.
          2    1    3    3  502    0 -0.34027425709E+02 -0.61708485363E+01 -0.36512118328E+02  0.50289957813E+02  0.00000000000E+00 0. -1.
         -2    1    3    3    0  502  0.34027425709E+02  0.61708485363E+01  0.25814654251E+02  0.43154854260E+02  0.00000000000E+00 0.  1.
<mgrwt>
<rscale>  0 0.92830475E+02</rscale>
<asrwt>0</asrwt>
<pdfrwt beam="2">  1        4 0.80109443E-02 0.92830475E+02</pdfrwt>
<pdfrwt beam="1">  1       -4 0.63651807E-02 0.92830475E+02</pdfrwt>
<totfact> 0.25587915E+04</totfact>
</mgrwt>
</event>
<event>
 5    1  0.3858846E+001  0.9208546E+02  0.7546771E-02  0.1297879E+00
          1   -1    0    0  501    0  0.00000000000E+00  0.00000000000E+00  0.37348040459E+03  0.37348040459E+03  0.00000000000E+00 0. -1.
         -1   -1    0    0    0  501 -0.00000000000E+00 -0.00000000000E+00 -0.56761560668E+01  0.56761560668E+01  0.00000000000E+00 0.  1.
         23    2    1    2    0    0  0.00000000000E+00  0.00000000000E+00  0.36780424852E+03  0.37915656065E+03  0.92085461704E+02 0.  0.
          2    1    3    3  502    0  0.39765682513E+02 -0.18716830523E+02  0.24040324510E+03  0.24438770326E+03  0.00000000000E+00 0. -1.
         -2    1    3    3    0  502 -0.39765682513E+02  0.18716830523E+02  0.12740100342E+03  0.13476885739E+03  0.00000000000E+00 0.  1.
<mgrwt>
<rscale>  0 0.92085462E+02</rscale>
<asrwt>0</asrwt>
<pdfrwt beam="1">  1        1 0.57458505E-01 0.92085462E+02</pdfrwt>
<pdfrwt beam="2">  1       -1 0.87325507E-03 0.92085462E+02</pdfrwt>
<totfact> 0.12986954E+05</totfact>
</mgrwt>
</event>
<event>
 5    1  0.3858846E+001  0.9021714E+02  0.7546771E-02  0.1302327E+00
          2   -1    0    0  501    0  0.00000000000E+00  0.00000000000E+00  0.10777139919E+03  0.10777139919E+03  0.00000000000E+00 0. -1.
         -2   -1    0    0    0  501 -0.00000000000E+00 -0.00000000000E+00 -0.18880548923E+02  0.18880548923E+02  0.00000000000E+00 0.  1.
         23    2    1    2    0    0  0.00000000000E+00  0.00000000000E+00  0.88890850268E+02  0.12665194812E+03  0.90217141941E+02 0.  0.
          2    1    3    3  502    0  0.77053476506E+01 -0.44296781077E+02  0.49547045150E+02  0.66906553336E+02  0.00000000000E+00 0. -1.
         -2    1    3    3    0  502 -0.77053476506E+01  0.44296781077E+02  0.39343805119E+02  0.59745394780E+02  0.00000000000E+00 0.  1.
<mgrwt>
<rscale>  0 0.90217142E+02</rscale>
<asrwt>0</asrwt>
<pdfrwt beam="1">  1        2 0.16580215E-01 0.90217142E+02</pdfrwt>
<pdfrwt beam="2">  1       -2 0.29046999E-02 0.90217142E+02</pdfrwt>
<totfact> 0.12922868E+05</totfact>
</mgrwt>
</event>
<event>
 5    1  0.3858846E+001  0.9548568E+02  0.7546771E-02  0.1290086E+00
          1   -1    0    0  501    0  0.00000000000E+00  0.00000000000E+00  0.10108821431E+02  0.10108821431E+02  0.00000000000E+00 0. -1.
         -1   -1    0    0    0  501 -0.00000000000E+00 -0.00000000000E+00 -0.22548412900E+03  0.22548412900E+03  0.00000000000E+00 0.  1.
         23    2    1    2    0    0  0.00000000000E+00  0.00000000000E+00 -0.21537530757E+03  0.23559295043E+03  0.95485680510E+02 0.  0.
          2    1    3    3  502    0  0.11324320229E+02  0.19692595674E+02 -0.40799370552E+01  0.23079957526E+02  0.00000000000E+00 0. -1.
         -2    1    3    3    0  502 -0.11324320229E+02 -0.19692595674E+02 -0.21129537051E+03  0.21251299290E+03  0.00000000000E+00 0.  1.
<mgrwt>
<rscale>  0 0.95485681E+02</rscale>
<asrwt>0</asrwt>
<pdfrwt beam="1">  1        1 0.15552033E-02 0.95485681E+02</pdfrwt>
<pdfrwt beam="2">  1       -1 0.34689865E-01 0.95485681E+02</pdfrwt>
<totfact> 0.59361884E+04</totfact>
</mgrwt>
</event>
<event>
 5    1  0.3858846E+001  0.9112010E+02  0.7546771E-02  0.1300162E+00
         -4   -1    0    0    0  501 -0.00000000000E+00  0.00000000000E+00  0.10494854157E+04  0.10494854157E+04  0.00000000000E+00 0.  1.
          4   -1    0    0  501    0  0.00000000000E+00 -0.00000000000E+00 -0.19778437521E+01  0.19778437521E+01  0.00000000000E+00 0. -1.
         23    2    1    2    0    0  0.00000000000E+00  0.00000000000E+00  0.10475075719E+04  0.10514632594E+04  0.91120100358E+02 0.  0.
          2    1    3    3  502    0  0.42975139853E+02  0.14256113177E+01  0.69754331656E+03  0.69886735043E+03  0.00000000000E+00 0.  1.
         -2    1    3    3    0  502 -0.42975139853E+02 -0.14256113177E+01  0.34996425534E+03  0.35259590898E+03  0.00000000000E+00 0. -1.
<mgrwt>
<rscale>  0 0.91120100E+02</rscale>
<asrwt>0</asrwt>
<pdfrwt beam="2">  1        4 0.30428449E-03 0.91120100E+02</pdfrwt>
<pdfrwt beam="1">  1       -4 0.16145885E+00 0.91120100E+02</pdfrwt>
<totfact> 0.67434432E+03</totfact>
</mgrwt>
</event>
<event>
 5    1  0.3858846E+001  0.8958049E+02  0.7546771E-02  0.1303871E+00
          2   -1    0    0  501    0  0.00000000000E+00  0.00000000000E+00  0.15512848122E+04  0.15512848122E+04  0.00000000000E+00 0.  1.
         -2   -1    0    0    0  501 -0.00000000000E+00 -0.00000000000E+00 -0.12932285981E+01  0.12932285981E+01  0.00000000000E+00 0. -1.
         23    2    1    2    0    0  0.00000000000E+00  0.00000000000E+00  0.15499915836E+04  0.15525780408E+04  0.89580486333E+02 0.  0.
          2    1    3    3  502    0  0.20714684406E+02 -0.37329665108E+02  0.10098149817E+04  0.10107170224E+04  0.00000000000E+00 0.  1.
         -2    1    3    3    0  502 -0.20714684406E+02  0.37329665108E+02  0.54017660184E+03  0.54186101837E+03  0.00000000000E+00 0. -1.
<mgrwt>
<rscale>  0 0.89580486E+02</rscale>
<asrwt>0</asrwt>
<pdfrwt beam="1">  1        2 0.23865771E+00 0.89580486E+02</pdfrwt>
<pdfrwt beam="2">  1       -2 0.19895949E-03 0.89580486E+02</pdfrwt>
<totfact> 0.24387446E+05</totfact>
</mgrwt>
</event>
<event>
 5    1  0.3858846E+001  0.8748771E+02  0.7546771E-02  0.1309052E+00
          1   -1    0    0  501    0  0.00000000000E+00  0.00000000000E+00  0.48306712750E+03  0.48306712750E+03  0.00000000000E+00 0. -1.
         -1   -1    0    0    0  501 -0.00000000000E+00 -0.00000000000E+00 -0.39611988917E+01  0.39611988917E+01  0.00000000000E+00 0.  1.
         23    2    1    2    0    0  0.00000000000E+00  0.00000000000E+00  0.47910592860E+03  0.48702832639E+03  0.87487712738E+02 0.  0.
          2    1    3    3  502    0 -0.26186123792E+02 -0.18375343498E+02  0.40564196227E+03  0.40690142280E+03  0.00000000000E+00 0. -1.
         -2    1    3    3    0  502  0.26186123792E+02  0.18375343498E+02  0.73463966339E+02  0.80126903585E+02  0.00000000000E+00 0.  1.
<mgrwt>
<rscale>  0 0.87487713E+02</rscale>
<asrwt>0</asrwt>
<pdfrwt beam="1">  1        1 0.74317973E-01 0.87487713E+02</pdfrwt>
<pdfrwt beam="2">  1       -1 0.60941560E-03 0.87487713E+02</pdfrwt>
<totfact> 0.15468326E+05</totfact>
</mgrwt>
</event>
<event>
 5    1  0.3858846E+001  0.9055819E+02  0.7546771E-02  0.1301506E+00
          2   -1    0    0  501    0  0.00000000000E+00  0.00000000000E+00  0.11104969638E+02  0.11104969638E+02  0.00000000000E+00 0. -1.
         -2   -1    0    0    0  501 -0.00000000000E+00 -0.00000000000E+00 -0.18461970537E+03  0.18461970537E+03  0.00000000000E+00 0.  1.
         23    2    1    2    0    0  0.00000000000E+00  0.00000000000E+00 -0.17351473573E+03  0.19572467500E+03  0.90558185112E+02 0.  0.
          2    1    3    3  502    0  0.42737855731E+02 -0.74572295277E+00 -0.54473687352E+02  0.69242061125E+02  0.00000000000E+00 0. -1.
         -2    1    3    3    0  502 -0.42737855731E+02  0.74572295277E+00 -0.11904104838E+03  0.12648261388E+03  0.00000000000E+00 0.  1.
<mgrwt>
<rscale>  0 0.90558185E+02</rscale>
<asrwt>0</asrwt>
<pdfrwt beam="1">  1        2 0.17084567E-02 0.90558185E+02</pdfrwt>
<pdfrwt beam="2">  1       -2 0.28403034E-01 0.90558185E+02</pdfrwt>
<totfact> 0.65589314E+04</totfact>
</mgrwt>
</event>
<event>
 5    1  0.3858846E+001  0.9043504E+02  0.7546771E-02  0.1301802E+00
         -3   -1    0    0    0  501 -0.00000000000E+00  0.00000000000E+00  0.97327786671E+01  0.97327786671E+01  0.00000000000E+00 0.  1.
          3   -1    0    0  501    0  0.00000000000E+00 -0.00000000000E+00 -0.21007611430E+03  0.21007611430E+03  0.00000000000E+00 0. -1.
         23    2    1    2    0    0  0.00000000000E+00  0.00000000000E+00 -0.20034333563E+03  0.21980889296E+03  0.90435044616E+02 0.  0.
          2    1    3    3  502    0 -0.24867922353E+02 -0.14820821310E+02 -0.18459877072E+03  0.18685496102E+03  0.00000000000E+00 0. -1.
         -2    1    3    3    0  502  0.24867922353E+02  0.14820821310E+02 -0.15744564912E+02  0.32953931946E+02  0.00000000000E+00 0.  1.
<mgrwt>
<rscale>  0 0.90435045E+02</rscale>
<asrwt>0</asrwt>
<pdfrwt beam="2">  1        3 0.32319400E-01 0.90435045E+02</pdfrwt>
<pdfrwt beam="1">  1       -3 0.14973507E-02 0.90435045E+02</pdfrwt>
<totfact> 0.28117189E+04</totfact>
</mgrwt>
</event>
<event>
 5    1  0.3858846E+001  0.9140157E+02  0.7546771E-02  0.1299493E+00
         -4   -1    0    0    0  501 -0.00000000000E+00  0.00000000000E+00  0.34912509470E+03  0.34912509470E+03  0.00000000000E+00 0.  1.
          4   -1    0    0  501    0  0.00000000000E+00 -0.00000000000E+00 -0.59822734125E+01  0.59822734125E+01  0.00000000000E+00 0. -1.
         23    2    1    2    0    0  0.00000000000E+00  0.00000000000E+00  0.34314282129E+03  0.35510736811E+03  0.91401570482E+02 0.  0.
          2    1    3    3  502    0 -0.35297231121E+02 -0.63369248101E+01  0.61510925536E+02  0.71201440303E+02  0.00000000000E+00 0. -1.
         -2    1    3    3    0  502  0.35297231121E+02  0.63369248101E+01  0.28163189575E+03  0.28390592781E+03  0.00000000000E+00 0.  1.
<mgrwt>
<rscale>  0 0.91401570E+02</rscale>
<asrwt>0</asrwt>
<pdfrwt beam="2">  1        4 0.92035003E-03 0.91401570E+02</pdfrwt>
<pdfrwt beam="1">  1       -4 0.53711537E-01 0.91401570E+02</pdfrwt>
<totfact> 0.16155734E+04</totfact>
</mgrwt>
</event>
<event>
 5    1  0.3858846E+001  0.9072053E+02  0.7546771E-02  0.1301116E+00
          2   -1    0    0  501    0  0.00000000000E+00  0.00000000000E+00  0.20729383469E+03  0.20729383469E+03  0.00000000000E+00 0. -1.
         -2   -1    0    0    0  501 -0.00000000000E+00 -0.00000000000E+00 -0.99257836670E+01  0.99257836670E+01  0.00000000000E+00 0.  1.
         23    2    1    2    0    0  0.00000000000E+00  0.00000000000E+00  0.19736805102E+03  0.21721961836E+03  0.90720532597E+02 0.  0.
          2    1    3    3  502    0 -0.36813893911E+02 -0.31091117213E+00  0.16213263482E+03  0.16625988910E+03  0.00000000000E+00 0. -1.
         -2    1    3    3    0  502  0.36813893911E+02  0.31091117213E+00  0.35235416201E+02  0.50959729253E+02  0.00000000000E+00 0.  1.
<mgrwt>
<rscale>  0 0.90720533E+02</rscale>
<asrwt>0</asrwt>
<pdfrwt beam="1">  1        2 0.31891356E-01 0.90720533E+02</pdfrwt>
<pdfrwt beam="2">  1       -2 0.15270438E-02 0.90720533E+02</pdfrwt>
<totfact> 0.15882949E+05</totfact>
</mgrwt>
</event>
<event>
 5    1  0.3858846E+001  0.9365139E+02  0.7546771E-02  0.1294243E+00
          2   -1    0    0  501    0  0.00000000000E+00  0.00000000000E+00  0.42281459057E+03  0.42281459057E+03  0.00000000000E+00 0. -1.
         -2   -1    0    0    0  501 -0.00000000000E+00 -0.00000000000E+00 -0.51858331289E+01  0.51858331289E+01  0.00000000000E+00 0.  1.
         23    2    1    2    0    0  0.00000000000E+00  0.00000000000E+00  0.41762875744E+03  0.42800042370E+03  0.93651394248E+02 0.  0.
          2    1    3    3  502    0 -0.15310630126E+02  0.20350897892E+02  0.38839672897E+03  0.38923077154E+03  0.00000000000E+00 0. -1.
         -2    1    3    3    0  502  0.15310630126E+02 -0.20350897892E+02  0.29232028469E+02  0.38769652156E+02  0.00000000000E+00 0.  1.
<mgrwt>
<rscale>  0 0.93651394E+02</rscale>
<asrwt>0</asrwt>
<pdfrwt beam="1">  1        2 0.65048371E-01 0.93651394E+02</pdfrwt>
<pdfrwt beam="2">  1       -2 0.79782081E-03 0.93651394E+02</pdfrwt>
<totfact> 0.18960295E+05</totfact>
</mgrwt>
</event>
