<event>
 5    1  0.3957498E+001  0.9138189E+02  0.7546771E-02  0.1299539E+00
          4   -1    0    0  501    0  0.00000000000E+00  0.00000000000E+00  0.78946284137E+01  0.78946284137E+01  0.00000000000E+00 0.  1.
         -4   -1    0    0    0  501 -0.00000000000E+00 -0.00000000000E+00 -0.26444090252E+03  0.26444090252E+03  0.00000000000E+00 0. -1.
         23    2    1    2    0    0  0.00000000000E+00  0.00000000000E+00 -0.25654627411E+03  0.27233553094E+03  0.91381894548E+02 0.  0.
          2    1    3    3  502    0  0.37952017653E+02  0.11652281082E+02 -0.19567630090E+03  0.19966308130E+03  0.00000000000E+00 0. -1.
         -2    1    3    3    0  502 -0.37952017653E+02 -0.11652281082E+02 -0.60869973206E+02  0.72672449638E+02  0.00000000000E+00 0.  1.
<mgrwt>
<rscale>  0 0.91381895E+02</rscale>
<asrwt>0</asrwt>
<pdfrwt beam="1">  1        4 0.12145582E-02 0.91381895E+02</pdfrwt>
<pdfrwt beam="2">  1       -4 0.40683216E-01 0.91381895E+02</pdfrwt>
<totfact> 0.18587334E+04</totfact>
</mgrwt>
</event>
<event>
 5    1  0.3957498E+001  0.9022928E+02  0.7546771E-02  0.1302297E+00
          1   -1    0    0  501    0  0.00000000000E+00  0.00000000000E+00  0.18010642388E+04  0.18010642388E+04  0.00000000000E+00 0. -1.
         -1   -1    0    0    0  501 -0.00000000000E+00 -0.00000000000E+00 -0.11300710870E+01  0.11300710870E+01  0.00000000000E+00 0.  1.
         23    2    1    2    0    0  0.00000000000E+00  0.00000000000E+00  0.17999341677E+04  0.18021943099E+04  0.90229277337E+02 0.  0.
          2    1    3    3  502    0 -0.27666791114E+02 -0.27760115856E+02  0.45367882706E+03  0.45536859080E+03  0.00000000000E+00 0.  1.
         -2    1    3    3    0  502  0.27666791114E+02  0.27760115856E+02  0.13462553407E+04  0.13468257191E+04  0.00000000000E+00 0. -1.
<mgrwt>
<rscale>  0 0.90229277E+02</rscale>
<asrwt>0</asrwt>
<pdfrwt beam="1">  1        1 0.27708451E+00 0.90229277E+02</pdfrwt>
<pdfrwt beam="2">  1       -1 0.17385853E-03 0.90229277E+02</pdfrwt>
<totfact> 0.94495755E+04</totfact>
</mgrwt>
</event>
<event>
 5    1  0.3957498E+001  0.9364145E+02  0.7546771E-02  0.1294266E+00
          1   -1    0    0  501    0  0.00000000000E+00  0.00000000000E+00  0.88747957234E+03  0.88747957234E+03  0.00000000000E+00 0. -1.
         -1   -1    0    0    0  501 -0.00000000000E+00 -0.00000000000E+00 -0.24701189453E+01  0.24701189453E+01  0.00000000000E+00 0.  1.
         23    2    1    2    0    0  0.00000000000E+00  0.00000000000E+00  0.88500945340E+03  0.88994969129E+03  0.93641446063E+02 0.  0.
          2    1    3    3  502    0 -0.46011643135E+02  0.68299421324E+01  0.39180331283E+03  0.39455488257E+03  0.00000000000E+00 0.  1.
         -2    1    3    3    0  502  0.46011643135E+02 -0.68299421324E+01  0.49320614057E+03  0.49539480872E+03  0.00000000000E+00 0. -1.
<mgrwt>
<rscale>  0 0.93641446E+02</rscale>
<asrwt>0</asrwt>
<pdfrwt beam="1">  1        1 0.13653507E+00 0.93641446E+02</pdfrwt>
<pdfrwt beam="2">  1       -1 0.38001900E-03 0.93641446E+02</pdfrwt>
<totfact> 0.12999428E+05</totfact>
</mgrwt>
</event>
<event>
 5    1  0.3957498E+001  0.7488212E+02  0.7546771E-02  0.1344236E+00
          1   -1    0    0  501    0  0.00000000000E+00  0.00000000000E+00  0.18487567696E+01  0.18487567696E+01  0.00000000000E+00 0. -1.
         -1   -1    0    0    0  501 -0.00000000000E+00 -0.00000000000E+00 -0.75825711285E+03  0.75825711285E+03  0.00000000000E+00 0.  1.
         23    2    1    2    0    0  0.00000000000E+00  0.00000000000E+00 -0.75640835608E+03  0.76010586962E+03  0.74882119908E+02 0.  0.
          2    1    3    3  502    0  0.23131155042E+02  0.29439500752E+02 -0.38138885158E+03  0.38322211659E+03  0.00000000000E+00 0. -1.
         -2    1    3    3    0  502 -0.23131155042E+02 -0.29439500752E+02 -0.37501950450E+03  0.37688375302E+03  0.00000000000E+00 0.  1.
<mgrwt>
<rscale>  0 0.74882120E+02</rscale>
<asrwt>0</asrwt>
<pdfrwt beam="1">  1        1 0.28442412E-03 0.74882120E+02</pdfrwt>
<pdfrwt beam="2">  1       -1 0.11665494E+00 0.74882120E+02</pdfrwt>
<totfact> 0.57360098E+04</totfact>
</mgrwt>
</event>
<event>
 5    1  0.3957498E+001  0.8851575E+02  0.7546771E-02  0.1306486E+00
          2   -1    0    0  501    0  0.00000000000E+00  0.00000000000E+00  0.11063376967E+04  0.11063376967E+04  0.00000000000E+00 0. -1.
         -2   -1    0    0    0  501 -0.00000000000E+00 -0.00000000000E+00 -0.17704896743E+01  0.17704896743E+01  0.00000000000E+00 0.  1.
         23    2    1    2    0    0  0.00000000000E+00  0.00000000000E+00  0.11045672071E+04  0.11081081864E+04  0.88515749296E+02 0.  0.
          2    1    3    3  502    0  0.16406893804E+02 -0.34640419213E+02  0.82928937650E+03  0.83017468932E+03  0.00000000000E+00 0. -1.
         -2    1    3    3    0  502 -0.16406893804E+02  0.34640419213E+02  0.27527783057E+03  0.27793349710E+03  0.00000000000E+00 0.  1.
<mgrwt>
<rscale>  0 0.88515749E+02</rscale>
<asrwt>0</asrwt>
<pdfrwt beam="1">  1        2 0.17020525E+00 0.88515749E+02</pdfrwt>
<pdfrwt beam="2">  1       -2 0.27238391E-03 0.88515749E+02</pdfrwt>
<totfact> 0.27039934E+05</totfact>
</mgrwt>
</event>
<event>
 5    1  0.3957498E+001  0.9154850E+02  0.7546771E-02  0.1299145E+00
          2   -1    0    0  501    0  0.00000000000E+00  0.00000000000E+00  0.25935738728E+01  0.25935738728E+01  0.00000000000E+00 0.  1.
         -2   -1    0    0    0  501 -0.00000000000E+00 -0.00000000000E+00 -0.80787446468E+03  0.80787446468E+03  0.00000000000E+00 0. -1.
         23    2    1    2    0    0  0.00000000000E+00  0.00000000000E+00 -0.80528089081E+03  0.81046803855E+03  0.91548503081E+02 0.  0.
          2    1    3    3  502    0 -0.20506211431E+01 -0.32665851493E+02 -0.68593530596E+03  0.68671573949E+03  0.00000000000E+00 0. -1.
         -2    1    3    3    0  502  0.20506211431E+01  0.32665851493E+02 -0.11934558485E+03  0.12375229907E+03  0.00000000000E+00 0.  1.
<mgrwt>
<rscale>  0 0.91548503E+02</rscale>
<asrwt>0</asrwt>
<pdfrwt beam="1">  1        2 0.39901073E-03 0.91548503E+02</pdfrwt>
<pdfrwt beam="2">  1       -2 0.12428858E+00 0.91548503E+02</pdfrwt>
<totfact> 0.23357361E+04</totfact>
</mgrwt>
</event>
<event>
 5    1  0.3957498E+001  0.9177029E+02  0.7546771E-02  0.1298620E+00
         -3   -1    0    0    0  501 -0.00000000000E+00  0.00000000000E+00  0.33673418497E+03  0.33673418497E+03  0.00000000000E+00 0.  1.
          3   -1    0    0  501    0  0.00000000000E+00 -0.00000000000E+00 -0.62525476198E+01  0.62525476198E+01  0.00000000000E+00 0. -1.
         23    2    1    2    0    0  0.00000000000E+00  0.00000000000E+00  0.33048163735E+03  0.34298673259E+03  0.91770289893E+02 0.  0.
          2    1    3    3  502    0  0.56632199197E+01 -0.33052510192E+02  0.48186101200E+02  0.58706395211E+02  0.00000000000E+00 0. -1.
         -2    1    3    3    0  502 -0.56632199197E+01  0.33052510192E+02  0.28229553615E+03  0.28428033738E+03  0.00000000000E+00 0.  1.
<mgrwt>
<rscale>  0 0.91770290E+02</rscale>
<asrwt>0</asrwt>
<pdfrwt beam="2">  1        3 0.96193067E-03 0.91770290E+02</pdfrwt>
<pdfrwt beam="1">  1       -3 0.51805245E-01 0.91770290E+02</pdfrwt>
<totfact> 0.22059868E+04</totfact>
</mgrwt>
</event>
<event>
 5    1  0.3957498E+001  0.9011721E+02  0.7546771E-02  0.1302568E+00
         -1   -1    0    0    0  501 -0.00000000000E+00  0.00000000000E+00  0.72079011369E+02  0.72079011369E+02  0.00000000000E+00 0.  1.
          1   -1    0    0  501    0  0.00000000000E+00 -0.00000000000E+00 -0.28167396402E+02  0.28167396402E+02  0.00000000000E+00 0. -1.
         23    2    1    2    0    0  0.00000000000E+00  0.00000000000E+00  0.43911614967E+02  0.10024640777E+03  0.90117214460E+02 0.  0.
          2    1    3    3  502    0 -0.21142827070E+02  0.10387146080E+02 -0.20772035277E+02  0.31406836673E+02  0.00000000000E+00 0. -1.
         -2    1    3    3    0  502  0.21142827070E+02 -0.10387146080E+02  0.64683650244E+02  0.68839571099E+02  0.00000000000E+00 0.  1.
<mgrwt>
<rscale>  0 0.90117214E+02</rscale>
<asrwt>0</asrwt>
<pdfrwt beam="2">  1        1 0.43334457E-02 0.90117214E+02</pdfrwt>
<pdfrwt beam="1">  1       -1 0.11089079E-01 0.90117214E+02</pdfrwt>
<totfact> 0.88734331E+04</totfact>
</mgrwt>
</event>
<event>
 5    1  0.3957498E+001  0.9311671E+02  0.7546771E-02  0.1295475E+00
         -3   -1    0    0    0  501 -0.00000000000E+00  0.00000000000E+00  0.19076519723E+02  0.19076519723E+02  0.00000000000E+00 0.  1.
          3   -1    0    0  501    0  0.00000000000E+00 -0.00000000000E+00 -0.11363080144E+03  0.11363080144E+03  0.00000000000E+00 0. -1.
         23    2    1    2    0    0  0.00000000000E+00  0.00000000000E+00 -0.94554281717E+02  0.13270732116E+03  0.93116705802E+02 0.  0.
          2    1    3    3  502    0  0.16163807071E+01  0.32276893927E+02 -0.95042087036E+02  0.10038629825E+03  0.00000000000E+00 0. -1.
         -2    1    3    3    0  502 -0.16163807071E+01 -0.32276893927E+02  0.48780531927E+00  0.32321022914E+02  0.00000000000E+00 0.  1.
<mgrwt>
<rscale>  0 0.93116706E+02</rscale>
<asrwt>0</asrwt>
<pdfrwt beam="2">  1        3 0.17481662E-01 0.93116706E+02</pdfrwt>
<pdfrwt beam="1">  1       -3 0.29348492E-02 0.93116706E+02</pdfrwt>
<totfact> 0.30595705E+04</totfact>
</mgrwt>
</event>
<event>
 5    1  0.3957498E+001  0.9047924E+02  0.7546771E-02  0.1301695E+00
          2   -1    0    0  501    0  0.00000000000E+00  0.00000000000E+00  0.79668961197E+03  0.79668961197E+03  0.00000000000E+00 0. -1.
         -2   -1    0    0    0  501 -0.00000000000E+00 -0.00000000000E+00 -0.25689089942E+01  0.25689089942E+01  0.00000000000E+00 0.  1.
         23    2    1    2    0    0  0.00000000000E+00  0.00000000000E+00  0.79412070297E+03  0.79925852096E+03  0.90479237613E+02 0.  0.
          2    1    3    3  502    0 -0.17948822911E+02 -0.24358696852E+02  0.69415310573E+03  0.69481223403E+03  0.00000000000E+00 0. -1.
         -2    1    3    3    0  502  0.17948822911E+02  0.24358696852E+02  0.99967597240E+02  0.10444628693E+03  0.00000000000E+00 0.  1.
<mgrwt>
<rscale>  0 0.90479238E+02</rscale>
<asrwt>0</asrwt>
<pdfrwt beam="1">  1        2 0.12256744E+00 0.90479238E+02</pdfrwt>
<pdfrwt beam="2">  1       -2 0.39521740E-03 0.90479238E+02</pdfrwt>
<totfact> 0.24853868E+05</totfact>
</mgrwt>
</event>
<event>
 5    1  0.3957498E+001  0.7034180E+02  0.7546771E-02  0.1358935E+00
         -2   -1    0    0    0  501 -0.00000000000E+00  0.00000000000E+00  0.67496214399E+01  0.67496214399E+01  0.00000000000E+00 0. -1.
          2   -1    0    0  501    0  0.00000000000E+00 -0.00000000000E+00 -0.18326836333E+03  0.18326836333E+03  0.00000000000E+00 0.  1.
         23    2    1    2    0    0  0.00000000000E+00  0.00000000000E+00 -0.17651874189E+03  0.19001798477E+03  0.70341796234E+02 0.  0.
          2    1    3    3  502    0  0.20812137386E+02  0.10318614280E+02 -0.16922528256E+02  0.28740056120E+02  0.00000000000E+00 0. -1.
         -2    1    3    3    0  502 -0.20812137386E+02 -0.10318614280E+02 -0.15959621363E+03  0.16127792865E+03  0.00000000000E+00 0.  1.
<mgrwt>
<rscale>  0 0.70341796E+02</rscale>
<asrwt>0</asrwt>
<pdfrwt beam="2">  1        2 0.28195131E-01 0.70341796E+02</pdfrwt>
<pdfrwt beam="1">  1       -2 0.10384034E-02 0.70341796E+02</pdfrwt>
<totfact> 0.29851679E+05</totfact>
</mgrwt>
</event>
<event>
 5    1  0.3957498E+001  0.9200397E+02  0.7546771E-02  0.1298070E+00
          2   -1    0    0  501    0  0.00000000000E+00  0.00000000000E+00  0.34163149250E+01  0.34163149250E+01  0.00000000000E+00 0.  1.
         -2   -1    0    0    0  501 -0.00000000000E+00 -0.00000000000E+00 -0.61943427375E+03  0.61943427375E+03  0.00000000000E+00 0. -1.
         23    2    1    2    0    0  0.00000000000E+00  0.00000000000E+00 -0.61601795883E+03  0.62285058868E+03  0.92003968491E+02 0.  0.
          2    1    3    3  502    0 -0.32667001113E+02 -0.32243769647E+02 -0.28726534041E+03  0.29090921169E+03  0.00000000000E+00 0. -1.
         -2    1    3    3    0  502  0.32667001113E+02  0.32243769647E+02 -0.32875261841E+03  0.33194137699E+03  0.00000000000E+00 0.  1.
<mgrwt>
<rscale>  0 0.92003968E+02</rscale>
<asrwt>0</asrwt>
<pdfrwt beam="1">  1        2 0.52558653E-03 0.92003968E+02</pdfrwt>
<pdfrwt beam="2">  1       -2 0.95297650E-01 0.92003968E+02</pdfrwt>
<totfact> 0.29700689E+04</totfact>
</mgrwt>
</event>
<event>
 5    1  0.3957498E+001  0.8938473E+02  0.7546771E-02  0.1304349E+00
         -3   -1    0    0    0  501 -0.00000000000E+00  0.00000000000E+00  0.14223623222E+02  0.14223623222E+02  0.00000000000E+00 0.  1.
          3   -1    0    0  501    0  0.00000000000E+00 -0.00000000000E+00 -0.14042887994E+03  0.14042887994E+03  0.00000000000E+00 0. -1.
         23    2    1    2    0    0  0.00000000000E+00  0.00000000000E+00 -0.12620525672E+03  0.15465250316E+03  0.89384729744E+02 0.  0.
          2    1    3    3  502    0 -0.43708871819E+02  0.73754223153E+01 -0.53232183044E+02  0.69271405656E+02  0.00000000000E+00 0.  1.
         -2    1    3    3    0  502  0.43708871819E+02 -0.73754223153E+01 -0.72973073676E+02  0.85381097508E+02  0.00000000000E+00 0. -1.
<mgrwt>
<rscale>  0 0.89384730E+02</rscale>
<asrwt>0</asrwt>
<pdfrwt beam="2">  1        3 0.21604443E-01 0.89384730E+02</pdfrwt>
<pdfrwt beam="1">  1       -3 0.21882498E-02 0.89384730E+02</pdfrwt>
<totfact> 0.32733137E+04</totfact>
</mgrwt>
</event>
<event>
 5    1  0.3957498E+001  0.9128411E+02  0.7546771E-02  0.1299772E+00
         -1   -1    0    0    0  501 -0.00000000000E+00  0.00000000000E+00  0.22816748948E+03  0.22816748948E+03  0.00000000000E+00 0.  1.
          1   -1    0    0  501    0  0.00000000000E+00 -0.00000000000E+00 -0.91301220996E+01  0.91301220996E+01  0.00000000000E+00 0. -1.
         23    2    1    2    0    0  0.00000000000E+00  0.00000000000E+00  0.21903736738E+03  0.23729761158E+03  0.91284106791E+02 0.  0.
          2    1    3    3  502    0  0.30694799459E+02  0.33721997079E+02  0.11462151339E+03  0.12335896860E+03  0.00000000000E+00 0.  1.
         -2    1    3    3    0  502 -0.30694799459E+02 -0.33721997079E+02  0.10441585399E+03  0.11393864299E+03  0.00000000000E+00 0. -1.
<mgrwt>
<rscale>  0 0.91284107E+02</rscale>
<asrwt>0</asrwt>
<pdfrwt beam="2">  1        1 0.14046343E-02 0.91284107E+02</pdfrwt>
<pdfrwt beam="1">  1       -1 0.35102686E-01 0.91284107E+02</pdfrwt>
<totfact> 0.66525258E+04</totfact>
</mgrwt>
</event>
<event>
 5    1  0.3957498E+001  0.8364889E+02  0.7546771E-02  0.1319004E+00
         -2   -1    0    0    0  501 -0.00000000000E+00  0.00000000000E+00  0.60630335371E+01  0.60630335371E+01  0.00000000000E+00 0.  1.
          2   -1    0    0  501    0  0.00000000000E+00 -0.00000000000E+00 -0.28851630169E+03  0.28851630169E+03  0.00000000000E+00 0. -1.
         23    2    1    2    0    0  0.00000000000E+00  0.00000000000E+00 -0.28245326815E+03  0.29457933523E+03  0.83648885543E+02 0.  0.
          2    1    3    3  502    0 -0.37224233643E+01  0.33550887226E+02 -0.22818744050E+03  0.23067081842E+03  0.00000000000E+00 0. -1.
         -2    1    3    3    0  502  0.37224233643E+01 -0.33550887226E+02 -0.54265827650E+02  0.63908516802E+02  0.00000000000E+00 0.  1.
<mgrwt>
<rscale>  0 0.83648886E+02</rscale>
<asrwt>0</asrwt>
<pdfrwt beam="2">  1        2 0.44387121E-01 0.83648886E+02</pdfrwt>
<pdfrwt beam="1">  1       -2 0.93277445E-03 0.83648886E+02</pdfrwt>
<totfact> 0.22260774E+05</totfact>
</mgrwt>
</event>
<event>
 5    1  0.3957498E+001  0.8758128E+02  0.7546771E-02  0.1308817E+00
         -2   -1    0    0    0  501 -0.00000000000E+00  0.00000000000E+00  0.17936167785E+01  0.17936167785E+01  0.00000000000E+00 0.  1.
          2   -1    0    0  501    0  0.00000000000E+00 -0.00000000000E+00 -0.10691359547E+04  0.10691359547E+04  0.00000000000E+00 0. -1.
         23    2    1    2    0    0  0.00000000000E+00  0.00000000000E+00 -0.10673423380E+04  0.10709295715E+04  0.87581280807E+02 0.  0.
          2    1    3    3  502    0  0.40724412364E+01  0.42595166322E+02 -0.64751962491E+03  0.64893188981E+03  0.00000000000E+00 0. -1.
         -2    1    3    3    0  502 -0.40724412364E+01 -0.42595166322E+02 -0.41982271305E+03  0.42199768170E+03  0.00000000000E+00 0.  1.
<mgrwt>
<rscale>  0 0.87581281E+02</rscale>
<asrwt>0</asrwt>
<pdfrwt beam="2">  1        2 0.16448243E+00 0.87581281E+02</pdfrwt>
<pdfrwt beam="1">  1       -2 0.27594108E-03 0.87581281E+02</pdfrwt>
<totfact> 0.27823731E+05</totfact>
</mgrwt>
</event>
<event>
 5    1  0.3957498E+001  0.9111156E+02  0.7546771E-02  0.1300182E+00
         -1   -1    0    0    0  501 -0.00000000000E+00  0.00000000000E+00  0.11788758557E+01  0.11788758557E+01  0.00000000000E+00 0.  1.
          1   -1    0    0  501    0  0.00000000000E+00 -0.00000000000E+00 -0.17604307572E+04  0.17604307572E+04  0.00000000000E+00 0. -1.
         23    2    1    2    0    0  0.00000000000E+00  0.00000000000E+00 -0.17592518813E+04  0.17616096330E+04  0.91111564913E+02 0.  0.
          2    1    3    3  502    0 -0.35326480952E+02 -0.68867570566E+01 -0.14195929459E+04  0.14200491258E+04  0.00000000000E+00 0. -1.
         -2    1    3    3    0  502  0.35326480952E+02  0.68867570566E+01 -0.33965893544E+03  0.34156050724E+03  0.00000000000E+00 0.  1.
<mgrwt>
<rscale>  0 0.91111565E+02</rscale>
<asrwt>0</asrwt>
<pdfrwt beam="2">  1        1 0.27083524E+00 0.91111565E+02</pdfrwt>
<pdfrwt beam="1">  1       -1 0.18136569E-03 0.91111565E+02</pdfrwt>
<totfact> 0.94616393E+04</totfact>
</mgrwt>
</event>
<event>
 5    1  0.3957498E+001  0.9221177E+02  0.7546771E-02  0.1297582E+00
          1   -1    0    0  501    0  0.00000000000E+00  0.00000000000E+00  0.35063097525E+02  0.35063097525E+02  0.00000000000E+00 0. -1.
         -1   -1    0    0    0  501 -0.00000000000E+00 -0.00000000000E+00 -0.60626487087E+02  0.60626487087E+02  0.00000000000E+00 0.  1.
         23    2    1    2    0    0  0.00000000000E+00  0.00000000000E+00 -0.25563389562E+02  0.95689584612E+02  0.92211765612E+02 0.  0.
          2    1    3    3  502    0 -0.43501700008E+02 -0.12289857858E+01 -0.28582396484E+02  0.52065936066E+02  0.00000000000E+00 0.  1.
         -2    1    3    3    0  502  0.43501700008E+02  0.12289857858E+01  0.30190069213E+01  0.43623648546E+02  0.00000000000E+00 0. -1.
<mgrwt>
<rscale>  0 0.92211766E+02</rscale>
<asrwt>0</asrwt>
<pdfrwt beam="1">  1        1 0.53943227E-02 0.92211766E+02</pdfrwt>
<pdfrwt beam="2">  1       -1 0.93271518E-02 0.92211766E+02</pdfrwt>
<totfact> 0.86035681E+04</totfact>
</mgrwt>
</event>
<event>
 5    1  0.3957498E+001  0.9240287E+02  0.7546771E-02  0.1297135E+00
         -1   -1    0    0    0  501 -0.00000000000E+00  0.00000000000E+00  0.46702599860E+01  0.46702599860E+01  0.00000000000E+00 0.  1.
          1   -1    0    0  501    0  0.00000000000E+00 -0.00000000000E+00 -0.45705645741E+03  0.45705645741E+03  0.00000000000E+00 0. -1.
         23    2    1    2    0    0  0.00000000000E+00  0.00000000000E+00 -0.45238619742E+03  0.46172671740E+03  0.92402867583E+02 0.  0.
          2    1    3    3  502    0  0.19574944842E+02  0.26747041866E+02 -0.38702688637E+03  0.38844355251E+03  0.00000000000E+00 0. -1.
         -2    1    3    3    0  502 -0.19574944842E+02 -0.26747041866E+02 -0.65359311058E+02  0.73283164889E+02  0.00000000000E+00 0.  1.
<mgrwt>
<rscale>  0 0.92402868E+02</rscale>
<asrwt>0</asrwt>
<pdfrwt beam="2">  1        1 0.70316401E-01 0.92402868E+02</pdfrwt>
<pdfrwt beam="1">  1       -1 0.71850131E-03 0.92402868E+02</pdfrwt>
<totfact> 0.13286334E+05</totfact>
</mgrwt>
</event>
<event>
 5    1  0.3957498E+001  0.9279014E+02  0.7546771E-02  0.1296232E+00
         -3   -1    0    0    0  501 -0.00000000000E+00  0.00000000000E+00  0.48815182218E+02  0.48815182218E+02  0.00000000000E+00 0. -1.
          3   -1    0    0  501    0  0.00000000000E+00 -0.00000000000E+00 -0.44094935474E+02  0.44094935474E+02  0.00000000000E+00 0.  1.
         23    2    1    2    0    0  0.00000000000E+00  0.00000000000E+00  0.47202467444E+01  0.92910117692E+02  0.92790135468E+02 0.  0.
          2    1    3    3  502    0  0.25870533905E+02  0.33470437141E+02  0.21435941790E+02  0.47424195168E+02  0.00000000000E+00 0. -1.
         -2    1    3    3    0  502 -0.25870533905E+02 -0.33470437141E+02 -0.16715695046E+02  0.45485922523E+02  0.00000000000E+00 0.  1.
<mgrwt>
<rscale>  0 0.92790135E+02</rscale>
<asrwt>0</asrwt>
<pdfrwt beam="2">  1        3 0.67838362E-02 0.92790135E+02</pdfrwt>
<pdfrwt beam="1">  1       -3 0.75100280E-02 0.92790135E+02</pdfrwt>
<totfact> 0.33558886E+04</totfact>
</mgrwt>
</event>
<event>
 5    1  0.3957498E+001  0.9096806E+02  0.7546771E-02  0.1300524E+00
          1   -1    0    0  501    0  0.00000000000E+00  0.00000000000E+00  0.18548474619E+02  0.18548474619E+02  0.00000000000E+00 0. -1.
         -1   -1    0    0    0  501 -0.00000000000E+00 -0.00000000000E+00 -0.11153461903E+03  0.11153461903E+03  0.00000000000E+00 0.  1.
         23    2    1    2    0    0  0.00000000000E+00  0.00000000000E+00 -0.92986144408E+02  0.13008309365E+03  0.90968061432E+02 0.  0.
          2    1    3    3  502    0  0.42755225367E+02 -0.92241857505E+01 -0.64336538445E+02  0.77796433582E+02  0.00000000000E+00 0. -1.
         -2    1    3    3    0  502 -0.42755225367E+02  0.92241857505E+01 -0.28649605963E+02  0.52286660065E+02  0.00000000000E+00 0.  1.
<mgrwt>
<rscale>  0 0.90968061E+02</rscale>
<asrwt>0</asrwt>
<pdfrwt beam="1">  1        1 0.28536115E-02 0.90968061E+02</pdfrwt>
<pdfrwt beam="2">  1       -1 0.17159172E-01 0.90968061E+02</pdfrwt>
<totfact> 0.80163982E+04</totfact>
</mgrwt>
</event>
<event>
 5    1  0.3957498E+001  0.8592793E+02  0.7546771E-02  0.1313024E+00
          1   -1    0    0  501    0  0.00000000000E+00  0.00000000000E+00  0.17974512844E+02  0.17974512844E+02  0.00000000000E+00 0. -1.
         -1   -1    0    0    0  501 -0.00000000000E+00 -0.00000000000E+00 -0.10269554921E+03  0.10269554921E+03  0.00000000000E+00 0.  1.
         23    2    1    2    0    0  0.00000000000E+00  0.00000000000E+00 -0.84721036366E+02  0.12067006205E+03  0.85927934185E+02 0.  0.
          2    1    3    3  502    0  0.38646113324E+02  0.17544377271E+02 -0.32984640992E+02  0.53752337533E+02  0.00000000000E+00 0. -1.
         -2    1    3    3    0  502 -0.38646113324E+02 -0.17544377271E+02 -0.51736395374E+02  0.66917724521E+02  0.00000000000E+00 0.  1.
<mgrwt>
<rscale>  0 0.85927934E+02</rscale>
<asrwt>0</asrwt>
<pdfrwt beam="1">  1        1 0.27653096E-02 0.85927934E+02</pdfrwt>
<pdfrwt beam="2">  1       -1 0.15799315E-01 0.85927934E+02</pdfrwt>
<totfact> 0.94304047E+04</totfact>
</mgrwt>
</event>
<event>
 5    1  0.3957498E+001  0.9187578E+02  0.7546771E-02  0.1298372E+00
          2   -1    0    0  501    0  0.00000000000E+00  0.00000000000E+00  0.59459836799E+03  0.59459836799E+03  0.00000000000E+00 0.  1.
         -2   -1    0    0    0  501 -0.00000000000E+00 -0.00000000000E+00 -0.35491013439E+01  0.35491013439E+01  0.00000000000E+00 0. -1.
         23    2    1    2    0    0  0.00000000000E+00  0.00000000000E+00  0.59104926665E+03  0.59814746933E+03  0.91875782814E+02 0.  0.
          2    1    3    3  502    0 -0.25914057689E+02 -0.34493789002E+02  0.39824246378E+03  0.40057261492E+03  0.00000000000E+00 0. -1.
         -2    1    3    3    0  502  0.25914057689E+02  0.34493789002E+02  0.19280680286E+03  0.19757485441E+03  0.00000000000E+00 0.  1.
<mgrwt>
<rscale>  0 0.91875783E+02</rscale>
<asrwt>0</asrwt>
<pdfrwt beam="1">  1        2 0.91476593E-01 0.91875783E+02</pdfrwt>
<pdfrwt beam="2">  1       -2 0.54601606E-03 0.91875783E+02</pdfrwt>
<totfact> 0.22272210E+05</totfact>
</mgrwt>
</event>
<event>
 5    1  0.3957498E+001  0.9295139E+02  0.7546771E-02  0.1295858E+00
          2   -1    0    0  501    0  0.00000000000E+00  0.00000000000E+00  0.81748453813E+03  0.81748453813E+03  0.00000000000E+00 0. -1.
         -2   -1    0    0    0  501 -0.00000000000E+00 -0.00000000000E+00 -0.26422400004E+01  0.26422400004E+01  0.00000000000E+00 0.  1.
         23    2    1    2    0    0  0.00000000000E+00  0.00000000000E+00  0.81484229813E+03  0.82012677813E+03  0.92951392595E+02 0.  0.
          2    1    3    3  502    0  0.33625888675E+02  0.35543273366E+01  0.68874869528E+03  0.68957820360E+03  0.00000000000E+00 0. -1.
         -2    1    3    3    0  502 -0.33625888675E+02 -0.35543273366E+01  0.12609360285E+03  0.13054857453E+03  0.00000000000E+00 0.  1.
<mgrwt>
<rscale>  0 0.92951393E+02</rscale>
<asrwt>0</asrwt>
<pdfrwt beam="1">  1        2 0.12576665E+00 0.92951393E+02</pdfrwt>
<pdfrwt beam="2">  1       -2 0.40649911E-03 0.92951393E+02</pdfrwt>
<totfact> 0.23251037E+05</totfact>
</mgrwt>
</event>
<event>
 5    1  0.3957498E+001  0.9162134E+02  0.7546771E-02  0.1298972E+00
          3   -1    0    0  501    0  0.00000000000E+00  0.00000000000E+00  0.37769389329E+02  0.37769389329E+02  0.00000000000E+00 0. -1.
         -3   -1    0    0    0  501 -0.00000000000E+00 -0.00000000000E+00 -0.55563972150E+02  0.55563972150E+02  0.00000000000E+00 0.  1.
         23    2    1    2    0    0  0.00000000000E+00  0.00000000000E+00 -0.17794582820E+02  0.93333361479E+02  0.91621335873E+02 0.  0.
          2    1    3    3  502    0 -0.44054873885E+02  0.92397488845E+01 -0.17565848860E+02  0.48319394850E+02  0.00000000000E+00 0. -1.
         -2    1    3    3    0  502  0.44054873885E+02 -0.92397488845E+01 -0.22873395999E+00  0.45013966629E+02  0.00000000000E+00 0.  1.
<mgrwt>
<rscale>  0 0.91621336E+02</rscale>
<asrwt>0</asrwt>
<pdfrwt beam="1">  1        3 0.58106753E-02 0.91621336E+02</pdfrwt>
<pdfrwt beam="2">  1       -3 0.85483034E-02 0.91621336E+02</pdfrwt>
<totfact> 0.34710500E+04</totfact>
</mgrwt>
</event>
<event>
 5    1  0.3957498E+001  0.7279747E+02  0.7546771E-02  0.1350830E+00
         -4   -1    0    0    0  501 -0.00000000000E+00  0.00000000000E+00  0.14230196547E+03  0.14230196547E+03  0.00000000000E+00 0.  1.
          4   -1    0    0  501    0  0.00000000000E+00 -0.00000000000E+00 -0.93102572833E+01  0.93102572833E+01  0.00000000000E+00 0. -1.
         23    2    1    2    0    0  0.00000000000E+00  0.00000000000E+00  0.13299170819E+03  0.15161222275E+03  0.72797470023E+02 0.  0.
          2    1    3    3  502    0 -0.43805607607E+01 -0.24615760696E+02  0.11404025690E+02  0.27480480148E+02  0.00000000000E+00 0. -1.
         -2    1    3    3    0  502  0.43805607607E+01  0.24615760696E+02  0.12158768250E+03  0.12413174261E+03  0.00000000000E+00 0.  1.
<mgrwt>
<rscale>  0 0.72797470E+02</rscale>
<asrwt>0</asrwt>
<pdfrwt beam="2">  1        4 0.14323474E-02 0.72797470E+02</pdfrwt>
<pdfrwt beam="1">  1       -4 0.21892609E-01 0.72797470E+02</pdfrwt>
<totfact> 0.42794432E+04</totfact>
</mgrwt>
</event>
<event>
 5    1  0.3957498E+001  0.9491492E+02  0.7546771E-02  0.1291368E+00
         -1   -1    0    0    0  501 -0.00000000000E+00  0.00000000000E+00  0.52535449627E+03  0.52535449627E+03  0.00000000000E+00 0.  1.
          1   -1    0    0  501    0  0.00000000000E+00 -0.00000000000E+00 -0.42870301009E+01  0.42870301009E+01  0.00000000000E+00 0. -1.
         23    2    1    2    0    0  0.00000000000E+00  0.00000000000E+00  0.52106746617E+03  0.52964152637E+03  0.94914920622E+02 0.  0.
          2    1    3    3  502    0 -0.26158287946E+02 -0.17212229307E+02  0.61540276957E+02  0.69048696975E+02  0.00000000000E+00 0. -1.
         -2    1    3    3    0  502  0.26158287946E+02  0.17212229307E+02  0.45952718921E+03  0.46059282940E+03  0.00000000000E+00 0.  1.
<mgrwt>
<rscale>  0 0.94914921E+02</rscale>
<asrwt>0</asrwt>
<pdfrwt beam="2">  1        1 0.65954351E-03 0.94914921E+02</pdfrwt>
<pdfrwt beam="1">  1       -1 0.80823718E-01 0.94914921E+02</pdfrwt>
<totfact> 0.41026619E+04</totfact>
</mgrwt>
</event>
<event>
 5    1  0.3957498E+001  0.9226387E+02  0.7546771E-02  0.1297460E+00
          1   -1    0    0  501    0  0.00000000000E+00  0.00000000000E+00  0.56477717093E+02  0.56477717093E+02  0.00000000000E+00 0. -1.
         -1   -1    0    0    0  501 -0.00000000000E+00 -0.00000000000E+00 -0.37681326057E+02  0.37681326057E+02  0.00000000000E+00 0.  1.
         23    2    1    2    0    0  0.00000000000E+00  0.00000000000E+00  0.18796391036E+02  0.94159043150E+02  0.92263866659E+02 0.  0.
          2    1    3    3  502    0  0.97598079996E+01 -0.42603376689E+02  0.24461243881E+02  0.50086465335E+02  0.00000000000E+00 0. -1.
         -2    1    3    3    0  502 -0.97598079996E+01  0.42603376689E+02 -0.56648528445E+01  0.44072577815E+02  0.00000000000E+00 0.  1.
<mgrwt>
<rscale>  0 0.92263867E+02</rscale>
<asrwt>0</asrwt>
<pdfrwt beam="1">  1        1 0.86888796E-02 0.92263867E+02</pdfrwt>
<pdfrwt beam="2">  1       -1 0.57971271E-02 0.92263867E+02</pdfrwt>
<totfact> 0.92393937E+04</totfact>
</mgrwt>
</event>
<event>
 5    1  0.3957498E+001  0.9283649E+02  0.7546771E-02  0.1296125E+00
          2   -1    0    0  501    0  0.00000000000E+00  0.00000000000E+00  0.25515770657E+03  0.25515770657E+03  0.00000000000E+00 0. -1.
         -2   -1    0    0    0  501 -0.00000000000E+00 -0.00000000000E+00 -0.84443991807E+01  0.84443991807E+01  0.00000000000E+00 0.  1.
         23    2    1    2    0    0  0.00000000000E+00  0.00000000000E+00  0.24671330739E+03  0.26360210575E+03  0.92836491281E+02 0.  0.
          2    1    3    3  502    0  0.41100890883E+02 -0.29426055792E+01  0.62675885707E+02  0.75008058288E+02  0.00000000000E+00 0. -1.
         -2    1    3    3    0  502 -0.41100890883E+02  0.29426055792E+01  0.18403742169E+03  0.18859404747E+03  0.00000000000E+00 0.  1.
<mgrwt>
<rscale>  0 0.92836491E+02</rscale>
<asrwt>0</asrwt>
<pdfrwt beam="1">  1        2 0.39255026E-01 0.92836491E+02</pdfrwt>
<pdfrwt beam="2">  1       -2 0.12991385E-02 0.92836491E+02</pdfrwt>
<totfact> 0.16114811E+05</totfact>
</mgrwt>
</event>
<event>
 5    1  0.3957498E+001  0.1079649E+03  0.7546771E-02  0.1264386E+00
          2   -1    0    0  501    0  0.00000000000E+00  0.00000000000E+00  0.52367659899E+02  0.52367659899E+02  0.00000000000E+00 0. -1.
         -2   -1    0    0    0  501 -0.00000000000E+00 -0.00000000000E+00 -0.55647034423E+02  0.55647034423E+02  0.00000000000E+00 0.  1.
         23    2    1    2    0    0  0.00000000000E+00  0.00000000000E+00 -0.32793745242E+01  0.10801469432E+03  0.10796490121E+03 0.  0.
          2    1    3    3  502    0 -0.70236311981E+01 -0.35470583144E+02 -0.41740729400E+02  0.55224832771E+02  0.00000000000E+00 0.  1.
         -2    1    3    3    0  502  0.70236311981E+01  0.35470583144E+02  0.38461354875E+02  0.52789861551E+02  0.00000000000E+00 0. -1.
<mgrwt>
<rscale>  0 0.10796490E+03</rscale>
<asrwt>0</asrwt>
<pdfrwt beam="1">  1        2 0.80565631E-02 0.10796490E+03</pdfrwt>
<pdfrwt beam="2">  1       -2 0.85610822E-02 0.10796490E+03</pdfrwt>
<totfact> 0.62735572E+04</totfact>
</mgrwt>
</event>
<event>
 5    1  0.3957498E+001  0.9257698E+02  0.7546771E-02  0.1296728E+00
          2   -1    0    0  501    0  0.00000000000E+00  0.00000000000E+00  0.19362455424E+04  0.19362455424E+04  0.00000000000E+00 0. -1.
         -2   -1    0    0    0  501 -0.00000000000E+00 -0.00000000000E+00 -0.11065871715E+01  0.11065871715E+01  0.00000000000E+00 0.  1.
         23    2    1    2    0    0  0.00000000000E+00  0.00000000000E+00  0.19351389553E+04  0.19373521296E+04  0.92576983708E+02 0.  0.
          2    1    3    3  502    0  0.33004751807E+02 -0.32242939283E+02  0.10450378624E+04  0.10460559519E+04  0.00000000000E+00 0. -1.
         -2    1    3    3    0  502 -0.33004751807E+02  0.32242939283E+02  0.89010109291E+03  0.89129617770E+03  0.00000000000E+00 0.  1.
<mgrwt>
<rscale>  0 0.92576984E+02</rscale>
<asrwt>0</asrwt>
<pdfrwt beam="1">  1        2 0.29788122E+00 0.92576984E+02</pdfrwt>
<pdfrwt beam="2">  1       -2 0.17024573E-03 0.92576984E+02</pdfrwt>
<totfact> 0.19459097E+05</totfact>
</mgrwt>
</event>
<event>
 5    1  0.3957498E+001  0.8308108E+02  0.7546771E-02  0.1320528E+00
         -1   -1    0    0    0  501 -0.00000000000E+00  0.00000000000E+00  0.39326251644E+01  0.39326251644E+01  0.00000000000E+00 0. -1.
          1   -1    0    0  501    0  0.00000000000E+00 -0.00000000000E+00 -0.43879503728E+03  0.43879503728E+03  0.00000000000E+00 0.  1.
         23    2    1    2    0    0  0.00000000000E+00  0.00000000000E+00 -0.43486241211E+03  0.44272766244E+03  0.83081078607E+02 0.  0.
          2    1    3    3  502    0 -0.21522156938E+02  0.13466470042E+02 -0.42220391788E+02  0.49265713609E+02  0.00000000000E+00 0. -1.
         -2    1    3    3    0  502  0.21522156938E+02 -0.13466470042E+02 -0.39264202033E+03  0.39346194883E+03  0.00000000000E+00 0.  1.
<mgrwt>
<rscale>  0 0.83081079E+02</rscale>
<asrwt>0</asrwt>
<pdfrwt beam="2">  1        1 0.67506923E-01 0.83081079E+02</pdfrwt>
<pdfrwt beam="1">  1       -1 0.60501930E-03 0.83081079E+02</pdfrwt>
<totfact> 0.17493073E+05</totfact>
</mgrwt>
</event>
<event>
 5    1  0.3957498E+001  0.9513964E+02  0.7546771E-02  0.1290862E+00
          1   -1    0    0  501    0  0.00000000000E+00  0.00000000000E+00  0.14548298520E+02  0.14548298520E+02  0.00000000000E+00 0. -1.
         -1   -1    0    0    0  501 -0.00000000000E+00 -0.00000000000E+00 -0.15554311575E+03  0.15554311575E+03  0.00000000000E+00 0.  1.
         23    2    1    2    0    0  0.00000000000E+00  0.00000000000E+00 -0.14099481723E+03  0.17009141427E+03  0.95139638020E+02 0.  0.
          2    1    3    3  502    0  0.35013983900E+02  0.12925318523E+02 -0.17769351193E+02  0.41337546726E+02  0.00000000000E+00 0. -1.
         -2    1    3    3    0  502 -0.35013983900E+02 -0.12925318523E+02 -0.12322546604E+03  0.12875386754E+03  0.00000000000E+00 0.  1.
<mgrwt>
<rscale>  0 0.95139638E+02</rscale>
<asrwt>0</asrwt>
<pdfrwt beam="1">  1        1 0.22381997E-02 0.95139638E+02</pdfrwt>
<pdfrwt beam="2">  1       -1 0.23929711E-01 0.95139638E+02</pdfrwt>
<totfact> 0.66378698E+04</totfact>
</mgrwt>
</event>
<event>
 5    1  0.3957498E+001  0.9109126E+02  0.7546771E-02  0.1300230E+00
          1   -1    0    0  501    0  0.00000000000E+00  0.00000000000E+00  0.57894787199E+02  0.57894787199E+02  0.00000000000E+00 0. -1.
         -1   -1    0    0    0  501 -0.00000000000E+00 -0.00000000000E+00 -0.35830587617E+02  0.35830587617E+02  0.00000000000E+00 0.  1.
         23    2    1    2    0    0  0.00000000000E+00  0.00000000000E+00  0.22064199581E+02  0.93725374816E+02  0.91091256338E+02 0.  0.
          2    1    3    3  502    0 -0.55029252337E+01  0.39863464804E+02  0.32980289812E+02  0.52029583204E+02  0.00000000000E+00 0. -1.
         -2    1    3    3    0  502  0.55029252337E+01 -0.39863464804E+02 -0.10916090230E+02  0.41695791613E+02  0.00000000000E+00 0.  1.
<mgrwt>
<rscale>  0 0.91091256E+02</rscale>
<asrwt>0</asrwt>
<pdfrwt beam="1">  1        1 0.89068904E-02 0.91091256E+02</pdfrwt>
<pdfrwt beam="2">  1       -1 0.55123981E-02 0.91091256E+02</pdfrwt>
<totfact> 0.96103156E+04</totfact>
</mgrwt>
</event>
<event>
 5    1  0.3957498E+001  0.9264573E+02  0.7546771E-02  0.1296568E+00
          1   -1    0    0  501    0  0.00000000000E+00  0.00000000000E+00  0.33589123026E+02  0.33589123026E+02  0.00000000000E+00 0. -1.
         -1   -1    0    0    0  501 -0.00000000000E+00 -0.00000000000E+00 -0.63884013979E+02  0.63884013979E+02  0.00000000000E+00 0.  1.
         23    2    1    2    0    0  0.00000000000E+00  0.00000000000E+00 -0.30294890953E+02  0.97473137005E+02  0.92645733953E+02 0.  0.
          2    1    3    3  502    0 -0.39241538978E+02  0.13653607617E+01  0.10710517700E+02  0.40699849887E+02  0.00000000000E+00 0. -1.
         -2    1    3    3    0  502  0.39241538978E+02 -0.13653607617E+01 -0.41005408653E+02  0.56773287118E+02  0.00000000000E+00 0.  1.
<mgrwt>
<rscale>  0 0.92645734E+02</rscale>
<asrwt>0</asrwt>
<pdfrwt beam="1">  1        1 0.51675574E-02 0.92645734E+02</pdfrwt>
<pdfrwt beam="2">  1       -1 0.98283098E-02 0.92645734E+02</pdfrwt>
<totfact> 0.84313813E+04</totfact>
</mgrwt>
</event>
<event>
 5    1  0.3957498E+001  0.8690263E+02  0.7546771E-02  0.1310531E+00
         -2   -1    0    0    0  501 -0.00000000000E+00  0.00000000000E+00  0.13592986700E+01  0.13592986700E+01  0.00000000000E+00 0.  1.
          2   -1    0    0  501    0  0.00000000000E+00 -0.00000000000E+00 -0.13889640100E+04  0.13889640100E+04  0.00000000000E+00 0. -1.
         23    2    1    2    0    0  0.00000000000E+00  0.00000000000E+00 -0.13876047113E+04  0.13903233087E+04  0.86902633596E+02 0.  0.
          2    1    3    3  502    0 -0.17350496597E+02 -0.39816946304E+02 -0.71396308526E+03  0.71528296223E+03  0.00000000000E+00 0.  1.
         -2    1    3    3    0  502  0.17350496597E+02  0.39816946304E+02 -0.67364162608E+03  0.67504034645E+03  0.00000000000E+00 0. -1.
<mgrwt>
<rscale>  0 0.86902634E+02</rscale>
<asrwt>0</asrwt>
<pdfrwt beam="2">  1        2 0.21368744E+00 0.86902634E+02</pdfrwt>
<pdfrwt beam="1">  1       -2 0.20912222E-03 0.86902634E+02</pdfrwt>
<totfact> 0.27447194E+05</totfact>
</mgrwt>
</event>
<event>
 5    1  0.3957498E+001  0.9125171E+02  0.7546771E-02  0.1299848E+00
          1   -1    0    0  501    0  0.00000000000E+00  0.00000000000E+00  0.13218773079E+04  0.13218773079E+04  0.00000000000E+00 0. -1.
         -1   -1    0    0    0  501 -0.00000000000E+00 -0.00000000000E+00 -0.15748199447E+01  0.15748199447E+01  0.00000000000E+00 0.  1.
         23    2    1    2    0    0  0.00000000000E+00  0.00000000000E+00  0.13203024880E+04  0.13234521279E+04  0.91251712290E+02 0.  0.
          2    1    3    3  502    0  0.32646684843E+02 -0.27131612340E+02  0.90274633676E+03  0.90374381268E+03  0.00000000000E+00 0. -1.
         -2    1    3    3    0  502 -0.32646684843E+02  0.27131612340E+02  0.41755615121E+03  0.41970831518E+03  0.00000000000E+00 0.  1.
<mgrwt>
<rscale>  0 0.91251712E+02</rscale>
<asrwt>0</asrwt>
<pdfrwt beam="1">  1        1 0.20336485E+00 0.91251712E+02</pdfrwt>
<pdfrwt beam="2">  1       -1 0.24228105E-03 0.91251712E+02</pdfrwt>
<totfact> 0.12060350E+05</totfact>
</mgrwt>
</event>
<event>
 5    1  0.3957498E+001  0.9114461E+02  0.7546771E-02  0.1300103E+00
          1   -1    0    0  501    0  0.00000000000E+00  0.00000000000E+00  0.51179128143E+03  0.51179128143E+03  0.00000000000E+00 0. -1.
         -1   -1    0    0    0  501 -0.00000000000E+00 -0.00000000000E+00 -0.40579729037E+01  0.40579729037E+01  0.00000000000E+00 0.  1.
         23    2    1    2    0    0  0.00000000000E+00  0.00000000000E+00  0.50773330852E+03  0.51584925433E+03  0.91144613716E+02 0.  0.
          2    1    3    3  502    0 -0.19950656877E+01 -0.43268457272E+02  0.33404564478E+03  0.33684214771E+03  0.00000000000E+00 0. -1.
         -2    1    3    3    0  502  0.19950656877E+01  0.43268457272E+02  0.17368766375E+03  0.17900710662E+03  0.00000000000E+00 0.  1.
<mgrwt>
<rscale>  0 0.91144614E+02</rscale>
<asrwt>0</asrwt>
<pdfrwt beam="1">  1        1 0.78737069E-01 0.91144614E+02</pdfrwt>
<pdfrwt beam="2">  1       -1 0.62430393E-03 0.91144614E+02</pdfrwt>
<totfact> 0.13976948E+05</totfact>
</mgrwt>
</event>
<event>
 5    1  0.3957498E+001  0.7900309E+02  0.7546771E-02  0.1331905E+00
          4   -1    0    0  501    0  0.00000000000E+00  0.00000000000E+00  0.22219214708E+03  0.22219214708E+03  0.00000000000E+00 0. -1.
         -4   -1    0    0    0  501 -0.00000000000E+00 -0.00000000000E+00 -0.70226246892E+01  0.70226246892E+01  0.00000000000E+00 0.  1.
         23    2    1    2    0    0  0.00000000000E+00  0.00000000000E+00  0.21516952239E+03  0.22921477177E+03  0.79003090011E+02 0.  0.
          2    1    3    3  502    0 -0.30250105997E+02 -0.10286633786E+02  0.17497384373E+03  0.17786716880E+03  0.00000000000E+00 0. -1.
         -2    1    3    3    0  502  0.30250105997E+02  0.10286633786E+02  0.40195678654E+02  0.51347602962E+02  0.00000000000E+00 0.  1.
<mgrwt>
<rscale>  0 0.79003090E+02</rscale>
<asrwt>0</asrwt>
<pdfrwt beam="1">  1        4 0.34183402E-01 0.79003090E+02</pdfrwt>
<pdfrwt beam="2">  1       -4 0.10804040E-02 0.79003090E+02</pdfrwt>
<totfact> 0.29532525E+04</totfact>
</mgrwt>
</event>
<event>
 5    1  0.3957498E+001  0.9499309E+02  0.7546771E-02  0.1291192E+00
         -2   -1    0    0    0  501 -0.00000000000E+00  0.00000000000E+00  0.25071126133E+01  0.25071126133E+01  0.00000000000E+00 0.  1.
          2   -1    0    0  501    0  0.00000000000E+00 -0.00000000000E+00 -0.89980873388E+03  0.89980873388E+03  0.00000000000E+00 0. -1.
         23    2    1    2    0    0  0.00000000000E+00  0.00000000000E+00 -0.89730162127E+03  0.90231584650E+03  0.94993090828E+02 0.  0.
          2    1    3    3  502    0 -0.31358481762E+02 -0.34723242268E+02 -0.52632243705E+03  0.52839792361E+03  0.00000000000E+00 0. -1.
         -2    1    3    3    0  502  0.31358481762E+02  0.34723242268E+02 -0.37097918422E+03  0.37391792289E+03  0.00000000000E+00 0.  1.
<mgrwt>
<rscale>  0 0.94993091E+02</rscale>
<asrwt>0</asrwt>
<pdfrwt beam="2">  1        2 0.13843224E+00 0.94993091E+02</pdfrwt>
<pdfrwt beam="1">  1       -2 0.38570927E-03 0.94993091E+02</pdfrwt>
<totfact> 0.22250366E+05</totfact>
</mgrwt>
</event>
<event>
 5    1  0.3957498E+001  0.9054634E+02  0.7546771E-02  0.1301534E+00
          2   -1    0    0  501    0  0.00000000000E+00  0.00000000000E+00  0.55299411730E+03  0.55299411730E+03  0.00000000000E+00 0. -1.
         -2   -1    0    0    0  501 -0.00000000000E+00 -0.00000000000E+00 -0.37064768429E+01  0.37064768429E+01  0.00000000000E+00 0.  1.
         23    2    1    2    0    0  0.00000000000E+00  0.00000000000E+00  0.54928764045E+03  0.55670059414E+03  0.90546339297E+02 0.  0.
          2    1    3    3  502    0  0.31910170498E+02  0.77471184300E+00  0.47203972877E+03  0.47311770702E+03  0.00000000000E+00 0. -1.
         -2    1    3    3    0  502 -0.31910170498E+02 -0.77471184300E+00  0.77247911688E+02  0.83582887123E+02  0.00000000000E+00 0.  1.
<mgrwt>
<rscale>  0 0.90546339E+02</rscale>
<asrwt>0</asrwt>
<pdfrwt beam="1">  1        2 0.85075953E-01 0.90546339E+02</pdfrwt>
<pdfrwt beam="2">  1       -2 0.57022764E-03 0.90546339E+02</pdfrwt>
<totfact> 0.22655945E+05</totfact>
</mgrwt>
</event>
<event>
 5    1  0.3957498E+001  0.9553671E+02  0.7546771E-02  0.1289972E+00
         -2   -1    0    0    0  501 -0.00000000000E+00  0.00000000000E+00  0.10053363036E+01  0.10053363036E+01  0.00000000000E+00 0.  1.
          2   -1    0    0  501    0  0.00000000000E+00 -0.00000000000E+00 -0.22697038370E+04  0.22697038370E+04  0.00000000000E+00 0. -1.
         23    2    1    2    0    0  0.00000000000E+00  0.00000000000E+00 -0.22686985007E+04  0.22707091733E+04  0.95536708459E+02 0.  0.
          2    1    3    3  502    0 -0.35115434767E+01  0.37543278685E+02 -0.18313563014E+04  0.18317444503E+04  0.00000000000E+00 0. -1.
         -2    1    3    3    0  502  0.35115434767E+01 -0.37543278685E+02 -0.43734219929E+03  0.43896472295E+03  0.00000000000E+00 0.  1.
<mgrwt>
<rscale>  0 0.95536708E+02</rscale>
<asrwt>0</asrwt>
<pdfrwt beam="2">  1        2 0.34918059E+00 0.95536708E+02</pdfrwt>
<pdfrwt beam="1">  1       -2 0.15466917E-03 0.95536708E+02</pdfrwt>
<totfact> 0.15116922E+05</totfact>
</mgrwt>
</event>
<event>
 5    1  0.3957498E+001  0.9404493E+02  0.7546771E-02  0.1293342E+00
          1   -1    0    0  501    0  0.00000000000E+00  0.00000000000E+00  0.83710366041E+03  0.83710366041E+03  0.00000000000E+00 0. -1.
         -1   -1    0    0    0  501 -0.00000000000E+00 -0.00000000000E+00 -0.26413839722E+01  0.26413839722E+01  0.00000000000E+00 0.  1.
         23    2    1    2    0    0  0.00000000000E+00  0.00000000000E+00  0.83446227644E+03  0.83974504438E+03  0.94044929511E+02 0.  0.
          2    1    3    3  502    0 -0.70377125702E+01 -0.43236255592E+02  0.56986779857E+03  0.57154895770E+03  0.00000000000E+00 0. -1.
         -2    1    3    3    0  502  0.70377125702E+01  0.43236255592E+02  0.26459447786E+03  0.26819608668E+03  0.00000000000E+00 0.  1.
<mgrwt>
<rscale>  0 0.94044930E+02</rscale>
<asrwt>0</asrwt>
<pdfrwt beam="1">  1        1 0.12878497E+00 0.94044930E+02</pdfrwt>
<pdfrwt beam="2">  1       -1 0.40636743E-03 0.94044930E+02</pdfrwt>
<totfact> 0.12957104E+05</totfact>
</mgrwt>
</event>
<event>
 5    1  0.3957498E+001  0.9241657E+02  0.7546771E-02  0.1297103E+00
          2   -1    0    0  501    0  0.00000000000E+00  0.00000000000E+00  0.11793335558E+03  0.11793335558E+03  0.00000000000E+00 0. -1.
         -2   -1    0    0    0  501 -0.00000000000E+00 -0.00000000000E+00 -0.18105188060E+02  0.18105188060E+02  0.00000000000E+00 0.  1.
         23    2    1    2    0    0  0.00000000000E+00  0.00000000000E+00  0.99828167524E+02  0.13603854364E+03  0.92416569541E+02 0.  0.
          2    1    3    3  502    0 -0.17665125253E+02  0.19810339170E+02  0.10559242992E+03  0.10887730455E+03  0.00000000000E+00 0. -1.
         -2    1    3    3    0  502  0.17665125253E+02 -0.19810339170E+02 -0.57642624004E+01  0.27161239097E+02  0.00000000000E+00 0.  1.
<mgrwt>
<rscale>  0 0.92416570E+02</rscale>
<asrwt>0</asrwt>
<pdfrwt beam="1">  1        2 0.18143593E-01 0.92416570E+02</pdfrwt>
<pdfrwt beam="2">  1       -2 0.27854136E-02 0.92416570E+02</pdfrwt>
<totfact> 0.12445277E+05</totfact>
</mgrwt>
</event>
<event>
 5    1  0.3957498E+001  0.9092367E+02  0.7546771E-02  0.1300630E+00
         -3   -1    0    0    0  501 -0.00000000000E+00  0.00000000000E+00  0.52717143517E+02  0.52717143517E+02  0.00000000000E+00 0. -1.
          3   -1    0    0  501    0  0.00000000000E+00 -0.00000000000E+00 -0.39205054828E+02  0.39205054828E+02  0.00000000000E+00 0.  1.
         23    2    1    2    0    0  0.00000000000E+00  0.00000000000E+00  0.13512088689E+02  0.91922198344E+02  0.90923671328E+02 0.  0.
          2    1    3    3  502    0  0.48299763784E+01  0.26062143167E+02  0.44096943644E+02  0.51450018630E+02  0.00000000000E+00 0. -1.
         -2    1    3    3    0  502 -0.48299763784E+01 -0.26062143167E+02 -0.30584854954E+02  0.40472179715E+02  0.00000000000E+00 0.  1.
<mgrwt>
<rscale>  0 0.90923671E+02</rscale>
<asrwt>0</asrwt>
<pdfrwt beam="2">  1        3 0.60315469E-02 0.90923671E+02</pdfrwt>
<pdfrwt beam="1">  1       -3 0.81103298E-02 0.90923671E+02</pdfrwt>
<totfact> 0.35550461E+04</totfact>
</mgrwt>
</event>
<event>
 5    1  0.3957498E+001  0.8961841E+02  0.7546771E-02  0.1303778E+00
          2   -1    0    0  501    0  0.00000000000E+00  0.00000000000E+00  0.54370711193E+03  0.54370711193E+03  0.00000000000E+00 0.  1.
         -2   -1    0    0    0  501 -0.00000000000E+00 -0.00000000000E+00 -0.36929161459E+01  0.36929161459E+01  0.00000000000E+00 0. -1.
         23    2    1    2    0    0  0.00000000000E+00  0.00000000000E+00  0.54001419578E+03  0.54740002808E+03  0.89618408204E+02 0.  0.
          2    1    3    3  502    0  0.15426545626E+02 -0.17970065755E+02  0.37660492118E+02  0.44488360722E+02  0.00000000000E+00 0. -1.
         -2    1    3    3    0  502 -0.15426545626E+02  0.17970065755E+02  0.50235370367E+03  0.50291166735E+03  0.00000000000E+00 0.  1.
<mgrwt>
<rscale>  0 0.89618408E+02</rscale>
<asrwt>0</asrwt>
<pdfrwt beam="1">  1        2 0.83647185E-01 0.89618408E+02</pdfrwt>
<pdfrwt beam="2">  1       -2 0.56814138E-03 0.89618408E+02</pdfrwt>
<totfact> 0.23159917E+05</totfact>
</mgrwt>
</event>
<event>
 5    1  0.3957498E+001  0.9199676E+02  0.7546771E-02  0.1298087E+00
         -1   -1    0    0    0  501 -0.00000000000E+00  0.00000000000E+00  0.40289924305E+02  0.40289924305E+02  0.00000000000E+00 0.  1.
          1   -1    0    0  501    0  0.00000000000E+00 -0.00000000000E+00 -0.52515632770E+02  0.52515632770E+02  0.00000000000E+00 0. -1.
         23    2    1    2    0    0  0.00000000000E+00  0.00000000000E+00 -0.12225708465E+02  0.92805557074E+02  0.91996757967E+02 0.  0.
          2    1    3    3  502    0  0.36835333226E+02 -0.27514376254E+02 -0.46975966997E+01  0.46216340068E+02  0.00000000000E+00 0. -1.
         -2    1    3    3    0  502 -0.36835333226E+02  0.27514376254E+02 -0.75281117657E+01  0.46589217007E+02  0.00000000000E+00 0.  1.
<mgrwt>
<rscale>  0 0.91996758E+02</rscale>
<asrwt>0</asrwt>
<pdfrwt beam="2">  1        1 0.80793280E-02 0.91996758E+02</pdfrwt>
<pdfrwt beam="1">  1       -1 0.61984500E-02 0.91996758E+02</pdfrwt>
<totfact> 0.92124091E+04</totfact>
</mgrwt>
</event>
<event>
 5    1  0.3957498E+001  0.9374420E+02  0.7546771E-02  0.1294030E+00
         -3   -1    0    0    0  501 -0.00000000000E+00  0.00000000000E+00  0.18887884048E+02  0.18887884048E+02  0.00000000000E+00 0.  1.
          3   -1    0    0  501    0  0.00000000000E+00 -0.00000000000E+00 -0.11631762667E+03  0.11631762667E+03  0.00000000000E+00 0. -1.
         23    2    1    2    0    0  0.00000000000E+00  0.00000000000E+00 -0.97429742617E+02  0.13520551071E+03  0.93744201853E+02 0.  0.
          2    1    3    3  502    0  0.17466749785E+02  0.17714649934E+02 -0.10600989682E+03  0.10888982686E+03  0.00000000000E+00 0. -1.
         -2    1    3    3    0  502 -0.17466749785E+02 -0.17714649934E+02  0.85801542043E+01  0.26315683850E+02  0.00000000000E+00 0.  1.
<mgrwt>
<rscale>  0 0.93744202E+02</rscale>
<asrwt>0</asrwt>
<pdfrwt beam="2">  1        3 0.17895020E-01 0.93744202E+02</pdfrwt>
<pdfrwt beam="1">  1       -3 0.29058283E-02 0.93744202E+02</pdfrwt>
<totfact> 0.29891580E+04</totfact>
</mgrwt>
</event>
<event>
 5    1  0.3957498E+001  0.9053598E+02  0.7546771E-02  0.1301559E+00
          1   -1    0    0  501    0  0.00000000000E+00  0.00000000000E+00  0.13301535045E+04  0.13301535045E+04  0.00000000000E+00 0. -1.
         -1   -1    0    0    0  501 -0.00000000000E+00 -0.00000000000E+00 -0.15405672099E+01  0.15405672099E+01  0.00000000000E+00 0.  1.
         23    2    1    2    0    0  0.00000000000E+00  0.00000000000E+00  0.13286129373E+04  0.13316940717E+04  0.90535978995E+02 0.  0.
          2    1    3    3  502    0 -0.31108570480E+01  0.21054408483E+02  0.12519721951E+04  0.12521530828E+04  0.00000000000E+00 0. -1.
         -2    1    3    3    0  502  0.31108570480E+01 -0.21054408483E+02  0.76640742240E+02  0.79540988925E+02  0.00000000000E+00 0.  1.
<mgrwt>
<rscale>  0 0.90535979E+02</rscale>
<asrwt>0</asrwt>
<pdfrwt beam="1">  1        1 0.20463808E+00 0.90535979E+02</pdfrwt>
<pdfrwt beam="2">  1       -1 0.23701140E-03 0.90535979E+02</pdfrwt>
<totfact> 0.12267395E+05</totfact>
</mgrwt>
</event>
<event>
 5    1  0.3957498E+001  0.9730146E+02  0.7546771E-02  0.1286075E+00
          2   -1    0    0  501    0  0.00000000000E+00  0.00000000000E+00  0.41375928830E+03  0.41375928830E+03  0.00000000000E+00 0. -1.
         -2   -1    0    0    0  501 -0.00000000000E+00 -0.00000000000E+00 -0.57204602173E+01  0.57204602173E+01  0.00000000000E+00 0.  1.
         23    2    1    2    0    0  0.00000000000E+00  0.00000000000E+00  0.40803882808E+03  0.41947974852E+03  0.97301460385E+02 0.  0.
          2    1    3    3  502    0  0.41161991995E+02  0.24280148470E+02  0.24330952898E+03  0.24795838781E+03  0.00000000000E+00 0. -1.
         -2    1    3    3    0  502 -0.41161991995E+02 -0.24280148470E+02  0.16472929910E+03  0.17152136071E+03  0.00000000000E+00 0.  1.
<mgrwt>
<rscale>  0 0.97301460E+02</rscale>
<asrwt>0</asrwt>
<pdfrwt beam="1">  1        2 0.63655252E-01 0.97301460E+02</pdfrwt>
<pdfrwt beam="2">  1       -2 0.88007113E-03 0.97301460E+02</pdfrwt>
<totfact> 0.16991395E+05</totfact>
</mgrwt>
</event>
<event>
 5    1  0.3957498E+001  0.9084885E+02  0.7546771E-02  0.1300809E+00
         -4   -1    0    0    0  501 -0.00000000000E+00  0.00000000000E+00  0.13751236672E+02  0.13751236672E+02  0.00000000000E+00 0.  1.
          4   -1    0    0  501    0  0.00000000000E+00 -0.00000000000E+00 -0.15005037918E+03  0.15005037918E+03  0.00000000000E+00 0. -1.
         23    2    1    2    0    0  0.00000000000E+00  0.00000000000E+00 -0.13629914250E+03  0.16380161585E+03  0.90848847583E+02 0.  0.
          2    1    3    3  502    0 -0.26360281557E+02 -0.19441196244E+02 -0.12489590081E+03  0.12911936569E+03  0.00000000000E+00 0. -1.
         -2    1    3    3    0  502  0.26360281557E+02  0.19441196244E+02 -0.11403241689E+02  0.34682250161E+02  0.00000000000E+00 0.  1.
<mgrwt>
<rscale>  0 0.90848848E+02</rscale>
<asrwt>0</asrwt>
<pdfrwt beam="2">  1        4 0.23084673E-01 0.90848848E+02</pdfrwt>
<pdfrwt beam="1">  1       -4 0.21155749E-02 0.90848848E+02</pdfrwt>
<totfact> 0.23222547E+04</totfact>
</mgrwt>
</event>
<event>
 5    1  0.3957498E+001  0.8934431E+02  0.7546771E-02  0.1304447E+00
         -1   -1    0    0    0  501 -0.00000000000E+00  0.00000000000E+00  0.15843506578E+02  0.15843506578E+02  0.00000000000E+00 0.  1.
          1   -1    0    0  501    0  0.00000000000E+00 -0.00000000000E+00 -0.12595704711E+03  0.12595704711E+03  0.00000000000E+00 0. -1.
         23    2    1    2    0    0  0.00000000000E+00  0.00000000000E+00 -0.11011354053E+03  0.14180055369E+03  0.89344307137E+02 0.  0.
          2    1    3    3  502    0  0.15073528334E+02  0.24168429893E+02 -0.10967500970E+03  0.11331342380E+03  0.00000000000E+00 0. -1.
         -2    1    3    3    0  502 -0.15073528334E+02 -0.24168429893E+02 -0.43853082877E+00  0.28487129888E+02  0.00000000000E+00 0.  1.
<mgrwt>
<rscale>  0 0.89344307E+02</rscale>
<asrwt>0</asrwt>
<pdfrwt beam="2">  1        1 0.19378007E-01 0.89344307E+02</pdfrwt>
<pdfrwt beam="1">  1       -1 0.24374625E-02 0.89344307E+02</pdfrwt>
<totfact> 0.11478810E+05</totfact>
</mgrwt>
</event>
<event>
 5    1  0.3957498E+001  0.7937763E+02  0.7546771E-02  0.1330827E+00
         -1   -1    0    0    0  501 -0.00000000000E+00  0.00000000000E+00  0.18057081353E+02  0.18057081353E+02  0.00000000000E+00 0.  1.
          1   -1    0    0  501    0  0.00000000000E+00 -0.00000000000E+00 -0.87234579182E+02  0.87234579182E+02  0.00000000000E+00 0. -1.
         23    2    1    2    0    0  0.00000000000E+00  0.00000000000E+00 -0.69177497829E+02  0.10529166053E+03  0.79377626395E+02 0.  0.
          2    1    3    3  502    0  0.37561683864E+02 -0.93057614975E+01 -0.46283072806E+02  0.60329098453E+02  0.00000000000E+00 0. -1.
         -2    1    3    3    0  502 -0.37561683864E+02  0.93057614975E+01 -0.22894425023E+02  0.44962562081E+02  0.00000000000E+00 0.  1.
<mgrwt>
<rscale>  0 0.79377626E+02</rscale>
<asrwt>0</asrwt>
<pdfrwt beam="2">  1        1 0.13420704E-01 0.79377626E+02</pdfrwt>
<pdfrwt beam="1">  1       -1 0.27780125E-02 0.79377626E+02</pdfrwt>
<totfact> 0.14871627E+05</totfact>
</mgrwt>
</event>
<event>
 5    1  0.3957498E+001  0.9041666E+02  0.7546771E-02  0.1301846E+00
         -3   -1    0    0    0  501 -0.00000000000E+00  0.00000000000E+00  0.13064764322E+01  0.13064764322E+01  0.00000000000E+00 0.  1.
          3   -1    0    0  501    0  0.00000000000E+00 -0.00000000000E+00 -0.15643552694E+04  0.15643552694E+04  0.00000000000E+00 0. -1.
         23    2    1    2    0    0  0.00000000000E+00  0.00000000000E+00 -0.15630487929E+04  0.15656617458E+04  0.90416664195E+02 0.  0.
          2    1    3    3  502    0 -0.42251326554E+02  0.10851561149E+02 -0.98704098047E+03  0.98800446765E+03  0.00000000000E+00 0. -1.
         -2    1    3    3    0  502  0.42251326554E+02 -0.10851561149E+02 -0.57600781247E+03  0.57765727815E+03  0.00000000000E+00 0.  1.
<mgrwt>
<rscale>  0 0.90416664E+02</rscale>
<asrwt>0</asrwt>
<pdfrwt beam="2">  1        3 0.24067002E+00 0.90416664E+02</pdfrwt>
<pdfrwt beam="1">  1       -3 0.20099639E-03 0.90416664E+02</pdfrwt>
<totfact> 0.58592902E+03</totfact>
</mgrwt>
</event>
<event>
 5    1  0.3957498E+001  0.9029000E+02  0.7546771E-02  0.1302151E+00
          2   -1    0    0  501    0  0.00000000000E+00  0.00000000000E+00  0.30556659193E+04  0.30556659193E+04  0.00000000000E+00 0. -1.
         -2   -1    0    0    0  501 -0.00000000000E+00 -0.00000000000E+00 -0.66698100049E+00  0.66698100049E+00  0.00000000000E+00 0.  1.
         23    2    1    2    0    0  0.00000000000E+00  0.00000000000E+00  0.30549989383E+04  0.30563329003E+04  0.90290001928E+02 0.  0.
          2    1    3    3  502    0 -0.30761157304E+02 -0.27512821523E+02  0.21469364754E+04  0.21473330980E+04  0.00000000000E+00 0. -1.
         -2    1    3    3    0  502  0.30761157304E+02  0.27512821523E+02  0.90806246288E+03  0.90899980233E+03  0.00000000000E+00 0.  1.
<mgrwt>
<rscale>  0 0.90290002E+02</rscale>
<asrwt>0</asrwt>
<pdfrwt beam="1">  1        2 0.47009124E+00 0.90290002E+02</pdfrwt>
<pdfrwt beam="2">  1       -2 0.10261491E-03 0.90290002E+02</pdfrwt>
<totfact> 0.99705398E+04</totfact>
</mgrwt>
</event>
<event>
 5    1  0.3957498E+001  0.9198656E+02  0.7546771E-02  0.1298111E+00
          3   -1    0    0  501    0  0.00000000000E+00  0.00000000000E+00  0.25876529585E+03  0.25876529585E+03  0.00000000000E+00 0. -1.
         -3   -1    0    0    0  501 -0.00000000000E+00 -0.00000000000E+00 -0.81749052304E+01  0.81749052304E+01  0.00000000000E+00 0.  1.
         23    2    1    2    0    0  0.00000000000E+00  0.00000000000E+00  0.25059039062E+03  0.26694020108E+03  0.91986559247E+02 0.  0.
          2    1    3    3  502    0 -0.37214119869E+02 -0.25521332022E+02  0.99477208244E+02  0.10923343841E+03  0.00000000000E+00 0.  1.
         -2    1    3    3    0  502  0.37214119869E+02  0.25521332022E+02  0.15111318238E+03  0.15770676268E+03  0.00000000000E+00 0. -1.
<mgrwt>
<rscale>  0 0.91986559E+02</rscale>
<asrwt>0</asrwt>
<pdfrwt beam="1">  1        3 0.39810039E-01 0.91986559E+02</pdfrwt>
<pdfrwt beam="2">  1       -3 0.12576779E-02 0.91986559E+02</pdfrwt>
<totfact> 0.24772452E+04</totfact>
</mgrwt>
</event>
<event>
 5    1  0.3957498E+001  0.9055474E+02  0.7546771E-02  0.1301514E+00
         -1   -1    0    0    0  501 -0.00000000000E+00  0.00000000000E+00  0.15556397263E+03  0.15556397263E+03  0.00000000000E+00 0.  1.
          1   -1    0    0  501    0  0.00000000000E+00 -0.00000000000E+00 -0.13178117511E+02  0.13178117511E+02  0.00000000000E+00 0. -1.
         23    2    1    2    0    0  0.00000000000E+00  0.00000000000E+00  0.14238585512E+03  0.16874209014E+03  0.90554741715E+02 0.  0.
          2    1    3    3  502    0  0.31619827708E+02  0.19947168293E+02  0.23599352487E+02  0.44211225554E+02  0.00000000000E+00 0. -1.
         -2    1    3    3    0  502 -0.31619827708E+02 -0.19947168293E+02  0.11878650263E+03  0.12453086459E+03  0.00000000000E+00 0.  1.
<mgrwt>
<rscale>  0 0.90554742E+02</rscale>
<asrwt>0</asrwt>
<pdfrwt beam="2">  1        1 0.20274028E-02 0.90554742E+02</pdfrwt>
<pdfrwt beam="1">  1       -1 0.23932918E-01 0.90554742E+02</pdfrwt>
<totfact> 0.75475144E+04</totfact>
</mgrwt>
</event>
<event>
 5    1  0.3957498E+001  0.9191851E+02  0.7546771E-02  0.1298271E+00
          2   -1    0    0  501    0  0.00000000000E+00  0.00000000000E+00  0.39917484557E+03  0.39917484557E+03  0.00000000000E+00 0. -1.
         -2   -1    0    0    0  501 -0.00000000000E+00 -0.00000000000E+00 -0.52915487791E+01  0.52915487791E+01  0.00000000000E+00 0.  1.
         23    2    1    2    0    0  0.00000000000E+00  0.00000000000E+00  0.39388329679E+03  0.40446639435E+03  0.91918511014E+02 0.  0.
          2    1    3    3  502    0  0.26012858760E+02 -0.34531526405E+02  0.26555739149E+03  0.26905356959E+03  0.00000000000E+00 0. -1.
         -2    1    3    3    0  502 -0.26012858760E+02  0.34531526405E+02  0.12832590531E+03  0.13541282476E+03  0.00000000000E+00 0.  1.
<mgrwt>
<rscale>  0 0.91918511E+02</rscale>
<asrwt>0</asrwt>
<pdfrwt beam="1">  1        2 0.61411491E-01 0.91918511E+02</pdfrwt>
<pdfrwt beam="2">  1       -2 0.81408474E-03 0.91918511E+02</pdfrwt>
<totfact> 0.19522871E+05</totfact>
</mgrwt>
</event>
<event>
 5    1  0.3957498E+001  0.7626275E+02  0.7546771E-02  0.1340005E+00
          3   -1    0    0  501    0  0.00000000000E+00  0.00000000000E+00  0.11868366488E+02  0.11868366488E+02  0.00000000000E+00 0. -1.
         -3   -1    0    0    0  501 -0.00000000000E+00 -0.00000000000E+00 -0.12251068766E+03  0.12251068766E+03  0.00000000000E+00 0.  1.
         23    2    1    2    0    0  0.00000000000E+00  0.00000000000E+00 -0.11064232117E+03  0.13437905414E+03  0.76262749487E+02 0.  0.
          2    1    3    3  502    0 -0.29179408245E+01 -0.27801049683E+02 -0.10101882463E+03  0.10481515001E+03  0.00000000000E+00 0.  1.
         -2    1    3    3    0  502  0.29179408245E+01  0.27801049683E+02 -0.96234965407E+01  0.29563904136E+02  0.00000000000E+00 0. -1.
<mgrwt>
<rscale>  0 0.76262749E+02</rscale>
<asrwt>0</asrwt>
<pdfrwt beam="1">  1        3 0.18259026E-02 0.76262749E+02</pdfrwt>
<pdfrwt beam="2">  1       -3 0.18847798E-01 0.76262749E+02</pdfrwt>
<totfact> 0.52127019E+04</totfact>
</mgrwt>
</event>
<event>
 5    1  0.3957498E+001  0.9069383E+02  0.7546771E-02  0.1301180E+00
          1   -1    0    0  501    0  0.00000000000E+00  0.00000000000E+00  0.44439438748E+01  0.44439438748E+01  0.00000000000E+00 0. -1.
         -1   -1    0    0    0  501 -0.00000000000E+00 -0.00000000000E+00 -0.46272918186E+03  0.46272918186E+03  0.00000000000E+00 0.  1.
         23    2    1    2    0    0  0.00000000000E+00  0.00000000000E+00 -0.45828523798E+03  0.46717312573E+03  0.90693825884E+02 0.  0.
          2    1    3    3  502    0  0.94364191891E-01  0.41815494253E+02 -0.13877079235E+03  0.14493404457E+03  0.00000000000E+00 0. -1.
         -2    1    3    3    0  502 -0.94364191891E-01 -0.41815494253E+02 -0.31951444563E+03  0.32223908116E+03  0.00000000000E+00 0.  1.
<mgrwt>
<rscale>  0 0.90693826E+02</rscale>
<asrwt>0</asrwt>
<pdfrwt beam="1">  1        1 0.68368329E-03 0.90693826E+02</pdfrwt>
<pdfrwt beam="2">  1       -1 0.71189145E-01 0.90693826E+02</pdfrwt>
<totfact> 0.49954749E+04</totfact>
</mgrwt>
</event>
<event>
 5    1  0.3957498E+001  0.9123641E+02  0.7546771E-02  0.1299885E+00
          3   -1    0    0  501    0  0.00000000000E+00  0.00000000000E+00  0.12605654171E+04  0.12605654171E+04  0.00000000000E+00 0. -1.
         -3   -1    0    0    0  501 -0.00000000000E+00 -0.00000000000E+00 -0.16508630030E+01  0.16508630030E+01  0.00000000000E+00 0.  1.
         23    2    1    2    0    0  0.00000000000E+00  0.00000000000E+00  0.12589145541E+04  0.12622162801E+04  0.91236413999E+02 0.  0.
          2    1    3    3  502    0 -0.40015577740E+02 -0.49326926980E+01  0.92470226503E+03  0.92558082136E+03  0.00000000000E+00 0. -1.
         -2    1    3    3    0  502  0.40015577740E+02  0.49326926980E+01  0.33421228904E+03  0.33663545872E+03  0.00000000000E+00 0.  1.
<mgrwt>
<rscale>  0 0.91236414E+02</rscale>
<asrwt>0</asrwt>
<pdfrwt beam="1">  1        3 0.19393237E+00 0.91236414E+02</pdfrwt>
<pdfrwt beam="2">  1       -3 0.25397993E-03 0.91236414E+02</pdfrwt>
<totfact> 0.76948624E+03</totfact>
</mgrwt>
</event>
<event>
 5    1  0.3957498E+001  0.9121657E+02  0.7546771E-02  0.1299932E+00
          3   -1    0    0  501    0  0.00000000000E+00  0.00000000000E+00  0.14663583702E+02  0.14663583702E+02  0.00000000000E+00 0. -1.
         -3   -1    0    0    0  501 -0.00000000000E+00 -0.00000000000E+00 -0.14185587321E+03  0.14185587321E+03  0.00000000000E+00 0.  1.
         23    2    1    2    0    0  0.00000000000E+00  0.00000000000E+00 -0.12719228950E+03  0.15651945691E+03  0.91216565830E+02 0.  0.
          2    1    3    3  502    0 -0.63917312395E+01  0.44639484492E+02 -0.51885427963E+02  0.68743257406E+02  0.00000000000E+00 0. -1.
         -2    1    3    3    0  502  0.63917312395E+01 -0.44639484492E+02 -0.75306861542E+02  0.87776199503E+02  0.00000000000E+00 0.  1.
<mgrwt>
<rscale>  0 0.91216566E+02</rscale>
<asrwt>0</asrwt>
<pdfrwt beam="1">  1        3 0.22559360E-02 0.91216566E+02</pdfrwt>
<pdfrwt beam="2">  1       -3 0.21823980E-01 0.91216566E+02</pdfrwt>
<totfact> 0.30877269E+04</totfact>
</mgrwt>
</event>
<event>
 5    1  0.3957498E+001  0.9166181E+02  0.7546771E-02  0.1298877E+00
          3   -1    0    0  501    0  0.00000000000E+00  0.00000000000E+00  0.13162300461E+03  0.13162300461E+03  0.00000000000E+00 0. -1.
         -3   -1    0    0    0  501 -0.00000000000E+00 -0.00000000000E+00 -0.15958242318E+02  0.15958242318E+02  0.00000000000E+00 0.  1.
         23    2    1    2    0    0  0.00000000000E+00  0.00000000000E+00  0.11566476230E+03  0.14758124693E+03  0.91661808892E+02 0.  0.
          2    1    3    3  502    0 -0.87293221281E+01  0.39948775818E+02  0.91155855311E+02  0.99907435718E+02  0.00000000000E+00 0. -1.
         -2    1    3    3    0  502  0.87293221281E+01 -0.39948775818E+02  0.24508906985E+02  0.47673811215E+02  0.00000000000E+00 0.  1.
<mgrwt>
<rscale>  0 0.91661809E+02</rscale>
<asrwt>0</asrwt>
<pdfrwt beam="1">  1        3 0.20249692E-01 0.91661809E+02</pdfrwt>
<pdfrwt beam="2">  1       -3 0.24551143E-02 0.91661809E+02</pdfrwt>
<totfact> 0.31006029E+04</totfact>
</mgrwt>
</event>
<event>
 5    1  0.3957498E+001  0.9198005E+02  0.7546771E-02  0.1298126E+00
          2   -1    0    0  501    0  0.00000000000E+00  0.00000000000E+00  0.20060534623E+01  0.20060534623E+01  0.00000000000E+00 0. -1.
         -2   -1    0    0    0  501 -0.00000000000E+00 -0.00000000000E+00 -0.10543499921E+04  0.10543499921E+04  0.00000000000E+00 0.  1.
         23    2    1    2    0    0  0.00000000000E+00  0.00000000000E+00 -0.10523439387E+04  0.10563560456E+04  0.91980051146E+02 0.  0.
          2    1    3    3  502    0  0.24855248610E+02 -0.38619470084E+02 -0.55391535144E+03  0.55581603379E+03  0.00000000000E+00 0.  1.
         -2    1    3    3    0  502 -0.24855248610E+02  0.38619470084E+02 -0.49842858721E+03  0.50054001179E+03  0.00000000000E+00 0. -1.
<mgrwt>
<rscale>  0 0.91980051E+02</rscale>
<asrwt>0</asrwt>
<pdfrwt beam="1">  1        2 0.30862229E-03 0.91980051E+02</pdfrwt>
<pdfrwt beam="2">  1       -2 0.16220838E+00 0.91980051E+02</pdfrwt>
<totfact> 0.17142153E+04</totfact>
</mgrwt>
</event>
<event>
 5    1  0.3957498E+001  0.9267076E+02  0.7546771E-02  0.1296510E+00
         -2   -1    0    0    0  501 -0.00000000000E+00  0.00000000000E+00  0.66336950092E+00  0.66336950092E+00  0.00000000000E+00 0.  1.
          2   -1    0    0  501    0  0.00000000000E+00 -0.00000000000E+00 -0.32364582007E+04  0.32364582007E+04  0.00000000000E+00 0. -1.
         23    2    1    2    0    0  0.00000000000E+00  0.00000000000E+00 -0.32357948312E+04  0.32371215702E+04  0.92670764782E+02 0.  0.
          2    1    3    3  502    0  0.39909870363E+02  0.39669916140E+01 -0.24284515988E+04  0.24287827615E+04  0.00000000000E+00 0. -1.
         -2    1    3    3    0  502 -0.39909870363E+02 -0.39669916140E+01 -0.80734323238E+03  0.80833880870E+03  0.00000000000E+00 0.  1.
<mgrwt>
<rscale>  0 0.92670765E+02</rscale>
<asrwt>0</asrwt>
<pdfrwt beam="2">  1        2 0.49790371E+00 0.92670765E+02</pdfrwt>
<pdfrwt beam="1">  1       -2 0.10205950E-03 0.92670765E+02</pdfrwt>
<totfact> 0.78839053E+04</totfact>
</mgrwt>
</event>
<event>
 5    1  0.3957498E+001  0.9169314E+02  0.7546771E-02  0.1298803E+00
         -1   -1    0    0    0  501 -0.00000000000E+00  0.00000000000E+00  0.19580080905E+01  0.19580080905E+01  0.00000000000E+00 0.  1.
          1   -1    0    0  501    0  0.00000000000E+00 -0.00000000000E+00 -0.10734930115E+04  0.10734930115E+04  0.00000000000E+00 0. -1.
         23    2    1    2    0    0  0.00000000000E+00  0.00000000000E+00 -0.10715350034E+04  0.10754510196E+04  0.91693140454E+02 0.  0.
          2    1    3    3  502    0  0.82993745499E+01 -0.19037636404E+02 -0.10151582062E+04  0.10153706195E+04  0.00000000000E+00 0. -1.
         -2    1    3    3    0  502 -0.82993745499E+01  0.19037636404E+02 -0.56376797177E+02  0.60080400112E+02  0.00000000000E+00 0.  1.
<mgrwt>
<rscale>  0 0.91693140E+02</rscale>
<asrwt>0</asrwt>
<pdfrwt beam="2">  1        1 0.16515259E+00 0.91693140E+02</pdfrwt>
<pdfrwt beam="1">  1       -1 0.30123234E-03 0.91693140E+02</pdfrwt>
<totfact> 0.13116525E+05</totfact>
</mgrwt>
</event>
<event>
 5    1  0.3957498E+001  0.9147804E+02  0.7546771E-02  0.1299311E+00
          1   -1    0    0  501    0  0.00000000000E+00  0.00000000000E+00  0.11136273339E+04  0.11136273339E+04  0.00000000000E+00 0. -1.
         -1   -1    0    0    0  501 -0.00000000000E+00 -0.00000000000E+00 -0.18785978244E+01  0.18785978244E+01  0.00000000000E+00 0.  1.
         23    2    1    2    0    0  0.00000000000E+00  0.00000000000E+00  0.11117487361E+04  0.11155059317E+04  0.91478038601E+02 0.  0.
          2    1    3    3  502    0  0.24436148556E+02  0.20650050484E+02  0.95448044705E+03  0.95501647825E+03  0.00000000000E+00 0. -1.
         -2    1    3    3    0  502 -0.24436148556E+02 -0.20650050484E+02  0.15726828902E+03  0.16048945346E+03  0.00000000000E+00 0.  1.
<mgrwt>
<rscale>  0 0.91478039E+02</rscale>
<asrwt>0</asrwt>
<pdfrwt beam="1">  1        1 0.17132675E+00 0.91478039E+02</pdfrwt>
<pdfrwt beam="2">  1       -1 0.28901594E-03 0.91478039E+02</pdfrwt>
<totfact> 0.13025662E+05</totfact>
</mgrwt>
</event>
<event>
 5    1  0.3957498E+001  0.9577492E+02  0.7546771E-02  0.1289440E+00
          2   -1    0    0  501    0  0.00000000000E+00  0.00000000000E+00  0.78964168508E+02  0.78964168508E+02  0.00000000000E+00 0. -1.
         -2   -1    0    0    0  501 -0.00000000000E+00 -0.00000000000E+00 -0.29041132465E+02  0.29041132465E+02  0.00000000000E+00 0.  1.
         23    2    1    2    0    0  0.00000000000E+00  0.00000000000E+00  0.49923036043E+02  0.10800530097E+03  0.95774921094E+02 0.  0.
          2    1    3    3  502    0  0.29941858890E+02 -0.22758411741E+02  0.58390688979E+02  0.69454537492E+02  0.00000000000E+00 0. -1.
         -2    1    3    3    0  502 -0.29941858890E+02  0.22758411741E+02 -0.84676529363E+01  0.38550763481E+02  0.00000000000E+00 0.  1.
<mgrwt>
<rscale>  0 0.95774921E+02</rscale>
<asrwt>0</asrwt>
<pdfrwt beam="1">  1        2 0.12148334E-01 0.95774921E+02</pdfrwt>
<pdfrwt beam="2">  1       -2 0.44678666E-02 0.95774921E+02</pdfrwt>
<totfact> 0.99729421E+04</totfact>
</mgrwt>
</event>
<event>
 5    1  0.3957498E+001  0.9295547E+02  0.7546771E-02  0.1295848E+00
          1   -1    0    0  501    0  0.00000000000E+00  0.00000000000E+00  0.49013065780E+02  0.49013065780E+02  0.00000000000E+00 0. -1.
         -1   -1    0    0    0  501 -0.00000000000E+00 -0.00000000000E+00 -0.44073550539E+02  0.44073550539E+02  0.00000000000E+00 0.  1.
         23    2    1    2    0    0  0.00000000000E+00  0.00000000000E+00  0.49395152413E+01  0.93086616319E+02  0.92955469591E+02 0.  0.
          2    1    3    3  502    0 -0.36205041296E+02  0.58269179743E+01  0.31065637589E+02  0.48060709807E+02  0.00000000000E+00 0. -1.
         -2    1    3    3    0  502  0.36205041296E+02 -0.58269179743E+01 -0.26126122348E+02  0.45025906512E+02  0.00000000000E+00 0.  1.
<mgrwt>
<rscale>  0 0.92955470E+02</rscale>
<asrwt>0</asrwt>
<pdfrwt beam="1">  1        1 0.75404717E-02 0.92955470E+02</pdfrwt>
<pdfrwt beam="2">  1       -1 0.67805462E-02 0.92955470E+02</pdfrwt>
<totfact> 0.88553052E+04</totfact>
</mgrwt>
</event>
<event>
 5    1  0.3957498E+001  0.8126343E+02  0.7546771E-02  0.1325504E+00
         -2   -1    0    0    0  501 -0.00000000000E+00  0.00000000000E+00  0.87040346382E+00  0.87040346382E+00  0.00000000000E+00 0.  1.
          2   -1    0    0  501    0  0.00000000000E+00 -0.00000000000E+00 -0.18967483171E+04  0.18967483171E+04  0.00000000000E+00 0. -1.
         23    2    1    2    0    0  0.00000000000E+00  0.00000000000E+00 -0.18958779136E+04  0.18976187205E+04  0.81263431017E+02 0.  0.
          2    1    3    3  502    0 -0.25270200031E+02 -0.31747270411E+02 -0.89860095184E+03  0.89951661621E+03  0.00000000000E+00 0.  1.
         -2    1    3    3    0  502  0.25270200031E+02  0.31747270411E+02 -0.99727696178E+03  0.99810210434E+03  0.00000000000E+00 0. -1.
<mgrwt>
<rscale>  0 0.81263431E+02</rscale>
<asrwt>0</asrwt>
<pdfrwt beam="2">  1        2 0.29180932E+00 0.81263431E+02</pdfrwt>
<pdfrwt beam="1">  1       -2 0.13390736E-03 0.81263431E+02</pdfrwt>
<totfact> 0.27885426E+05</totfact>
</mgrwt>
</event>
<event>
 5    1  0.3957498E+001  0.8964416E+02  0.7546771E-02  0.1303716E+00
          1   -1    0    0  501    0  0.00000000000E+00  0.00000000000E+00  0.16598177849E+02  0.16598177849E+02  0.00000000000E+00 0. -1.
         -1   -1    0    0    0  501 -0.00000000000E+00 -0.00000000000E+00 -0.12103852677E+03  0.12103852677E+03  0.00000000000E+00 0.  1.
         23    2    1    2    0    0  0.00000000000E+00  0.00000000000E+00 -0.10444034892E+03  0.13763670462E+03  0.89644163086E+02 0.  0.
          2    1    3    3  502    0  0.32609359245E+02 -0.18867921945E+02 -0.14937292503E+02  0.40527663345E+02  0.00000000000E+00 0. -1.
         -2    1    3    3    0  502 -0.32609359245E+02  0.18867921945E+02 -0.89503056417E+02  0.97109041273E+02  0.00000000000E+00 0.  1.
<mgrwt>
<rscale>  0 0.89644163E+02</rscale>
<asrwt>0</asrwt>
<pdfrwt beam="1">  1        1 0.25535658E-02 0.89644163E+02</pdfrwt>
<pdfrwt beam="2">  1       -1 0.18621312E-01 0.89644163E+02</pdfrwt>
<totfact> 0.81900581E+04</totfact>
</mgrwt>
</event>
<event>
 5    1  0.3957498E+001  0.9215449E+02  0.7546771E-02  0.1297717E+00
         -2   -1    0    0    0  501 -0.00000000000E+00  0.00000000000E+00  0.41372956619E+01  0.41372956619E+01  0.00000000000E+00 0.  1.
          2   -1    0    0  501    0  0.00000000000E+00 -0.00000000000E+00 -0.51316428604E+03  0.51316428604E+03  0.00000000000E+00 0. -1.
         23    2    1    2    0    0  0.00000000000E+00  0.00000000000E+00 -0.50902699038E+03  0.51730158171E+03  0.92154487129E+02 0.  0.
          2    1    3    3  502    0 -0.37853374914E+02  0.76444955486E+01 -0.39560984541E+03  0.39749020879E+03  0.00000000000E+00 0. -1.
         -2    1    3    3    0  502  0.37853374914E+02 -0.76444955486E+01 -0.11341714497E+03  0.11981137291E+03  0.00000000000E+00 0.  1.
<mgrwt>
<rscale>  0 0.92154487E+02</rscale>
<asrwt>0</asrwt>
<pdfrwt beam="2">  1        2 0.78948323E-01 0.92154487E+02</pdfrwt>
<pdfrwt beam="1">  1       -2 0.63650726E-03 0.92154487E+02</pdfrwt>
<totfact> 0.21125805E+05</totfact>
</mgrwt>
</event>
<event>
 5    1  0.3957498E+001  0.9229497E+02  0.7546771E-02  0.1297387E+00
          2   -1    0    0  501    0  0.00000000000E+00  0.00000000000E+00  0.16292071040E+03  0.16292071040E+03  0.00000000000E+00 0. -1.
         -2   -1    0    0    0  501 -0.00000000000E+00 -0.00000000000E+00 -0.13071330362E+02  0.13071330362E+02  0.00000000000E+00 0.  1.
         23    2    1    2    0    0  0.00000000000E+00  0.00000000000E+00  0.14984938004E+03  0.17599204076E+03  0.92294971229E+02 0.  0.
          2    1    3    3  502    0 -0.21739287895E+02  0.28574652776E+02  0.13020614408E+03  0.13506571503E+03  0.00000000000E+00 0. -1.
         -2    1    3    3    0  502  0.21739287895E+02 -0.28574652776E+02  0.19643235959E+02  0.40926325738E+02  0.00000000000E+00 0.  1.
<mgrwt>
<rscale>  0 0.92294971E+02</rscale>
<asrwt>0</asrwt>
<pdfrwt beam="1">  1        2 0.25064723E-01 0.92294971E+02</pdfrwt>
<pdfrwt beam="2">  1       -2 0.20109740E-02 0.92294971E+02</pdfrwt>
<totfact> 0.13915721E+05</totfact>
</mgrwt>
</event>
<event>
 5    1  0.3957498E+001  0.8964234E+02  0.7546771E-02  0.1303720E+00
         -1   -1    0    0    0  501 -0.00000000000E+00  0.00000000000E+00  0.42835729578E+01  0.42835729578E+01  0.00000000000E+00 0.  1.
          1   -1    0    0  501    0  0.00000000000E+00 -0.00000000000E+00 -0.46898638153E+03  0.46898638153E+03  0.00000000000E+00 0. -1.
         23    2    1    2    0    0  0.00000000000E+00  0.00000000000E+00 -0.46470280857E+03  0.47326995449E+03  0.89642342261E+02 0.  0.
          2    1    3    3  502    0 -0.58156806421E+01  0.29115224529E+02 -0.40962269299E+03  0.41069729614E+03  0.00000000000E+00 0. -1.
         -2    1    3    3    0  502  0.58156806421E+01 -0.29115224529E+02 -0.55080115580E+02  0.62572658350E+02  0.00000000000E+00 0.  1.
<mgrwt>
<rscale>  0 0.89642342E+02</rscale>
<asrwt>0</asrwt>
<pdfrwt beam="2">  1        1 0.72151696E-01 0.89642342E+02</pdfrwt>
<pdfrwt beam="1">  1       -1 0.65901173E-03 0.89642342E+02</pdfrwt>
<totfact> 0.14449634E+05</totfact>
</mgrwt>
</event>
<event>
 5    1  0.3957498E+001  0.8840047E+02  0.7546771E-02  0.1306772E+00
         -1   -1    0    0    0  501 -0.00000000000E+00  0.00000000000E+00  0.15259329965E+01  0.15259329965E+01  0.00000000000E+00 0.  1.
          1   -1    0    0  501    0  0.00000000000E+00 -0.00000000000E+00 -0.12803057651E+04  0.12803057651E+04  0.00000000000E+00 0. -1.
         23    2    1    2    0    0  0.00000000000E+00  0.00000000000E+00 -0.12787798321E+04  0.12818316981E+04  0.88400470871E+02 0.  0.
          2    1    3    3  502    0 -0.36204333023E+02  0.88809677141E+01 -0.98376335409E+03  0.98446938102E+03  0.00000000000E+00 0. -1.
         -2    1    3    3    0  502  0.36204333023E+02 -0.88809677141E+01 -0.29501647804E+03  0.29736231710E+03  0.00000000000E+00 0.  1.
<mgrwt>
<rscale>  0 0.88400471E+02</rscale>
<asrwt>0</asrwt>
<pdfrwt beam="2">  1        1 0.19697002E+00 0.88400471E+02</pdfrwt>
<pdfrwt beam="1">  1       -1 0.23475904E-03 0.88400471E+02</pdfrwt>
<totfact> 0.13361882E+05</totfact>
</mgrwt>
</event>
<event>
 5    1  0.3957498E+001  0.9225019E+02  0.7546771E-02  0.1297492E+00
          4   -1    0    0  501    0  0.00000000000E+00  0.00000000000E+00  0.12942450713E+02  0.12942450713E+02  0.00000000000E+00 0. -1.
         -4   -1    0    0    0  501 -0.00000000000E+00 -0.00000000000E+00 -0.16438341030E+03  0.16438341030E+03  0.00000000000E+00 0.  1.
         23    2    1    2    0    0  0.00000000000E+00  0.00000000000E+00 -0.15144095959E+03  0.17732586101E+03  0.92250185602E+02 0.  0.
          2    1    3    3  502    0  0.43237951149E+02  0.14997835316E+02 -0.86774325641E+02  0.98103206238E+02  0.00000000000E+00 0. -1.
         -2    1    3    3    0  502 -0.43237951149E+02 -0.14997835316E+02 -0.64666633944E+02  0.79222654774E+02  0.00000000000E+00 0.  1.
<mgrwt>
<rscale>  0 0.92250186E+02</rscale>
<asrwt>0</asrwt>
<pdfrwt beam="1">  1        4 0.19911462E-02 0.92250186E+02</pdfrwt>
<pdfrwt beam="2">  1       -4 0.25289756E-01 0.92250186E+02</pdfrwt>
<totfact> 0.21678463E+04</totfact>
</mgrwt>
</event>
<event>
 5    1  0.3957498E+001  0.9094385E+02  0.7546771E-02  0.1300582E+00
         -2   -1    0    0    0  501 -0.00000000000E+00  0.00000000000E+00  0.70552431008E+02  0.70552431008E+02  0.00000000000E+00 0.  1.
          2   -1    0    0  501    0  0.00000000000E+00 -0.00000000000E+00 -0.29307225768E+02  0.29307225768E+02  0.00000000000E+00 0. -1.
         23    2    1    2    0    0  0.00000000000E+00  0.00000000000E+00  0.41245205240E+02  0.99859656776E+02  0.90943851338E+02 0.  0.
          2    1    3    3  502    0  0.39279792265E+02 -0.48267561403E+01  0.45212155020E+02  0.60086093373E+02  0.00000000000E+00 0.  1.
         -2    1    3    3    0  502 -0.39279792265E+02  0.48267561403E+01 -0.39669497803E+01  0.39773563403E+02  0.00000000000E+00 0. -1.
<mgrwt>
<rscale>  0 0.90943851E+02</rscale>
<asrwt>0</asrwt>
<pdfrwt beam="2">  1        2 0.45088040E-02 0.90943851E+02</pdfrwt>
<pdfrwt beam="1">  1       -2 0.10854220E-01 0.90943851E+02</pdfrwt>
<totfact> 0.88586138E+04</totfact>
</mgrwt>
</event>
<event>
 5    1  0.3957498E+001  0.6688352E+02  0.7546771E-02  0.1371023E+00
         -1   -1    0    0    0  501 -0.00000000000E+00  0.00000000000E+00  0.91357452379E+00  0.91357452379E+00  0.00000000000E+00 0.  1.
          1   -1    0    0  501    0  0.00000000000E+00 -0.00000000000E+00 -0.12241489199E+04  0.12241489199E+04  0.00000000000E+00 0. -1.
         23    2    1    2    0    0  0.00000000000E+00  0.00000000000E+00 -0.12232353453E+04  0.12250624944E+04  0.66883518643E+02 0.  0.
          2    1    3    3  502    0 -0.26814384402E+02 -0.19633414898E+02 -0.54340534329E+03  0.54442065474E+03  0.00000000000E+00 0. -1.
         -2    1    3    3    0  502  0.26814384402E+02  0.19633414898E+02 -0.67983000204E+03  0.68064183964E+03  0.00000000000E+00 0.  1.
<mgrwt>
<rscale>  0 0.66883519E+02</rscale>
<asrwt>0</asrwt>
<pdfrwt beam="2">  1        1 0.18833078E+00 0.66883519E+02</pdfrwt>
<pdfrwt beam="1">  1       -1 0.14054980E-03 0.66883519E+02</pdfrwt>
<totfact> 0.28261637E+05</totfact>
</mgrwt>
</event>
<event>
 5    1  0.3957498E+001  0.8921156E+02  0.7546771E-02  0.1304772E+00
         -2   -1    0    0    0  501 -0.00000000000E+00  0.00000000000E+00  0.12480626752E+02  0.12480626752E+02  0.00000000000E+00 0.  1.
          2   -1    0    0  501    0  0.00000000000E+00 -0.00000000000E+00 -0.15942113358E+03  0.15942113358E+03  0.00000000000E+00 0. -1.
         23    2    1    2    0    0  0.00000000000E+00  0.00000000000E+00 -0.14694050683E+03  0.17190176033E+03  0.89211561239E+02 0.  0.
          2    1    3    3  502    0 -0.27471811309E+02  0.29512041835E+00 -0.14118340009E+03  0.14383163759E+03  0.00000000000E+00 0. -1.
         -2    1    3    3    0  502  0.27471811309E+02 -0.29512041835E+00 -0.57571067438E+01  0.28070122742E+02  0.00000000000E+00 0.  1.
<mgrwt>
<rscale>  0 0.89211561E+02</rscale>
<asrwt>0</asrwt>
<pdfrwt beam="2">  1        2 0.24526325E-01 0.89211561E+02</pdfrwt>
<pdfrwt beam="1">  1       -2 0.19200967E-02 0.89211561E+02</pdfrwt>
<totfact> 0.15141953E+05</totfact>
</mgrwt>
</event>
<event>
 5    1  0.3957498E+001  0.9022783E+02  0.7546771E-02  0.1302301E+00
         -1   -1    0    0    0  501 -0.00000000000E+00  0.00000000000E+00  0.27654661552E+02  0.27654661552E+02  0.00000000000E+00 0.  1.
          1   -1    0    0  501    0  0.00000000000E+00 -0.00000000000E+00 -0.73595748949E+02  0.73595748949E+02  0.00000000000E+00 0. -1.
         23    2    1    2    0    0  0.00000000000E+00  0.00000000000E+00 -0.45941087397E+02  0.10125041050E+03  0.90227834482E+02 0.  0.
          2    1    3    3  502    0 -0.31927209749E+02  0.20702080143E+02 -0.50166356324E+02  0.62964959711E+02  0.00000000000E+00 0. -1.
         -2    1    3    3    0  502  0.31927209749E+02 -0.20702080143E+02  0.42252689276E+01  0.38285450789E+02  0.00000000000E+00 0.  1.
<mgrwt>
<rscale>  0 0.90227834E+02</rscale>
<asrwt>0</asrwt>
<pdfrwt beam="2">  1        1 0.11322423E-01 0.90227834E+02</pdfrwt>
<pdfrwt beam="1">  1       -1 0.42545633E-02 0.90227834E+02</pdfrwt>
<totfact> 0.10233751E+05</totfact>
</mgrwt>
</event>
<event>
 5    1  0.3957498E+001  0.8947958E+02  0.7546771E-02  0.1304117E+00
          1   -1    0    0  501    0  0.00000000000E+00  0.00000000000E+00  0.11008337759E+02  0.11008337759E+02  0.00000000000E+00 0. -1.
         -1   -1    0    0    0  501 -0.00000000000E+00 -0.00000000000E+00 -0.18183024439E+03  0.18183024439E+03  0.00000000000E+00 0.  1.
         23    2    1    2    0    0  0.00000000000E+00  0.00000000000E+00 -0.17082190663E+03  0.19283858215E+03  0.89479578566E+02 0.  0.
          2    1    3    3  502    0  0.40452803747E+02  0.17813698011E+02 -0.70496766803E+02  0.83207880021E+02  0.00000000000E+00 0. -1.
         -2    1    3    3    0  502 -0.40452803747E+02 -0.17813698011E+02 -0.10032513983E+03  0.10963070213E+03  0.00000000000E+00 0.  1.
<mgrwt>
<rscale>  0 0.89479579E+02</rscale>
<asrwt>0</asrwt>
<pdfrwt beam="1">  1        1 0.16935905E-02 0.89479579E+02</pdfrwt>
<pdfrwt beam="2">  1       -1 0.27973883E-01 0.89479579E+02</pdfrwt>
<totfact> 0.74844588E+04</totfact>
</mgrwt>
</event>
<event>
 5    1  0.3957498E+001  0.8724939E+02  0.7546771E-02  0.1309653E+00
          1   -1    0    0  501    0  0.00000000000E+00  0.00000000000E+00  0.85674663403E+03  0.85674663403E+03  0.00000000000E+00 0. -1.
         -1   -1    0    0    0  501 -0.00000000000E+00 -0.00000000000E+00 -0.22213265448E+01  0.22213265448E+01  0.00000000000E+00 0.  1.
         23    2    1    2    0    0  0.00000000000E+00  0.00000000000E+00  0.85452530749E+03  0.85896796058E+03  0.87249390607E+02 0.  0.
          2    1    3    3  502    0  0.71226183503E+01 -0.41412212986E+02  0.31185748630E+03  0.31467569788E+03  0.00000000000E+00 0. -1.
         -2    1    3    3    0  502 -0.71226183503E+01  0.41412212986E+02  0.54266782118E+03  0.54429226269E+03  0.00000000000E+00 0.  1.
<mgrwt>
<rscale>  0 0.87249391E+02</rscale>
<asrwt>0</asrwt>
<pdfrwt beam="1">  1        1 0.13180691E+00 0.87249391E+02</pdfrwt>
<pdfrwt beam="2">  1       -1 0.34174323E-03 0.87249391E+02</pdfrwt>
<totfact> 0.15750390E+05</totfact>
</mgrwt>
</event>
<event>
 5    1  0.3957498E+001  0.7331345E+02  0.7546771E-02  0.1349175E+00
          2   -1    0    0  501    0  0.00000000000E+00  0.00000000000E+00  0.10368445019E+04  0.10368445019E+04  0.00000000000E+00 0. -1.
         -2   -1    0    0    0  501 -0.00000000000E+00 -0.00000000000E+00 -0.12959664307E+01  0.12959664307E+01  0.00000000000E+00 0.  1.
         23    2    1    2    0    0  0.00000000000E+00  0.00000000000E+00  0.10355485355E+04  0.10381404684E+04  0.73313454928E+02 0.  0.
          2    1    3    3  502    0 -0.27687142439E+02  0.19295091095E+02  0.72043841507E+03  0.72122838845E+03  0.00000000000E+00 0. -1.
         -2    1    3    3    0  502  0.27687142439E+02 -0.19295091095E+02  0.31511012044E+03  0.31691207992E+03  0.00000000000E+00 0.  1.
<mgrwt>
<rscale>  0 0.73313455E+02</rscale>
<asrwt>0</asrwt>
<pdfrwt beam="1">  1        2 0.15951388E+00 0.73313455E+02</pdfrwt>
<pdfrwt beam="2">  1       -2 0.19938028E-03 0.73313455E+02</pdfrwt>
<totfact> 0.44159974E+05</totfact>
</mgrwt>
</event>
<event>
 5    1  0.3957498E+001  0.9287430E+02  0.7546771E-02  0.1296037E+00
          1   -1    0    0  501    0  0.00000000000E+00  0.00000000000E+00  0.23779281154E+02  0.23779281154E+02  0.00000000000E+00 0. -1.
         -1   -1    0    0    0  501 -0.00000000000E+00 -0.00000000000E+00 -0.90684354296E+02  0.90684354296E+02  0.00000000000E+00 0.  1.
         23    2    1    2    0    0  0.00000000000E+00  0.00000000000E+00 -0.66905073142E+02  0.11446363545E+03  0.92874296920E+02 0.  0.
          2    1    3    3  502    0 -0.28988433816E+01 -0.27811030694E+02  0.12240770238E+02  0.30523649475E+02  0.00000000000E+00 0. -1.
         -2    1    3    3    0  502  0.28988433816E+01  0.27811030694E+02 -0.79145843380E+02  0.83939985976E+02  0.00000000000E+00 0.  1.
<mgrwt>
<rscale>  0 0.92874297E+02</rscale>
<asrwt>0</asrwt>
<pdfrwt beam="1">  1        1 0.36583509E-02 0.92874297E+02</pdfrwt>
<pdfrwt beam="2">  1       -1 0.13951439E-01 0.92874297E+02</pdfrwt>
<totfact> 0.78992535E+04</totfact>
</mgrwt>
</event>
<event>
 5    1  0.3957498E+001  0.9053995E+02  0.7546771E-02  0.1301549E+00
          2   -1    0    0  501    0  0.00000000000E+00  0.00000000000E+00  0.83299072639E+01  0.83299072639E+01  0.00000000000E+00 0. -1.
         -2   -1    0    0    0  501 -0.00000000000E+00 -0.00000000000E+00 -0.24602563537E+03  0.24602563537E+03  0.00000000000E+00 0.  1.
         23    2    1    2    0    0  0.00000000000E+00  0.00000000000E+00 -0.23769572810E+03  0.25435554263E+03  0.90539952002E+02 0.  0.
          2    1    3    3  502    0 -0.36060562845E+02 -0.84504494134E+01 -0.45719391330E+02  0.58839077419E+02  0.00000000000E+00 0. -1.
         -2    1    3    3    0  502  0.36060562845E+02  0.84504494134E+01 -0.19197633677E+03  0.19551646521E+03  0.00000000000E+00 0.  1.
<mgrwt>
<rscale>  0 0.90539952E+02</rscale>
<asrwt>0</asrwt>
<pdfrwt beam="1">  1        2 0.12815241E-02 0.90539952E+02</pdfrwt>
<pdfrwt beam="2">  1       -2 0.37850100E-01 0.90539952E+02</pdfrwt>
<totfact> 0.57652731E+04</totfact>
</mgrwt>
</event>
<event>
 5    1  0.3957498E+001  0.8803800E+02  0.7546771E-02  0.1307674E+00
          4   -1    0    0  501    0  0.00000000000E+00  0.00000000000E+00  0.10287174151E+02  0.10287174151E+02  0.00000000000E+00 0. -1.
         -4   -1    0    0    0  501 -0.00000000000E+00 -0.00000000000E+00 -0.18835807427E+03  0.18835807427E+03  0.00000000000E+00 0.  1.
         23    2    1    2    0    0  0.00000000000E+00  0.00000000000E+00 -0.17807090012E+03  0.19864524843E+03  0.88037998903E+02 0.  0.
          2    1    3    3  502    0 -0.34072142730E+02 -0.24908689525E+02 -0.60824784571E+02  0.74033831066E+02  0.00000000000E+00 0. -1.
         -2    1    3    3    0  502  0.34072142730E+02  0.24908689525E+02 -0.11724611555E+03  0.12461141736E+03  0.00000000000E+00 0.  1.
<mgrwt>
<rscale>  0 0.88037999E+02</rscale>
<asrwt>0</asrwt>
<pdfrwt beam="1">  1        4 0.15826423E-02 0.88037999E+02</pdfrwt>
<pdfrwt beam="2">  1       -4 0.28978162E-01 0.88037999E+02</pdfrwt>
<totfact> 0.23542446E+04</totfact>
</mgrwt>
</event>
<event>
 5    1  0.3957498E+001  0.9146491E+02  0.7546771E-02  0.1299342E+00
         -3   -1    0    0    0  501 -0.00000000000E+00  0.00000000000E+00  0.23652172418E+03  0.23652172418E+03  0.00000000000E+00 0.  1.
          3   -1    0    0  501    0  0.00000000000E+00 -0.00000000000E+00 -0.88425603340E+01  0.88425603340E+01  0.00000000000E+00 0. -1.
         23    2    1    2    0    0  0.00000000000E+00  0.00000000000E+00  0.22767916385E+03  0.24536428451E+03  0.91464913849E+02 0.  0.
          2    1    3    3  502    0 -0.29035145522E+02  0.31332885934E+01  0.19428617822E+02  0.35076036882E+02  0.00000000000E+00 0. -1.
         -2    1    3    3    0  502  0.29035145522E+02 -0.31332885934E+01  0.20825054602E+03  0.21028824763E+03  0.00000000000E+00 0.  1.
<mgrwt>
<rscale>  0 0.91464914E+02</rscale>
<asrwt>0</asrwt>
<pdfrwt beam="2">  1        3 0.13603941E-02 0.91464914E+02</pdfrwt>
<pdfrwt beam="1">  1       -3 0.36387953E-01 0.91464914E+02</pdfrwt>
<totfact> 0.26084372E+04</totfact>
</mgrwt>
</event>
<event>
 5    1  0.3957498E+001  0.9268477E+02  0.7546771E-02  0.1296477E+00
          1   -1    0    0  501    0  0.00000000000E+00  0.00000000000E+00  0.51267967485E+02  0.51267967485E+02  0.00000000000E+00 0. -1.
         -1   -1    0    0    0  501 -0.00000000000E+00 -0.00000000000E+00 -0.41890029329E+02  0.41890029329E+02  0.00000000000E+00 0.  1.
         23    2    1    2    0    0  0.00000000000E+00  0.00000000000E+00  0.93779381562E+01  0.93157996814E+02  0.92684770304E+02 0.  0.
          2    1    3    3  502    0  0.21793540833E+02  0.19752011835E+01  0.45747961728E+02  0.50712284942E+02  0.00000000000E+00 0. -1.
         -2    1    3    3    0  502 -0.21793540833E+02 -0.19752011835E+01 -0.36370023571E+02  0.42445711872E+02  0.00000000000E+00 0.  1.
<mgrwt>
<rscale>  0 0.92684770E+02</rscale>
<asrwt>0</asrwt>
<pdfrwt beam="1">  1        1 0.78873795E-02 0.92684770E+02</pdfrwt>
<pdfrwt beam="2">  1       -1 0.64446200E-02 0.92684770E+02</pdfrwt>
<totfact> 0.89894302E+04</totfact>
</mgrwt>
</event>
<event>
 5    1  0.3957498E+001  0.8613520E+02  0.7546771E-02  0.1312490E+00
         -2   -1    0    0    0  501 -0.00000000000E+00  0.00000000000E+00  0.23477079316E+01  0.23477079316E+01  0.00000000000E+00 0.  1.
          2   -1    0    0  501    0  0.00000000000E+00 -0.00000000000E+00 -0.79005495198E+03  0.79005495198E+03  0.00000000000E+00 0. -1.
         23    2    1    2    0    0  0.00000000000E+00  0.00000000000E+00 -0.78770724405E+03  0.79240265992E+03  0.86135202495E+02 0.  0.
          2    1    3    3  502    0  0.35207229619E+02  0.24451631937E+02 -0.43221348220E+03  0.43433388714E+03  0.00000000000E+00 0.  1.
         -2    1    3    3    0  502 -0.35207229619E+02 -0.24451631937E+02 -0.35549376185E+03  0.35806877278E+03  0.00000000000E+00 0. -1.
<mgrwt>
<rscale>  0 0.86135202E+02</rscale>
<asrwt>0</asrwt>
<pdfrwt beam="2">  1        2 0.12154690E+00 0.86135202E+02</pdfrwt>
<pdfrwt beam="1">  1       -2 0.36118590E-03 0.86135202E+02</pdfrwt>
<totfact> 0.28240213E+05</totfact>
</mgrwt>
</event>
<event>
 5    1  0.3957498E+001  0.9446376E+02  0.7546771E-02  0.1292388E+00
         -2   -1    0    0    0  501 -0.00000000000E+00  0.00000000000E+00  0.16787285214E+03  0.16787285214E+03  0.00000000000E+00 0.  1.
          2   -1    0    0  501    0  0.00000000000E+00 -0.00000000000E+00 -0.13288929787E+02  0.13288929787E+02  0.00000000000E+00 0. -1.
         23    2    1    2    0    0  0.00000000000E+00  0.00000000000E+00  0.15458392235E+03  0.18116178192E+03  0.94463761202E+02 0.  0.
          2    1    3    3  502    0  0.18727645668E+02  0.31211718408E+02  0.19568211387E+02  0.41325669688E+02  0.00000000000E+00 0. -1.
         -2    1    3    3    0  502 -0.18727645668E+02 -0.31211718408E+02  0.13501571096E+03  0.13983611224E+03  0.00000000000E+00 0.  1.
<mgrwt>
<rscale>  0 0.94463761E+02</rscale>
<asrwt>0</asrwt>
<pdfrwt beam="2">  1        2 0.20444509E-02 0.94463761E+02</pdfrwt>
<pdfrwt beam="1">  1       -2 0.25826591E-01 0.94463761E+02</pdfrwt>
<totfact> 0.61192966E+04</totfact>
</mgrwt>
</event>
<event>
 5    1  0.3957498E+001  0.9167757E+02  0.7546771E-02  0.1298839E+00
         -4   -1    0    0    0  501 -0.00000000000E+00  0.00000000000E+00  0.57326711255E+02  0.57326711255E+02  0.00000000000E+00 0.  1.
          4   -1    0    0  501    0  0.00000000000E+00 -0.00000000000E+00 -0.36652971834E+02  0.36652971834E+02  0.00000000000E+00 0. -1.
         23    2    1    2    0    0  0.00000000000E+00  0.00000000000E+00  0.20673739421E+02  0.93979683089E+02  0.91677572676E+02 0.  0.
          2    1    3    3  502    0 -0.40387090748E+02  0.16208078291E+02 -0.44252771640E+01  0.43742450536E+02  0.00000000000E+00 0. -1.
         -2    1    3    3    0  502  0.40387090748E+02 -0.16208078291E+02  0.25099016585E+02  0.50237232552E+02  0.00000000000E+00 0.  1.
<mgrwt>
<rscale>  0 0.91677573E+02</rscale>
<asrwt>0</asrwt>
<pdfrwt beam="2">  1        4 0.56389187E-02 0.91677573E+02</pdfrwt>
<pdfrwt beam="1">  1       -4 0.88194941E-02 0.91677573E+02</pdfrwt>
<totfact> 0.26440229E+04</totfact>
</mgrwt>
</event>
<event>
 5    1  0.3957498E+001  0.8379454E+02  0.7546771E-02  0.1318615E+00
         -2   -1    0    0    0  501 -0.00000000000E+00  0.00000000000E+00  0.22416825788E+01  0.22416825788E+01  0.00000000000E+00 0. -1.
          2   -1    0    0  501    0  0.00000000000E+00 -0.00000000000E+00 -0.78306413244E+03  0.78306413244E+03  0.00000000000E+00 0.  1.
         23    2    1    2    0    0  0.00000000000E+00  0.00000000000E+00 -0.78082244986E+03  0.78530581502E+03  0.83794539769E+02 0.  0.
          2    1    3    3  502    0  0.12847609148E+02  0.19873156006E+02 -0.66388334049E+02  0.70479885700E+02  0.00000000000E+00 0. -1.
         -2    1    3    3    0  502 -0.12847609148E+02 -0.19873156006E+02 -0.71443411582E+03  0.71482592932E+03  0.00000000000E+00 0.  1.
<mgrwt>
<rscale>  0 0.83794540E+02</rscale>
<asrwt>0</asrwt>
<pdfrwt beam="2">  1        2 0.12047137E+00 0.83794540E+02</pdfrwt>
<pdfrwt beam="1">  1       -2 0.34487435E-03 0.83794540E+02</pdfrwt>
<totfact> 0.30301968E+05</totfact>
</mgrwt>
</event>
<event>
 5    1  0.3957498E+001  0.8575946E+02  0.7546771E-02  0.1313458E+00
         -2   -1    0    0    0  501 -0.00000000000E+00  0.00000000000E+00  0.29475745108E+01  0.29475745108E+01  0.00000000000E+00 0.  1.
          2   -1    0    0  501    0  0.00000000000E+00 -0.00000000000E+00 -0.62379134111E+03  0.62379134111E+03  0.00000000000E+00 0. -1.
         23    2    1    2    0    0  0.00000000000E+00  0.00000000000E+00 -0.62084376660E+03  0.62673891562E+03  0.85759464950E+02 0.  0.
          2    1    3    3  502    0  0.18814800877E+02  0.35160289320E+02 -0.42560943630E+03  0.42747354882E+03  0.00000000000E+00 0. -1.
         -2    1    3    3    0  502 -0.18814800877E+02 -0.35160289320E+02 -0.19523433030E+03  0.19926536680E+03  0.00000000000E+00 0.  1.
<mgrwt>
<rscale>  0 0.85759465E+02</rscale>
<asrwt>0</asrwt>
<pdfrwt beam="2">  1        2 0.95967947E-01 0.85759465E+02</pdfrwt>
<pdfrwt beam="1">  1       -2 0.45347278E-03 0.85759465E+02</pdfrwt>
<totfact> 0.27060952E+05</totfact>
</mgrwt>
</event>
<event>
 5    1  0.3957498E+001  0.8987517E+02  0.7546771E-02  0.1303154E+00
         -1   -1    0    0    0  501 -0.00000000000E+00  0.00000000000E+00  0.76643671909E+01  0.76643671909E+01  0.00000000000E+00 0.  1.
          1   -1    0    0  501    0  0.00000000000E+00 -0.00000000000E+00 -0.26347728761E+03  0.26347728761E+03  0.00000000000E+00 0. -1.
         23    2    1    2    0    0  0.00000000000E+00  0.00000000000E+00 -0.25581292042E+03  0.27114165480E+03  0.89875172962E+02 0.  0.
          2    1    3    3  502    0 -0.40713935510E+02 -0.14910635940E+02 -0.92282474129E+02  0.10196080933E+03  0.00000000000E+00 0. -1.
         -2    1    3    3    0  502  0.40713935510E+02  0.14910635940E+02 -0.16353044629E+03  0.16918084547E+03  0.00000000000E+00 0.  1.
<mgrwt>
<rscale>  0 0.89875173E+02</rscale>
<asrwt>0</asrwt>
<pdfrwt beam="2">  1        1 0.40534962E-01 0.89875173E+02</pdfrwt>
<pdfrwt beam="1">  1       -1 0.11791336E-02 0.89875173E+02</pdfrwt>
<totfact> 0.12982679E+05</totfact>
</mgrwt>
</event>
<event>
 5    1  0.3957498E+001  0.9256314E+02  0.7546771E-02  0.1296761E+00
         -3   -1    0    0    0  501 -0.00000000000E+00  0.00000000000E+00  0.63340472312E+01  0.63340472312E+01  0.00000000000E+00 0.  1.
          3   -1    0    0  501    0  0.00000000000E+00 -0.00000000000E+00 -0.33816983980E+03  0.33816983980E+03  0.00000000000E+00 0. -1.
         23    2    1    2    0    0  0.00000000000E+00  0.00000000000E+00 -0.33183579257E+03  0.34450388704E+03  0.92563140342E+02 0.  0.
          2    1    3    3  502    0  0.37883214433E+02  0.33540678653E+00 -0.26486061164E+03  0.26755633805E+03  0.00000000000E+00 0. -1.
         -2    1    3    3    0  502 -0.37883214433E+02 -0.33540678653E+00 -0.66975180932E+02  0.76947548983E+02  0.00000000000E+00 0.  1.
<mgrwt>
<rscale>  0 0.92563140E+02</rscale>
<asrwt>0</asrwt>
<pdfrwt beam="2">  1        3 0.52026140E-01 0.92563140E+02</pdfrwt>
<pdfrwt beam="1">  1       -3 0.97446860E-03 0.92563140E+02</pdfrwt>
<totfact> 0.21515908E+04</totfact>
</mgrwt>
</event>
<event>
 5    1  0.3957498E+001  0.9092703E+02  0.7546771E-02  0.1300622E+00
         -2   -1    0    0    0  501 -0.00000000000E+00  0.00000000000E+00  0.39337351492E+02  0.39337351492E+02  0.00000000000E+00 0.  1.
          2   -1    0    0  501    0  0.00000000000E+00 -0.00000000000E+00 -0.52543731289E+02  0.52543731289E+02  0.00000000000E+00 0. -1.
         23    2    1    2    0    0  0.00000000000E+00  0.00000000000E+00 -0.13206379797E+02  0.91881082782E+02  0.90927030666E+02 0.  0.
          2    1    3    3  502    0 -0.67447714430E+01 -0.19722254031E+02 -0.47430988480E+02  0.51808859417E+02  0.00000000000E+00 0. -1.
         -2    1    3    3    0  502  0.67447714430E+01  0.19722254031E+02  0.34224608683E+02  0.40072223365E+02  0.00000000000E+00 0.  1.
<mgrwt>
<rscale>  0 0.90927031E+02</rscale>
<asrwt>0</asrwt>
<pdfrwt beam="2">  1        2 0.80836509E-02 0.90927031E+02</pdfrwt>
<pdfrwt beam="1">  1       -2 0.60519003E-02 0.90927031E+02</pdfrwt>
<totfact> 0.10320229E+05</totfact>
</mgrwt>
</event>
<event>
 5    1  0.3957498E+001  0.9150675E+02  0.7546771E-02  0.1299243E+00
          2   -1    0    0  501    0  0.00000000000E+00  0.00000000000E+00  0.19755685553E+02  0.19755685553E+02  0.00000000000E+00 0. -1.
         -2   -1    0    0    0  501 -0.00000000000E+00 -0.00000000000E+00 -0.10596298687E+03  0.10596298687E+03  0.00000000000E+00 0.  1.
         23    2    1    2    0    0  0.00000000000E+00  0.00000000000E+00 -0.86207301314E+02  0.12571867242E+03  0.91506752730E+02 0.  0.
          2    1    3    3  502    0 -0.25260578788E+02 -0.31349452515E+02 -0.13240108783E+02  0.42381428648E+02  0.00000000000E+00 0. -1.
         -2    1    3    3    0  502  0.25260578788E+02  0.31349452515E+02 -0.72967192531E+02  0.83337243772E+02  0.00000000000E+00 0.  1.
<mgrwt>
<rscale>  0 0.91506753E+02</rscale>
<asrwt>0</asrwt>
<pdfrwt beam="1">  1        2 0.30393361E-02 0.91506753E+02</pdfrwt>
<pdfrwt beam="2">  1       -2 0.16301999E-01 0.91506753E+02</pdfrwt>
<totfact> 0.77718513E+04</totfact>
</mgrwt>
</event>
<event>
 5    1  0.3957498E+001  0.9524955E+02  0.7546771E-02  0.1290615E+00
          2   -1    0    0  501    0  0.00000000000E+00  0.00000000000E+00  0.43400591563E+03  0.43400591563E+03  0.00000000000E+00 0. -1.
         -2   -1    0    0    0  501 -0.00000000000E+00 -0.00000000000E+00 -0.52260095855E+01  0.52260095855E+01  0.00000000000E+00 0.  1.
         23    2    1    2    0    0  0.00000000000E+00  0.00000000000E+00  0.42877990604E+03  0.43923192521E+03  0.95249547510E+02 0.  0.
          2    1    3    3  502    0  0.40352156940E+02 -0.15061750151E+01  0.97953371748E+02  0.10595012114E+03  0.00000000000E+00 0. -1.
         -2    1    3    3    0  502 -0.40352156940E+02  0.15061750151E+01  0.33082653429E+03  0.33328180407E+03  0.00000000000E+00 0.  1.
<mgrwt>
<rscale>  0 0.95249548E+02</rscale>
<asrwt>0</asrwt>
<pdfrwt beam="1">  1        2 0.66770112E-01 0.95249548E+02</pdfrwt>
<pdfrwt beam="2">  1       -2 0.80400182E-03 0.95249548E+02</pdfrwt>
<totfact> 0.18291815E+05</totfact>
</mgrwt>
</event>
<event>
 5    1  0.3957498E+001  0.9097405E+02  0.7546771E-02  0.1300510E+00
          1   -1    0    0  501    0  0.00000000000E+00  0.00000000000E+00  0.53120570123E+03  0.53120570123E+03  0.00000000000E+00 0. -1.
         -1   -1    0    0    0  501 -0.00000000000E+00 -0.00000000000E+00 -0.38950435186E+01  0.38950435186E+01  0.00000000000E+00 0.  1.
         23    2    1    2    0    0  0.00000000000E+00  0.00000000000E+00  0.52731065771E+03  0.53510074475E+03  0.90974047368E+02 0.  0.
          2    1    3    3  502    0 -0.17470700536E+02  0.22540972043E+02  0.47208971967E+03  0.47295034011E+03  0.00000000000E+00 0. -1.
         -2    1    3    3    0  502  0.17470700536E+02 -0.22540972043E+02  0.55220938043E+02  0.62150404635E+02  0.00000000000E+00 0.  1.
<mgrwt>
<rscale>  0 0.90974047E+02</rscale>
<asrwt>0</asrwt>
<pdfrwt beam="1">  1        1 0.81723897E-01 0.90974047E+02</pdfrwt>
<pdfrwt beam="2">  1       -1 0.59923788E-03 0.90974047E+02</pdfrwt>
<totfact> 0.14102243E+05</totfact>
</mgrwt>
</event>
<event>
 5    1  0.3957498E+001  0.9406571E+02  0.7546771E-02  0.1293294E+00
          2   -1    0    0  501    0  0.00000000000E+00  0.00000000000E+00  0.18291079523E+04  0.18291079523E+04  0.00000000000E+00 0. -1.
         -2   -1    0    0    0  501 -0.00000000000E+00 -0.00000000000E+00 -0.12093816576E+01  0.12093816576E+01  0.00000000000E+00 0.  1.
         23    2    1    2    0    0  0.00000000000E+00  0.00000000000E+00  0.18278985707E+04  0.18303173340E+04  0.94065713357E+02 0.  0.
          2    1    3    3  502    0  0.31444511741E+00  0.40699885714E+02  0.13725566171E+04  0.13731599494E+04  0.00000000000E+00 0. -1.
         -2    1    3    3    0  502 -0.31444511741E+00 -0.40699885714E+02  0.45534195361E+03  0.45715738460E+03  0.00000000000E+00 0.  1.
<mgrwt>
<rscale>  0 0.94065713E+02</rscale>
<asrwt>0</asrwt>
<pdfrwt beam="1">  1        2 0.28139901E+00 0.94065713E+02</pdfrwt>
<pdfrwt beam="2">  1       -2 0.18606018E-03 0.94065713E+02</pdfrwt>
<totfact> 0.19513526E+05</totfact>
</mgrwt>
</event>
<event>
 5    1  0.3957498E+001  0.9065269E+02  0.7546771E-02  0.1301279E+00
          2   -1    0    0  501    0  0.00000000000E+00  0.00000000000E+00  0.42570330229E+03  0.42570330229E+03  0.00000000000E+00 0. -1.
         -2   -1    0    0    0  501 -0.00000000000E+00 -0.00000000000E+00 -0.48260782270E+01  0.48260782270E+01  0.00000000000E+00 0.  1.
         23    2    1    2    0    0  0.00000000000E+00  0.00000000000E+00  0.42087722406E+03  0.43052938051E+03  0.90652687513E+02 0.  0.
          2    1    3    3  502    0 -0.25719796368E+02  0.18078211068E+02  0.36550969415E+03  0.36685919118E+03  0.00000000000E+00 0. -1.
         -2    1    3    3    0  502  0.25719796368E+02 -0.18078211068E+02  0.55367529912E+02  0.63670189329E+02  0.00000000000E+00 0.  1.
<mgrwt>
<rscale>  0 0.90652688E+02</rscale>
<asrwt>0</asrwt>
<pdfrwt beam="1">  1        2 0.65492786E-01 0.90652688E+02</pdfrwt>
<pdfrwt beam="2">  1       -2 0.74247391E-03 0.90652688E+02</pdfrwt>
<totfact> 0.20721840E+05</totfact>
</mgrwt>
</event>
<event>
 5    1  0.3957498E+001  0.8409231E+02  0.7546771E-02  0.1317823E+00
         -1   -1    0    0    0  501 -0.00000000000E+00  0.00000000000E+00  0.76399282946E+03  0.76399282946E+03  0.00000000000E+00 0.  1.
          1   -1    0    0  501    0  0.00000000000E+00 -0.00000000000E+00 -0.23139998660E+01  0.23139998660E+01  0.00000000000E+00 0. -1.
         23    2    1    2    0    0  0.00000000000E+00  0.00000000000E+00  0.76167882959E+03  0.76630682932E+03  0.84092313679E+02 0.  0.
          2    1    3    3  502    0 -0.24017674896E+01  0.40984484770E+02  0.46355069391E+03  0.46536517091E+03  0.00000000000E+00 0. -1.
         -2    1    3    3    0  502  0.24017674896E+01 -0.40984484770E+02  0.29812813568E+03  0.30094165841E+03  0.00000000000E+00 0.  1.
<mgrwt>
<rscale>  0 0.84092314E+02</rscale>
<asrwt>0</asrwt>
<pdfrwt beam="2">  1        1 0.35600059E-03 0.84092314E+02</pdfrwt>
<pdfrwt beam="1">  1       -1 0.11753716E+00 0.84092314E+02</pdfrwt>
<totfact> 0.42152890E+04</totfact>
</mgrwt>
</event>
<event>
 5    1  0.3957498E+001  0.8792586E+02  0.7546771E-02  0.1307954E+00
          3   -1    0    0  501    0  0.00000000000E+00  0.00000000000E+00  0.17312580394E+01  0.17312580394E+01  0.00000000000E+00 0.  1.
         -3   -1    0    0    0  501 -0.00000000000E+00 -0.00000000000E+00 -0.11163785015E+04  0.11163785015E+04  0.00000000000E+00 0. -1.
         23    2    1    2    0    0  0.00000000000E+00  0.00000000000E+00 -0.11146472434E+04  0.11181097595E+04  0.87925860946E+02 0.  0.
          2    1    3    3  502    0 -0.16464179306E+02  0.39352831539E+02 -0.69251671361E+03  0.69382931127E+03  0.00000000000E+00 0. -1.
         -2    1    3    3    0  502  0.16464179306E+02 -0.39352831539E+02 -0.42213052983E+03  0.42428044825E+03  0.00000000000E+00 0.  1.
<mgrwt>
<rscale>  0 0.87925861E+02</rscale>
<asrwt>0</asrwt>
<pdfrwt beam="1">  1        3 0.26634765E-03 0.87925861E+02</pdfrwt>
<pdfrwt beam="2">  1       -3 0.17175037E+00 0.87925861E+02</pdfrwt>
<totfact> 0.97393117E+03</totfact>
</mgrwt>
</event>
<event>
 5    1  0.3957498E+001  0.9017347E+02  0.7546771E-02  0.1302432E+00
         -2   -1    0    0    0  501 -0.00000000000E+00  0.00000000000E+00  0.13830522708E+02  0.13830522708E+02  0.00000000000E+00 0. -1.
          2   -1    0    0  501    0  0.00000000000E+00 -0.00000000000E+00 -0.14698025706E+03  0.14698025706E+03  0.00000000000E+00 0.  1.
         23    2    1    2    0    0  0.00000000000E+00  0.00000000000E+00 -0.13314973436E+03  0.16081077977E+03  0.90173472440E+02 0.  0.
          2    1    3    3  502    0  0.10296456531E+02 -0.30877996482E+02 -0.10937059341E+02  0.34337835559E+02  0.00000000000E+00 0. -1.
         -2    1    3    3    0  502 -0.10296456531E+02  0.30877996482E+02 -0.12221267501E+03  0.12647294421E+03  0.00000000000E+00 0.  1.
<mgrwt>
<rscale>  0 0.90173472E+02</rscale>
<asrwt>0</asrwt>
<pdfrwt beam="2">  1        2 0.22612348E-01 0.90173472E+02</pdfrwt>
<pdfrwt beam="1">  1       -2 0.21277727E-02 0.90173472E+02</pdfrwt>
<totfact> 0.14307852E+05</totfact>
</mgrwt>
</event>
<event>
 5    1  0.3957498E+001  0.9604809E+02  0.7546771E-02  0.1288833E+00
          1   -1    0    0  501    0  0.00000000000E+00  0.00000000000E+00  0.12089452781E+04  0.12089452781E+04  0.00000000000E+00 0. -1.
         -1   -1    0    0    0  501 -0.00000000000E+00 -0.00000000000E+00 -0.19077031276E+01  0.19077031276E+01  0.00000000000E+00 0.  1.
         23    2    1    2    0    0  0.00000000000E+00  0.00000000000E+00  0.12070375750E+04  0.12108529812E+04  0.96048085626E+02 0.  0.
          2    1    3    3  502    0 -0.38522105924E+02  0.23678026569E+02  0.39957501165E+03  0.40212534305E+03  0.00000000000E+00 0. -1.
         -2    1    3    3    0  502  0.38522105924E+02 -0.23678026569E+02  0.80746256332E+03  0.80872763817E+03  0.00000000000E+00 0.  1.
<mgrwt>
<rscale>  0 0.96048086E+02</rscale>
<asrwt>0</asrwt>
<pdfrwt beam="1">  1        1 0.18599097E+00 0.96048086E+02</pdfrwt>
<pdfrwt beam="2">  1       -1 0.29349376E-03 0.96048086E+02</pdfrwt>
<totfact> 0.11050601E+05</totfact>
</mgrwt>
</event>
<event>
 5    1  0.3957498E+001  0.9722092E+02  0.7546771E-02  0.1286251E+00
          2   -1    0    0  501    0  0.00000000000E+00  0.00000000000E+00  0.13133714060E+02  0.13133714060E+02  0.00000000000E+00 0. -1.
         -2   -1    0    0    0  501 -0.00000000000E+00 -0.00000000000E+00 -0.17991687830E+03  0.17991687830E+03  0.00000000000E+00 0.  1.
         23    2    1    2    0    0  0.00000000000E+00  0.00000000000E+00 -0.16678316424E+03  0.19305059236E+03  0.97220920263E+02 0.  0.
          2    1    3    3  502    0  0.13469018789E+02 -0.41120045060E+02 -0.39404887754E+02  0.58523651217E+02  0.00000000000E+00 0. -1.
         -2    1    3    3    0  502 -0.13469018789E+02  0.41120045060E+02 -0.12737827649E+03  0.13452694114E+03  0.00000000000E+00 0.  1.
<mgrwt>
<rscale>  0 0.97220920E+02</rscale>
<asrwt>0</asrwt>
<pdfrwt beam="1">  1        2 0.20205716E-02 0.97220920E+02</pdfrwt>
<pdfrwt beam="2">  1       -2 0.27679517E-01 0.97220920E+02</pdfrwt>
<totfact> 0.55311965E+04</totfact>
</mgrwt>
</event>
<event>
 5    1  0.3957498E+001  0.9142167E+02  0.7546771E-02  0.1299445E+00
          2   -1    0    0  501    0  0.00000000000E+00  0.00000000000E+00  0.22643291729E+03  0.22643291729E+03  0.00000000000E+00 0. -1.
         -2   -1    0    0    0  501 -0.00000000000E+00 -0.00000000000E+00 -0.92278131162E+01  0.92278131162E+01  0.00000000000E+00 0.  1.
         23    2    1    2    0    0  0.00000000000E+00  0.00000000000E+00  0.21720510417E+03  0.23566073040E+03  0.91421674544E+02 0.  0.
          2    1    3    3  502    0  0.12525167698E+02  0.30328988098E+02  0.19063579510E+03  0.19343922487E+03  0.00000000000E+00 0. -1.
         -2    1    3    3    0  502 -0.12525167698E+02 -0.30328988098E+02  0.26569309068E+02  0.42221505531E+02  0.00000000000E+00 0.  1.
<mgrwt>
<rscale>  0 0.91421675E+02</rscale>
<asrwt>0</asrwt>
<pdfrwt beam="1">  1        2 0.34835829E-01 0.91421675E+02</pdfrwt>
<pdfrwt beam="2">  1       -2 0.14196637E-02 0.91421675E+02</pdfrwt>
<totfact> 0.16068008E+05</totfact>
</mgrwt>
</event>
<event>
 5    1  0.3957498E+001  0.8711433E+02  0.7546771E-02  0.1309994E+00
         -4   -1    0    0    0  501 -0.00000000000E+00  0.00000000000E+00  0.92737480538E+01  0.92737480538E+01  0.00000000000E+00 0.  1.
          4   -1    0    0  501    0  0.00000000000E+00 -0.00000000000E+00 -0.20458036202E+03  0.20458036202E+03  0.00000000000E+00 0. -1.
         23    2    1    2    0    0  0.00000000000E+00  0.00000000000E+00 -0.19530661397E+03  0.21385411007E+03  0.87114332555E+02 0.  0.
          2    1    3    3  502    0  0.15085008132E+02 -0.29272102768E+02 -0.16764127404E+03  0.17084498890E+03  0.00000000000E+00 0. -1.
         -2    1    3    3    0  502 -0.15085008132E+02  0.29272102768E+02 -0.27665339925E+02  0.43009121172E+02  0.00000000000E+00 0.  1.
<mgrwt>
<rscale>  0 0.87114333E+02</rscale>
<asrwt>0</asrwt>
<pdfrwt beam="2">  1        4 0.31473901E-01 0.87114333E+02</pdfrwt>
<pdfrwt beam="1">  1       -4 0.14267305E-02 0.87114333E+02</pdfrwt>
<totfact> 0.23506254E+04</totfact>
</mgrwt>
</event>
<event>
 5    1  0.3957498E+001  0.9056946E+02  0.7546771E-02  0.1301478E+00
          2   -1    0    0  501    0  0.00000000000E+00  0.00000000000E+00  0.31195841008E+03  0.31195841008E+03  0.00000000000E+00 0.  1.
         -2   -1    0    0    0  501 -0.00000000000E+00 -0.00000000000E+00 -0.65736544178E+01  0.65736544178E+01  0.00000000000E+00 0. -1.
         23    2    1    2    0    0  0.00000000000E+00  0.00000000000E+00  0.30538475567E+03  0.31853206450E+03  0.90569460208E+02 0.  0.
          2    1    3    3  502    0  0.78117976079E+01 -0.38689422910E+02  0.74617441045E+02  0.84413613447E+02  0.00000000000E+00 0. -1.
         -2    1    3    3    0  502 -0.78117976079E+01  0.38689422910E+02  0.23076731462E+03  0.23411845106E+03  0.00000000000E+00 0.  1.
<mgrwt>
<rscale>  0 0.90569460E+02</rscale>
<asrwt>0</asrwt>
<pdfrwt beam="1">  1        2 0.47993590E-01 0.90569460E+02</pdfrwt>
<pdfrwt beam="2">  1       -2 0.10113317E-02 0.90569460E+02</pdfrwt>
<totfact> 0.18556617E+05</totfact>
</mgrwt>
</event>
<event>
 5    1  0.3957498E+001  0.9155606E+02  0.7546771E-02  0.1299127E+00
         -1   -1    0    0    0  501 -0.00000000000E+00  0.00000000000E+00  0.25806604915E+01  0.25806604915E+01  0.00000000000E+00 0.  1.
          1   -1    0    0  501    0  0.00000000000E+00 -0.00000000000E+00 -0.81205096688E+03  0.81205096688E+03  0.00000000000E+00 0. -1.
         23    2    1    2    0    0  0.00000000000E+00  0.00000000000E+00 -0.80947030639E+03  0.81463162737E+03  0.91556055994E+02 0.  0.
          2    1    3    3  502    0  0.29999159182E+02 -0.64071308091E+01 -0.70707475726E+03  0.70773986268E+03  0.00000000000E+00 0. -1.
         -2    1    3    3    0  502 -0.29999159182E+02  0.64071308091E+01 -0.10239554913E+03  0.10689176469E+03  0.00000000000E+00 0.  1.
<mgrwt>
<rscale>  0 0.91556056E+02</rscale>
<asrwt>0</asrwt>
<pdfrwt beam="2">  1        1 0.12493096E+00 0.91556056E+02</pdfrwt>
<pdfrwt beam="1">  1       -1 0.39702454E-03 0.91556056E+02</pdfrwt>
<totfact> 0.13956378E+05</totfact>
</mgrwt>
</event>
<event>
 5    1  0.3957498E+001  0.9216260E+02  0.7546771E-02  0.1297698E+00
         -2   -1    0    0    0  501 -0.00000000000E+00  0.00000000000E+00  0.20946129531E+01  0.20946129531E+01  0.00000000000E+00 0. -1.
          2   -1    0    0  501    0  0.00000000000E+00 -0.00000000000E+00 -0.10137844778E+04  0.10137844778E+04  0.00000000000E+00 0.  1.
         23    2    1    2    0    0  0.00000000000E+00  0.00000000000E+00 -0.10116898649E+04  0.10158790908E+04  0.92162597596E+02 0.  0.
          2    1    3    3  502    0 -0.32514890881E+02 -0.26588556038E+02 -0.29690281554E+03  0.29985905241E+03  0.00000000000E+00 0. -1.
         -2    1    3    3    0  502  0.32514890881E+02  0.26588556038E+02 -0.71478704933E+03  0.71602003836E+03  0.00000000000E+00 0.  1.
<mgrwt>
<rscale>  0 0.92162598E+02</rscale>
<asrwt>0</asrwt>
<pdfrwt beam="2">  1        2 0.15596675E+00 0.92162598E+02</pdfrwt>
<pdfrwt beam="1">  1       -2 0.32224833E-03 0.92162598E+02</pdfrwt>
<totfact> 0.24315901E+05</totfact>
</mgrwt>
</event>
<event>
 5    1  0.3957498E+001  0.8952274E+02  0.7546771E-02  0.1304012E+00
         -2   -1    0    0    0  501 -0.00000000000E+00  0.00000000000E+00  0.29706158380E+01  0.29706158380E+01  0.00000000000E+00 0. -1.
          2   -1    0    0  501    0  0.00000000000E+00 -0.00000000000E+00 -0.67446625036E+03  0.67446625036E+03  0.00000000000E+00 0.  1.
         23    2    1    2    0    0  0.00000000000E+00  0.00000000000E+00 -0.67149563452E+03  0.67743686619E+03  0.89522737347E+02 0.  0.
          2    1    3    3  502    0  0.22564456440E+02  0.24284124888E+02 -0.56335679052E+03  0.56433123858E+03  0.00000000000E+00 0.  1.
         -2    1    3    3    0  502 -0.22564456440E+02 -0.24284124888E+02 -0.10813884400E+03  0.11310562761E+03  0.00000000000E+00 0. -1.
<mgrwt>
<rscale>  0 0.89522737E+02</rscale>
<asrwt>0</asrwt>
<pdfrwt beam="2">  1        2 0.10376415E+00 0.89522737E+02</pdfrwt>
<pdfrwt beam="1">  1       -2 0.45701734E-03 0.89522737E+02</pdfrwt>
<totfact> 0.24665900E+05</totfact>
</mgrwt>
</event>
<event>
 5    1  0.3957498E+001  0.9196009E+02  0.7546771E-02  0.1298173E+00
         -2   -1    0    0    0  501 -0.00000000000E+00  0.00000000000E+00  0.10827569976E+02  0.10827569976E+02  0.00000000000E+00 0.  1.
          2   -1    0    0  501    0  0.00000000000E+00 -0.00000000000E+00 -0.19525754726E+03  0.19525754726E+03  0.00000000000E+00 0. -1.
         23    2    1    2    0    0  0.00000000000E+00  0.00000000000E+00 -0.18442997729E+03  0.20608511724E+03  0.91960094742E+02 0.  0.
          2    1    3    3  502    0  0.44287058888E+02  0.28650301131E+01 -0.65265498838E+02  0.78924884042E+02  0.00000000000E+00 0. -1.
         -2    1    3    3    0  502 -0.44287058888E+02 -0.28650301131E+01 -0.11916447845E+03  0.12716023320E+03  0.00000000000E+00 0.  1.
<mgrwt>
<rscale>  0 0.91960095E+02</rscale>
<asrwt>0</asrwt>
<pdfrwt beam="2">  1        2 0.30039621E-01 0.91960095E+02</pdfrwt>
<pdfrwt beam="1">  1       -2 0.16657801E-02 0.91960095E+02</pdfrwt>
<totfact> 0.14984783E+05</totfact>
</mgrwt>
</event>
<event>
 5    1  0.3957498E+001  0.8488320E+02  0.7546771E-02  0.1315738E+00
          2   -1    0    0  501    0  0.00000000000E+00  0.00000000000E+00  0.44797195205E+03  0.44797195205E+03  0.00000000000E+00 0.  1.
         -2   -1    0    0    0  501 -0.00000000000E+00 -0.00000000000E+00 -0.40209873739E+01  0.40209873739E+01  0.00000000000E+00 0. -1.
         23    2    1    2    0    0  0.00000000000E+00  0.00000000000E+00  0.44395096467E+03  0.45199293942E+03  0.84883203593E+02 0.  0.
          2    1    3    3  502    0  0.29342056924E+02 -0.26566365140E+02  0.14042279895E+03  0.14589479267E+03  0.00000000000E+00 0. -1.
         -2    1    3    3    0  502 -0.29342056924E+02  0.26566365140E+02  0.30352816572E+03  0.30609814675E+03  0.00000000000E+00 0.  1.
<mgrwt>
<rscale>  0 0.84883204E+02</rscale>
<asrwt>0</asrwt>
<pdfrwt beam="1">  1        2 0.68918723E-01 0.84883204E+02</pdfrwt>
<pdfrwt beam="2">  1       -2 0.61861380E-03 0.84883204E+02</pdfrwt>
<totfact> 0.25088103E+05</totfact>
</mgrwt>
</event>
<event>
 5    1  0.3957498E+001  0.9048165E+02  0.7546771E-02  0.1301689E+00
          2   -1    0    0  501    0  0.00000000000E+00  0.00000000000E+00  0.81050441759E+02  0.81050441759E+02  0.00000000000E+00 0.  1.
         -2   -1    0    0    0  501 -0.00000000000E+00 -0.00000000000E+00 -0.25252574642E+02  0.25252574642E+02  0.00000000000E+00 0. -1.
         23    2    1    2    0    0  0.00000000000E+00  0.00000000000E+00  0.55797867117E+02  0.10630301640E+03  0.90481651848E+02 0.  0.
          2    1    3    3  502    0 -0.31819683672E+02  0.26686215885E+02  0.48983804790E+02  0.64218840840E+02  0.00000000000E+00 0. -1.
         -2    1    3    3    0  502  0.31819683672E+02 -0.26686215885E+02  0.68140623275E+01  0.42084175561E+02  0.00000000000E+00 0.  1.
<mgrwt>
<rscale>  0 0.90481652E+02</rscale>
<asrwt>0</asrwt>
<pdfrwt beam="1">  1        2 0.12469299E-01 0.90481652E+02</pdfrwt>
<pdfrwt beam="2">  1       -2 0.38850115E-02 0.90481652E+02</pdfrwt>
<totfact> 0.11775998E+05</totfact>
</mgrwt>
</event>
<event>
 5    1  0.3957498E+001  0.9662542E+02  0.7546771E-02  0.1287557E+00
         -2   -1    0    0    0  501 -0.00000000000E+00  0.00000000000E+00  0.11770462839E+01  0.11770462839E+01  0.00000000000E+00 0.  1.
          2   -1    0    0  501    0  0.00000000000E+00 -0.00000000000E+00 -0.19830300752E+04  0.19830300752E+04  0.00000000000E+00 0. -1.
         23    2    1    2    0    0  0.00000000000E+00  0.00000000000E+00 -0.19818530289E+04  0.19842071215E+04  0.96625424830E+02 0.  0.
          2    1    3    3  502    0 -0.26733796385E+02 -0.28671103172E+02 -0.15707970238E+04  0.15712861031E+04  0.00000000000E+00 0. -1.
         -2    1    3    3    0  502  0.26733796385E+02  0.28671103172E+02 -0.41105600519E+03  0.41292101839E+03  0.00000000000E+00 0.  1.
<mgrwt>
<rscale>  0 0.96625425E+02</rscale>
<asrwt>0</asrwt>
<pdfrwt beam="2">  1        2 0.30508199E+00 0.96625425E+02</pdfrwt>
<pdfrwt beam="1">  1       -2 0.18108378E-03 0.96625425E+02</pdfrwt>
<totfact> 0.17009161E+05</totfact>
</mgrwt>
</event>
<event>
 5    1  0.3957498E+001  0.9722173E+02  0.7546771E-02  0.1286249E+00
         -1   -1    0    0    0  501 -0.00000000000E+00  0.00000000000E+00  0.59323317681E+01  0.59323317681E+01  0.00000000000E+00 0.  1.
          1   -1    0    0  501    0  0.00000000000E+00 -0.00000000000E+00 -0.39832843362E+03  0.39832843362E+03  0.00000000000E+00 0. -1.
         23    2    1    2    0    0  0.00000000000E+00  0.00000000000E+00 -0.39239610185E+03  0.40426076539E+03  0.97221734625E+02 0.  0.
          2    1    3    3  502    0  0.45412373363E+02  0.12067741968E+02 -0.24798346411E+03  0.25239594395E+03  0.00000000000E+00 0. -1.
         -2    1    3    3    0  502 -0.45412373363E+02 -0.12067741968E+02 -0.14441263775E+03  0.15186482144E+03  0.00000000000E+00 0.  1.
<mgrwt>
<rscale>  0 0.97221735E+02</rscale>
<asrwt>0</asrwt>
<pdfrwt beam="2">  1        1 0.61281296E-01 0.97221735E+02</pdfrwt>
<pdfrwt beam="1">  1       -1 0.91266644E-03 0.97221735E+02</pdfrwt>
<totfact> 0.11360286E+05</totfact>
</mgrwt>
</event>
<event>
 5    1  0.3957498E+001  0.8926493E+02  0.7546771E-02  0.1304642E+00
         -4   -1    0    0    0  501 -0.00000000000E+00  0.00000000000E+00  0.33484839586E+02  0.33484839586E+02  0.00000000000E+00 0.  1.
          4   -1    0    0  501    0  0.00000000000E+00 -0.00000000000E+00 -0.59491306974E+02  0.59491306974E+02  0.00000000000E+00 0. -1.
         23    2    1    2    0    0  0.00000000000E+00  0.00000000000E+00 -0.26006467388E+02  0.92976146561E+02  0.89264928630E+02 0.  0.
          2    1    3    3  502    0  0.34972017751E+02 -0.22365738077E+02  0.40731579865E+01  0.41711615664E+02  0.00000000000E+00 0.  1.
         -2    1    3    3    0  502 -0.34972017751E+02  0.22365738077E+02 -0.30079625375E+02  0.51264530896E+02  0.00000000000E+00 0. -1.
<mgrwt>
<rscale>  0 0.89264929E+02</rscale>
<asrwt>0</asrwt>
<pdfrwt beam="2">  1        4 0.91525087E-02 0.89264929E+02</pdfrwt>
<pdfrwt beam="1">  1       -4 0.51515138E-02 0.89264929E+02</pdfrwt>
<totfact> 0.28487827E+04</totfact>
</mgrwt>
</event>
<event>
 5    1  0.3957498E+001  0.9302933E+02  0.7546771E-02  0.1295677E+00
         -1   -1    0    0    0  501 -0.00000000000E+00  0.00000000000E+00  0.10473137134E+01  0.10473137134E+01  0.00000000000E+00 0.  1.
          1   -1    0    0  501    0  0.00000000000E+00 -0.00000000000E+00 -0.20658698794E+04  0.20658698794E+04  0.00000000000E+00 0. -1.
         23    2    1    2    0    0  0.00000000000E+00  0.00000000000E+00 -0.20648225657E+04  0.20669171931E+04  0.93029325584E+02 0.  0.
          2    1    3    3  502    0 -0.69566930571E+01 -0.35442119799E+02 -0.16836175915E+04  0.16840049685E+04  0.00000000000E+00 0. -1.
         -2    1    3    3    0  502  0.69566930571E+01  0.35442119799E+02 -0.38120497415E+03  0.38291222460E+03  0.00000000000E+00 0.  1.
<mgrwt>
<rscale>  0 0.93029326E+02</rscale>
<asrwt>0</asrwt>
<pdfrwt beam="2">  1        1 0.31782722E+00 0.93029326E+02</pdfrwt>
<pdfrwt beam="1">  1       -1 0.16112463E-03 0.93029326E+02</pdfrwt>
<totfact> 0.71871379E+04</totfact>
</mgrwt>
</event>
<event>
 5    1  0.3957498E+001  0.9289950E+02  0.7546771E-02  0.1295978E+00
         -2   -1    0    0    0  501 -0.00000000000E+00  0.00000000000E+00  0.78003185665E+01  0.78003185665E+01  0.00000000000E+00 0.  1.
          2   -1    0    0  501    0  0.00000000000E+00 -0.00000000000E+00 -0.27660145489E+03  0.27660145489E+03  0.00000000000E+00 0. -1.
         23    2    1    2    0    0  0.00000000000E+00  0.00000000000E+00 -0.26880113632E+03  0.28440177346E+03  0.92899504069E+02 0.  0.
          2    1    3    3  502    0 -0.31110410832E+02 -0.31754180252E+02 -0.93168969853E+02  0.10323101554E+03  0.00000000000E+00 0.  1.
         -2    1    3    3    0  502  0.31110410832E+02  0.31754180252E+02 -0.17563216647E+03  0.18117075792E+03  0.00000000000E+00 0. -1.
<mgrwt>
<rscale>  0 0.92899504E+02</rscale>
<asrwt>0</asrwt>
<pdfrwt beam="2">  1        2 0.42554064E-01 0.92899504E+02</pdfrwt>
<pdfrwt beam="1">  1       -2 0.12000492E-02 0.92899504E+02</pdfrwt>
<totfact> 0.16578249E+05</totfact>
</mgrwt>
</event>
<event>
 5    1  0.3957498E+001  0.9246330E+02  0.7546771E-02  0.1296994E+00
         -2   -1    0    0    0  501 -0.00000000000E+00  0.00000000000E+00  0.34624970699E+01  0.34624970699E+01  0.00000000000E+00 0. -1.
          2   -1    0    0  501    0  0.00000000000E+00 -0.00000000000E+00 -0.61729015565E+03  0.61729015565E+03  0.00000000000E+00 0.  1.
         23    2    1    2    0    0  0.00000000000E+00  0.00000000000E+00 -0.61382765858E+03  0.62075265272E+03  0.92463297696E+02 0.  0.
          2    1    3    3  502    0  0.23679064429E+02 -0.23089523667E+02 -0.90041573207E+02  0.95923454384E+02  0.00000000000E+00 0. -1.
         -2    1    3    3    0  502 -0.23679064429E+02  0.23089523667E+02 -0.52378608538E+03  0.52482919834E+03  0.00000000000E+00 0.  1.
<mgrwt>
<rscale>  0 0.92463298E+02</rscale>
<asrwt>0</asrwt>
<pdfrwt beam="2">  1        2 0.94967809E-01 0.92463298E+02</pdfrwt>
<pdfrwt beam="1">  1       -2 0.53269134E-03 0.92463298E+02</pdfrwt>
<totfact> 0.22131490E+05</totfact>
</mgrwt>
</event>
<event>
 5    1  0.3957498E+001  0.9250416E+02  0.7546771E-02  0.1296898E+00
         -1   -1    0    0    0  501 -0.00000000000E+00  0.00000000000E+00  0.71761533831E+02  0.71761533831E+02  0.00000000000E+00 0.  1.
          1   -1    0    0  501    0  0.00000000000E+00 -0.00000000000E+00 -0.29810606281E+02  0.29810606281E+02  0.00000000000E+00 0. -1.
         23    2    1    2    0    0  0.00000000000E+00  0.00000000000E+00  0.41950927550E+02  0.10157214011E+03  0.92504158418E+02 0.  0.
          2    1    3    3  502    0 -0.88522115784E+01 -0.31381568628E+02 -0.15044038837E+02  0.35909436141E+02  0.00000000000E+00 0. -1.
         -2    1    3    3    0  502  0.88522115784E+01  0.31381568628E+02  0.56994966387E+02  0.65662703972E+02  0.00000000000E+00 0.  1.
<mgrwt>
<rscale>  0 0.92504158E+02</rscale>
<asrwt>0</asrwt>
<pdfrwt beam="2">  1        1 0.45862471E-02 0.92504158E+02</pdfrwt>
<pdfrwt beam="1">  1       -1 0.11040236E-01 0.92504158E+02</pdfrwt>
<totfact> 0.83066888E+04</totfact>
</mgrwt>
</event>
<event>
 5    1  0.3957498E+001  0.9823348E+02  0.7546771E-02  0.1284055E+00
          1   -1    0    0  501    0  0.00000000000E+00  0.00000000000E+00  0.14385317445E+04  0.14385317445E+04  0.00000000000E+00 0. -1.
         -1   -1    0    0    0  501 -0.00000000000E+00 -0.00000000000E+00 -0.16770254367E+01  0.16770254367E+01  0.00000000000E+00 0.  1.
         23    2    1    2    0    0  0.00000000000E+00  0.00000000000E+00  0.14368547191E+04  0.14402087700E+04  0.98233483641E+02 0.  0.
          2    1    3    3  502    0  0.27034991597E+02  0.53543551836E+01  0.13144852817E+04  0.13147741691E+04  0.00000000000E+00 0. -1.
         -2    1    3    3    0  502 -0.27034991597E+02 -0.53543551836E+01  0.12236943739E+03  0.12543460088E+03  0.00000000000E+00 0.  1.
<mgrwt>
<rscale>  0 0.98233484E+02</rscale>
<asrwt>0</asrwt>
<pdfrwt beam="1">  1        1 0.22131159E+00 0.98233484E+02</pdfrwt>
<pdfrwt beam="2">  1       -1 0.25800506E-03 0.98233484E+02</pdfrwt>
<totfact> 0.93670472E+04</totfact>
</mgrwt>
</event>
<event>
 5    1  0.3957498E+001  0.9229781E+02  0.7546771E-02  0.1297381E+00
         -4   -1    0    0    0  501 -0.00000000000E+00  0.00000000000E+00  0.64421721085E+02  0.64421721085E+02  0.00000000000E+00 0.  1.
          4   -1    0    0  501    0  0.00000000000E+00 -0.00000000000E+00 -0.33059056138E+02  0.33059056138E+02  0.00000000000E+00 0. -1.
         23    2    1    2    0    0  0.00000000000E+00  0.00000000000E+00  0.31362664947E+02  0.97480777223E+02  0.92297806991E+02 0.  0.
          2    1    3    3  502    0 -0.27397678468E+02  0.52179865065E+01 -0.23151014604E+02  0.36246788076E+02  0.00000000000E+00 0. -1.
         -2    1    3    3    0  502  0.27397678468E+02 -0.52179865065E+01  0.54513679552E+02  0.61233989147E+02  0.00000000000E+00 0.  1.
<mgrwt>
<rscale>  0 0.92297807E+02</rscale>
<asrwt>0</asrwt>
<pdfrwt beam="2">  1        4 0.50860086E-02 0.92297807E+02</pdfrwt>
<pdfrwt beam="1">  1       -4 0.99110340E-02 0.92297807E+02</pdfrwt>
<totfact> 0.25745422E+04</totfact>
</mgrwt>
</event>
<event>
 5    1  0.3957498E+001  0.9096059E+02  0.7546771E-02  0.1300542E+00
          1   -1    0    0  501    0  0.00000000000E+00  0.00000000000E+00  0.27627669634E+04  0.27627669634E+04  0.00000000000E+00 0. -1.
         -1   -1    0    0    0  501 -0.00000000000E+00 -0.00000000000E+00 -0.74869038145E+00  0.74869038145E+00  0.00000000000E+00 0.  1.
         23    2    1    2    0    0  0.00000000000E+00  0.00000000000E+00  0.27620182730E+04  0.27635156538E+04  0.90960586007E+02 0.  0.
          2    1    3    3  502    0  0.45468608265E+01  0.43930858227E+02  0.10511738896E+04  0.10521012977E+04  0.00000000000E+00 0. -1.
         -2    1    3    3    0  502 -0.45468608265E+01 -0.43930858227E+02  0.17108443834E+04  0.17114143561E+04  0.00000000000E+00 0.  1.
<mgrwt>
<rscale>  0 0.90960586E+02</rscale>
<asrwt>0</asrwt>
<pdfrwt beam="1">  1        1 0.42503291E+00 0.90960586E+02</pdfrwt>
<pdfrwt beam="2">  1       -1 0.11518535E-03 0.90960586E+02</pdfrwt>
<totfact> 0.40725265E+04</totfact>
</mgrwt>
</event>
<event>
 5    1  0.3957498E+001  0.6354289E+02  0.7546771E-02  0.1383538E+00
          2   -1    0    0  501    0  0.00000000000E+00  0.00000000000E+00  0.75448715136E+03  0.75448715136E+03  0.00000000000E+00 0. -1.
         -2   -1    0    0    0  501 -0.00000000000E+00 -0.00000000000E+00 -0.13378951672E+01  0.13378951672E+01  0.00000000000E+00 0.  1.
         23    2    1    2    0    0  0.00000000000E+00  0.00000000000E+00  0.75314925620E+03  0.75582504653E+03  0.63542889878E+02 0.  0.
          2    1    3    3  502    0  0.19684294900E+02 -0.85726603992E+01  0.98008772954E+02  0.10033285378E+03  0.00000000000E+00 0.  1.
         -2    1    3    3    0  502 -0.19684294900E+02  0.85726603992E+01  0.65514048324E+03  0.65549219275E+03  0.00000000000E+00 0. -1.
<mgrwt>
<rscale>  0 0.63542890E+02</rscale>
<asrwt>0</asrwt>
<pdfrwt beam="1">  1        2 0.11607461E+00 0.63542890E+02</pdfrwt>
<pdfrwt beam="2">  1       -2 0.20583063E-03 0.63542890E+02</pdfrwt>
<totfact> 0.61352894E+05</totfact>
</mgrwt>
</event>
<event>
 5    1  0.3957498E+001  0.9142769E+02  0.7546771E-02  0.1299431E+00
         -1   -1    0    0    0  501 -0.00000000000E+00  0.00000000000E+00  0.25171161499E+02  0.25171161499E+02  0.00000000000E+00 0.  1.
          1   -1    0    0  501    0  0.00000000000E+00 -0.00000000000E+00 -0.83021819669E+02  0.83021819669E+02  0.00000000000E+00 0. -1.
         23    2    1    2    0    0  0.00000000000E+00  0.00000000000E+00 -0.57850658170E+02  0.10819298117E+03  0.91427690134E+02 0.  0.
          2    1    3    3  502    0 -0.17903620060E+02 -0.36432611800E+02 -0.53800949092E+02  0.67397454974E+02  0.00000000000E+00 0. -1.
         -2    1    3    3    0  502  0.17903620060E+02  0.36432611800E+02 -0.40497090782E+01  0.40795526194E+02  0.00000000000E+00 0.  1.
<mgrwt>
<rscale>  0 0.91427690E+02</rscale>
<asrwt>0</asrwt>
<pdfrwt beam="2">  1        1 0.12772588E-01 0.91427690E+02</pdfrwt>
<pdfrwt beam="1">  1       -1 0.38724864E-02 0.91427690E+02</pdfrwt>
<totfact> 0.10057642E+05</totfact>
</mgrwt>
</event>
<event>
 5    1  0.3957498E+001  0.9056867E+02  0.7546771E-02  0.1301480E+00
          2   -1    0    0  501    0  0.00000000000E+00  0.00000000000E+00  0.88157408544E+03  0.88157408544E+03  0.00000000000E+00 0.  1.
         -2   -1    0    0    0  501 -0.00000000000E+00 -0.00000000000E+00 -0.23261469179E+01  0.23261469179E+01  0.00000000000E+00 0. -1.
         23    2    1    2    0    0  0.00000000000E+00  0.00000000000E+00  0.87924793852E+03  0.88390023236E+03  0.90568666586E+02 0.  0.
          2    1    3    3  502    0 -0.19362352371E+01 -0.32043041697E+02  0.12790692408E+03  0.13187375310E+03  0.00000000000E+00 0. -1.
         -2    1    3    3    0  502  0.19362352371E+01  0.32043041697E+02  0.75134101444E+03  0.75202647926E+03  0.00000000000E+00 0.  1.
<mgrwt>
<rscale>  0 0.90568667E+02</rscale>
<asrwt>0</asrwt>
<pdfrwt beam="1">  1        2 0.13562652E+00 0.90568667E+02</pdfrwt>
<pdfrwt beam="2">  1       -2 0.35786946E-03 0.90568667E+02</pdfrwt>
<totfact> 0.25173174E+05</totfact>
</mgrwt>
</event>
<event>
 5    1  0.3957498E+001  0.9150847E+02  0.7546771E-02  0.1299239E+00
         -2   -1    0    0    0  501 -0.00000000000E+00  0.00000000000E+00  0.59959406081E+01  0.59959406081E+01  0.00000000000E+00 0.  1.
          2   -1    0    0  501    0  0.00000000000E+00 -0.00000000000E+00 -0.34914452818E+03  0.34914452818E+03  0.00000000000E+00 0. -1.
         23    2    1    2    0    0  0.00000000000E+00  0.00000000000E+00 -0.34314858757E+03  0.35514046879E+03  0.91508466375E+02 0.  0.
          2    1    3    3  502    0 -0.27372182609E+02 -0.13576423063E+02 -0.30374891580E+03  0.30528177065E+03  0.00000000000E+00 0. -1.
         -2    1    3    3    0  502  0.27372182609E+02  0.13576423063E+02 -0.39399671774E+02  0.49858698136E+02  0.00000000000E+00 0.  1.
<mgrwt>
<rscale>  0 0.91508466E+02</rscale>
<asrwt>0</asrwt>
<pdfrwt beam="2">  1        2 0.53714550E-01 0.91508466E+02</pdfrwt>
<pdfrwt beam="1">  1       -2 0.92245228E-03 0.91508466E+02</pdfrwt>
<totfact> 0.18819834E+05</totfact>
</mgrwt>
</event>
<event>
 5    1  0.3957498E+001  0.8882758E+02  0.7546771E-02  0.1305716E+00
         -2   -1    0    0    0  501 -0.00000000000E+00  0.00000000000E+00  0.15351830360E+01  0.15351830360E+01  0.00000000000E+00 0.  1.
          2   -1    0    0  501    0  0.00000000000E+00 -0.00000000000E+00 -0.12849182576E+04  0.12849182576E+04  0.00000000000E+00 0. -1.
         23    2    1    2    0    0  0.00000000000E+00  0.00000000000E+00 -0.12833830746E+04  0.12864534406E+04  0.88827579313E+02 0.  0.
          2    1    3    3  502    0  0.33140010884E+02  0.15522076792E+02 -0.10061782352E+04  0.10068435013E+04  0.00000000000E+00 0. -1.
         -2    1    3    3    0  502 -0.33140010884E+02 -0.15522076792E+02 -0.27720483937E+03  0.27960993930E+03  0.00000000000E+00 0.  1.
<mgrwt>
<rscale>  0 0.88827579E+02</rscale>
<asrwt>0</asrwt>
<pdfrwt beam="2">  1        2 0.19767963E+00 0.88827579E+02</pdfrwt>
<pdfrwt beam="1">  1       -2 0.23618212E-03 0.88827579E+02</pdfrwt>
<totfact> 0.26373346E+05</totfact>
</mgrwt>
</event>
<event>
 5    1  0.3957498E+001  0.9067464E+02  0.7546771E-02  0.1301226E+00
         -1   -1    0    0    0  501 -0.00000000000E+00  0.00000000000E+00  0.46583639594E+01  0.46583639594E+01  0.00000000000E+00 0.  1.
          1   -1    0    0  501    0  0.00000000000E+00 -0.00000000000E+00 -0.44124345105E+03  0.44124345105E+03  0.00000000000E+00 0. -1.
         23    2    1    2    0    0  0.00000000000E+00  0.00000000000E+00 -0.43658508709E+03  0.44590181501E+03  0.90674640108E+02 0.  0.
          2    1    3    3  502    0  0.20443992164E+02 -0.16967423810E+02 -0.39895151066E+03  0.39983516372E+03  0.00000000000E+00 0. -1.
         -2    1    3    3    0  502 -0.20443992164E+02  0.16967423810E+02 -0.37633576429E+02  0.46066651291E+02  0.00000000000E+00 0.  1.
<mgrwt>
<rscale>  0 0.90674640E+02</rscale>
<asrwt>0</asrwt>
<pdfrwt beam="2">  1        1 0.67883604E-01 0.90674640E+02</pdfrwt>
<pdfrwt beam="1">  1       -1 0.71667142E-03 0.90674640E+02</pdfrwt>
<totfact> 0.13898790E+05</totfact>
</mgrwt>
</event>
<event>
 5    1  0.3957498E+001  0.9155859E+02  0.7546771E-02  0.1299121E+00
         -2   -1    0    0    0  501 -0.00000000000E+00  0.00000000000E+00  0.30742024075E+01  0.30742024075E+01  0.00000000000E+00 0.  1.
          2   -1    0    0  501    0  0.00000000000E+00 -0.00000000000E+00 -0.68171946857E+03  0.68171946857E+03  0.00000000000E+00 0. -1.
         23    2    1    2    0    0  0.00000000000E+00  0.00000000000E+00 -0.67864526616E+03  0.68479367098E+03  0.91558585213E+02 0.  0.
          2    1    3    3  502    0  0.79212147714E+01  0.43650291392E+02 -0.25481982163E+03  0.25865273066E+03  0.00000000000E+00 0. -1.
         -2    1    3    3    0  502 -0.79212147714E+01 -0.43650291392E+02 -0.42382544454E+03  0.42614094032E+03  0.00000000000E+00 0.  1.
<mgrwt>
<rscale>  0 0.91558585E+02</rscale>
<asrwt>0</asrwt>
<pdfrwt beam="2">  1        2 0.10488001E+00 0.91558585E+02</pdfrwt>
<pdfrwt beam="1">  1       -2 0.47295380E-03 0.91558585E+02</pdfrwt>
<totfact> 0.23307094E+05</totfact>
</mgrwt>
</event>
<event>
 5    1  0.3957498E+001  0.1034197E+03  0.7546771E-02  0.1273265E+00
          3   -1    0    0  501    0  0.00000000000E+00  0.00000000000E+00  0.65139110258E+01  0.65139110258E+01  0.00000000000E+00 0. -1.
         -3   -1    0    0    0  501 -0.00000000000E+00 -0.00000000000E+00 -0.41049172235E+03  0.41049172235E+03  0.00000000000E+00 0.  1.
         23    2    1    2    0    0  0.00000000000E+00  0.00000000000E+00 -0.40397781132E+03  0.41700563337E+03  0.10341966073E+03 0.  0.
          2    1    3    3  502    0 -0.26926090660E+02  0.43402416857E+02 -0.16944991767E+03  0.17698039085E+03  0.00000000000E+00 0.  1.
         -2    1    3    3    0  502  0.26926090660E+02 -0.43402416857E+02 -0.23452789365E+03  0.24002524252E+03  0.00000000000E+00 0. -1.
<mgrwt>
<rscale>  0 0.10341966E+03</rscale>
<asrwt>0</asrwt>
<pdfrwt beam="1">  1        3 0.10021401E-02 0.10341966E+03</pdfrwt>
<pdfrwt beam="2">  1       -3 0.63152577E-01 0.10341966E+03</pdfrwt>
<totfact> 0.14310967E+04</totfact>
</mgrwt>
</event>
<event>
 5    1  0.3957498E+001  0.9477108E+02  0.7546771E-02  0.1291692E+00
          1   -1    0    0  501    0  0.00000000000E+00  0.00000000000E+00  0.11629674259E+03  0.11629674259E+03  0.00000000000E+00 0. -1.
         -1   -1    0    0    0  501 -0.00000000000E+00 -0.00000000000E+00 -0.19307415949E+02  0.19307415949E+02  0.00000000000E+00 0.  1.
         23    2    1    2    0    0  0.00000000000E+00  0.00000000000E+00  0.96989326641E+02  0.13560415854E+03  0.94771083833E+02 0.  0.
          2    1    3    3  502    0 -0.37282910918E+02  0.29175814045E+02  0.51408145640E+02  0.69885914245E+02  0.00000000000E+00 0. -1.
         -2    1    3    3    0  502  0.37282910918E+02 -0.29175814045E+02  0.45581181001E+02  0.65718244294E+02  0.00000000000E+00 0.  1.
<mgrwt>
<rscale>  0 0.94771084E+02</rscale>
<asrwt>0</asrwt>
<pdfrwt beam="1">  1        1 0.17891806E-01 0.94771084E+02</pdfrwt>
<pdfrwt beam="2">  1       -1 0.29703718E-02 0.94771084E+02</pdfrwt>
<totfact> 0.96447200E+04</totfact>
</mgrwt>
</event>
<event>
 5    1  0.3957498E+001  0.9730336E+02  0.7546771E-02  0.1286071E+00
          1   -1    0    0  501    0  0.00000000000E+00  0.00000000000E+00  0.36255397519E+02  0.36255397519E+02  0.00000000000E+00 0. -1.
         -1   -1    0    0    0  501 -0.00000000000E+00 -0.00000000000E+00 -0.65286439901E+02  0.65286439901E+02  0.00000000000E+00 0.  1.
         23    2    1    2    0    0  0.00000000000E+00  0.00000000000E+00 -0.29031042382E+02  0.10154183742E+03  0.97303357213E+02 0.  0.
          2    1    3    3  502    0  0.43417048424E+02  0.20530721391E+02 -0.64028806362E+01  0.48451496315E+02  0.00000000000E+00 0. -1.
         -2    1    3    3    0  502 -0.43417048424E+02 -0.20530721391E+02 -0.22628161746E+02  0.53090341105E+02  0.00000000000E+00 0.  1.
<mgrwt>
<rscale>  0 0.97303357E+02</rscale>
<asrwt>0</asrwt>
<pdfrwt beam="1">  1        1 0.55777535E-02 0.97303357E+02</pdfrwt>
<pdfrwt beam="2">  1       -1 0.10044068E-01 0.97303357E+02</pdfrwt>
<totfact> 0.74158307E+04</totfact>
</mgrwt>
</event>
<event>
 5    1  0.3957498E+001  0.9057011E+02  0.7546771E-02  0.1301477E+00
          2   -1    0    0  501    0  0.00000000000E+00  0.00000000000E+00  0.10452044887E+03  0.10452044887E+03  0.00000000000E+00 0. -1.
         -2   -1    0    0    0  501 -0.00000000000E+00 -0.00000000000E+00 -0.19620431869E+02  0.19620431869E+02  0.00000000000E+00 0.  1.
         23    2    1    2    0    0  0.00000000000E+00  0.00000000000E+00  0.84900017004E+02  0.12414088074E+03  0.90570113084E+02 0.  0.
          2    1    3    3  502    0 -0.34774842369E+02 -0.91869344040E+01  0.80163028450E+02  0.87862395573E+02  0.00000000000E+00 0. -1.
         -2    1    3    3    0  502  0.34774842369E+02  0.91869344040E+01  0.47369885542E+01  0.36278485169E+02  0.00000000000E+00 0.  1.
<mgrwt>
<rscale>  0 0.90570113E+02</rscale>
<asrwt>0</asrwt>
<pdfrwt beam="1">  1        2 0.16080069E-01 0.90570113E+02</pdfrwt>
<pdfrwt beam="2">  1       -2 0.30185280E-02 0.90570113E+02</pdfrwt>
<totfact> 0.12664983E+05</totfact>
</mgrwt>
</event>
<event>
 5    1  0.3957498E+001  0.8999987E+02  0.7546771E-02  0.1302852E+00
          1   -1    0    0  501    0  0.00000000000E+00  0.00000000000E+00  0.24582185194E+03  0.24582185194E+03  0.00000000000E+00 0. -1.
         -1   -1    0    0    0  501 -0.00000000000E+00 -0.00000000000E+00 -0.82376492995E+01  0.82376492995E+01  0.00000000000E+00 0.  1.
         23    2    1    2    0    0  0.00000000000E+00  0.00000000000E+00  0.23758420264E+03  0.25405950124E+03  0.89999871254E+02 0.  0.
          2    1    3    3  502    0 -0.17949868223E+02 -0.14895270439E+02  0.22742476553E+03  0.22861778327E+03  0.00000000000E+00 0. -1.
         -2    1    3    3    0  502  0.17949868223E+02  0.14895270439E+02  0.10159437105E+02  0.25441717964E+02  0.00000000000E+00 0.  1.
<mgrwt>
<rscale>  0 0.89999871E+02</rscale>
<asrwt>0</asrwt>
<pdfrwt beam="1">  1        1 0.37818741E-01 0.89999871E+02</pdfrwt>
<pdfrwt beam="2">  1       -1 0.12673308E-02 0.89999871E+02</pdfrwt>
<totfact> 0.12761392E+05</totfact>
</mgrwt>
</event>
<event>
 5    1  0.3957498E+001  0.5952426E+02  0.7546771E-02  0.1399839E+00
         -2   -1    0    0    0  501 -0.00000000000E+00  0.00000000000E+00  0.57873826908E+00  0.57873826908E+00  0.00000000000E+00 0.  1.
          2   -1    0    0  501    0  0.00000000000E+00 -0.00000000000E+00 -0.15305437754E+04  0.15305437754E+04  0.00000000000E+00 0. -1.
         23    2    1    2    0    0  0.00000000000E+00  0.00000000000E+00 -0.15299650371E+04  0.15311225137E+04  0.59524255739E+02 0.  0.
          2    1    3    3  502    0  0.95705683896E+01 -0.21507603344E+02 -0.29656757324E+03  0.29750041727E+03  0.00000000000E+00 0.  1.
         -2    1    3    3    0  502 -0.95705683896E+01  0.21507603344E+02 -0.12333974639E+04  0.12336220964E+04  0.00000000000E+00 0. -1.
<mgrwt>
<rscale>  0 0.59524256E+02</rscale>
<asrwt>0</asrwt>
<pdfrwt beam="2">  1        2 0.23546752E+00 0.59524256E+02</pdfrwt>
<pdfrwt beam="1">  1       -2 0.89036940E-04 0.59524256E+02</pdfrwt>
<totfact> 0.70330952E+05</totfact>
</mgrwt>
</event>
<event>
 5    1  0.3957498E+001  0.8741728E+02  0.7546771E-02  0.1309229E+00
          2   -1    0    0  501    0  0.00000000000E+00  0.00000000000E+00  0.25914585043E+01  0.25914585043E+01  0.00000000000E+00 0. -1.
         -2   -1    0    0    0  501 -0.00000000000E+00 -0.00000000000E+00 -0.73720846190E+03  0.73720846190E+03  0.00000000000E+00 0.  1.
         23    2    1    2    0    0  0.00000000000E+00  0.00000000000E+00 -0.73461700340E+03  0.73979992041E+03  0.87417278338E+02 0.  0.
          2    1    3    3  502    0  0.14329662804E+01  0.34722593454E+02 -0.59165136087E+03  0.59267111006E+03  0.00000000000E+00 0.  1.
         -2    1    3    3    0  502 -0.14329662804E+01 -0.34722593454E+02 -0.14296564253E+03  0.14712881034E+03  0.00000000000E+00 0. -1.
<mgrwt>
<rscale>  0 0.87417278E+02</rscale>
<asrwt>0</asrwt>
<pdfrwt beam="1">  1        2 0.39868520E-03 0.87417278E+02</pdfrwt>
<pdfrwt beam="2">  1       -2 0.11341689E+00 0.87417278E+02</pdfrwt>
<totfact> 0.28848633E+04</totfact>
</mgrwt>
</event>
<event>
 5    1  0.3957498E+001  0.9245594E+02  0.7546771E-02  0.1297011E+00
         -1   -1    0    0    0  501 -0.00000000000E+00  0.00000000000E+00  0.20530856448E+01  0.20530856448E+01  0.00000000000E+00 0.  1.
          1   -1    0    0  501    0  0.00000000000E+00 -0.00000000000E+00 -0.10408845206E+04  0.10408845206E+04  0.00000000000E+00 0. -1.
         23    2    1    2    0    0  0.00000000000E+00  0.00000000000E+00 -0.10388314349E+04  0.10429376062E+04  0.92455936901E+02 0.  0.
          2    1    3    3  502    0  0.15204179432E+02 -0.36824179862E+02 -0.78392493411E+03  0.78493661503E+03  0.00000000000E+00 0. -1.
         -2    1    3    3    0  502 -0.15204179432E+02  0.36824179862E+02 -0.25490650080E+03  0.25800099117E+03  0.00000000000E+00 0.  1.
<mgrwt>
<rscale>  0 0.92455937E+02</rscale>
<asrwt>0</asrwt>
<pdfrwt beam="2">  1        1 0.16013627E+00 0.92455937E+02</pdfrwt>
<pdfrwt beam="1">  1       -1 0.31585896E-03 0.92455937E+02</pdfrwt>
<totfact> 0.12960238E+05</totfact>
</mgrwt>
</event>
<event>
 5    1  0.3957498E+001  0.9062706E+02  0.7546771E-02  0.1301340E+00
          2   -1    0    0  501    0  0.00000000000E+00  0.00000000000E+00  0.57639121752E+02  0.57639121752E+02  0.00000000000E+00 0. -1.
         -2   -1    0    0    0  501 -0.00000000000E+00 -0.00000000000E+00 -0.35623651046E+02  0.35623651046E+02  0.00000000000E+00 0.  1.
         23    2    1    2    0    0  0.00000000000E+00  0.00000000000E+00  0.22015470707E+02  0.93262772798E+02  0.90627059092E+02 0.  0.
          2    1    3    3  502    0  0.36641090446E+02 -0.25653049368E+02  0.18476036557E+02  0.48394342415E+02  0.00000000000E+00 0. -1.
         -2    1    3    3    0  502 -0.36641090446E+02  0.25653049368E+02  0.35394341496E+01  0.44868430383E+02  0.00000000000E+00 0.  1.
<mgrwt>
<rscale>  0 0.90627059E+02</rscale>
<asrwt>0</asrwt>
<pdfrwt beam="1">  1        2 0.88675572E-02 0.90627059E+02</pdfrwt>
<pdfrwt beam="2">  1       -2 0.54805617E-02 0.90627059E+02</pdfrwt>
<totfact> 0.10674492E+05</totfact>
</mgrwt>
</event>
<event>
 5    1  0.3957498E+001  0.9025480E+02  0.7546771E-02  0.1302236E+00
         -2   -1    0    0    0  501 -0.00000000000E+00  0.00000000000E+00  0.14625271715E+04  0.14625271715E+04  0.00000000000E+00 0.  1.
          2   -1    0    0  501    0  0.00000000000E+00 -0.00000000000E+00 -0.13924406770E+01  0.13924406770E+01  0.00000000000E+00 0. -1.
         23    2    1    2    0    0  0.00000000000E+00  0.00000000000E+00  0.14611347308E+04  0.14639196122E+04  0.90254802084E+02 0.  0.
          2    1    3    3  502    0  0.22777872226E+02  0.35201400951E+02  0.10012553935E+04  0.10021328919E+04  0.00000000000E+00 0. -1.
         -2    1    3    3    0  502 -0.22777872226E+02 -0.35201400951E+02  0.45987933735E+03  0.46178672026E+03  0.00000000000E+00 0.  1.
<mgrwt>
<rscale>  0 0.90254802E+02</rscale>
<asrwt>0</asrwt>
<pdfrwt beam="2">  1        2 0.21422281E-03 0.90254802E+02</pdfrwt>
<pdfrwt beam="1">  1       -2 0.22500295E+00 0.90254802E+02</pdfrwt>
<totfact> 0.11364298E+04</totfact>
</mgrwt>
</event>
<event>
 5    1  0.3957498E+001  0.8136830E+02  0.7546771E-02  0.1325213E+00
         -3   -1    0    0    0  501 -0.00000000000E+00  0.00000000000E+00  0.25465627210E+03  0.25465627210E+03  0.00000000000E+00 0.  1.
          3   -1    0    0  501    0  0.00000000000E+00 -0.00000000000E+00 -0.64997418673E+01  0.64997418673E+01  0.00000000000E+00 0. -1.
         23    2    1    2    0    0  0.00000000000E+00  0.00000000000E+00  0.24815653023E+03  0.26115601396E+03  0.81368299319E+02 0.  0.
          2    1    3    3  502    0  0.18109847994E+02 -0.16469246412E+02  0.19780210244E+02  0.31471564769E+02  0.00000000000E+00 0. -1.
         -2    1    3    3    0  502 -0.18109847994E+02  0.16469246412E+02  0.22837631999E+03  0.22968444919E+03  0.00000000000E+00 0.  1.
<mgrwt>
<rscale>  0 0.81368299E+02</rscale>
<asrwt>0</asrwt>
<pdfrwt beam="2">  1        3 0.99996048E-03 0.81368299E+02</pdfrwt>
<pdfrwt beam="1">  1       -3 0.39177880E-01 0.81368299E+02</pdfrwt>
<totfact> 0.34699290E+04</totfact>
</mgrwt>
</event>
<event>
 5    1  0.3957498E+001  0.9125452E+02  0.7546771E-02  0.1299842E+00
          4   -1    0    0  501    0  0.00000000000E+00  0.00000000000E+00  0.32861361057E+03  0.32861361057E+03  0.00000000000E+00 0. -1.
         -4   -1    0    0    0  501 -0.00000000000E+00 -0.00000000000E+00 -0.63352419261E+01  0.63352419261E+01  0.00000000000E+00 0.  1.
         23    2    1    2    0    0  0.00000000000E+00  0.00000000000E+00  0.32227836865E+03  0.33494885250E+03  0.91254517109E+02 0.  0.
          2    1    3    3  502    0  0.24473930578E+02  0.63435934813E+01  0.30055175772E+03  0.30161328473E+03  0.00000000000E+00 0. -1.
         -2    1    3    3    0  502 -0.24473930578E+02 -0.63435934813E+01  0.21726610927E+02  0.33335567770E+02  0.00000000000E+00 0.  1.
<mgrwt>
<rscale>  0 0.91254517E+02</rscale>
<asrwt>0</asrwt>
<pdfrwt beam="1">  1        4 0.50555927E-01 0.91254517E+02</pdfrwt>
<pdfrwt beam="2">  1       -4 0.97465286E-03 0.91254517E+02</pdfrwt>
<totfact> 0.16766790E+04</totfact>
</mgrwt>
</event>
<event>
 5    1  0.3957498E+001  0.9133417E+02  0.7546771E-02  0.1299653E+00
         -3   -1    0    0    0  501 -0.00000000000E+00  0.00000000000E+00  0.14592770172E+03  0.14592770172E+03  0.00000000000E+00 0.  1.
          3   -1    0    0  501    0  0.00000000000E+00 -0.00000000000E+00 -0.14291204931E+02  0.14291204931E+02  0.00000000000E+00 0. -1.
         23    2    1    2    0    0  0.00000000000E+00  0.00000000000E+00  0.13163649679E+03  0.16021890665E+03  0.91334170831E+02 0.  0.
          2    1    3    3  502    0 -0.33269235816E+02  0.14497963040E+02  0.17190047994E+02  0.40156328693E+02  0.00000000000E+00 0. -1.
         -2    1    3    3    0  502  0.33269235816E+02 -0.14497963040E+02  0.11444644879E+03  0.12006257796E+03  0.00000000000E+00 0.  1.
<mgrwt>
<rscale>  0 0.91334171E+02</rscale>
<asrwt>0</asrwt>
<pdfrwt beam="2">  1        3 0.21986470E-02 0.91334171E+02</pdfrwt>
<pdfrwt beam="1">  1       -3 0.22450415E-01 0.91334171E+02</pdfrwt>
<totfact> 0.30550961E+04</totfact>
</mgrwt>
</event>
<event>
 5    1  0.3957498E+001  0.8967282E+02  0.7546771E-02  0.1303646E+00
          2   -1    0    0  501    0  0.00000000000E+00  0.00000000000E+00  0.26797415773E+04  0.26797415773E+04  0.00000000000E+00 0. -1.
         -2   -1    0    0    0  501 -0.00000000000E+00 -0.00000000000E+00 -0.75018568810E+00  0.75018568810E+00  0.00000000000E+00 0.  1.
         23    2    1    2    0    0  0.00000000000E+00  0.00000000000E+00  0.26789913916E+04  0.26804917629E+04  0.89672822618E+02 0.  0.
          2    1    3    3  502    0  0.95977016892E+01  0.43754647433E+02  0.12818521186E+04  0.12826345695E+04  0.00000000000E+00 0. -1.
         -2    1    3    3    0  502 -0.95977016892E+01 -0.43754647433E+02  0.13971392730E+04  0.13978571934E+04  0.00000000000E+00 0.  1.
<mgrwt>
<rscale>  0 0.89672823E+02</rscale>
<asrwt>0</asrwt>
<pdfrwt beam="1">  1        2 0.41226027E+00 0.89672823E+02</pdfrwt>
<pdfrwt beam="2">  1       -2 0.11541533E-03 0.89672823E+02</pdfrwt>
<totfact> 0.13712774E+05</totfact>
</mgrwt>
</event>
<event>
 5    1  0.3957498E+001  0.8835058E+02  0.7546771E-02  0.1306896E+00
         -1   -1    0    0    0  501 -0.00000000000E+00  0.00000000000E+00  0.16384625401E+02  0.16384625401E+02  0.00000000000E+00 0.  1.
          1   -1    0    0  501    0  0.00000000000E+00 -0.00000000000E+00 -0.11910289106E+03  0.11910289106E+03  0.00000000000E+00 0. -1.
         23    2    1    2    0    0  0.00000000000E+00  0.00000000000E+00 -0.10271826566E+03  0.13548751647E+03  0.88350580175E+02 0.  0.
          2    1    3    3  502    0  0.36233474912E+02  0.10720469073E+02 -0.86451758159E+02  0.94348819018E+02  0.00000000000E+00 0. -1.
         -2    1    3    3    0  502 -0.36233474912E+02 -0.10720469073E+02 -0.16266507504E+02  0.41138697448E+02  0.00000000000E+00 0.  1.
<mgrwt>
<rscale>  0 0.88350580E+02</rscale>
<asrwt>0</asrwt>
<pdfrwt beam="2">  1        1 0.18323522E-01 0.88350580E+02</pdfrwt>
<pdfrwt beam="1">  1       -1 0.25207115E-02 0.88350580E+02</pdfrwt>
<totfact> 0.11716592E+05</totfact>
</mgrwt>
</event>
<event>
 5    1  0.3957498E+001  0.1189069E+03  0.7546771E-02  0.1244911E+00
          1   -1    0    0  501    0  0.00000000000E+00  0.00000000000E+00  0.11611070871E+03  0.11611070871E+03  0.00000000000E+00 0. -1.
         -1   -1    0    0    0  501 -0.00000000000E+00 -0.00000000000E+00 -0.30442595363E+02  0.30442595363E+02  0.00000000000E+00 0.  1.
         23    2    1    2    0    0  0.00000000000E+00  0.00000000000E+00  0.85668113349E+02  0.14655330407E+03  0.11890687655E+03 0.  0.
          2    1    3    3  502    0  0.51289117851E+02 -0.30024392654E+02  0.44849327824E+02  0.74454684006E+02  0.00000000000E+00 0. -1.
         -2    1    3    3    0  502 -0.51289117851E+02  0.30024392654E+02  0.40818785525E+02  0.72098620069E+02  0.00000000000E+00 0.  1.
<mgrwt>
<rscale>  0 0.11890688E+03</rscale>
<asrwt>0</asrwt>
<pdfrwt beam="1">  1        1 0.17863186E-01 0.11890688E+03</pdfrwt>
<pdfrwt beam="2">  1       -1 0.46834763E-02 0.11890688E+03</pdfrwt>
<totfact> 0.51429289E+04</totfact>
</mgrwt>
</event>
<event>
 5    1  0.3957498E+001  0.9622330E+02  0.7546771E-02  0.1288444E+00
          1   -1    0    0  501    0  0.00000000000E+00  0.00000000000E+00  0.28317912042E+03  0.28317912042E+03  0.00000000000E+00 0. -1.
         -1   -1    0    0    0  501 -0.00000000000E+00 -0.00000000000E+00 -0.81740875241E+01  0.81740875241E+01  0.00000000000E+00 0.  1.
         23    2    1    2    0    0  0.00000000000E+00  0.00000000000E+00  0.27500503290E+03  0.29135320795E+03  0.96223301031E+02 0.  0.
          2    1    3    3  502    0 -0.22681016029E+02 -0.38392301388E+02  0.19220039250E+03  0.19730531714E+03  0.00000000000E+00 0. -1.
         -2    1    3    3    0  502  0.22681016029E+02  0.38392301388E+02  0.82804640404E+02  0.94047890813E+02  0.00000000000E+00 0.  1.
<mgrwt>
<rscale>  0 0.96223301E+02</rscale>
<asrwt>0</asrwt>
<pdfrwt beam="1">  1        1 0.43566011E-01 0.96223301E+02</pdfrwt>
<pdfrwt beam="2">  1       -1 0.12575521E-02 0.96223301E+02</pdfrwt>
<totfact> 0.10970163E+05</totfact>
</mgrwt>
</event>
<event>
 5    1  0.3957498E+001  0.9199981E+02  0.7546771E-02  0.1298080E+00
          1   -1    0    0  501    0  0.00000000000E+00  0.00000000000E+00  0.18577672658E+04  0.18577672658E+04  0.00000000000E+00 0. -1.
         -1   -1    0    0    0  501 -0.00000000000E+00 -0.00000000000E+00 -0.11389970664E+01  0.11389970664E+01  0.00000000000E+00 0.  1.
         23    2    1    2    0    0  0.00000000000E+00  0.00000000000E+00  0.18566282687E+04  0.18589062628E+04  0.91999814473E+02 0.  0.
          2    1    3    3  502    0  0.26785115700E+02  0.33126843709E+02  0.12789611104E+04  0.12796704077E+04  0.00000000000E+00 0. -1.
         -2    1    3    3    0  502 -0.26785115700E+02 -0.33126843709E+02  0.57766715826E+03  0.57923585518E+03  0.00000000000E+00 0.  1.
<mgrwt>
<rscale>  0 0.91999814E+02</rscale>
<asrwt>0</asrwt>
<pdfrwt beam="1">  1        1 0.28580792E+00 0.91999814E+02</pdfrwt>
<pdfrwt beam="2">  1       -1 0.17523181E-03 0.91999814E+02</pdfrwt>
<totfact> 0.86320469E+04</totfact>
</mgrwt>
</event>
<event>
 5    1  0.3957498E+001  0.8914837E+02  0.7546771E-02  0.1304927E+00
         -2   -1    0    0    0  501 -0.00000000000E+00  0.00000000000E+00  0.19745218970E+02  0.19745218970E+02  0.00000000000E+00 0.  1.
          2   -1    0    0  501    0  0.00000000000E+00 -0.00000000000E+00 -0.10062475644E+03  0.10062475644E+03  0.00000000000E+00 0. -1.
         23    2    1    2    0    0  0.00000000000E+00  0.00000000000E+00 -0.80879537467E+02  0.12036997541E+03  0.89148367337E+02 0.  0.
          2    1    3    3  502    0  0.43475613173E+02  0.92811038902E+00 -0.53660044803E+02  0.69068015303E+02  0.00000000000E+00 0. -1.
         -2    1    3    3    0  502 -0.43475613173E+02 -0.92811038902E+00 -0.27219492663E+02  0.51301960104E+02  0.00000000000E+00 0.  1.
<mgrwt>
<rscale>  0 0.89148367E+02</rscale>
<asrwt>0</asrwt>
<pdfrwt beam="2">  1        2 0.15480732E-01 0.89148367E+02</pdfrwt>
<pdfrwt beam="1">  1       -2 0.30377260E-02 0.89148367E+02</pdfrwt>
<totfact> 0.13074126E+05</totfact>
</mgrwt>
</event>
<event>
 5    1  0.3957498E+001  0.8998737E+02  0.7546771E-02  0.1302882E+00
         -2   -1    0    0    0  501 -0.00000000000E+00  0.00000000000E+00  0.26527729638E+02  0.26527729638E+02  0.00000000000E+00 0.  1.
          2   -1    0    0  501    0  0.00000000000E+00 -0.00000000000E+00 -0.76313795141E+02  0.76313795141E+02  0.00000000000E+00 0. -1.
         23    2    1    2    0    0  0.00000000000E+00  0.00000000000E+00 -0.49786065504E+02  0.10284152478E+03  0.89987370784E+02 0.  0.
          2    1    3    3  502    0 -0.23689444828E+02  0.27049590116E+01  0.18713992827E+02  0.30310396353E+02  0.00000000000E+00 0.  1.
         -2    1    3    3    0  502  0.23689444828E+02 -0.27049590116E+01 -0.68500058331E+02  0.72531128427E+02  0.00000000000E+00 0. -1.
<mgrwt>
<rscale>  0 0.89987371E+02</rscale>
<asrwt>0</asrwt>
<pdfrwt beam="2">  1        2 0.11740584E-01 0.89987371E+02</pdfrwt>
<pdfrwt beam="1">  1       -2 0.40811892E-02 0.89987371E+02</pdfrwt>
<totfact> 0.11753961E+05</totfact>
</mgrwt>
</event>
<event>
 5    1  0.3957498E+001  0.9440783E+02  0.7546771E-02  0.1292515E+00
         -1   -1    0    0    0  501 -0.00000000000E+00  0.00000000000E+00  0.73377280663E+01  0.73377280663E+01  0.00000000000E+00 0.  1.
          1   -1    0    0  501    0  0.00000000000E+00 -0.00000000000E+00 -0.30366476532E+03  0.30366476532E+03  0.00000000000E+00 0. -1.
         23    2    1    2    0    0  0.00000000000E+00  0.00000000000E+00 -0.29632703725E+03  0.31100249338E+03  0.94407827455E+02 0.  0.
          2    1    3    3  502    0  0.29610850567E+02 -0.31096444513E+02 -0.21275240594E+03  0.21704234050E+03  0.00000000000E+00 0. -1.
         -2    1    3    3    0  502 -0.29610850567E+02  0.31096444513E+02 -0.83574631305E+02  0.93960152886E+02  0.00000000000E+00 0.  1.
<mgrwt>
<rscale>  0 0.94407827E+02</rscale>
<asrwt>0</asrwt>
<pdfrwt beam="2">  1        1 0.46717665E-01 0.94407827E+02</pdfrwt>
<pdfrwt beam="1">  1       -1 0.11288810E-02 0.94407827E+02</pdfrwt>
<totfact> 0.11701487E+05</totfact>
</mgrwt>
</event>
<event>
 5    1  0.3957498E+001  0.8841290E+02  0.7546771E-02  0.1306741E+00
         -2   -1    0    0    0  501 -0.00000000000E+00  0.00000000000E+00  0.49155241155E+02  0.49155241155E+02  0.00000000000E+00 0.  1.
          2   -1    0    0  501    0  0.00000000000E+00 -0.00000000000E+00 -0.39755889088E+02  0.39755889088E+02  0.00000000000E+00 0. -1.
         23    2    1    2    0    0  0.00000000000E+00  0.00000000000E+00  0.93993520665E+01  0.88911130243E+02  0.88412902123E+02 0.  0.
          2    1    3    3  502    0 -0.11530216357E+02 -0.42266571592E+02 -0.12328348396E+01  0.43828402266E+02  0.00000000000E+00 0. -1.
         -2    1    3    3    0  502  0.11530216357E+02  0.42266571592E+02  0.10632186906E+02  0.45082727977E+02  0.00000000000E+00 0.  1.
<mgrwt>
<rscale>  0 0.88412902E+02</rscale>
<asrwt>0</asrwt>
<pdfrwt beam="2">  1        2 0.61162906E-02 0.88412902E+02</pdfrwt>
<pdfrwt beam="1">  1       -2 0.75623448E-02 0.88412902E+02</pdfrwt>
<totfact> 0.10408548E+05</totfact>
</mgrwt>
</event>
<event>
 5    1  0.3957498E+001  0.9886303E+02  0.7546771E-02  0.1282705E+00
         -2   -1    0    0    0  501 -0.00000000000E+00  0.00000000000E+00  0.29281024176E+03  0.29281024176E+03  0.00000000000E+00 0.  1.
          2   -1    0    0  501    0  0.00000000000E+00 -0.00000000000E+00 -0.83449091870E+01  0.83449091870E+01  0.00000000000E+00 0. -1.
         23    2    1    2    0    0  0.00000000000E+00  0.00000000000E+00  0.28446533257E+03  0.30115515095E+03  0.98863034073E+02 0.  0.
          2    1    3    3  502    0 -0.28858593959E+02 -0.29977183027E+02  0.60948873388E+02  0.73798476371E+02  0.00000000000E+00 0. -1.
         -2    1    3    3    0  502  0.28858593959E+02  0.29977183027E+02  0.22351645918E+03  0.22735667457E+03  0.00000000000E+00 0.  1.
<mgrwt>
<rscale>  0 0.98863034E+02</rscale>
<asrwt>0</asrwt>
<pdfrwt beam="2">  1        2 0.12838324E-02 0.98863034E+02</pdfrwt>
<pdfrwt beam="1">  1       -2 0.45047722E-01 0.98863034E+02</pdfrwt>
<totfact> 0.41954180E+04</totfact>
</mgrwt>
</event>
<event>
 5    1  0.3957498E+001  0.9300259E+02  0.7546771E-02  0.1295739E+00
         -1   -1    0    0    0  501 -0.00000000000E+00  0.00000000000E+00  0.82041781348E+01  0.82041781348E+01  0.00000000000E+00 0.  1.
          1   -1    0    0  501    0  0.00000000000E+00 -0.00000000000E+00 -0.26356940898E+03  0.26356940898E+03  0.00000000000E+00 0. -1.
         23    2    1    2    0    0  0.00000000000E+00  0.00000000000E+00 -0.25536523085E+03  0.27177358712E+03  0.93002588828E+02 0.  0.
          2    1    3    3  502    0  0.45886485117E+02 -0.40243208073E+01 -0.10906149745E+03  0.11838992736E+03  0.00000000000E+00 0. -1.
         -2    1    3    3    0  502 -0.45886485117E+02  0.40243208073E+01 -0.14630373340E+03  0.15338365976E+03  0.00000000000E+00 0.  1.
<mgrwt>
<rscale>  0 0.93002589E+02</rscale>
<asrwt>0</asrwt>
<pdfrwt beam="2">  1        1 0.40549138E-01 0.93002589E+02</pdfrwt>
<pdfrwt beam="1">  1       -1 0.12621813E-02 0.93002589E+02</pdfrwt>
<totfact> 0.11850105E+05</totfact>
</mgrwt>
</event>
<event>
 5    1  0.3957498E+001  0.9109409E+02  0.7546771E-02  0.1300224E+00
         -2   -1    0    0    0  501 -0.00000000000E+00  0.00000000000E+00  0.13029037851E+03  0.13029037851E+03  0.00000000000E+00 0.  1.
          2   -1    0    0  501    0  0.00000000000E+00 -0.00000000000E+00 -0.15922382346E+02  0.15922382346E+02  0.00000000000E+00 0. -1.
         23    2    1    2    0    0  0.00000000000E+00  0.00000000000E+00  0.11436799616E+03  0.14621276086E+03  0.91094088121E+02 0.  0.
          2    1    3    3  502    0 -0.57168288409E+01  0.34902967750E+02  0.11119939445E+02  0.37074955738E+02  0.00000000000E+00 0. -1.
         -2    1    3    3    0  502  0.57168288409E+01 -0.34902967750E+02  0.10324805672E+03  0.10913780512E+03  0.00000000000E+00 0.  1.
<mgrwt>
<rscale>  0 0.91094088E+02</rscale>
<asrwt>0</asrwt>
<pdfrwt beam="2">  1        2 0.24495974E-02 0.91094088E+02</pdfrwt>
<pdfrwt beam="1">  1       -2 0.20044673E-01 0.91094088E+02</pdfrwt>
<totfact> 0.73560787E+04</totfact>
</mgrwt>
</event>
<event>
 5    1  0.3957498E+001  0.9028749E+02  0.7546771E-02  0.1302157E+00
         -2   -1    0    0    0  501 -0.00000000000E+00  0.00000000000E+00  0.70234194675E+01  0.70234194675E+01  0.00000000000E+00 0.  1.
          2   -1    0    0  501    0  0.00000000000E+00 -0.00000000000E+00 -0.29016602394E+03  0.29016602394E+03  0.00000000000E+00 0. -1.
         23    2    1    2    0    0  0.00000000000E+00  0.00000000000E+00 -0.28314260448E+03  0.29718944341E+03  0.90287489751E+02 0.  0.
          2    1    3    3  502    0  0.43426415763E+02 -0.36264126344E+01 -0.18037205483E+03  0.18556153324E+03  0.00000000000E+00 0. -1.
         -2    1    3    3    0  502 -0.43426415763E+02  0.36264126344E+01 -0.10277054964E+03  0.11162791017E+03  0.00000000000E+00 0.  1.
<mgrwt>
<rscale>  0 0.90287490E+02</rscale>
<asrwt>0</asrwt>
<pdfrwt beam="2">  1        2 0.44640914E-01 0.90287490E+02</pdfrwt>
<pdfrwt beam="1">  1       -2 0.10805264E-02 0.90287490E+02</pdfrwt>
<totfact> 0.18214263E+05</totfact>
</mgrwt>
</event>
<event>
 5    1  0.3957498E+001  0.9280463E+02  0.7546771E-02  0.1296199E+00
          1   -1    0    0  501    0  0.00000000000E+00  0.00000000000E+00  0.51191092370E+02  0.51191092370E+02  0.00000000000E+00 0. -1.
         -1   -1    0    0    0  501 -0.00000000000E+00 -0.00000000000E+00 -0.42061513944E+02  0.42061513944E+02  0.00000000000E+00 0.  1.
         23    2    1    2    0    0  0.00000000000E+00  0.00000000000E+00  0.91295784261E+01  0.93252606314E+02  0.92804630177E+02 0.  0.
          2    1    3    3  502    0  0.38375192116E+02  0.11928809907E+02 -0.18746830429E+02  0.44344058530E+02  0.00000000000E+00 0.  1.
         -2    1    3    3    0  502 -0.38375192116E+02 -0.11928809907E+02  0.27876408855E+02  0.48908547785E+02  0.00000000000E+00 0. -1.
<mgrwt>
<rscale>  0 0.92804630E+02</rscale>
<asrwt>0</asrwt>
<pdfrwt beam="1">  1        1 0.78755526E-02 0.92804630E+02</pdfrwt>
<pdfrwt beam="2">  1       -1 0.64710022E-02 0.92804630E+02</pdfrwt>
<totfact> 0.89548870E+04</totfact>
</mgrwt>
</event>
<event>
 5    1  0.3957498E+001  0.9134474E+02  0.7546771E-02  0.1299628E+00
         -2   -1    0    0    0  501 -0.00000000000E+00  0.00000000000E+00  0.16185509553E+01  0.16185509553E+01  0.00000000000E+00 0.  1.
          2   -1    0    0  501    0  0.00000000000E+00 -0.00000000000E+00 -0.12887857805E+04  0.12887857805E+04  0.00000000000E+00 0. -1.
         23    2    1    2    0    0  0.00000000000E+00  0.00000000000E+00 -0.12871672295E+04  0.12904043314E+04  0.91344741637E+02 0.  0.
          2    1    3    3  502    0 -0.30013757883E+02  0.32795350659E+02 -0.79147980472E+03  0.79272734403E+03  0.00000000000E+00 0.  1.
         -2    1    3    3    0  502  0.30013757883E+02 -0.32795350659E+02 -0.49568742480E+03  0.49767698740E+03  0.00000000000E+00 0. -1.
<mgrwt>
<rscale>  0 0.91344742E+02</rscale>
<asrwt>0</asrwt>
<pdfrwt beam="2">  1        2 0.19827456E+00 0.91344742E+02</pdfrwt>
<pdfrwt beam="1">  1       -2 0.24900806E-03 0.91344742E+02</pdfrwt>
<totfact> 0.24490832E+05</totfact>
</mgrwt>
</event>
<event>
 5    1  0.3957498E+001  0.9137920E+02  0.7546771E-02  0.1299546E+00
         -4   -1    0    0    0  501 -0.00000000000E+00  0.00000000000E+00  0.81137573796E+02  0.81137573796E+02  0.00000000000E+00 0.  1.
          4   -1    0    0  501    0  0.00000000000E+00 -0.00000000000E+00 -0.25728396070E+02  0.25728396070E+02  0.00000000000E+00 0. -1.
         23    2    1    2    0    0  0.00000000000E+00  0.00000000000E+00  0.55409177725E+02  0.10686596987E+03  0.91379201896E+02 0.  0.
          2    1    3    3  502    0  0.42230572844E+01  0.21710324184E+02 -0.19050658240E+02  0.29190751418E+02  0.00000000000E+00 0. -1.
         -2    1    3    3    0  502 -0.42230572844E+01 -0.21710324184E+02  0.74459835965E+02  0.77675218448E+02  0.00000000000E+00 0.  1.
<mgrwt>
<rscale>  0 0.91379202E+02</rscale>
<asrwt>0</asrwt>
<pdfrwt beam="2">  1        4 0.39582148E-02 0.91379202E+02</pdfrwt>
<pdfrwt beam="1">  1       -4 0.12482704E-01 0.91379202E+02</pdfrwt>
<totfact> 0.25883602E+04</totfact>
</mgrwt>
</event>
<event>
 5    1  0.3957498E+001  0.8983052E+02  0.7546771E-02  0.1303263E+00
         -1   -1    0    0    0  501 -0.00000000000E+00  0.00000000000E+00  0.16510497708E+01  0.16510497708E+01  0.00000000000E+00 0.  1.
          1   -1    0    0  501    0  0.00000000000E+00 -0.00000000000E+00 -0.12218775092E+04  0.12218775092E+04  0.00000000000E+00 0. -1.
         23    2    1    2    0    0  0.00000000000E+00  0.00000000000E+00 -0.12202264595E+04  0.12235285590E+04  0.89830520016E+02 0.  0.
          2    1    3    3  502    0 -0.18385301861E+02 -0.22373549033E+02 -0.10777488677E+04  0.10781378469E+04  0.00000000000E+00 0. -1.
         -2    1    3    3    0  502  0.18385301861E+02  0.22373549033E+02 -0.14247759174E+03  0.14539071211E+03  0.00000000000E+00 0.  1.
<mgrwt>
<rscale>  0 0.89830520E+02</rscale>
<asrwt>0</asrwt>
<pdfrwt beam="2">  1        1 0.18798149E+00 0.89830520E+02</pdfrwt>
<pdfrwt beam="1">  1       -1 0.25400720E-03 0.89830520E+02</pdfrwt>
<totfact> 0.13125937E+05</totfact>
</mgrwt>
</event>
<event>
 5    1  0.3957498E+001  0.9331306E+02  0.7546771E-02  0.1295021E+00
         -1   -1    0    0    0  501 -0.00000000000E+00  0.00000000000E+00  0.74462041983E+02  0.74462041983E+02  0.00000000000E+00 0.  1.
          1   -1    0    0  501    0  0.00000000000E+00 -0.00000000000E+00 -0.29234114390E+02  0.29234114390E+02  0.00000000000E+00 0. -1.
         23    2    1    2    0    0  0.00000000000E+00  0.00000000000E+00  0.45227927594E+02  0.10369615637E+03  0.93313061316E+02 0.  0.
          2    1    3    3  502    0  0.25919152509E+02 -0.85087290070E+00  0.65715051377E+02  0.70646970416E+02  0.00000000000E+00 0.  1.
         -2    1    3    3    0  502 -0.25919152509E+02  0.85087290070E+00 -0.20487123784E+02  0.33049185957E+02  0.00000000000E+00 0. -1.
<mgrwt>
<rscale>  0 0.93313061E+02</rscale>
<asrwt>0</asrwt>
<pdfrwt beam="2">  1        1 0.44975561E-02 0.93313061E+02</pdfrwt>
<pdfrwt beam="1">  1       -1 0.11455699E-01 0.93313061E+02</pdfrwt>
<totfact> 0.80743698E+04</totfact>
</mgrwt>
</event>
<event>
 5    1  0.3957498E+001  0.8619432E+02  0.7546771E-02  0.1312338E+00
         -1   -1    0    0    0  501 -0.00000000000E+00  0.00000000000E+00  0.43085697488E+01  0.43085697488E+01  0.00000000000E+00 0.  1.
          1   -1    0    0  501    0  0.00000000000E+00 -0.00000000000E+00 -0.43108621876E+03  0.43108621876E+03  0.00000000000E+00 0. -1.
         23    2    1    2    0    0  0.00000000000E+00  0.00000000000E+00 -0.42677764901E+03  0.43539478851E+03  0.86194316316E+02 0.  0.
          2    1    3    3  502    0  0.23964967258E+02  0.20822736447E+02 -0.66165772541E+02  0.73388115283E+02  0.00000000000E+00 0.  1.
         -2    1    3    3    0  502 -0.23964967258E+02 -0.20822736447E+02 -0.36061187647E+03  0.36200667323E+03  0.00000000000E+00 0. -1.
<mgrwt>
<rscale>  0 0.86194316E+02</rscale>
<asrwt>0</asrwt>
<pdfrwt beam="2">  1        1 0.66320968E-01 0.86194316E+02</pdfrwt>
<pdfrwt beam="1">  1       -1 0.66285677E-03 0.86194316E+02</pdfrwt>
<totfact> 0.15836699E+05</totfact>
</mgrwt>
</event>
<event>
 5    1  0.3957498E+001  0.8313540E+02  0.7546771E-02  0.1320382E+00
          2   -1    0    0  501    0  0.00000000000E+00  0.00000000000E+00  0.24084599394E+03  0.24084599394E+03  0.00000000000E+00 0. -1.
         -2   -1    0    0    0  501 -0.00000000000E+00 -0.00000000000E+00 -0.71741845173E+01  0.71741845173E+01  0.00000000000E+00 0.  1.
         23    2    1    2    0    0  0.00000000000E+00  0.00000000000E+00  0.23367180943E+03  0.24802017846E+03  0.83135398015E+02 0.  0.
          2    1    3    3  502    0  0.21111642707E+02 -0.30870231986E+02  0.17096509811E+03  0.17500782112E+03  0.00000000000E+00 0. -1.
         -2    1    3    3    0  502 -0.21111642707E+02  0.30870231986E+02  0.62706711316E+02  0.73012357343E+02  0.00000000000E+00 0.  1.
<mgrwt>
<rscale>  0 0.83135398E+02</rscale>
<asrwt>0</asrwt>
<pdfrwt beam="1">  1        2 0.37053224E-01 0.83135398E+02</pdfrwt>
<pdfrwt beam="2">  1       -2 0.11037209E-02 0.83135398E+02</pdfrwt>
<totfact> 0.21174564E+05</totfact>
</mgrwt>
</event>
<event>
 5    1  0.3957498E+001  0.9184690E+02  0.7546771E-02  0.1298440E+00
          2   -1    0    0  501    0  0.00000000000E+00  0.00000000000E+00  0.43182304075E+02  0.43182304075E+02  0.00000000000E+00 0. -1.
         -2   -1    0    0    0  501 -0.00000000000E+00 -0.00000000000E+00 -0.48838597720E+02  0.48838597720E+02  0.00000000000E+00 0.  1.
         23    2    1    2    0    0  0.00000000000E+00  0.00000000000E+00 -0.56562936455E+01  0.92020901795E+02  0.91846898202E+02 0.  0.
          2    1    3    3  502    0 -0.19858059787E+02  0.31269904695E+02  0.24367590437E+02  0.44338797253E+02  0.00000000000E+00 0. -1.
         -2    1    3    3    0  502  0.19858059787E+02 -0.31269904695E+02 -0.30023884083E+02  0.47682104542E+02  0.00000000000E+00 0.  1.
<mgrwt>
<rscale>  0 0.91846898E+02</rscale>
<asrwt>0</asrwt>
<pdfrwt beam="1">  1        2 0.66434314E-02 0.91846898E+02</pdfrwt>
<pdfrwt beam="2">  1       -2 0.75136304E-02 0.91846898E+02</pdfrwt>
<totfact> 0.95263112E+04</totfact>
</mgrwt>
</event>
<event>
 5    1  0.3957498E+001  0.8628923E+02  0.7546771E-02  0.1312095E+00
         -2   -1    0    0    0  501 -0.00000000000E+00  0.00000000000E+00  0.15312555454E+01  0.15312555454E+01  0.00000000000E+00 0.  1.
          2   -1    0    0  501    0  0.00000000000E+00 -0.00000000000E+00 -0.12156414167E+04  0.12156414167E+04  0.00000000000E+00 0. -1.
         23    2    1    2    0    0  0.00000000000E+00  0.00000000000E+00 -0.12141101611E+04  0.12171726722E+04  0.86289226685E+02 0.  0.
          2    1    3    3  502    0  0.37825013085E+02  0.15521643621E+02 -0.80138917969E+03  0.80243147393E+03  0.00000000000E+00 0. -1.
         -2    1    3    3    0  502 -0.37825013085E+02 -0.15521643621E+02 -0.41272098146E+03  0.41474119830E+03  0.00000000000E+00 0.  1.
<mgrwt>
<rscale>  0 0.86289227E+02</rscale>
<asrwt>0</asrwt>
<pdfrwt beam="2">  1        2 0.18702107E+00 0.86289227E+02</pdfrwt>
<pdfrwt beam="1">  1       -2 0.23557863E-03 0.86289227E+02</pdfrwt>
<totfact> 0.28696570E+05</totfact>
</mgrwt>
</event>
<event>
 5    1  0.3957498E+001  0.9102558E+02  0.7546771E-02  0.1300387E+00
          2   -1    0    0  501    0  0.00000000000E+00  0.00000000000E+00  0.13328720002E+03  0.13328720002E+03  0.00000000000E+00 0.  1.
         -2   -1    0    0    0  501 -0.00000000000E+00 -0.00000000000E+00 -0.15540983128E+02  0.15540983128E+02  0.00000000000E+00 0. -1.
         23    2    1    2    0    0  0.00000000000E+00  0.00000000000E+00  0.11774621689E+03  0.14882818315E+03  0.91025581608E+02 0.  0.
          2    1    3    3  502    0  0.48230624126E+01  0.37057250157E+02  0.16396931305E+02  0.40808835765E+02  0.00000000000E+00 0. -1.
         -2    1    3    3    0  502 -0.48230624126E+01 -0.37057250157E+02  0.10134928559E+03  0.10801934739E+03  0.00000000000E+00 0.  1.
<mgrwt>
<rscale>  0 0.91025582E+02</rscale>
<asrwt>0</asrwt>
<pdfrwt beam="1">  1        2 0.20505722E-01 0.91025582E+02</pdfrwt>
<pdfrwt beam="2">  1       -2 0.23909206E-02 0.91025582E+02</pdfrwt>
<totfact> 0.13499041E+05</totfact>
</mgrwt>
</event>
<event>
 5    1  0.3957498E+001  0.9187656E+02  0.7546771E-02  0.1298370E+00
         -1   -1    0    0    0  501 -0.00000000000E+00  0.00000000000E+00  0.14817709096E+02  0.14817709096E+02  0.00000000000E+00 0.  1.
          1   -1    0    0  501    0  0.00000000000E+00 -0.00000000000E+00 -0.14241915960E+03  0.14241915960E+03  0.00000000000E+00 0. -1.
         23    2    1    2    0    0  0.00000000000E+00  0.00000000000E+00 -0.12760145051E+03  0.15723686870E+03  0.91876562337E+02 0.  0.
          2    1    3    3  502    0  0.32254398245E+02  0.16022174956E+02 -0.14995439500E+02  0.39011786709E+02  0.00000000000E+00 0. -1.
         -2    1    3    3    0  502 -0.32254398245E+02 -0.16022174956E+02 -0.11260601101E+03  0.11822508199E+03  0.00000000000E+00 0.  1.
<mgrwt>
<rscale>  0 0.91876562E+02</rscale>
<asrwt>0</asrwt>
<pdfrwt beam="2">  1        1 0.21910640E-01 0.91876562E+02</pdfrwt>
<pdfrwt beam="1">  1       -1 0.22796475E-02 0.91876562E+02</pdfrwt>
<totfact> 0.10880164E+05</totfact>
</mgrwt>
</event>
<event>
 5    1  0.3957498E+001  0.8818166E+02  0.7546771E-02  0.1307316E+00
         -2   -1    0    0    0  501 -0.00000000000E+00  0.00000000000E+00  0.10862557660E+01  0.10862557660E+01  0.00000000000E+00 0.  1.
          2   -1    0    0  501    0  0.00000000000E+00 -0.00000000000E+00 -0.17896350432E+04  0.17896350432E+04  0.00000000000E+00 0. -1.
         23    2    1    2    0    0  0.00000000000E+00  0.00000000000E+00 -0.17885487875E+04  0.17907212990E+04  0.88181662148E+02 0.  0.
          2    1    3    3  502    0  0.10206123063E+01  0.35940498270E+02 -0.14125017786E+04  0.14129593185E+04  0.00000000000E+00 0. -1.
         -2    1    3    3    0  502 -0.10206123063E+01 -0.35940498270E+02 -0.37604700883E+03  0.37776198050E+03  0.00000000000E+00 0.  1.
<mgrwt>
<rscale>  0 0.88181662E+02</rscale>
<asrwt>0</asrwt>
<pdfrwt beam="2">  1        2 0.27532574E+00 0.88181662E+02</pdfrwt>
<pdfrwt beam="1">  1       -2 0.16711793E-03 0.88181662E+02</pdfrwt>
<totfact> 0.23499390E+05</totfact>
</mgrwt>
</event>
<event>
 5    1  0.3957498E+001  0.9175114E+02  0.7546771E-02  0.1298666E+00
          1   -1    0    0  501    0  0.00000000000E+00  0.00000000000E+00  0.10337260073E+04  0.10337260073E+04  0.00000000000E+00 0. -1.
         -1   -1    0    0    0  501 -0.00000000000E+00 -0.00000000000E+00 -0.20359051765E+01  0.20359051765E+01  0.00000000000E+00 0.  1.
         23    2    1    2    0    0  0.00000000000E+00  0.00000000000E+00  0.10316901021E+04  0.10357619125E+04  0.91751144503E+02 0.  0.
          2    1    3    3  502    0 -0.39799921251E+02  0.19121796325E+02  0.37534969695E+03  0.37793792059E+03  0.00000000000E+00 0.  1.
         -2    1    3    3    0  502  0.39799921251E+02 -0.19121796325E+02  0.65634040519E+03  0.65782399189E+03  0.00000000000E+00 0. -1.
<mgrwt>
<rscale>  0 0.91751145E+02</rscale>
<asrwt>0</asrwt>
<pdfrwt beam="1">  1        1 0.15903435E+00 0.91751145E+02</pdfrwt>
<pdfrwt beam="2">  1       -1 0.31321701E-03 0.91751145E+02</pdfrwt>
<totfact> 0.13252951E+05</totfact>
</mgrwt>
</event>
<event>
 5    1  0.3957498E+001  0.9191878E+02  0.7546771E-02  0.1298271E+00
         -2   -1    0    0    0  501 -0.00000000000E+00  0.00000000000E+00  0.29259410312E+01  0.29259410312E+01  0.00000000000E+00 0. -1.
          2   -1    0    0  501    0  0.00000000000E+00 -0.00000000000E+00 -0.72190975648E+03  0.72190975648E+03  0.00000000000E+00 0.  1.
         23    2    1    2    0    0  0.00000000000E+00  0.00000000000E+00 -0.71898381545E+03  0.72483569751E+03  0.91918776696E+02 0.  0.
          2    1    3    3  502    0 -0.20714078543E+02 -0.39028732986E+02 -0.25976142832E+03  0.26349253251E+03  0.00000000000E+00 0. -1.
         -2    1    3    3    0  502  0.20714078543E+02  0.39028732986E+02 -0.45922238714E+03  0.46134316500E+03  0.00000000000E+00 0.  1.
<mgrwt>
<rscale>  0 0.91918777E+02</rscale>
<asrwt>0</asrwt>
<pdfrwt beam="2">  1        2 0.11106305E+00 0.91918777E+02</pdfrwt>
<pdfrwt beam="1">  1       -2 0.45014472E-03 0.91918777E+02</pdfrwt>
<totfact> 0.23375508E+05</totfact>
</mgrwt>
</event>
<event>
 5    1  0.3957498E+001  0.9612021E+02  0.7546771E-02  0.1288673E+00
          3   -1    0    0  501    0  0.00000000000E+00  0.00000000000E+00  0.23036222503E+01  0.23036222503E+01  0.00000000000E+00 0. -1.
         -3   -1    0    0    0  501 -0.00000000000E+00 -0.00000000000E+00 -0.10026703981E+04  0.10026703981E+04  0.00000000000E+00 0.  1.
         23    2    1    2    0    0  0.00000000000E+00  0.00000000000E+00 -0.10003667759E+04  0.10049740204E+04  0.96120213044E+02 0.  0.
          2    1    3    3  502    0 -0.58536078466E+01 -0.47627137916E+02 -0.47219720941E+03  0.47462913265E+03  0.00000000000E+00 0.  1.
         -2    1    3    3    0  502  0.58536078466E+01  0.47627137916E+02 -0.52816956649E+03  0.53034488774E+03  0.00000000000E+00 0. -1.
<mgrwt>
<rscale>  0 0.96120213E+02</rscale>
<asrwt>0</asrwt>
<pdfrwt beam="1">  1        3 0.35440333E-03 0.96120213E+02</pdfrwt>
<pdfrwt beam="2">  1       -3 0.15425702E+00 0.96120213E+02</pdfrwt>
<totfact> 0.86249317E+03</totfact>
</mgrwt>
</event>
<event>
 5    1  0.3957498E+001  0.9092763E+02  0.7546771E-02  0.1300621E+00
         -3   -1    0    0    0  501 -0.00000000000E+00  0.00000000000E+00  0.37697649900E+02  0.37697649900E+02  0.00000000000E+00 0.  1.
          3   -1    0    0  501    0  0.00000000000E+00 -0.00000000000E+00 -0.54829898668E+02  0.54829898668E+02  0.00000000000E+00 0. -1.
         23    2    1    2    0    0  0.00000000000E+00  0.00000000000E+00 -0.17132248767E+02  0.92527548568E+02  0.90927626694E+02 0.  0.
          2    1    3    3  502    0 -0.35107716915E+02  0.33092463517E+01 -0.37766957890E+02  0.51670552607E+02  0.00000000000E+00 0. -1.
         -2    1    3    3    0  502  0.35107716915E+02 -0.33092463517E+01  0.20634709122E+02  0.40856995961E+02  0.00000000000E+00 0.  1.
<mgrwt>
<rscale>  0 0.90927627E+02</rscale>
<asrwt>0</asrwt>
<pdfrwt beam="2">  1        3 0.84353690E-02 0.90927627E+02</pdfrwt>
<pdfrwt beam="1">  1       -3 0.57996385E-02 0.90927627E+02</pdfrwt>
<totfact> 0.35498874E+04</totfact>
</mgrwt>
</event>
<event>
 5    1  0.3957498E+001  0.9067934E+02  0.7546771E-02  0.1301215E+00
         -3   -1    0    0    0  501 -0.00000000000E+00  0.00000000000E+00  0.38124566756E+01  0.38124566756E+01  0.00000000000E+00 0.  1.
          3   -1    0    0  501    0  0.00000000000E+00 -0.00000000000E+00 -0.53920231176E+03  0.53920231176E+03  0.00000000000E+00 0. -1.
         23    2    1    2    0    0  0.00000000000E+00  0.00000000000E+00 -0.53538985508E+03  0.54301476843E+03  0.90679335087E+02 0.  0.
          2    1    3    3  502    0 -0.95959566466E+01  0.21514967606E+02 -0.49967548744E+03  0.50023051583E+03  0.00000000000E+00 0. -1.
         -2    1    3    3    0  502  0.95959566466E+01 -0.21514967606E+02 -0.35714367638E+02  0.42784252604E+02  0.00000000000E+00 0.  1.
<mgrwt>
<rscale>  0 0.90679335E+02</rscale>
<asrwt>0</asrwt>
<pdfrwt beam="2">  1        3 0.82954222E-01 0.90679335E+02</pdfrwt>
<pdfrwt beam="1">  1       -3 0.58653165E-03 0.90679335E+02</pdfrwt>
<totfact> 0.17165179E+04</totfact>
</mgrwt>
</event>
<event>
 5    1  0.3957498E+001  0.9324982E+02  0.7546771E-02  0.1295167E+00
         -2   -1    0    0    0  501 -0.00000000000E+00  0.00000000000E+00  0.81732286574E+02  0.81732286574E+02  0.00000000000E+00 0.  1.
          2   -1    0    0  501    0  0.00000000000E+00 -0.00000000000E+00 -0.26597593143E+02  0.26597593143E+02  0.00000000000E+00 0. -1.
         23    2    1    2    0    0  0.00000000000E+00  0.00000000000E+00  0.55134693431E+02  0.10832987972E+03  0.93249817265E+02 0.  0.
          2    1    3    3  502    0  0.16949921283E+02 -0.27952830540E+02 -0.11053780164E+02  0.34508645622E+02  0.00000000000E+00 0. -1.
         -2    1    3    3    0  502 -0.16949921283E+02  0.27952830540E+02  0.66188473594E+02  0.73821234096E+02  0.00000000000E+00 0.  1.
<mgrwt>
<rscale>  0 0.93249817E+02</rscale>
<asrwt>0</asrwt>
<pdfrwt beam="2">  1        2 0.40919375E-02 0.93249817E+02</pdfrwt>
<pdfrwt beam="1">  1       -2 0.12574198E-01 0.93249817E+02</pdfrwt>
<totfact> 0.80022300E+04</totfact>
</mgrwt>
</event>
<event>
 5    1  0.3957498E+001  0.8268701E+02  0.7546771E-02  0.1321595E+00
         -1   -1    0    0    0  501 -0.00000000000E+00  0.00000000000E+00  0.12846541466E+02  0.12846541466E+02  0.00000000000E+00 0.  1.
          1   -1    0    0  501    0  0.00000000000E+00 -0.00000000000E+00 -0.13305412937E+03  0.13305412937E+03  0.00000000000E+00 0. -1.
         23    2    1    2    0    0  0.00000000000E+00  0.00000000000E+00 -0.12020758790E+03  0.14590067083E+03  0.82687009623E+02 0.  0.
          2    1    3    3  502    0 -0.43099826786E+01  0.37266188689E+02 -0.29443185148E+02  0.47689054527E+02  0.00000000000E+00 0.  1.
         -2    1    3    3    0  502  0.43099826786E+01 -0.37266188689E+02 -0.90764402755E+02  0.98211616306E+02  0.00000000000E+00 0. -1.
<mgrwt>
<rscale>  0 0.82687010E+02</rscale>
<asrwt>0</asrwt>
<pdfrwt beam="2">  1        1 0.20469865E-01 0.82687010E+02</pdfrwt>
<pdfrwt beam="1">  1       -1 0.19763911E-02 0.82687010E+02</pdfrwt>
<totfact> 0.14268512E+05</totfact>
</mgrwt>
</event>
<event>
 5    1  0.3957498E+001  0.9097012E+02  0.7546771E-02  0.1300519E+00
         -1   -1    0    0    0  501 -0.00000000000E+00  0.00000000000E+00  0.40491156602E+01  0.40491156602E+01  0.00000000000E+00 0.  1.
          1   -1    0    0  501    0  0.00000000000E+00 -0.00000000000E+00 -0.51094875800E+03  0.51094875800E+03  0.00000000000E+00 0. -1.
         23    2    1    2    0    0  0.00000000000E+00  0.00000000000E+00 -0.50689964234E+03  0.51499787366E+03  0.90970118557E+02 0.  0.
          2    1    3    3  502    0  0.84515214849E-01  0.39533260991E+02 -0.38079542943E+03  0.38284206266E+03  0.00000000000E+00 0. -1.
         -2    1    3    3    0  502 -0.84515214849E-01 -0.39533260991E+02 -0.12610421291E+03  0.13215581100E+03  0.00000000000E+00 0.  1.
<mgrwt>
<rscale>  0 0.90970119E+02</rscale>
<asrwt>0</asrwt>
<pdfrwt beam="2">  1        1 0.78607535E-01 0.90970119E+02</pdfrwt>
<pdfrwt beam="1">  1       -1 0.62294060E-03 0.90970119E+02</pdfrwt>
<totfact> 0.14045502E+05</totfact>
</mgrwt>
</event>
<event>
 5    1  0.3957498E+001  0.9126721E+02  0.7546771E-02  0.1299812E+00
          1   -1    0    0  501    0  0.00000000000E+00  0.00000000000E+00  0.37454322605E+02  0.37454322605E+02  0.00000000000E+00 0. -1.
         -1   -1    0    0    0  501 -0.00000000000E+00 -0.00000000000E+00 -0.55599084071E+02  0.55599084071E+02  0.00000000000E+00 0.  1.
         23    2    1    2    0    0  0.00000000000E+00  0.00000000000E+00 -0.18144761466E+02  0.93053406676E+02  0.91267212763E+02 0.  0.
          2    1    3    3  502    0  0.25235162805E+02  0.20052896826E+02  0.23862981986E+02  0.40104538673E+02  0.00000000000E+00 0. -1.
         -2    1    3    3    0  502 -0.25235162805E+02 -0.20052896826E+02 -0.42007743451E+02  0.52948868003E+02  0.00000000000E+00 0.  1.
<mgrwt>
<rscale>  0 0.91267213E+02</rscale>
<asrwt>0</asrwt>
<pdfrwt beam="1">  1        1 0.57622035E-02 0.91267213E+02</pdfrwt>
<pdfrwt beam="2">  1       -1 0.85537052E-02 0.91267213E+02</pdfrwt>
<totfact> 0.89506097E+04</totfact>
</mgrwt>
</event>
<event>
 5    1  0.3957498E+001  0.9335253E+02  0.7546771E-02  0.1294930E+00
          1   -1    0    0  501    0  0.00000000000E+00  0.00000000000E+00  0.72396182530E+03  0.72396182530E+03  0.00000000000E+00 0. -1.
         -1   -1    0    0    0  501 -0.00000000000E+00 -0.00000000000E+00 -0.30093767725E+01  0.30093767725E+01  0.00000000000E+00 0.  1.
         23    2    1    2    0    0  0.00000000000E+00  0.00000000000E+00  0.72095244852E+03  0.72697120207E+03  0.93352534004E+02 0.  0.
          2    1    3    3  502    0 -0.41563626963E+02  0.13978209069E+02  0.23593944441E+03  0.23997988841E+03  0.00000000000E+00 0.  1.
         -2    1    3    3    0  502  0.41563626963E+02 -0.13978209069E+02  0.48501300411E+03  0.48699131365E+03  0.00000000000E+00 0. -1.
<mgrwt>
<rscale>  0 0.93352534E+02</rscale>
<asrwt>0</asrwt>
<pdfrwt beam="1">  1        1 0.11137860E+00 0.93352534E+02</pdfrwt>
<pdfrwt beam="2">  1       -1 0.46298162E-03 0.93352534E+02</pdfrwt>
<totfact> 0.13348866E+05</totfact>
</mgrwt>
</event>
<event>
 5    1  0.3957498E+001  0.8918370E+02  0.7546771E-02  0.1304841E+00
          2   -1    0    0  501    0  0.00000000000E+00  0.00000000000E+00  0.21420831033E+03  0.21420831033E+03  0.00000000000E+00 0. -1.
         -2   -1    0    0    0  501 -0.00000000000E+00 -0.00000000000E+00 -0.92827065637E+01  0.92827065637E+01  0.00000000000E+00 0.  1.
         23    2    1    2    0    0  0.00000000000E+00  0.00000000000E+00  0.20492560377E+03  0.22349101690E+03  0.89183695558E+02 0.  0.
          2    1    3    3  502    0  0.18378407753E+02  0.37957896927E+02  0.66159619690E+02  0.78458033930E+02  0.00000000000E+00 0. -1.
         -2    1    3    3    0  502 -0.18378407753E+02 -0.37957896927E+02  0.13876598408E+03  0.14503298297E+03  0.00000000000E+00 0.  1.
<mgrwt>
<rscale>  0 0.89183696E+02</rscale>
<asrwt>0</asrwt>
<pdfrwt beam="1">  1        2 0.32955121E-01 0.89183696E+02</pdfrwt>
<pdfrwt beam="2">  1       -2 0.14281089E-02 0.89183696E+02</pdfrwt>
<totfact> 0.16827315E+05</totfact>
</mgrwt>
</event>
<event>
 5    1  0.3957498E+001  0.9191664E+02  0.7546771E-02  0.1298276E+00
          1   -1    0    0  501    0  0.00000000000E+00  0.00000000000E+00  0.77408436977E+01  0.77408436977E+01  0.00000000000E+00 0. -1.
         -1   -1    0    0    0  501 -0.00000000000E+00 -0.00000000000E+00 -0.27286006514E+03  0.27286006514E+03  0.00000000000E+00 0.  1.
         23    2    1    2    0    0  0.00000000000E+00  0.00000000000E+00 -0.26511922145E+03  0.28060090884E+03  0.91916638660E+02 0.  0.
          2    1    3    3  502    0 -0.35198155298E+02 -0.21735643404E+02 -0.71441633409E+02  0.82554559624E+02  0.00000000000E+00 0. -1.
         -2    1    3    3    0  502  0.35198155298E+02  0.21735643404E+02 -0.19367758804E+03  0.19804634922E+03  0.00000000000E+00 0.  1.
<mgrwt>
<rscale>  0 0.91916639E+02</rscale>
<asrwt>0</asrwt>
<pdfrwt beam="1">  1        1 0.11908989E-02 0.91916639E+02</pdfrwt>
<pdfrwt beam="2">  1       -1 0.41978475E-01 0.91916639E+02</pdfrwt>
<totfact> 0.61488759E+04</totfact>
</mgrwt>
</event>
<event>
 5    1  0.3957498E+001  0.9047151E+02  0.7546771E-02  0.1301714E+00
          1   -1    0    0  501    0  0.00000000000E+00  0.00000000000E+00  0.25960012278E+03  0.25960012278E+03  0.00000000000E+00 0. -1.
         -1   -1    0    0    0  501 -0.00000000000E+00 -0.00000000000E+00 -0.78824053351E+01  0.78824053351E+01  0.00000000000E+00 0.  1.
         23    2    1    2    0    0  0.00000000000E+00  0.00000000000E+00  0.25171771745E+03  0.26748252812E+03  0.90471506958E+02 0.  0.
          2    1    3    3  502    0  0.72038866685E+01  0.27470031429E+02  0.22995988099E+03  0.23170680929E+03  0.00000000000E+00 0. -1.
         -2    1    3    3    0  502 -0.72038866685E+01 -0.27470031429E+02  0.21757836459E+02  0.35775718822E+02  0.00000000000E+00 0.  1.
<mgrwt>
<rscale>  0 0.90471507E+02</rscale>
<asrwt>0</asrwt>
<pdfrwt beam="1">  1        1 0.39938474E-01 0.90471507E+02</pdfrwt>
<pdfrwt beam="2">  1       -1 0.12126779E-02 0.90471507E+02</pdfrwt>
<totfact> 0.12719015E+05</totfact>
</mgrwt>
</event>
<event>
 5    1  0.3957498E+001  0.9045144E+02  0.7546771E-02  0.1301762E+00
         -1   -1    0    0    0  501 -0.00000000000E+00  0.00000000000E+00  0.99418394277E+00  0.99418394277E+00  0.00000000000E+00 0.  1.
          1   -1    0    0  501    0  0.00000000000E+00 -0.00000000000E+00 -0.20573310982E+04  0.20573310982E+04  0.00000000000E+00 0. -1.
         23    2    1    2    0    0  0.00000000000E+00  0.00000000000E+00 -0.20563369143E+04  0.20583252822E+04  0.90451435430E+02 0.  0.
          2    1    3    3  502    0  0.76377884908E+00  0.44545343874E+02 -0.12051616553E+04  0.12059848616E+04  0.00000000000E+00 0.  1.
         -2    1    3    3    0  502 -0.76377884908E+00 -0.44545343874E+02 -0.85117525903E+03  0.85234042061E+03  0.00000000000E+00 0. -1.
<mgrwt>
<rscale>  0 0.90451435E+02</rscale>
<asrwt>0</asrwt>
<pdfrwt beam="2">  1        1 0.31651039E+00 0.90451435E+02</pdfrwt>
<pdfrwt beam="1">  1       -1 0.15295238E-03 0.90451435E+02</pdfrwt>
<totfact> 0.77961555E+04</totfact>
</mgrwt>
</event>
<event>
 5    1  0.3957498E+001  0.9219235E+02  0.7546771E-02  0.1297628E+00
         -2   -1    0    0    0  501 -0.00000000000E+00  0.00000000000E+00  0.71010303719E+01  0.71010303719E+01  0.00000000000E+00 0.  1.
          2   -1    0    0  501    0  0.00000000000E+00 -0.00000000000E+00 -0.29923228655E+03  0.29923228655E+03  0.00000000000E+00 0. -1.
         23    2    1    2    0    0  0.00000000000E+00  0.00000000000E+00 -0.29213125618E+03  0.30633331692E+03  0.92192354456E+02 0.  0.
          2    1    3    3  502    0 -0.44847502434E+02 -0.93821140533E+01 -0.16285627378E+03  0.16917886526E+03  0.00000000000E+00 0. -1.
         -2    1    3    3    0  502  0.44847502434E+02  0.93821140533E+01 -0.12927498239E+03  0.13715445166E+03  0.00000000000E+00 0.  1.
<mgrwt>
<rscale>  0 0.92192354E+02</rscale>
<asrwt>0</asrwt>
<pdfrwt beam="2">  1        2 0.46035739E-01 0.92192354E+02</pdfrwt>
<pdfrwt beam="1">  1       -2 0.10924662E-02 0.92192354E+02</pdfrwt>
<totfact> 0.17425517E+05</totfact>
</mgrwt>
</event>
<event>
 5    1  0.3957498E+001  0.8658533E+02  0.7546771E-02  0.1311338E+00
         -4   -1    0    0    0  501 -0.00000000000E+00  0.00000000000E+00  0.10913122226E+04  0.10913122226E+04  0.00000000000E+00 0.  1.
          4   -1    0    0  501    0  0.00000000000E+00 -0.00000000000E+00 -0.17174320957E+01  0.17174320957E+01  0.00000000000E+00 0. -1.
         23    2    1    2    0    0  0.00000000000E+00  0.00000000000E+00  0.10895947905E+04  0.10930296547E+04  0.86585325256E+02 0.  0.
          2    1    3    3  502    0 -0.32747671566E+02  0.95747820720E+01  0.88120690230E+03  0.88186716183E+03  0.00000000000E+00 0.  1.
         -2    1    3    3    0  502  0.32747671566E+02 -0.95747820720E+01  0.20838788816E+03  0.21116249283E+03  0.00000000000E+00 0. -1.
<mgrwt>
<rscale>  0 0.86585325E+02</rscale>
<asrwt>0</asrwt>
<pdfrwt beam="2">  1        4 0.26422120E-03 0.86585325E+02</pdfrwt>
<pdfrwt beam="1">  1       -4 0.16789363E+00 0.86585325E+02</pdfrwt>
<totfact> 0.73689847E+03</totfact>
</mgrwt>
</event>
<event>
 5    1  0.3957498E+001  0.9254708E+02  0.7546771E-02  0.1296798E+00
         -3   -1    0    0    0  501 -0.00000000000E+00  0.00000000000E+00  0.91522240248E+00  0.91522240248E+00  0.00000000000E+00 0.  1.
          3   -1    0    0  501    0  0.00000000000E+00 -0.00000000000E+00 -0.23395849284E+04  0.23395849284E+04  0.00000000000E+00 0. -1.
         23    2    1    2    0    0  0.00000000000E+00  0.00000000000E+00 -0.23386697060E+04  0.23405001508E+04  0.92547080753E+02 0.  0.
          2    1    3    3  502    0 -0.77080204647E+01 -0.43023355241E+02 -0.78511424277E+03  0.78632995420E+03  0.00000000000E+00 0.  1.
         -2    1    3    3    0  502  0.77080204647E+01  0.43023355241E+02 -0.15535554632E+04  0.15541701966E+04  0.00000000000E+00 0. -1.
<mgrwt>
<rscale>  0 0.92547081E+02</rscale>
<asrwt>0</asrwt>
<pdfrwt beam="2">  1        3 0.35992948E+00 0.92547081E+02</pdfrwt>
<pdfrwt beam="1">  1       -3 0.14080605E-03 0.92547081E+02</pdfrwt>
<totfact> 0.23992241E+03</totfact>
</mgrwt>
</event>
<event>
 5    1  0.3957498E+001  0.9222668E+02  0.7546771E-02  0.1297547E+00
         -1   -1    0    0    0  501 -0.00000000000E+00  0.00000000000E+00  0.18736319340E+03  0.18736319340E+03  0.00000000000E+00 0.  1.
          1   -1    0    0  501    0  0.00000000000E+00 -0.00000000000E+00 -0.11349295036E+02  0.11349295036E+02  0.00000000000E+00 0. -1.
         23    2    1    2    0    0  0.00000000000E+00  0.00000000000E+00  0.17601389837E+03  0.19871248844E+03  0.92226680756E+02 0.  0.
          2    1    3    3  502    0  0.35527851345E+02 -0.27231800742E+02  0.11186782432E+03  0.12049153212E+03  0.00000000000E+00 0. -1.
         -2    1    3    3    0  502 -0.35527851345E+02  0.27231800742E+02  0.64146074045E+02  0.78220956324E+02  0.00000000000E+00 0.  1.
<mgrwt>
<rscale>  0 0.92226681E+02</rscale>
<asrwt>0</asrwt>
<pdfrwt beam="2">  1        1 0.17460455E-02 0.92226681E+02</pdfrwt>
<pdfrwt beam="1">  1       -1 0.28825105E-01 0.92226681E+02</pdfrwt>
<totfact> 0.68623787E+04</totfact>
</mgrwt>
</event>
<event>
 5    1  0.3957498E+001  0.9038638E+02  0.7546771E-02  0.1301919E+00
         -1   -1    0    0    0  501 -0.00000000000E+00  0.00000000000E+00  0.78245322308E+01  0.78245322308E+01  0.00000000000E+00 0. -1.
          1   -1    0    0  501    0  0.00000000000E+00 -0.00000000000E+00 -0.26102833578E+03  0.26102833578E+03  0.00000000000E+00 0.  1.
         23    2    1    2    0    0  0.00000000000E+00  0.00000000000E+00 -0.25320380355E+03  0.26885286801E+03  0.90386384516E+02 0.  0.
          2    1    3    3  502    0  0.26524008085E+02  0.25361825241E+02 -0.48147693553E+02  0.60538793999E+02  0.00000000000E+00 0. -1.
         -2    1    3    3    0  502 -0.26524008085E+02 -0.25361825241E+02 -0.20505611000E+03  0.20831407401E+03  0.00000000000E+00 0.  1.
<mgrwt>
<rscale>  0 0.90386385E+02</rscale>
<asrwt>0</asrwt>
<pdfrwt beam="2">  1        1 0.40158201E-01 0.90386385E+02</pdfrwt>
<pdfrwt beam="1">  1       -1 0.12037743E-02 0.90386385E+02</pdfrwt>
<totfact> 0.12764655E+05</totfact>
</mgrwt>
</event>
<event>
 5    1  0.3957498E+001  0.9078244E+02  0.7546771E-02  0.1300968E+00
         -1   -1    0    0    0  501 -0.00000000000E+00  0.00000000000E+00  0.44679297120E+01  0.44679297120E+01  0.00000000000E+00 0.  1.
          1   -1    0    0  501    0  0.00000000000E+00 -0.00000000000E+00 -0.46114483417E+03  0.46114483417E+03  0.00000000000E+00 0. -1.
         23    2    1    2    0    0  0.00000000000E+00  0.00000000000E+00 -0.45667690445E+03  0.46561276388E+03  0.90782436762E+02 0.  0.
          2    1    3    3  502    0  0.93680574853E+01  0.43550499013E+02 -0.18363873533E+03  0.18896452466E+03  0.00000000000E+00 0.  1.
         -2    1    3    3    0  502 -0.93680574853E+01 -0.43550499013E+02 -0.27303816912E+03  0.27664823922E+03  0.00000000000E+00 0. -1.
<mgrwt>
<rscale>  0 0.90782437E+02</rscale>
<asrwt>0</asrwt>
<pdfrwt beam="2">  1        1 0.70945386E-01 0.90782437E+02</pdfrwt>
<pdfrwt beam="1">  1       -1 0.68737354E-03 0.90782437E+02</pdfrwt>
<totfact> 0.13942242E+05</totfact>
</mgrwt>
</event>
<event>
 5    1  0.3957498E+001  0.9160468E+02  0.7546771E-02  0.1299012E+00
          2   -1    0    0  501    0  0.00000000000E+00  0.00000000000E+00  0.56434138409E+01  0.56434138409E+01  0.00000000000E+00 0. -1.
         -2   -1    0    0    0  501 -0.00000000000E+00 -0.00000000000E+00 -0.37173501191E+03  0.37173501191E+03  0.00000000000E+00 0.  1.
         23    2    1    2    0    0  0.00000000000E+00  0.00000000000E+00 -0.36609159807E+03  0.37737842575E+03  0.91604683535E+02 0.  0.
          2    1    3    3  502    0 -0.28968027330E+02 -0.32072784236E+02 -0.12056231506E+03  0.12807451702E+03  0.00000000000E+00 0. -1.
         -2    1    3    3    0  502  0.28968027330E+02  0.32072784236E+02 -0.24552928301E+03  0.24930390873E+03  0.00000000000E+00 0.  1.
<mgrwt>
<rscale>  0 0.91604684E+02</rscale>
<asrwt>0</asrwt>
<pdfrwt beam="1">  1        2 0.86821772E-03 0.91604684E+02</pdfrwt>
<pdfrwt beam="2">  1       -2 0.57189988E-01 0.91604684E+02</pdfrwt>
<totfact> 0.44271911E+04</totfact>
</mgrwt>
</event>
<event>
 5    1  0.3957498E+001  0.9779143E+02  0.7546771E-02  0.1285010E+00
          2   -1    0    0  501    0  0.00000000000E+00  0.00000000000E+00  0.47715582083E+03  0.47715582083E+03  0.00000000000E+00 0. -1.
         -2   -1    0    0    0  501 -0.00000000000E+00 -0.00000000000E+00 -0.50105039754E+01  0.50105039754E+01  0.00000000000E+00 0.  1.
         23    2    1    2    0    0  0.00000000000E+00  0.00000000000E+00  0.47214531686E+03  0.48216632481E+03  0.97791433923E+02 0.  0.
          2    1    3    3  502    0 -0.42072069497E+02  0.10999456016E+02  0.34629506447E+03  0.34901478299E+03  0.00000000000E+00 0. -1.
         -2    1    3    3    0  502  0.42072069497E+02 -0.10999456016E+02  0.12585025238E+03  0.13315154182E+03  0.00000000000E+00 0.  1.
<mgrwt>
<rscale>  0 0.97791434E+02</rscale>
<asrwt>0</asrwt>
<pdfrwt beam="1">  1        2 0.73408552E-01 0.97791434E+02</pdfrwt>
<pdfrwt beam="2">  1       -2 0.77084715E-03 0.97791434E+02</pdfrwt>
<totfact> 0.17614904E+05</totfact>
</mgrwt>
</event>
<event>
 5    1  0.3957498E+001  0.8992147E+02  0.7546771E-02  0.1303042E+00
         -1   -1    0    0    0  501 -0.00000000000E+00  0.00000000000E+00  0.26269328747E+01  0.26269328747E+01  0.00000000000E+00 0.  1.
          1   -1    0    0  501    0  0.00000000000E+00 -0.00000000000E+00 -0.76951631796E+03  0.76951631796E+03  0.00000000000E+00 0. -1.
         23    2    1    2    0    0  0.00000000000E+00  0.00000000000E+00 -0.76688938508E+03  0.77214325083E+03  0.89921470479E+02 0.  0.
          2    1    3    3  502    0  0.34522820558E+02  0.89782139167E+01 -0.61845413782E+03  0.61948200462E+03  0.00000000000E+00 0. -1.
         -2    1    3    3    0  502 -0.34522820558E+02 -0.89782139167E+01 -0.14843524727E+03  0.15266124621E+03  0.00000000000E+00 0.  1.
<mgrwt>
<rscale>  0 0.89921470E+02</rscale>
<asrwt>0</asrwt>
<pdfrwt beam="2">  1        1 0.11838708E+00 0.89921470E+02</pdfrwt>
<pdfrwt beam="1">  1       -1 0.40414368E-03 0.89921470E+02</pdfrwt>
<totfact> 0.14699745E+05</totfact>
</mgrwt>
</event>
<event>
 5    1  0.3957498E+001  0.8989508E+02  0.7546771E-02  0.1303106E+00
          1   -1    0    0  501    0  0.00000000000E+00  0.00000000000E+00  0.17202445626E+01  0.17202445626E+01  0.00000000000E+00 0. -1.
         -1   -1    0    0    0  501 -0.00000000000E+00 -0.00000000000E+00 -0.11744152428E+04  0.11744152428E+04  0.00000000000E+00 0.  1.
         23    2    1    2    0    0  0.00000000000E+00  0.00000000000E+00 -0.11726949983E+04  0.11761354874E+04  0.89895081861E+02 0.  0.
          2    1    3    3  502    0 -0.19923363522E+02  0.35007499084E+02 -0.32539433865E+03  0.32787793617E+03  0.00000000000E+00 0. -1.
         -2    1    3    3    0  502  0.19923363522E+02 -0.35007499084E+02 -0.84730065962E+03  0.84825755122E+03  0.00000000000E+00 0.  1.
<mgrwt>
<rscale>  0 0.89895082E+02</rscale>
<asrwt>0</asrwt>
<pdfrwt beam="1">  1        1 0.26465196E-03 0.89895082E+02</pdfrwt>
<pdfrwt beam="2">  1       -1 0.18067998E+00 0.89895082E+02</pdfrwt>
<totfact> 0.21524142E+04</totfact>
</mgrwt>
</event>
<event>
 5    1  0.3957498E+001  0.9267715E+02  0.7546771E-02  0.1296495E+00
         -2   -1    0    0    0  501 -0.00000000000E+00  0.00000000000E+00  0.21793022217E+01  0.21793022217E+01  0.00000000000E+00 0.  1.
          2   -1    0    0  501    0  0.00000000000E+00 -0.00000000000E+00 -0.98529860806E+03  0.98529860806E+03  0.00000000000E+00 0. -1.
         23    2    1    2    0    0  0.00000000000E+00  0.00000000000E+00 -0.98311930583E+03  0.98747791028E+03  0.92677148114E+02 0.  0.
          2    1    3    3  502    0  0.38791430708E+02  0.21734758612E+01 -0.76064177776E+03  0.76163338501E+03  0.00000000000E+00 0. -1.
         -2    1    3    3    0  502 -0.38791430708E+02 -0.21734758612E+01 -0.22247752807E+03  0.22584452526E+03  0.00000000000E+00 0.  1.
<mgrwt>
<rscale>  0 0.92677148E+02</rscale>
<asrwt>0</asrwt>
<pdfrwt beam="2">  1        2 0.15158458E+00 0.92677148E+02</pdfrwt>
<pdfrwt beam="1">  1       -2 0.33527688E-03 0.92677148E+02</pdfrwt>
<totfact> 0.23931570E+05</totfact>
</mgrwt>
</event>
<event>
 5    1  0.3957498E+001  0.9299924E+02  0.7546771E-02  0.1295747E+00
          1   -1    0    0  501    0  0.00000000000E+00  0.00000000000E+00  0.33203908903E+03  0.33203908903E+03  0.00000000000E+00 0. -1.
         -1   -1    0    0    0  501 -0.00000000000E+00 -0.00000000000E+00 -0.65119285550E+01  0.65119285550E+01  0.00000000000E+00 0.  1.
         23    2    1    2    0    0  0.00000000000E+00  0.00000000000E+00  0.32552716047E+03  0.33855101758E+03  0.92999243550E+02 0.  0.
          2    1    3    3  502    0  0.12875255353E+02  0.19705260326E+02  0.16778875507E+02  0.28906749180E+02  0.00000000000E+00 0.  1.
         -2    1    3    3    0  502 -0.12875255353E+02 -0.19705260326E+02  0.30874828497E+03  0.30964426840E+03  0.00000000000E+00 0. -1.
<mgrwt>
<rscale>  0 0.92999244E+02</rscale>
<asrwt>0</asrwt>
<pdfrwt beam="1">  1        1 0.51082924E-01 0.92999244E+02</pdfrwt>
<pdfrwt beam="2">  1       -1 0.10018354E-02 0.92999244E+02</pdfrwt>
<totfact> 0.12387156E+05</totfact>
</mgrwt>
</event>
<event>
 5    1  0.3957498E+001  0.8877480E+02  0.7546771E-02  0.1305846E+00
          3   -1    0    0  501    0  0.00000000000E+00  0.00000000000E+00  0.72500048462E+02  0.72500048462E+02  0.00000000000E+00 0. -1.
         -3   -1    0    0    0  501 -0.00000000000E+00 -0.00000000000E+00 -0.27175720660E+02  0.27175720660E+02  0.00000000000E+00 0.  1.
         23    2    1    2    0    0  0.00000000000E+00  0.00000000000E+00  0.45324327802E+02  0.99675769122E+02  0.88774795181E+02 0.  0.
          2    1    3    3  502    0 -0.34822359923E+02 -0.11695304918E+01  0.53539528286E+02  0.63878365988E+02  0.00000000000E+00 0. -1.
         -2    1    3    3    0  502  0.34822359923E+02  0.11695304918E+01 -0.82152004836E+01  0.35797403135E+02  0.00000000000E+00 0.  1.
<mgrwt>
<rscale>  0 0.88774795E+02</rscale>
<asrwt>0</asrwt>
<pdfrwt beam="1">  1        3 0.11153854E-01 0.88774795E+02</pdfrwt>
<pdfrwt beam="2">  1       -3 0.41808801E-02 0.88774795E+02</pdfrwt>
<totfact> 0.37301999E+04</totfact>
</mgrwt>
</event>
<event>
 5    1  0.3957498E+001  0.9297859E+02  0.7546771E-02  0.1295795E+00
         -2   -1    0    0    0  501 -0.00000000000E+00  0.00000000000E+00  0.11844891320E+02  0.11844891320E+02  0.00000000000E+00 0.  1.
          2   -1    0    0  501    0  0.00000000000E+00 -0.00000000000E+00 -0.18246301676E+03  0.18246301676E+03  0.00000000000E+00 0. -1.
         23    2    1    2    0    0  0.00000000000E+00  0.00000000000E+00 -0.17061812544E+03  0.19430790808E+03  0.92978591159E+02 0.  0.
          2    1    3    3  502    0  0.20169025896E+02  0.29886909985E+02 -0.23979621434E+02  0.43301723270E+02  0.00000000000E+00 0.  1.
         -2    1    3    3    0  502 -0.20169025896E+02 -0.29886909985E+02 -0.14663850400E+03  0.15100618481E+03  0.00000000000E+00 0. -1.
<mgrwt>
<rscale>  0 0.92978591E+02</rscale>
<asrwt>0</asrwt>
<pdfrwt beam="2">  1        2 0.28071233E-01 0.92978591E+02</pdfrwt>
<pdfrwt beam="1">  1       -2 0.18222910E-02 0.92978591E+02</pdfrwt>
<totfact> 0.14195430E+05</totfact>
</mgrwt>
</event>
<event>
 5    1  0.3957498E+001  0.8449529E+02  0.7546771E-02  0.1316758E+00
         -1   -1    0    0    0  501 -0.00000000000E+00  0.00000000000E+00  0.97514101961E+00  0.97514101961E+00  0.00000000000E+00 0.  1.
          1   -1    0    0  501    0  0.00000000000E+00 -0.00000000000E+00 -0.18303643763E+04  0.18303643763E+04  0.00000000000E+00 0. -1.
         23    2    1    2    0    0  0.00000000000E+00  0.00000000000E+00 -0.18293892353E+04  0.18313395173E+04  0.84495287067E+02 0.  0.
          2    1    3    3  502    0 -0.29727353843E+01  0.42133501184E+02 -0.89537802895E+03  0.89637374114E+03  0.00000000000E+00 0. -1.
         -2    1    3    3    0  502  0.29727353843E+01 -0.42133501184E+02 -0.93401120632E+03  0.93496577617E+03  0.00000000000E+00 0.  1.
<mgrwt>
<rscale>  0 0.84495287E+02</rscale>
<asrwt>0</asrwt>
<pdfrwt beam="2">  1        1 0.28159252E+00 0.84495287E+02</pdfrwt>
<pdfrwt beam="1">  1       -1 0.15002276E-03 0.84495287E+02</pdfrwt>
<totfact> 0.11019132E+05</totfact>
</mgrwt>
</event>
<event>
 5    1  0.3957498E+001  0.9446169E+02  0.7546771E-02  0.1292393E+00
          1   -1    0    0  501    0  0.00000000000E+00  0.00000000000E+00  0.77269814140E+03  0.77269814140E+03  0.00000000000E+00 0. -1.
         -1   -1    0    0    0  501 -0.00000000000E+00 -0.00000000000E+00 -0.28869655390E+01  0.28869655390E+01  0.00000000000E+00 0.  1.
         23    2    1    2    0    0  0.00000000000E+00  0.00000000000E+00  0.76981117586E+03  0.77558510693E+03  0.94461693957E+02 0.  0.
          2    1    3    3  502    0 -0.39196037063E+01  0.20132860274E+02  0.35588425785E+02  0.41075922460E+02  0.00000000000E+00 0.  1.
         -2    1    3    3    0  502  0.39196037063E+01 -0.20132860274E+02  0.73422275007E+03  0.73450918447E+03  0.00000000000E+00 0. -1.
<mgrwt>
<rscale>  0 0.94461694E+02</rscale>
<asrwt>0</asrwt>
<pdfrwt beam="1">  1        1 0.11887647E+00 0.94461694E+02</pdfrwt>
<pdfrwt beam="2">  1       -1 0.44414916E-03 0.94461694E+02</pdfrwt>
<totfact> 0.12899495E+05</totfact>
</mgrwt>
</event>
<event>
 5    1  0.3957498E+001  0.9080740E+02  0.7546771E-02  0.1300908E+00
         -3   -1    0    0    0  501 -0.00000000000E+00  0.00000000000E+00  0.90031481181E+01  0.90031481181E+01  0.00000000000E+00 0.  1.
          3   -1    0    0  501    0  0.00000000000E+00 -0.00000000000E+00 -0.22897499813E+03  0.22897499813E+03  0.00000000000E+00 0. -1.
         23    2    1    2    0    0  0.00000000000E+00  0.00000000000E+00 -0.21997185001E+03  0.23797814625E+03  0.90807396692E+02 0.  0.
          2    1    3    3  502    0  0.43375614123E+02 -0.17512626469E+01 -0.14485047665E+03  0.15121564538E+03  0.00000000000E+00 0. -1.
         -2    1    3    3    0  502 -0.43375614123E+02  0.17512626469E+01 -0.75121373362E+02  0.86762500870E+02  0.00000000000E+00 0.  1.
<mgrwt>
<rscale>  0 0.90807397E+02</rscale>
<asrwt>0</asrwt>
<pdfrwt beam="2">  1        3 0.35226916E-01 0.90807397E+02</pdfrwt>
<pdfrwt beam="1">  1       -3 0.13851000E-02 0.90807397E+02</pdfrwt>
<totfact> 0.26939880E+04</totfact>
</mgrwt>
</event>
<event>
 5    1  0.3957498E+001  0.9112764E+02  0.7546771E-02  0.1300144E+00
         -2   -1    0    0    0  501 -0.00000000000E+00  0.00000000000E+00  0.88333740786E+02  0.88333740786E+02  0.00000000000E+00 0. -1.
          2   -1    0    0  501    0  0.00000000000E+00 -0.00000000000E+00 -0.23502479372E+02  0.23502479372E+02  0.00000000000E+00 0.  1.
         23    2    1    2    0    0  0.00000000000E+00  0.00000000000E+00  0.64831261413E+02  0.11183622016E+03  0.91127644997E+02 0.  0.
          2    1    3    3  502    0 -0.16251009302E+02 -0.33805582744E+02  0.64161981623E+02  0.74321414235E+02  0.00000000000E+00 0. -1.
         -2    1    3    3    0  502  0.16251009302E+02  0.33805582744E+02  0.66927979033E+00  0.37514805923E+02  0.00000000000E+00 0.  1.
<mgrwt>
<rscale>  0 0.91127645E+02</rscale>
<asrwt>0</asrwt>
<pdfrwt beam="2">  1        2 0.36157661E-02 0.91127645E+02</pdfrwt>
<pdfrwt beam="1">  1       -2 0.13589806E-01 0.91127645E+02</pdfrwt>
<totfact> 0.82856316E+04</totfact>
</mgrwt>
</event>
<event>
 5    1  0.3957498E+001  0.9024141E+02  0.7546771E-02  0.1302268E+00
         -2   -1    0    0    0  501 -0.00000000000E+00  0.00000000000E+00  0.35377546554E+01  0.35377546554E+01  0.00000000000E+00 0. -1.
          2   -1    0    0  501    0  0.00000000000E+00 -0.00000000000E+00 -0.57547181878E+03  0.57547181878E+03  0.00000000000E+00 0.  1.
         23    2    1    2    0    0  0.00000000000E+00  0.00000000000E+00 -0.57193406413E+03  0.57900957344E+03  0.90241411911E+02 0.  0.
          2    1    3    3  502    0  0.15263415508E+02 -0.31994434695E+02 -0.10685625250E+03  0.11258274469E+03  0.00000000000E+00 0. -1.
         -2    1    3    3    0  502 -0.15263415508E+02  0.31994434695E+02 -0.46507781163E+03  0.46642682875E+03  0.00000000000E+00 0.  1.
<mgrwt>
<rscale>  0 0.90241412E+02</rscale>
<asrwt>0</asrwt>
<pdfrwt beam="2">  1        2 0.88534140E-01 0.90241412E+02</pdfrwt>
<pdfrwt beam="1">  1       -2 0.54426986E-03 0.90241412E+02</pdfrwt>
<totfact> 0.23133020E+05</totfact>
</mgrwt>
</event>
<event>
 5    1  0.3957498E+001  0.9431631E+02  0.7546771E-02  0.1292723E+00
          2   -1    0    0  501    0  0.00000000000E+00  0.00000000000E+00  0.19877329759E+04  0.19877329759E+04  0.00000000000E+00 0. -1.
         -2   -1    0    0    0  501 -0.00000000000E+00 -0.00000000000E+00 -0.11188079893E+01  0.11188079893E+01  0.00000000000E+00 0.  1.
         23    2    1    2    0    0  0.00000000000E+00  0.00000000000E+00  0.19866141679E+04  0.19888517839E+04  0.94316308961E+02 0.  0.
          2    1    3    3  502    0  0.48676436093E+01 -0.37181940866E+02  0.39031328194E+03  0.39211050578E+03  0.00000000000E+00 0.  1.
         -2    1    3    3    0  502 -0.48676436093E+01  0.37181940866E+02  0.15963008860E+04  0.15967412781E+04  0.00000000000E+00 0. -1.
<mgrwt>
<rscale>  0 0.94316309E+02</rscale>
<asrwt>0</asrwt>
<pdfrwt beam="1">  1        2 0.30580225E+00 0.94316309E+02</pdfrwt>
<pdfrwt beam="2">  1       -2 0.17212590E-03 0.94316309E+02</pdfrwt>
<totfact> 0.18097484E+05</totfact>
</mgrwt>
</event>
<event>
 5    1  0.3957498E+001  0.9148322E+02  0.7546771E-02  0.1299299E+00
         -1   -1    0    0    0  501 -0.00000000000E+00  0.00000000000E+00  0.88198981114E+02  0.88198981114E+02  0.00000000000E+00 0.  1.
          1   -1    0    0  501    0  0.00000000000E+00 -0.00000000000E+00 -0.23722440680E+02  0.23722440680E+02  0.00000000000E+00 0. -1.
         23    2    1    2    0    0  0.00000000000E+00  0.00000000000E+00  0.64476540434E+02  0.11192142179E+03  0.91483224638E+02 0.  0.
          2    1    3    3  502    0 -0.39449529457E+01  0.36954976183E+02 -0.38485356130E+00  0.37166934642E+02  0.00000000000E+00 0. -1.
         -2    1    3    3    0  502  0.39449529457E+01 -0.36954976183E+02  0.64861393995E+02  0.74754487153E+02  0.00000000000E+00 0.  1.
<mgrwt>
<rscale>  0 0.91483225E+02</rscale>
<asrwt>0</asrwt>
<pdfrwt beam="2">  1        1 0.36496063E-02 0.91483225E+02</pdfrwt>
<pdfrwt beam="1">  1       -1 0.13569074E-01 0.91483225E+02</pdfrwt>
<totfact> 0.82524243E+04</totfact>
</mgrwt>
</event>
<event>
 5    1  0.3957498E+001  0.9341732E+02  0.7546771E-02  0.1294781E+00
         -1   -1    0    0    0  501 -0.00000000000E+00  0.00000000000E+00  0.38738863048E+03  0.38738863048E+03  0.00000000000E+00 0.  1.
          1   -1    0    0  501    0  0.00000000000E+00 -0.00000000000E+00 -0.56318098471E+01  0.56318098471E+01  0.00000000000E+00 0. -1.
         23    2    1    2    0    0  0.00000000000E+00  0.00000000000E+00  0.38175682063E+03  0.39302044033E+03  0.93417323956E+02 0.  0.
          2    1    3    3  502    0 -0.21764739980E+02 -0.41248720821E+02  0.20163606866E+03  0.20695957349E+03  0.00000000000E+00 0.  1.
         -2    1    3    3    0  502  0.21764739980E+02  0.41248720821E+02  0.18012075198E+03  0.18606086684E+03  0.00000000000E+00 0. -1.
<mgrwt>
<rscale>  0 0.93417324E+02</rscale>
<asrwt>0</asrwt>
<pdfrwt beam="2">  1        1 0.86643258E-03 0.93417324E+02</pdfrwt>
<pdfrwt beam="1">  1       -1 0.59598230E-01 0.93417324E+02</pdfrwt>
<totfact> 0.50806455E+04</totfact>
</mgrwt>
</event>
<event>
 5    1  0.3957498E+001  0.9408886E+02  0.7546771E-02  0.1293241E+00
          1   -1    0    0  501    0  0.00000000000E+00  0.00000000000E+00  0.38278445332E+02  0.38278445332E+02  0.00000000000E+00 0. -1.
         -1   -1    0    0    0  501 -0.00000000000E+00 -0.00000000000E+00 -0.57817879450E+02  0.57817879450E+02  0.00000000000E+00 0.  1.
         23    2    1    2    0    0  0.00000000000E+00  0.00000000000E+00 -0.19539434117E+02  0.96096324782E+02  0.94088863055E+02 0.  0.
          2    1    3    3  502    0  0.40710527672E+02  0.47903647628E+01  0.13807082376E+02  0.43254250446E+02  0.00000000000E+00 0. -1.
         -2    1    3    3    0  502 -0.40710527672E+02 -0.47903647628E+01 -0.33346516493E+02  0.52842074336E+02  0.00000000000E+00 0.  1.
<mgrwt>
<rscale>  0 0.94088863E+02</rscale>
<asrwt>0</asrwt>
<pdfrwt beam="1">  1        1 0.58889916E-02 0.94088863E+02</pdfrwt>
<pdfrwt beam="2">  1       -1 0.88950583E-02 0.94088863E+02</pdfrwt>
<totfact> 0.82361304E+04</totfact>
</mgrwt>
</event>
<event>
 5    1  0.3957498E+001  0.9061451E+02  0.7546771E-02  0.1301370E+00
         -1   -1    0    0    0  501 -0.00000000000E+00  0.00000000000E+00  0.32328177465E+01  0.32328177465E+01  0.00000000000E+00 0.  1.
          1   -1    0    0  501    0  0.00000000000E+00 -0.00000000000E+00 -0.63497159501E+03  0.63497159501E+03  0.00000000000E+00 0. -1.
         23    2    1    2    0    0  0.00000000000E+00  0.00000000000E+00 -0.63173877726E+03  0.63820441275E+03  0.90614511881E+02 0.  0.
          2    1    3    3  502    0  0.16695937698E+02 -0.41596541604E+02 -0.36243939049E+03  0.36520040853E+03  0.00000000000E+00 0. -1.
         -2    1    3    3    0  502 -0.16695937698E+02  0.41596541604E+02 -0.26929938677E+03  0.27300400422E+03  0.00000000000E+00 0.  1.
<mgrwt>
<rscale>  0 0.90614512E+02</rscale>
<asrwt>0</asrwt>
<pdfrwt beam="2">  1        1 0.97687905E-01 0.90614512E+02</pdfrwt>
<pdfrwt beam="1">  1       -1 0.49735674E-03 0.90614512E+02</pdfrwt>
<totfact> 0.14431902E+05</totfact>
</mgrwt>
</event>
<event>
 5    1  0.3957498E+001  0.7041407E+02  0.7546771E-02  0.1358691E+00
         -2   -1    0    0    0  501 -0.00000000000E+00  0.00000000000E+00  0.53187518032E+02  0.53187518032E+02  0.00000000000E+00 0.  1.
          2   -1    0    0  501    0  0.00000000000E+00 -0.00000000000E+00 -0.23305002950E+02  0.23305002950E+02  0.00000000000E+00 0. -1.
         23    2    1    2    0    0  0.00000000000E+00  0.00000000000E+00  0.29882515082E+02  0.76492520982E+02  0.70414068612E+02 0.  0.
          2    1    3    3  502    0 -0.19714993513E+02 -0.27933050168E+02  0.24068904237E+02  0.41812060605E+02  0.00000000000E+00 0.  1.
         -2    1    3    3    0  502  0.19714993513E+02  0.27933050168E+02  0.58136108445E+01  0.34680460376E+02  0.00000000000E+00 0. -1.
<mgrwt>
<rscale>  0 0.70414069E+02</rscale>
<asrwt>0</asrwt>
<pdfrwt beam="2">  1        2 0.35853851E-02 0.70414069E+02</pdfrwt>
<pdfrwt beam="1">  1       -2 0.81826951E-02 0.70414069E+02</pdfrwt>
<totfact> 0.17640963E+05</totfact>
</mgrwt>
</event>
<event>
 5    1  0.3957498E+001  0.9053282E+02  0.7546771E-02  0.1301566E+00
         -2   -1    0    0    0  501 -0.00000000000E+00  0.00000000000E+00  0.48286158389E+01  0.48286158389E+01  0.00000000000E+00 0. -1.
          2   -1    0    0  501    0  0.00000000000E+00 -0.00000000000E+00 -0.42435514096E+03  0.42435514096E+03  0.00000000000E+00 0.  1.
         23    2    1    2    0    0  0.00000000000E+00  0.00000000000E+00 -0.41952652512E+03  0.42918375680E+03  0.90532821782E+02 0.  0.
          2    1    3    3  502    0 -0.32887584898E+02  0.31102784058E+02 -0.20849529918E+03  0.21335244596E+03  0.00000000000E+00 0. -1.
         -2    1    3    3    0  502  0.32887584898E+02 -0.31102784058E+02 -0.21103122594E+03  0.21583131084E+03  0.00000000000E+00 0.  1.
<mgrwt>
<rscale>  0 0.90532822E+02</rscale>
<asrwt>0</asrwt>
<pdfrwt beam="2">  1        2 0.65285407E-01 0.90532822E+02</pdfrwt>
<pdfrwt beam="1">  1       -2 0.74286397E-03 0.90532822E+02</pdfrwt>
<totfact> 0.20771514E+05</totfact>
</mgrwt>
</event>
<event>
 5    1  0.3957498E+001  0.8896783E+02  0.7546771E-02  0.1305371E+00
          1   -1    0    0  501    0  0.00000000000E+00  0.00000000000E+00  0.10088228113E+04  0.10088228113E+04  0.00000000000E+00 0. -1.
         -1   -1    0    0    0  501 -0.00000000000E+00 -0.00000000000E+00 -0.19615127389E+01  0.19615127389E+01  0.00000000000E+00 0.  1.
         23    2    1    2    0    0  0.00000000000E+00  0.00000000000E+00  0.10068612986E+04  0.10107843241E+04  0.88967832293E+02 0.  0.
          2    1    3    3  502    0 -0.17179428733E+01 -0.33805765420E+02  0.83134303060E+03  0.83203185974E+03  0.00000000000E+00 0. -1.
         -2    1    3    3    0  502  0.17179428733E+01  0.33805765420E+02  0.17551826800E+03  0.17875246433E+03  0.00000000000E+00 0.  1.
<mgrwt>
<rscale>  0 0.88967832E+02</rscale>
<asrwt>0</asrwt>
<pdfrwt beam="1">  1        1 0.15520309E+00 0.88967832E+02</pdfrwt>
<pdfrwt beam="2">  1       -1 0.30177200E-03 0.88967832E+02</pdfrwt>
<totfact> 0.14477206E+05</totfact>
</mgrwt>
</event>
<event>
 4    1  0.3957498E+001  0.1879300E+03  0.7546771E-02  0.1160342E+00
         -1   -1    0    0    0  501 -0.00000000000E+00  0.00000000000E+00  0.23832613166E+03  0.23832613166E+03  0.00000000000E+00 0.  1.
          1   -1    0    0  501    0  0.00000000000E+00 -0.00000000000E+00 -0.37047655333E+02  0.37047655333E+02  0.00000000000E+00 0. -1.
          2    1    1    2  502    0 -0.47503190492E+02 -0.58903322662E+02  0.19011798031E+02  0.78023092683E+02  0.00000000000E+00 0. -1.
         -2    1    1    2    0  502  0.47503190492E+02  0.58903322662E+02  0.18226667830E+03  0.19735069431E+03  0.00000000000E+00 0.  1.
<mgrwt>
<rscale>  0 0.18793003E+03</rscale>
<asrwt>0</asrwt>
<pdfrwt beam="2">  1        1 0.56996394E-02 0.18793003E+03</pdfrwt>
<pdfrwt beam="1">  1       -1 0.36665558E-01 0.18793003E+03</pdfrwt>
<totfact> 0.96635939E+03</totfact>
</mgrwt>
</event>
<event>
 5    1  0.3957498E+001  0.9048613E+02  0.7546771E-02  0.1301679E+00
         -2   -1    0    0    0  501 -0.00000000000E+00  0.00000000000E+00  0.38468576493E+02  0.38468576493E+02  0.00000000000E+00 0.  1.
          2   -1    0    0  501    0  0.00000000000E+00 -0.00000000000E+00 -0.53210568087E+02  0.53210568087E+02  0.00000000000E+00 0. -1.
         23    2    1    2    0    0  0.00000000000E+00  0.00000000000E+00 -0.14741991594E+02  0.91679144581E+02  0.90486127306E+02 0.  0.
          2    1    3    3  502    0 -0.66715414897E+00 -0.45098401487E+02 -0.10970853047E+02  0.46418428753E+02  0.00000000000E+00 0. -1.
         -2    1    3    3    0  502  0.66715414897E+00  0.45098401487E+02 -0.37711385465E+01  0.45260715828E+02  0.00000000000E+00 0.  1.
<mgrwt>
<rscale>  0 0.90486127E+02</rscale>
<asrwt>0</asrwt>
<pdfrwt beam="2">  1        2 0.81862412E-02 0.90486127E+02</pdfrwt>
<pdfrwt beam="1">  1       -2 0.59182426E-02 0.90486127E+02</pdfrwt>
<totfact> 0.10498106E+05</totfact>
</mgrwt>
</event>
<event>
 5    1  0.3957498E+001  0.9090100E+02  0.7546771E-02  0.1300684E+00
          1   -1    0    0  501    0  0.00000000000E+00  0.00000000000E+00  0.11658316842E+04  0.11658316842E+04  0.00000000000E+00 0. -1.
         -1   -1    0    0    0  501 -0.00000000000E+00 -0.00000000000E+00 -0.17719092389E+01  0.17719092389E+01  0.00000000000E+00 0.  1.
         23    2    1    2    0    0  0.00000000000E+00  0.00000000000E+00  0.11640597749E+04  0.11676035934E+04  0.90900999603E+02 0.  0.
          2    1    3    3  502    0  0.37904849414E+02  0.12232965011E+01  0.26027541974E+03  0.26302389280E+03  0.00000000000E+00 0.  1.
         -2    1    3    3    0  502 -0.37904849414E+02 -0.12232965011E+01  0.90378435520E+03  0.90457970062E+03  0.00000000000E+00 0. -1.
<mgrwt>
<rscale>  0 0.90901000E+02</rscale>
<asrwt>0</asrwt>
<pdfrwt beam="1">  1        1 0.17935811E+00 0.90901000E+02</pdfrwt>
<pdfrwt beam="2">  1       -1 0.27260235E-03 0.90901000E+02</pdfrwt>
<totfact> 0.13001224E+05</totfact>
</mgrwt>
</event>
<event>
 5    1  0.3957498E+001  0.9228383E+02  0.7546771E-02  0.1297413E+00
          2   -1    0    0  501    0  0.00000000000E+00  0.00000000000E+00  0.30229635608E+04  0.30229635608E+04  0.00000000000E+00 0. -1.
         -2   -1    0    0    0  501 -0.00000000000E+00 -0.00000000000E+00 -0.70430104999E+00  0.70430104999E+00  0.00000000000E+00 0.  1.
         23    2    1    2    0    0  0.00000000000E+00  0.00000000000E+00  0.30222592597E+04  0.30236678618E+04  0.92283831952E+02 0.  0.
          2    1    3    3  502    0 -0.13088542617E+02 -0.43860357525E+02  0.17022797303E+04  0.17028949824E+04  0.00000000000E+00 0. -1.
         -2    1    3    3    0  502  0.13088542617E+02  0.43860357525E+02  0.13199795294E+04  0.13207728794E+04  0.00000000000E+00 0.  1.
<mgrwt>
<rscale>  0 0.92283832E+02</rscale>
<asrwt>0</asrwt>
<pdfrwt beam="1">  1        2 0.46506093E+00 0.92283832E+02</pdfrwt>
<pdfrwt beam="2">  1       -2 0.10835643E-03 0.92283832E+02</pdfrwt>
<totfact> 0.96765258E+04</totfact>
</mgrwt>
</event>
<event>
 5    1  0.3957498E+001  0.8687986E+02  0.7546771E-02  0.1310588E+00
         -1   -1    0    0    0  501 -0.00000000000E+00  0.00000000000E+00  0.15610526437E+02  0.15610526437E+02  0.00000000000E+00 0.  1.
          1   -1    0    0  501    0  0.00000000000E+00 -0.00000000000E+00 -0.12088174218E+03  0.12088174218E+03  0.00000000000E+00 0. -1.
         23    2    1    2    0    0  0.00000000000E+00  0.00000000000E+00 -0.10527121574E+03  0.13649226862E+03  0.86879862617E+02 0.  0.
          2    1    3    3  502    0  0.27291826439E+02  0.29871558514E+02 -0.27801456916E+02  0.49092512719E+02  0.00000000000E+00 0. -1.
         -2    1    3    3    0  502 -0.27291826439E+02 -0.29871558514E+02 -0.77469758826E+02  0.87399755897E+02  0.00000000000E+00 0.  1.
<mgrwt>
<rscale>  0 0.86879863E+02</rscale>
<asrwt>0</asrwt>
<pdfrwt beam="2">  1        1 0.18597191E-01 0.86879863E+02</pdfrwt>
<pdfrwt beam="1">  1       -1 0.24016195E-02 0.86879863E+02</pdfrwt>
<totfact> 0.12290351E+05</totfact>
</mgrwt>
</event>
<event>
 5    1  0.3957498E+001  0.9155356E+02  0.7546771E-02  0.1299133E+00
          2   -1    0    0  501    0  0.00000000000E+00  0.00000000000E+00  0.50594888744E+03  0.50594888744E+03  0.00000000000E+00 0. -1.
         -2   -1    0    0    0  501 -0.00000000000E+00 -0.00000000000E+00 -0.41417494457E+01  0.41417494457E+01  0.00000000000E+00 0.  1.
         23    2    1    2    0    0  0.00000000000E+00  0.00000000000E+00  0.50180713799E+03  0.51009063689E+03  0.91553558622E+02 0.  0.
          2    1    3    3  502    0  0.19495703805E+02  0.41157416451E+02  0.22507071155E+03  0.22963196771E+03  0.00000000000E+00 0. -1.
         -2    1    3    3    0  502 -0.19495703805E+02 -0.41157416451E+02  0.27673642644E+03  0.28045866917E+03  0.00000000000E+00 0.  1.
<mgrwt>
<rscale>  0 0.91553559E+02</rscale>
<asrwt>0</asrwt>
<pdfrwt beam="1">  1        2 0.77838242E-01 0.91553559E+02</pdfrwt>
<pdfrwt beam="2">  1       -2 0.63719262E-03 0.91553559E+02</pdfrwt>
<totfact> 0.21397479E+05</totfact>
</mgrwt>
</event>
<event>
 5    1  0.3957498E+001  0.9045451E+02  0.7546771E-02  0.1301755E+00
         -1   -1    0    0    0  501 -0.00000000000E+00  0.00000000000E+00  0.11181907417E+03  0.11181907417E+03  0.00000000000E+00 0.  1.
          1   -1    0    0  501    0  0.00000000000E+00 -0.00000000000E+00 -0.18292984993E+02  0.18292984993E+02  0.00000000000E+00 0. -1.
         23    2    1    2    0    0  0.00000000000E+00  0.00000000000E+00  0.93526089173E+02  0.13011205916E+03  0.90454511124E+02 0.  0.
          2    1    3    3  502    0 -0.29340506782E+02 -0.30304980701E+02  0.23292128025E+02  0.48184856765E+02  0.00000000000E+00 0. -1.
         -2    1    3    3    0  502  0.29340506782E+02  0.30304980701E+02  0.70233961148E+02  0.81927202394E+02  0.00000000000E+00 0.  1.
<mgrwt>
<rscale>  0 0.90454511E+02</rscale>
<asrwt>0</asrwt>
<pdfrwt beam="2">  1        1 0.28143055E-02 0.90454511E+02</pdfrwt>
<pdfrwt beam="1">  1       -1 0.17202934E-01 0.90454511E+02</pdfrwt>
<totfact> 0.81301929E+04</totfact>
</mgrwt>
</event>
<event>
 5    1  0.3957498E+001  0.9045818E+02  0.7546771E-02  0.1301746E+00
         -2   -1    0    0    0  501 -0.00000000000E+00  0.00000000000E+00  0.45426310452E+01  0.45426310452E+01  0.00000000000E+00 0.  1.
          2   -1    0    0  501    0  0.00000000000E+00 -0.00000000000E+00 -0.45032727905E+03  0.45032727905E+03  0.00000000000E+00 0. -1.
         23    2    1    2    0    0  0.00000000000E+00  0.00000000000E+00 -0.44578464800E+03  0.45486991009E+03  0.90458182124E+02 0.  0.
          2    1    3    3  502    0 -0.28624702992E+01  0.37133093744E+02 -0.35194101671E+03  0.35390611698E+03  0.00000000000E+00 0. -1.
         -2    1    3    3    0  502  0.28624702992E+01 -0.37133093744E+02 -0.93843631289E+02  0.10096379312E+03  0.00000000000E+00 0.  1.
<mgrwt>
<rscale>  0 0.90458182E+02</rscale>
<asrwt>0</asrwt>
<pdfrwt beam="2">  1        2 0.69281125E-01 0.90458182E+02</pdfrwt>
<pdfrwt beam="1">  1       -2 0.69886627E-03 0.90458182E+02</pdfrwt>
<totfact> 0.21249910E+05</totfact>
</mgrwt>
</event>
<event>
 5    1  0.3957498E+001  0.9102170E+02  0.7546771E-02  0.1300396E+00
          2   -1    0    0  501    0  0.00000000000E+00  0.00000000000E+00  0.21757358452E+03  0.21757358452E+03  0.00000000000E+00 0.  1.
         -2   -1    0    0    0  501 -0.00000000000E+00 -0.00000000000E+00 -0.95197101330E+01  0.95197101330E+01  0.00000000000E+00 0. -1.
         23    2    1    2    0    0  0.00000000000E+00  0.00000000000E+00  0.20805387439E+03  0.22709329465E+03  0.91021699770E+02 0.  0.
          2    1    3    3  502    0  0.21674397043E+02 -0.38815294872E+02  0.12832290484E+03  0.13580564977E+03  0.00000000000E+00 0. -1.
         -2    1    3    3    0  502 -0.21674397043E+02  0.38815294872E+02  0.79730969545E+02  0.91287644880E+02  0.00000000000E+00 0.  1.
<mgrwt>
<rscale>  0 0.91021700E+02</rscale>
<asrwt>0</asrwt>
<pdfrwt beam="1">  1        2 0.33472855E-01 0.91021700E+02</pdfrwt>
<pdfrwt beam="2">  1       -2 0.14645710E-02 0.91021700E+02</pdfrwt>
<totfact> 0.16022348E+05</totfact>
</mgrwt>
</event>
<event>
 5    1  0.3957498E+001  0.9025633E+02  0.7546771E-02  0.1302232E+00
          2   -1    0    0  501    0  0.00000000000E+00  0.00000000000E+00  0.11833680168E+04  0.11833680168E+04  0.00000000000E+00 0. -1.
         -2   -1    0    0    0  501 -0.00000000000E+00 -0.00000000000E+00 -0.17209789437E+01  0.17209789437E+01  0.00000000000E+00 0.  1.
         23    2    1    2    0    0  0.00000000000E+00  0.00000000000E+00  0.11816470378E+04  0.11850889957E+04  0.90256333619E+02 0.  0.
          2    1    3    3  502    0  0.20715049515E+02 -0.25252271687E+02  0.18193433642E+03  0.18484288807E+03  0.00000000000E+00 0.  1.
         -2    1    3    3    0  502 -0.20715049515E+02  0.25252271687E+02  0.99971270142E+03  0.10002461077E+04  0.00000000000E+00 0. -1.
<mgrwt>
<rscale>  0 0.90256334E+02</rscale>
<asrwt>0</asrwt>
<pdfrwt beam="1">  1        2 0.18205597E+00 0.90256334E+02</pdfrwt>
<pdfrwt beam="2">  1       -2 0.26476694E-03 0.90256334E+02</pdfrwt>
<totfact> 0.25578296E+05</totfact>
</mgrwt>
</event>
<event>
 5    1  0.3957498E+001  0.9481009E+02  0.7546771E-02  0.1291604E+00
         -1   -1    0    0    0  501 -0.00000000000E+00  0.00000000000E+00  0.32836063533E+01  0.32836063533E+01  0.00000000000E+00 0.  1.
          1   -1    0    0  501    0  0.00000000000E+00 -0.00000000000E+00 -0.68438112784E+03  0.68438112784E+03  0.00000000000E+00 0. -1.
         23    2    1    2    0    0  0.00000000000E+00  0.00000000000E+00 -0.68109752148E+03  0.68766473419E+03  0.94810088481E+02 0.  0.
          2    1    3    3  502    0  0.68743060789E+01  0.46902494983E+02 -0.33785338926E+03  0.34116273646E+03  0.00000000000E+00 0. -1.
         -2    1    3    3    0  502 -0.68743060789E+01 -0.46902494983E+02 -0.34324413223E+03  0.34650199773E+03  0.00000000000E+00 0.  1.
<mgrwt>
<rscale>  0 0.94810088E+02</rscale>
<asrwt>0</asrwt>
<pdfrwt beam="2">  1        1 0.10528944E+00 0.94810088E+02</pdfrwt>
<pdfrwt beam="1">  1       -1 0.50517001E-03 0.94810088E+02</pdfrwt>
<totfact> 0.12819700E+05</totfact>
</mgrwt>
</event>
<event>
 5    1  0.3957498E+001  0.8655896E+02  0.7546771E-02  0.1311405E+00
         -1   -1    0    0    0  501 -0.00000000000E+00  0.00000000000E+00  0.67599993082E+03  0.67599993082E+03  0.00000000000E+00 0.  1.
          1   -1    0    0  501    0  0.00000000000E+00 -0.00000000000E+00 -0.27708782570E+01  0.27708782570E+01  0.00000000000E+00 0. -1.
         23    2    1    2    0    0  0.00000000000E+00  0.00000000000E+00  0.67322905257E+03  0.67877080908E+03  0.86558962795E+02 0.  0.
          2    1    3    3  502    0 -0.36045335964E+02 -0.12307073466E+02  0.17545186314E+03  0.17953853787E+03  0.00000000000E+00 0. -1.
         -2    1    3    3    0  502  0.36045335964E+02  0.12307073466E+02  0.49777718943E+03  0.49923227121E+03  0.00000000000E+00 0.  1.
<mgrwt>
<rscale>  0 0.86558963E+02</rscale>
<asrwt>0</asrwt>
<pdfrwt beam="2">  1        1 0.42628950E-03 0.86558963E+02</pdfrwt>
<pdfrwt beam="1">  1       -1 0.10399986E+00 0.86558963E+02</pdfrwt>
<totfact> 0.43472197E+04</totfact>
</mgrwt>
</event>
<event>
 5    1  0.3957498E+001  0.7792751E+02  0.7546771E-02  0.1335038E+00
          2   -1    0    0  501    0  0.00000000000E+00  0.00000000000E+00  0.60297137713E+03  0.60297137713E+03  0.00000000000E+00 0. -1.
         -2   -1    0    0    0  501 -0.00000000000E+00 -0.00000000000E+00 -0.25178210586E+01  0.25178210586E+01  0.00000000000E+00 0.  1.
         23    2    1    2    0    0  0.00000000000E+00  0.00000000000E+00  0.60045355607E+03  0.60548919819E+03  0.77927505570E+02 0.  0.
          2    1    3    3  502    0 -0.15114970953E+02 -0.35912390603E+02  0.29937970289E+03  0.30190456877E+03  0.00000000000E+00 0. -1.
         -2    1    3    3    0  502  0.15114970953E+02  0.35912390603E+02  0.30107385318E+03  0.30358462941E+03  0.00000000000E+00 0.  1.
<mgrwt>
<rscale>  0 0.77927506E+02</rscale>
<asrwt>0</asrwt>
<pdfrwt beam="1">  1        2 0.92764712E-01 0.77927506E+02</pdfrwt>
<pdfrwt beam="2">  1       -2 0.38735757E-03 0.77927506E+02</pdfrwt>
<totfact> 0.34426754E+05</totfact>
</mgrwt>
</event>
<event>
 5    1  0.3957498E+001  0.9129056E+02  0.7546771E-02  0.1299756E+00
          3   -1    0    0  501    0  0.00000000000E+00  0.00000000000E+00  0.47082558405E+02  0.47082558405E+02  0.00000000000E+00 0. -1.
         -3   -1    0    0    0  501 -0.00000000000E+00 -0.00000000000E+00 -0.44251881860E+02  0.44251881860E+02  0.00000000000E+00 0.  1.
         23    2    1    2    0    0  0.00000000000E+00  0.00000000000E+00  0.28306765456E+01  0.91334440265E+02  0.91290564950E+02 0.  0.
          2    1    3    3  502    0 -0.15761955144E+02 -0.33392788962E+02  0.28260569693E+02  0.46499219176E+02  0.00000000000E+00 0. -1.
         -2    1    3    3    0  502  0.15761955144E+02  0.33392788962E+02 -0.25429893147E+02  0.44835221089E+02  0.00000000000E+00 0.  1.
<mgrwt>
<rscale>  0 0.91290565E+02</rscale>
<asrwt>0</asrwt>
<pdfrwt beam="1">  1        3 0.72434705E-02 0.91290565E+02</pdfrwt>
<pdfrwt beam="2">  1       -3 0.68079818E-02 0.91290565E+02</pdfrwt>
<totfact> 0.35206412E+04</totfact>
</mgrwt>
</event>
<event>
 5    1  0.3957498E+001  0.9270937E+02  0.7546771E-02  0.1296420E+00
         -1   -1    0    0    0  501 -0.00000000000E+00  0.00000000000E+00  0.31492867770E+01  0.31492867770E+01  0.00000000000E+00 0.  1.
          1   -1    0    0  501    0  0.00000000000E+00 -0.00000000000E+00 -0.68229955126E+03  0.68229955126E+03  0.00000000000E+00 0. -1.
         23    2    1    2    0    0  0.00000000000E+00  0.00000000000E+00 -0.67915026448E+03  0.68544883803E+03  0.92709372875E+02 0.  0.
          2    1    3    3  502    0 -0.21241877772E+02 -0.35402068586E+02 -0.49540721314E+03  0.49712456252E+03  0.00000000000E+00 0. -1.
         -2    1    3    3    0  502  0.21241877772E+02  0.35402068586E+02 -0.18374305134E+03  0.18832427551E+03  0.00000000000E+00 0.  1.
<mgrwt>
<rscale>  0 0.92709373E+02</rscale>
<asrwt>0</asrwt>
<pdfrwt beam="2">  1        1 0.10496928E+00 0.92709373E+02</pdfrwt>
<pdfrwt beam="1">  1       -1 0.48450510E-03 0.92709373E+02</pdfrwt>
<totfact> 0.13604630E+05</totfact>
</mgrwt>
</event>
<event>
 5    1  0.3957498E+001  0.9401195E+02  0.7546771E-02  0.1293417E+00
          2   -1    0    0  501    0  0.00000000000E+00  0.00000000000E+00  0.15155669373E+04  0.15155669373E+04  0.00000000000E+00 0.  1.
         -2   -1    0    0    0  501 -0.00000000000E+00 -0.00000000000E+00 -0.14579110080E+01  0.14579110080E+01  0.00000000000E+00 0. -1.
         23    2    1    2    0    0  0.00000000000E+00  0.00000000000E+00  0.15141090263E+04  0.15170248483E+04  0.94011950756E+02 0.  0.
          2    1    3    3  502    0 -0.20146418691E+02 -0.41199270511E+02  0.59068118393E+03  0.59245887547E+03  0.00000000000E+00 0. -1.
         -2    1    3    3    0  502  0.20146418691E+02  0.41199270511E+02  0.92342784236E+03  0.92456597283E+03  0.00000000000E+00 0.  1.
<mgrwt>
<rscale>  0 0.94011951E+02</rscale>
<asrwt>0</asrwt>
<pdfrwt beam="1">  1        2 0.23316288E+00 0.94011951E+02</pdfrwt>
<pdfrwt beam="2">  1       -2 0.22429521E-03 0.94011951E+02</pdfrwt>
<totfact> 0.21678651E+05</totfact>
</mgrwt>
</event>
<event>
 5    1  0.3957498E+001  0.9383789E+02  0.7546771E-02  0.1293815E+00
         -2   -1    0    0    0  501 -0.00000000000E+00  0.00000000000E+00  0.22276166078E+01  0.22276166078E+01  0.00000000000E+00 0.  1.
          2   -1    0    0  501    0  0.00000000000E+00 -0.00000000000E+00 -0.98822541006E+03  0.98822541006E+03  0.00000000000E+00 0. -1.
         23    2    1    2    0    0  0.00000000000E+00  0.00000000000E+00 -0.98599779345E+03  0.99045302667E+03  0.93837888632E+02 0.  0.
          2    1    3    3  502    0 -0.32437545459E+01  0.22836495699E+02 -0.92425041670E+03  0.92453818756E+03  0.00000000000E+00 0. -1.
         -2    1    3    3    0  502  0.32437545459E+01 -0.22836495699E+02 -0.61747376752E+02  0.65914839112E+02  0.00000000000E+00 0.  1.
<mgrwt>
<rscale>  0 0.93837889E+02</rscale>
<asrwt>0</asrwt>
<pdfrwt beam="2">  1        2 0.15203506E+00 0.93837889E+02</pdfrwt>
<pdfrwt beam="1">  1       -2 0.34270939E-03 0.93837889E+02</pdfrwt>
<totfact> 0.23161881E+05</totfact>
</mgrwt>
</event>
<event>
 5    1  0.3957498E+001  0.9350255E+02  0.7546771E-02  0.1294585E+00
          2   -1    0    0  501    0  0.00000000000E+00  0.00000000000E+00  0.12667920668E+03  0.12667920668E+03  0.00000000000E+00 0. -1.
         -2   -1    0    0    0  501 -0.00000000000E+00 -0.00000000000E+00 -0.17253673129E+02  0.17253673129E+02  0.00000000000E+00 0.  1.
         23    2    1    2    0    0  0.00000000000E+00  0.00000000000E+00  0.10942553355E+03  0.14393287981E+03  0.93502548080E+02 0.  0.
          2    1    3    3  502    0  0.34037149338E+02  0.11266354563E+02  0.10089891064E+03  0.10707963601E+03  0.00000000000E+00 0. -1.
         -2    1    3    3    0  502 -0.34037149338E+02 -0.11266354563E+02  0.85266229124E+01  0.36853243799E+02  0.00000000000E+00 0.  1.
<mgrwt>
<rscale>  0 0.93502548E+02</rscale>
<asrwt>0</asrwt>
<pdfrwt beam="1">  1        2 0.19489108E-01 0.93502548E+02</pdfrwt>
<pdfrwt beam="2">  1       -2 0.26544113E-02 0.93502548E+02</pdfrwt>
<totfact> 0.12335744E+05</totfact>
</mgrwt>
</event>
<event>
 5    1  0.3957498E+001  0.9280154E+02  0.7546771E-02  0.1296206E+00
          2   -1    0    0  501    0  0.00000000000E+00  0.00000000000E+00  0.58561132823E+02  0.58561132823E+02  0.00000000000E+00 0. -1.
         -2   -1    0    0    0  501 -0.00000000000E+00 -0.00000000000E+00 -0.36765537684E+02  0.36765537684E+02  0.00000000000E+00 0.  1.
         23    2    1    2    0    0  0.00000000000E+00  0.00000000000E+00  0.21795595139E+02  0.95326670507E+02  0.92801541703E+02 0.  0.
          2    1    3    3  502    0  0.18717132191E+02  0.19364408724E+02  0.49711116544E+02  0.56537655335E+02  0.00000000000E+00 0. -1.
         -2    1    3    3    0  502 -0.18717132191E+02 -0.19364408724E+02 -0.27915521405E+02  0.38789015172E+02  0.00000000000E+00 0.  1.
<mgrwt>
<rscale>  0 0.92801542E+02</rscale>
<asrwt>0</asrwt>
<pdfrwt beam="1">  1        2 0.90094050E-02 0.92801542E+02</pdfrwt>
<pdfrwt beam="2">  1       -2 0.56562366E-02 0.92801542E+02</pdfrwt>
<totfact> 0.10024120E+05</totfact>
</mgrwt>
</event>
<event>
 5    1  0.3957498E+001  0.9158039E+02  0.7546771E-02  0.1299069E+00
          2   -1    0    0  501    0  0.00000000000E+00  0.00000000000E+00  0.13435098806E+03  0.13435098806E+03  0.00000000000E+00 0. -1.
         -2   -1    0    0    0  501 -0.00000000000E+00 -0.00000000000E+00 -0.15606451339E+02  0.15606451339E+02  0.00000000000E+00 0.  1.
         23    2    1    2    0    0  0.00000000000E+00  0.00000000000E+00  0.11874453672E+03  0.14995743940E+03  0.91580394356E+02 0.  0.
          2    1    3    3  502    0 -0.28362185291E+01 -0.45484582556E+02  0.52076782764E+02  0.69201753510E+02  0.00000000000E+00 0. -1.
         -2    1    3    3    0  502  0.28362185291E+01  0.45484582556E+02  0.66667753959E+02  0.80755685892E+02  0.00000000000E+00 0.  1.
<mgrwt>
<rscale>  0 0.91580394E+02</rscale>
<asrwt>0</asrwt>
<pdfrwt beam="1">  1        2 0.20669382E-01 0.91580394E+02</pdfrwt>
<pdfrwt beam="2">  1       -2 0.24009926E-02 0.91580394E+02</pdfrwt>
<totfact> 0.13312160E+05</totfact>
</mgrwt>
</event>
<event>
 5    1  0.3957498E+001  0.1049934E+03  0.7546771E-02  0.1270133E+00
          2   -1    0    0  501    0  0.00000000000E+00  0.00000000000E+00  0.28336124167E+02  0.28336124167E+02  0.00000000000E+00 0.  1.
         -2   -1    0    0    0  501 -0.00000000000E+00 -0.00000000000E+00 -0.97257551227E+02  0.97257551227E+02  0.00000000000E+00 0. -1.
         23    2    1    2    0    0  0.00000000000E+00  0.00000000000E+00 -0.68921427060E+02  0.12559367539E+03  0.10499337213E+03 0.  0.
          2    1    3    3  502    0  0.48595269150E+02  0.12686029266E+02 -0.52738272574E+02  0.72826924392E+02  0.00000000000E+00 0. -1.
         -2    1    3    3    0  502 -0.48595269150E+02 -0.12686029266E+02 -0.16183154486E+02  0.52766751003E+02  0.00000000000E+00 0.  1.
<mgrwt>
<rscale>  0 0.10499337E+03</rscale>
<asrwt>0</asrwt>
<pdfrwt beam="1">  1        2 0.43594038E-02 0.10499337E+03</pdfrwt>
<pdfrwt beam="2">  1       -2 0.14962700E-01 0.10499337E+03</pdfrwt>
<totfact> 0.56709368E+04</totfact>
</mgrwt>
</event>
<event>
 5    1  0.3957498E+001  0.9088247E+02  0.7546771E-02  0.1300729E+00
          1   -1    0    0  501    0  0.00000000000E+00  0.00000000000E+00  0.83034699302E+03  0.83034699302E+03  0.00000000000E+00 0. -1.
         -1   -1    0    0    0  501 -0.00000000000E+00 -0.00000000000E+00 -0.24867986045E+01  0.24867986045E+01  0.00000000000E+00 0.  1.
         23    2    1    2    0    0  0.00000000000E+00  0.00000000000E+00  0.82786019442E+03  0.83283379163E+03  0.90882467913E+02 0.  0.
          2    1    3    3  502    0  0.23239665161E+02 -0.28486460570E+02  0.65868315115E+03  0.65970830984E+03  0.00000000000E+00 0. -1.
         -2    1    3    3    0  502 -0.23239665161E+02  0.28486460570E+02  0.16917704327E+03  0.17312548178E+03  0.00000000000E+00 0.  1.
<mgrwt>
<rscale>  0 0.90882468E+02</rscale>
<asrwt>0</asrwt>
<pdfrwt beam="1">  1        1 0.12774547E+00 0.90882468E+02</pdfrwt>
<pdfrwt beam="2">  1       -1 0.38258506E-03 0.90882468E+02</pdfrwt>
<totfact> 0.14198372E+05</totfact>
</mgrwt>
</event>
<event>
 5    1  0.3957498E+001  0.9092935E+02  0.7546771E-02  0.1300617E+00
         -2   -1    0    0    0  501 -0.00000000000E+00  0.00000000000E+00  0.16794202664E+03  0.16794202664E+03  0.00000000000E+00 0. -1.
          2   -1    0    0  501    0  0.00000000000E+00 -0.00000000000E+00 -0.12308037003E+02  0.12308037003E+02  0.00000000000E+00 0.  1.
         23    2    1    2    0    0  0.00000000000E+00  0.00000000000E+00  0.15563398964E+03  0.18025006364E+03  0.90929350120E+02 0.  0.
          2    1    3    3  502    0 -0.23099703724E+02 -0.16390521927E+02  0.14831563657E+03  0.15099593893E+03  0.00000000000E+00 0. -1.
         -2    1    3    3    0  502  0.23099703724E+02  0.16390521927E+02  0.73183530633E+01  0.29254124714E+02  0.00000000000E+00 0.  1.
<mgrwt>
<rscale>  0 0.90929350E+02</rscale>
<asrwt>0</asrwt>
<pdfrwt beam="2">  1        2 0.18935443E-02 0.90929350E+02</pdfrwt>
<pdfrwt beam="1">  1       -2 0.25837233E-01 0.90929350E+02</pdfrwt>
<totfact> 0.67414863E+04</totfact>
</mgrwt>
</event>
<event>
 5    1  0.3957498E+001  0.9095032E+02  0.7546771E-02  0.1300567E+00
         -1   -1    0    0    0  501 -0.00000000000E+00  0.00000000000E+00  0.61104496133E+01  0.61104496133E+01  0.00000000000E+00 0.  1.
          1   -1    0    0  501    0  0.00000000000E+00 -0.00000000000E+00 -0.33843499046E+03  0.33843499046E+03  0.00000000000E+00 0. -1.
         23    2    1    2    0    0  0.00000000000E+00  0.00000000000E+00 -0.33232454085E+03  0.34454544007E+03  0.90950315152E+02 0.  0.
          2    1    3    3  502    0 -0.26202494066E+02  0.30318871495E+02 -0.84719908727E+02  0.93719088764E+02  0.00000000000E+00 0.  1.
         -2    1    3    3    0  502  0.26202494066E+02 -0.30318871495E+02 -0.24760463212E+03  0.25082635131E+03  0.00000000000E+00 0. -1.
<mgrwt>
<rscale>  0 0.90950315E+02</rscale>
<asrwt>0</asrwt>
<pdfrwt beam="2">  1        1 0.52066923E-01 0.90950315E+02</pdfrwt>
<pdfrwt beam="1">  1       -1 0.94006915E-03 0.90950315E+02</pdfrwt>
<totfact> 0.13190671E+05</totfact>
</mgrwt>
</event>
<event>
 5    1  0.3957498E+001  0.9268717E+02  0.7546771E-02  0.1296472E+00
         -2   -1    0    0    0  501 -0.00000000000E+00  0.00000000000E+00  0.14246332579E+01  0.14246332579E+01  0.00000000000E+00 0.  1.
          2   -1    0    0  501    0  0.00000000000E+00 -0.00000000000E+00 -0.15075654642E+04  0.15075654642E+04  0.00000000000E+00 0. -1.
         23    2    1    2    0    0  0.00000000000E+00  0.00000000000E+00 -0.15061408310E+04  0.15089900975E+04  0.92687170608E+02 0.  0.
          2    1    3    3  502    0  0.45514914688E+02 -0.39258562542E+01 -0.87992029475E+03  0.88110541079E+03  0.00000000000E+00 0. -1.
         -2    1    3    3    0  502 -0.45514914688E+02  0.39258562542E+01 -0.62622053623E+03  0.62788468671E+03  0.00000000000E+00 0.  1.
<mgrwt>
<rscale>  0 0.92687171E+02</rscale>
<asrwt>0</asrwt>
<pdfrwt beam="2">  1        2 0.23193448E+00 0.92687171E+02</pdfrwt>
<pdfrwt beam="1">  1       -2 0.21917309E-03 0.92687171E+02</pdfrwt>
<totfact> 0.22552860E+05</totfact>
</mgrwt>
</event>
<event>
 5    1  0.3957498E+001  0.8855305E+02  0.7546771E-02  0.1306394E+00
          3   -1    0    0  501    0  0.00000000000E+00  0.00000000000E+00  0.89849390249E+01  0.89849390249E+01  0.00000000000E+00 0. -1.
         -3   -1    0    0    0  501 -0.00000000000E+00 -0.00000000000E+00 -0.21818853235E+03  0.21818853235E+03  0.00000000000E+00 0.  1.
         23    2    1    2    0    0  0.00000000000E+00  0.00000000000E+00 -0.20920359333E+03  0.22717347138E+03  0.88553049843E+02 0.  0.
          2    1    3    3  502    0  0.12584986196E+02  0.16518572818E+02 -0.42832246558E+01  0.21203564298E+02  0.00000000000E+00 0. -1.
         -2    1    3    3    0  502 -0.12584986196E+02 -0.16518572818E+02 -0.20492036867E+03  0.20596990708E+03  0.00000000000E+00 0.  1.
<mgrwt>
<rscale>  0 0.88553050E+02</rscale>
<asrwt>0</asrwt>
<pdfrwt beam="1">  1        3 0.13822984E-02 0.88553050E+02</pdfrwt>
<pdfrwt beam="2">  1       -3 0.33567464E-01 0.88553050E+02</pdfrwt>
<totfact> 0.29363858E+04</totfact>
</mgrwt>
</event>
<event>
 5    1  0.3957498E+001  0.9035322E+02  0.7546771E-02  0.1301999E+00
         -1   -1    0    0    0  501 -0.00000000000E+00  0.00000000000E+00  0.11684899337E+01  0.11684899337E+01  0.00000000000E+00 0.  1.
          1   -1    0    0  501    0  0.00000000000E+00 -0.00000000000E+00 -0.17466356401E+04  0.17466356401E+04  0.00000000000E+00 0. -1.
         23    2    1    2    0    0  0.00000000000E+00  0.00000000000E+00 -0.17454671502E+04  0.17478041301E+04  0.90353221599E+02 0.  0.
          2    1    3    3  502    0  0.21190736427E+02  0.10580279354E+02 -0.16169010181E+04  0.16170744856E+04  0.00000000000E+00 0. -1.
         -2    1    3    3    0  502 -0.21190736427E+02 -0.10580279354E+02 -0.12856613214E+03  0.13072964452E+03  0.00000000000E+00 0.  1.
<mgrwt>
<rscale>  0 0.90353222E+02</rscale>
<asrwt>0</asrwt>
<pdfrwt beam="2">  1        1 0.26871257E+00 0.90353222E+02</pdfrwt>
<pdfrwt beam="1">  1       -1 0.17976809E-03 0.90353222E+02</pdfrwt>
<totfact> 0.97616902E+04</totfact>
</mgrwt>
</event>
<event>
 5    1  0.3957498E+001  0.9234940E+02  0.7546771E-02  0.1297260E+00
         -2   -1    0    0    0  501 -0.00000000000E+00  0.00000000000E+00  0.11321206355E+01  0.11321206355E+01  0.00000000000E+00 0.  1.
          2   -1    0    0  501    0  0.00000000000E+00 -0.00000000000E+00 -0.18832823080E+04  0.18832823080E+04  0.00000000000E+00 0. -1.
         23    2    1    2    0    0  0.00000000000E+00  0.00000000000E+00 -0.18821501874E+04  0.18844144287E+04  0.92349396607E+02 0.  0.
          2    1    3    3  502    0 -0.32497345035E+02 -0.23974348193E+02 -0.13979235192E+04  0.13985067080E+04  0.00000000000E+00 0. -1.
         -2    1    3    3    0  502  0.32497345035E+02  0.23974348193E+02 -0.48422666818E+03  0.48590772064E+03  0.00000000000E+00 0.  1.
<mgrwt>
<rscale>  0 0.92349397E+02</rscale>
<asrwt>0</asrwt>
<pdfrwt beam="2">  1        2 0.28973145E+00 0.92349397E+02</pdfrwt>
<pdfrwt beam="1">  1       -2 0.17417499E-03 0.92349397E+02</pdfrwt>
<totfact> 0.20038273E+05</totfact>
</mgrwt>
</event>
<event>
 5    1  0.3957498E+001  0.8993698E+02  0.7546771E-02  0.1303004E+00
          1   -1    0    0  501    0  0.00000000000E+00  0.00000000000E+00  0.18970642084E+04  0.18970642084E+04  0.00000000000E+00 0. -1.
         -1   -1    0    0    0  501 -0.00000000000E+00 -0.00000000000E+00 -0.10659443947E+01  0.10659443947E+01  0.00000000000E+00 0.  1.
         23    2    1    2    0    0  0.00000000000E+00  0.00000000000E+00  0.18959982640E+04  0.18981301528E+04  0.89936977029E+02 0.  0.
          2    1    3    3  502    0  0.36450230141E+02 -0.22483673901E+02  0.12374010327E+04  0.12381419347E+04  0.00000000000E+00 0. -1.
         -2    1    3    3    0  502 -0.36450230141E+02  0.22483673901E+02  0.65859723132E+03  0.65998821805E+03  0.00000000000E+00 0.  1.
<mgrwt>
<rscale>  0 0.89936977E+02</rscale>
<asrwt>0</asrwt>
<pdfrwt beam="1">  1        1 0.29185333E+00 0.89936977E+02</pdfrwt>
<pdfrwt beam="2">  1       -1 0.16399296E-03 0.89936977E+02</pdfrwt>
<totfact> 0.89169022E+04</totfact>
</mgrwt>
</event>
<event>
 5    1  0.3957498E+001  0.8919298E+02  0.7546771E-02  0.1304818E+00
         -1   -1    0    0    0  501 -0.00000000000E+00  0.00000000000E+00  0.51807318063E+01  0.51807318063E+01  0.00000000000E+00 0. -1.
          1   -1    0    0  501    0  0.00000000000E+00 -0.00000000000E+00 -0.38389302141E+03  0.38389302141E+03  0.00000000000E+00 0.  1.
         23    2    1    2    0    0  0.00000000000E+00  0.00000000000E+00 -0.37871228961E+03  0.38907375322E+03  0.89192976994E+02 0.  0.
          2    1    3    3  502    0  0.19442016648E+01  0.26148862367E+02 -0.31997489992E+02  0.41368856511E+02  0.00000000000E+00 0. -1.
         -2    1    3    3    0  502 -0.19442016648E+01 -0.26148862367E+02 -0.34671479962E+03  0.34770489671E+03  0.00000000000E+00 0.  1.
<mgrwt>
<rscale>  0 0.89192977E+02</rscale>
<asrwt>0</asrwt>
<pdfrwt beam="2">  1        1 0.59060463E-01 0.89192977E+02</pdfrwt>
<pdfrwt beam="1">  1       -1 0.79703569E-03 0.89192977E+02</pdfrwt>
<totfact> 0.14201985E+05</totfact>
</mgrwt>
</event>
<event>
 5    1  0.3957498E+001  0.9231804E+02  0.7546771E-02  0.1297333E+00
          3   -1    0    0  501    0  0.00000000000E+00  0.00000000000E+00  0.23988925001E+03  0.23988925001E+03  0.00000000000E+00 0. -1.
         -3   -1    0    0    0  501 -0.00000000000E+00 -0.00000000000E+00 -0.88818277088E+01  0.88818277088E+01  0.00000000000E+00 0.  1.
         23    2    1    2    0    0  0.00000000000E+00  0.00000000000E+00  0.23100742230E+03  0.24877107772E+03  0.92318036976E+02 0.  0.
          2    1    3    3  502    0  0.37247089612E+02 -0.14441318026E+02  0.53188822386E+02  0.66520283957E+02  0.00000000000E+00 0.  1.
         -2    1    3    3    0  502 -0.37247089612E+02  0.14441318026E+02  0.17781859991E+03  0.18225079376E+03  0.00000000000E+00 0. -1.
<mgrwt>
<rscale>  0 0.92318037E+02</rscale>
<asrwt>0</asrwt>
<pdfrwt beam="1">  1        3 0.36906034E-01 0.92318037E+02</pdfrwt>
<pdfrwt beam="2">  1       -3 0.13664352E-02 0.92318037E+02</pdfrwt>
<totfact> 0.25295880E+04</totfact>
</mgrwt>
</event>
<event>
 5    1  0.3957498E+001  0.9040771E+02  0.7546771E-02  0.1301867E+00
         -2   -1    0    0    0  501 -0.00000000000E+00  0.00000000000E+00  0.12149232365E+01  0.12149232365E+01  0.00000000000E+00 0.  1.
          2   -1    0    0  501    0  0.00000000000E+00 -0.00000000000E+00 -0.16819075917E+04  0.16819075917E+04  0.00000000000E+00 0. -1.
         23    2    1    2    0    0  0.00000000000E+00  0.00000000000E+00 -0.16806926685E+04  0.16831225149E+04  0.90407712389E+02 0.  0.
          2    1    3    3  502    0  0.20682756200E+02 -0.32365738796E+02 -0.39662366063E+03  0.39847916586E+03  0.00000000000E+00 0. -1.
         -2    1    3    3    0  502 -0.20682756200E+02  0.32365738796E+02 -0.12840690078E+04  0.12846433491E+04  0.00000000000E+00 0.  1.
<mgrwt>
<rscale>  0 0.90407712E+02</rscale>
<asrwt>0</asrwt>
<pdfrwt beam="2">  1        2 0.25875661E+00 0.90407712E+02</pdfrwt>
<pdfrwt beam="1">  1       -2 0.18691011E-03 0.90407712E+02</pdfrwt>
<totfact> 0.22870973E+05</totfact>
</mgrwt>
</event>
<event>
 5    1  0.3957498E+001  0.9018392E+02  0.7546771E-02  0.1302407E+00
          2   -1    0    0  501    0  0.00000000000E+00  0.00000000000E+00  0.21890953794E+04  0.21890953794E+04  0.00000000000E+00 0. -1.
         -2   -1    0    0    0  501 -0.00000000000E+00 -0.00000000000E+00 -0.92882425606E+00  0.92882425606E+00  0.00000000000E+00 0.  1.
         23    2    1    2    0    0  0.00000000000E+00  0.00000000000E+00  0.21881665551E+04  0.21900242036E+04  0.90183920677E+02 0.  0.
          2    1    3    3  502    0 -0.23110374272E+02  0.23444022761E+02  0.34576897415E+03  0.34733254251E+03  0.00000000000E+00 0.  1.
         -2    1    3    3    0  502  0.23110374272E+02 -0.23444022761E+02  0.18423975810E+04  0.18426916611E+04  0.00000000000E+00 0. -1.
<mgrwt>
<rscale>  0 0.90183921E+02</rscale>
<asrwt>0</asrwt>
<pdfrwt beam="1">  1        2 0.33677977E+00 0.90183921E+02</pdfrwt>
<pdfrwt beam="2">  1       -2 0.14289779E-03 0.90183921E+02</pdfrwt>
<totfact> 0.18420518E+05</totfact>
</mgrwt>
</event>
<event>
 5    1  0.3957498E+001  0.8508836E+02  0.7546771E-02  0.1315202E+00
          2   -1    0    0  501    0  0.00000000000E+00  0.00000000000E+00  0.27409154748E+04  0.27409154748E+04  0.00000000000E+00 0. -1.
         -2   -1    0    0    0  501 -0.00000000000E+00 -0.00000000000E+00 -0.66036592294E+00  0.66036592294E+00  0.00000000000E+00 0.  1.
         23    2    1    2    0    0  0.00000000000E+00  0.00000000000E+00  0.27402551089E+04  0.27415758407E+04  0.85088358245E+02 0.  0.
          2    1    3    3  502    0  0.41471541111E+02 -0.16349421180E+01  0.10688278868E+04  0.10696334014E+04  0.00000000000E+00 0. -1.
         -2    1    3    3    0  502 -0.41471541111E+02  0.16349421180E+01  0.16714272221E+04  0.16719424393E+04  0.00000000000E+00 0.  1.
<mgrwt>
<rscale>  0 0.85088358E+02</rscale>
<asrwt>0</asrwt>
<pdfrwt beam="1">  1        2 0.42167019E+00 0.85088358E+02</pdfrwt>
<pdfrwt beam="2">  1       -2 0.10159695E-03 0.85088358E+02</pdfrwt>
<totfact> 0.15067424E+05</totfact>
</mgrwt>
</event>
<event>
 5    1  0.3957498E+001  0.8887136E+02  0.7546771E-02  0.1305608E+00
          1   -1    0    0  501    0  0.00000000000E+00  0.00000000000E+00  0.10161184104E+04  0.10161184104E+04  0.00000000000E+00 0. -1.
         -1   -1    0    0    0  501 -0.00000000000E+00 -0.00000000000E+00 -0.19432080709E+01  0.19432080709E+01  0.00000000000E+00 0.  1.
         23    2    1    2    0    0  0.00000000000E+00  0.00000000000E+00  0.10141752024E+04  0.10180616185E+04  0.88871356378E+02 0.  0.
          2    1    3    3  502    0  0.40072550579E+02  0.18162725995E+02  0.57847591130E+03  0.58014659689E+03  0.00000000000E+00 0. -1.
         -2    1    3    3    0  502 -0.40072550579E+02 -0.18162725995E+02  0.43569929105E+03  0.43791502161E+03  0.00000000000E+00 0.  1.
<mgrwt>
<rscale>  0 0.88871356E+02</rscale>
<asrwt>0</asrwt>
<pdfrwt beam="1">  1        1 0.15632548E+00 0.88871356E+02</pdfrwt>
<pdfrwt beam="2">  1       -1 0.29895590E-03 0.88871356E+02</pdfrwt>
<totfact> 0.14489644E+05</totfact>
</mgrwt>
</event>
<event>
 5    1  0.3957498E+001  0.1014613E+03  0.7546771E-02  0.1277253E+00
         -2   -1    0    0    0  501 -0.00000000000E+00  0.00000000000E+00  0.12413686352E+02  0.12413686352E+02  0.00000000000E+00 0.  1.
          2   -1    0    0  501    0  0.00000000000E+00 -0.00000000000E+00 -0.20731946132E+03  0.20731946132E+03  0.00000000000E+00 0. -1.
         23    2    1    2    0    0  0.00000000000E+00  0.00000000000E+00 -0.19490577496E+03  0.21973314767E+03  0.10146129839E+03 0.  0.
          2    1    3    3  502    0 -0.20290545575E+02  0.22894875598E+02 -0.18509535904E+03  0.18760643248E+03  0.00000000000E+00 0. -1.
         -2    1    3    3    0  502  0.20290545575E+02 -0.22894875598E+02 -0.98104159218E+01  0.32126715190E+02  0.00000000000E+00 0.  1.
<mgrwt>
<rscale>  0 0.10146130E+03</rscale>
<asrwt>0</asrwt>
<pdfrwt beam="2">  1        2 0.31895301E-01 0.10146130E+03</pdfrwt>
<pdfrwt beam="1">  1       -2 0.19097979E-02 0.10146130E+03</pdfrwt>
<totfact> 0.11731923E+05</totfact>
</mgrwt>
</event>
<event>
 5    1  0.3957498E+001  0.9361577E+02  0.7546771E-02  0.1294324E+00
         -2   -1    0    0    0  501 -0.00000000000E+00  0.00000000000E+00  0.10755442699E+01  0.10755442699E+01  0.00000000000E+00 0. -1.
          2   -1    0    0  501    0  0.00000000000E+00 -0.00000000000E+00 -0.20370878234E+04  0.20370878234E+04  0.00000000000E+00 0.  1.
         23    2    1    2    0    0  0.00000000000E+00  0.00000000000E+00 -0.20360122791E+04  0.20381633677E+04  0.93615770804E+02 0.  0.
          2    1    3    3  502    0  0.20579893795E+02 -0.41787257761E+02 -0.91759406751E+03  0.91877558722E+03  0.00000000000E+00 0. -1.
         -2    1    3    3    0  502 -0.20579893795E+02  0.41787257761E+02 -0.11184182116E+04  0.11193877804E+04  0.00000000000E+00 0.  1.
<mgrwt>
<rscale>  0 0.93615771E+02</rscale>
<asrwt>0</asrwt>
<pdfrwt beam="2">  1        2 0.31339850E+00 0.93615771E+02</pdfrwt>
<pdfrwt beam="1">  1       -2 0.16546815E-03 0.93615771E+02</pdfrwt>
<totfact> 0.18033387E+05</totfact>
</mgrwt>
</event>
<event>
 5    1  0.3957498E+001  0.9142241E+02  0.7546771E-02  0.1299443E+00
          1   -1    0    0  501    0  0.00000000000E+00  0.00000000000E+00  0.10584599577E+04  0.10584599577E+04  0.00000000000E+00 0.  1.
         -1   -1    0    0    0  501 -0.00000000000E+00 -0.00000000000E+00 -0.19741079122E+01  0.19741079122E+01  0.00000000000E+00 0. -1.
         23    2    1    2    0    0  0.00000000000E+00  0.00000000000E+00  0.10564858498E+04  0.10604340656E+04  0.91422408134E+02 0.  0.
          2    1    3    3  502    0  0.38861123255E+02 -0.44486644430E+01  0.80261839867E+03  0.80357094982E+03  0.00000000000E+00 0. -1.
         -2    1    3    3    0  502 -0.38861123255E+02  0.44486644430E+01  0.25386745114E+03  0.25686311581E+03  0.00000000000E+00 0.  1.
<mgrwt>
<rscale>  0 0.91422408E+02</rscale>
<asrwt>0</asrwt>
<pdfrwt beam="1">  1        1 0.16283954E+00 0.91422408E+02</pdfrwt>
<pdfrwt beam="2">  1       -1 0.30370975E-03 0.91422408E+02</pdfrwt>
<totfact> 0.13281314E+05</totfact>
</mgrwt>
</event>
<event>
 5    1  0.3957498E+001  0.9361980E+02  0.7546771E-02  0.1294315E+00
         -1   -1    0    0    0  501 -0.00000000000E+00  0.00000000000E+00  0.11668353167E+02  0.11668353167E+02  0.00000000000E+00 0.  1.
          1   -1    0    0  501    0  0.00000000000E+00 -0.00000000000E+00 -0.18778713712E+03  0.18778713712E+03  0.00000000000E+00 0. -1.
         23    2    1    2    0    0  0.00000000000E+00  0.00000000000E+00 -0.17611878396E+03  0.19945549029E+03  0.93619797824E+02 0.  0.
          2    1    3    3  502    0 -0.12506358668E+02 -0.28173018701E+02 -0.16311289192E+03  0.16599982982E+03  0.00000000000E+00 0. -1.
         -2    1    3    3    0  502  0.12506358668E+02  0.28173018701E+02 -0.13005892037E+02  0.33455660471E+02  0.00000000000E+00 0.  1.
<mgrwt>
<rscale>  0 0.93619798E+02</rscale>
<asrwt>0</asrwt>
<pdfrwt beam="2">  1        1 0.28890328E-01 0.93619798E+02</pdfrwt>
<pdfrwt beam="1">  1       -1 0.17951313E-02 0.93619798E+02</pdfrwt>
<totfact> 0.10893937E+05</totfact>
</mgrwt>
</event>
<event>
 5    1  0.3957498E+001  0.8989566E+02  0.7546771E-02  0.1303105E+00
         -1   -1    0    0    0  501 -0.00000000000E+00  0.00000000000E+00  0.98131063479E+00  0.98131063479E+00  0.00000000000E+00 0.  1.
          1   -1    0    0  501    0  0.00000000000E+00 -0.00000000000E+00 -0.20587849129E+04  0.20587849129E+04  0.00000000000E+00 0. -1.
         23    2    1    2    0    0  0.00000000000E+00  0.00000000000E+00 -0.20578036023E+04  0.20597662235E+04  0.89895662404E+02 0.  0.
          2    1    3    3  502    0  0.44408231124E+02 -0.64174691376E+01 -0.96813896721E+03  0.96917817492E+03  0.00000000000E+00 0. -1.
         -2    1    3    3    0  502 -0.44408231124E+02  0.64174691376E+01 -0.10896646351E+04  0.10905880486E+04  0.00000000000E+00 0.  1.
<mgrwt>
<rscale>  0 0.89895662E+02</rscale>
<asrwt>0</asrwt>
<pdfrwt beam="2">  1        1 0.31673558E+00 0.89895662E+02</pdfrwt>
<pdfrwt beam="1">  1       -1 0.15097113E-03 0.89895662E+02</pdfrwt>
<totfact> 0.79159558E+04</totfact>
</mgrwt>
</event>
<event>
 5    1  0.3957498E+001  0.9205349E+02  0.7546771E-02  0.1297954E+00
         -4   -1    0    0    0  501 -0.00000000000E+00  0.00000000000E+00  0.27453896667E+03  0.27453896667E+03  0.00000000000E+00 0.  1.
          4   -1    0    0  501    0  0.00000000000E+00 -0.00000000000E+00 -0.77164322890E+01  0.77164322890E+01  0.00000000000E+00 0. -1.
         23    2    1    2    0    0  0.00000000000E+00  0.00000000000E+00  0.26682253438E+03  0.28225539896E+03  0.92053491993E+02 0.  0.
          2    1    3    3  502    0  0.23302629126E+02 -0.31264800931E+02  0.58432475679E+02  0.70248519667E+02  0.00000000000E+00 0. -1.
         -2    1    3    3    0  502 -0.23302629126E+02  0.31264800931E+02  0.20839005870E+03  0.21200687929E+03  0.00000000000E+00 0.  1.
<mgrwt>
<rscale>  0 0.92053492E+02</rscale>
<asrwt>0</asrwt>
<pdfrwt beam="2">  1        4 0.11871436E-02 0.92053492E+02</pdfrwt>
<pdfrwt beam="1">  1       -4 0.42236757E-01 0.92053492E+02</pdfrwt>
<totfact> 0.17912590E+04</totfact>
</mgrwt>
</event>
<event>
 5    1  0.3957498E+001  0.9269825E+02  0.7546771E-02  0.1296446E+00
         -1   -1    0    0    0  501 -0.00000000000E+00  0.00000000000E+00  0.13175710621E+02  0.13175710621E+02  0.00000000000E+00 0.  1.
          1   -1    0    0  501    0  0.00000000000E+00 -0.00000000000E+00 -0.16304559218E+03  0.16304559218E+03  0.00000000000E+00 0. -1.
         23    2    1    2    0    0  0.00000000000E+00  0.00000000000E+00 -0.14986988155E+03  0.17622130280E+03  0.92698253284E+02 0.  0.
          2    1    3    3  502    0  0.33142248927E+02 -0.58326711673E+01 -0.13552392929E+03  0.13963940750E+03  0.00000000000E+00 0. -1.
         -2    1    3    3    0  502 -0.33142248927E+02  0.58326711673E+01 -0.14345952262E+02  0.36581895293E+02  0.00000000000E+00 0.  1.
<mgrwt>
<rscale>  0 0.92698253E+02</rscale>
<asrwt>0</asrwt>
<pdfrwt beam="2">  1        1 0.25083936E-01 0.92698253E+02</pdfrwt>
<pdfrwt beam="1">  1       -1 0.20270325E-02 0.92698253E+02</pdfrwt>
<totfact> 0.10890819E+05</totfact>
</mgrwt>
</event>
<event>
 5    1  0.3957498E+001  0.9097925E+02  0.7546771E-02  0.1300497E+00
          2   -1    0    0  501    0  0.00000000000E+00  0.00000000000E+00  0.10645052021E+04  0.10645052021E+04  0.00000000000E+00 0. -1.
         -2   -1    0    0    0  501 -0.00000000000E+00 -0.00000000000E+00 -0.19439134055E+01  0.19439134055E+01  0.00000000000E+00 0.  1.
         23    2    1    2    0    0  0.00000000000E+00  0.00000000000E+00  0.10625612887E+04  0.10664491155E+04  0.90979248901E+02 0.  0.
          2    1    3    3  502    0  0.23697477809E+02 -0.33012081123E+02  0.77091755381E+03  0.77198785141E+03  0.00000000000E+00 0. -1.
         -2    1    3    3    0  502 -0.23697477809E+02  0.33012081123E+02  0.29164373490E+03  0.29446126411E+03  0.00000000000E+00 0.  1.
<mgrwt>
<rscale>  0 0.90979249E+02</rscale>
<asrwt>0</asrwt>
<pdfrwt beam="1">  1        2 0.16376957E+00 0.90979249E+02</pdfrwt>
<pdfrwt beam="2">  1       -2 0.29906445E-03 0.90979249E+02</pdfrwt>
<totfact> 0.25176448E+05</totfact>
</mgrwt>
</event>
<event>
 5    1  0.3957498E+001  0.9262339E+02  0.7546771E-02  0.1296620E+00
          4   -1    0    0  501    0  0.00000000000E+00  0.00000000000E+00  0.43676193625E+02  0.43676193625E+02  0.00000000000E+00 0. -1.
         -4   -1    0    0    0  501 -0.00000000000E+00 -0.00000000000E+00 -0.49106229681E+02  0.49106229681E+02  0.00000000000E+00 0.  1.
         23    2    1    2    0    0  0.00000000000E+00  0.00000000000E+00 -0.54300360561E+01  0.92782423306E+02  0.92623392202E+02 0.  0.
          2    1    3    3  502    0  0.20708925022E+02  0.12014225200E+01  0.38762236321E+02  0.43963780049E+02  0.00000000000E+00 0. -1.
         -2    1    3    3    0  502 -0.20708925022E+02 -0.12014225200E+01 -0.44192272377E+02  0.48818643257E+02  0.00000000000E+00 0.  1.
<mgrwt>
<rscale>  0 0.92623392E+02</rscale>
<asrwt>0</asrwt>
<pdfrwt beam="1">  1        4 0.67194144E-02 0.92623392E+02</pdfrwt>
<pdfrwt beam="2">  1       -4 0.75548046E-02 0.92623392E+02</pdfrwt>
<totfact> 0.25784264E+04</totfact>
</mgrwt>
</event>
<event>
 5    1  0.3957498E+001  0.9105827E+02  0.7546771E-02  0.1300309E+00
         -3   -1    0    0    0  501 -0.00000000000E+00  0.00000000000E+00  0.35384997981E+02  0.35384997981E+02  0.00000000000E+00 0.  1.
          3   -1    0    0  501    0  0.00000000000E+00 -0.00000000000E+00 -0.58581387394E+02  0.58581387394E+02  0.00000000000E+00 0. -1.
         23    2    1    2    0    0  0.00000000000E+00  0.00000000000E+00 -0.23196389414E+02  0.93966385375E+02  0.91058273093E+02 0.  0.
          2    1    3    3  502    0  0.18716664178E+02  0.12161303967E+02 -0.52547906079E+02  0.57091971987E+02  0.00000000000E+00 0. -1.
         -2    1    3    3    0  502 -0.18716664178E+02 -0.12161303967E+02  0.29351516665E+02  0.36874413388E+02  0.00000000000E+00 0.  1.
<mgrwt>
<rscale>  0 0.91058273E+02</rscale>
<asrwt>0</asrwt>
<pdfrwt beam="2">  1        3 0.90125211E-02 0.91058273E+02</pdfrwt>
<pdfrwt beam="1">  1       -3 0.54438459E-02 0.91058273E+02</pdfrwt>
<totfact> 0.35250171E+04</totfact>
</mgrwt>
</event>
<event>
 5    1  0.3957498E+001  0.8933502E+02  0.7546771E-02  0.1304470E+00
         -4   -1    0    0    0  501 -0.00000000000E+00  0.00000000000E+00  0.23240519651E+03  0.23240519651E+03  0.00000000000E+00 0.  1.
          4   -1    0    0  501    0  0.00000000000E+00 -0.00000000000E+00 -0.85849472527E+01  0.85849472527E+01  0.00000000000E+00 0. -1.
         23    2    1    2    0    0  0.00000000000E+00  0.00000000000E+00  0.22382024925E+03  0.24099014376E+03  0.89335017843E+02 0.  0.
          2    1    3    3  502    0 -0.68688089087E+01 -0.33619115179E+02  0.34768154474E+02  0.48849257996E+02  0.00000000000E+00 0. -1.
         -2    1    3    3    0  502  0.68688089087E+01  0.33619115179E+02  0.18905209478E+03  0.19214088576E+03  0.00000000000E+00 0.  1.
<mgrwt>
<rscale>  0 0.89335018E+02</rscale>
<asrwt>0</asrwt>
<pdfrwt beam="2">  1        4 0.13207613E-02 0.89335018E+02</pdfrwt>
<pdfrwt beam="1">  1       -4 0.35754641E-01 0.89335018E+02</pdfrwt>
<totfact> 0.20891280E+04</totfact>
</mgrwt>
</event>
<event>
 5    1  0.3957498E+001  0.9165806E+02  0.7546771E-02  0.1298885E+00
         -2   -1    0    0    0  501 -0.00000000000E+00  0.00000000000E+00  0.27908134814E+01  0.27908134814E+01  0.00000000000E+00 0. -1.
          2   -1    0    0  501    0  0.00000000000E+00 -0.00000000000E+00 -0.75257620502E+03  0.75257620502E+03  0.00000000000E+00 0.  1.
         23    2    1    2    0    0  0.00000000000E+00  0.00000000000E+00 -0.74978539154E+03  0.75536701850E+03  0.91658056248E+02 0.  0.
          2    1    3    3  502    0  0.13621953905E+02  0.42262906862E+02 -0.28144058697E+03  0.28492194531E+03  0.00000000000E+00 0. -1.
         -2    1    3    3    0  502 -0.13621953905E+02 -0.42262906862E+02 -0.46834480456E+03  0.47044507319E+03  0.00000000000E+00 0.  1.
<mgrwt>
<rscale>  0 0.91658056E+02</rscale>
<asrwt>0</asrwt>
<pdfrwt beam="2">  1        2 0.11578082E+00 0.91658056E+02</pdfrwt>
<pdfrwt beam="1">  1       -2 0.42935641E-03 0.91658056E+02</pdfrwt>
<totfact> 0.23760552E+05</totfact>
</mgrwt>
</event>
<event>
 5    1  0.3957498E+001  0.1055054E+03  0.7546771E-02  0.1269127E+00
          2   -1    0    0  501    0  0.00000000000E+00  0.00000000000E+00  0.20593835098E+03  0.20593835098E+03  0.00000000000E+00 0. -1.
         -2   -1    0    0    0  501 -0.00000000000E+00 -0.00000000000E+00 -0.13513019604E+02  0.13513019604E+02  0.00000000000E+00 0.  1.
         23    2    1    2    0    0  0.00000000000E+00  0.00000000000E+00  0.19242533138E+03  0.21945137058E+03  0.10550543065E+03 0.  0.
          2    1    3    3  502    0 -0.49079901398E+02 -0.13192322061E+02  0.66798860081E+02  0.83934270657E+02  0.00000000000E+00 0. -1.
         -2    1    3    3    0  502  0.49079901398E+02  0.13192322061E+02  0.12562647129E+03  0.13551709993E+03  0.00000000000E+00 0.  1.
<mgrwt>
<rscale>  0 0.10550543E+03</rscale>
<asrwt>0</asrwt>
<pdfrwt beam="1">  1        2 0.31682821E-01 0.10550543E+03</pdfrwt>
<pdfrwt beam="2">  1       -2 0.20789262E-02 0.10550543E+03</pdfrwt>
<totfact> 0.10517491E+05</totfact>
</mgrwt>
</event>
<event>
 5    1  0.3957498E+001  0.9058388E+02  0.7546771E-02  0.1301444E+00
          2   -1    0    0  501    0  0.00000000000E+00  0.00000000000E+00  0.87814146138E+01  0.87814146138E+01  0.00000000000E+00 0. -1.
         -2   -1    0    0    0  501 -0.00000000000E+00 -0.00000000000E+00 -0.23360245150E+03  0.23360245150E+03  0.00000000000E+00 0.  1.
         23    2    1    2    0    0  0.00000000000E+00  0.00000000000E+00 -0.22482103689E+03  0.24238386612E+03  0.90583883367E+02 0.  0.
          2    1    3    3  502    0 -0.13731847641E+02  0.21859741997E+02 -0.21198991963E+03  0.21355593643E+03  0.00000000000E+00 0.  1.
         -2    1    3    3    0  502  0.13731847641E+02 -0.21859741997E+02 -0.12831117257E+02  0.28827929684E+02  0.00000000000E+00 0. -1.
<mgrwt>
<rscale>  0 0.90583883E+02</rscale>
<asrwt>0</asrwt>
<pdfrwt beam="1">  1        2 0.13509867E-02 0.90583883E+02</pdfrwt>
<pdfrwt beam="2">  1       -2 0.35938843E-01 0.90583883E+02</pdfrwt>
<totfact> 0.59047733E+04</totfact>
</mgrwt>
</event>
<event>
 5    1  0.3957498E+001  0.9142211E+02  0.7546771E-02  0.1299444E+00
          1   -1    0    0  501    0  0.00000000000E+00  0.00000000000E+00  0.29097113487E+02  0.29097113487E+02  0.00000000000E+00 0. -1.
         -1   -1    0    0    0  501 -0.00000000000E+00 -0.00000000000E+00 -0.71811269885E+02  0.71811269885E+02  0.00000000000E+00 0.  1.
         23    2    1    2    0    0  0.00000000000E+00  0.00000000000E+00 -0.42714156398E+02  0.10090838337E+03  0.91422112632E+02 0.  0.
          2    1    3    3  502    0 -0.29564352476E+02  0.29470573997E+02 -0.79816971161E+00  0.41751679535E+02  0.00000000000E+00 0. -1.
         -2    1    3    3    0  502  0.29564352476E+02 -0.29470573997E+02 -0.41915986686E+02  0.59156703838E+02  0.00000000000E+00 0.  1.
<mgrwt>
<rscale>  0 0.91422113E+02</rscale>
<asrwt>0</asrwt>
<pdfrwt beam="1">  1        1 0.44764790E-02 0.91422113E+02</pdfrwt>
<pdfrwt beam="2">  1       -1 0.11047888E-01 0.91422113E+02</pdfrwt>
<totfact> 0.85591718E+04</totfact>
</mgrwt>
</event>
<event>
 5    1  0.3957498E+001  0.8731608E+02  0.7546771E-02  0.1309484E+00
          2   -1    0    0  501    0  0.00000000000E+00  0.00000000000E+00  0.92234906913E+03  0.92234906913E+03  0.00000000000E+00 0. -1.
         -2   -1    0    0    0  501 -0.00000000000E+00 -0.00000000000E+00 -0.20664893807E+01  0.20664893807E+01  0.00000000000E+00 0.  1.
         23    2    1    2    0    0  0.00000000000E+00  0.00000000000E+00  0.92028257975E+03  0.92441555851E+03  0.87316082291E+02 0.  0.
          2    1    3    3  502    0  0.30676584033E+02  0.25445830931E+02  0.64878058870E+03  0.65000368875E+03  0.00000000000E+00 0. -1.
         -2    1    3    3    0  502 -0.30676584033E+02 -0.25445830931E+02  0.27150199105E+03  0.27441186976E+03  0.00000000000E+00 0.  1.
<mgrwt>
<rscale>  0 0.87316082E+02</rscale>
<asrwt>0</asrwt>
<pdfrwt beam="1">  1        2 0.14189953E+00 0.87316082E+02</pdfrwt>
<pdfrwt beam="2">  1       -2 0.31792218E-03 0.87316082E+02</pdfrwt>
<totfact> 0.27851256E+05</totfact>
</mgrwt>
</event>
<event>
 5    1  0.3957498E+001  0.9133633E+02  0.7546771E-02  0.1299647E+00
          2   -1    0    0  501    0  0.00000000000E+00  0.00000000000E+00  0.96453829506E+03  0.96453829506E+03  0.00000000000E+00 0. -1.
         -2   -1    0    0    0  501 -0.00000000000E+00 -0.00000000000E+00 -0.21622587110E+01  0.21622587110E+01  0.00000000000E+00 0.  1.
         23    2    1    2    0    0  0.00000000000E+00  0.00000000000E+00  0.96237603635E+03  0.96670055377E+03  0.91336330791E+02 0.  0.
          2    1    3    3  502    0 -0.17718841750E+02  0.14566157957E+02  0.89914759023E+03  0.89944011437E+03  0.00000000000E+00 0. -1.
         -2    1    3    3    0  502  0.17718841750E+02 -0.14566157957E+02  0.63228446116E+02  0.67260439404E+02  0.00000000000E+00 0.  1.
<mgrwt>
<rscale>  0 0.91336331E+02</rscale>
<asrwt>0</asrwt>
<pdfrwt beam="1">  1        2 0.14839016E+00 0.91336331E+02</pdfrwt>
<pdfrwt beam="2">  1       -2 0.33265596E-03 0.91336331E+02</pdfrwt>
<totfact> 0.24836181E+05</totfact>
</mgrwt>
</event>
<event>
 5    1  0.3957498E+001  0.9186691E+02  0.7546771E-02  0.1298393E+00
          3   -1    0    0  501    0  0.00000000000E+00  0.00000000000E+00  0.61469193871E+03  0.61469193871E+03  0.00000000000E+00 0. -1.
         -3   -1    0    0    0  501 -0.00000000000E+00 -0.00000000000E+00 -0.34324226025E+01  0.34324226025E+01  0.00000000000E+00 0.  1.
         23    2    1    2    0    0  0.00000000000E+00  0.00000000000E+00  0.61125951611E+03  0.61812436132E+03  0.91866914697E+02 0.  0.
          2    1    3    3  502    0  0.25333160330E+02 -0.84180150967E+01  0.55713895358E+03  0.55777813294E+03  0.00000000000E+00 0. -1.
         -2    1    3    3    0  502 -0.25333160330E+02  0.84180150967E+01  0.54120562530E+02  0.60346228375E+02  0.00000000000E+00 0.  1.
<mgrwt>
<rscale>  0 0.91866915E+02</rscale>
<asrwt>0</asrwt>
<pdfrwt beam="1">  1        3 0.94567903E-01 0.91866915E+02</pdfrwt>
<pdfrwt beam="2">  1       -3 0.52806550E-03 0.91866915E+02</pdfrwt>
<totfact> 0.15069367E+04</totfact>
</mgrwt>
</event>
<event>
 5    1  0.3957498E+001  0.9176111E+02  0.7546771E-02  0.1298642E+00
          4   -1    0    0  501    0  0.00000000000E+00  0.00000000000E+00  0.26628414905E+01  0.26628414905E+01  0.00000000000E+00 0. -1.
         -4   -1    0    0    0  501 -0.00000000000E+00 -0.00000000000E+00 -0.79051839556E+03  0.79051839556E+03  0.00000000000E+00 0.  1.
         23    2    1    2    0    0  0.00000000000E+00  0.00000000000E+00 -0.78785555407E+03  0.79318123706E+03  0.91761106853E+02 0.  0.
          2    1    3    3  502    0 -0.13029722152E+02 -0.34286261921E+02 -0.15567612065E+03  0.15993866310E+03  0.00000000000E+00 0. -1.
         -2    1    3    3    0  502  0.13029722152E+02  0.34286261921E+02 -0.63217943343E+03  0.63324257395E+03  0.00000000000E+00 0.  1.
<mgrwt>
<rscale>  0 0.91761107E+02</rscale>
<asrwt>0</asrwt>
<pdfrwt beam="1">  1        4 0.40966725E-03 0.91761107E+02</pdfrwt>
<pdfrwt beam="2">  1       -4 0.12161842E+00 0.91761107E+02</pdfrwt>
<totfact> 0.88304269E+03</totfact>
</mgrwt>
</event>
<event>
 5    1  0.3957498E+001  0.9263295E+02  0.7546771E-02  0.1296598E+00
         -3   -1    0    0    0  501 -0.00000000000E+00  0.00000000000E+00  0.40143752254E+03  0.40143752254E+03  0.00000000000E+00 0.  1.
          3   -1    0    0  501    0  0.00000000000E+00 -0.00000000000E+00 -0.53438351166E+01  0.53438351166E+01  0.00000000000E+00 0. -1.
         23    2    1    2    0    0  0.00000000000E+00  0.00000000000E+00  0.39609368742E+03  0.40678135765E+03  0.92632951590E+02 0.  0.
          2    1    3    3  502    0  0.38441518931E+02 -0.24196466361E+02  0.15828254050E+03  0.16467113284E+03  0.00000000000E+00 0. -1.
         -2    1    3    3    0  502 -0.38441518931E+02  0.24196466361E+02  0.23781114692E+03  0.24211022482E+03  0.00000000000E+00 0.  1.
<mgrwt>
<rscale>  0 0.92632952E+02</rscale>
<asrwt>0</asrwt>
<pdfrwt beam="2">  1        3 0.82212879E-03 0.92632952E+02</pdfrwt>
<pdfrwt beam="1">  1       -3 0.61759595E-01 0.92632952E+02</pdfrwt>
<totfact> 0.19548741E+04</totfact>
</mgrwt>
</event>
<event>
 5    1  0.3957498E+001  0.9277882E+02  0.7546771E-02  0.1296259E+00
         -2   -1    0    0    0  501 -0.00000000000E+00  0.00000000000E+00  0.30263420228E+03  0.30263420228E+03  0.00000000000E+00 0.  1.
          2   -1    0    0  501    0  0.00000000000E+00 -0.00000000000E+00 -0.71108197128E+01  0.71108197128E+01  0.00000000000E+00 0. -1.
         23    2    1    2    0    0  0.00000000000E+00  0.00000000000E+00  0.29552338257E+03  0.30974502200E+03  0.92778817655E+02 0.  0.
          2    1    3    3  502    0 -0.12551532985E+00  0.46267541190E+02  0.13655091904E+03  0.14417647038E+03  0.00000000000E+00 0. -1.
         -2    1    3    3    0  502  0.12551532985E+00 -0.46267541190E+02  0.15897246353E+03  0.16556855161E+03  0.00000000000E+00 0.  1.
<mgrwt>
<rscale>  0 0.92778818E+02</rscale>
<asrwt>0</asrwt>
<pdfrwt beam="2">  1        2 0.10939725E-02 0.92778818E+02</pdfrwt>
<pdfrwt beam="1">  1       -2 0.46559098E-01 0.92778818E+02</pdfrwt>
<totfact> 0.48521735E+04</totfact>
</mgrwt>
</event>
<event>
 5    1  0.3957498E+001  0.9357130E+02  0.7546771E-02  0.1294427E+00
          2   -1    0    0  501    0  0.00000000000E+00  0.00000000000E+00  0.40590517977E+02  0.40590517977E+02  0.00000000000E+00 0. -1.
         -2   -1    0    0    0  501 -0.00000000000E+00 -0.00000000000E+00 -0.53926318060E+02  0.53926318060E+02  0.00000000000E+00 0.  1.
         23    2    1    2    0    0  0.00000000000E+00  0.00000000000E+00 -0.13335800083E+02  0.94516836037E+02  0.93571302922E+02 0.  0.
          2    1    3    3  502    0 -0.25753961729E+02 -0.79591722143E+00  0.32777922346E+02  0.41692831785E+02  0.00000000000E+00 0. -1.
         -2    1    3    3    0  502  0.25753961729E+02  0.79591722143E+00 -0.46113722429E+02  0.52824004252E+02  0.00000000000E+00 0.  1.
<mgrwt>
<rscale>  0 0.93571303E+02</rscale>
<asrwt>0</asrwt>
<pdfrwt beam="1">  1        2 0.62446951E-02 0.93571303E+02</pdfrwt>
<pdfrwt beam="2">  1       -2 0.82963566E-02 0.93571303E+02</pdfrwt>
<totfact> 0.88806811E+04</totfact>
</mgrwt>
</event>
<event>
 5    1  0.3957498E+001  0.9193042E+02  0.7546771E-02  0.1298243E+00
         -2   -1    0    0    0  501 -0.00000000000E+00  0.00000000000E+00  0.11815412793E+01  0.11815412793E+01  0.00000000000E+00 0.  1.
          2   -1    0    0  501    0  0.00000000000E+00 -0.00000000000E+00 -0.17881731702E+04  0.17881731702E+04  0.00000000000E+00 0. -1.
         23    2    1    2    0    0  0.00000000000E+00  0.00000000000E+00 -0.17869916289E+04  0.17893547115E+04  0.91930417493E+02 0.  0.
          2    1    3    3  502    0 -0.42699481779E+02  0.16053419167E+02 -0.10033306573E+04  0.10043671469E+04  0.00000000000E+00 0. -1.
         -2    1    3    3    0  502  0.42699481779E+02 -0.16053419167E+02 -0.78366097167E+03  0.78498756457E+03  0.00000000000E+00 0.  1.
<mgrwt>
<rscale>  0 0.91930417E+02</rscale>
<asrwt>0</asrwt>
<pdfrwt beam="2">  1        2 0.27510222E+00 0.91930417E+02</pdfrwt>
<pdfrwt beam="1">  1       -2 0.18177647E-03 0.91930417E+02</pdfrwt>
<totfact> 0.21067837E+05</totfact>
</mgrwt>
</event>
<event>
 5    1  0.3957498E+001  0.9083268E+02  0.7546771E-02  0.1300848E+00
         -2   -1    0    0    0  501 -0.00000000000E+00  0.00000000000E+00  0.14614210105E+02  0.14614210105E+02  0.00000000000E+00 0. -1.
          2   -1    0    0  501    0  0.00000000000E+00 -0.00000000000E+00 -0.14113962111E+03  0.14113962111E+03  0.00000000000E+00 0.  1.
         23    2    1    2    0    0  0.00000000000E+00  0.00000000000E+00 -0.12652541101E+03  0.15575383122E+03  0.90832683041E+02 0.  0.
          2    1    3    3  502    0  0.97435588561E+01  0.29783116489E+02 -0.68932593026E+01  0.32085635272E+02  0.00000000000E+00 0. -1.
         -2    1    3    3    0  502 -0.97435588561E+01 -0.29783116489E+02 -0.11963215171E+03  0.12366819595E+03  0.00000000000E+00 0.  1.
<mgrwt>
<rscale>  0 0.90832683E+02</rscale>
<asrwt>0</asrwt>
<pdfrwt beam="2">  1        2 0.21713787E-01 0.90832683E+02</pdfrwt>
<pdfrwt beam="1">  1       -2 0.22483401E-02 0.90832683E+02</pdfrwt>
<totfact> 0.13837989E+05</totfact>
</mgrwt>
</event>
<event>
 5    1  0.3957498E+001  0.8971639E+02  0.7546771E-02  0.1303540E+00
          1   -1    0    0  501    0  0.00000000000E+00  0.00000000000E+00  0.71313266062E+02  0.71313266062E+02  0.00000000000E+00 0. -1.
         -1   -1    0    0    0  501 -0.00000000000E+00 -0.00000000000E+00 -0.28217159730E+02  0.28217159730E+02  0.00000000000E+00 0.  1.
         23    2    1    2    0    0  0.00000000000E+00  0.00000000000E+00  0.43096106332E+02  0.99530425791E+02  0.89716393581E+02 0.  0.
          2    1    3    3  502    0  0.83702036951E+01 -0.29855802923E+02  0.57510562241E+02  0.65336774082E+02  0.00000000000E+00 0. -1.
         -2    1    3    3    0  502 -0.83702036951E+01  0.29855802923E+02 -0.14414455909E+02  0.34193651710E+02  0.00000000000E+00 0.  1.
<mgrwt>
<rscale>  0 0.89716394E+02</rscale>
<asrwt>0</asrwt>
<pdfrwt beam="1">  1        1 0.10971272E-01 0.89716394E+02</pdfrwt>
<pdfrwt beam="2">  1       -1 0.43411015E-02 0.89716394E+02</pdfrwt>
<totfact> 0.10344499E+05</totfact>
</mgrwt>
</event>
<event>
 5    1  0.3957498E+001  0.8860881E+02  0.7546771E-02  0.1306256E+00
         -1   -1    0    0    0  501 -0.00000000000E+00  0.00000000000E+00  0.60763060983E+01  0.60763060983E+01  0.00000000000E+00 0.  1.
          1   -1    0    0  501    0  0.00000000000E+00 -0.00000000000E+00 -0.32303841887E+03  0.32303841887E+03  0.00000000000E+00 0. -1.
         23    2    1    2    0    0  0.00000000000E+00  0.00000000000E+00 -0.31696211277E+03  0.32911472497E+03  0.88608810275E+02 0.  0.
          2    1    3    3  502    0 -0.25085504282E+02  0.44653929156E+01 -0.29310167279E+03  0.29420709177E+03  0.00000000000E+00 0. -1.
         -2    1    3    3    0  502  0.25085504282E+02 -0.44653929156E+01 -0.23860439982E+02  0.34907633193E+02  0.00000000000E+00 0.  1.
<mgrwt>
<rscale>  0 0.88608810E+02</rscale>
<asrwt>0</asrwt>
<pdfrwt beam="2">  1        1 0.49698231E-01 0.88608810E+02</pdfrwt>
<pdfrwt beam="1">  1       -1 0.93481608E-03 0.88608810E+02</pdfrwt>
<totfact> 0.14016446E+05</totfact>
</mgrwt>
</event>
<event>
 5    1  0.3957498E+001  0.9095661E+02  0.7546771E-02  0.1300552E+00
          1   -1    0    0  501    0  0.00000000000E+00  0.00000000000E+00  0.64489105435E+03  0.64489105435E+03  0.00000000000E+00 0.  1.
         -1   -1    0    0    0  501 -0.00000000000E+00 -0.00000000000E+00 -0.32071713377E+01  0.32071713377E+01  0.00000000000E+00 0. -1.
         23    2    1    2    0    0  0.00000000000E+00  0.00000000000E+00  0.64168388301E+03  0.64809822568E+03  0.90956607356E+02 0.  0.
          2    1    3    3  502    0 -0.33054854582E+02  0.28220958179E+02  0.22544988964E+03  0.22960117298E+03  0.00000000000E+00 0. -1.
         -2    1    3    3    0  502  0.33054854582E+02 -0.28220958179E+02  0.41623399337E+03  0.41849705271E+03  0.00000000000E+00 0.  1.
<mgrwt>
<rscale>  0 0.90956607E+02</rscale>
<asrwt>0</asrwt>
<pdfrwt beam="1">  1        1 0.99213905E-01 0.90956607E+02</pdfrwt>
<pdfrwt beam="2">  1       -1 0.49341149E-03 0.90956607E+02</pdfrwt>
<totfact> 0.14296230E+05</totfact>
</mgrwt>
</event>
<event>
 5    1  0.3957498E+001  0.9150373E+02  0.7546771E-02  0.1299251E+00
          1   -1    0    0  501    0  0.00000000000E+00  0.00000000000E+00  0.54326264423E+01  0.54326264423E+01  0.00000000000E+00 0. -1.
         -1   -1    0    0    0  501 -0.00000000000E+00 -0.00000000000E+00 -0.38530776670E+03  0.38530776670E+03  0.00000000000E+00 0.  1.
         23    2    1    2    0    0  0.00000000000E+00  0.00000000000E+00 -0.37987514026E+03  0.39074039315E+03  0.91503730237E+02 0.  0.
          2    1    3    3  502    0 -0.87644890861E+01  0.34795739591E+02 -0.68730201571E+02  0.77533221077E+02  0.00000000000E+00 0. -1.
         -2    1    3    3    0  502  0.87644890861E+01 -0.34795739591E+02 -0.31114493869E+03  0.31320717207E+03  0.00000000000E+00 0.  1.
<mgrwt>
<rscale>  0 0.91503730E+02</rscale>
<asrwt>0</asrwt>
<pdfrwt beam="1">  1        1 0.83578859E-03 0.91503730E+02</pdfrwt>
<pdfrwt beam="2">  1       -1 0.59278125E-01 0.91503730E+02</pdfrwt>
<totfact> 0.53783213E+04</totfact>
</mgrwt>
</event>
<event>
 5    1  0.3957498E+001  0.9076244E+02  0.7546771E-02  0.1301016E+00
          2   -1    0    0  501    0  0.00000000000E+00  0.00000000000E+00  0.18065804463E+03  0.18065804463E+03  0.00000000000E+00 0. -1.
         -2   -1    0    0    0  501 -0.00000000000E+00 -0.00000000000E+00 -0.11399743192E+02  0.11399743192E+02  0.00000000000E+00 0.  1.
         23    2    1    2    0    0  0.00000000000E+00  0.00000000000E+00  0.16925830144E+03  0.19205778782E+03  0.90762444092E+02 0.  0.
          2    1    3    3  502    0  0.11094379913E+02  0.29964806757E+02  0.15281981059E+03  0.15612453176E+03  0.00000000000E+00 0. -1.
         -2    1    3    3    0  502 -0.11094379913E+02 -0.29964806757E+02  0.16438490848E+02  0.35933256059E+02  0.00000000000E+00 0.  1.
<mgrwt>
<rscale>  0 0.90762444E+02</rscale>
<asrwt>0</asrwt>
<pdfrwt beam="1">  1        2 0.27793543E-01 0.90762444E+02</pdfrwt>
<pdfrwt beam="2">  1       -2 0.17538068E-02 0.90762444E+02</pdfrwt>
<totfact> 0.15098400E+05</totfact>
</mgrwt>
</event>
<event>
 5    1  0.3957498E+001  0.9086166E+02  0.7546771E-02  0.1300778E+00
          1   -1    0    0  501    0  0.00000000000E+00  0.00000000000E+00  0.63948425206E+03  0.63948425206E+03  0.00000000000E+00 0. -1.
         -1   -1    0    0    0  501 -0.00000000000E+00 -0.00000000000E+00 -0.32275389002E+01  0.32275389002E+01  0.00000000000E+00 0.  1.
         23    2    1    2    0    0  0.00000000000E+00  0.00000000000E+00  0.63625671316E+03  0.64271179096E+03  0.90861659671E+02 0.  0.
          2    1    3    3  502    0  0.22217050793E+02 -0.38398558158E+02  0.38740325385E+03  0.38993503011E+03  0.00000000000E+00 0. -1.
         -2    1    3    3    0  502 -0.22217050793E+02  0.38398558158E+02  0.24885345931E+03  0.25277676084E+03  0.00000000000E+00 0.  1.
<mgrwt>
<rscale>  0 0.90861660E+02</rscale>
<asrwt>0</asrwt>
<pdfrwt beam="1">  1        1 0.98382092E-01 0.90861660E+02</pdfrwt>
<pdfrwt beam="2">  1       -1 0.49654495E-03 0.90861660E+02</pdfrwt>
<totfact> 0.14331917E+05</totfact>
</mgrwt>
</event>
<event>
 5    1  0.3957498E+001  0.9612649E+02  0.7546771E-02  0.1288659E+00
         -1   -1    0    0    0  501 -0.00000000000E+00  0.00000000000E+00  0.57867303304E+02  0.57867303304E+02  0.00000000000E+00 0.  1.
          1   -1    0    0  501    0  0.00000000000E+00 -0.00000000000E+00 -0.39920221907E+02  0.39920221907E+02  0.00000000000E+00 0. -1.
         23    2    1    2    0    0  0.00000000000E+00  0.00000000000E+00  0.17947081397E+02  0.97787525211E+02  0.96126491438E+02 0.  0.
          2    1    3    3  502    0  0.25559150390E+02  0.31784106212E+02  0.34840784624E+02  0.53641214095E+02  0.00000000000E+00 0. -1.
         -2    1    3    3    0  502 -0.25559150390E+02 -0.31784106212E+02 -0.16893703227E+02  0.44146311116E+02  0.00000000000E+00 0.  1.
<mgrwt>
<rscale>  0 0.96126491E+02</rscale>
<asrwt>0</asrwt>
<pdfrwt beam="2">  1        1 0.61415726E-02 0.96126491E+02</pdfrwt>
<pdfrwt beam="1">  1       -1 0.89026621E-02 0.96126491E+02</pdfrwt>
<totfact> 0.77999112E+04</totfact>
</mgrwt>
</event>
<event>
 5    1  0.3957498E+001  0.9154393E+02  0.7546771E-02  0.1299155E+00
          2   -1    0    0  501    0  0.00000000000E+00  0.00000000000E+00  0.64472525046E+03  0.64472525046E+03  0.00000000000E+00 0. -1.
         -2   -1    0    0    0  501 -0.00000000000E+00 -0.00000000000E+00 -0.32495590563E+01  0.32495590563E+01  0.00000000000E+00 0.  1.
         23    2    1    2    0    0  0.00000000000E+00  0.00000000000E+00  0.64147569140E+03  0.64797480952E+03  0.91543929923E+02 0.  0.
          2    1    3    3  502    0  0.41609169206E+02  0.42678184368E+01  0.45231331630E+03  0.45424318744E+03  0.00000000000E+00 0. -1.
         -2    1    3    3    0  502 -0.41609169206E+02 -0.42678184368E+01  0.18916237510E+03  0.19373162207E+03  0.00000000000E+00 0.  1.
<mgrwt>
<rscale>  0 0.91543930E+02</rscale>
<asrwt>0</asrwt>
<pdfrwt beam="1">  1        2 0.99188398E-01 0.91543930E+02</pdfrwt>
<pdfrwt beam="2">  1       -2 0.49993268E-03 0.91543930E+02</pdfrwt>
<totfact> 0.22990901E+05</totfact>
</mgrwt>
</event>
<event>
 5    1  0.3957498E+001  0.9027193E+02  0.7546771E-02  0.1302195E+00
          1   -1    0    0  501    0  0.00000000000E+00  0.00000000000E+00  0.70125839839E+03  0.70125839839E+03  0.00000000000E+00 0. -1.
         -1   -1    0    0    0  501 -0.00000000000E+00 -0.00000000000E+00 -0.29051420393E+01  0.29051420393E+01  0.00000000000E+00 0.  1.
         23    2    1    2    0    0  0.00000000000E+00  0.00000000000E+00  0.69835325635E+03  0.70416354043E+03  0.90271928164E+02 0.  0.
          2    1    3    3  502    0 -0.16566319502E+02 -0.31491378597E+02  0.56578622009E+03  0.56690404542E+03  0.00000000000E+00 0. -1.
         -2    1    3    3    0  502  0.16566319502E+02  0.31491378597E+02  0.13256703627E+03  0.13725949502E+03  0.00000000000E+00 0.  1.
<mgrwt>
<rscale>  0 0.90271928E+02</rscale>
<asrwt>0</asrwt>
<pdfrwt beam="1">  1        1 0.10788577E+00 0.90271928E+02</pdfrwt>
<pdfrwt beam="2">  1       -1 0.44694549E-03 0.90271928E+02</pdfrwt>
<totfact> 0.14597090E+05</totfact>
</mgrwt>
</event>
<event>
 5    1  0.3957498E+001  0.8468750E+02  0.7546771E-02  0.1316252E+00
         -2   -1    0    0    0  501 -0.00000000000E+00  0.00000000000E+00  0.66698387490E+02  0.66698387490E+02  0.00000000000E+00 0.  1.
          2   -1    0    0  501    0  0.00000000000E+00 -0.00000000000E+00 -0.26882107309E+02  0.26882107309E+02  0.00000000000E+00 0. -1.
         23    2    1    2    0    0  0.00000000000E+00  0.00000000000E+00  0.39816280181E+02  0.93580494799E+02  0.84687501082E+02 0.  0.
          2    1    3    3  502    0  0.14757947394E+02 -0.18214891016E+02 -0.19056788595E+02  0.30211594754E+02  0.00000000000E+00 0. -1.
         -2    1    3    3    0  502 -0.14757947394E+02  0.18214891016E+02  0.58873068775E+02  0.63368900046E+02  0.00000000000E+00 0.  1.
<mgrwt>
<rscale>  0 0.84687501E+02</rscale>
<asrwt>0</asrwt>
<pdfrwt beam="2">  1        2 0.41357088E-02 0.84687501E+02</pdfrwt>
<pdfrwt beam="1">  1       -2 0.10261290E-01 0.84687501E+02</pdfrwt>
<totfact> 0.10692577E+05</totfact>
</mgrwt>
</event>
<event>
 5    1  0.3957498E+001  0.9386604E+02  0.7546771E-02  0.1293751E+00
          3   -1    0    0  501    0  0.00000000000E+00  0.00000000000E+00  0.77648949297E+02  0.77648949297E+02  0.00000000000E+00 0. -1.
         -3   -1    0    0    0  501 -0.00000000000E+00 -0.00000000000E+00 -0.28367523386E+02  0.28367523386E+02  0.00000000000E+00 0.  1.
         23    2    1    2    0    0  0.00000000000E+00  0.00000000000E+00  0.49281425911E+02  0.10601647268E+03  0.93866040401E+02 0.  0.
          2    1    3    3  502    0  0.41513672769E+02  0.12726637539E+01  0.49326339143E+02  0.64483272506E+02  0.00000000000E+00 0. -1.
         -2    1    3    3    0  502 -0.41513672769E+02 -0.12726637539E+01 -0.44913232601E-01  0.41533200178E+02  0.00000000000E+00 0.  1.
<mgrwt>
<rscale>  0 0.93866040E+02</rscale>
<asrwt>0</asrwt>
<pdfrwt beam="1">  1        3 0.11945992E-01 0.93866040E+02</pdfrwt>
<pdfrwt beam="2">  1       -3 0.43642344E-02 0.93866040E+02</pdfrwt>
<totfact> 0.31620454E+04</totfact>
</mgrwt>
</event>
<event>
 5    1  0.3957498E+001  0.8957203E+02  0.7546771E-02  0.1303891E+00
         -1   -1    0    0    0  501 -0.00000000000E+00  0.00000000000E+00  0.62991387350E+01  0.62991387350E+01  0.00000000000E+00 0. -1.
          1   -1    0    0  501    0  0.00000000000E+00 -0.00000000000E+00 -0.31842246322E+03  0.31842246322E+03  0.00000000000E+00 0.  1.
         23    2    1    2    0    0  0.00000000000E+00  0.00000000000E+00 -0.31212332448E+03  0.32472160195E+03  0.89572032960E+02 0.  0.
          2    1    3    3  502    0 -0.76003439544E+01 -0.36283057725E+02 -0.24716759625E+03  0.24993208306E+03  0.00000000000E+00 0.  1.
         -2    1    3    3    0  502  0.76003439544E+01  0.36283057725E+02 -0.64955728228E+02  0.74789518889E+02  0.00000000000E+00 0. -1.
<mgrwt>
<rscale>  0 0.89572033E+02</rscale>
<asrwt>0</asrwt>
<pdfrwt beam="2">  1        1 0.48988078E-01 0.89572033E+02</pdfrwt>
<pdfrwt beam="1">  1       -1 0.96909813E-03 0.89572033E+02</pdfrwt>
<totfact> 0.13583600E+05</totfact>
</mgrwt>
</event>
<event>
 5    1  0.3957498E+001  0.9094219E+02  0.7546771E-02  0.1300586E+00
         -1   -1    0    0    0  501 -0.00000000000E+00  0.00000000000E+00  0.11092285402E+03  0.11092285402E+03  0.00000000000E+00 0.  1.
          1   -1    0    0  501    0  0.00000000000E+00 -0.00000000000E+00 -0.18640167755E+02  0.18640167755E+02  0.00000000000E+00 0. -1.
         23    2    1    2    0    0  0.00000000000E+00  0.00000000000E+00  0.92282686268E+02  0.12956302178E+03  0.90942192779E+02 0.  0.
          2    1    3    3  502    0  0.87294878593E+00 -0.45423867989E+02  0.43464325481E+02  0.62874775643E+02  0.00000000000E+00 0. -1.
         -2    1    3    3    0  502 -0.87294878593E+00  0.45423867989E+02  0.48818360787E+02  0.66688246135E+02  0.00000000000E+00 0.  1.
<mgrwt>
<rscale>  0 0.90942193E+02</rscale>
<asrwt>0</asrwt>
<pdfrwt beam="2">  1        1 0.28677182E-02 0.90942193E+02</pdfrwt>
<pdfrwt beam="1">  1       -1 0.17065054E-01 0.90942193E+02</pdfrwt>
<totfact> 0.80309374E+04</totfact>
</mgrwt>
</event>
<event>
 5    1  0.3957498E+001  0.9034940E+02  0.7546771E-02  0.1302008E+00
         -2   -1    0    0    0  501 -0.00000000000E+00  0.00000000000E+00  0.14326156897E+02  0.14326156897E+02  0.00000000000E+00 0.  1.
          2   -1    0    0  501    0  0.00000000000E+00 -0.00000000000E+00 -0.14244948165E+03  0.14244948165E+03  0.00000000000E+00 0. -1.
         23    2    1    2    0    0  0.00000000000E+00  0.00000000000E+00 -0.12812332476E+03  0.15677563855E+03  0.90349402302E+02 0.  0.
          2    1    3    3  502    0  0.11626032191E+02  0.36971359043E+02 -0.10433613385E+03  0.11130172883E+03  0.00000000000E+00 0. -1.
         -2    1    3    3    0  502 -0.11626032191E+02 -0.36971359043E+02 -0.23787190907E+02  0.45473909720E+02  0.00000000000E+00 0.  1.
<mgrwt>
<rscale>  0 0.90349402E+02</rscale>
<asrwt>0</asrwt>
<pdfrwt beam="2">  1        2 0.21915304E-01 0.90349402E+02</pdfrwt>
<pdfrwt beam="1">  1       -2 0.22040242E-02 0.90349402E+02</pdfrwt>
<totfact> 0.14083329E+05</totfact>
</mgrwt>
</event>
<event>
 5    1  0.3957498E+001  0.9077500E+02  0.7546771E-02  0.1300986E+00
          3   -1    0    0  501    0  0.00000000000E+00  0.00000000000E+00  0.51430183865E+03  0.51430183865E+03  0.00000000000E+00 0. -1.
         -3   -1    0    0    0  501 -0.00000000000E+00 -0.00000000000E+00 -0.40054791352E+01  0.40054791352E+01  0.00000000000E+00 0.  1.
         23    2    1    2    0    0  0.00000000000E+00  0.00000000000E+00  0.51029635952E+03  0.51830731779E+03  0.90775002813E+02 0.  0.
          2    1    3    3  502    0  0.46219175943E+01  0.44017031061E+02  0.31257759082E+03  0.31569544094E+03  0.00000000000E+00 0. -1.
         -2    1    3    3    0  502 -0.46219175943E+01 -0.44017031061E+02  0.19771876869E+03  0.20261187684E+03  0.00000000000E+00 0.  1.
<mgrwt>
<rscale>  0 0.90775003E+02</rscale>
<asrwt>0</asrwt>
<pdfrwt beam="1">  1        3 0.79123308E-01 0.90775003E+02</pdfrwt>
<pdfrwt beam="2">  1       -3 0.61622797E-03 0.90775003E+02</pdfrwt>
<totfact> 0.17684632E+04</totfact>
</mgrwt>
</event>
<event>
 5    1  0.3957498E+001  0.9085515E+02  0.7546771E-02  0.1300794E+00
         -1   -1    0    0    0  501 -0.00000000000E+00  0.00000000000E+00  0.28370985517E+01  0.28370985517E+01  0.00000000000E+00 0.  1.
          1   -1    0    0  501    0  0.00000000000E+00 -0.00000000000E+00 -0.72738554711E+03  0.72738554711E+03  0.00000000000E+00 0. -1.
         23    2    1    2    0    0  0.00000000000E+00  0.00000000000E+00 -0.72454844856E+03  0.73022264566E+03  0.90855148060E+02 0.  0.
          2    1    3    3  502    0  0.19563324510E+02  0.66557493714E+01 -0.37125107708E+02  0.42488778376E+02  0.00000000000E+00 0.  1.
         -2    1    3    3    0  502 -0.19563324510E+02 -0.66557493714E+01 -0.68742334085E+03  0.68773386728E+03  0.00000000000E+00 0. -1.
<mgrwt>
<rscale>  0 0.90855148E+02</rscale>
<asrwt>0</asrwt>
<pdfrwt beam="2">  1        1 0.11190536E+00 0.90855148E+02</pdfrwt>
<pdfrwt beam="1">  1       -1 0.43647711E-03 0.90855148E+02</pdfrwt>
<totfact> 0.14340498E+05</totfact>
</mgrwt>
</event>
<event>
 5    1  0.3957498E+001  0.8923703E+02  0.7546771E-02  0.1304710E+00
         -1   -1    0    0    0  501 -0.00000000000E+00  0.00000000000E+00  0.27242519513E+01  0.27242519513E+01  0.00000000000E+00 0.  1.
          1   -1    0    0  501    0  0.00000000000E+00 -0.00000000000E+00 -0.73077374567E+03  0.73077374567E+03  0.00000000000E+00 0. -1.
         23    2    1    2    0    0  0.00000000000E+00  0.00000000000E+00 -0.72804949372E+03  0.73349799762E+03  0.89237028248E+02 0.  0.
          2    1    3    3  502    0  0.20626418331E+02  0.13403682325E+02 -0.67000194544E+03  0.67045336507E+03  0.00000000000E+00 0. -1.
         -2    1    3    3    0  502 -0.20626418331E+02 -0.13403682325E+02 -0.58047548275E+02  0.63044632553E+02  0.00000000000E+00 0.  1.
<mgrwt>
<rscale>  0 0.89237028E+02</rscale>
<asrwt>0</asrwt>
<pdfrwt beam="2">  1        1 0.11242675E+00 0.89237028E+02</pdfrwt>
<pdfrwt beam="1">  1       -1 0.41911563E-03 0.89237028E+02</pdfrwt>
<totfact> 0.15035329E+05</totfact>
</mgrwt>
</event>
<event>
 5    1  0.3957498E+001  0.9542007E+02  0.7546771E-02  0.1290233E+00
          3   -1    0    0  501    0  0.00000000000E+00  0.00000000000E+00  0.28430174954E+02  0.28430174954E+02  0.00000000000E+00 0. -1.
         -3   -1    0    0    0  501 -0.00000000000E+00 -0.00000000000E+00 -0.80064491702E+02  0.80064491702E+02  0.00000000000E+00 0.  1.
         23    2    1    2    0    0  0.00000000000E+00  0.00000000000E+00 -0.51634316748E+02  0.10849466666E+03  0.95420071404E+02 0.  0.
          2    1    3    3  502    0 -0.15389923170E+02  0.28778441498E+02  0.13753786285E+02  0.35414898947E+02  0.00000000000E+00 0. -1.
         -2    1    3    3    0  502  0.15389923170E+02 -0.28778441498E+02 -0.65388103033E+02  0.73079767709E+02  0.00000000000E+00 0.  1.
<mgrwt>
<rscale>  0 0.95420071E+02</rscale>
<asrwt>0</asrwt>
<pdfrwt beam="1">  1        3 0.43738731E-02 0.95420071E+02</pdfrwt>
<pdfrwt beam="2">  1       -3 0.12317614E-01 0.95420071E+02</pdfrwt>
<totfact> 0.30076500E+04</totfact>
</mgrwt>
</event>
<event>
 5    1  0.3957498E+001  0.9212413E+02  0.7546771E-02  0.1297788E+00
         -4   -1    0    0    0  501 -0.00000000000E+00  0.00000000000E+00  0.12064519403E+03  0.12064519403E+03  0.00000000000E+00 0.  1.
          4   -1    0    0  501    0  0.00000000000E+00 -0.00000000000E+00 -0.17586391978E+02  0.17586391978E+02  0.00000000000E+00 0. -1.
         23    2    1    2    0    0  0.00000000000E+00  0.00000000000E+00  0.10305880205E+03  0.13823158601E+03  0.92124126535E+02 0.  0.
          2    1    3    3  502    0  0.33651798361E+02 -0.24704769791E+01  0.44807118059E+01  0.34038560012E+02  0.00000000000E+00 0. -1.
         -2    1    3    3    0  502 -0.33651798361E+02  0.24704769791E+01  0.98578090249E+02  0.10419302600E+03  0.00000000000E+00 0.  1.
<mgrwt>
<rscale>  0 0.92124127E+02</rscale>
<asrwt>0</asrwt>
<pdfrwt beam="2">  1        4 0.27055988E-02 0.92124127E+02</pdfrwt>
<pdfrwt beam="1">  1       -4 0.18560799E-01 0.92124127E+02</pdfrwt>
<totfact> 0.23609390E+04</totfact>
</mgrwt>
</event>
<event>
 5    1  0.3957498E+001  0.8926511E+02  0.7546771E-02  0.1304641E+00
         -2   -1    0    0    0  501 -0.00000000000E+00  0.00000000000E+00  0.20080900764E+03  0.20080900764E+03  0.00000000000E+00 0.  1.
          2   -1    0    0  501    0  0.00000000000E+00 -0.00000000000E+00 -0.99201962614E+01  0.99201962614E+01  0.00000000000E+00 0. -1.
         23    2    1    2    0    0  0.00000000000E+00  0.00000000000E+00  0.19088881138E+03  0.21072920391E+03  0.89265105542E+02 0.  0.
          2    1    3    3  502    0  0.40938522686E+01  0.42861795059E+02  0.67695075874E+02  0.80227902875E+02  0.00000000000E+00 0. -1.
         -2    1    3    3    0  502 -0.40938522686E+01 -0.42861795059E+02  0.12319373551E+03  0.13050130103E+03  0.00000000000E+00 0.  1.
<mgrwt>
<rscale>  0 0.89265106E+02</rscale>
<asrwt>0</asrwt>
<pdfrwt beam="2">  1        2 0.15261842E-02 0.89265106E+02</pdfrwt>
<pdfrwt beam="1">  1       -2 0.30893690E-01 0.89265106E+02</pdfrwt>
<totfact> 0.65665955E+04</totfact>
</mgrwt>
</event>
<event>
 5    1  0.3957498E+001  0.9119387E+02  0.7546771E-02  0.1299986E+00
         -1   -1    0    0    0  501 -0.00000000000E+00  0.00000000000E+00  0.16973992361E+01  0.16973992361E+01  0.00000000000E+00 0.  1.
          1   -1    0    0  501    0  0.00000000000E+00 -0.00000000000E+00 -0.12248624377E+04  0.12248624377E+04  0.00000000000E+00 0. -1.
         23    2    1    2    0    0  0.00000000000E+00  0.00000000000E+00 -0.12231650385E+04  0.12265598370E+04  0.91193871857E+02 0.  0.
          2    1    3    3  502    0 -0.31174952033E+02 -0.61009844560E+01 -0.10515404001E+04  0.10520201104E+04  0.00000000000E+00 0. -1.
         -2    1    3    3    0  502  0.31174952033E+02  0.61009844560E+01 -0.17162463840E+03  0.17453972657E+03  0.00000000000E+00 0.  1.
<mgrwt>
<rscale>  0 0.91193872E+02</rscale>
<asrwt>0</asrwt>
<pdfrwt beam="2">  1        1 0.18844042E+00 0.91193872E+02</pdfrwt>
<pdfrwt beam="1">  1       -1 0.26113828E-03 0.91193872E+02</pdfrwt>
<totfact> 0.12598273E+05</totfact>
</mgrwt>
</event>
<event>
 5    1  0.3957498E+001  0.8664608E+02  0.7546771E-02  0.1311183E+00
         -1   -1    0    0    0  501 -0.00000000000E+00  0.00000000000E+00  0.58170598592E+01  0.58170598592E+01  0.00000000000E+00 0.  1.
          1   -1    0    0  501    0  0.00000000000E+00 -0.00000000000E+00 -0.32265195950E+03  0.32265195950E+03  0.00000000000E+00 0. -1.
         23    2    1    2    0    0  0.00000000000E+00  0.00000000000E+00 -0.31683489964E+03  0.32846901936E+03  0.86646079245E+02 0.  0.
          2    1    3    3  502    0  0.29121487808E+02 -0.15822455438E+02 -0.26418872146E+03  0.26625944433E+03  0.00000000000E+00 0. -1.
         -2    1    3    3    0  502 -0.29121487808E+02  0.15822455438E+02 -0.52646178180E+02  0.62209575028E+02  0.00000000000E+00 0.  1.
<mgrwt>
<rscale>  0 0.86646079E+02</rscale>
<asrwt>0</asrwt>
<pdfrwt beam="2">  1        1 0.49638767E-01 0.86646079E+02</pdfrwt>
<pdfrwt beam="1">  1       -1 0.89493221E-03 0.86646079E+02</pdfrwt>
<totfact> 0.14870273E+05</totfact>
</mgrwt>
</event>
<event>
 5    1  0.3957498E+001  0.9847199E+02  0.7546771E-02  0.1283542E+00
         -1   -1    0    0    0  501 -0.00000000000E+00  0.00000000000E+00  0.98098267973E+01  0.98098267973E+01  0.00000000000E+00 0.  1.
          1   -1    0    0  501    0  0.00000000000E+00 -0.00000000000E+00 -0.24711784308E+03  0.24711784308E+03  0.00000000000E+00 0. -1.
         23    2    1    2    0    0  0.00000000000E+00  0.00000000000E+00 -0.23730801628E+03  0.25692766988E+03  0.98471990721E+02 0.  0.
          2    1    3    3  502    0  0.37858158708E+02  0.15547022004E+02 -0.19007183929E+03  0.19442801795E+03  0.00000000000E+00 0. -1.
         -2    1    3    3    0  502 -0.37858158708E+02 -0.15547022004E+02 -0.47236176998E+02  0.62499651929E+02  0.00000000000E+00 0.  1.
<mgrwt>
<rscale>  0 0.98471991E+02</rscale>
<asrwt>0</asrwt>
<pdfrwt beam="2">  1        1 0.38018128E-01 0.98471991E+02</pdfrwt>
<pdfrwt beam="1">  1       -1 0.15092042E-02 0.98471991E+02</pdfrwt>
<totfact> 0.10035611E+05</totfact>
</mgrwt>
</event>
<event>
 5    1  0.3957498E+001  0.8921950E+02  0.7546771E-02  0.1304753E+00
         -2   -1    0    0    0  501 -0.00000000000E+00  0.00000000000E+00  0.82076206477E+01  0.82076206477E+01  0.00000000000E+00 0.  1.
          2   -1    0    0  501    0  0.00000000000E+00 -0.00000000000E+00 -0.24246124157E+03  0.24246124157E+03  0.00000000000E+00 0. -1.
         23    2    1    2    0    0  0.00000000000E+00  0.00000000000E+00 -0.23425362093E+03  0.25066886222E+03  0.89219502187E+02 0.  0.
          2    1    3    3  502    0 -0.41435468611E+02 -0.13830502293E+02 -0.14254516241E+03  0.14908824293E+03  0.00000000000E+00 0. -1.
         -2    1    3    3    0  502  0.41435468611E+02  0.13830502293E+02 -0.91708458514E+02  0.10158061929E+03  0.00000000000E+00 0.  1.
<mgrwt>
<rscale>  0 0.89219502E+02</rscale>
<asrwt>0</asrwt>
<pdfrwt beam="2">  1        2 0.37301730E-01 0.89219502E+02</pdfrwt>
<pdfrwt beam="1">  1       -2 0.12627109E-02 0.89219502E+02</pdfrwt>
<totfact> 0.17589038E+05</totfact>
</mgrwt>
</event>
<event>
 5    1  0.3957498E+001  0.9322112E+02  0.7546771E-02  0.1295234E+00
         -1   -1    0    0    0  501 -0.00000000000E+00  0.00000000000E+00  0.37469295088E+01  0.37469295088E+01  0.00000000000E+00 0.  1.
          1   -1    0    0  501    0  0.00000000000E+00 -0.00000000000E+00 -0.57981991937E+03  0.57981991937E+03  0.00000000000E+00 0. -1.
         23    2    1    2    0    0  0.00000000000E+00  0.00000000000E+00 -0.57607298986E+03  0.58356684887E+03  0.93221121333E+02 0.  0.
          2    1    3    3  502    0  0.24978121134E+02 -0.13747811978E+02 -0.51886398917E+03  0.51964675321E+03  0.00000000000E+00 0. -1.
         -2    1    3    3    0  502 -0.24978121134E+02  0.13747811978E+02 -0.57209000690E+02  0.63920095663E+02  0.00000000000E+00 0.  1.
<mgrwt>
<rscale>  0 0.93221121E+02</rscale>
<asrwt>0</asrwt>
<pdfrwt beam="2">  1        1 0.89203068E-01 0.93221121E+02</pdfrwt>
<pdfrwt beam="1">  1       -1 0.57645067E-03 0.93221121E+02</pdfrwt>
<totfact> 0.13320310E+05</totfact>
</mgrwt>
</event>
<event>
 5    1  0.3957498E+001  0.8973058E+02  0.7546771E-02  0.1303505E+00
          2   -1    0    0  501    0  0.00000000000E+00  0.00000000000E+00  0.22269237843E+02  0.22269237843E+02  0.00000000000E+00 0. -1.
         -2   -1    0    0    0  501 -0.00000000000E+00 -0.00000000000E+00 -0.90389004338E+02  0.90389004338E+02  0.00000000000E+00 0.  1.
         23    2    1    2    0    0  0.00000000000E+00  0.00000000000E+00 -0.68119766495E+02  0.11265824218E+03  0.89730579760E+02 0.  0.
          2    1    3    3  502    0  0.11684629725E+02 -0.36654889437E+02 -0.50799372269E+01  0.38806149689E+02  0.00000000000E+00 0. -1.
         -2    1    3    3    0  502 -0.11684629725E+02  0.36654889437E+02 -0.63039829268E+02  0.73852092493E+02  0.00000000000E+00 0.  1.
<mgrwt>
<rscale>  0 0.89730580E+02</rscale>
<asrwt>0</asrwt>
<pdfrwt beam="1">  1        2 0.34260367E-02 0.89730580E+02</pdfrwt>
<pdfrwt beam="2">  1       -2 0.13906000E-01 0.89730580E+02</pdfrwt>
<totfact> 0.85518351E+04</totfact>
</mgrwt>
</event>
<event>
 5    1  0.3957498E+001  0.8977795E+02  0.7546771E-02  0.1303390E+00
         -1   -1    0    0    0  501 -0.00000000000E+00  0.00000000000E+00  0.39229273746E+01  0.39229273746E+01  0.00000000000E+00 0.  1.
          1   -1    0    0  501    0  0.00000000000E+00 -0.00000000000E+00 -0.51365211223E+03  0.51365211223E+03  0.00000000000E+00 0. -1.
         23    2    1    2    0    0  0.00000000000E+00  0.00000000000E+00 -0.50972918486E+03  0.51757503961E+03  0.89777946782E+02 0.  0.
          2    1    3    3  502    0 -0.43898780408E+02  0.52415726503E+01 -0.29968506162E+03  0.30292856115E+03  0.00000000000E+00 0. -1.
         -2    1    3    3    0  502  0.43898780408E+02 -0.52415726503E+01 -0.21004412324E+03  0.21464647845E+03  0.00000000000E+00 0.  1.
<mgrwt>
<rscale>  0 0.89777947E+02</rscale>
<asrwt>0</asrwt>
<pdfrwt beam="2">  1        1 0.79023390E-01 0.89777947E+02</pdfrwt>
<pdfrwt beam="1">  1       -1 0.60352738E-03 0.89777947E+02</pdfrwt>
<totfact> 0.14552987E+05</totfact>
</mgrwt>
</event>
<event>
 5    1  0.3957498E+001  0.6473984E+02  0.7546771E-02  0.1378953E+00
         -2   -1    0    0    0  501 -0.00000000000E+00  0.00000000000E+00  0.36153808151E+02  0.36153808151E+02  0.00000000000E+00 0. -1.
          2   -1    0    0  501    0  0.00000000000E+00 -0.00000000000E+00 -0.28982061144E+02  0.28982061144E+02  0.00000000000E+00 0.  1.
         23    2    1    2    0    0  0.00000000000E+00  0.00000000000E+00  0.71717470069E+01  0.65135869296E+02  0.64739844870E+02 0.  0.
          2    1    3    3  502    0  0.31366876274E+02  0.24177088290E+01 -0.40821410940E+01  0.31723652360E+02  0.00000000000E+00 0. -1.
         -2    1    3    3    0  502 -0.31366876274E+02 -0.24177088290E+01  0.11253888101E+02  0.33412216935E+02  0.00000000000E+00 0.  1.
<mgrwt>
<rscale>  0 0.64739845E+02</rscale>
<asrwt>0</asrwt>
<pdfrwt beam="2">  1        2 0.44587786E-02 0.64739845E+02</pdfrwt>
<pdfrwt beam="1">  1       -2 0.55621243E-02 0.64739845E+02</pdfrwt>
<totfact> 0.23328213E+05</totfact>
</mgrwt>
</event>
<event>
 5    1  0.3957498E+001  0.9489177E+02  0.7546771E-02  0.1291420E+00
         -3   -1    0    0    0  501 -0.00000000000E+00  0.00000000000E+00  0.65151303486E+02  0.65151303486E+02  0.00000000000E+00 0.  1.
          3   -1    0    0  501    0  0.00000000000E+00 -0.00000000000E+00 -0.34552061200E+02  0.34552061200E+02  0.00000000000E+00 0. -1.
         23    2    1    2    0    0  0.00000000000E+00  0.00000000000E+00  0.30599242286E+02  0.99703364685E+02  0.94891766245E+02 0.  0.
          2    1    3    3  502    0  0.31545744913E+01  0.24038208527E+02 -0.27552255292E+02  0.36700321267E+02  0.00000000000E+00 0. -1.
         -2    1    3    3    0  502 -0.31545744913E+01 -0.24038208527E+02  0.58151497578E+02  0.63003043419E+02  0.00000000000E+00 0.  1.
<mgrwt>
<rscale>  0 0.94891766E+02</rscale>
<asrwt>0</asrwt>
<pdfrwt beam="2">  1        3 0.53157017E-02 0.94891766E+02</pdfrwt>
<pdfrwt beam="1">  1       -3 0.10023277E-01 0.94891766E+02</pdfrwt>
<totfact> 0.31107589E+04</totfact>
</mgrwt>
</event>
<event>
 5    1  0.3957498E+001  0.9119399E+02  0.7546771E-02  0.1299986E+00
          1   -1    0    0  501    0  0.00000000000E+00  0.00000000000E+00  0.34930025178E+03  0.34930025178E+03  0.00000000000E+00 0. -1.
         -1   -1    0    0    0  501 -0.00000000000E+00 -0.00000000000E+00 -0.59521461203E+01  0.59521461203E+01  0.00000000000E+00 0.  1.
         23    2    1    2    0    0  0.00000000000E+00  0.00000000000E+00  0.34334810566E+03  0.35525239790E+03  0.91193994067E+02 0.  0.
          2    1    3    3  502    0 -0.29435346778E+02 -0.20662358016E+02  0.28086908420E+03  0.28316217109E+03  0.00000000000E+00 0. -1.
         -2    1    3    3    0  502  0.29435346778E+02  0.20662358016E+02  0.62479021465E+02  0.72090226812E+02  0.00000000000E+00 0.  1.
<mgrwt>
<rscale>  0 0.91193994E+02</rscale>
<asrwt>0</asrwt>
<pdfrwt beam="1">  1        1 0.53738484E-01 0.91193994E+02</pdfrwt>
<pdfrwt beam="2">  1       -1 0.91571506E-03 0.91193994E+02</pdfrwt>
<totfact> 0.13171941E+05</totfact>
</mgrwt>
</event>
<event>
 5    1  0.3957498E+001  0.6451856E+02  0.7546771E-02  0.1379792E+00
         -1   -1    0    0    0  501 -0.00000000000E+00  0.00000000000E+00  0.20673947749E+01  0.20673947749E+01  0.00000000000E+00 0.  1.
          1   -1    0    0  501    0  0.00000000000E+00 -0.00000000000E+00 -0.50336832731E+03  0.50336832731E+03  0.00000000000E+00 0. -1.
         23    2    1    2    0    0  0.00000000000E+00  0.00000000000E+00 -0.50130093253E+03  0.50543572208E+03  0.64518557012E+02 0.  0.
          2    1    3    3  502    0 -0.20602661211E+02  0.10505649972E+02 -0.74460791767E+02  0.77969531490E+02  0.00000000000E+00 0.  1.
         -2    1    3    3    0  502  0.20602661211E+02 -0.10505649972E+02 -0.42684014077E+03  0.42746619059E+03  0.00000000000E+00 0. -1.
<mgrwt>
<rscale>  0 0.64518557E+02</rscale>
<asrwt>0</asrwt>
<pdfrwt beam="2">  1        1 0.77441365E-01 0.64518557E+02</pdfrwt>
<pdfrwt beam="1">  1       -1 0.31806039E-03 0.64518557E+02</pdfrwt>
<totfact> 0.34296546E+05</totfact>
</mgrwt>
</event>
<event>
 5    1  0.3957498E+001  0.9240369E+02  0.7546771E-02  0.1297133E+00
          3   -1    0    0  501    0  0.00000000000E+00  0.00000000000E+00  0.72025035296E+02  0.72025035296E+02  0.00000000000E+00 0. -1.
         -3   -1    0    0    0  501 -0.00000000000E+00 -0.00000000000E+00 -0.29637064948E+02  0.29637064948E+02  0.00000000000E+00 0.  1.
         23    2    1    2    0    0  0.00000000000E+00  0.00000000000E+00  0.42387970348E+02  0.10166210024E+03  0.92403693626E+02 0.  0.
          2    1    3    3  502    0 -0.21116178292E+02  0.25435374560E+02  0.56704212843E+02  0.65637024756E+02  0.00000000000E+00 0. -1.
         -2    1    3    3    0  502  0.21116178292E+02 -0.25435374560E+02 -0.14316242495E+02  0.36025075487E+02  0.00000000000E+00 0.  1.
<mgrwt>
<rscale>  0 0.92403694E+02</rscale>
<asrwt>0</asrwt>
<pdfrwt beam="1">  1        3 0.11080775E-01 0.92403694E+02</pdfrwt>
<pdfrwt beam="2">  1       -3 0.45595485E-02 0.92403694E+02</pdfrwt>
<totfact> 0.33311216E+04</totfact>
</mgrwt>
</event>
<event>
 5    1  0.3957498E+001  0.9091502E+02  0.7546771E-02  0.1300651E+00
          3   -1    0    0  501    0  0.00000000000E+00  0.00000000000E+00  0.75389538607E+02  0.75389538607E+02  0.00000000000E+00 0.  1.
         -3   -1    0    0    0  501 -0.00000000000E+00 -0.00000000000E+00 -0.27409442533E+02  0.27409442533E+02  0.00000000000E+00 0. -1.
         23    2    1    2    0    0  0.00000000000E+00  0.00000000000E+00  0.47980096074E+02  0.10279898114E+03  0.90915020234E+02 0.  0.
          2    1    3    3  502    0  0.11304967372E+02 -0.17660872960E+02  0.69594135252E+02  0.72684608980E+02  0.00000000000E+00 0.  1.
         -2    1    3    3    0  502 -0.11304967372E+02  0.17660872960E+02 -0.21614039179E+02  0.30114372160E+02  0.00000000000E+00 0. -1.
<mgrwt>
<rscale>  0 0.90915020E+02</rscale>
<asrwt>0</asrwt>
<pdfrwt beam="1">  1        3 0.11598390E-01 0.90915020E+02</pdfrwt>
<pdfrwt beam="2">  1       -3 0.42168374E-02 0.90915020E+02</pdfrwt>
<totfact> 0.34735688E+04</totfact>
</mgrwt>
</event>
<event>
 5    1  0.3957498E+001  0.9138353E+02  0.7546771E-02  0.1299535E+00
         -2   -1    0    0    0  501 -0.00000000000E+00  0.00000000000E+00  0.10887456723E+01  0.10887456723E+01  0.00000000000E+00 0.  1.
          2   -1    0    0  501    0  0.00000000000E+00 -0.00000000000E+00 -0.19175619884E+04  0.19175619884E+04  0.00000000000E+00 0. -1.
         23    2    1    2    0    0  0.00000000000E+00  0.00000000000E+00 -0.19164732428E+04  0.19186507341E+04  0.91383528411E+02 0.  0.
          2    1    3    3  502    0 -0.44469857209E+02 -0.27279148063E+01 -0.11710365930E+04  0.11718838304E+04  0.00000000000E+00 0. -1.
         -2    1    3    3    0  502  0.44469857209E+02  0.27279148063E+01 -0.74543664976E+03  0.74676690374E+03  0.00000000000E+00 0.  1.
<mgrwt>
<rscale>  0 0.91383528E+02</rscale>
<asrwt>0</asrwt>
<pdfrwt beam="2">  1        2 0.29501139E+00 0.91383528E+02</pdfrwt>
<pdfrwt beam="1">  1       -2 0.16749828E-03 0.91383528E+02</pdfrwt>
<totfact> 0.20302882E+05</totfact>
</mgrwt>
</event>
<event>
 5    1  0.3957498E+001  0.8791238E+02  0.7546771E-02  0.1307987E+00
          1   -1    0    0  501    0  0.00000000000E+00  0.00000000000E+00  0.12729339778E+03  0.12729339778E+03  0.00000000000E+00 0. -1.
         -1   -1    0    0    0  501 -0.00000000000E+00 -0.00000000000E+00 -0.15178685638E+02  0.15178685638E+02  0.00000000000E+00 0.  1.
         23    2    1    2    0    0  0.00000000000E+00  0.00000000000E+00  0.11211471214E+03  0.14247208341E+03  0.87912376117E+02 0.  0.
          2    1    3    3  502    0  0.37295917965E+02 -0.19520609767E+02  0.76563528245E+02  0.87372842233E+02  0.00000000000E+00 0. -1.
         -2    1    3    3    0  502 -0.37295917965E+02  0.19520609767E+02  0.35551183894E+02  0.55099241181E+02  0.00000000000E+00 0.  1.
<mgrwt>
<rscale>  0 0.87912376E+02</rscale>
<asrwt>0</asrwt>
<pdfrwt beam="1">  1        1 0.19583599E-01 0.87912376E+02</pdfrwt>
<pdfrwt beam="2">  1       -1 0.23351825E-02 0.87912376E+02</pdfrwt>
<totfact> 0.12012220E+05</totfact>
</mgrwt>
</event>
<event>
 5    1  0.3957498E+001  0.9084135E+02  0.7546771E-02  0.1300827E+00
          1   -1    0    0  501    0  0.00000000000E+00  0.00000000000E+00  0.16132309402E+02  0.16132309402E+02  0.00000000000E+00 0. -1.
         -1   -1    0    0    0  501 -0.00000000000E+00 -0.00000000000E+00 -0.12788234364E+03  0.12788234364E+03  0.00000000000E+00 0.  1.
         23    2    1    2    0    0  0.00000000000E+00  0.00000000000E+00 -0.11175003424E+03  0.14401465304E+03  0.90841345975E+02 0.  0.
          2    1    3    3  502    0 -0.42825570305E+02 -0.70118376996E+01 -0.34614740104E+02  0.55510139365E+02  0.00000000000E+00 0. -1.
         -2    1    3    3    0  502  0.42825570305E+02  0.70118376996E+01 -0.77135294137E+02  0.88504513679E+02  0.00000000000E+00 0.  1.
<mgrwt>
<rscale>  0 0.90841346E+02</rscale>
<asrwt>0</asrwt>
<pdfrwt beam="1">  1        1 0.24818939E-02 0.90841346E+02</pdfrwt>
<pdfrwt beam="2">  1       -1 0.19674206E-01 0.90841346E+02</pdfrwt>
<totfact> 0.78238784E+04</totfact>
</mgrwt>
</event>
<event>
 5    1  0.3957498E+001  0.9320727E+02  0.7546771E-02  0.1295266E+00
          1   -1    0    0  501    0  0.00000000000E+00  0.00000000000E+00  0.55698493513E+03  0.55698493513E+03  0.00000000000E+00 0. -1.
         -1   -1    0    0    0  501 -0.00000000000E+00 -0.00000000000E+00 -0.38993848378E+01  0.38993848378E+01  0.00000000000E+00 0.  1.
         23    2    1    2    0    0  0.00000000000E+00  0.00000000000E+00  0.55308555029E+03  0.56088431997E+03  0.93207266046E+02 0.  0.
          2    1    3    3  502    0 -0.63162882051E+01 -0.31990038317E+02  0.76179135632E+02  0.82864460138E+02  0.00000000000E+00 0.  1.
         -2    1    3    3    0  502  0.63162882051E+01  0.31990038317E+02  0.47690641466E+03  0.47801985983E+03  0.00000000000E+00 0. -1.
<mgrwt>
<rscale>  0 0.93207266E+02</rscale>
<asrwt>0</asrwt>
<pdfrwt beam="1">  1        1 0.85689927E-01 0.93207266E+02</pdfrwt>
<pdfrwt beam="2">  1       -1 0.59990580E-03 0.93207266E+02</pdfrwt>
<totfact> 0.13282918E+05</totfact>
</mgrwt>
</event>
<event>
 5    1  0.3957498E+001  0.9027826E+02  0.7546771E-02  0.1302179E+00
         -1   -1    0    0    0  501 -0.00000000000E+00  0.00000000000E+00  0.71543596984E+01  0.71543596984E+01  0.00000000000E+00 0.  1.
          1   -1    0    0  501    0  0.00000000000E+00 -0.00000000000E+00 -0.28479712948E+03  0.28479712948E+03  0.00000000000E+00 0. -1.
         23    2    1    2    0    0  0.00000000000E+00  0.00000000000E+00 -0.27764276978E+03  0.29195148917E+03  0.90278261067E+02 0.  0.
          2    1    3    3  502    0 -0.38952912784E+02  0.92407980043E+01 -0.20625585318E+03  0.21010520873E+03  0.00000000000E+00 0. -1.
         -2    1    3    3    0  502  0.38952912784E+02 -0.92407980043E+01 -0.71386916593E+02  0.81846280445E+02  0.00000000000E+00 0.  1.
<mgrwt>
<rscale>  0 0.90278261E+02</rscale>
<asrwt>0</asrwt>
<pdfrwt beam="2">  1        1 0.43814937E-01 0.90278261E+02</pdfrwt>
<pdfrwt beam="1">  1       -1 0.11006709E-02 0.90278261E+02</pdfrwt>
<totfact> 0.13024056E+05</totfact>
</mgrwt>
</event>
<event>
 5    1  0.3957498E+001  0.9308852E+02  0.7546771E-02  0.1295540E+00
         -2   -1    0    0    0  501 -0.00000000000E+00  0.00000000000E+00  0.11582562525E+02  0.11582562525E+02  0.00000000000E+00 0. -1.
          2   -1    0    0  501    0  0.00000000000E+00 -0.00000000000E+00 -0.18703702633E+03  0.18703702633E+03  0.00000000000E+00 0.  1.
         23    2    1    2    0    0  0.00000000000E+00  0.00000000000E+00 -0.17545446380E+03  0.19861958885E+03  0.93088518130E+02 0.  0.
          2    1    3    3  502    0 -0.22638433327E+01  0.42899900639E+02 -0.49508938344E+02  0.65548923999E+02  0.00000000000E+00 0.  1.
         -2    1    3    3    0  502  0.22638433327E+01 -0.42899900639E+02 -0.12594552546E+03  0.13307066485E+03  0.00000000000E+00 0. -1.
<mgrwt>
<rscale>  0 0.93088518E+02</rscale>
<asrwt>0</asrwt>
<pdfrwt beam="2">  1        2 0.28774925E-01 0.93088518E+02</pdfrwt>
<pdfrwt beam="1">  1       -2 0.17819328E-02 0.93088518E+02</pdfrwt>
<totfact> 0.14276190E+05</totfact>
</mgrwt>
</event>
<event>
 5    1  0.3957498E+001  0.9216849E+02  0.7546771E-02  0.1297684E+00
          1   -1    0    0  501    0  0.00000000000E+00  0.00000000000E+00  0.39781155734E+03  0.39781155734E+03  0.00000000000E+00 0. -1.
         -1   -1    0    0    0  501 -0.00000000000E+00 -0.00000000000E+00 -0.53386015851E+01  0.53386015851E+01  0.00000000000E+00 0.  1.
         23    2    1    2    0    0  0.00000000000E+00  0.00000000000E+00  0.39247295575E+03  0.40315015892E+03  0.92168485082E+02 0.  0.
          2    1    3    3  502    0  0.17174209893E+02 -0.13550096168E+02  0.37365280350E+03  0.37429263439E+03  0.00000000000E+00 0. -1.
         -2    1    3    3    0  502 -0.17174209893E+02  0.13550096168E+02  0.18820152252E+02  0.28857524537E+02  0.00000000000E+00 0.  1.
<mgrwt>
<rscale>  0 0.92168485E+02</rscale>
<asrwt>0</asrwt>
<pdfrwt beam="1">  1        1 0.61201755E-01 0.92168485E+02</pdfrwt>
<pdfrwt beam="2">  1       -1 0.82132363E-03 0.92168485E+02</pdfrwt>
<totfact> 0.13094999E+05</totfact>
</mgrwt>
</event>
<event>
 5    1  0.3957498E+001  0.8806657E+02  0.7546771E-02  0.1307602E+00
          1   -1    0    0  501    0  0.00000000000E+00  0.00000000000E+00  0.91296351537E+03  0.91296351537E+03  0.00000000000E+00 0. -1.
         -1   -1    0    0    0  501 -0.00000000000E+00 -0.00000000000E+00 -0.21237760439E+01  0.21237760439E+01  0.00000000000E+00 0.  1.
         23    2    1    2    0    0  0.00000000000E+00  0.00000000000E+00  0.91083973932E+03  0.91508729141E+03  0.88066566706E+02 0.  0.
          2    1    3    3  502    0 -0.56374692511E+01 -0.35218446648E+02  0.72373953906E+03  0.72461785822E+03  0.00000000000E+00 0. -1.
         -2    1    3    3    0  502  0.56374692511E+01  0.35218446648E+02  0.18710020026E+03  0.19046943319E+03  0.00000000000E+00 0.  1.
<mgrwt>
<rscale>  0 0.88066567E+02</rscale>
<asrwt>0</asrwt>
<pdfrwt beam="1">  1        1 0.14045561E+00 0.88066567E+02</pdfrwt>
<pdfrwt beam="2">  1       -1 0.32673550E-03 0.88066567E+02</pdfrwt>
<totfact> 0.15213699E+05</totfact>
</mgrwt>
</event>
<event>
 5    1  0.3957498E+001  0.9045665E+02  0.7546771E-02  0.1301750E+00
          1   -1    0    0  501    0  0.00000000000E+00  0.00000000000E+00  0.89101636298E+03  0.89101636298E+03  0.00000000000E+00 0. -1.
         -1   -1    0    0    0  501 -0.00000000000E+00 -0.00000000000E+00 -0.22958067610E+01  0.22958067610E+01  0.00000000000E+00 0.  1.
         23    2    1    2    0    0  0.00000000000E+00  0.00000000000E+00  0.88872055622E+03  0.89331216975E+03  0.90456650176E+02 0.  0.
          2    1    3    3  502    0 -0.19866345718E+01 -0.42806482042E+02  0.58721862490E+03  0.58878014153E+03  0.00000000000E+00 0. -1.
         -2    1    3    3    0  502  0.19866345718E+01  0.42806482042E+02  0.30150193132E+03  0.30453202822E+03  0.00000000000E+00 0.  1.
<mgrwt>
<rscale>  0 0.90456650E+02</rscale>
<asrwt>0</asrwt>
<pdfrwt beam="1">  1        1 0.13707916E+00 0.90456650E+02</pdfrwt>
<pdfrwt beam="2">  1       -1 0.35320175E-03 0.90456650E+02</pdfrwt>
<totfact> 0.14236481E+05</totfact>
</mgrwt>
</event>
<event>
 5    1  0.3957498E+001  0.9263733E+02  0.7546771E-02  0.1296588E+00
          3   -1    0    0  501    0  0.00000000000E+00  0.00000000000E+00  0.13046832437E+04  0.13046832437E+04  0.00000000000E+00 0. -1.
         -3   -1    0    0    0  501 -0.00000000000E+00 -0.00000000000E+00 -0.16443979871E+01  0.16443979871E+01  0.00000000000E+00 0.  1.
         23    2    1    2    0    0  0.00000000000E+00  0.00000000000E+00  0.13030388457E+04  0.13063276417E+04  0.92637325086E+02 0.  0.
          2    1    3    3  502    0 -0.38546110997E+02 -0.13104428513E+02  0.34004171450E+03  0.34247028531E+03  0.00000000000E+00 0.  1.
         -2    1    3    3    0  502  0.38546110997E+02  0.13104428513E+02  0.96299713119E+03  0.96385735636E+03  0.00000000000E+00 0. -1.
<mgrwt>
<rscale>  0 0.92637325E+02</rscale>
<asrwt>0</asrwt>
<pdfrwt beam="1">  1        3 0.20071967E+00 0.92637325E+02</pdfrwt>
<pdfrwt beam="2">  1       -3 0.25298535E-03 0.92637325E+02</pdfrwt>
<totfact> 0.70765244E+03</totfact>
</mgrwt>
</event>
<event>
 5    1  0.3957498E+001  0.9115476E+02  0.7546771E-02  0.1300079E+00
         -1   -1    0    0    0  501 -0.00000000000E+00  0.00000000000E+00  0.28331240895E+02  0.28331240895E+02  0.00000000000E+00 0.  1.
          1   -1    0    0  501    0  0.00000000000E+00 -0.00000000000E+00 -0.73321794135E+02  0.73321794135E+02  0.00000000000E+00 0. -1.
         23    2    1    2    0    0  0.00000000000E+00  0.00000000000E+00 -0.44990553240E+02  0.10165303503E+03  0.91154756596E+02 0.  0.
          2    1    3    3  502    0 -0.32567967254E+02 -0.31212647719E+02 -0.29756354907E+02  0.54040193616E+02  0.00000000000E+00 0. -1.
         -2    1    3    3    0  502  0.32567967254E+02  0.31212647719E+02 -0.15234198333E+02  0.47612841415E+02  0.00000000000E+00 0.  1.
<mgrwt>
<rscale>  0 0.91154757E+02</rscale>
<asrwt>0</asrwt>
<pdfrwt beam="2">  1        1 0.11280276E-01 0.91154757E+02</pdfrwt>
<pdfrwt beam="1">  1       -1 0.43586525E-02 0.91154757E+02</pdfrwt>
<totfact> 0.99444581E+04</totfact>
</mgrwt>
</event>
<event>
 5    1  0.3957498E+001  0.9032790E+02  0.7546771E-02  0.1302060E+00
         -1   -1    0    0    0  501 -0.00000000000E+00  0.00000000000E+00  0.26984138024E+02  0.26984138024E+02  0.00000000000E+00 0.  1.
          1   -1    0    0  501    0  0.00000000000E+00 -0.00000000000E+00 -0.75591897635E+02  0.75591897635E+02  0.00000000000E+00 0. -1.
         23    2    1    2    0    0  0.00000000000E+00  0.00000000000E+00 -0.48607759611E+02  0.10257603566E+03  0.90327896008E+02 0.  0.
          2    1    3    3  502    0 -0.39210456452E+02  0.13074269472E+02 -0.44976282276E+02  0.61084059989E+02  0.00000000000E+00 0. -1.
         -2    1    3    3    0  502  0.39210456452E+02 -0.13074269472E+02 -0.36314773348E+01  0.41491975670E+02  0.00000000000E+00 0.  1.
<mgrwt>
<rscale>  0 0.90327896E+02</rscale>
<asrwt>0</asrwt>
<pdfrwt beam="2">  1        1 0.11629523E-01 0.90327896E+02</pdfrwt>
<pdfrwt beam="1">  1       -1 0.41514059E-02 0.90327896E+02</pdfrwt>
<totfact> 0.10245041E+05</totfact>
</mgrwt>
</event>
<event>
 5    1  0.3957498E+001  0.9035841E+02  0.7546771E-02  0.1301986E+00
          4   -1    0    0  501    0  0.00000000000E+00  0.00000000000E+00  0.37793796075E+02  0.37793796075E+02  0.00000000000E+00 0. -1.
         -4   -1    0    0    0  501 -0.00000000000E+00 -0.00000000000E+00 -0.54007820390E+02  0.54007820390E+02  0.00000000000E+00 0.  1.
         23    2    1    2    0    0  0.00000000000E+00  0.00000000000E+00 -0.16214024315E+02  0.91801616465E+02  0.90358409687E+02 0.  0.
          2    1    3    3  502    0 -0.28384907623E+02 -0.33964580335E+02 -0.17299445527E+02  0.47524378099E+02  0.00000000000E+00 0. -1.
         -2    1    3    3    0  502  0.28384907623E+02  0.33964580335E+02  0.10854212116E+01  0.44277238366E+02  0.00000000000E+00 0.  1.
<mgrwt>
<rscale>  0 0.90358410E+02</rscale>
<asrwt>0</asrwt>
<pdfrwt beam="1">  1        4 0.58144302E-02 0.90358410E+02</pdfrwt>
<pdfrwt beam="2">  1       -4 0.83088954E-02 0.90358410E+02</pdfrwt>
<totfact> 0.27643241E+04</totfact>
</mgrwt>
</event>
<event>
 5    1  0.3957498E+001  0.9164743E+02  0.7546771E-02  0.1298911E+00
         -2   -1    0    0    0  501 -0.00000000000E+00  0.00000000000E+00  0.50803149620E+02  0.50803149620E+02  0.00000000000E+00 0.  1.
          2   -1    0    0  501    0  0.00000000000E+00 -0.00000000000E+00 -0.41332337554E+02  0.41332337554E+02  0.00000000000E+00 0. -1.
         23    2    1    2    0    0  0.00000000000E+00  0.00000000000E+00  0.94708120658E+01  0.92135487174E+02  0.91647431582E+02 0.  0.
          2    1    3    3  502    0 -0.12536767188E+01  0.37785003546E+02 -0.21297177869E+02  0.43391796270E+02  0.00000000000E+00 0. -1.
         -2    1    3    3    0  502  0.12536767188E+01 -0.37785003546E+02  0.30767989935E+02  0.48743690904E+02  0.00000000000E+00 0.  1.
<mgrwt>
<rscale>  0 0.91647432E+02</rscale>
<asrwt>0</asrwt>
<pdfrwt beam="2">  1        2 0.63588212E-02 0.91647432E+02</pdfrwt>
<pdfrwt beam="1">  1       -2 0.78158692E-02 0.91647432E+02</pdfrwt>
<totfact> 0.94778096E+04</totfact>
</mgrwt>
</event>
<event>
 5    1  0.3957498E+001  0.9032697E+02  0.7546771E-02  0.1302062E+00
          1   -1    0    0  501    0  0.00000000000E+00  0.00000000000E+00  0.17931545869E+02  0.17931545869E+02  0.00000000000E+00 0. -1.
         -1   -1    0    0    0  501 -0.00000000000E+00 -0.00000000000E+00 -0.11375151028E+03  0.11375151028E+03  0.00000000000E+00 0.  1.
         23    2    1    2    0    0  0.00000000000E+00  0.00000000000E+00 -0.95819964409E+02  0.13168305615E+03  0.90326971037E+02 0.  0.
          2    1    3    3  502    0  0.23892795248E+02 -0.24531441921E+02 -0.49817687212E+01  0.34604556450E+02  0.00000000000E+00 0. -1.
         -2    1    3    3    0  502 -0.23892795248E+02  0.24531441921E+02 -0.90838195688E+02  0.97078499697E+02  0.00000000000E+00 0.  1.
<mgrwt>
<rscale>  0 0.90326971E+02</rscale>
<asrwt>0</asrwt>
<pdfrwt beam="1">  1        1 0.27586993E-02 0.90326971E+02</pdfrwt>
<pdfrwt beam="2">  1       -1 0.17500233E-01 0.90326971E+02</pdfrwt>
<totfact> 0.81322942E+04</totfact>
</mgrwt>
</event>
<event>
 5    1  0.3957498E+001  0.9027246E+02  0.7546771E-02  0.1302193E+00
          2   -1    0    0  501    0  0.00000000000E+00  0.00000000000E+00  0.21166759038E+03  0.21166759038E+03  0.00000000000E+00 0. -1.
         -2   -1    0    0    0  501 -0.00000000000E+00 -0.00000000000E+00 -0.96248991746E+01  0.96248991746E+01  0.00000000000E+00 0.  1.
         23    2    1    2    0    0  0.00000000000E+00  0.00000000000E+00  0.20204269120E+03  0.22129248955E+03  0.90272459054E+02 0.  0.
          2    1    3    3  502    0 -0.22008283716E+02 -0.12295052133E+02  0.19280093696E+03  0.19444211003E+03  0.00000000000E+00 0. -1.
         -2    1    3    3    0  502  0.22008283716E+02  0.12295052133E+02  0.92417542397E+01  0.26850379522E+02  0.00000000000E+00 0.  1.
<mgrwt>
<rscale>  0 0.90272459E+02</rscale>
<asrwt>0</asrwt>
<pdfrwt beam="1">  1        2 0.32564241E-01 0.90272459E+02</pdfrwt>
<pdfrwt beam="2">  1       -2 0.14807539E-02 0.90272459E+02</pdfrwt>
<totfact> 0.16218124E+05</totfact>
</mgrwt>
</event>
<event>
 5    1  0.3957498E+001  0.9027673E+02  0.7546771E-02  0.1302183E+00
          1   -1    0    0  501    0  0.00000000000E+00  0.00000000000E+00  0.47510837679E+02  0.47510837679E+02  0.00000000000E+00 0. -1.
         -1   -1    0    0    0  501 -0.00000000000E+00 -0.00000000000E+00 -0.42884363538E+02  0.42884363538E+02  0.00000000000E+00 0.  1.
         23    2    1    2    0    0  0.00000000000E+00  0.00000000000E+00  0.46264741409E+01  0.90395201217E+02  0.90276730890E+02 0.  0.
          2    1    3    3  502    0 -0.50256347855E+01 -0.44640483557E+02 -0.21018868803E+01  0.44971632233E+02  0.00000000000E+00 0. -1.
         -2    1    3    3    0  502  0.50256347855E+01  0.44640483557E+02  0.67283610212E+01  0.45423568984E+02  0.00000000000E+00 0.  1.
<mgrwt>
<rscale>  0 0.90276731E+02</rscale>
<asrwt>0</asrwt>
<pdfrwt beam="1">  1        1 0.73093597E-02 0.90276731E+02</pdfrwt>
<pdfrwt beam="2">  1       -1 0.65975944E-02 0.90276731E+02</pdfrwt>
<totfact> 0.95666519E+04</totfact>
</mgrwt>
</event>
<event>
 5    1  0.3957498E+001  0.9603111E+02  0.7546771E-02  0.1288871E+00
         -1   -1    0    0    0  501 -0.00000000000E+00  0.00000000000E+00  0.34288967388E+01  0.34288967388E+01  0.00000000000E+00 0.  1.
          1   -1    0    0  501    0  0.00000000000E+00 -0.00000000000E+00 -0.67237183911E+03  0.67237183911E+03  0.00000000000E+00 0. -1.
         23    2    1    2    0    0  0.00000000000E+00  0.00000000000E+00 -0.66894294238E+03  0.67580073585E+03  0.96031111759E+02 0.  0.
          2    1    3    3  502    0 -0.39341556489E+02 -0.24758387176E+02 -0.41914110793E+03  0.42171080631E+03  0.00000000000E+00 0. -1.
         -2    1    3    3    0  502  0.39341556489E+02  0.24758387176E+02 -0.24980183445E+03  0.25408992954E+03  0.00000000000E+00 0.  1.
<mgrwt>
<rscale>  0 0.96031112E+02</rscale>
<asrwt>0</asrwt>
<pdfrwt beam="2">  1        1 0.10344189E+00 0.96031112E+02</pdfrwt>
<pdfrwt beam="1">  1       -1 0.52752224E-03 0.96031112E+02</pdfrwt>
<totfact> 0.12389619E+05</totfact>
</mgrwt>
</event>
<event>
 5    1  0.3957498E+001  0.9162104E+02  0.7546771E-02  0.1298973E+00
         -2   -1    0    0    0  501 -0.00000000000E+00  0.00000000000E+00  0.72743193088E+02  0.72743193088E+02  0.00000000000E+00 0.  1.
          2   -1    0    0  501    0  0.00000000000E+00 -0.00000000000E+00 -0.28849487428E+02  0.28849487428E+02  0.00000000000E+00 0. -1.
         23    2    1    2    0    0  0.00000000000E+00  0.00000000000E+00  0.43893705660E+02  0.10159268052E+03  0.91621042003E+02 0.  0.
          2    1    3    3  502    0  0.51677719878E+01  0.32601672711E+02 -0.13275551322E+02  0.35578296668E+02  0.00000000000E+00 0. -1.
         -2    1    3    3    0  502 -0.51677719878E+01 -0.32601672711E+02  0.57169256982E+02  0.66014383847E+02  0.00000000000E+00 0.  1.
<mgrwt>
<rscale>  0 0.91621042E+02</rscale>
<asrwt>0</asrwt>
<pdfrwt beam="2">  1        2 0.44383827E-02 0.91621042E+02</pdfrwt>
<pdfrwt beam="1">  1       -2 0.11191260E-01 0.91621042E+02</pdfrwt>
<totfact> 0.86283518E+04</totfact>
</mgrwt>
</event>
<event>
 5    1  0.3957498E+001  0.1045411E+03  0.7546771E-02  0.1271026E+00
          1   -1    0    0  501    0  0.00000000000E+00  0.00000000000E+00  0.17852300378E+04  0.17852300378E+04  0.00000000000E+00 0. -1.
         -1   -1    0    0    0  501 -0.00000000000E+00 -0.00000000000E+00 -0.15304521009E+01  0.15304521009E+01  0.00000000000E+00 0.  1.
         23    2    1    2    0    0  0.00000000000E+00  0.00000000000E+00  0.17836995857E+04  0.17867604899E+04  0.10454107445E+03 0.  0.
          2    1    3    3  502    0  0.51669974065E+02  0.74170216179E+01  0.93837700336E+03  0.93982774957E+03  0.00000000000E+00 0. -1.
         -2    1    3    3    0  502 -0.51669974065E+02 -0.74170216179E+01  0.84532258237E+03  0.84693274036E+03  0.00000000000E+00 0.  1.
<mgrwt>
<rscale>  0 0.10454107E+03</rscale>
<asrwt>0</asrwt>
<pdfrwt beam="1">  1        1 0.27464911E+00 0.10454107E+03</pdfrwt>
<pdfrwt beam="2">  1       -1 0.23545560E-03 0.10454107E+03</pdfrwt>
<totfact> 0.64484774E+04</totfact>
</mgrwt>
</event>
<event>
 5    1  0.3957498E+001  0.9511901E+02  0.7546771E-02  0.1290908E+00
          2   -1    0    0  501    0  0.00000000000E+00  0.00000000000E+00  0.52303404447E+03  0.52303404447E+03  0.00000000000E+00 0.  1.
         -2   -1    0    0    0  501 -0.00000000000E+00 -0.00000000000E+00 -0.43245872268E+01  0.43245872268E+01  0.00000000000E+00 0. -1.
         23    2    1    2    0    0  0.00000000000E+00  0.00000000000E+00  0.51870945725E+03  0.52735863170E+03  0.95119006469E+02 0.  0.
          2    1    3    3  502    0 -0.45702484733E+02 -0.43045283759E+01  0.19040570205E+03  0.19586111776E+03  0.00000000000E+00 0. -1.
         -2    1    3    3    0  502  0.45702484733E+02  0.43045283759E+01  0.32830375520E+03  0.33149751394E+03  0.00000000000E+00 0.  1.
<mgrwt>
<rscale>  0 0.95119006E+02</rscale>
<asrwt>0</asrwt>
<pdfrwt beam="1">  1        2 0.80466726E-01 0.95119006E+02</pdfrwt>
<pdfrwt beam="2">  1       -2 0.66532153E-03 0.95119006E+02</pdfrwt>
<totfact> 0.19541666E+05</totfact>
</mgrwt>
</event>
<event>
 5    1  0.3957498E+001  0.9086789E+02  0.7546771E-02  0.1300763E+00
          1   -1    0    0  501    0  0.00000000000E+00  0.00000000000E+00  0.27428470334E+02  0.27428470334E+02  0.00000000000E+00 0. -1.
         -1   -1    0    0    0  501 -0.00000000000E+00 -0.00000000000E+00 -0.75259150359E+02  0.75259150359E+02  0.00000000000E+00 0.  1.
         23    2    1    2    0    0  0.00000000000E+00  0.00000000000E+00 -0.47830680026E+02  0.10268762069E+03  0.90867890324E+02 0.  0.
          2    1    3    3  502    0  0.11879729615E+02 -0.38539548253E+02 -0.26949934967E+00  0.40329857242E+02  0.00000000000E+00 0. -1.
         -2    1    3    3    0  502 -0.11879729615E+02  0.38539548253E+02 -0.47561180676E+02  0.62357763451E+02  0.00000000000E+00 0.  1.
<mgrwt>
<rscale>  0 0.90867890E+02</rscale>
<asrwt>0</asrwt>
<pdfrwt beam="1">  1        1 0.42197646E-02 0.90867890E+02</pdfrwt>
<pdfrwt beam="2">  1       -1 0.11578331E-01 0.90867890E+02</pdfrwt>
<totfact> 0.86264923E+04</totfact>
</mgrwt>
</event>
<event>
 5    1  0.3957498E+001  0.9186439E+02  0.7546771E-02  0.1298399E+00
         -2   -1    0    0    0  501 -0.00000000000E+00  0.00000000000E+00  0.87331384066E+00  0.87331384066E+00  0.00000000000E+00 0.  1.
          2   -1    0    0  501    0  0.00000000000E+00 -0.00000000000E+00 -0.24158172941E+04  0.24158172941E+04  0.00000000000E+00 0. -1.
         23    2    1    2    0    0  0.00000000000E+00  0.00000000000E+00 -0.24149439803E+04  0.24166906079E+04  0.91864393090E+02 0.  0.
          2    1    3    3  502    0  0.19446581222E+02 -0.40469536529E+02 -0.95266746196E+03  0.95372493203E+03  0.00000000000E+00 0.  1.
         -2    1    3    3    0  502 -0.19446581222E+02  0.40469536529E+02 -0.14622765183E+04  0.14629656759E+04  0.00000000000E+00 0. -1.
<mgrwt>
<rscale>  0 0.91864393E+02</rscale>
<asrwt>0</asrwt>
<pdfrwt beam="2">  1        2 0.37166045E+00 0.91864393E+02</pdfrwt>
<pdfrwt beam="1">  1       -2 0.13435733E-03 0.91864393E+02</pdfrwt>
<totfact> 0.15370193E+05</totfact>
</mgrwt>
</event>
<event>
 5    1  0.3957498E+001  0.9134031E+02  0.7546771E-02  0.1299638E+00
         -4   -1    0    0    0  501 -0.00000000000E+00  0.00000000000E+00  0.60113333624E+01  0.60113333624E+01  0.00000000000E+00 0.  1.
          4   -1    0    0  501    0  0.00000000000E+00 -0.00000000000E+00 -0.34697180660E+03  0.34697180660E+03  0.00000000000E+00 0. -1.
         23    2    1    2    0    0  0.00000000000E+00  0.00000000000E+00 -0.34096047324E+03  0.35298313996E+03  0.91340313046E+02 0.  0.
          2    1    3    3  502    0  0.20848226631E+02 -0.15933368203E+02 -0.31493349669E+03  0.31602472706E+03  0.00000000000E+00 0. -1.
         -2    1    3    3    0  502 -0.20848226631E+02  0.15933368203E+02 -0.26026976543E+02  0.36958412898E+02  0.00000000000E+00 0.  1.
<mgrwt>
<rscale>  0 0.91340313E+02</rscale>
<asrwt>0</asrwt>
<pdfrwt beam="2">  1        4 0.53380274E-01 0.91340313E+02</pdfrwt>
<pdfrwt beam="1">  1       -4 0.92482058E-03 0.91340313E+02</pdfrwt>
<totfact> 0.16240119E+04</totfact>
</mgrwt>
</event>
<event>
 5    1  0.3957498E+001  0.7838938E+02  0.7546771E-02  0.1333685E+00
          4   -1    0    0  501    0  0.00000000000E+00  0.00000000000E+00  0.47200048824E+02  0.47200048824E+02  0.00000000000E+00 0. -1.
         -4   -1    0    0    0  501 -0.00000000000E+00 -0.00000000000E+00 -0.32547081600E+02  0.32547081600E+02  0.00000000000E+00 0.  1.
         23    2    1    2    0    0  0.00000000000E+00  0.00000000000E+00  0.14652967224E+02  0.79747130423E+02  0.78389382969E+02 0.  0.
          2    1    3    3  502    0  0.14720913802E+02  0.36210072116E+02  0.10266032138E+02  0.40413686317E+02  0.00000000000E+00 0. -1.
         -2    1    3    3    0  502 -0.14720913802E+02 -0.36210072116E+02  0.43869350861E+01  0.39333444107E+02  0.00000000000E+00 0.  1.
<mgrwt>
<rscale>  0 0.78389383E+02</rscale>
<asrwt>0</asrwt>
<pdfrwt beam="1">  1        4 0.72615460E-02 0.78389383E+02</pdfrwt>
<pdfrwt beam="2">  1       -4 0.50072433E-02 0.78389383E+02</pdfrwt>
<totfact> 0.41696159E+04</totfact>
</mgrwt>
</event>
<event>
 5    1  0.3957498E+001  0.8972652E+02  0.7546771E-02  0.1303515E+00
         -1   -1    0    0    0  501 -0.00000000000E+00  0.00000000000E+00  0.30397020873E+01  0.30397020873E+01  0.00000000000E+00 0.  1.
          1   -1    0    0  501    0  0.00000000000E+00 -0.00000000000E+00 -0.66214121679E+03  0.66214121679E+03  0.00000000000E+00 0. -1.
         23    2    1    2    0    0  0.00000000000E+00  0.00000000000E+00 -0.65910151470E+03  0.66518091888E+03  0.89726518684E+02 0.  0.
          2    1    3    3  502    0 -0.16151985843E+02  0.27113002859E+02 -0.93167010379E+02  0.98367135740E+02  0.00000000000E+00 0.  1.
         -2    1    3    3    0  502  0.16151985843E+02 -0.27113002859E+02 -0.56593450432E+03  0.56681378314E+03  0.00000000000E+00 0. -1.
<mgrwt>
<rscale>  0 0.89726519E+02</rscale>
<asrwt>0</asrwt>
<pdfrwt beam="2">  1        1 0.10186793E+00 0.89726519E+02</pdfrwt>
<pdfrwt beam="1">  1       -1 0.46764623E-03 0.89726519E+02</pdfrwt>
<totfact> 0.14829296E+05</totfact>
</mgrwt>
</event>
<event>
 5    1  0.3957498E+001  0.9528111E+02  0.7546771E-02  0.1290544E+00
          2   -1    0    0  501    0  0.00000000000E+00  0.00000000000E+00  0.12372157503E+02  0.12372157503E+02  0.00000000000E+00 0. -1.
         -2   -1    0    0    0  501 -0.00000000000E+00 -0.00000000000E+00 -0.18344599259E+03  0.18344599259E+03  0.00000000000E+00 0.  1.
         23    2    1    2    0    0  0.00000000000E+00  0.00000000000E+00 -0.17107383508E+03  0.19581815009E+03  0.95281114887E+02 0.  0.
          2    1    3    3  502    0 -0.59646755174E+01 -0.41286179043E+02 -0.38245996252E+02  0.56594011727E+02  0.00000000000E+00 0.  1.
         -2    1    3    3    0  502  0.59646755174E+01  0.41286179043E+02 -0.13282783883E+03  0.13922413836E+03  0.00000000000E+00 0. -1.
<mgrwt>
<rscale>  0 0.95281115E+02</rscale>
<asrwt>0</asrwt>
<pdfrwt beam="1">  1        2 0.19034089E-02 0.95281115E+02</pdfrwt>
<pdfrwt beam="2">  1       -2 0.28222459E-01 0.95281115E+02</pdfrwt>
<totfact> 0.57765340E+04</totfact>
</mgrwt>
</event>
<event>
 5    1  0.3957498E+001  0.8875806E+02  0.7546771E-02  0.1305887E+00
          2   -1    0    0  501    0  0.00000000000E+00  0.00000000000E+00  0.54382022107E+03  0.54382022107E+03  0.00000000000E+00 0.  1.
         -2   -1    0    0    0  501 -0.00000000000E+00 -0.00000000000E+00 -0.36215982306E+01  0.36215982306E+01  0.00000000000E+00 0. -1.
         23    2    1    2    0    0  0.00000000000E+00  0.00000000000E+00  0.54019862284E+03  0.54744181930E+03  0.88758061051E+02 0.  0.
          2    1    3    3  502    0  0.73864204964E+01  0.39356162304E+02  0.15209728304E+03  0.15728016476E+03  0.00000000000E+00 0. -1.
         -2    1    3    3    0  502 -0.73864204964E+01 -0.39356162304E+02  0.38810133980E+03  0.39016165454E+03  0.00000000000E+00 0.  1.
<mgrwt>
<rscale>  0 0.88758061E+02</rscale>
<asrwt>0</asrwt>
<pdfrwt beam="1">  1        2 0.83664585E-01 0.88758061E+02</pdfrwt>
<pdfrwt beam="2">  1       -2 0.55716939E-03 0.88758061E+02</pdfrwt>
<totfact> 0.23758149E+05</totfact>
</mgrwt>
</event>
<event>
 5    1  0.3957498E+001  0.9268854E+02  0.7546771E-02  0.1296469E+00
         -2   -1    0    0    0  501 -0.00000000000E+00  0.00000000000E+00  0.21292874514E+01  0.21292874514E+01  0.00000000000E+00 0.  1.
          2   -1    0    0  501    0  0.00000000000E+00 -0.00000000000E+00 -0.10086902861E+04  0.10086902861E+04  0.00000000000E+00 0. -1.
         23    2    1    2    0    0  0.00000000000E+00  0.00000000000E+00 -0.10065609987E+04  0.10108195736E+04  0.92688544463E+02 0.  0.
          2    1    3    3  502    0  0.33028307144E+02  0.22869863780E+02 -0.75526522534E+03  0.75633290312E+03  0.00000000000E+00 0. -1.
         -2    1    3    3    0  502 -0.33028307144E+02 -0.22869863780E+02 -0.25129577336E+03  0.25448667047E+03  0.00000000000E+00 0.  1.
<mgrwt>
<rscale>  0 0.92688544E+02</rscale>
<asrwt>0</asrwt>
<pdfrwt beam="2">  1        2 0.15518326E+00 0.92688544E+02</pdfrwt>
<pdfrwt beam="1">  1       -2 0.32758240E-03 0.92688544E+02</pdfrwt>
<totfact> 0.23949516E+05</totfact>
</mgrwt>
</event>
<event>
 5    1  0.3957498E+001  0.9095325E+02  0.7546771E-02  0.1300560E+00
          1   -1    0    0  501    0  0.00000000000E+00  0.00000000000E+00  0.24388718070E+03  0.24388718070E+03  0.00000000000E+00 0. -1.
         -1   -1    0    0    0  501 -0.00000000000E+00 -0.00000000000E+00 -0.84798361731E+01  0.84798361731E+01  0.00000000000E+00 0.  1.
         23    2    1    2    0    0  0.00000000000E+00  0.00000000000E+00  0.23540734452E+03  0.25236701687E+03  0.90953248145E+02 0.  0.
          2    1    3    3  502    0  0.20331096575E+02  0.38855739735E+02  0.15111551178E+03  0.15734999174E+03  0.00000000000E+00 0. -1.
         -2    1    3    3    0  502 -0.20331096575E+02 -0.38855739735E+02  0.84291832739E+02  0.95017025131E+02  0.00000000000E+00 0.  1.
<mgrwt>
<rscale>  0 0.90953248E+02</rscale>
<asrwt>0</asrwt>
<pdfrwt beam="1">  1        1 0.37521099E-01 0.90953248E+02</pdfrwt>
<pdfrwt beam="2">  1       -1 0.13045904E-02 0.90953248E+02</pdfrwt>
<totfact> 0.12388521E+05</totfact>
</mgrwt>
</event>
<event>
 5    1  0.3957498E+001  0.8927628E+02  0.7546771E-02  0.1304614E+00
          2   -1    0    0  501    0  0.00000000000E+00  0.00000000000E+00  0.26750204695E+04  0.26750204695E+04  0.00000000000E+00 0. -1.
         -2   -1    0    0    0  501 -0.00000000000E+00 -0.00000000000E+00 -0.74487790849E+00  0.74487790849E+00  0.00000000000E+00 0.  1.
         23    2    1    2    0    0  0.00000000000E+00  0.00000000000E+00  0.26742755916E+04  0.26757653474E+04  0.89276282461E+02 0.  0.
          2    1    3    3  502    0 -0.10151234777E+01 -0.40057583548E+02  0.74758283221E+03  0.74865595002E+03  0.00000000000E+00 0. -1.
         -2    1    3    3    0  502  0.10151234777E+01  0.40057583548E+02  0.19266927594E+04  0.19271093974E+04  0.00000000000E+00 0.  1.
<mgrwt>
<rscale>  0 0.89276282E+02</rscale>
<asrwt>0</asrwt>
<pdfrwt beam="1">  1        2 0.41153392E+00 0.89276282E+02</pdfrwt>
<pdfrwt beam="2">  1       -2 0.11459874E-03 0.89276282E+02</pdfrwt>
<totfact> 0.13922853E+05</totfact>
</mgrwt>
</event>
<event>
 5    1  0.3957498E+001  0.9004150E+02  0.7546771E-02  0.1302751E+00
         -1   -1    0    0    0  501 -0.00000000000E+00  0.00000000000E+00  0.18379143298E+02  0.18379143298E+02  0.00000000000E+00 0.  1.
          1   -1    0    0  501    0  0.00000000000E+00 -0.00000000000E+00 -0.11028085896E+03  0.11028085896E+03  0.00000000000E+00 0. -1.
         23    2    1    2    0    0  0.00000000000E+00  0.00000000000E+00 -0.91901715665E+02  0.12866000226E+03  0.90041495099E+02 0.  0.
          2    1    3    3  502    0 -0.34948978329E+02  0.12643513627E+02 -0.96451188547E+01  0.38396846756E+02  0.00000000000E+00 0.  1.
         -2    1    3    3    0  502  0.34948978329E+02 -0.12643513627E+02 -0.82256596810E+02  0.90263155506E+02  0.00000000000E+00 0. -1.
<mgrwt>
<rscale>  0 0.90041495E+02</rscale>
<asrwt>0</asrwt>
<pdfrwt beam="2">  1        1 0.16966286E-01 0.90041495E+02</pdfrwt>
<pdfrwt beam="1">  1       -1 0.28275605E-02 0.90041495E+02</pdfrwt>
<totfact> 0.10985913E+05</totfact>
</mgrwt>
</event>
<event>
 5    1  0.3957498E+001  0.9323380E+02  0.7546771E-02  0.1295204E+00
         -2   -1    0    0    0  501 -0.00000000000E+00  0.00000000000E+00  0.16061182719E+01  0.16061182719E+01  0.00000000000E+00 0.  1.
          2   -1    0    0  501    0  0.00000000000E+00 -0.00000000000E+00 -0.13530357816E+04  0.13530357816E+04  0.00000000000E+00 0. -1.
         23    2    1    2    0    0  0.00000000000E+00  0.00000000000E+00 -0.13514296633E+04  0.13546418998E+04  0.93233802695E+02 0.  0.
          2    1    3    3  502    0  0.33484981571E+02  0.11496443830E+02 -0.11163505475E+04  0.11169117947E+04  0.00000000000E+00 0. -1.
         -2    1    3    3    0  502 -0.33484981571E+02 -0.11496443830E+02 -0.23507911578E+03  0.23773010514E+03  0.00000000000E+00 0.  1.
<mgrwt>
<rscale>  0 0.93233803E+02</rscale>
<asrwt>0</asrwt>
<pdfrwt beam="2">  1        2 0.20815915E+00 0.93233803E+02</pdfrwt>
<pdfrwt beam="1">  1       -2 0.24709536E-03 0.93233803E+02</pdfrwt>
<totfact> 0.22965720E+05</totfact>
</mgrwt>
</event>
<event>
 5    1  0.3957498E+001  0.9082823E+02  0.7546771E-02  0.1300858E+00
         -1   -1    0    0    0  501 -0.00000000000E+00  0.00000000000E+00  0.81204170786E+00  0.81204170786E+00  0.00000000000E+00 0.  1.
          1   -1    0    0  501    0  0.00000000000E+00 -0.00000000000E+00 -0.25398226257E+04  0.25398226257E+04  0.00000000000E+00 0. -1.
         23    2    1    2    0    0  0.00000000000E+00  0.00000000000E+00 -0.25390105840E+04  0.25406346674E+04  0.90828231352E+02 0.  0.
          2    1    3    3  502    0 -0.55840131289E+01 -0.43855285263E+02 -0.97884729669E+03  0.97984513954E+03  0.00000000000E+00 0. -1.
         -2    1    3    3    0  502  0.55840131289E+01  0.43855285263E+02 -0.15601632873E+04  0.15607895279E+04  0.00000000000E+00 0.  1.
<mgrwt>
<rscale>  0 0.90828231E+02</rscale>
<asrwt>0</asrwt>
<pdfrwt beam="2">  1        1 0.39074081E+00 0.90828231E+02</pdfrwt>
<pdfrwt beam="1">  1       -1 0.12492985E-03 0.90828231E+02</pdfrwt>
<totfact> 0.50905723E+04</totfact>
</mgrwt>
</event>
<event>
 5    1  0.3957498E+001  0.8374021E+02  0.7546771E-02  0.1318760E+00
         -2   -1    0    0    0  501 -0.00000000000E+00  0.00000000000E+00  0.71281106794E+01  0.71281106794E+01  0.00000000000E+00 0. -1.
          2   -1    0    0  501    0  0.00000000000E+00 -0.00000000000E+00 -0.24594256127E+03  0.24594256127E+03  0.00000000000E+00 0.  1.
         23    2    1    2    0    0  0.00000000000E+00  0.00000000000E+00 -0.23881445059E+03  0.25307067195E+03  0.83740212503E+02 0.  0.
          2    1    3    3  502    0  0.30825238068E+02 -0.51828372310E+01 -0.35218827256E+02  0.47089520034E+02  0.00000000000E+00 0. -1.
         -2    1    3    3    0  502 -0.30825238068E+02  0.51828372310E+01 -0.20359562333E+03  0.20598115192E+03  0.00000000000E+00 0.  1.
<mgrwt>
<rscale>  0 0.83740213E+02</rscale>
<asrwt>0</asrwt>
<pdfrwt beam="2">  1        2 0.37837317E-01 0.83740213E+02</pdfrwt>
<pdfrwt beam="1">  1       -2 0.10966324E-02 0.83740213E+02</pdfrwt>
<totfact> 0.20930573E+05</totfact>
</mgrwt>
</event>
<event>
 5    1  0.3957498E+001  0.9298106E+02  0.7546771E-02  0.1295789E+00
          2   -1    0    0  501    0  0.00000000000E+00  0.00000000000E+00  0.35940979859E+01  0.35940979859E+01  0.00000000000E+00 0. -1.
         -2   -1    0    0    0  501 -0.00000000000E+00 -0.00000000000E+00 -0.60136631732E+03  0.60136631732E+03  0.00000000000E+00 0.  1.
         23    2    1    2    0    0  0.00000000000E+00  0.00000000000E+00 -0.59777221933E+03  0.60496041530E+03  0.92981061939E+02 0.  0.
          2    1    3    3  502    0 -0.84890479023E+01  0.24550706379E+02 -0.48029875988E+02  0.54604671095E+02  0.00000000000E+00 0. -1.
         -2    1    3    3    0  502  0.84890479023E+01 -0.24550706379E+02 -0.54974234334E+03  0.55035574421E+03  0.00000000000E+00 0.  1.
<mgrwt>
<rscale>  0 0.92981062E+02</rscale>
<asrwt>0</asrwt>
<pdfrwt beam="1">  1        2 0.55293799E-03 0.92981062E+02</pdfrwt>
<pdfrwt beam="2">  1       -2 0.92517922E-01 0.92981062E+02</pdfrwt>
<totfact> 0.29653549E+04</totfact>
</mgrwt>
</event>
<event>
 5    1  0.3957498E+001  0.8888577E+02  0.7546771E-02  0.1305573E+00
         -2   -1    0    0    0  501 -0.00000000000E+00  0.00000000000E+00  0.33531644884E+02  0.33531644884E+02  0.00000000000E+00 0.  1.
          2   -1    0    0  501    0  0.00000000000E+00 -0.00000000000E+00 -0.58904657487E+02  0.58904657487E+02  0.00000000000E+00 0. -1.
         23    2    1    2    0    0  0.00000000000E+00  0.00000000000E+00 -0.25373012603E+02  0.92436302371E+02  0.88885770669E+02 0.  0.
          2    1    3    3  502    0  0.33133248095E+02 -0.63348854166E+01 -0.42777184425E+02  0.54477797403E+02  0.00000000000E+00 0. -1.
         -2    1    3    3    0  502 -0.33133248095E+02  0.63348854166E+01  0.17404171822E+02  0.37958504968E+02  0.00000000000E+00 0.  1.
<mgrwt>
<rscale>  0 0.88885771E+02</rscale>
<asrwt>0</asrwt>
<pdfrwt beam="2">  1        2 0.90622549E-02 0.88885771E+02</pdfrwt>
<pdfrwt beam="1">  1       -2 0.51587147E-02 0.88885771E+02</pdfrwt>
<totfact> 0.11338518E+05</totfact>
</mgrwt>
</event>
<event>
 5    1  0.3957498E+001  0.8389910E+02  0.7546771E-02  0.1318337E+00
          3   -1    0    0  501    0  0.00000000000E+00  0.00000000000E+00  0.63989858801E+01  0.63989858801E+01  0.00000000000E+00 0. -1.
         -3   -1    0    0    0  501 -0.00000000000E+00 -0.00000000000E+00 -0.27500684879E+03  0.27500684879E+03  0.00000000000E+00 0.  1.
         23    2    1    2    0    0  0.00000000000E+00  0.00000000000E+00 -0.26860786291E+03  0.28140583467E+03  0.83899104700E+02 0.  0.
          2    1    3    3  502    0 -0.31519738912E+02 -0.20377479096E+02 -0.19714556770E+03  0.20068659761E+03  0.00000000000E+00 0.  1.
         -2    1    3    3    0  502  0.31519738912E+02  0.20377479096E+02 -0.71462295213E+02  0.80719237066E+02  0.00000000000E+00 0. -1.
<mgrwt>
<rscale>  0 0.83899105E+02</rscale>
<asrwt>0</asrwt>
<pdfrwt beam="1">  1        3 0.98445942E-03 0.83899105E+02</pdfrwt>
<pdfrwt beam="2">  1       -3 0.42308744E-01 0.83899105E+02</pdfrwt>
<totfact> 0.30921776E+04</totfact>
</mgrwt>
</event>
<event>
 5    1  0.3957498E+001  0.9036927E+02  0.7546771E-02  0.1301960E+00
         -1   -1    0    0    0  501 -0.00000000000E+00  0.00000000000E+00  0.50216367641E+01  0.50216367641E+01  0.00000000000E+00 0.  1.
          1   -1    0    0  501    0  0.00000000000E+00 -0.00000000000E+00 -0.40657088232E+03  0.40657088232E+03  0.00000000000E+00 0. -1.
         23    2    1    2    0    0  0.00000000000E+00  0.00000000000E+00 -0.40154924556E+03  0.41159251908E+03  0.90369271102E+02 0.  0.
          2    1    3    3  502    0 -0.17780331336E+02  0.31858096215E+02 -0.32218365207E+03  0.32424278580E+03  0.00000000000E+00 0. -1.
         -2    1    3    3    0  502  0.17780331336E+02 -0.31858096215E+02 -0.79365593482E+02  0.87349733288E+02  0.00000000000E+00 0.  1.
<mgrwt>
<rscale>  0 0.90369271E+02</rscale>
<asrwt>0</asrwt>
<pdfrwt beam="2">  1        1 0.62549384E-01 0.90369271E+02</pdfrwt>
<pdfrwt beam="1">  1       -1 0.77255929E-03 0.90369271E+02</pdfrwt>
<totfact> 0.13847919E+05</totfact>
</mgrwt>
</event>
<event>
 5    1  0.3957498E+001  0.8134352E+02  0.7546771E-02  0.1325281E+00
         -1   -1    0    0    0  501 -0.00000000000E+00  0.00000000000E+00  0.86538614434E+02  0.86538614434E+02  0.00000000000E+00 0.  1.
          1   -1    0    0  501    0  0.00000000000E+00 -0.00000000000E+00 -0.19115072536E+02  0.19115072536E+02  0.00000000000E+00 0. -1.
         23    2    1    2    0    0  0.00000000000E+00  0.00000000000E+00  0.67423541897E+02  0.10565368697E+03  0.81343515835E+02 0.  0.
          2    1    3    3  502    0 -0.34388063049E+02 -0.15924648132E+02  0.52891758502E+02  0.65066669008E+02  0.00000000000E+00 0.  1.
         -2    1    3    3    0  502  0.34388063049E+02  0.15924648132E+02  0.14531783395E+02  0.40587017962E+02  0.00000000000E+00 0. -1.
<mgrwt>
<rscale>  0 0.81343516E+02</rscale>
<asrwt>0</asrwt>
<pdfrwt beam="2">  1        1 0.29407804E-02 0.81343516E+02</pdfrwt>
<pdfrwt beam="1">  1       -1 0.13313633E-01 0.81343516E+02</pdfrwt>
<totfact> 0.11184823E+05</totfact>
</mgrwt>
</event>
<event>
 5    1  0.3957498E+001  0.9039640E+02  0.7546771E-02  0.1301895E+00
         -2   -1    0    0    0  501 -0.00000000000E+00  0.00000000000E+00  0.68705339099E+02  0.68705339099E+02  0.00000000000E+00 0.  1.
          2   -1    0    0  501    0  0.00000000000E+00 -0.00000000000E+00 -0.29733892632E+02  0.29733892632E+02  0.00000000000E+00 0. -1.
         23    2    1    2    0    0  0.00000000000E+00  0.00000000000E+00  0.38971446467E+02  0.98439231731E+02  0.90396397628E+02 0.  0.
          2    1    3    3  502    0  0.33201200660E+02 -0.27317580235E+02  0.34665367938E+02  0.55229137685E+02  0.00000000000E+00 0.  1.
         -2    1    3    3    0  502 -0.33201200660E+02  0.27317580235E+02  0.43060785287E+01  0.43210094046E+02  0.00000000000E+00 0. -1.
<mgrwt>
<rscale>  0 0.90396398E+02</rscale>
<asrwt>0</asrwt>
<pdfrwt beam="2">  1        2 0.45744450E-02 0.90396398E+02</pdfrwt>
<pdfrwt beam="1">  1       -2 0.10570052E-01 0.90396398E+02</pdfrwt>
<totfact> 0.90534217E+04</totfact>
</mgrwt>
</event>
<event>
 5    1  0.3957498E+001  0.9239891E+02  0.7546771E-02  0.1297144E+00
         -2   -1    0    0    0  501 -0.00000000000E+00  0.00000000000E+00  0.13996334558E+02  0.13996334558E+02  0.00000000000E+00 0.  1.
          2   -1    0    0  501    0  0.00000000000E+00 -0.00000000000E+00 -0.15249632881E+03  0.15249632881E+03  0.00000000000E+00 0. -1.
         23    2    1    2    0    0  0.00000000000E+00  0.00000000000E+00 -0.13849999425E+03  0.16649266337E+03  0.92398909884E+02 0.  0.
          2    1    3    3  502    0 -0.42136870417E+02 -0.13537813371E+02 -0.93127683151E+02  0.10310942541E+03  0.00000000000E+00 0. -1.
         -2    1    3    3    0  502  0.42136870417E+02  0.13537813371E+02 -0.45372311099E+02  0.63383237957E+02  0.00000000000E+00 0.  1.
<mgrwt>
<rscale>  0 0.92398910E+02</rscale>
<asrwt>0</asrwt>
<pdfrwt beam="2">  1        2 0.23460975E-01 0.92398910E+02</pdfrwt>
<pdfrwt beam="1">  1       -2 0.21532821E-02 0.92398910E+02</pdfrwt>
<totfact> 0.13560235E+05</totfact>
</mgrwt>
</event>
<event>
 5    1  0.3957498E+001  0.9160965E+02  0.7546771E-02  0.1299000E+00
         -2   -1    0    0    0  501 -0.00000000000E+00  0.00000000000E+00  0.82586725515E+02  0.82586725515E+02  0.00000000000E+00 0.  1.
          2   -1    0    0  501    0  0.00000000000E+00 -0.00000000000E+00 -0.25404590995E+02  0.25404590995E+02  0.00000000000E+00 0. -1.
         23    2    1    2    0    0  0.00000000000E+00  0.00000000000E+00  0.57182134520E+02  0.10799131651E+03  0.91609649783E+02 0.  0.
          2    1    3    3  502    0  0.36649991475E+02  0.10253698469E+02 -0.14566389375E+01  0.38085194031E+02  0.00000000000E+00 0. -1.
         -2    1    3    3    0  502 -0.36649991475E+02 -0.10253698469E+02  0.58638773458E+02  0.69906122479E+02  0.00000000000E+00 0.  1.
<mgrwt>
<rscale>  0 0.91609650E+02</rscale>
<asrwt>0</asrwt>
<pdfrwt beam="2">  1        2 0.39083986E-02 0.91609650E+02</pdfrwt>
<pdfrwt beam="1">  1       -2 0.12705650E-01 0.91609650E+02</pdfrwt>
<totfact> 0.83352501E+04</totfact>
</mgrwt>
</event>
<event>
 5    1  0.3957498E+001  0.8869614E+02  0.7546771E-02  0.1306040E+00
         -2   -1    0    0    0  501 -0.00000000000E+00  0.00000000000E+00  0.18544807060E+01  0.18544807060E+01  0.00000000000E+00 0.  1.
          2   -1    0    0  501    0  0.00000000000E+00 -0.00000000000E+00 -0.10605402103E+04  0.10605402103E+04  0.00000000000E+00 0. -1.
         23    2    1    2    0    0  0.00000000000E+00  0.00000000000E+00 -0.10586857296E+04  0.10623946910E+04  0.88696141021E+02 0.  0.
          2    1    3    3  502    0 -0.95738158993E+01 -0.26589526004E+02 -0.93871607190E+03  0.93914137620E+03  0.00000000000E+00 0. -1.
         -2    1    3    3    0  502  0.95738158993E+01  0.26589526004E+02 -0.11996965771E+03  0.12325331482E+03  0.00000000000E+00 0.  1.
<mgrwt>
<rscale>  0 0.88696141E+02</rscale>
<asrwt>0</asrwt>
<pdfrwt beam="2">  1        2 0.16316026E+00 0.88696141E+02</pdfrwt>
<pdfrwt beam="1">  1       -2 0.28530433E-03 0.88696141E+02</pdfrwt>
<totfact> 0.26916291E+05</totfact>
</mgrwt>
</event>
<event>
 5    1  0.3957498E+001  0.9192307E+02  0.7546771E-02  0.1298260E+00
         -4   -1    0    0    0  501 -0.00000000000E+00  0.00000000000E+00  0.90239934970E+02  0.90239934970E+02  0.00000000000E+00 0. -1.
          4   -1    0    0  501    0  0.00000000000E+00 -0.00000000000E+00 -0.23409399687E+02  0.23409399687E+02  0.00000000000E+00 0.  1.
         23    2    1    2    0    0  0.00000000000E+00  0.00000000000E+00  0.66830535282E+02  0.11364933466E+03  0.91923070129E+02 0.  0.
          2    1    3    3  502    0  0.11047218498E+02 -0.44579660184E+02  0.31247039575E+02  0.55549659052E+02  0.00000000000E+00 0.  1.
         -2    1    3    3    0  502 -0.11047218498E+02  0.44579660184E+02  0.35583495707E+02  0.58099675605E+02  0.00000000000E+00 0. -1.
<mgrwt>
<rscale>  0 0.91923070E+02</rscale>
<asrwt>0</asrwt>
<pdfrwt beam="2">  1        4 0.36014462E-02 0.91923070E+02</pdfrwt>
<pdfrwt beam="1">  1       -4 0.13883067E-01 0.91923070E+02</pdfrwt>
<totfact> 0.25077697E+04</totfact>
</mgrwt>
</event>
<event>
 5    1  0.3957498E+001  0.9159116E+02  0.7546771E-02  0.1299044E+00
          2   -1    0    0  501    0  0.00000000000E+00  0.00000000000E+00  0.40111464675E+01  0.40111464675E+01  0.00000000000E+00 0. -1.
         -2   -1    0    0    0  501 -0.00000000000E+00 -0.00000000000E+00 -0.52285178608E+03  0.52285178608E+03  0.00000000000E+00 0.  1.
         23    2    1    2    0    0  0.00000000000E+00  0.00000000000E+00 -0.51884063961E+03  0.52686293255E+03  0.91591158848E+02 0.  0.
          2    1    3    3  502    0 -0.30768882021E+01  0.45580963386E+02 -0.24109967302E+03  0.24538977932E+03  0.00000000000E+00 0. -1.
         -2    1    3    3    0  502  0.30768882021E+01 -0.45580963386E+02 -0.27774096660E+03  0.28147315323E+03  0.00000000000E+00 0.  1.
<mgrwt>
<rscale>  0 0.91591159E+02</rscale>
<asrwt>0</asrwt>
<pdfrwt beam="1">  1        2 0.61709978E-03 0.91591159E+02</pdfrwt>
<pdfrwt beam="2">  1       -2 0.80438694E-01 0.91591159E+02</pdfrwt>
<totfact> 0.34638218E+04</totfact>
</mgrwt>
</event>
<event>
 5    1  0.3957498E+001  0.7927601E+02  0.7546771E-02  0.1331119E+00
         -1   -1    0    0    0  501 -0.00000000000E+00  0.00000000000E+00  0.11826650857E+02  0.11826650857E+02  0.00000000000E+00 0.  1.
          1   -1    0    0  501    0  0.00000000000E+00 -0.00000000000E+00 -0.13285008014E+03  0.13285008014E+03  0.00000000000E+00 0. -1.
         23    2    1    2    0    0  0.00000000000E+00  0.00000000000E+00 -0.12102342928E+03  0.14467673100E+03  0.79276011861E+02 0.  0.
          2    1    3    3  502    0 -0.34638503450E+02 -0.11610579403E+02 -0.88579569699E+02  0.95817386957E+02  0.00000000000E+00 0. -1.
         -2    1    3    3    0  502  0.34638503450E+02  0.11610579403E+02 -0.32443859586E+02  0.48859344041E+02  0.00000000000E+00 0.  1.
<mgrwt>
<rscale>  0 0.79276012E+02</rscale>
<asrwt>0</asrwt>
<pdfrwt beam="2">  1        1 0.20438474E-01 0.79276012E+02</pdfrwt>
<pdfrwt beam="1">  1       -1 0.18194847E-02 0.79276012E+02</pdfrwt>
<totfact> 0.15960555E+05</totfact>
</mgrwt>
</event>
<event>
 5    1  0.3957498E+001  0.9051986E+02  0.7546771E-02  0.1301598E+00
          1   -1    0    0  501    0  0.00000000000E+00  0.00000000000E+00  0.70959412957E+03  0.70959412957E+03  0.00000000000E+00 0. -1.
         -1   -1    0    0    0  501 -0.00000000000E+00 -0.00000000000E+00 -0.28868066731E+01  0.28868066731E+01  0.00000000000E+00 0.  1.
         23    2    1    2    0    0  0.00000000000E+00  0.00000000000E+00  0.70670732289E+03  0.71248093624E+03  0.90519855688E+02 0.  0.
          2    1    3    3  502    0 -0.43998411599E+02  0.99057750688E+01  0.32340615514E+03  0.32653564245E+03  0.00000000000E+00 0. -1.
         -2    1    3    3    0  502  0.43998411599E+02 -0.99057750688E+01  0.38330116775E+03  0.38594529379E+03  0.00000000000E+00 0.  1.
<mgrwt>
<rscale>  0 0.90519856E+02</rscale>
<asrwt>0</asrwt>
<pdfrwt beam="1">  1        1 0.10916819E+00 0.90519856E+02</pdfrwt>
<pdfrwt beam="2">  1       -1 0.44412467E-03 0.90519856E+02</pdfrwt>
<totfact> 0.14489443E+05</totfact>
</mgrwt>
</event>
<event>
 5    1  0.3957498E+001  0.8880499E+02  0.7546771E-02  0.1305772E+00
          1   -1    0    0  501    0  0.00000000000E+00  0.00000000000E+00  0.12712077348E+04  0.12712077348E+04  0.00000000000E+00 0. -1.
         -1   -1    0    0    0  501 -0.00000000000E+00 -0.00000000000E+00 -0.15509516218E+01  0.15509516218E+01  0.00000000000E+00 0.  1.
         23    2    1    2    0    0  0.00000000000E+00  0.00000000000E+00  0.12696567832E+04  0.12727586864E+04  0.88804993056E+02 0.  0.
          2    1    3    3  502    0 -0.21609964691E+02  0.36055719755E+02  0.42983671124E+03  0.43188725825E+03  0.00000000000E+00 0. -1.
         -2    1    3    3    0  502  0.21609964691E+02 -0.36055719755E+02  0.83982007193E+03  0.84087142817E+03  0.00000000000E+00 0.  1.
<mgrwt>
<rscale>  0 0.88804993E+02</rscale>
<asrwt>0</asrwt>
<pdfrwt beam="1">  1        1 0.19556959E+00 0.88804993E+02</pdfrwt>
<pdfrwt beam="2">  1       -1 0.23860896E-03 0.88804993E+02</pdfrwt>
<totfact> 0.13254065E+05</totfact>
</mgrwt>
</event>
<event>
 5    1  0.3957498E+001  0.9358259E+02  0.7546771E-02  0.1294401E+00
         -1   -1    0    0    0  501 -0.00000000000E+00  0.00000000000E+00  0.13087369416E+02  0.13087369416E+02  0.00000000000E+00 0.  1.
          1   -1    0    0  501    0  0.00000000000E+00 -0.00000000000E+00 -0.16729299964E+03  0.16729299964E+03  0.00000000000E+00 0. -1.
         23    2    1    2    0    0  0.00000000000E+00  0.00000000000E+00 -0.15420563022E+03  0.18038036906E+03  0.93582589983E+02 0.  0.
          2    1    3    3  502    0 -0.13868659718E+02 -0.44584555925E+02 -0.71223804236E+02  0.85164268559E+02  0.00000000000E+00 0. -1.
         -2    1    3    3    0  502  0.13868659718E+02  0.44584555925E+02 -0.82981825989E+02  0.95216100497E+02  0.00000000000E+00 0.  1.
<mgrwt>
<rscale>  0 0.93582590E+02</rscale>
<asrwt>0</asrwt>
<pdfrwt beam="2">  1        1 0.25737383E-01 0.93582590E+02</pdfrwt>
<pdfrwt beam="1">  1       -1 0.20134415E-02 0.93582590E+02</pdfrwt>
<totfact> 0.10666731E+05</totfact>
</mgrwt>
</event>
<event>
 5    1  0.3957498E+001  0.9069692E+02  0.7546771E-02  0.1301173E+00
          1   -1    0    0  501    0  0.00000000000E+00  0.00000000000E+00  0.26257054019E+03  0.26257054019E+03  0.00000000000E+00 0. -1.
         -1   -1    0    0    0  501 -0.00000000000E+00 -0.00000000000E+00 -0.78321163427E+01  0.78321163427E+01  0.00000000000E+00 0.  1.
         23    2    1    2    0    0  0.00000000000E+00  0.00000000000E+00  0.25473842384E+03  0.27040265653E+03  0.90696924290E+02 0.  0.
          2    1    3    3  502    0 -0.10014207271E+02  0.39821570215E+02  0.18475152435E+03  0.18925952433E+03  0.00000000000E+00 0. -1.
         -2    1    3    3    0  502  0.10014207271E+02 -0.39821570215E+02  0.69986899496E+02  0.81143132197E+02  0.00000000000E+00 0.  1.
<mgrwt>
<rscale>  0 0.90696924E+02</rscale>
<asrwt>0</asrwt>
<pdfrwt beam="1">  1        1 0.40395461E-01 0.90696924E+02</pdfrwt>
<pdfrwt beam="2">  1       -1 0.12049412E-02 0.90696924E+02</pdfrwt>
<totfact> 0.12663048E+05</totfact>
</mgrwt>
</event>
<event>
 5    1  0.3957498E+001  0.8463886E+02  0.7546771E-02  0.1316380E+00
         -1   -1    0    0    0  501 -0.00000000000E+00  0.00000000000E+00  0.16870162205E+02  0.16870162205E+02  0.00000000000E+00 0.  1.
          1   -1    0    0  501    0  0.00000000000E+00 -0.00000000000E+00 -0.10615986553E+03  0.10615986553E+03  0.00000000000E+00 0. -1.
         23    2    1    2    0    0  0.00000000000E+00  0.00000000000E+00 -0.89289703327E+02  0.12303002774E+03  0.84638859897E+02 0.  0.
          2    1    3    3  502    0  0.16388089848E+02  0.24975221498E+02 -0.10710710091E+01  0.29891108558E+02  0.00000000000E+00 0.  1.
         -2    1    3    3    0  502 -0.16388089848E+02 -0.24975221498E+02 -0.88218632318E+02  0.93138919178E+02  0.00000000000E+00 0. -1.
<mgrwt>
<rscale>  0 0.84638860E+02</rscale>
<asrwt>0</asrwt>
<pdfrwt beam="2">  1        1 0.16332287E-01 0.84638860E+02</pdfrwt>
<pdfrwt beam="1">  1       -1 0.25954096E-02 0.84638860E+02</pdfrwt>
<totfact> 0.12903839E+05</totfact>
</mgrwt>
</event>
<event>
 5    1  0.3957498E+001  0.9209404E+02  0.7546771E-02  0.1297858E+00
         -1   -1    0    0    0  501 -0.00000000000E+00  0.00000000000E+00  0.27881676201E+02  0.27881676201E+02  0.00000000000E+00 0.  1.
          1   -1    0    0  501    0  0.00000000000E+00 -0.00000000000E+00 -0.76047372616E+02  0.76047372616E+02  0.00000000000E+00 0. -1.
         23    2    1    2    0    0  0.00000000000E+00  0.00000000000E+00 -0.48165696415E+02  0.10392904882E+03  0.92094043656E+02 0.  0.
          2    1    3    3  502    0  0.17847084229E+02 -0.20980001637E+02 -0.65725468537E+02  0.71263708146E+02  0.00000000000E+00 0. -1.
         -2    1    3    3    0  502 -0.17847084229E+02  0.20980001637E+02  0.17559772123E+02  0.32665340672E+02  0.00000000000E+00 0.  1.
<mgrwt>
<rscale>  0 0.92094044E+02</rscale>
<asrwt>0</asrwt>
<pdfrwt beam="2">  1        1 0.11699596E-01 0.92094044E+02</pdfrwt>
<pdfrwt beam="1">  1       -1 0.42894887E-02 0.92094044E+02</pdfrwt>
<totfact> 0.97227811E+04</totfact>
</mgrwt>
</event>
<event>
 5    1  0.3957498E+001  0.9198833E+02  0.7546771E-02  0.1298107E+00
          2   -1    0    0  501    0  0.00000000000E+00  0.00000000000E+00  0.59899418128E+03  0.59899418128E+03  0.00000000000E+00 0. -1.
         -2   -1    0    0    0  501 -0.00000000000E+00 -0.00000000000E+00 -0.35316921055E+01  0.35316921055E+01  0.00000000000E+00 0.  1.
         23    2    1    2    0    0  0.00000000000E+00  0.00000000000E+00  0.59546248917E+03  0.60252587338E+03  0.91988325808E+02 0.  0.
          2    1    3    3  502    0  0.44422959259E+02 -0.11123531297E+02  0.32577481218E+03  0.32897775078E+03  0.00000000000E+00 0. -1.
         -2    1    3    3    0  502 -0.44422959259E+02  0.11123531297E+02  0.26968767699E+03  0.27354812260E+03  0.00000000000E+00 0.  1.
<mgrwt>
<rscale>  0 0.91988326E+02</rscale>
<asrwt>0</asrwt>
<pdfrwt beam="1">  1        2 0.92152870E-01 0.91988326E+02</pdfrwt>
<pdfrwt beam="2">  1       -2 0.54333772E-03 0.91988326E+02</pdfrwt>
<totfact> 0.22246895E+05</totfact>
</mgrwt>
</event>
<event>
 5    1  0.3957498E+001  0.9029046E+02  0.7546771E-02  0.1302150E+00
         -2   -1    0    0    0  501 -0.00000000000E+00  0.00000000000E+00  0.46959259003E+01  0.46959259003E+01  0.00000000000E+00 0.  1.
          2   -1    0    0  501    0  0.00000000000E+00 -0.00000000000E+00 -0.43401279963E+03  0.43401279963E+03  0.00000000000E+00 0. -1.
         23    2    1    2    0    0  0.00000000000E+00  0.00000000000E+00 -0.42931687373E+03  0.43870872553E+03  0.90290463435E+02 0.  0.
          2    1    3    3  502    0 -0.16853683971E+02 -0.11470535340E+02 -0.41037293978E+03  0.41087902058E+03  0.00000000000E+00 0. -1.
         -2    1    3    3    0  502  0.16853683971E+02  0.11470535340E+02 -0.18943933946E+02  0.27829704953E+02  0.00000000000E+00 0.  1.
<mgrwt>
<rscale>  0 0.90290463E+02</rscale>
<asrwt>0</asrwt>
<pdfrwt beam="2">  1        2 0.66771229E-01 0.90290463E+02</pdfrwt>
<pdfrwt beam="1">  1       -2 0.72244982E-03 0.90290463E+02</pdfrwt>
<totfact> 0.21084450E+05</totfact>
</mgrwt>
</event>
<event>
 5    1  0.3957498E+001  0.8897002E+02  0.7546771E-02  0.1305365E+00
         -2   -1    0    0    0  501 -0.00000000000E+00  0.00000000000E+00  0.14343479469E+02  0.14343479469E+02  0.00000000000E+00 0.  1.
          2   -1    0    0  501    0  0.00000000000E+00 -0.00000000000E+00 -0.13796626686E+03  0.13796626686E+03  0.00000000000E+00 0. -1.
         23    2    1    2    0    0  0.00000000000E+00  0.00000000000E+00 -0.12362278739E+03  0.15230974633E+03  0.88970024529E+02 0.  0.
          2    1    3    3  502    0 -0.31643422279E+01 -0.21561638303E+02  0.45793845296E+01  0.22268544423E+02  0.00000000000E+00 0.  1.
         -2    1    3    3    0  502  0.31643422279E+01  0.21561638303E+02 -0.12820217192E+03  0.13004120191E+03  0.00000000000E+00 0. -1.
<mgrwt>
<rscale>  0 0.88970025E+02</rscale>
<asrwt>0</asrwt>
<pdfrwt beam="2">  1        2 0.21225579E-01 0.88970025E+02</pdfrwt>
<pdfrwt beam="1">  1       -2 0.22066892E-02 0.88970025E+02</pdfrwt>
<totfact> 0.14527688E+05</totfact>
</mgrwt>
</event>
<event>
 5    1  0.3957498E+001  0.9346958E+02  0.7546771E-02  0.1294661E+00
         -1   -1    0    0    0  501 -0.00000000000E+00  0.00000000000E+00  0.32637198065E+02  0.32637198065E+02  0.00000000000E+00 0.  1.
          1   -1    0    0  501    0  0.00000000000E+00 -0.00000000000E+00 -0.66921814132E+02  0.66921814132E+02  0.00000000000E+00 0. -1.
         23    2    1    2    0    0  0.00000000000E+00  0.00000000000E+00 -0.34284616067E+02  0.99559012197E+02  0.93469577997E+02 0.  0.
          2    1    3    3  502    0  0.16738893885E+02  0.16876267182E+02  0.25717745052E+02  0.35020013892E+02  0.00000000000E+00 0.  1.
         -2    1    3    3    0  502 -0.16738893885E+02 -0.16876267182E+02 -0.60002361118E+02  0.64538998305E+02  0.00000000000E+00 0. -1.
<mgrwt>
<rscale>  0 0.93469578E+02</rscale>
<asrwt>0</asrwt>
<pdfrwt beam="2">  1        1 0.10295664E-01 0.93469578E+02</pdfrwt>
<pdfrwt beam="1">  1       -1 0.50211075E-02 0.93469578E+02</pdfrwt>
<totfact> 0.91472784E+04</totfact>
</mgrwt>
</event>
<event>
 5    1  0.3957498E+001  0.9150004E+02  0.7546771E-02  0.1299259E+00
          2   -1    0    0  501    0  0.00000000000E+00  0.00000000000E+00  0.99648130128E+02  0.99648130128E+02  0.00000000000E+00 0. -1.
         -2   -1    0    0    0  501 -0.00000000000E+00 -0.00000000000E+00 -0.21004552305E+02  0.21004552305E+02  0.00000000000E+00 0.  1.
         23    2    1    2    0    0  0.00000000000E+00  0.00000000000E+00  0.78643577823E+02  0.12065268243E+03  0.91500040685E+02 0.  0.
          2    1    3    3  502    0  0.15546273773E+02 -0.33633359701E+02  0.39355284655E+01  0.37260943323E+02  0.00000000000E+00 0.  1.
         -2    1    3    3    0  502 -0.15546273773E+02  0.33633359701E+02  0.74708049358E+02  0.83391739110E+02  0.00000000000E+00 0. -1.
<mgrwt>
<rscale>  0 0.91500041E+02</rscale>
<asrwt>0</asrwt>
<pdfrwt beam="1">  1        2 0.15330481E-01 0.91500041E+02</pdfrwt>
<pdfrwt beam="2">  1       -2 0.32314697E-02 0.91500041E+02</pdfrwt>
<totfact> 0.12135509E+05</totfact>
</mgrwt>
</event>
<event>
 5    1  0.3957498E+001  0.9188912E+02  0.7546771E-02  0.1298340E+00
         -2   -1    0    0    0  501 -0.00000000000E+00  0.00000000000E+00  0.98788223098E+01  0.98788223098E+01  0.00000000000E+00 0.  1.
          2   -1    0    0  501    0  0.00000000000E+00 -0.00000000000E+00 -0.21367958817E+03  0.21367958817E+03  0.00000000000E+00 0. -1.
         23    2    1    2    0    0  0.00000000000E+00  0.00000000000E+00 -0.20380076586E+03  0.22355841048E+03  0.91889121940E+02 0.  0.
          2    1    3    3  502    0  0.19086750694E+02 -0.31814488631E+02 -0.16783358514E+03  0.17188536308E+03  0.00000000000E+00 0. -1.
         -2    1    3    3    0  502 -0.19086750694E+02  0.31814488631E+02 -0.35967180718E+02  0.51673047401E+02  0.00000000000E+00 0.  1.
<mgrwt>
<rscale>  0 0.91889122E+02</rscale>
<asrwt>0</asrwt>
<pdfrwt beam="2">  1        2 0.32873779E-01 0.91889122E+02</pdfrwt>
<pdfrwt beam="1">  1       -2 0.15198190E-02 0.91889122E+02</pdfrwt>
<totfact> 0.15515906E+05</totfact>
</mgrwt>
</event>
<event>
 5    1  0.3957498E+001  0.9149881E+02  0.7546771E-02  0.1299262E+00
          2   -1    0    0  501    0  0.00000000000E+00  0.00000000000E+00  0.15231365962E+03  0.15231365962E+03  0.00000000000E+00 0. -1.
         -2   -1    0    0    0  501 -0.00000000000E+00 -0.00000000000E+00 -0.13741432439E+02  0.13741432439E+02  0.00000000000E+00 0.  1.
         23    2    1    2    0    0  0.00000000000E+00  0.00000000000E+00  0.13857222718E+03  0.16605509206E+03  0.91498805747E+02 0.  0.
          2    1    3    3  502    0 -0.16533451594E+02 -0.11641520635E+02  0.14376347800E+03  0.14517857153E+03  0.00000000000E+00 0. -1.
         -2    1    3    3    0  502  0.16533451594E+02  0.11641520635E+02 -0.51912508214E+01  0.20876520529E+02  0.00000000000E+00 0.  1.
<mgrwt>
<rscale>  0 0.91498806E+02</rscale>
<asrwt>0</asrwt>
<pdfrwt beam="1">  1        2 0.23432870E-01 0.91498806E+02</pdfrwt>
<pdfrwt beam="2">  1       -2 0.21140666E-02 0.91498806E+02</pdfrwt>
<totfact> 0.13920177E+05</totfact>
</mgrwt>
</event>
<event>
 5    1  0.3957498E+001  0.8954380E+02  0.7546771E-02  0.1303960E+00
         -2   -1    0    0    0  501 -0.00000000000E+00  0.00000000000E+00  0.24303024079E+03  0.24303024079E+03  0.00000000000E+00 0.  1.
          2   -1    0    0  501    0  0.00000000000E+00 -0.00000000000E+00 -0.82480394768E+01  0.82480394768E+01  0.00000000000E+00 0. -1.
         23    2    1    2    0    0  0.00000000000E+00  0.00000000000E+00  0.23478220132E+03  0.25127828027E+03  0.89543799788E+02 0.  0.
          2    1    3    3  502    0  0.12121382165E+01  0.21950859545E+02  0.79414152120E+01  0.23374678380E+02  0.00000000000E+00 0. -1.
         -2    1    3    3    0  502 -0.12121382165E+01 -0.21950859545E+02  0.22684078610E+03  0.22790360189E+03  0.00000000000E+00 0.  1.
<mgrwt>
<rscale>  0 0.89543800E+02</rscale>
<asrwt>0</asrwt>
<pdfrwt beam="2">  1        2 0.12689293E-02 0.89543800E+02</pdfrwt>
<pdfrwt beam="1">  1       -2 0.37389262E-01 0.89543800E+02</pdfrwt>
<totfact> 0.59668292E+04</totfact>
</mgrwt>
</event>
<event>
 5    1  0.3957498E+001  0.9457212E+02  0.7546771E-02  0.1292143E+00
         -1   -1    0    0    0  501 -0.00000000000E+00  0.00000000000E+00  0.26886683310E+01  0.26886683310E+01  0.00000000000E+00 0.  1.
          1   -1    0    0  501    0  0.00000000000E+00 -0.00000000000E+00 -0.83162781644E+03  0.83162781644E+03  0.00000000000E+00 0. -1.
         23    2    1    2    0    0  0.00000000000E+00  0.00000000000E+00 -0.82893914811E+03  0.83431648477E+03  0.94572117946E+02 0.  0.
          2    1    3    3  502    0 -0.34752474315E+02 -0.26829857391E+02 -0.56939469165E+03  0.57108483661E+03  0.00000000000E+00 0. -1.
         -2    1    3    3    0  502  0.34752474315E+02  0.26829857391E+02 -0.25954445645E+03  0.26323164816E+03  0.00000000000E+00 0.  1.
<mgrwt>
<rscale>  0 0.94572118E+02</rscale>
<asrwt>0</asrwt>
<pdfrwt beam="2">  1        1 0.12794273E+00 0.94572118E+02</pdfrwt>
<pdfrwt beam="1">  1       -1 0.41364133E-03 0.94572118E+02</pdfrwt>
<totfact> 0.12776095E+05</totfact>
</mgrwt>
</event>
<event>
 5    1  0.3957498E+001  0.9147628E+02  0.7546771E-02  0.1299316E+00
          1   -1    0    0  501    0  0.00000000000E+00  0.00000000000E+00  0.15786272193E+04  0.15786272193E+04  0.00000000000E+00 0. -1.
         -1   -1    0    0    0  501 -0.00000000000E+00 -0.00000000000E+00 -0.13251877127E+01  0.13251877127E+01  0.00000000000E+00 0.  1.
         23    2    1    2    0    0  0.00000000000E+00  0.00000000000E+00  0.15773020316E+04  0.15799524070E+04  0.91476278761E+02 0.  0.
          2    1    3    3  502    0  0.10478675472E+02 -0.19290045294E+02  0.14816901314E+04  0.14818527437E+04  0.00000000000E+00 0. -1.
         -2    1    3    3    0  502 -0.10478675472E+02  0.19290045294E+02  0.95611900198E+02  0.98099663336E+02  0.00000000000E+00 0.  1.
<mgrwt>
<rscale>  0 0.91476279E+02</rscale>
<asrwt>0</asrwt>
<pdfrwt beam="1">  1        1 0.24286422E+00 0.91476279E+02</pdfrwt>
<pdfrwt beam="2">  1       -1 0.20387630E-03 0.91476279E+02</pdfrwt>
<totfact> 0.10480507E+05</totfact>
</mgrwt>
</event>
<event>
 5    1  0.3957498E+001  0.9169084E+02  0.7546771E-02  0.1298808E+00
          3   -1    0    0  501    0  0.00000000000E+00  0.00000000000E+00  0.86326917405E+03  0.86326917405E+03  0.00000000000E+00 0. -1.
         -3   -1    0    0    0  501 -0.00000000000E+00 -0.00000000000E+00 -0.24347015064E+01  0.24347015064E+01  0.00000000000E+00 0.  1.
         23    2    1    2    0    0  0.00000000000E+00  0.00000000000E+00  0.86083447254E+03  0.86570387556E+03  0.91690844876E+02 0.  0.
          2    1    3    3  502    0 -0.31028512420E+02 -0.25277992803E+02  0.64154884346E+03  0.64279597389E+03  0.00000000000E+00 0. -1.
         -2    1    3    3    0  502  0.31028512420E+02  0.25277992803E+02  0.21928562908E+03  0.22290790167E+03  0.00000000000E+00 0.  1.
<mgrwt>
<rscale>  0 0.91690845E+02</rscale>
<asrwt>0</asrwt>
<pdfrwt beam="1">  1        3 0.13281040E+00 0.91690845E+02</pdfrwt>
<pdfrwt beam="2">  1       -3 0.37457015E-03 0.91690845E+02</pdfrwt>
<totfact> 0.11373163E+04</totfact>
</mgrwt>
</event>
<event>
 5    1  0.3957498E+001  0.9127566E+02  0.7546771E-02  0.1299792E+00
         -1   -1    0    0    0  501 -0.00000000000E+00  0.00000000000E+00  0.18148177810E+01  0.18148177810E+01  0.00000000000E+00 0.  1.
          1   -1    0    0  501    0  0.00000000000E+00 -0.00000000000E+00 -0.11476696804E+04  0.11476696804E+04  0.00000000000E+00 0. -1.
         23    2    1    2    0    0  0.00000000000E+00  0.00000000000E+00 -0.11458548627E+04  0.11494844982E+04  0.91275655961E+02 0.  0.
          2    1    3    3  502    0 -0.10862058464E+02 -0.28833388456E+02 -0.99691368863E+03  0.99738971880E+03  0.00000000000E+00 0. -1.
         -2    1    3    3    0  502  0.10862058464E+02  0.28833388456E+02 -0.14894117403E+03  0.15209477942E+03  0.00000000000E+00 0.  1.
<mgrwt>
<rscale>  0 0.91275656E+02</rscale>
<asrwt>0</asrwt>
<pdfrwt beam="2">  1        1 0.17656458E+00 0.91275656E+02</pdfrwt>
<pdfrwt beam="1">  1       -1 0.27920272E-03 0.91275656E+02</pdfrwt>
<totfact> 0.12946529E+05</totfact>
</mgrwt>
</event>
<event>
 5    1  0.3957498E+001  0.9162093E+02  0.7546771E-02  0.1298973E+00
         -3   -1    0    0    0  501 -0.00000000000E+00  0.00000000000E+00  0.33020414383E+02  0.33020414383E+02  0.00000000000E+00 0.  1.
          3   -1    0    0  501    0  0.00000000000E+00 -0.00000000000E+00 -0.63554578680E+02  0.63554578680E+02  0.00000000000E+00 0. -1.
         23    2    1    2    0    0  0.00000000000E+00  0.00000000000E+00 -0.30534164298E+02  0.96574993063E+02  0.91620926080E+02 0.  0.
          2    1    3    3  502    0 -0.61822640560E-01 -0.38974475382E+02 -0.40643397696E+02  0.56310739025E+02  0.00000000000E+00 0. -1.
         -2    1    3    3    0  502  0.61822640560E-01  0.38974475382E+02  0.10109233398E+02  0.40264254038E+02  0.00000000000E+00 0.  1.
<mgrwt>
<rscale>  0 0.91620926E+02</rscale>
<asrwt>0</asrwt>
<pdfrwt beam="2">  1        3 0.97776275E-02 0.91620926E+02</pdfrwt>
<pdfrwt beam="1">  1       -3 0.50800638E-02 0.91620926E+02</pdfrwt>
<totfact> 0.34467165E+04</totfact>
</mgrwt>
</event>
<event>
 5    1  0.3957498E+001  0.9292594E+02  0.7546771E-02  0.1295917E+00
          1   -1    0    0  501    0  0.00000000000E+00  0.00000000000E+00  0.42594399685E+03  0.42594399685E+03  0.00000000000E+00 0. -1.
         -1   -1    0    0    0  501 -0.00000000000E+00 -0.00000000000E+00 -0.50682893783E+01  0.50682893783E+01  0.00000000000E+00 0.  1.
         23    2    1    2    0    0  0.00000000000E+00  0.00000000000E+00  0.42087570747E+03  0.43101228622E+03  0.92925936852E+02 0.  0.
          2    1    3    3  502    0 -0.35044430832E+02  0.26992494118E+02  0.27637595915E+03  0.27989351130E+03  0.00000000000E+00 0. -1.
         -2    1    3    3    0  502  0.35044430832E+02 -0.26992494118E+02  0.14449974831E+03  0.15111877492E+03  0.00000000000E+00 0.  1.
<mgrwt>
<rscale>  0 0.92925937E+02</rscale>
<asrwt>0</asrwt>
<pdfrwt beam="1">  1        1 0.65529818E-01 0.92925937E+02</pdfrwt>
<pdfrwt beam="2">  1       -1 0.77973716E-03 0.92925937E+02</pdfrwt>
<totfact> 0.12953474E+05</totfact>
</mgrwt>
</event>
<event>
 5    1  0.3957498E+001  0.7895949E+02  0.7546771E-02  0.1332030E+00
         -1   -1    0    0    0  501 -0.00000000000E+00  0.00000000000E+00  0.39858344973E+02  0.39858344973E+02  0.00000000000E+00 0.  1.
          1   -1    0    0  501    0  0.00000000000E+00 -0.00000000000E+00 -0.39104741743E+02  0.39104741743E+02  0.00000000000E+00 0. -1.
         23    2    1    2    0    0  0.00000000000E+00  0.00000000000E+00  0.75360322917E+00  0.78963086716E+02  0.78959490537E+02 0.  0.
          2    1    3    3  502    0 -0.94247666042E+01  0.36895820084E+02  0.10794690398E+02  0.39580968988E+02  0.00000000000E+00 0. -1.
         -2    1    3    3    0  502  0.94247666042E+01 -0.36895820084E+02 -0.10041087169E+02  0.39382117728E+02  0.00000000000E+00 0.  1.
<mgrwt>
<rscale>  0 0.78959491E+02</rscale>
<asrwt>0</asrwt>
<pdfrwt beam="2">  1        1 0.60161141E-02 0.78959491E+02</pdfrwt>
<pdfrwt beam="1">  1       -1 0.61320531E-02 0.78959491E+02</pdfrwt>
<totfact> 0.13502131E+05</totfact>
</mgrwt>
</event>
<event>
 5    1  0.3957498E+001  0.9336501E+02  0.7546771E-02  0.1294902E+00
         -1   -1    0    0    0  501 -0.00000000000E+00  0.00000000000E+00  0.53140889304E+01  0.53140889304E+01  0.00000000000E+00 0.  1.
          1   -1    0    0  501    0  0.00000000000E+00 -0.00000000000E+00 -0.41009029256E+03  0.41009029256E+03  0.00000000000E+00 0. -1.
         23    2    1    2    0    0  0.00000000000E+00  0.00000000000E+00 -0.40477620363E+03  0.41540438149E+03  0.93365010237E+02 0.  0.
          2    1    3    3  502    0  0.36708776735E+02  0.28838871070E+02 -0.20148160930E+03  0.20681889096E+03  0.00000000000E+00 0. -1.
         -2    1    3    3    0  502 -0.36708776735E+02 -0.28838871070E+02 -0.20329459433E+03  0.20858549052E+03  0.00000000000E+00 0.  1.
<mgrwt>
<rscale>  0 0.93365010E+02</rscale>
<asrwt>0</asrwt>
<pdfrwt beam="2">  1        1 0.63090818E-01 0.93365010E+02</pdfrwt>
<pdfrwt beam="1">  1       -1 0.81755209E-03 0.93365010E+02</pdfrwt>
<totfact> 0.12715944E+05</totfact>
</mgrwt>
</event>
<event>
 5    1  0.3957498E+001  0.9046982E+02  0.7546771E-02  0.1301718E+00
          2   -1    0    0  501    0  0.00000000000E+00  0.00000000000E+00  0.63142286529E+03  0.63142286529E+03  0.00000000000E+00 0. -1.
         -2   -1    0    0    0  501 -0.00000000000E+00 -0.00000000000E+00 -0.32406128418E+01  0.32406128418E+01  0.00000000000E+00 0.  1.
         23    2    1    2    0    0  0.00000000000E+00  0.00000000000E+00  0.62818225245E+03  0.63466347814E+03  0.90469819186E+02 0.  0.
          2    1    3    3  502    0 -0.36353029040E+02 -0.26893785786E+02  0.30585428391E+03  0.30917901193E+03  0.00000000000E+00 0. -1.
         -2    1    3    3    0  502  0.36353029040E+02  0.26893785786E+02  0.32232796854E+03  0.32548446620E+03  0.00000000000E+00 0.  1.
<mgrwt>
<rscale>  0 0.90469819E+02</rscale>
<asrwt>0</asrwt>
<pdfrwt beam="1">  1        2 0.97141882E-01 0.90469819E+02</pdfrwt>
<pdfrwt beam="2">  1       -2 0.49855632E-03 0.90469819E+02</pdfrwt>
<totfact> 0.23587712E+05</totfact>
</mgrwt>
</event>
<event>
 5    1  0.3957498E+001  0.8750027E+02  0.7546771E-02  0.1309021E+00
         -1   -1    0    0    0  501 -0.00000000000E+00  0.00000000000E+00  0.69722268289E+01  0.69722268289E+01  0.00000000000E+00 0.  1.
          1   -1    0    0  501    0  0.00000000000E+00 -0.00000000000E+00 -0.27452838716E+03  0.27452838716E+03  0.00000000000E+00 0. -1.
         23    2    1    2    0    0  0.00000000000E+00  0.00000000000E+00 -0.26755616033E+03  0.28150061399E+03  0.87500267114E+02 0.  0.
          2    1    3    3  502    0 -0.36231693258E+02  0.10856886647E+02 -0.20451615024E+03  0.20798428617E+03  0.00000000000E+00 0. -1.
         -2    1    3    3    0  502  0.36231693258E+02 -0.10856886647E+02 -0.63040010095E+02  0.73516327824E+02  0.00000000000E+00 0.  1.
<mgrwt>
<rscale>  0 0.87500267E+02</rscale>
<asrwt>0</asrwt>
<pdfrwt beam="2">  1        1 0.42235129E-01 0.87500267E+02</pdfrwt>
<pdfrwt beam="1">  1       -1 0.10726505E-02 0.87500267E+02</pdfrwt>
<totfact> 0.14052559E+05</totfact>
</mgrwt>
</event>
<event>
 5    1  0.3957498E+001  0.9169752E+02  0.7546771E-02  0.1298792E+00
         -1   -1    0    0    0  501 -0.00000000000E+00  0.00000000000E+00  0.52644383081E+03  0.52644383081E+03  0.00000000000E+00 0.  1.
          1   -1    0    0  501    0  0.00000000000E+00 -0.00000000000E+00 -0.39930349888E+01  0.39930349888E+01  0.00000000000E+00 0. -1.
         23    2    1    2    0    0  0.00000000000E+00  0.00000000000E+00  0.52245079582E+03  0.53043686580E+03  0.91697516566E+02 0.  0.
          2    1    3    3  502    0  0.40017564017E+02 -0.22357533909E+02  0.25591144822E+03  0.25998448816E+03  0.00000000000E+00 0.  1.
         -2    1    3    3    0  502 -0.40017564017E+02  0.22357533909E+02  0.26653934760E+03  0.27045237764E+03  0.00000000000E+00 0. -1.
<mgrwt>
<rscale>  0 0.91697517E+02</rscale>
<asrwt>0</asrwt>
<pdfrwt beam="2">  1        1 0.61431349E-03 0.91697517E+02</pdfrwt>
<pdfrwt beam="1">  1       -1 0.80991303E-01 0.91697517E+02</pdfrwt>
<totfact> 0.44860022E+04</totfact>
</mgrwt>
</event>
<event>
 5    1  0.3957498E+001  0.8590816E+02  0.7546771E-02  0.1313075E+00
         -3   -1    0    0    0  501 -0.00000000000E+00  0.00000000000E+00  0.66194481451E+01  0.66194481451E+01  0.00000000000E+00 0.  1.
          3   -1    0    0  501    0  0.00000000000E+00 -0.00000000000E+00 -0.27873212935E+03  0.27873212935E+03  0.00000000000E+00 0. -1.
         23    2    1    2    0    0  0.00000000000E+00  0.00000000000E+00 -0.27211268120E+03  0.28535157749E+03  0.85908157391E+02 0.  0.
          2    1    3    3  502    0 -0.19124416131E+02  0.34607363619E+02 -0.19179968438E+03  0.19583291817E+03  0.00000000000E+00 0. -1.
         -2    1    3    3    0  502  0.19124416131E+02 -0.34607363619E+02 -0.80312996820E+02  0.89518659324E+02  0.00000000000E+00 0.  1.
<mgrwt>
<rscale>  0 0.85908157E+02</rscale>
<asrwt>0</asrwt>
<pdfrwt beam="2">  1        3 0.42881854E-01 0.85908157E+02</pdfrwt>
<pdfrwt beam="1">  1       -3 0.10183769E-02 0.85908157E+02</pdfrwt>
<totfact> 0.28853672E+04</totfact>
</mgrwt>
</event>
<event>
 5    1  0.3957498E+001  0.9135761E+02  0.7546771E-02  0.1299597E+00
          3   -1    0    0  501    0  0.00000000000E+00  0.00000000000E+00  0.89465750456E+02  0.89465750456E+02  0.00000000000E+00 0. -1.
         -3   -1    0    0    0  501 -0.00000000000E+00 -0.00000000000E+00 -0.23322370257E+02  0.23322370257E+02  0.00000000000E+00 0.  1.
         23    2    1    2    0    0  0.00000000000E+00  0.00000000000E+00  0.66143380199E+02  0.11278812071E+03  0.91357612874E+02 0.  0.
          2    1    3    3  502    0 -0.33727445297E+02  0.29404749949E+02  0.21731467568E+02  0.49743708833E+02  0.00000000000E+00 0. -1.
         -2    1    3    3    0  502  0.33727445297E+02 -0.29404749949E+02  0.44411912631E+02  0.63044411880E+02  0.00000000000E+00 0.  1.
<mgrwt>
<rscale>  0 0.91357613E+02</rscale>
<asrwt>0</asrwt>
<pdfrwt beam="1">  1        3 0.13763961E-01 0.91357613E+02</pdfrwt>
<pdfrwt beam="2">  1       -3 0.35880570E-02 0.91357613E+02</pdfrwt>
<totfact> 0.33565516E+04</totfact>
</mgrwt>
</event>
<event>
 5    1  0.3957498E+001  0.9164567E+02  0.7546771E-02  0.1298915E+00
         -1   -1    0    0    0  501 -0.00000000000E+00  0.00000000000E+00  0.14178380703E+02  0.14178380703E+02  0.00000000000E+00 0.  1.
          1   -1    0    0  501    0  0.00000000000E+00 -0.00000000000E+00 -0.14809394990E+03  0.14809394990E+03  0.00000000000E+00 0. -1.
         23    2    1    2    0    0  0.00000000000E+00  0.00000000000E+00 -0.13391556919E+03  0.16227233060E+03  0.91645674234E+02 0.  0.
          2    1    3    3  502    0 -0.37960159203E+02 -0.25603515125E+02 -0.70134473178E+02  0.83757733980E+02  0.00000000000E+00 0. -1.
         -2    1    3    3    0  502  0.37960159203E+02  0.25603515125E+02 -0.63781096014E+02  0.78514596619E+02  0.00000000000E+00 0.  1.
<mgrwt>
<rscale>  0 0.91645674E+02</rscale>
<asrwt>0</asrwt>
<pdfrwt beam="2">  1        1 0.22783685E-01 0.91645674E+02</pdfrwt>
<pdfrwt beam="1">  1       -1 0.21812893E-02 0.91645674E+02</pdfrwt>
<totfact> 0.11033028E+05</totfact>
</mgrwt>
</event>
<event>
 5    1  0.3957498E+001  0.8846681E+02  0.7546771E-02  0.1306608E+00
          1   -1    0    0  501    0  0.00000000000E+00  0.00000000000E+00  0.57595656874E+03  0.57595656874E+03  0.00000000000E+00 0. -1.
         -1   -1    0    0    0  501 -0.00000000000E+00 -0.00000000000E+00 -0.33971206927E+01  0.33971206927E+01  0.00000000000E+00 0.  1.
         23    2    1    2    0    0  0.00000000000E+00  0.00000000000E+00  0.57255944804E+03  0.57935368943E+03  0.88466806831E+02 0.  0.
          2    1    3    3  502    0 -0.36674655595E+02 -0.21641446943E+02  0.36465014928E+03  0.36712819827E+03  0.00000000000E+00 0. -1.
         -2    1    3    3    0  502  0.36674655595E+02  0.21641446943E+02  0.20790929876E+03  0.21222549116E+03  0.00000000000E+00 0.  1.
<mgrwt>
<rscale>  0 0.88466807E+02</rscale>
<asrwt>0</asrwt>
<pdfrwt beam="1">  1        1 0.88608625E-01 0.88466807E+02</pdfrwt>
<pdfrwt beam="2">  1       -1 0.52263441E-03 0.88466807E+02</pdfrwt>
<totfact> 0.15291840E+05</totfact>
</mgrwt>
</event>
<event>
 5    1  0.3957498E+001  0.9438881E+02  0.7546771E-02  0.1292559E+00
          3   -1    0    0  501    0  0.00000000000E+00  0.00000000000E+00  0.31037801797E+01  0.31037801797E+01  0.00000000000E+00 0. -1.
         -3   -1    0    0    0  501 -0.00000000000E+00 -0.00000000000E+00 -0.71761262851E+03  0.71761262851E+03  0.00000000000E+00 0.  1.
         23    2    1    2    0    0  0.00000000000E+00  0.00000000000E+00 -0.71450884833E+03  0.72071640869E+03  0.94388809783E+02 0.  0.
          2    1    3    3  502    0 -0.19839282942E+02 -0.39936778249E+02 -0.23926791044E+03  0.24338791336E+03  0.00000000000E+00 0. -1.
         -2    1    3    3    0  502  0.19839282942E+02  0.39936778249E+02 -0.47524093789E+03  0.47732849533E+03  0.00000000000E+00 0.  1.
<mgrwt>
<rscale>  0 0.94388810E+02</rscale>
<asrwt>0</asrwt>
<pdfrwt beam="1">  1        3 0.47750445E-03 0.94388810E+02</pdfrwt>
<pdfrwt beam="2">  1       -3 0.11040199E+00 0.94388810E+02</pdfrwt>
<totfact> 0.12356873E+04</totfact>
</mgrwt>
</event>
<event>
 5    1  0.3957498E+001  0.9066383E+02  0.7546771E-02  0.1301252E+00
         -1   -1    0    0    0  501 -0.00000000000E+00  0.00000000000E+00  0.12336501450E+03  0.12336501450E+03  0.00000000000E+00 0.  1.
          1   -1    0    0  501    0  0.00000000000E+00 -0.00000000000E+00 -0.16657739918E+02  0.16657739918E+02  0.00000000000E+00 0. -1.
         23    2    1    2    0    0  0.00000000000E+00  0.00000000000E+00  0.10670727458E+03  0.14002275442E+03  0.90663825784E+02 0.  0.
          2    1    3    3  502    0 -0.86633172934E+01  0.41474976728E+02  0.28462370147E+02  0.51042465414E+02  0.00000000000E+00 0.  1.
         -2    1    3    3    0  502  0.86633172934E+01 -0.41474976728E+02  0.78244904434E+02  0.88980289003E+02  0.00000000000E+00 0. -1.
<mgrwt>
<rscale>  0 0.90663826E+02</rscale>
<asrwt>0</asrwt>
<pdfrwt beam="2">  1        1 0.25627293E-02 0.90663826E+02</pdfrwt>
<pdfrwt beam="1">  1       -1 0.18979232E-01 0.90663826E+02</pdfrwt>
<totfact> 0.79231355E+04</totfact>
</mgrwt>
</event>
<event>
 5    1  0.3957498E+001  0.9130254E+02  0.7546771E-02  0.1299728E+00
          2   -1    0    0  501    0  0.00000000000E+00  0.00000000000E+00  0.46964528045E+03  0.46964528045E+03  0.00000000000E+00 0. -1.
         -2   -1    0    0    0  501 -0.00000000000E+00 -0.00000000000E+00 -0.44374738721E+01  0.44374738721E+01  0.00000000000E+00 0.  1.
         23    2    1    2    0    0  0.00000000000E+00  0.00000000000E+00  0.46520780657E+03  0.47408275432E+03  0.91302544568E+02 0.  0.
          2    1    3    3  502    0 -0.14113308099E+02 -0.43368565119E+02  0.24301568590E+03  0.24725824859E+03  0.00000000000E+00 0. -1.
         -2    1    3    3    0  502  0.14113308099E+02  0.43368565119E+02  0.22219212068E+03  0.22682450572E+03  0.00000000000E+00 0.  1.
<mgrwt>
<rscale>  0 0.91302545E+02</rscale>
<asrwt>0</asrwt>
<pdfrwt beam="1">  1        2 0.72253081E-01 0.91302545E+02</pdfrwt>
<pdfrwt beam="2">  1       -2 0.68268866E-03 0.91302545E+02</pdfrwt>
<totfact> 0.21031062E+05</totfact>
</mgrwt>
</event>
<event>
 5    1  0.3957498E+001  0.8618228E+02  0.7546771E-02  0.1312369E+00
          1   -1    0    0  501    0  0.00000000000E+00  0.00000000000E+00  0.13325756073E+04  0.13325756073E+04  0.00000000000E+00 0. -1.
         -1   -1    0    0    0  501 -0.00000000000E+00 -0.00000000000E+00 -0.13934267789E+01  0.13934267789E+01  0.00000000000E+00 0.  1.
         23    2    1    2    0    0  0.00000000000E+00  0.00000000000E+00  0.13311821805E+04  0.13339690341E+04  0.86182284400E+02 0.  0.
          2    1    3    3  502    0 -0.17583449737E+02 -0.28694856199E+02  0.24902951019E+03  0.25129319414E+03  0.00000000000E+00 0.  1.
         -2    1    3    3    0  502  0.17583449737E+02  0.28694856199E+02  0.10821526703E+04  0.10826758399E+04  0.00000000000E+00 0. -1.
<mgrwt>
<rscale>  0 0.86182284E+02</rscale>
<asrwt>0</asrwt>
<pdfrwt beam="1">  1        1 0.20501061E+00 0.86182284E+02</pdfrwt>
<pdfrwt beam="2">  1       -1 0.21437442E-03 0.86182284E+02</pdfrwt>
<totfact> 0.13955536E+05</totfact>
</mgrwt>
</event>
<event>
 5    1  0.3957498E+001  0.9194658E+02  0.7546771E-02  0.1298205E+00
         -3   -1    0    0    0  501 -0.00000000000E+00  0.00000000000E+00  0.19344992703E+02  0.19344992703E+02  0.00000000000E+00 0.  1.
          3   -1    0    0  501    0  0.00000000000E+00 -0.00000000000E+00 -0.10925532922E+03  0.10925532922E+03  0.00000000000E+00 0. -1.
         23    2    1    2    0    0  0.00000000000E+00  0.00000000000E+00 -0.89910336522E+02  0.12860032193E+03  0.91946583332E+02 0.  0.
          2    1    3    3  502    0 -0.24085537935E+02  0.12360906063E+02 -0.96924416640E+02  0.10063422717E+03  0.00000000000E+00 0. -1.
         -2    1    3    3    0  502  0.24085537935E+02 -0.12360906063E+02  0.70140801185E+01  0.27966094761E+02  0.00000000000E+00 0.  1.
<mgrwt>
<rscale>  0 0.91946583E+02</rscale>
<asrwt>0</asrwt>
<pdfrwt beam="2">  1        3 0.16808512E-01 0.91946583E+02</pdfrwt>
<pdfrwt beam="1">  1       -3 0.29761528E-02 0.91946583E+02</pdfrwt>
<totfact> 0.31929817E+04</totfact>
</mgrwt>
</event>
<event>
 5    1  0.3957498E+001  0.9094521E+02  0.7546771E-02  0.1300579E+00
         -4   -1    0    0    0  501 -0.00000000000E+00  0.00000000000E+00  0.14705405200E+03  0.14705405200E+03  0.00000000000E+00 0.  1.
          4   -1    0    0  501    0  0.00000000000E+00 -0.00000000000E+00 -0.14061208961E+02  0.14061208961E+02  0.00000000000E+00 0. -1.
         23    2    1    2    0    0  0.00000000000E+00  0.00000000000E+00  0.13299284304E+03  0.16111526096E+03  0.90945208863E+02 0.  0.
          2    1    3    3  502    0 -0.26170083602E+02 -0.24580122031E+02  0.17060512821E+02  0.39750682667E+02  0.00000000000E+00 0. -1.
         -2    1    3    3    0  502  0.26170083602E+02  0.24580122031E+02  0.11593233022E+03  0.12136457829E+03  0.00000000000E+00 0.  1.
<mgrwt>
<rscale>  0 0.90945209E+02</rscale>
<asrwt>0</asrwt>
<pdfrwt beam="2">  1        4 0.21632630E-02 0.90945209E+02</pdfrwt>
<pdfrwt beam="1">  1       -4 0.22623699E-01 0.90945209E+02</pdfrwt>
<totfact> 0.23285998E+04</totfact>
</mgrwt>
</event>
<event>
 5    1  0.3957498E+001  0.9033071E+02  0.7546771E-02  0.1302053E+00
          1   -1    0    0  501    0  0.00000000000E+00  0.00000000000E+00  0.11042676503E+03  0.11042676503E+03  0.00000000000E+00 0. -1.
         -1   -1    0    0    0  501 -0.00000000000E+00 -0.00000000000E+00 -0.18472960764E+02  0.18472960764E+02  0.00000000000E+00 0.  1.
         23    2    1    2    0    0  0.00000000000E+00  0.00000000000E+00  0.91953804266E+02  0.12889972579E+03  0.90330710121E+02 0.  0.
          2    1    3    3  502    0 -0.39534150665E+02  0.40165502497E+01  0.76609638128E+02  0.86302481997E+02  0.00000000000E+00 0. -1.
         -2    1    3    3    0  502  0.39534150665E+02 -0.40165502497E+01  0.15344166138E+02  0.42597243798E+02  0.00000000000E+00 0.  1.
<mgrwt>
<rscale>  0 0.90330710E+02</rscale>
<asrwt>0</asrwt>
<pdfrwt beam="1">  1        1 0.16988733E-01 0.90330710E+02</pdfrwt>
<pdfrwt beam="2">  1       -1 0.28419940E-02 0.90330710E+02</pdfrwt>
<totfact> 0.10893226E+05</totfact>
</mgrwt>
</event>
<event>
 5    1  0.3957498E+001  0.9384788E+02  0.7546771E-02  0.1293792E+00
         -1   -1    0    0    0  501 -0.00000000000E+00  0.00000000000E+00  0.11027744776E+01  0.11027744776E+01  0.00000000000E+00 0.  1.
          1   -1    0    0  501    0  0.00000000000E+00 -0.00000000000E+00 -0.19966511621E+04  0.19966511621E+04  0.00000000000E+00 0. -1.
         23    2    1    2    0    0  0.00000000000E+00  0.00000000000E+00 -0.19955483876E+04  0.19977539365E+04  0.93847875676E+02 0.  0.
          2    1    3    3  502    0 -0.16518409822E+02 -0.37172999244E+02 -0.14957143855E+04  0.14962674269E+04  0.00000000000E+00 0. -1.
         -2    1    3    3    0  502  0.16518409822E+02  0.37172999244E+02 -0.49983400209E+03  0.50148650968E+03  0.00000000000E+00 0.  1.
<mgrwt>
<rscale>  0 0.93847876E+02</rscale>
<asrwt>0</asrwt>
<pdfrwt beam="2">  1        1 0.30717816E+00 0.93847876E+02</pdfrwt>
<pdfrwt beam="1">  1       -1 0.16965703E-03 0.93847876E+02</pdfrwt>
<totfact> 0.74031530E+04</totfact>
</mgrwt>
</event>
<event>
 5    1  0.3957498E+001  0.9052510E+02  0.7546771E-02  0.1301585E+00
         -2   -1    0    0    0  501 -0.00000000000E+00  0.00000000000E+00  0.17611185665E+02  0.17611185665E+02  0.00000000000E+00 0.  1.
          2   -1    0    0  501    0  0.00000000000E+00 -0.00000000000E+00 -0.11632937655E+03  0.11632937655E+03  0.00000000000E+00 0. -1.
         23    2    1    2    0    0  0.00000000000E+00  0.00000000000E+00 -0.98718190886E+02  0.13394056222E+03  0.90525095941E+02 0.  0.
          2    1    3    3  502    0  0.37764939118E+02 -0.94583243361E+01 -0.15198441958E+02  0.41792860201E+02  0.00000000000E+00 0. -1.
         -2    1    3    3    0  502 -0.37764939118E+02  0.94583243361E+01 -0.83519748928E+02  0.92147702016E+02  0.00000000000E+00 0.  1.
<mgrwt>
<rscale>  0 0.90525096E+02</rscale>
<asrwt>0</asrwt>
<pdfrwt beam="2">  1        2 0.17896827E-01 0.90525096E+02</pdfrwt>
<pdfrwt beam="1">  1       -2 0.27094132E-02 0.90525096E+02</pdfrwt>
<totfact> 0.13113115E+05</totfact>
</mgrwt>
</event>
<event>
 5    1  0.3957498E+001  0.7791755E+02  0.7546771E-02  0.1335067E+00
         -2   -1    0    0    0  501 -0.00000000000E+00  0.00000000000E+00  0.74072709797E+02  0.74072709797E+02  0.00000000000E+00 0.  1.
          2   -1    0    0  501    0  0.00000000000E+00 -0.00000000000E+00 -0.20490488532E+02  0.20490488532E+02  0.00000000000E+00 0. -1.
         23    2    1    2    0    0  0.00000000000E+00  0.00000000000E+00  0.53582221265E+02  0.94563198329E+02  0.77917546435E+02 0.  0.
          2    1    3    3  502    0  0.31274035915E+02  0.20794350094E+02  0.14218701659E+02  0.40157711528E+02  0.00000000000E+00 0. -1.
         -2    1    3    3    0  502 -0.31274035915E+02 -0.20794350094E+02  0.39363519606E+02  0.54405486801E+02  0.00000000000E+00 0.  1.
<mgrwt>
<rscale>  0 0.77917546E+02</rscale>
<asrwt>0</asrwt>
<pdfrwt beam="2">  1        2 0.31523829E-02 0.77917546E+02</pdfrwt>
<pdfrwt beam="1">  1       -2 0.11395801E-01 0.77917546E+02</pdfrwt>
<totfact> 0.12771535E+05</totfact>
</mgrwt>
</event>
<event>
 5    1  0.3957498E+001  0.9173883E+02  0.7546771E-02  0.1298695E+00
         -1   -1    0    0    0  501 -0.00000000000E+00  0.00000000000E+00  0.65658219833E+01  0.65658219833E+01  0.00000000000E+00 0.  1.
          1   -1    0    0  501    0  0.00000000000E+00 -0.00000000000E+00 -0.32044777397E+03  0.32044777397E+03  0.00000000000E+00 0. -1.
         23    2    1    2    0    0  0.00000000000E+00  0.00000000000E+00 -0.31388195198E+03  0.32701359595E+03  0.91738825778E+02 0.  0.
          2    1    3    3  502    0  0.32280344228E+02  0.11868328404E+02 -0.26512720007E+03  0.26734866759E+03  0.00000000000E+00 0. -1.
         -2    1    3    3    0  502 -0.32280344228E+02 -0.11868328404E+02 -0.48754751912E+02  0.59664928363E+02  0.00000000000E+00 0.  1.
<mgrwt>
<rscale>  0 0.91738826E+02</rscale>
<asrwt>0</asrwt>
<pdfrwt beam="2">  1        1 0.49299656E-01 0.91738826E+02</pdfrwt>
<pdfrwt beam="1">  1       -1 0.10101265E-02 0.91738826E+02</pdfrwt>
<totfact> 0.12761836E+05</totfact>
</mgrwt>
</event>
<event>
 5    1  0.3957498E+001  0.9175797E+02  0.7546771E-02  0.1298650E+00
         -1   -1    0    0    0  501 -0.00000000000E+00  0.00000000000E+00  0.21618404722E+03  0.21618404722E+03  0.00000000000E+00 0.  1.
          1   -1    0    0  501    0  0.00000000000E+00 -0.00000000000E+00 -0.97365246105E+01  0.97365246105E+01  0.00000000000E+00 0. -1.
         23    2    1    2    0    0  0.00000000000E+00  0.00000000000E+00  0.20644752261E+03  0.22592057183E+03  0.91757970688E+02 0.  0.
          2    1    3    3  502    0  0.12948076682E+02  0.37349194944E+02  0.45888966378E+02  0.60567419360E+02  0.00000000000E+00 0. -1.
         -2    1    3    3    0  502 -0.12948076682E+02 -0.37349194944E+02  0.16055855623E+03  0.16535315247E+03  0.00000000000E+00 0.  1.
<mgrwt>
<rscale>  0 0.91757971E+02</rscale>
<asrwt>0</asrwt>
<pdfrwt beam="2">  1        1 0.14979270E-02 0.91757971E+02</pdfrwt>
<pdfrwt beam="1">  1       -1 0.33259081E-01 0.91757971E+02</pdfrwt>
<totfact> 0.66736267E+04</totfact>
</mgrwt>
</event>
<event>
 5    1  0.3957498E+001  0.9264082E+02  0.7546771E-02  0.1296580E+00
         -1   -1    0    0    0  501 -0.00000000000E+00  0.00000000000E+00  0.16352191160E+01  0.16352191160E+01  0.00000000000E+00 0.  1.
          1   -1    0    0  501    0  0.00000000000E+00 -0.00000000000E+00 -0.13121057532E+04  0.13121057532E+04  0.00000000000E+00 0. -1.
         23    2    1    2    0    0  0.00000000000E+00  0.00000000000E+00 -0.13104705340E+04  0.13137409723E+04  0.92640820587E+02 0.  0.
          2    1    3    3  502    0 -0.17137315114E+01  0.22041408698E+02 -0.12324600833E+04  0.12326583540E+04  0.00000000000E+00 0. -1.
         -2    1    3    3    0  502  0.17137315114E+01 -0.22041408698E+02 -0.78010450697E+02  0.81082618304E+02  0.00000000000E+00 0.  1.
<mgrwt>
<rscale>  0 0.92640821E+02</rscale>
<asrwt>0</asrwt>
<pdfrwt beam="2">  1        1 0.20186332E+00 0.92640821E+02</pdfrwt>
<pdfrwt beam="1">  1       -1 0.25157105E-03 0.92640821E+02</pdfrwt>
<totfact> 0.11639243E+05</totfact>
</mgrwt>
</event>
<event>
 5    1  0.3957498E+001  0.9403332E+02  0.7546771E-02  0.1293368E+00
         -1   -1    0    0    0  501 -0.00000000000E+00  0.00000000000E+00  0.43126926419E+03  0.43126926419E+03  0.00000000000E+00 0.  1.
          1   -1    0    0  501    0  0.00000000000E+00 -0.00000000000E+00 -0.51257218216E+01  0.51257218216E+01  0.00000000000E+00 0. -1.
         23    2    1    2    0    0  0.00000000000E+00  0.00000000000E+00  0.42614354237E+03  0.43639498601E+03  0.94033319168E+02 0.  0.
          2    1    3    3  502    0 -0.20351217090E+02 -0.39587728079E+01  0.17234164957E+02  0.26960347939E+02  0.00000000000E+00 0. -1.
         -2    1    3    3    0  502  0.20351217090E+02  0.39587728079E+01  0.40890937741E+03  0.40943463807E+03  0.00000000000E+00 0.  1.
<mgrwt>
<rscale>  0 0.94033319E+02</rscale>
<asrwt>0</asrwt>
<pdfrwt beam="2">  1        1 0.78857293E-03 0.94033319E+02</pdfrwt>
<pdfrwt beam="1">  1       -1 0.66349089E-01 0.94033319E+02</pdfrwt>
<totfact> 0.47249627E+04</totfact>
</mgrwt>
</event>
<event>
 5    1  0.3957498E+001  0.9296004E+02  0.7546771E-02  0.1295838E+00
         -1   -1    0    0    0  501 -0.00000000000E+00  0.00000000000E+00  0.51191442171E+03  0.51191442171E+03  0.00000000000E+00 0.  1.
          1   -1    0    0  501    0  0.00000000000E+00 -0.00000000000E+00 -0.42202218396E+01  0.42202218396E+01  0.00000000000E+00 0. -1.
         23    2    1    2    0    0  0.00000000000E+00  0.00000000000E+00  0.50769419987E+03  0.51613464355E+03  0.92960043513E+02 0.  0.
          2    1    3    3  502    0 -0.17773665775E+01 -0.39898138044E+02  0.12182889323E+03  0.12820803281E+03  0.00000000000E+00 0. -1.
         -2    1    3    3    0  502  0.17773665775E+01  0.39898138044E+02  0.38586530663E+03  0.38792661073E+03  0.00000000000E+00 0.  1.
<mgrwt>
<rscale>  0 0.92960044E+02</rscale>
<asrwt>0</asrwt>
<pdfrwt beam="2">  1        1 0.64926530E-03 0.92960044E+02</pdfrwt>
<pdfrwt beam="1">  1       -1 0.78756016E-01 0.92960044E+02</pdfrwt>
<totfact> 0.44057729E+04</totfact>
</mgrwt>
</event>
<event>
 5    1  0.3957498E+001  0.9214461E+02  0.7546771E-02  0.1297740E+00
         -1   -1    0    0    0  501 -0.00000000000E+00  0.00000000000E+00  0.73479866565E+02  0.73479866565E+02  0.00000000000E+00 0.  1.
          1   -1    0    0  501    0  0.00000000000E+00 -0.00000000000E+00 -0.28887602049E+02  0.28887602049E+02  0.00000000000E+00 0. -1.
         23    2    1    2    0    0  0.00000000000E+00  0.00000000000E+00  0.44592264516E+02  0.10236746861E+03  0.92144606873E+02 0.  0.
          2    1    3    3  502    0 -0.12479898561E+02 -0.43982622474E+02  0.28623460868E+02  0.53939980162E+02  0.00000000000E+00 0. -1.
         -2    1    3    3    0  502  0.12479898561E+02  0.43982622474E+02  0.15968803648E+02  0.48427488452E+02  0.00000000000E+00 0.  1.
<mgrwt>
<rscale>  0 0.92144607E+02</rscale>
<asrwt>0</asrwt>
<pdfrwt beam="2">  1        1 0.44442465E-02 0.92144607E+02</pdfrwt>
<pdfrwt beam="1">  1       -1 0.11304595E-01 0.92144607E+02</pdfrwt>
<totfact> 0.83571585E+04</totfact>
</mgrwt>
</event>
<event>
 5    1  0.3957498E+001  0.9025313E+02  0.7546771E-02  0.1302240E+00
          2   -1    0    0  501    0  0.00000000000E+00  0.00000000000E+00  0.32988444648E+03  0.32988444648E+03  0.00000000000E+00 0. -1.
         -2   -1    0    0    0  501 -0.00000000000E+00 -0.00000000000E+00 -0.61730919930E+01  0.61730919930E+01  0.00000000000E+00 0.  1.
         23    2    1    2    0    0  0.00000000000E+00  0.00000000000E+00  0.32371135448E+03  0.33605753847E+03  0.90253133689E+02 0.  0.
          2    1    3    3  502    0  0.10984828144E+02  0.42361270364E+02  0.12085262855E+03  0.12853210300E+03  0.00000000000E+00 0. -1.
         -2    1    3    3    0  502 -0.10984828144E+02 -0.42361270364E+02  0.20285872594E+03  0.20752543546E+03  0.00000000000E+00 0.  1.
<mgrwt>
<rscale>  0 0.90253134E+02</rscale>
<asrwt>0</asrwt>
<pdfrwt beam="1">  1        2 0.50751439E-01 0.90253134E+02</pdfrwt>
<pdfrwt beam="2">  1       -2 0.94970672E-03 0.90253134E+02</pdfrwt>
<totfact> 0.19121361E+05</totfact>
</mgrwt>
</event>
<event>
 5    1  0.3957498E+001  0.9119748E+02  0.7546771E-02  0.1299977E+00
          2   -1    0    0  501    0  0.00000000000E+00  0.00000000000E+00  0.13419882251E+04  0.13419882251E+04  0.00000000000E+00 0. -1.
         -2   -1    0    0    0  501 -0.00000000000E+00 -0.00000000000E+00 -0.15493765206E+01  0.15493765206E+01  0.00000000000E+00 0.  1.
         23    2    1    2    0    0  0.00000000000E+00  0.00000000000E+00  0.13404388485E+04  0.13435376016E+04  0.91197479063E+02 0.  0.
          2    1    3    3  502    0 -0.40344465856E+02  0.21183937687E+02  0.69491464248E+03  0.69640706162E+03  0.00000000000E+00 0. -1.
         -2    1    3    3    0  502  0.40344465856E+02 -0.21183937687E+02  0.64552420605E+03  0.64713053995E+03  0.00000000000E+00 0.  1.
<mgrwt>
<rscale>  0 0.91197479E+02</rscale>
<asrwt>0</asrwt>
<pdfrwt beam="1">  1        2 0.20645880E+00 0.91197479E+02</pdfrwt>
<pdfrwt beam="2">  1       -2 0.23836669E-03 0.91197479E+02</pdfrwt>
<totfact> 0.24389435E+05</totfact>
</mgrwt>
</event>
<event>
 5    1  0.3957498E+001  0.9676856E+02  0.7546771E-02  0.1287242E+00
         -1   -1    0    0    0  501 -0.00000000000E+00  0.00000000000E+00  0.39437994183E+01  0.39437994183E+01  0.00000000000E+00 0.  1.
          1   -1    0    0  501    0  0.00000000000E+00 -0.00000000000E+00 -0.59359978308E+03  0.59359978308E+03  0.00000000000E+00 0. -1.
         23    2    1    2    0    0  0.00000000000E+00  0.00000000000E+00 -0.58965598367E+03  0.59754358250E+03  0.96768558514E+02 0.  0.
          2    1    3    3  502    0 -0.45568300860E+02 -0.16218078322E+02 -0.30249683409E+03  0.30633940449E+03  0.00000000000E+00 0. -1.
         -2    1    3    3    0  502  0.45568300860E+02  0.16218078322E+02 -0.28715914958E+03  0.29120417801E+03  0.00000000000E+00 0.  1.
<mgrwt>
<rscale>  0 0.96768559E+02</rscale>
<asrwt>0</asrwt>
<pdfrwt beam="2">  1        1 0.91323098E-01 0.96768559E+02</pdfrwt>
<pdfrwt beam="1">  1       -1 0.60673801E-03 0.96768559E+02</pdfrwt>
<totfact> 0.12080966E+05</totfact>
</mgrwt>
</event>
<event>
 5    1  0.3957498E+001  0.9476882E+02  0.7546771E-02  0.1291698E+00
         -2   -1    0    0    0  501 -0.00000000000E+00  0.00000000000E+00  0.38810331951E+02  0.38810331951E+02  0.00000000000E+00 0.  1.
          2   -1    0    0  501    0  0.00000000000E+00 -0.00000000000E+00 -0.57852693843E+02  0.57852693843E+02  0.00000000000E+00 0. -1.
         23    2    1    2    0    0  0.00000000000E+00  0.00000000000E+00 -0.19042361892E+02  0.96663025793E+02  0.94768818759E+02 0.  0.
          2    1    3    3  502    0  0.32465596987E+01  0.22487784559E+02 -0.51934049378E+02  0.56686736447E+02  0.00000000000E+00 0. -1.
         -2    1    3    3    0  502 -0.32465596987E+01 -0.22487784559E+02  0.32891687485E+02  0.39976289346E+02  0.00000000000E+00 0.  1.
<mgrwt>
<rscale>  0 0.94768819E+02</rscale>
<asrwt>0</asrwt>
<pdfrwt beam="2">  1        2 0.89004145E-02 0.94768819E+02</pdfrwt>
<pdfrwt beam="1">  1       -2 0.59708203E-02 0.94768819E+02</pdfrwt>
<totfact> 0.94127155E+04</totfact>
</mgrwt>
</event>
<event>
 5    1  0.3957498E+001  0.9097522E+02  0.7546771E-02  0.1300507E+00
          1   -1    0    0  501    0  0.00000000000E+00  0.00000000000E+00  0.51515696781E+03  0.51515696781E+03  0.00000000000E+00 0. -1.
         -1   -1    0    0    0  501 -0.00000000000E+00 -0.00000000000E+00 -0.40164900006E+01  0.40164900006E+01  0.00000000000E+00 0.  1.
         23    2    1    2    0    0  0.00000000000E+00  0.00000000000E+00  0.51114047781E+03  0.51917345781E+03  0.90975223219E+02 0.  0.
          2    1    3    3  502    0 -0.36420136959E+02  0.14166029364E+02  0.38843108872E+03  0.39039187164E+03  0.00000000000E+00 0. -1.
         -2    1    3    3    0  502  0.36420136959E+02 -0.14166029364E+02  0.12270938909E+03  0.12878158617E+03  0.00000000000E+00 0.  1.
<mgrwt>
<rscale>  0 0.90975223E+02</rscale>
<asrwt>0</asrwt>
<pdfrwt beam="1">  1        1 0.79254866E-01 0.90975223E+02</pdfrwt>
<pdfrwt beam="2">  1       -1 0.61792195E-03 0.90975223E+02</pdfrwt>
<totfact> 0.14056206E+05</totfact>
</mgrwt>
</event>
<event>
 5    1  0.3957498E+001  0.8986509E+02  0.7546771E-02  0.1303179E+00
          1   -1    0    0  501    0  0.00000000000E+00  0.00000000000E+00  0.36466239963E+02  0.36466239963E+02  0.00000000000E+00 0. -1.
         -1   -1    0    0    0  501 -0.00000000000E+00 -0.00000000000E+00 -0.55364454312E+02  0.55364454312E+02  0.00000000000E+00 0.  1.
         23    2    1    2    0    0  0.00000000000E+00  0.00000000000E+00 -0.18898214350E+02  0.91830694275E+02  0.89865087244E+02 0.  0.
          2    1    3    3  502    0  0.42762967237E+02 -0.13677115164E+02 -0.11276697647E+02  0.46291454459E+02  0.00000000000E+00 0. -1.
         -2    1    3    3    0  502 -0.42762967237E+02  0.13677115164E+02 -0.76215167024E+01  0.45539239815E+02  0.00000000000E+00 0.  1.
<mgrwt>
<rscale>  0 0.89865087E+02</rscale>
<asrwt>0</asrwt>
<pdfrwt beam="1">  1        1 0.56101908E-02 0.89865087E+02</pdfrwt>
<pdfrwt beam="2">  1       -1 0.85176083E-02 0.89865087E+02</pdfrwt>
<totfact> 0.93135534E+04</totfact>
</mgrwt>
</event>
<event>
 5    1  0.3957498E+001  0.7512292E+02  0.7546771E-02  0.1343491E+00
         -1   -1    0    0    0  501 -0.00000000000E+00  0.00000000000E+00  0.10808083844E+01  0.10808083844E+01  0.00000000000E+00 0.  1.
          1   -1    0    0  501    0  0.00000000000E+00 -0.00000000000E+00 -0.13053777952E+04  0.13053777952E+04  0.00000000000E+00 0. -1.
         23    2    1    2    0    0  0.00000000000E+00  0.00000000000E+00 -0.13042969868E+04  0.13064586036E+04  0.75122919697E+02 0.  0.
          2    1    3    3  502    0 -0.37546583142E+02 -0.65722595643E+00 -0.63775057242E+03  0.63885520306E+03  0.00000000000E+00 0. -1.
         -2    1    3    3    0  502  0.37546583142E+02  0.65722595643E+00 -0.66654641442E+03  0.66760340055E+03  0.00000000000E+00 0.  1.
<mgrwt>
<rscale>  0 0.75122920E+02</rscale>
<asrwt>0</asrwt>
<pdfrwt beam="2">  1        1 0.20082713E+00 0.75122920E+02</pdfrwt>
<pdfrwt beam="1">  1       -1 0.16627840E-03 0.75122920E+02</pdfrwt>
<totfact> 0.20230374E+05</totfact>
</mgrwt>
</event>
<event>
 5    1  0.3957498E+001  0.9381619E+02  0.7546771E-02  0.1293865E+00
         -1   -1    0    0    0  501 -0.00000000000E+00  0.00000000000E+00  0.22579824796E+04  0.22579824796E+04  0.00000000000E+00 0.  1.
          1   -1    0    0  501    0  0.00000000000E+00 -0.00000000000E+00 -0.97448473491E+00  0.97448473491E+00  0.00000000000E+00 0. -1.
         23    2    1    2    0    0  0.00000000000E+00  0.00000000000E+00  0.22570079948E+04  0.22589569643E+04  0.93816191738E+02 0.  0.
          2    1    3    3  502    0  0.21400850768E+01 -0.35362256137E+02  0.18688164649E+04  0.18691522272E+04  0.00000000000E+00 0. -1.
         -2    1    3    3    0  502 -0.21400850768E+01  0.35362256137E+02  0.38819152996E+03  0.38980473709E+03  0.00000000000E+00 0.  1.
<mgrwt>
<rscale>  0 0.93816192E+02</rscale>
<asrwt>0</asrwt>
<pdfrwt beam="2">  1        1 0.14992254E-03 0.93816192E+02</pdfrwt>
<pdfrwt beam="1">  1       -1 0.34737773E+00 0.93816192E+02</pdfrwt>
<totfact> 0.43448658E+03</totfact>
</mgrwt>
</event>
<event>
 5    1  0.3957498E+001  0.8892192E+02  0.7546771E-02  0.1305484E+00
          1   -1    0    0  501    0  0.00000000000E+00  0.00000000000E+00  0.83020728155E+02  0.83020728155E+02  0.00000000000E+00 0. -1.
         -1   -1    0    0    0  501 -0.00000000000E+00 -0.00000000000E+00 -0.23810642341E+02  0.23810642341E+02  0.00000000000E+00 0.  1.
         23    2    1    2    0    0  0.00000000000E+00  0.00000000000E+00  0.59210085814E+02  0.10683137050E+03  0.88921917771E+02 0.  0.
          2    1    3    3  502    0  0.43418774515E+01  0.41999664497E+02  0.46336678413E+02  0.62689006086E+02  0.00000000000E+00 0. -1.
         -2    1    3    3    0  502 -0.43418774515E+01 -0.41999664497E+02  0.12873407401E+02  0.44142364411E+02  0.00000000000E+00 0.  1.
<mgrwt>
<rscale>  0 0.88921918E+02</rscale>
<asrwt>0</asrwt>
<pdfrwt beam="1">  1        1 0.12772420E-01 0.88921918E+02</pdfrwt>
<pdfrwt beam="2">  1       -1 0.36631758E-02 0.88921918E+02</pdfrwt>
<totfact> 0.10852022E+05</totfact>
</mgrwt>
</event>
<event>
 5    1  0.3957498E+001  0.1214602E+03  0.7546771E-02  0.1240707E+00
          2   -1    0    0  501    0  0.00000000000E+00  0.00000000000E+00  0.23800356746E+03  0.23800356746E+03  0.00000000000E+00 0.  1.
         -2   -1    0    0    0  501 -0.00000000000E+00 -0.00000000000E+00 -0.15496177316E+02  0.15496177316E+02  0.00000000000E+00 0. -1.
         23    2    1    2    0    0  0.00000000000E+00  0.00000000000E+00  0.22250739014E+03  0.25349974477E+03  0.12146020720E+03 0.  0.
          2    1    3    3  502    0 -0.21468550905E+02  0.26088213396E+02  0.59294623813E+01  0.34302362605E+02  0.00000000000E+00 0. -1.
         -2    1    3    3    0  502  0.21468550905E+02 -0.26088213396E+02  0.21657792776E+03  0.21919738217E+03  0.00000000000E+00 0.  1.
<mgrwt>
<rscale>  0 0.12146021E+03</rscale>
<asrwt>0</asrwt>
<pdfrwt beam="1">  1        2 0.36615931E-01 0.12146021E+03</pdfrwt>
<pdfrwt beam="2">  1       -2 0.23840274E-02 0.12146021E+03</pdfrwt>
<totfact> 0.75369324E+04</totfact>
</mgrwt>
</event>
<event>
 5    1  0.3957498E+001  0.9150354E+02  0.7546771E-02  0.1299251E+00
          2   -1    0    0  501    0  0.00000000000E+00  0.00000000000E+00  0.10702427773E+04  0.10702427773E+04  0.00000000000E+00 0. -1.
         -2   -1    0    0    0  501 -0.00000000000E+00 -0.00000000000E+00 -0.19558407835E+01  0.19558407835E+01  0.00000000000E+00 0.  1.
         23    2    1    2    0    0  0.00000000000E+00  0.00000000000E+00  0.10682869365E+04  0.10721986181E+04  0.91503540303E+02 0.  0.
          2    1    3    3  502    0 -0.64401997414E+01 -0.31707888922E+02  0.91317689492E+03  0.91374991536E+03  0.00000000000E+00 0. -1.
         -2    1    3    3    0  502  0.64401997414E+01  0.31707888922E+02  0.15511004158E+03  0.15844870271E+03  0.00000000000E+00 0.  1.
<mgrwt>
<rscale>  0 0.91503540E+02</rscale>
<asrwt>0</asrwt>
<pdfrwt beam="1">  1        2 0.16465227E+00 0.91503540E+02</pdfrwt>
<pdfrwt beam="2">  1       -2 0.30089944E-03 0.91503540E+02</pdfrwt>
<totfact> 0.24797639E+05</totfact>
</mgrwt>
</event>
<event>
 5    1  0.3957498E+001  0.9060647E+02  0.7546771E-02  0.1301390E+00
          2   -1    0    0  501    0  0.00000000000E+00  0.00000000000E+00  0.18620254421E+03  0.18620254421E+03  0.00000000000E+00 0. -1.
         -2   -1    0    0    0  501 -0.00000000000E+00 -0.00000000000E+00 -0.11022314911E+02  0.11022314911E+02  0.00000000000E+00 0.  1.
         23    2    1    2    0    0  0.00000000000E+00  0.00000000000E+00  0.17518022930E+03  0.19722485912E+03  0.90606469513E+02 0.  0.
          2    1    3    3  502    0 -0.44614250042E+02 -0.59602412447E+01  0.76400147328E+02  0.88673210691E+02  0.00000000000E+00 0. -1.
         -2    1    3    3    0  502  0.44614250042E+02  0.59602412447E+01  0.98780081968E+02  0.10855164843E+03  0.00000000000E+00 0.  1.
<mgrwt>
<rscale>  0 0.90606470E+02</rscale>
<asrwt>0</asrwt>
<pdfrwt beam="1">  1        2 0.28646543E-01 0.90606470E+02</pdfrwt>
<pdfrwt beam="2">  1       -2 0.16957409E-02 0.90606470E+02</pdfrwt>
<totfact> 0.15332634E+05</totfact>
</mgrwt>
</event>
<event>
 5    1  0.3957498E+001  0.9068932E+02  0.7546771E-02  0.1301191E+00
          1   -1    0    0  501    0  0.00000000000E+00  0.00000000000E+00  0.45962173381E+01  0.45962173381E+01  0.00000000000E+00 0. -1.
         -1   -1    0    0    0  501 -0.00000000000E+00 -0.00000000000E+00 -0.44735446624E+03  0.44735446624E+03  0.00000000000E+00 0.  1.
         23    2    1    2    0    0  0.00000000000E+00  0.00000000000E+00 -0.44275824890E+03  0.45195068358E+03  0.90689323605E+02 0.  0.
          2    1    3    3  502    0 -0.37071736755E+02  0.14203042574E+02 -0.11218482782E+03  0.11900199863E+03  0.00000000000E+00 0. -1.
         -2    1    3    3    0  502  0.37071736755E+02 -0.14203042574E+02 -0.33057342108E+03  0.33294868495E+03  0.00000000000E+00 0.  1.
<mgrwt>
<rscale>  0 0.90689324E+02</rscale>
<asrwt>0</asrwt>
<pdfrwt beam="1">  1        1 0.70711014E-03 0.90689324E+02</pdfrwt>
<pdfrwt beam="2">  1       -1 0.68823785E-01 0.90689324E+02</pdfrwt>
<totfact> 0.50926497E+04</totfact>
</mgrwt>
</event>
<event>
 5    1  0.3957498E+001  0.9049441E+02  0.7546771E-02  0.1301659E+00
         -2   -1    0    0    0  501 -0.00000000000E+00  0.00000000000E+00  0.53260867513E+01  0.53260867513E+01  0.00000000000E+00 0. -1.
          2   -1    0    0  501    0  0.00000000000E+00 -0.00000000000E+00 -0.38439286516E+03  0.38439286516E+03  0.00000000000E+00 0.  1.
         23    2    1    2    0    0  0.00000000000E+00  0.00000000000E+00 -0.37906677841E+03  0.38971895191E+03  0.90494414113E+02 0.  0.
          2    1    3    3  502    0 -0.19530823861E+02  0.37955622577E+02 -0.12490246798E+03  0.13199510928E+03  0.00000000000E+00 0. -1.
         -2    1    3    3    0  502  0.19530823861E+02 -0.37955622577E+02 -0.25416431043E+03  0.25772384263E+03  0.00000000000E+00 0.  1.
<mgrwt>
<rscale>  0 0.90494414E+02</rscale>
<asrwt>0</asrwt>
<pdfrwt beam="2">  1        2 0.59137367E-01 0.90494414E+02</pdfrwt>
<pdfrwt beam="1">  1       -2 0.81939792E-03 0.90494414E+02</pdfrwt>
<totfact> 0.20075339E+05</totfact>
</mgrwt>
</event>
<event>
 5    1  0.3957498E+001  0.7895047E+02  0.7546771E-02  0.1332057E+00
         -1   -1    0    0    0  501 -0.00000000000E+00  0.00000000000E+00  0.11384168752E+02  0.11384168752E+02  0.00000000000E+00 0.  1.
          1   -1    0    0  501    0  0.00000000000E+00 -0.00000000000E+00 -0.13688255067E+03  0.13688255067E+03  0.00000000000E+00 0. -1.
         23    2    1    2    0    0  0.00000000000E+00  0.00000000000E+00 -0.12549838192E+03  0.14826671942E+03  0.78950466900E+02 0.  0.
          2    1    3    3  502    0  0.82519599904E+01  0.34452269303E+02 -0.30046576689E+02  0.46452669186E+02  0.00000000000E+00 0. -1.
         -2    1    3    3    0  502 -0.82519599904E+01 -0.34452269303E+02 -0.95451805227E+02  0.10181405023E+03  0.00000000000E+00 0.  1.
<mgrwt>
<rscale>  0 0.78950467E+02</rscale>
<asrwt>0</asrwt>
<pdfrwt beam="2">  1        1 0.21058855E-01 0.78950467E+02</pdfrwt>
<pdfrwt beam="1">  1       -1 0.17514105E-02 0.78950467E+02</pdfrwt>
<totfact> 0.16218870E+05</totfact>
</mgrwt>
</event>
<event>
 5    1  0.3957498E+001  0.9105620E+02  0.7546771E-02  0.1300314E+00
          2   -1    0    0  501    0  0.00000000000E+00  0.00000000000E+00  0.19920442760E+03  0.19920442760E+03  0.00000000000E+00 0. -1.
         -2   -1    0    0    0  501 -0.00000000000E+00 -0.00000000000E+00 -0.10405431497E+02  0.10405431497E+02  0.00000000000E+00 0.  1.
         23    2    1    2    0    0  0.00000000000E+00  0.00000000000E+00  0.18879899610E+03  0.20960985910E+03  0.91056202980E+02 0.  0.
          2    1    3    3  502    0  0.20158757592E+02  0.18977204105E+02  0.11199495265E+02  0.29865339065E+02  0.00000000000E+00 0. -1.
         -2    1    3    3    0  502 -0.20158757592E+02 -0.18977204105E+02  0.17759950084E+03  0.17974452003E+03  0.00000000000E+00 0.  1.
<mgrwt>
<rscale>  0 0.91056203E+02</rscale>
<asrwt>0</asrwt>
<pdfrwt beam="1">  1        2 0.30646832E-01 0.91056203E+02</pdfrwt>
<pdfrwt beam="2">  1       -2 0.16008358E-02 0.91056203E+02</pdfrwt>
<totfact> 0.15500894E+05</totfact>
</mgrwt>
</event>
<event>
 5    1  0.3957498E+001  0.9139071E+02  0.7546771E-02  0.1299518E+00
         -4   -1    0    0    0  501 -0.00000000000E+00  0.00000000000E+00  0.45198300381E+03  0.45198300381E+03  0.00000000000E+00 0.  1.
          4   -1    0    0  501    0  0.00000000000E+00 -0.00000000000E+00 -0.46197878821E+01  0.46197878821E+01  0.00000000000E+00 0. -1.
         23    2    1    2    0    0  0.00000000000E+00  0.00000000000E+00  0.44736321593E+03  0.45660279170E+03  0.91390712963E+02 0.  0.
          2    1    3    3  502    0 -0.33554485878E+02  0.87913043708E+01  0.75061534467E+02  0.82688720583E+02  0.00000000000E+00 0. -1.
         -2    1    3    3    0  502  0.33554485878E+02 -0.87913043708E+01  0.37230168147E+03  0.37391407111E+03  0.00000000000E+00 0.  1.
<mgrwt>
<rscale>  0 0.91390713E+02</rscale>
<asrwt>0</asrwt>
<pdfrwt beam="2">  1        4 0.71073696E-03 0.91390713E+02</pdfrwt>
<pdfrwt beam="1">  1       -4 0.69535811E-01 0.91390713E+02</pdfrwt>
<totfact> 0.13827615E+04</totfact>
</mgrwt>
</event>
<event>
 5    1  0.3957498E+001  0.9132742E+02  0.7546771E-02  0.1299669E+00
          2   -1    0    0  501    0  0.00000000000E+00  0.00000000000E+00  0.30151463532E+03  0.30151463532E+03  0.00000000000E+00 0. -1.
         -2   -1    0    0    0  501 -0.00000000000E+00 -0.00000000000E+00 -0.69156649243E+01  0.69156649243E+01  0.00000000000E+00 0.  1.
         23    2    1    2    0    0  0.00000000000E+00  0.00000000000E+00  0.29459897040E+03  0.30843030024E+03  0.91327415110E+02 0.  0.
          2    1    3    3  502    0  0.39804105168E+01 -0.44890487785E+02  0.17215677826E+03  0.17795773616E+03  0.00000000000E+00 0. -1.
         -2    1    3    3    0  502 -0.39804105168E+01  0.44890487785E+02  0.12244219214E+03  0.13047256408E+03  0.00000000000E+00 0.  1.
<mgrwt>
<rscale>  0 0.91327415E+02</rscale>
<asrwt>0</asrwt>
<pdfrwt beam="1">  1        2 0.46386857E-01 0.91327415E+02</pdfrwt>
<pdfrwt beam="2">  1       -2 0.10639487E-02 0.91327415E+02</pdfrwt>
<totfact> 0.17920607E+05</totfact>
</mgrwt>
</event>
<event>
 5    1  0.3957498E+001  0.9153101E+02  0.7546771E-02  0.1299186E+00
         -1   -1    0    0    0  501 -0.00000000000E+00  0.00000000000E+00  0.91494596213E+02  0.91494596213E+02  0.00000000000E+00 0.  1.
          1   -1    0    0  501    0  0.00000000000E+00 -0.00000000000E+00 -0.22891861173E+02  0.22891861173E+02  0.00000000000E+00 0. -1.
         23    2    1    2    0    0  0.00000000000E+00  0.00000000000E+00  0.68602735039E+02  0.11438645739E+03  0.91531013205E+02 0.  0.
          2    1    3    3  502    0  0.35974032477E+02  0.72249072370E+01  0.68483649833E+02  0.77693890311E+02  0.00000000000E+00 0. -1.
         -2    1    3    3    0  502 -0.35974032477E+02 -0.72249072370E+01  0.11908520646E+00  0.36692567075E+02  0.00000000000E+00 0.  1.
<mgrwt>
<rscale>  0 0.91531013E+02</rscale>
<asrwt>0</asrwt>
<pdfrwt beam="2">  1        1 0.35218248E-02 0.91531013E+02</pdfrwt>
<pdfrwt beam="1">  1       -1 0.14076092E-01 0.91531013E+02</pdfrwt>
<totfact> 0.81878667E+04</totfact>
</mgrwt>
</event>
<event>
 5    1  0.3957498E+001  0.9120129E+02  0.7546771E-02  0.1299968E+00
          4   -1    0    0  501    0  0.00000000000E+00  0.00000000000E+00  0.13205269143E+03  0.13205269143E+03  0.00000000000E+00 0. -1.
         -4   -1    0    0    0  501 -0.00000000000E+00 -0.00000000000E+00 -0.15746886870E+02  0.15746886870E+02  0.00000000000E+00 0.  1.
         23    2    1    2    0    0  0.00000000000E+00  0.00000000000E+00  0.11630580456E+03  0.14779957830E+03  0.91201289307E+02 0.  0.
          2    1    3    3  502    0 -0.20226201243E+02 -0.40826411296E+02  0.55110807687E+02  0.71505917237E+02  0.00000000000E+00 0.  1.
         -2    1    3    3    0  502  0.20226201243E+02  0.40826411296E+02  0.61194996874E+02  0.76293661063E+02  0.00000000000E+00 0. -1.
<mgrwt>
<rscale>  0 0.91201289E+02</rscale>
<asrwt>0</asrwt>
<pdfrwt beam="1">  1        4 0.20315798E-01 0.91201289E+02</pdfrwt>
<pdfrwt beam="2">  1       -4 0.24225981E-02 0.91201289E+02</pdfrwt>
<totfact> 0.23766863E+04</totfact>
</mgrwt>
</event>
<event>
 5    1  0.3957498E+001  0.9201013E+02  0.7546771E-02  0.1298056E+00
          4   -1    0    0  501    0  0.00000000000E+00  0.00000000000E+00  0.19026723823E+03  0.19026723823E+03  0.00000000000E+00 0. -1.
         -4   -1    0    0    0  501 -0.00000000000E+00 -0.00000000000E+00 -0.11123648416E+02  0.11123648416E+02  0.00000000000E+00 0.  1.
         23    2    1    2    0    0  0.00000000000E+00  0.00000000000E+00  0.17914358982E+03  0.20139088665E+03  0.92010126904E+02 0.  0.
          2    1    3    3  502    0  0.30172871543E+02  0.17186551020E+02  0.15562418698E+03  0.15945114389E+03  0.00000000000E+00 0. -1.
         -2    1    3    3    0  502 -0.30172871543E+02 -0.17186551020E+02  0.23519402831E+02  0.41939742758E+02  0.00000000000E+00 0.  1.
<mgrwt>
<rscale>  0 0.92010127E+02</rscale>
<asrwt>0</asrwt>
<pdfrwt beam="1">  1        4 0.29271880E-01 0.92010127E+02</pdfrwt>
<pdfrwt beam="2">  1       -4 0.17113307E-02 0.92010127E+02</pdfrwt>
<totfact> 0.20813891E+04</totfact>
</mgrwt>
</event>
<event>
 5    1  0.3957498E+001  0.1009255E+03  0.7546771E-02  0.1278362E+00
          2   -1    0    0  501    0  0.00000000000E+00  0.00000000000E+00  0.80308813239E+03  0.80308813239E+03  0.00000000000E+00 0. -1.
         -2   -1    0    0    0  501 -0.00000000000E+00 -0.00000000000E+00 -0.31708739536E+01  0.31708739536E+01  0.00000000000E+00 0.  1.
         23    2    1    2    0    0  0.00000000000E+00  0.00000000000E+00  0.79991725843E+03  0.80625900634E+03  0.10092554169E+03 0.  0.
          2    1    3    3  502    0 -0.33281156608E+02  0.10797421816E+02  0.69045038725E+03  0.69133635588E+03  0.00000000000E+00 0. -1.
         -2    1    3    3    0  502  0.33281156608E+02 -0.10797421816E+02  0.10946687118E+03  0.11492265046E+03  0.00000000000E+00 0.  1.
<mgrwt>
<rscale>  0 0.10092554E+03</rscale>
<asrwt>0</asrwt>
<pdfrwt beam="1">  1        2 0.12355186E+00 0.10092554E+03</pdfrwt>
<pdfrwt beam="2">  1       -2 0.48782740E-03 0.10092554E+03</pdfrwt>
<totfact> 0.18636165E+05</totfact>
</mgrwt>
</event>
<event>
 5    1  0.3957498E+001  0.9225842E+02  0.7546771E-02  0.1297473E+00
          2   -1    0    0  501    0  0.00000000000E+00  0.00000000000E+00  0.67740941652E+01  0.67740941652E+01  0.00000000000E+00 0.  1.
         -2   -1    0    0    0  501 -0.00000000000E+00 -0.00000000000E+00 -0.31412379658E+03  0.31412379658E+03  0.00000000000E+00 0. -1.
         23    2    1    2    0    0  0.00000000000E+00  0.00000000000E+00 -0.30734970241E+03  0.32089789074E+03  0.92258423519E+02 0.  0.
          2    1    3    3  502    0  0.31077527198E+02 -0.28851794351E+02 -0.90521333520E+02  0.99961745465E+02  0.00000000000E+00 0. -1.
         -2    1    3    3    0  502 -0.31077527198E+02  0.28851794351E+02 -0.21682836889E+03  0.22093614528E+03  0.00000000000E+00 0.  1.
<mgrwt>
<rscale>  0 0.92258424E+02</rscale>
<asrwt>0</asrwt>
<pdfrwt beam="1">  1        2 0.10421683E-02 0.92258424E+02</pdfrwt>
<pdfrwt beam="2">  1       -2 0.48326739E-01 0.92258424E+02</pdfrwt>
<totfact> 0.48190827E+04</totfact>
</mgrwt>
</event>
<event>
 5    1  0.3957498E+001  0.9187059E+02  0.7546771E-02  0.1298384E+00
         -2   -1    0    0    0  501 -0.00000000000E+00  0.00000000000E+00  0.18502544464E+03  0.18502544464E+03  0.00000000000E+00 0. -1.
          2   -1    0    0  501    0  0.00000000000E+00 -0.00000000000E+00 -0.11404114431E+02  0.11404114431E+02  0.00000000000E+00 0.  1.
         23    2    1    2    0    0  0.00000000000E+00  0.00000000000E+00  0.17362133021E+03  0.19642955907E+03  0.91870590361E+02 0.  0.
          2    1    3    3  502    0 -0.29641176991E+02  0.22907500932E+02  0.29971540616E+02  0.47975475185E+02  0.00000000000E+00 0.  1.
         -2    1    3    3    0  502  0.29641176991E+02 -0.22907500932E+02  0.14364978960E+03  0.14845408389E+03  0.00000000000E+00 0. -1.
<mgrwt>
<rscale>  0 0.91870590E+02</rscale>
<asrwt>0</asrwt>
<pdfrwt beam="2">  1        2 0.17544793E-02 0.91870590E+02</pdfrwt>
<pdfrwt beam="1">  1       -2 0.28465451E-01 0.91870590E+02</pdfrwt>
<totfact> 0.63170352E+04</totfact>
</mgrwt>
</event>
<event>
 5    1  0.3957498E+001  0.9179784E+02  0.7546771E-02  0.1298555E+00
          2   -1    0    0  501    0  0.00000000000E+00  0.00000000000E+00  0.11768555158E+02  0.11768555158E+02  0.00000000000E+00 0. -1.
         -2   -1    0    0    0  501 -0.00000000000E+00 -0.00000000000E+00 -0.17901184723E+03  0.17901184723E+03  0.00000000000E+00 0.  1.
         23    2    1    2    0    0  0.00000000000E+00  0.00000000000E+00 -0.16724329207E+03  0.19078040238E+03  0.91797838709E+02 0.  0.
          2    1    3    3  502    0 -0.10857149155E+02 -0.17227884014E+02  0.18664676434E+01  0.20448994519E+02  0.00000000000E+00 0. -1.
         -2    1    3    3    0  502  0.10857149155E+02  0.17227884014E+02 -0.16910975971E+03  0.17033140786E+03  0.00000000000E+00 0.  1.
<mgrwt>
<rscale>  0 0.91797839E+02</rscale>
<asrwt>0</asrwt>
<pdfrwt beam="1">  1        2 0.18105469E-02 0.91797839E+02</pdfrwt>
<pdfrwt beam="2">  1       -2 0.27540284E-01 0.91797839E+02</pdfrwt>
<totfact> 0.64159579E+04</totfact>
</mgrwt>
</event>
<event>
 5    1  0.3957498E+001  0.9213707E+02  0.7546771E-02  0.1297757E+00
          2   -1    0    0  501    0  0.00000000000E+00  0.00000000000E+00  0.65714557749E+03  0.65714557749E+03  0.00000000000E+00 0. -1.
         -2   -1    0    0    0  501 -0.00000000000E+00 -0.00000000000E+00 -0.32295885691E+01  0.32295885691E+01  0.00000000000E+00 0.  1.
         23    2    1    2    0    0  0.00000000000E+00  0.00000000000E+00  0.65391598892E+03  0.66037516606E+03  0.92137068442E+02 0.  0.
          2    1    3    3  502    0 -0.69515909773E+00 -0.32219392938E+02  0.56290711179E+03  0.56382886502E+03  0.00000000000E+00 0. -1.
         -2    1    3    3    0  502  0.69515909773E+00  0.32219392938E+02  0.91008877136E+02  0.96546301042E+02  0.00000000000E+00 0.  1.
<mgrwt>
<rscale>  0 0.92137068E+02</rscale>
<asrwt>0</asrwt>
<pdfrwt beam="1">  1        2 0.10109921E+00 0.92137068E+02</pdfrwt>
<pdfrwt beam="2">  1       -2 0.49686030E-03 0.92137068E+02</pdfrwt>
<totfact> 0.22713759E+05</totfact>
</mgrwt>
</event>
<event>
 5    1  0.3957498E+001  0.9151250E+02  0.7546771E-02  0.1299230E+00
         -2   -1    0    0    0  501 -0.00000000000E+00  0.00000000000E+00  0.47210868220E+01  0.47210868220E+01  0.00000000000E+00 0.  1.
          2   -1    0    0  501    0  0.00000000000E+00 -0.00000000000E+00 -0.44346445673E+03  0.44346445673E+03  0.00000000000E+00 0. -1.
         23    2    1    2    0    0  0.00000000000E+00  0.00000000000E+00 -0.43874336991E+03  0.44818554355E+03  0.91512495380E+02 0.  0.
          2    1    3    3  502    0  0.26775210203E+02  0.78297835846E+01 -0.39699874998E+03  0.39797766881E+03  0.00000000000E+00 0. -1.
         -2    1    3    3    0  502 -0.26775210203E+02 -0.78297835846E+01 -0.41744619931E+02  0.50207874737E+02  0.00000000000E+00 0.  1.
<mgrwt>
<rscale>  0 0.91512495E+02</rscale>
<asrwt>0</asrwt>
<pdfrwt beam="2">  1        2 0.68225277E-01 0.91512495E+02</pdfrwt>
<pdfrwt beam="1">  1       -2 0.72632130E-03 0.91512495E+02</pdfrwt>
<totfact> 0.20498828E+05</totfact>
</mgrwt>
</event>
<event>
 5    1  0.3957498E+001  0.8219398E+02  0.7546771E-02  0.1322938E+00
         -1   -1    0    0    0  501 -0.00000000000E+00  0.00000000000E+00  0.13237194996E+01  0.13237194996E+01  0.00000000000E+00 0.  1.
          1   -1    0    0  501    0  0.00000000000E+00 -0.00000000000E+00 -0.12759218710E+04  0.12759218710E+04  0.00000000000E+00 0. -1.
         23    2    1    2    0    0  0.00000000000E+00  0.00000000000E+00 -0.12745981515E+04  0.12772455905E+04  0.82193981788E+02 0.  0.
          2    1    3    3  502    0  0.26283388964E+02 -0.27625080656E+02 -0.87551417615E+03  0.87634413004E+03  0.00000000000E+00 0. -1.
         -2    1    3    3    0  502 -0.26283388964E+02  0.27625080656E+02 -0.39908397531E+03  0.40090146042E+03  0.00000000000E+00 0.  1.
<mgrwt>
<rscale>  0 0.82193982E+02</rscale>
<asrwt>0</asrwt>
<pdfrwt beam="2">  1        1 0.19629514E+00 0.82193982E+02</pdfrwt>
<pdfrwt beam="1">  1       -1 0.20364971E-03 0.82193982E+02</pdfrwt>
<totfact> 0.16210592E+05</totfact>
</mgrwt>
</event>
<event>
 5    1  0.3957498E+001  0.8998598E+02  0.7546771E-02  0.1302886E+00
         -2   -1    0    0    0  501 -0.00000000000E+00  0.00000000000E+00  0.94915158003E+01  0.94915158003E+01  0.00000000000E+00 0.  1.
          2   -1    0    0  501    0  0.00000000000E+00 -0.00000000000E+00 -0.21328197479E+03  0.21328197479E+03  0.00000000000E+00 0. -1.
         23    2    1    2    0    0  0.00000000000E+00  0.00000000000E+00 -0.20379045899E+03  0.22277349059E+03  0.89985981878E+02 0.  0.
          2    1    3    3  502    0 -0.29236907130E+02  0.31082335157E+02 -0.66582672239E+02  0.79083250690E+02  0.00000000000E+00 0. -1.
         -2    1    3    3    0  502  0.29236907130E+02 -0.31082335157E+02 -0.13720778675E+03  0.14369023990E+03  0.00000000000E+00 0.  1.
<mgrwt>
<rscale>  0 0.89985982E+02</rscale>
<asrwt>0</asrwt>
<pdfrwt beam="2">  1        2 0.32812613E-01 0.89985982E+02</pdfrwt>
<pdfrwt beam="1">  1       -2 0.14602331E-02 0.89985982E+02</pdfrwt>
<totfact> 0.16402298E+05</totfact>
</mgrwt>
</event>
<event>
 5    1  0.3957498E+001  0.8978466E+02  0.7546771E-02  0.1303374E+00
         -2   -1    0    0    0  501 -0.00000000000E+00  0.00000000000E+00  0.84848050631E+01  0.84848050631E+01  0.00000000000E+00 0. -1.
          2   -1    0    0  501    0  0.00000000000E+00 -0.00000000000E+00 -0.23752124151E+03  0.23752124151E+03  0.00000000000E+00 0.  1.
         23    2    1    2    0    0  0.00000000000E+00  0.00000000000E+00 -0.22903643644E+03  0.24600604657E+03  0.89784663112E+02 0.  0.
          2    1    3    3  502    0 -0.90000337680E+01  0.20550665052E+02 -0.79768607395E+01  0.23810937595E+02  0.00000000000E+00 0. -1.
         -2    1    3    3    0  502  0.90000337680E+01 -0.20550665052E+02 -0.22105957570E+03  0.22219510897E+03  0.00000000000E+00 0.  1.
<mgrwt>
<rscale>  0 0.89784663E+02</rscale>
<asrwt>0</asrwt>
<pdfrwt beam="2">  1        2 0.36541734E-01 0.89784663E+02</pdfrwt>
<pdfrwt beam="1">  1       -2 0.13053545E-02 0.89784663E+02</pdfrwt>
<totfact> 0.17164155E+05</totfact>
</mgrwt>
</event>
<event>
 5    1  0.3957498E+001  0.9121284E+02  0.7546771E-02  0.1299941E+00
         -1   -1    0    0    0  501 -0.00000000000E+00  0.00000000000E+00  0.46043244047E+01  0.46043244047E+01  0.00000000000E+00 0.  1.
          1   -1    0    0  501    0  0.00000000000E+00 -0.00000000000E+00 -0.45173737364E+03  0.45173737364E+03  0.00000000000E+00 0. -1.
         23    2    1    2    0    0  0.00000000000E+00  0.00000000000E+00 -0.44713304924E+03  0.45634169804E+03  0.91212837122E+02 0.  0.
          2    1    3    3  502    0  0.50358875929E+01  0.30230205148E+02 -0.39254201191E+03  0.39373653194E+03  0.00000000000E+00 0. -1.
         -2    1    3    3    0  502 -0.50358875929E+01 -0.30230205148E+02 -0.54591037323E+02  0.62605166106E+02  0.00000000000E+00 0.  1.
<mgrwt>
<rscale>  0 0.91212837E+02</rscale>
<asrwt>0</asrwt>
<pdfrwt beam="2">  1        1 0.69498060E-01 0.91212837E+02</pdfrwt>
<pdfrwt beam="1">  1       -1 0.70835757E-03 0.91212837E+02</pdfrwt>
<totfact> 0.13728893E+05</totfact>
</mgrwt>
</event>
<event>
 5    1  0.3957498E+001  0.9508247E+02  0.7546771E-02  0.1290990E+00
          1   -1    0    0  501    0  0.00000000000E+00  0.00000000000E+00  0.15102767051E+03  0.15102767051E+03  0.00000000000E+00 0. -1.
         -1   -1    0    0    0  501 -0.00000000000E+00 -0.00000000000E+00 -0.14965263351E+02  0.14965263351E+02  0.00000000000E+00 0.  1.
         23    2    1    2    0    0  0.00000000000E+00  0.00000000000E+00  0.13606240716E+03  0.16599293386E+03  0.95082466574E+02 0.  0.
          2    1    3    3  502    0  0.14911747870E+02 -0.35359580674E+02  0.11702226397E+03  0.12315384864E+03  0.00000000000E+00 0. -1.
         -2    1    3    3    0  502 -0.14911747870E+02  0.35359580674E+02  0.19040143190E+02  0.42839085222E+02  0.00000000000E+00 0.  1.
<mgrwt>
<rscale>  0 0.95082467E+02</rscale>
<asrwt>0</asrwt>
<pdfrwt beam="1">  1        1 0.23235025E-01 0.95082467E+02</pdfrwt>
<pdfrwt beam="2">  1       -1 0.23023483E-02 0.95082467E+02</pdfrwt>
<totfact> 0.10022691E+05</totfact>
</mgrwt>
</event>
<event>
 5    1  0.3957498E+001  0.9079958E+02  0.7546771E-02  0.1300927E+00
         -2   -1    0    0    0  501 -0.00000000000E+00  0.00000000000E+00  0.36203452942E+01  0.36203452942E+01  0.00000000000E+00 0. -1.
          2   -1    0    0  501    0  0.00000000000E+00 -0.00000000000E+00 -0.56932161861E+03  0.56932161861E+03  0.00000000000E+00 0.  1.
         23    2    1    2    0    0  0.00000000000E+00  0.00000000000E+00 -0.56570127332E+03  0.57294196391E+03  0.90799578035E+02 0.  0.
          2    1    3    3  502    0 -0.23297033632E+02  0.12119250478E+02 -0.49167840733E+02  0.55741408042E+02  0.00000000000E+00 0. -1.
         -2    1    3    3    0  502  0.23297033632E+02 -0.12119250478E+02 -0.51653343259E+03  0.51720055586E+03  0.00000000000E+00 0.  1.
<mgrwt>
<rscale>  0 0.90799578E+02</rscale>
<asrwt>0</asrwt>
<pdfrwt beam="2">  1        2 0.87587889E-01 0.90799578E+02</pdfrwt>
<pdfrwt beam="1">  1       -2 0.55697653E-03 0.90799578E+02</pdfrwt>
<totfact> 0.22687295E+05</totfact>
</mgrwt>
</event>
<event>
 5    1  0.3957498E+001  0.9090168E+02  0.7546771E-02  0.1300683E+00
         -2   -1    0    0    0  501 -0.00000000000E+00  0.00000000000E+00  0.68413354493E+00  0.68413354493E+00  0.00000000000E+00 0.  1.
          2   -1    0    0  501    0  0.00000000000E+00 -0.00000000000E+00 -0.30195550594E+04  0.30195550594E+04  0.00000000000E+00 0. -1.
         23    2    1    2    0    0  0.00000000000E+00  0.00000000000E+00 -0.30188709259E+04  0.30202391930E+04  0.90901681105E+02 0.  0.
          2    1    3    3  502    0  0.28853210777E+01  0.42458655390E+02 -0.20397064769E+04  0.20401503803E+04  0.00000000000E+00 0. -1.
         -2    1    3    3    0  502 -0.28853210777E+01 -0.42458655390E+02 -0.97916444903E+03  0.98008881268E+03  0.00000000000E+00 0.  1.
<mgrwt>
<rscale>  0 0.90901681E+02</rscale>
<asrwt>0</asrwt>
<pdfrwt beam="2">  1        2 0.46455108E+00 0.90901681E+02</pdfrwt>
<pdfrwt beam="1">  1       -2 0.10525038E-03 0.90901681E+02</pdfrwt>
<totfact> 0.10102914E+05</totfact>
</mgrwt>
</event>
<event>
 5    1  0.3957498E+001  0.9113636E+02  0.7546771E-02  0.1300123E+00
         -2   -1    0    0    0  501 -0.00000000000E+00  0.00000000000E+00  0.35695144556E+02  0.35695144556E+02  0.00000000000E+00 0.  1.
          2   -1    0    0  501    0  0.00000000000E+00 -0.00000000000E+00 -0.58172027887E+02  0.58172027887E+02  0.00000000000E+00 0. -1.
         23    2    1    2    0    0  0.00000000000E+00  0.00000000000E+00 -0.22476883330E+02  0.93867172443E+02  0.91136358158E+02 0.  0.
          2    1    3    3  502    0  0.35038478319E+01 -0.23360246103E+02  0.28896878537E+02  0.37323017520E+02  0.00000000000E+00 0.  1.
         -2    1    3    3    0  502 -0.35038478319E+01  0.23360246103E+02 -0.51373761867E+02  0.56544154924E+02  0.00000000000E+00 0. -1.
<mgrwt>
<rscale>  0 0.91136358E+02</rscale>
<asrwt>0</asrwt>
<pdfrwt beam="2">  1        2 0.89495427E-02 0.91136358E+02</pdfrwt>
<pdfrwt beam="1">  1       -2 0.54915607E-02 0.91136358E+02</pdfrwt>
<totfact> 0.10532706E+05</totfact>
</mgrwt>
</event>
<event>
 5    1  0.3957498E+001  0.9132922E+02  0.7546771E-02  0.1299664E+00
          1   -1    0    0  501    0  0.00000000000E+00  0.00000000000E+00  0.92987866929E+01  0.92987866929E+01  0.00000000000E+00 0. -1.
         -1   -1    0    0    0  501 -0.00000000000E+00 -0.00000000000E+00 -0.22425040475E+03  0.22425040475E+03  0.00000000000E+00 0.  1.
         23    2    1    2    0    0  0.00000000000E+00  0.00000000000E+00 -0.21495161806E+03  0.23354919144E+03  0.91329221601E+02 0.  0.
          2    1    3    3  502    0  0.45055676493E+02  0.58785230548E+01 -0.11910644128E+03  0.12747907817E+03  0.00000000000E+00 0. -1.
         -2    1    3    3    0  502 -0.45055676493E+02 -0.58785230548E+01 -0.95845176776E+02  0.10607011327E+03  0.00000000000E+00 0.  1.
<mgrwt>
<rscale>  0 0.91329222E+02</rscale>
<asrwt>0</asrwt>
<pdfrwt beam="1">  1        1 0.14305827E-02 0.91329222E+02</pdfrwt>
<pdfrwt beam="2">  1       -1 0.34500060E-01 0.91329222E+02</pdfrwt>
<totfact> 0.66801174E+04</totfact>
</mgrwt>
</event>
<event>
 5    1  0.3957498E+001  0.9212443E+02  0.7546771E-02  0.1297787E+00
         -3   -1    0    0    0  501 -0.00000000000E+00  0.00000000000E+00  0.59450047905E+02  0.59450047905E+02  0.00000000000E+00 0.  1.
          3   -1    0    0  501    0  0.00000000000E+00 -0.00000000000E+00 -0.35689251663E+02  0.35689251663E+02  0.00000000000E+00 0. -1.
         23    2    1    2    0    0  0.00000000000E+00  0.00000000000E+00  0.23760796242E+02  0.95139299567E+02  0.92124431527E+02 0.  0.
          2    1    3    3  502    0  0.19027081583E+02  0.40625083981E+02  0.10835726317E+01  0.44873170288E+02  0.00000000000E+00 0.  1.
         -2    1    3    3    0  502 -0.19027081583E+02 -0.40625083981E+02  0.22677223611E+02  0.50266129279E+02  0.00000000000E+00 0. -1.
<mgrwt>
<rscale>  0 0.92124432E+02</rscale>
<asrwt>0</asrwt>
<pdfrwt beam="2">  1        3 0.54906541E-02 0.92124432E+02</pdfrwt>
<pdfrwt beam="1">  1       -3 0.91461612E-02 0.92124432E+02</pdfrwt>
<totfact> 0.34062014E+04</totfact>
</mgrwt>
</event>
<event>
 5    1  0.3957498E+001  0.8990759E+02  0.7546771E-02  0.1303076E+00
         -1   -1    0    0    0  501 -0.00000000000E+00  0.00000000000E+00  0.27915893199E+02  0.27915893199E+02  0.00000000000E+00 0.  1.
          1   -1    0    0  501    0  0.00000000000E+00 -0.00000000000E+00 -0.72390436079E+02  0.72390436079E+02  0.00000000000E+00 0. -1.
         23    2    1    2    0    0  0.00000000000E+00  0.00000000000E+00 -0.44474542880E+02  0.10030632928E+03  0.89907589941E+02 0.  0.
          2    1    3    3  502    0 -0.22228146322E+02 -0.26953497177E+02 -0.53798080573E+02  0.64146823556E+02  0.00000000000E+00 0. -1.
         -2    1    3    3    0  502  0.22228146322E+02  0.26953497177E+02  0.93235376938E+01  0.36159505722E+02  0.00000000000E+00 0.  1.
<mgrwt>
<rscale>  0 0.89907590E+02</rscale>
<asrwt>0</asrwt>
<pdfrwt beam="2">  1        1 0.11136990E-01 0.89907590E+02</pdfrwt>
<pdfrwt beam="1">  1       -1 0.42947528E-02 0.89907590E+02</pdfrwt>
<totfact> 0.10307887E+05</totfact>
</mgrwt>
</event>
<event>
 5    1  0.3957498E+001  0.9017196E+02  0.7546771E-02  0.1302436E+00
         -3   -1    0    0    0  501 -0.00000000000E+00  0.00000000000E+00  0.15046560002E+03  0.15046560002E+03  0.00000000000E+00 0.  1.
          3   -1    0    0  501    0  0.00000000000E+00 -0.00000000000E+00 -0.13509702203E+02  0.13509702203E+02  0.00000000000E+00 0. -1.
         23    2    1    2    0    0  0.00000000000E+00  0.00000000000E+00  0.13695589782E+03  0.16397530222E+03  0.90171956795E+02 0.  0.
          2    1    3    3  502    0 -0.27838623246E+02  0.25291207274E+02  0.23267345768E+02  0.44226728216E+02  0.00000000000E+00 0. -1.
         -2    1    3    3    0  502  0.27838623246E+02 -0.25291207274E+02  0.11368855205E+03  0.11974857401E+03  0.00000000000E+00 0.  1.
<mgrwt>
<rscale>  0 0.90171957E+02</rscale>
<asrwt>0</asrwt>
<pdfrwt beam="2">  1        3 0.20784158E-02 0.90171957E+02</pdfrwt>
<pdfrwt beam="1">  1       -3 0.23148553E-01 0.90171957E+02</pdfrwt>
<totfact> 0.31399625E+04</totfact>
</mgrwt>
</event>
<event>
 5    1  0.3957498E+001  0.9183725E+02  0.7546771E-02  0.1298463E+00
          3   -1    0    0  501    0  0.00000000000E+00  0.00000000000E+00  0.34187719864E+03  0.34187719864E+03  0.00000000000E+00 0. -1.
         -3   -1    0    0    0  501 -0.00000000000E+00 -0.00000000000E+00 -0.61674785529E+01  0.61674785529E+01  0.00000000000E+00 0.  1.
         23    2    1    2    0    0  0.00000000000E+00  0.00000000000E+00  0.33570972009E+03  0.34804467719E+03  0.91837253668E+02 0.  0.
          2    1    3    3  502    0  0.20562513996E+02 -0.83429953073E+01  0.32020747735E+03  0.32097546807E+03  0.00000000000E+00 0. -1.
         -2    1    3    3    0  502 -0.20562513996E+02  0.83429953073E+01  0.15502242734E+02  0.27069209119E+02  0.00000000000E+00 0.  1.
<mgrwt>
<rscale>  0 0.91837254E+02</rscale>
<asrwt>0</asrwt>
<pdfrwt beam="1">  1        3 0.52596477E-01 0.91837254E+02</pdfrwt>
<pdfrwt beam="2">  1       -3 0.94884312E-03 0.91837254E+02</pdfrwt>
<totfact> 0.21856583E+04</totfact>
</mgrwt>
</event>
<event>
 5    1  0.3957498E+001  0.9305697E+02  0.7546771E-02  0.1295613E+00
          2   -1    0    0  501    0  0.00000000000E+00  0.00000000000E+00  0.42326793047E+02  0.42326793047E+02  0.00000000000E+00 0. -1.
         -2   -1    0    0    0  501 -0.00000000000E+00 -0.00000000000E+00 -0.51147264860E+02  0.51147264860E+02  0.00000000000E+00 0.  1.
         23    2    1    2    0    0  0.00000000000E+00  0.00000000000E+00 -0.88204718130E+01  0.93474057907E+02  0.93056965234E+02 0.  0.
          2    1    3    3  502    0  0.42226845103E+02  0.19286288141E+02 -0.75599460553E+01  0.47034244354E+02  0.00000000000E+00 0. -1.
         -2    1    3    3    0  502 -0.42226845103E+02 -0.19286288141E+02 -0.12605257576E+01  0.46439813553E+02  0.00000000000E+00 0.  1.
<mgrwt>
<rscale>  0 0.93056965E+02</rscale>
<asrwt>0</asrwt>
<pdfrwt beam="1">  1        2 0.65118143E-02 0.93056965E+02</pdfrwt>
<pdfrwt beam="2">  1       -2 0.78688100E-02 0.93056965E+02</pdfrwt>
<totfact> 0.91243265E+04</totfact>
</mgrwt>
</event>
<event>
 5    1  0.3957498E+001  0.9112299E+02  0.7546771E-02  0.1300155E+00
         -2   -1    0    0    0  501 -0.00000000000E+00  0.00000000000E+00  0.73129458462E+01  0.73129458462E+01  0.00000000000E+00 0.  1.
          2   -1    0    0  501    0  0.00000000000E+00 -0.00000000000E+00 -0.28385961158E+03  0.28385961158E+03  0.00000000000E+00 0. -1.
         23    2    1    2    0    0  0.00000000000E+00  0.00000000000E+00 -0.27654666574E+03  0.29117255743E+03  0.91122993090E+02 0.  0.
          2    1    3    3  502    0 -0.11170209118E+02  0.34101801444E+02 -0.22798008290E+03  0.23078696807E+03  0.00000000000E+00 0. -1.
         -2    1    3    3    0  502  0.11170209118E+02 -0.34101801444E+02 -0.48566582840E+02  0.60385589359E+02  0.00000000000E+00 0.  1.
<mgrwt>
<rscale>  0 0.91122993E+02</rscale>
<asrwt>0</asrwt>
<pdfrwt beam="2">  1        2 0.43670701E-01 0.91122993E+02</pdfrwt>
<pdfrwt beam="1">  1       -2 0.11250688E-02 0.91122993E+02</pdfrwt>
<totfact> 0.17627197E+05</totfact>
</mgrwt>
</event>
<event>
 5    1  0.3957498E+001  0.9180054E+02  0.7546771E-02  0.1298549E+00
          2   -1    0    0  501    0  0.00000000000E+00  0.00000000000E+00  0.32996230235E+02  0.32996230235E+02  0.00000000000E+00 0. -1.
         -2   -1    0    0    0  501 -0.00000000000E+00 -0.00000000000E+00 -0.63850775726E+02  0.63850775726E+02  0.00000000000E+00 0.  1.
         23    2    1    2    0    0  0.00000000000E+00  0.00000000000E+00 -0.30854545491E+02  0.96847005961E+02  0.91800542407E+02 0.  0.
          2    1    3    3  502    0 -0.94613677877E+01  0.39922387468E+02  0.62836417142E+01  0.41506609772E+02  0.00000000000E+00 0. -1.
         -2    1    3    3    0  502  0.94613677877E+01 -0.39922387468E+02 -0.37138187205E+02  0.55340396190E+02  0.00000000000E+00 0.  1.
<mgrwt>
<rscale>  0 0.91800542E+02</rscale>
<asrwt>0</asrwt>
<pdfrwt beam="1">  1        2 0.50763431E-02 0.91800542E+02</pdfrwt>
<pdfrwt beam="2">  1       -2 0.98231963E-02 0.91800542E+02</pdfrwt>
<totfact> 0.88919985E+04</totfact>
</mgrwt>
</event>
<event>
 5    1  0.3957498E+001  0.8623599E+02  0.7546771E-02  0.1312232E+00
         -1   -1    0    0    0  501 -0.00000000000E+00  0.00000000000E+00  0.13980431123E+02  0.13980431123E+02  0.00000000000E+00 0.  1.
          1   -1    0    0  501    0  0.00000000000E+00 -0.00000000000E+00 -0.13298313633E+03  0.13298313633E+03  0.00000000000E+00 0. -1.
         23    2    1    2    0    0  0.00000000000E+00  0.00000000000E+00 -0.11900270521E+03  0.14696356745E+03  0.86235991974E+02 0.  0.
          2    1    3    3  502    0  0.24742599394E+02 -0.16993146802E+02 -0.67481508266E+01  0.30765253170E+02  0.00000000000E+00 0.  1.
         -2    1    3    3    0  502 -0.24742599394E+02  0.16993146802E+02 -0.11225455438E+03  0.11619831428E+03  0.00000000000E+00 0. -1.
<mgrwt>
<rscale>  0 0.86235992E+02</rscale>
<asrwt>0</asrwt>
<pdfrwt beam="2">  1        1 0.20458943E-01 0.86235992E+02</pdfrwt>
<pdfrwt beam="1">  1       -1 0.21508357E-02 0.86235992E+02</pdfrwt>
<totfact> 0.12747892E+05</totfact>
</mgrwt>
</event>
<event>
 5    1  0.3957498E+001  0.8826203E+02  0.7546771E-02  0.1307116E+00
         -2   -1    0    0    0  501 -0.00000000000E+00  0.00000000000E+00  0.17634017288E+03  0.17634017288E+03  0.00000000000E+00 0.  1.
          2   -1    0    0  501    0  0.00000000000E+00 -0.00000000000E+00 -0.11044259552E+02  0.11044259552E+02  0.00000000000E+00 0. -1.
         23    2    1    2    0    0  0.00000000000E+00  0.00000000000E+00  0.16529591333E+03  0.18738443243E+03  0.88262033485E+02 0.  0.
          2    1    3    3  502    0  0.27595734821E+02  0.93600797451E+01  0.12285335658E+02  0.31623806624E+02  0.00000000000E+00 0. -1.
         -2    1    3    3    0  502 -0.27595734821E+02 -0.93600797451E+01  0.15301057767E+03  0.15576062581E+03  0.00000000000E+00 0.  1.
<mgrwt>
<rscale>  0 0.88262033E+02</rscale>
<asrwt>0</asrwt>
<pdfrwt beam="2">  1        2 0.16991170E-02 0.88262033E+02</pdfrwt>
<pdfrwt beam="1">  1       -2 0.27129255E-01 0.88262033E+02</pdfrwt>
<totfact> 0.71329244E+04</totfact>
</mgrwt>
</event>
<event>
 5    1  0.3957498E+001  0.9145530E+02  0.7546771E-02  0.1299365E+00
          2   -1    0    0  501    0  0.00000000000E+00  0.00000000000E+00  0.12487552829E+03  0.12487552829E+03  0.00000000000E+00 0. -1.
         -2   -1    0    0    0  501 -0.00000000000E+00 -0.00000000000E+00 -0.16744818692E+02  0.16744818692E+02  0.00000000000E+00 0.  1.
         23    2    1    2    0    0  0.00000000000E+00  0.00000000000E+00  0.10813070960E+03  0.14162034698E+03  0.91455302311E+02 0.  0.
          2    1    3    3  502    0  0.43816645191E+02 -0.12161135161E+02  0.61528268602E+02  0.76508296552E+02  0.00000000000E+00 0. -1.
         -2    1    3    3    0  502 -0.43816645191E+02  0.12161135161E+02  0.46602440994E+02  0.65112050427E+02  0.00000000000E+00 0.  1.
<mgrwt>
<rscale>  0 0.91455302E+02</rscale>
<asrwt>0</asrwt>
<pdfrwt beam="1">  1        2 0.19211619E-01 0.91455302E+02</pdfrwt>
<pdfrwt beam="2">  1       -2 0.25761260E-02 0.91455302E+02</pdfrwt>
<totfact> 0.13045099E+05</totfact>
</mgrwt>
</event>
<event>
 5    1  0.3957498E+001  0.7612198E+02  0.7546771E-02  0.1340431E+00
          2   -1    0    0  501    0  0.00000000000E+00  0.00000000000E+00  0.42035136270E+03  0.42035136270E+03  0.00000000000E+00 0. -1.
         -2   -1    0    0    0  501 -0.00000000000E+00 -0.00000000000E+00 -0.34462572765E+01  0.34462572765E+01  0.00000000000E+00 0.  1.
         23    2    1    2    0    0  0.00000000000E+00  0.00000000000E+00  0.41690510542E+03  0.42379761997E+03  0.76121979543E+02 0.  0.
          2    1    3    3  502    0  0.14906130756E+02 -0.19805628474E+02  0.36925001211E+03  0.37008110881E+03  0.00000000000E+00 0. -1.
         -2    1    3    3    0  502 -0.14906130756E+02  0.19805628474E+02  0.47655093309E+02  0.53716511164E+02  0.00000000000E+00 0.  1.
<mgrwt>
<rscale>  0 0.76121980E+02</rscale>
<asrwt>0</asrwt>
<pdfrwt beam="1">  1        2 0.64669400E-01 0.76121980E+02</pdfrwt>
<pdfrwt beam="2">  1       -2 0.53019376E-03 0.76121980E+02</pdfrwt>
<totfact> 0.32641502E+05</totfact>
</mgrwt>
</event>
<event>
 5    1  0.3957498E+001  0.8577011E+02  0.7546771E-02  0.1313431E+00
         -1   -1    0    0    0  501 -0.00000000000E+00  0.00000000000E+00  0.28464139514E+03  0.28464139514E+03  0.00000000000E+00 0.  1.
          1   -1    0    0  501    0  0.00000000000E+00 -0.00000000000E+00 -0.64612103953E+01  0.64612103953E+01  0.00000000000E+00 0. -1.
         23    2    1    2    0    0  0.00000000000E+00  0.00000000000E+00  0.27818018474E+03  0.29110260553E+03  0.85770109973E+02 0.  0.
          2    1    3    3  502    0  0.61788717193E+01 -0.41851272429E+02  0.11523046745E+03  0.12275083742E+03  0.00000000000E+00 0. -1.
         -2    1    3    3    0  502 -0.61788717193E+01  0.41851272429E+02  0.16294971729E+03  0.16835176811E+03  0.00000000000E+00 0.  1.
<mgrwt>
<rscale>  0 0.85770110E+02</rscale>
<asrwt>0</asrwt>
<pdfrwt beam="2">  1        1 0.99403259E-03 0.85770110E+02</pdfrwt>
<pdfrwt beam="1">  1       -1 0.43790974E-01 0.85770110E+02</pdfrwt>
<totfact> 0.72508647E+04</totfact>
</mgrwt>
</event>
<event>
 5    1  0.3957498E+001  0.8598731E+02  0.7546771E-02  0.1312871E+00
          1   -1    0    0  501    0  0.00000000000E+00  0.00000000000E+00  0.10725607599E+03  0.10725607599E+03  0.00000000000E+00 0. -1.
         -1   -1    0    0    0  501 -0.00000000000E+00 -0.00000000000E+00 -0.17234030432E+02  0.17234030432E+02  0.00000000000E+00 0.  1.
         23    2    1    2    0    0  0.00000000000E+00  0.00000000000E+00  0.90022045558E+02  0.12449010642E+03  0.85987312498E+02 0.  0.
          2    1    3    3  502    0  0.90064857343E+01 -0.41906468589E+02  0.49853078370E+02  0.65746470002E+02  0.00000000000E+00 0. -1.
         -2    1    3    3    0  502 -0.90064857343E+01  0.41906468589E+02  0.40168967188E+02  0.58743636419E+02  0.00000000000E+00 0.  1.
<mgrwt>
<rscale>  0 0.85987312E+02</rscale>
<asrwt>0</asrwt>
<pdfrwt beam="1">  1        1 0.16500934E-01 0.85987312E+02</pdfrwt>
<pdfrwt beam="2">  1       -1 0.26513894E-02 0.85987312E+02</pdfrwt>
<totfact> 0.12386288E+05</totfact>
</mgrwt>
</event>
<event>
 5    1  0.3957498E+001  0.8908090E+02  0.7546771E-02  0.1305093E+00
         -1   -1    0    0    0  501 -0.00000000000E+00  0.00000000000E+00  0.87662581823E+01  0.87662581823E+01  0.00000000000E+00 0.  1.
          1   -1    0    0  501    0  0.00000000000E+00 -0.00000000000E+00 -0.22630540098E+03  0.22630540098E+03  0.00000000000E+00 0. -1.
         23    2    1    2    0    0  0.00000000000E+00  0.00000000000E+00 -0.21753914280E+03  0.23507165917E+03  0.89080897460E+02 0.  0.
          2    1    3    3  502    0 -0.32708594283E+02  0.11849938921E+02 -0.18216480395E+03  0.18545697342E+03  0.00000000000E+00 0. -1.
         -2    1    3    3    0  502  0.32708594283E+02 -0.11849938921E+02 -0.35374338853E+02  0.49614685746E+02  0.00000000000E+00 0.  1.
<mgrwt>
<rscale>  0 0.89080897E+02</rscale>
<asrwt>0</asrwt>
<pdfrwt beam="2">  1        1 0.34816220E-01 0.89080897E+02</pdfrwt>
<pdfrwt beam="1">  1       -1 0.13486549E-02 0.89080897E+02</pdfrwt>
<totfact> 0.12906349E+05</totfact>
</mgrwt>
</event>
<event>
 5    1  0.3957498E+001  0.9900947E+02  0.7546771E-02  0.1282393E+00
         -2   -1    0    0    0  501 -0.00000000000E+00  0.00000000000E+00  0.20895191111E+03  0.20895191111E+03  0.00000000000E+00 0.  1.
          2   -1    0    0  501    0  0.00000000000E+00 -0.00000000000E+00 -0.11728625769E+02  0.11728625769E+02  0.00000000000E+00 0. -1.
         23    2    1    2    0    0  0.00000000000E+00  0.00000000000E+00  0.19722328534E+03  0.22068053688E+03  0.99009469631E+02 0.  0.
          2    1    3    3  502    0 -0.30724884581E+02  0.30535511303E+01  0.12362906342E+02  0.33259346960E+02  0.00000000000E+00 0. -1.
         -2    1    3    3    0  502  0.30724884581E+02 -0.30535511303E+01  0.18486037900E+03  0.18742118992E+03  0.00000000000E+00 0.  1.
<mgrwt>
<rscale>  0 0.99009470E+02</rscale>
<asrwt>0</asrwt>
<pdfrwt beam="2">  1        2 0.18044041E-02 0.99009470E+02</pdfrwt>
<pdfrwt beam="1">  1       -2 0.32146445E-01 0.99009470E+02</pdfrwt>
<totfact> 0.49501354E+04</totfact>
</mgrwt>
</event>
<event>
 5    1  0.3957498E+001  0.7458554E+02  0.7546771E-02  0.1345159E+00
         -3   -1    0    0    0  501 -0.00000000000E+00  0.00000000000E+00  0.48727997370E+03  0.48727997370E+03  0.00000000000E+00 0.  1.
          3   -1    0    0  501    0  0.00000000000E+00 -0.00000000000E+00 -0.28541097466E+01  0.28541097466E+01  0.00000000000E+00 0. -1.
         23    2    1    2    0    0  0.00000000000E+00  0.00000000000E+00  0.48442586395E+03  0.49013408344E+03  0.74585535388E+02 0.  0.
          2    1    3    3  502    0 -0.15847980129E+02 -0.19347205230E+02  0.60423002569E+02  0.65394281583E+02  0.00000000000E+00 0. -1.
         -2    1    3    3    0  502  0.15847980129E+02  0.19347205230E+02  0.42400286138E+03  0.42473980186E+03  0.00000000000E+00 0.  1.
<mgrwt>
<rscale>  0 0.74585535E+02</rscale>
<asrwt>0</asrwt>
<pdfrwt beam="2">  1        3 0.43909419E-03 0.74585535E+02</pdfrwt>
<pdfrwt beam="1">  1       -3 0.74966084E-01 0.74585535E+02</pdfrwt>
<totfact> 0.30794875E+04</totfact>
</mgrwt>
</event>
<event>
 5    1  0.3957498E+001  0.9096279E+02  0.7546771E-02  0.1300537E+00
         -2   -1    0    0    0  501 -0.00000000000E+00  0.00000000000E+00  0.87885134368E+00  0.87885134368E+00  0.00000000000E+00 0.  1.
          2   -1    0    0  501    0  0.00000000000E+00 -0.00000000000E+00 -0.23537054069E+04  0.23537054069E+04  0.00000000000E+00 0. -1.
         23    2    1    2    0    0  0.00000000000E+00  0.00000000000E+00 -0.23528265555E+04  0.23545842582E+04  0.90962787105E+02 0.  0.
          2    1    3    3  502    0  0.36401581985E+02  0.56690553477E+01 -0.48603001706E+03  0.48742424113E+03  0.00000000000E+00 0. -1.
         -2    1    3    3    0  502 -0.36401581985E+02 -0.56690553477E+01 -0.18667965385E+04  0.18671600171E+04  0.00000000000E+00 0.  1.
<mgrwt>
<rscale>  0 0.90962787E+02</rscale>
<asrwt>0</asrwt>
<pdfrwt beam="2">  1        2 0.36211119E+00 0.90962787E+02</pdfrwt>
<pdfrwt beam="1">  1       -2 0.13520691E-03 0.90962787E+02</pdfrwt>
<totfact> 0.16390096E+05</totfact>
</mgrwt>
</event>
<event>
 5    1  0.3957498E+001  0.8591785E+02  0.7546771E-02  0.1313050E+00
          1   -1    0    0  501    0  0.00000000000E+00  0.00000000000E+00  0.10133305705E+03  0.10133305705E+03  0.00000000000E+00 0. -1.
         -1   -1    0    0    0  501 -0.00000000000E+00 -0.00000000000E+00 -0.18211916819E+02  0.18211916819E+02  0.00000000000E+00 0.  1.
         23    2    1    2    0    0  0.00000000000E+00  0.00000000000E+00  0.83121140227E+02  0.11954497386E+03  0.85917849272E+02 0.  0.
          2    1    3    3  502    0 -0.24575825744E+01 -0.37121024195E+02  0.71449785264E+02  0.80554838239E+02  0.00000000000E+00 0. -1.
         -2    1    3    3    0  502  0.24575825744E+01  0.37121024195E+02  0.11671354963E+02  0.38990135625E+02  0.00000000000E+00 0.  1.
<mgrwt>
<rscale>  0 0.85917849E+02</rscale>
<asrwt>0</asrwt>
<pdfrwt beam="1">  1        1 0.15589701E-01 0.85917849E+02</pdfrwt>
<pdfrwt beam="2">  1       -1 0.28018334E-02 0.85917849E+02</pdfrwt>
<totfact> 0.12298641E+05</totfact>
</mgrwt>
</event>
<event>
 5    1  0.3957498E+001  0.8807344E+02  0.7546771E-02  0.1307585E+00
          1   -1    0    0  501    0  0.00000000000E+00  0.00000000000E+00  0.32658571061E+02  0.32658571061E+02  0.00000000000E+00 0. -1.
         -1   -1    0    0    0  501 -0.00000000000E+00 -0.00000000000E+00 -0.59378985282E+02  0.59378985282E+02  0.00000000000E+00 0.  1.
         23    2    1    2    0    0  0.00000000000E+00  0.00000000000E+00 -0.26720414221E+02  0.92037556343E+02  0.88073442317E+02 0.  0.
          2    1    3    3  502    0  0.11932554139E+02 -0.41385356797E+02 -0.37768857135E+01  0.43236540925E+02  0.00000000000E+00 0.  1.
         -2    1    3    3    0  502 -0.11932554139E+02  0.41385356797E+02 -0.22943528507E+02  0.48801015418E+02  0.00000000000E+00 0. -1.
<mgrwt>
<rscale>  0 0.88073442E+02</rscale>
<asrwt>0</asrwt>
<pdfrwt beam="1">  1        1 0.50243955E-02 0.88073442E+02</pdfrwt>
<pdfrwt beam="2">  1       -1 0.91352285E-02 0.88073442E+02</pdfrwt>
<totfact> 0.96963436E+04</totfact>
</mgrwt>
</event>
<event>
 5    1  0.3957498E+001  0.8944077E+02  0.7546771E-02  0.1304212E+00
         -1   -1    0    0    0  501 -0.00000000000E+00  0.00000000000E+00  0.19313689566E+01  0.19313689566E+01  0.00000000000E+00 0.  1.
          1   -1    0    0  501    0  0.00000000000E+00 -0.00000000000E+00 -0.10354896931E+04  0.10354896931E+04  0.00000000000E+00 0. -1.
         23    2    1    2    0    0  0.00000000000E+00  0.00000000000E+00 -0.10335583241E+04  0.10374210620E+04  0.89440765830E+02 0.  0.
          2    1    3    3  502    0 -0.12202606177E+02  0.41274934798E+02 -0.37596322647E+03  0.37841891007E+03  0.00000000000E+00 0.  1.
         -2    1    3    3    0  502  0.12202606177E+02 -0.41274934798E+02 -0.65759509765E+03  0.65900215197E+03  0.00000000000E+00 0. -1.
<mgrwt>
<rscale>  0 0.89440766E+02</rscale>
<asrwt>0</asrwt>
<pdfrwt beam="2">  1        1 0.15930623E+00 0.89440766E+02</pdfrwt>
<pdfrwt beam="1">  1       -1 0.29713346E-03 0.89440766E+02</pdfrwt>
<totfact> 0.14169478E+05</totfact>
</mgrwt>
</event>
<event>
 5    1  0.3957498E+001  0.1149724E+03  0.7546771E-02  0.1251629E+00
         -1   -1    0    0    0  501 -0.00000000000E+00  0.00000000000E+00  0.68153198419E+02  0.68153198419E+02  0.00000000000E+00 0.  1.
          1   -1    0    0  501    0  0.00000000000E+00 -0.00000000000E+00 -0.48488774977E+02  0.48488774977E+02  0.00000000000E+00 0. -1.
         23    2    1    2    0    0  0.00000000000E+00  0.00000000000E+00  0.19664423442E+02  0.11664197340E+03  0.11497243325E+03 0.  0.
          2    1    3    3  502    0  0.44202488149E+02 -0.36434590900E+02  0.49324072101E+01  0.57494939025E+02  0.00000000000E+00 0. -1.
         -2    1    3    3    0  502 -0.44202488149E+02  0.36434590900E+02  0.14732016232E+02  0.59147034371E+02  0.00000000000E+00 0.  1.
<mgrwt>
<rscale>  0 0.11497243E+03</rscale>
<asrwt>0</asrwt>
<pdfrwt beam="2">  1        1 0.74598116E-02 0.11497243E+03</pdfrwt>
<pdfrwt beam="1">  1       -1 0.10485107E-01 0.11497243E+03</pdfrwt>
<totfact> 0.48128620E+04</totfact>
</mgrwt>
</event>
<event>
 5    1  0.3957498E+001  0.9190950E+02  0.7546771E-02  0.1298292E+00
          2   -1    0    0  501    0  0.00000000000E+00  0.00000000000E+00  0.16842500336E+03  0.16842500336E+03  0.00000000000E+00 0. -1.
         -2   -1    0    0    0  501 -0.00000000000E+00 -0.00000000000E+00 -0.12538749674E+02  0.12538749674E+02  0.00000000000E+00 0.  1.
         23    2    1    2    0    0  0.00000000000E+00  0.00000000000E+00  0.15588625369E+03  0.18096375304E+03  0.91909498009E+02 0.  0.
          2    1    3    3  502    0  0.43473973340E+02  0.11627310027E+02  0.96272017561E+02  0.10627079590E+03  0.00000000000E+00 0. -1.
         -2    1    3    3    0  502 -0.43473973340E+02 -0.11627310027E+02  0.59614236125E+02  0.74692957133E+02  0.00000000000E+00 0.  1.
<mgrwt>
<rscale>  0 0.91909498E+02</rscale>
<asrwt>0</asrwt>
<pdfrwt beam="1">  1        2 0.25911537E-01 0.91909498E+02</pdfrwt>
<pdfrwt beam="2">  1       -2 0.19290385E-02 0.91909498E+02</pdfrwt>
<totfact> 0.14238471E+05</totfact>
</mgrwt>
</event>
<event>
 5    1  0.3957498E+001  0.9064372E+02  0.7546771E-02  0.1301300E+00
          2   -1    0    0  501    0  0.00000000000E+00  0.00000000000E+00  0.88879784275E+03  0.88879784275E+03  0.00000000000E+00 0. -1.
         -2   -1    0    0    0  501 -0.00000000000E+00 -0.00000000000E+00 -0.23110663696E+01  0.23110663696E+01  0.00000000000E+00 0.  1.
         23    2    1    2    0    0  0.00000000000E+00  0.00000000000E+00  0.88648677638E+03  0.89110890911E+03  0.90643715805E+02 0.  0.
          2    1    3    3  502    0  0.13876351787E+02 -0.27580488938E+02  0.76942093392E+03  0.77004013535E+03  0.00000000000E+00 0. -1.
         -2    1    3    3    0  502 -0.13876351787E+02  0.27580488938E+02  0.11706584246E+03  0.12106877376E+03  0.00000000000E+00 0.  1.
<mgrwt>
<rscale>  0 0.90643716E+02</rscale>
<asrwt>0</asrwt>
<pdfrwt beam="1">  1        2 0.13673786E+00 0.90643716E+02</pdfrwt>
<pdfrwt beam="2">  1       -2 0.35554938E-03 0.90643716E+02</pdfrwt>
<totfact> 0.25143388E+05</totfact>
</mgrwt>
</event>
<event>
 5    1  0.3957498E+001  0.9064368E+02  0.7546771E-02  0.1301300E+00
          2   -1    0    0  501    0  0.00000000000E+00  0.00000000000E+00  0.10253598677E+04  0.10253598677E+04  0.00000000000E+00 0. -1.
         -2   -1    0    0    0  501 -0.00000000000E+00 -0.00000000000E+00 -0.20032664297E+01  0.20032664297E+01  0.00000000000E+00 0.  1.
         23    2    1    2    0    0  0.00000000000E+00  0.00000000000E+00  0.10233566013E+04  0.10273631341E+04  0.90643676037E+02 0.  0.
          2    1    3    3  502    0 -0.62351527820E+01 -0.35581328217E+02  0.20145527133E+03  0.20466835221E+03  0.00000000000E+00 0.  1.
         -2    1    3    3    0  502  0.62351527820E+01  0.35581328217E+02  0.82190132995E+03  0.82269478193E+03  0.00000000000E+00 0. -1.
<mgrwt>
<rscale>  0 0.90643676E+02</rscale>
<asrwt>0</asrwt>
<pdfrwt beam="1">  1        2 0.15774725E+00 0.90643676E+02</pdfrwt>
<pdfrwt beam="2">  1       -2 0.30819565E-03 0.90643676E+02</pdfrwt>
<totfact> 0.25412198E+05</totfact>
</mgrwt>
</event>
<event>
 5    1  0.3957498E+001  0.9154675E+02  0.7546771E-02  0.1299149E+00
         -1   -1    0    0    0  501 -0.00000000000E+00  0.00000000000E+00  0.20841246682E+01  0.20841246682E+01  0.00000000000E+00 0.  1.
          1   -1    0    0  501    0  0.00000000000E+00 -0.00000000000E+00 -0.10053150494E+04  0.10053150494E+04  0.00000000000E+00 0. -1.
         23    2    1    2    0    0  0.00000000000E+00  0.00000000000E+00 -0.10032309247E+04  0.10073991741E+04  0.91546750761E+02 0.  0.
          2    1    3    3  502    0  0.44558383819E+02 -0.24071739120E+01 -0.61381402085E+03  0.61543390892E+03  0.00000000000E+00 0. -1.
         -2    1    3    3    0  502 -0.44558383819E+02  0.24071739120E+01 -0.38941690387E+03  0.39196526514E+03  0.00000000000E+00 0.  1.
<mgrwt>
<rscale>  0 0.91546751E+02</rscale>
<asrwt>0</asrwt>
<pdfrwt beam="2">  1        1 0.15466345E+00 0.91546751E+02</pdfrwt>
<pdfrwt beam="1">  1       -1 0.32063541E-03 0.91546751E+02</pdfrwt>
<totfact> 0.13437582E+05</totfact>
</mgrwt>
</event>
<event>
 5    1  0.3957498E+001  0.9166264E+02  0.7546771E-02  0.1298875E+00
          2   -1    0    0  501    0  0.00000000000E+00  0.00000000000E+00  0.53188749159E+03  0.53188749159E+03  0.00000000000E+00 0. -1.
         -2   -1    0    0    0  501 -0.00000000000E+00 -0.00000000000E+00 -0.39491623383E+01  0.39491623383E+01  0.00000000000E+00 0.  1.
         23    2    1    2    0    0  0.00000000000E+00  0.00000000000E+00  0.52793832925E+03  0.53583665392E+03  0.91662643426E+02 0.  0.
          2    1    3    3  502    0  0.21983275855E+02  0.22966159488E+02  0.45694977327E+03  0.45805436816E+03  0.00000000000E+00 0. -1.
         -2    1    3    3    0  502 -0.21983275855E+02 -0.22966159488E+02  0.70988555980E+02  0.77782285767E+02  0.00000000000E+00 0.  1.
<mgrwt>
<rscale>  0 0.91662643E+02</rscale>
<asrwt>0</asrwt>
<pdfrwt beam="1">  1        2 0.81828788E-01 0.91662643E+02</pdfrwt>
<pdfrwt beam="2">  1       -2 0.60756386E-03 0.91662643E+02</pdfrwt>
<totfact> 0.21671752E+05</totfact>
</mgrwt>
</event>
<event>
 5    1  0.3957498E+001  0.9641062E+02  0.7546771E-02  0.1288030E+00
          1   -1    0    0  501    0  0.00000000000E+00  0.00000000000E+00  0.62436045622E+03  0.62436045622E+03  0.00000000000E+00 0. -1.
         -1   -1    0    0    0  501 -0.00000000000E+00 -0.00000000000E+00 -0.37218112259E+01  0.37218112259E+01  0.00000000000E+00 0.  1.
         23    2    1    2    0    0  0.00000000000E+00  0.00000000000E+00  0.62063864499E+03  0.62808226744E+03  0.96410616738E+02 0.  0.
          2    1    3    3  502    0 -0.33264208120E+02 -0.18950001062E+01  0.53727391309E+03  0.53830600614E+03  0.00000000000E+00 0. -1.
         -2    1    3    3    0  502  0.33264208120E+02  0.18950001062E+01  0.83364731903E+02  0.89776261297E+02  0.00000000000E+00 0.  1.
<mgrwt>
<rscale>  0 0.96410617E+02</rscale>
<asrwt>0</asrwt>
<pdfrwt beam="1">  1        1 0.96055372E-01 0.96410617E+02</pdfrwt>
<pdfrwt beam="2">  1       -1 0.57258684E-03 0.96410617E+02</pdfrwt>
<totfact> 0.12234619E+05</totfact>
</mgrwt>
</event>
<event>
 5    1  0.3957498E+001  0.8846589E+02  0.7546771E-02  0.1306610E+00
         -1   -1    0    0    0  501 -0.00000000000E+00  0.00000000000E+00  0.13701253520E+02  0.13701253520E+02  0.00000000000E+00 0.  1.
          1   -1    0    0  501    0  0.00000000000E+00 -0.00000000000E+00 -0.14280106400E+03  0.14280106400E+03  0.00000000000E+00 0. -1.
         23    2    1    2    0    0  0.00000000000E+00  0.00000000000E+00 -0.12909981048E+03  0.15650231752E+03  0.88465893560E+02 0.  0.
          2    1    3    3  502    0  0.15786977952E+02  0.36549119055E+02 -0.98646939062E+02  0.10637803045E+03  0.00000000000E+00 0. -1.
         -2    1    3    3    0  502 -0.15786977952E+02 -0.36549119055E+02 -0.30452871422E+02  0.50124287072E+02  0.00000000000E+00 0.  1.
<mgrwt>
<rscale>  0 0.88465894E+02</rscale>
<asrwt>0</asrwt>
<pdfrwt beam="2">  1        1 0.21969394E-01 0.88465894E+02</pdfrwt>
<pdfrwt beam="1">  1       -1 0.21078852E-02 0.88465894E+02</pdfrwt>
<totfact> 0.12054264E+05</totfact>
</mgrwt>
</event>
<event>
 5    1  0.3957498E+001  0.9034954E+02  0.7546771E-02  0.1302007E+00
          1   -1    0    0  501    0  0.00000000000E+00  0.00000000000E+00  0.18955627671E+04  0.18955627671E+04  0.00000000000E+00 0. -1.
         -1   -1    0    0    0  501 -0.00000000000E+00 -0.00000000000E+00 -0.10765983198E+01  0.10765983198E+01  0.00000000000E+00 0.  1.
         23    2    1    2    0    0  0.00000000000E+00  0.00000000000E+00  0.18944861688E+04  0.18966393655E+04  0.90349536583E+02 0.  0.
          2    1    3    3  502    0  0.80461687932E+01 -0.42875454748E+02  0.70089553136E+03  0.70225180052E+03  0.00000000000E+00 0. -1.
         -2    1    3    3    0  502 -0.80461687932E+01  0.42875454748E+02  0.11935906375E+04  0.11943875649E+04  0.00000000000E+00 0.  1.
<mgrwt>
<rscale>  0 0.90349537E+02</rscale>
<asrwt>0</asrwt>
<pdfrwt beam="1">  1        1 0.29162237E+00 0.90349537E+02</pdfrwt>
<pdfrwt beam="2">  1       -1 0.16563203E-03 0.90349537E+02</pdfrwt>
<totfact> 0.88186624E+04</totfact>
</mgrwt>
</event>
<event>
 5    1  0.3957498E+001  0.9032470E+02  0.7546771E-02  0.1302067E+00
         -2   -1    0    0    0  501 -0.00000000000E+00  0.00000000000E+00  0.90029314844E+01  0.90029314844E+01  0.00000000000E+00 0.  1.
          2   -1    0    0  501    0  0.00000000000E+00 -0.00000000000E+00 -0.22655262432E+03  0.22655262432E+03  0.00000000000E+00 0. -1.
         23    2    1    2    0    0  0.00000000000E+00  0.00000000000E+00 -0.21754969284E+03  0.23555555581E+03  0.90324697717E+02 0.  0.
          2    1    3    3  502    0  0.42409556842E+02 -0.11048337203E+02 -0.80326106761E+02  0.91503659456E+02  0.00000000000E+00 0. -1.
         -2    1    3    3    0  502 -0.42409556842E+02  0.11048337203E+02 -0.13722358608E+03  0.14405189635E+03  0.00000000000E+00 0.  1.
<mgrwt>
<rscale>  0 0.90324698E+02</rscale>
<asrwt>0</asrwt>
<pdfrwt beam="2">  1        2 0.34854250E-01 0.90324698E+02</pdfrwt>
<pdfrwt beam="1">  1       -2 0.13850664E-02 0.90324698E+02</pdfrwt>
<totfact> 0.16600089E+05</totfact>
</mgrwt>
</event>
<event>
 5    1  0.3957498E+001  0.9399357E+02  0.7546771E-02  0.1293459E+00
         -2   -1    0    0    0  501 -0.00000000000E+00  0.00000000000E+00  0.51191228287E+01  0.51191228287E+01  0.00000000000E+00 0.  1.
          2   -1    0    0  501    0  0.00000000000E+00 -0.00000000000E+00 -0.43146019513E+03  0.43146019513E+03  0.00000000000E+00 0. -1.
         23    2    1    2    0    0  0.00000000000E+00  0.00000000000E+00 -0.42634107230E+03  0.43657931796E+03  0.93993568601E+02 0.  0.
          2    1    3    3  502    0 -0.17379766502E+01  0.32880681545E+02 -0.57411920647E+02  0.66183747356E+02  0.00000000000E+00 0.  1.
         -2    1    3    3    0  502  0.17379766502E+01 -0.32880681545E+02 -0.36892915166E+03  0.37039557061E+03  0.00000000000E+00 0. -1.
<mgrwt>
<rscale>  0 0.93993569E+02</rscale>
<asrwt>0</asrwt>
<pdfrwt beam="2">  1        2 0.66378508E-01 0.93993569E+02</pdfrwt>
<pdfrwt beam="1">  1       -2 0.78755716E-03 0.93993569E+02</pdfrwt>
<totfact> 0.18911062E+05</totfact>
</mgrwt>
</event>
<event>
 5    1  0.3957498E+001  0.9247647E+02  0.7546771E-02  0.1296963E+00
         -2   -1    0    0    0  501 -0.00000000000E+00  0.00000000000E+00  0.97726320250E+00  0.97726320250E+00  0.00000000000E+00 0.  1.
          2   -1    0    0  501    0  0.00000000000E+00 -0.00000000000E+00 -0.21877161498E+04  0.21877161498E+04  0.00000000000E+00 0. -1.
         23    2    1    2    0    0  0.00000000000E+00  0.00000000000E+00 -0.21867388866E+04  0.21886934130E+04  0.92476472483E+02 0.  0.
          2    1    3    3  502    0  0.45897324700E+02 -0.56007066807E+01 -0.10885097588E+04  0.10894913618E+04  0.00000000000E+00 0. -1.
         -2    1    3    3    0  502 -0.45897324700E+02  0.56007066807E+01 -0.10982291278E+04  0.10992020513E+04  0.00000000000E+00 0.  1.
<mgrwt>
<rscale>  0 0.92476472E+02</rscale>
<asrwt>0</asrwt>
<pdfrwt beam="2">  1        2 0.33657329E+00 0.92476472E+02</pdfrwt>
<pdfrwt beam="1">  1       -2 0.15034748E-03 0.92476472E+02</pdfrwt>
<totfact> 0.17248771E+05</totfact>
</mgrwt>
</event>
<event>
 5    1  0.3957498E+001  0.9098551E+02  0.7546771E-02  0.1300483E+00
         -2   -1    0    0    0  501 -0.00000000000E+00  0.00000000000E+00  0.89938637012E+01  0.89938637012E+01  0.00000000000E+00 0.  1.
          2   -1    0    0  501    0  0.00000000000E+00 -0.00000000000E+00 -0.23011142576E+03  0.23011142576E+03  0.00000000000E+00 0. -1.
         23    2    1    2    0    0  0.00000000000E+00  0.00000000000E+00 -0.22111756205E+03  0.23910528946E+03  0.90985510920E+02 0.  0.
          2    1    3    3  502    0  0.17479473998E+02  0.31986397932E+02 -0.18209159041E+03  0.18570408978E+03  0.00000000000E+00 0. -1.
         -2    1    3    3    0  502 -0.17479473998E+02 -0.31986397932E+02 -0.39025971645E+02  0.53401199675E+02  0.00000000000E+00 0.  1.
<mgrwt>
<rscale>  0 0.90985511E+02</rscale>
<asrwt>0</asrwt>
<pdfrwt beam="2">  1        2 0.35401758E-01 0.90985511E+02</pdfrwt>
<pdfrwt beam="1">  1       -2 0.13836713E-02 0.90985511E+02</pdfrwt>
<totfact> 0.16372403E+05</totfact>
</mgrwt>
</event>
<event>
 5    1  0.3957498E+001  0.9074822E+02  0.7546771E-02  0.1301050E+00
         -2   -1    0    0    0  501 -0.00000000000E+00  0.00000000000E+00  0.63063881511E+01  0.63063881511E+01  0.00000000000E+00 0.  1.
          2   -1    0    0  501    0  0.00000000000E+00 -0.00000000000E+00 -0.32646420588E+03  0.32646420588E+03  0.00000000000E+00 0. -1.
         23    2    1    2    0    0  0.00000000000E+00  0.00000000000E+00 -0.32015781773E+03  0.33277059403E+03  0.90748223116E+02 0.  0.
          2    1    3    3  502    0 -0.37832749365E+02 -0.18687499471E+02 -0.98908645799E+02  0.10753352861E+03  0.00000000000E+00 0.  1.
         -2    1    3    3    0  502  0.37832749365E+02  0.18687499471E+02 -0.22124917193E+03  0.22523706542E+03  0.00000000000E+00 0. -1.
<mgrwt>
<rscale>  0 0.90748223E+02</rscale>
<asrwt>0</asrwt>
<pdfrwt beam="2">  1        2 0.50225269E-01 0.90748223E+02</pdfrwt>
<pdfrwt beam="1">  1       -2 0.97021343E-03 0.90748223E+02</pdfrwt>
<totfact> 0.18772792E+05</totfact>
</mgrwt>
</event>
<event>
 5    1  0.3957498E+001  0.9137424E+02  0.7546771E-02  0.1299557E+00
         -3   -1    0    0    0  501 -0.00000000000E+00  0.00000000000E+00  0.20552562557E+03  0.20552562557E+03  0.00000000000E+00 0.  1.
          3   -1    0    0  501    0  0.00000000000E+00 -0.00000000000E+00 -0.10155974594E+02  0.10155974594E+02  0.00000000000E+00 0. -1.
         23    2    1    2    0    0  0.00000000000E+00  0.00000000000E+00  0.19536965098E+03  0.21568160016E+03  0.91374242140E+02 0.  0.
          2    1    3    3  502    0  0.28068294995E+02  0.20195975942E+02  0.27203202110E+02  0.43996827536E+02  0.00000000000E+00 0. -1.
         -2    1    3    3    0  502 -0.28068294995E+02 -0.20195975942E+02  0.16816644887E+03  0.17168477263E+03  0.00000000000E+00 0.  1.
<mgrwt>
<rscale>  0 0.91374242E+02</rscale>
<asrwt>0</asrwt>
<pdfrwt beam="2">  1        3 0.15624578E-02 0.91374242E+02</pdfrwt>
<pdfrwt beam="1">  1       -3 0.31619324E-01 0.91374242E+02</pdfrwt>
<totfact> 0.27544205E+04</totfact>
</mgrwt>
</event>
<event>
 5    1  0.3957498E+001  0.1001402E+03  0.7546771E-02  0.1280001E+00
         -2   -1    0    0    0  501 -0.00000000000E+00  0.00000000000E+00  0.14321858911E+01  0.14321858911E+01  0.00000000000E+00 0.  1.
          2   -1    0    0  501    0  0.00000000000E+00 -0.00000000000E+00 -0.17504800029E+04  0.17504800029E+04  0.00000000000E+00 0. -1.
         23    2    1    2    0    0  0.00000000000E+00  0.00000000000E+00 -0.17490478170E+04  0.17519121888E+04  0.10014015704E+03 0.  0.
          2    1    3    3  502    0  0.32834405480E+02  0.30659215769E+02 -0.12613592163E+04  0.12621589275E+04  0.00000000000E+00 0. -1.
         -2    1    3    3    0  502 -0.32834405480E+02 -0.30659215769E+02 -0.48768860071E+03  0.48975326131E+03  0.00000000000E+00 0.  1.
<mgrwt>
<rscale>  0 0.10014016E+03</rscale>
<asrwt>0</asrwt>
<pdfrwt beam="2">  1        2 0.26930482E+00 0.10014016E+03</pdfrwt>
<pdfrwt beam="1">  1       -2 0.22033612E-03 0.10014016E+03</pdfrwt>
<totfact> 0.17031365E+05</totfact>
</mgrwt>
</event>
<event>
 5    1  0.3957498E+001  0.8994811E+02  0.7546771E-02  0.1302977E+00
          1   -1    0    0  501    0  0.00000000000E+00  0.00000000000E+00  0.23471932026E+02  0.23471932026E+02  0.00000000000E+00 0. -1.
         -1   -1    0    0    0  501 -0.00000000000E+00 -0.00000000000E+00 -0.86173796233E+02  0.86173796233E+02  0.00000000000E+00 0.  1.
         23    2    1    2    0    0  0.00000000000E+00  0.00000000000E+00 -0.62701864207E+02  0.10964572826E+03  0.89948106986E+02 0.  0.
          2    1    3    3  502    0 -0.22792942040E+02  0.29335016224E+02 -0.45001022607E+00  0.37151902951E+02  0.00000000000E+00 0. -1.
         -2    1    3    3    0  502  0.22792942040E+02 -0.29335016224E+02 -0.62251853981E+02  0.72493825307E+02  0.00000000000E+00 0.  1.
<mgrwt>
<rscale>  0 0.89948107E+02</rscale>
<asrwt>0</asrwt>
<pdfrwt beam="1">  1        1 0.36110664E-02 0.89948107E+02</pdfrwt>
<pdfrwt beam="2">  1       -1 0.13257507E-01 0.89948107E+02</pdfrwt>
<totfact> 0.86535106E+04</totfact>
</mgrwt>
</event>
<event>
 5    1  0.3957498E+001  0.9074449E+02  0.7546771E-02  0.1301059E+00
          4   -1    0    0  501    0  0.00000000000E+00  0.00000000000E+00  0.40990311117E+01  0.40990311117E+01  0.00000000000E+00 0. -1.
         -4   -1    0    0    0  501 -0.00000000000E+00 -0.00000000000E+00 -0.50222619087E+03  0.50222619087E+03  0.00000000000E+00 0.  1.
         23    2    1    2    0    0  0.00000000000E+00  0.00000000000E+00 -0.49812715976E+03  0.50632522198E+03  0.90744493640E+02 0.  0.
          2    1    3    3  502    0  0.17488644595E+02 -0.37565740626E+02 -0.14593708430E+03  0.15170586716E+03  0.00000000000E+00 0. -1.
         -2    1    3    3    0  502 -0.17488644595E+02  0.37565740626E+02 -0.35219007546E+03  0.35461935482E+03  0.00000000000E+00 0.  1.
<mgrwt>
<rscale>  0 0.90744494E+02</rscale>
<asrwt>0</asrwt>
<pdfrwt beam="1">  1        4 0.63062022E-03 0.90744494E+02</pdfrwt>
<pdfrwt beam="2">  1       -4 0.77265561E-01 0.90744494E+02</pdfrwt>
<totfact> 0.13117384E+04</totfact>
</mgrwt>
</event>
<event>
 5    1  0.3957498E+001  0.8398647E+02  0.7546771E-02  0.1318105E+00
          2   -1    0    0  501    0  0.00000000000E+00  0.00000000000E+00  0.15587898569E+03  0.15587898569E+03  0.00000000000E+00 0. -1.
         -2   -1    0    0    0  501 -0.00000000000E+00 -0.00000000000E+00 -0.11312825425E+02  0.11312825425E+02  0.00000000000E+00 0.  1.
         23    2    1    2    0    0  0.00000000000E+00  0.00000000000E+00  0.14456616026E+03  0.16719181111E+03  0.83986469208E+02 0.  0.
          2    1    3    3  502    0  0.21980996748E+02  0.74178148245E+01  0.14196448407E+03  0.14384749887E+03  0.00000000000E+00 0. -1.
         -2    1    3    3    0  502 -0.21980996748E+02 -0.74178148245E+01  0.26016761892E+01  0.23344312236E+02  0.00000000000E+00 0.  1.
<mgrwt>
<rscale>  0 0.83986469E+02</rscale>
<asrwt>0</asrwt>
<pdfrwt beam="1">  1        2 0.23981381E-01 0.83986469E+02</pdfrwt>
<pdfrwt beam="2">  1       -2 0.17404348E-02 0.83986469E+02</pdfrwt>
<totfact> 0.17676114E+05</totfact>
</mgrwt>
</event>
<event>
 5    1  0.3957498E+001  0.9209682E+02  0.7546771E-02  0.1297852E+00
         -2   -1    0    0    0  501 -0.00000000000E+00  0.00000000000E+00  0.82246657194E+02  0.82246657194E+02  0.00000000000E+00 0.  1.
          2   -1    0    0  501    0  0.00000000000E+00 -0.00000000000E+00 -0.25781667899E+02  0.25781667899E+02  0.00000000000E+00 0. -1.
         23    2    1    2    0    0  0.00000000000E+00  0.00000000000E+00  0.56464989295E+02  0.10802832509E+03  0.92096818654E+02 0.  0.
          2    1    3    3  502    0  0.86995001364E+01 -0.33706604481E+02 -0.71255975282E+01  0.35532951304E+02  0.00000000000E+00 0. -1.
         -2    1    3    3    0  502 -0.86995001364E+01  0.33706604481E+02  0.63590586823E+02  0.72495373789E+02  0.00000000000E+00 0.  1.
<mgrwt>
<rscale>  0 0.92096819E+02</rscale>
<asrwt>0</asrwt>
<pdfrwt beam="2">  1        2 0.39664105E-02 0.92096819E+02</pdfrwt>
<pdfrwt beam="1">  1       -2 0.12653332E-01 0.92096819E+02</pdfrwt>
<totfact> 0.82365604E+04</totfact>
</mgrwt>
</event>
<event>
 5    1  0.3957498E+001  0.9112363E+02  0.7546771E-02  0.1300153E+00
         -3   -1    0    0    0  501 -0.00000000000E+00  0.00000000000E+00  0.76748165110E+01  0.76748165110E+01  0.00000000000E+00 0.  1.
          3   -1    0    0  501    0  0.00000000000E+00 -0.00000000000E+00 -0.27047931708E+03  0.27047931708E+03  0.00000000000E+00 0. -1.
         23    2    1    2    0    0  0.00000000000E+00  0.00000000000E+00 -0.26280450057E+03  0.27815413359E+03  0.91123633128E+02 0.  0.
          2    1    3    3  502    0 -0.31648043434E+02 -0.30967215536E+02 -0.98623543598E+02  0.10810721735E+03  0.00000000000E+00 0. -1.
         -2    1    3    3    0  502  0.31648043434E+02  0.30967215536E+02 -0.16418095697E+03  0.17004691624E+03  0.00000000000E+00 0.  1.
<mgrwt>
<rscale>  0 0.91123633E+02</rscale>
<asrwt>0</asrwt>
<pdfrwt beam="2">  1        3 0.41612197E-01 0.91123633E+02</pdfrwt>
<pdfrwt beam="1">  1       -3 0.11807412E-02 0.91123633E+02</pdfrwt>
<totfact> 0.24940913E+04</totfact>
</mgrwt>
</event>
<event>
 5    1  0.3957498E+001  0.9344273E+02  0.7546771E-02  0.1294722E+00
          2   -1    0    0  501    0  0.00000000000E+00  0.00000000000E+00  0.23852736114E+04  0.23852736114E+04  0.00000000000E+00 0. -1.
         -2   -1    0    0    0  501 -0.00000000000E+00 -0.00000000000E+00 -0.91515110258E+00  0.91515110258E+00  0.00000000000E+00 0.  1.
         23    2    1    2    0    0  0.00000000000E+00  0.00000000000E+00  0.23843584603E+04  0.23861887625E+04  0.93442726318E+02 0.  0.
          2    1    3    3  502    0 -0.23528854539E+02 -0.21938884647E+02  0.20573930589E+04  0.20576445564E+04  0.00000000000E+00 0. -1.
         -2    1    3    3    0  502  0.23528854539E+02  0.21938884647E+02  0.32696540144E+03  0.32854420615E+03  0.00000000000E+00 0.  1.
<mgrwt>
<rscale>  0 0.93442726E+02</rscale>
<asrwt>0</asrwt>
<pdfrwt beam="1">  1        2 0.36696019E+00 0.93442726E+02</pdfrwt>
<pdfrwt beam="2">  1       -2 0.14079439E-03 0.93442726E+02</pdfrwt>
<totfact> 0.14971889E+05</totfact>
</mgrwt>
</event>
<event>
 5    1  0.3957498E+001  0.9119116E+02  0.7546771E-02  0.1299992E+00
          2   -1    0    0  501    0  0.00000000000E+00  0.00000000000E+00  0.76171839055E+02  0.76171839055E+02  0.00000000000E+00 0.  1.
         -2   -1    0    0    0  501 -0.00000000000E+00 -0.00000000000E+00 -0.27292986730E+02  0.27292986730E+02  0.00000000000E+00 0. -1.
         23    2    1    2    0    0  0.00000000000E+00  0.00000000000E+00  0.48878852326E+02  0.10346482579E+03  0.91191161688E+02 0.  0.
          2    1    3    3  502    0 -0.18095706898E+02  0.38313392404E+02  0.53328600414E+01  0.42706089049E+02  0.00000000000E+00 0. -1.
         -2    1    3    3    0  502  0.18095706898E+02 -0.38313392404E+02  0.43545992285E+02  0.60758736736E+02  0.00000000000E+00 0.  1.
<mgrwt>
<rscale>  0 0.91191162E+02</rscale>
<asrwt>0</asrwt>
<pdfrwt beam="1">  1        2 0.11718744E-01 0.91191162E+02</pdfrwt>
<pdfrwt beam="2">  1       -2 0.41989211E-02 0.91191162E+02</pdfrwt>
<totfact> 0.11321639E+05</totfact>
</mgrwt>
</event>
<event>
 5    1  0.3957498E+001  0.9203781E+02  0.7546771E-02  0.1297991E+00
         -2   -1    0    0    0  501 -0.00000000000E+00  0.00000000000E+00  0.31452360689E+01  0.31452360689E+01  0.00000000000E+00 0.  1.
          2   -1    0    0  501    0  0.00000000000E+00 -0.00000000000E+00 -0.67331659709E+03  0.67331659709E+03  0.00000000000E+00 0. -1.
         23    2    1    2    0    0  0.00000000000E+00  0.00000000000E+00 -0.67017136102E+03  0.67646183316E+03  0.92037810642E+02 0.  0.
          2    1    3    3  502    0  0.15431609126E+02  0.23710610742E+02 -0.60185619755E+03  0.60252071346E+03  0.00000000000E+00 0. -1.
         -2    1    3    3    0  502 -0.15431609126E+02 -0.23710610742E+02 -0.68315163478E+02  0.73941119703E+02  0.00000000000E+00 0.  1.
<mgrwt>
<rscale>  0 0.92037811E+02</rscale>
<asrwt>0</asrwt>
<pdfrwt beam="2">  1        2 0.10358706E+00 0.92037811E+02</pdfrwt>
<pdfrwt beam="1">  1       -2 0.48388297E-03 0.92037811E+02</pdfrwt>
<totfact> 0.22918208E+05</totfact>
</mgrwt>
</event>
<event>
 5    1  0.3957498E+001  0.9426093E+02  0.7546771E-02  0.1292849E+00
         -2   -1    0    0    0  501 -0.00000000000E+00  0.00000000000E+00  0.87835975607E+02  0.87835975607E+02  0.00000000000E+00 0.  1.
          2   -1    0    0  501    0  0.00000000000E+00 -0.00000000000E+00 -0.25288960900E+02  0.25288960900E+02  0.00000000000E+00 0. -1.
         23    2    1    2    0    0  0.00000000000E+00  0.00000000000E+00  0.62547014708E+02  0.11312493651E+03  0.94260926215E+02 0.  0.
          2    1    3    3  502    0 -0.23837893347E+02  0.34473110561E+01 -0.17344927606E+02  0.29681233572E+02  0.00000000000E+00 0. -1.
         -2    1    3    3    0  502  0.23837893347E+02 -0.34473110561E+01  0.79891942314E+02  0.83443702934E+02  0.00000000000E+00 0.  1.
<mgrwt>
<rscale>  0 0.94260926E+02</rscale>
<asrwt>0</asrwt>
<pdfrwt beam="2">  1        2 0.38906094E-02 0.94260926E+02</pdfrwt>
<pdfrwt beam="1">  1       -2 0.13513227E-01 0.94260926E+02</pdfrwt>
<totfact> 0.76337315E+04</totfact>
</mgrwt>
</event>
<event>
 5    1  0.3957498E+001  0.1014862E+03  0.7546771E-02  0.1277201E+00
         -1   -1    0    0    0  501 -0.00000000000E+00  0.00000000000E+00  0.93575306167E+01  0.93575306167E+01  0.00000000000E+00 0.  1.
          1   -1    0    0  501    0  0.00000000000E+00 -0.00000000000E+00 -0.27516480553E+03  0.27516480553E+03  0.00000000000E+00 0. -1.
         23    2    1    2    0    0  0.00000000000E+00  0.00000000000E+00 -0.26580727491E+03  0.28452233614E+03  0.10148621763E+03 0.  0.
          2    1    3    3  502    0 -0.16939408458E+02  0.32237001433E+02 -0.23197258125E+03  0.23481364158E+03  0.00000000000E+00 0. -1.
         -2    1    3    3    0  502  0.16939408458E+02 -0.32237001433E+02 -0.33834693666E+02  0.49708694569E+02  0.00000000000E+00 0.  1.
<mgrwt>
<rscale>  0 0.10148622E+03</rscale>
<asrwt>0</asrwt>
<pdfrwt beam="2">  1        1 0.42333045E-01 0.10148622E+03</pdfrwt>
<pdfrwt beam="1">  1       -1 0.14396202E-02 0.10148622E+03</pdfrwt>
<totfact> 0.94521531E+04</totfact>
</mgrwt>
</event>
<event>
 5    1  0.3957498E+001  0.9153755E+02  0.7546771E-02  0.1299170E+00
         -2   -1    0    0    0  501 -0.00000000000E+00  0.00000000000E+00  0.37107276755E+02  0.37107276755E+02  0.00000000000E+00 0.  1.
          2   -1    0    0  501    0  0.00000000000E+00 -0.00000000000E+00 -0.56452022169E+02  0.56452022169E+02  0.00000000000E+00 0. -1.
         23    2    1    2    0    0  0.00000000000E+00  0.00000000000E+00 -0.19344745414E+02  0.93559298924E+02  0.91537550983E+02 0.  0.
          2    1    3    3  502    0 -0.26090211719E+02 -0.38333167721E+01 -0.47906980611E+02  0.54685210581E+02  0.00000000000E+00 0. -1.
         -2    1    3    3    0  502  0.26090211719E+02  0.38333167721E+01  0.28562235197E+02  0.38874088343E+02  0.00000000000E+00 0.  1.
<mgrwt>
<rscale>  0 0.91537551E+02</rscale>
<asrwt>0</asrwt>
<pdfrwt beam="2">  1        2 0.86849264E-02 0.91537551E+02</pdfrwt>
<pdfrwt beam="1">  1       -2 0.57088118E-02 0.91537551E+02</pdfrwt>
<totfact> 0.10319689E+05</totfact>
</mgrwt>
</event>
<event>
 5    1  0.3957498E+001  0.9089541E+02  0.7546771E-02  0.1300698E+00
         -3   -1    0    0    0  501 -0.00000000000E+00  0.00000000000E+00  0.33882678036E+01  0.33882678036E+01  0.00000000000E+00 0.  1.
          3   -1    0    0  501    0  0.00000000000E+00 -0.00000000000E+00 -0.60960167615E+03  0.60960167615E+03  0.00000000000E+00 0. -1.
         23    2    1    2    0    0  0.00000000000E+00  0.00000000000E+00 -0.60621340835E+03  0.61298994395E+03  0.90895406535E+02 0.  0.
          2    1    3    3  502    0 -0.35245724395E+02  0.24098720376E+02 -0.40812216545E+03  0.41034949901E+03  0.00000000000E+00 0. -1.
         -2    1    3    3    0  502  0.35245724395E+02 -0.24098720376E+02 -0.19809124290E+03  0.20264044494E+03  0.00000000000E+00 0.  1.
<mgrwt>
<rscale>  0 0.90895407E+02</rscale>
<asrwt>0</asrwt>
<pdfrwt beam="2">  1        3 0.93784930E-01 0.90895407E+02</pdfrwt>
<pdfrwt beam="1">  1       -3 0.52127165E-03 0.90895407E+02</pdfrwt>
<totfact> 0.15601721E+04</totfact>
</mgrwt>
</event>
<event>
 5    1  0.3957498E+001  0.9080317E+02  0.7546771E-02  0.1300918E+00
          3   -1    0    0  501    0  0.00000000000E+00  0.00000000000E+00  0.39420547858E+03  0.39420547858E+03  0.00000000000E+00 0. -1.
         -3   -1    0    0    0  501 -0.00000000000E+00 -0.00000000000E+00 -0.52290090064E+01  0.52290090064E+01  0.00000000000E+00 0.  1.
         23    2    1    2    0    0  0.00000000000E+00  0.00000000000E+00  0.38897646958E+03  0.39943448759E+03  0.90803171704E+02 0.  0.
          2    1    3    3  502    0  0.24459616945E+02  0.34782101535E+02  0.26448979743E+03  0.26788602128E+03  0.00000000000E+00 0. -1.
         -2    1    3    3    0  502 -0.24459616945E+02 -0.34782101535E+02  0.12448667214E+03  0.13154846631E+03  0.00000000000E+00 0.  1.
<mgrwt>
<rscale>  0 0.90803172E+02</rscale>
<asrwt>0</asrwt>
<pdfrwt beam="1">  1        3 0.60646973E-01 0.90803172E+02</pdfrwt>
<pdfrwt beam="2">  1       -3 0.80446323E-03 0.90803172E+02</pdfrwt>
<totfact> 0.20859586E+04</totfact>
</mgrwt>
</event>
<event>
 5    1  0.3957498E+001  0.9340481E+02  0.7546771E-02  0.1294810E+00
         -1   -1    0    0    0  501 -0.00000000000E+00  0.00000000000E+00  0.12011955955E+01  0.12011955955E+01  0.00000000000E+00 0.  1.
          1   -1    0    0  501    0  0.00000000000E+00 -0.00000000000E+00 -0.18157862412E+04  0.18157862412E+04  0.00000000000E+00 0. -1.
         23    2    1    2    0    0  0.00000000000E+00  0.00000000000E+00 -0.18145850456E+04  0.18169874368E+04  0.93404805773E+02 0.  0.
          2    1    3    3  502    0 -0.14801882986E+02 -0.44030990005E+02 -0.81341250186E+03  0.81473782409E+03  0.00000000000E+00 0.  1.
         -2    1    3    3    0  502  0.14801882986E+02  0.44030990005E+02 -0.10011725438E+04  0.10022496127E+04  0.00000000000E+00 0. -1.
<mgrwt>
<rscale>  0 0.93404806E+02</rscale>
<asrwt>0</asrwt>
<pdfrwt beam="2">  1        1 0.27935131E+00 0.93404806E+02</pdfrwt>
<pdfrwt beam="1">  1       -1 0.18479960E-03 0.93404806E+02</pdfrwt>
<totfact> 0.85350468E+04</totfact>
</mgrwt>
</event>
<event>
 5    1  0.3957498E+001  0.7143869E+02  0.7546771E-02  0.1355268E+00
          2   -1    0    0  501    0  0.00000000000E+00  0.00000000000E+00  0.33792118767E+03  0.33792118767E+03  0.00000000000E+00 0. -1.
         -2   -1    0    0    0  501 -0.00000000000E+00 -0.00000000000E+00 -0.37756483466E+01  0.37756483466E+01  0.00000000000E+00 0.  1.
         23    2    1    2    0    0  0.00000000000E+00  0.00000000000E+00  0.33414553932E+03  0.34169683601E+03  0.71438689056E+02 0.  0.
          2    1    3    3  502    0  0.16784669068E+02  0.30883740830E+02  0.19745228671E+03  0.20055656581E+03  0.00000000000E+00 0. -1.
         -2    1    3    3    0  502 -0.16784669068E+02 -0.30883740830E+02  0.13669325261E+03  0.14114027020E+03  0.00000000000E+00 0.  1.
<mgrwt>
<rscale>  0 0.71438689E+02</rscale>
<asrwt>0</asrwt>
<pdfrwt beam="1">  1        2 0.51987851E-01 0.71438689E+02</pdfrwt>
<pdfrwt beam="2">  1       -2 0.58086924E-03 0.71438689E+02</pdfrwt>
<totfact> 0.35634404E+05</totfact>
</mgrwt>
</event>
<event>
 5    1  0.3957498E+001  0.8762468E+02  0.7546771E-02  0.1308708E+00
         -1   -1    0    0    0  501 -0.00000000000E+00  0.00000000000E+00  0.13010418961E+02  0.13010418961E+02  0.00000000000E+00 0.  1.
          1   -1    0    0  501    0  0.00000000000E+00 -0.00000000000E+00 -0.14753721323E+03  0.14753721323E+03  0.00000000000E+00 0. -1.
         23    2    1    2    0    0  0.00000000000E+00  0.00000000000E+00 -0.13452679427E+03  0.16054763219E+03  0.87624675894E+02 0.  0.
          2    1    3    3  502    0 -0.43805041794E+02  0.67115108747E+00 -0.68059572013E+02  0.80940950532E+02  0.00000000000E+00 0. -1.
         -2    1    3    3    0  502  0.43805041794E+02 -0.67115108747E+00 -0.66467222255E+02  0.79606681658E+02  0.00000000000E+00 0.  1.
<mgrwt>
<rscale>  0 0.87624676E+02</rscale>
<asrwt>0</asrwt>
<pdfrwt beam="2">  1        1 0.22698032E-01 0.87624676E+02</pdfrwt>
<pdfrwt beam="1">  1       -1 0.20016030E-02 0.87624676E+02</pdfrwt>
<totfact> 0.12440736E+05</totfact>
</mgrwt>
</event>
<event>
 5    1  0.3957498E+001  0.9037412E+02  0.7546771E-02  0.1301948E+00
         -1   -1    0    0    0  501 -0.00000000000E+00  0.00000000000E+00  0.19948303878E+01  0.19948303878E+01  0.00000000000E+00 0.  1.
          1   -1    0    0  501    0  0.00000000000E+00 -0.00000000000E+00 -0.10235810298E+04  0.10235810298E+04  0.00000000000E+00 0. -1.
         23    2    1    2    0    0  0.00000000000E+00  0.00000000000E+00 -0.10215861994E+04  0.10255758602E+04  0.90374123345E+02 0.  0.
          2    1    3    3  502    0 -0.24041028760E+02  0.30533263256E+02 -0.24914109433E+03  0.25215379457E+03  0.00000000000E+00 0. -1.
         -2    1    3    3    0  502  0.24041028760E+02 -0.30533263256E+02 -0.77244510505E+03  0.77342206560E+03  0.00000000000E+00 0.  1.
<mgrwt>
<rscale>  0 0.90374123E+02</rscale>
<asrwt>0</asrwt>
<pdfrwt beam="2">  1        1 0.15747435E+00 0.90374123E+02</pdfrwt>
<pdfrwt beam="1">  1       -1 0.30689631E-03 0.90374123E+02</pdfrwt>
<totfact> 0.13833416E+05</totfact>
</mgrwt>
</event>
<event>
 5    1  0.3957498E+001  0.9084505E+02  0.7546771E-02  0.1300818E+00
         -1   -1    0    0    0  501 -0.00000000000E+00  0.00000000000E+00  0.22747175097E+01  0.22747175097E+01  0.00000000000E+00 0.  1.
          1   -1    0    0  501    0  0.00000000000E+00 -0.00000000000E+00 -0.90701630825E+03  0.90701630825E+03  0.00000000000E+00 0. -1.
         23    2    1    2    0    0  0.00000000000E+00  0.00000000000E+00 -0.90474159074E+03  0.90929102576E+03  0.90845052214E+02 0.  0.
          2    1    3    3  502    0 -0.37565703612E+02  0.44759863159E+01 -0.70399736746E+03  0.70501312749E+03  0.00000000000E+00 0. -1.
         -2    1    3    3    0  502  0.37565703612E+02 -0.44759863159E+01 -0.20074422328E+03  0.20427789827E+03  0.00000000000E+00 0.  1.
<mgrwt>
<rscale>  0 0.90845052E+02</rscale>
<asrwt>0</asrwt>
<pdfrwt beam="2">  1        1 0.13954103E+00 0.90845052E+02</pdfrwt>
<pdfrwt beam="1">  1       -1 0.34995640E-03 0.90845052E+02</pdfrwt>
<totfact> 0.14033146E+05</totfact>
</mgrwt>
</event>
<event>
 5    1  0.3957498E+001  0.9448414E+02  0.7546771E-02  0.1292342E+00
          1   -1    0    0  501    0  0.00000000000E+00  0.00000000000E+00  0.11905517676E+03  0.11905517676E+03  0.00000000000E+00 0. -1.
         -1   -1    0    0    0  501 -0.00000000000E+00 -0.00000000000E+00 -0.18746040682E+02  0.18746040682E+02  0.00000000000E+00 0.  1.
         23    2    1    2    0    0  0.00000000000E+00  0.00000000000E+00  0.10030913608E+03  0.13780121744E+03  0.94484140192E+02 0.  0.
          2    1    3    3  502    0  0.26076188221E+02  0.34052804103E+02  0.79039862095E+02  0.89926975149E+02  0.00000000000E+00 0. -1.
         -2    1    3    3    0  502 -0.26076188221E+02 -0.34052804103E+02  0.21269273986E+02  0.47874242295E+02  0.00000000000E+00 0.  1.
<mgrwt>
<rscale>  0 0.94484140E+02</rscale>
<asrwt>0</asrwt>
<pdfrwt beam="1">  1        1 0.18316181E-01 0.94484140E+02</pdfrwt>
<pdfrwt beam="2">  1       -1 0.28840063E-02 0.94484140E+02</pdfrwt>
<totfact> 0.97649876E+04</totfact>
</mgrwt>
</event>
<event>
 5    1  0.3957498E+001  0.8937508E+02  0.7546771E-02  0.1304372E+00
         -1   -1    0    0    0  501 -0.00000000000E+00  0.00000000000E+00  0.59357513453E+01  0.59357513453E+01  0.00000000000E+00 0.  1.
          1   -1    0    0  501    0  0.00000000000E+00 -0.00000000000E+00 -0.33643191816E+03  0.33643191816E+03  0.00000000000E+00 0. -1.
         23    2    1    2    0    0  0.00000000000E+00  0.00000000000E+00 -0.33049616682E+03  0.34236766951E+03  0.89375079543E+02 0.  0.
          2    1    3    3  502    0  0.39971062718E+02  0.83494023401E+01 -0.23479138492E+03  0.23831574184E+03  0.00000000000E+00 0. -1.
         -2    1    3    3    0  502 -0.39971062718E+02 -0.83494023401E+01 -0.95704781900E+02  0.10405192767E+03  0.00000000000E+00 0.  1.
<mgrwt>
<rscale>  0 0.89375080E+02</rscale>
<asrwt>0</asrwt>
<pdfrwt beam="2">  1        1 0.51758767E-01 0.89375080E+02</pdfrwt>
<pdfrwt beam="1">  1       -1 0.91319234E-03 0.89375080E+02</pdfrwt>
<totfact> 0.13802245E+05</totfact>
</mgrwt>
</event>
<event>
 5    1  0.3957498E+001  0.9063185E+02  0.7546771E-02  0.1301329E+00
         -1   -1    0    0    0  501 -0.00000000000E+00  0.00000000000E+00  0.46439517137E+02  0.46439517137E+02  0.00000000000E+00 0.  1.
          1   -1    0    0  501    0  0.00000000000E+00 -0.00000000000E+00 -0.44219521209E+02  0.44219521209E+02  0.00000000000E+00 0. -1.
         23    2    1    2    0    0  0.00000000000E+00  0.00000000000E+00  0.22199959283E+01  0.90659038346E+02  0.90631853406E+02 0.  0.
          2    1    3    3  502    0  0.36771836306E+02 -0.96964933435E+00 -0.25363484891E+02  0.44681254805E+02  0.00000000000E+00 0.  1.
         -2    1    3    3    0  502 -0.36771836306E+02  0.96964933435E+00  0.27583480820E+02  0.45977783540E+02  0.00000000000E+00 0. -1.
<mgrwt>
<rscale>  0 0.90631853E+02</rscale>
<asrwt>0</asrwt>
<pdfrwt beam="2">  1        1 0.68030033E-02 0.90631853E+02</pdfrwt>
<pdfrwt beam="1">  1       -1 0.71445411E-02 0.90631853E+02</pdfrwt>
<totfact> 0.93611849E+04</totfact>
</mgrwt>
</event>
<event>
 5    1  0.3957498E+001  0.9077350E+02  0.7546771E-02  0.1300989E+00
          2   -1    0    0  501    0  0.00000000000E+00  0.00000000000E+00  0.15540786679E+04  0.15540786679E+04  0.00000000000E+00 0.  1.
         -2   -1    0    0    0  501 -0.00000000000E+00 -0.00000000000E+00 -0.13255167403E+01  0.13255167403E+01  0.00000000000E+00 0. -1.
         23    2    1    2    0    0  0.00000000000E+00  0.00000000000E+00  0.15527531511E+04  0.15554041846E+04  0.90773504725E+02 0.  0.
          2    1    3    3  502    0 -0.36053887557E+02 -0.81470914174E+01  0.32507192001E+03  0.32716664116E+03  0.00000000000E+00 0. -1.
         -2    1    3    3    0  502  0.36053887557E+02  0.81470914174E+01  0.12276812311E+04  0.12282375434E+04  0.00000000000E+00 0.  1.
<mgrwt>
<rscale>  0 0.90773505E+02</rscale>
<asrwt>0</asrwt>
<pdfrwt beam="1">  1        2 0.23908757E+00 0.90773505E+02</pdfrwt>
<pdfrwt beam="2">  1       -2 0.20392690E-03 0.90773505E+02</pdfrwt>
<totfact> 0.23534052E+05</totfact>
</mgrwt>
</event>
<event>
 5    1  0.3957498E+001  0.9007636E+02  0.7546771E-02  0.1302667E+00
          2   -1    0    0  501    0  0.00000000000E+00  0.00000000000E+00  0.57071890129E+03  0.57071890129E+03  0.00000000000E+00 0. -1.
         -2   -1    0    0    0  501 -0.00000000000E+00 -0.00000000000E+00 -0.35541801756E+01  0.35541801756E+01  0.00000000000E+00 0.  1.
         23    2    1    2    0    0  0.00000000000E+00  0.00000000000E+00  0.56716472112E+03  0.57427308147E+03  0.90076363266E+02 0.  0.
          2    1    3    3  502    0 -0.87157843124E+01 -0.29979841920E+02  0.49053091339E+03  0.49152348144E+03  0.00000000000E+00 0. -1.
         -2    1    3    3    0  502  0.87157843124E+01  0.29979841920E+02  0.76633807728E+02  0.82749600027E+02  0.00000000000E+00 0.  1.
<mgrwt>
<rscale>  0 0.90076363E+02</rscale>
<asrwt>0</asrwt>
<pdfrwt beam="1">  1        2 0.87802835E-01 0.90076363E+02</pdfrwt>
<pdfrwt beam="2">  1       -2 0.54679740E-03 0.90076363E+02</pdfrwt>
<totfact> 0.23188122E+05</totfact>
</mgrwt>
</event>
<event>
 5    1  0.3957498E+001  0.9105211E+02  0.7546771E-02  0.1300324E+00
         -2   -1    0    0    0  501 -0.00000000000E+00  0.00000000000E+00  0.45349958188E+03  0.45349958188E+03  0.00000000000E+00 0.  1.
          2   -1    0    0  501    0  0.00000000000E+00 -0.00000000000E+00 -0.45702831583E+01  0.45702831583E+01  0.00000000000E+00 0. -1.
         23    2    1    2    0    0  0.00000000000E+00  0.00000000000E+00  0.44892929873E+03  0.45806986504E+03  0.91052105992E+02 0.  0.
          2    1    3    3  502    0  0.29284812600E+02 -0.33464291215E+02  0.17538803776E+03  0.18093762136E+03  0.00000000000E+00 0. -1.
         -2    1    3    3    0  502 -0.29284812600E+02  0.33464291215E+02  0.27354126097E+03  0.27713224368E+03  0.00000000000E+00 0.  1.
<mgrwt>
<rscale>  0 0.91052106E+02</rscale>
<asrwt>0</asrwt>
<pdfrwt beam="2">  1        2 0.70312084E-03 0.91052106E+02</pdfrwt>
<pdfrwt beam="1">  1       -2 0.69769131E-01 0.91052106E+02</pdfrwt>
<totfact> 0.39219843E+04</totfact>
</mgrwt>
</event>
<event>
 5    1  0.3957498E+001  0.8853300E+02  0.7546771E-02  0.1306444E+00
         -1   -1    0    0    0  501 -0.00000000000E+00  0.00000000000E+00  0.15087464159E+02  0.15087464159E+02  0.00000000000E+00 0.  1.
          1   -1    0    0  501    0  0.00000000000E+00 -0.00000000000E+00 -0.12987756530E+03  0.12987756530E+03  0.00000000000E+00 0. -1.
         23    2    1    2    0    0  0.00000000000E+00  0.00000000000E+00 -0.11479010114E+03  0.14496502946E+03  0.88533002017E+02 0.  0.
          2    1    3    3  502    0 -0.24656969646E+02  0.77215197349E+00 -0.11757882508E+03  0.12013884667E+03  0.00000000000E+00 0. -1.
         -2    1    3    3    0  502  0.24656969646E+02 -0.77215197349E+00  0.27887239413E+01  0.24826182792E+02  0.00000000000E+00 0.  1.
<mgrwt>
<rscale>  0 0.88533002E+02</rscale>
<asrwt>0</asrwt>
<pdfrwt beam="2">  1        1 0.19981165E-01 0.88533002E+02</pdfrwt>
<pdfrwt beam="1">  1       -1 0.23211482E-02 0.88533002E+02</pdfrwt>
<totfact> 0.11828246E+05</totfact>
</mgrwt>
</event>
<event>
 5    1  0.3957498E+001  0.9114759E+02  0.7546771E-02  0.1300096E+00
         -2   -1    0    0    0  501 -0.00000000000E+00  0.00000000000E+00  0.15144624786E+01  0.15144624786E+01  0.00000000000E+00 0.  1.
          2   -1    0    0  501    0  0.00000000000E+00 -0.00000000000E+00 -0.13714244842E+04  0.13714244842E+04  0.00000000000E+00 0. -1.
         23    2    1    2    0    0  0.00000000000E+00  0.00000000000E+00 -0.13699100217E+04  0.13729389467E+04  0.91147592914E+02 0.  0.
          2    1    3    3  502    0  0.26846453045E+02 -0.35501199477E+02 -0.83246578537E+03  0.83365481526E+03  0.00000000000E+00 0. -1.
         -2    1    3    3    0  502 -0.26846453045E+02  0.35501199477E+02 -0.53744423636E+03  0.53928413142E+03  0.00000000000E+00 0.  1.
<mgrwt>
<rscale>  0 0.91147593E+02</rscale>
<asrwt>0</asrwt>
<pdfrwt beam="2">  1        2 0.21098763E+00 0.91147593E+02</pdfrwt>
<pdfrwt beam="1">  1       -2 0.23299506E-03 0.91147593E+02</pdfrwt>
<totfact> 0.24295450E+05</totfact>
</mgrwt>
</event>
<event>
 5    1  0.3957498E+001  0.1006305E+03  0.7546771E-02  0.1278976E+00
          3   -1    0    0  501    0  0.00000000000E+00  0.00000000000E+00  0.11521030743E+02  0.11521030743E+02  0.00000000000E+00 0. -1.
         -3   -1    0    0    0  501 -0.00000000000E+00 -0.00000000000E+00 -0.21973958240E+03  0.21973958240E+03  0.00000000000E+00 0.  1.
         23    2    1    2    0    0  0.00000000000E+00  0.00000000000E+00 -0.20821855166E+03  0.23126061314E+03  0.10063054177E+03 0.  0.
          2    1    3    3  502    0 -0.38467710212E+02  0.32394783750E+02 -0.10769885658E+03  0.11886223307E+03  0.00000000000E+00 0.  1.
         -2    1    3    3    0  502  0.38467710212E+02 -0.32394783750E+02 -0.10051969508E+03  0.11239838007E+03  0.00000000000E+00 0. -1.
<mgrwt>
<rscale>  0 0.10063054E+03</rscale>
<asrwt>0</asrwt>
<pdfrwt beam="1">  1        3 0.17724663E-02 0.10063054E+03</pdfrwt>
<pdfrwt beam="2">  1       -3 0.33806089E-01 0.10063054E+03</pdfrwt>
<totfact> 0.20629794E+04</totfact>
</mgrwt>
</event>
<event>
 5    1  0.3957498E+001  0.9202269E+02  0.7546771E-02  0.1298026E+00
          3   -1    0    0  501    0  0.00000000000E+00  0.00000000000E+00  0.12850821587E+02  0.12850821587E+02  0.00000000000E+00 0. -1.
         -3   -1    0    0    0  501 -0.00000000000E+00 -0.00000000000E+00 -0.16473994823E+03  0.16473994823E+03  0.00000000000E+00 0.  1.
         23    2    1    2    0    0  0.00000000000E+00  0.00000000000E+00 -0.15188912664E+03  0.17759076982E+03  0.92022685964E+02 0.  0.
          2    1    3    3  502    0 -0.29968253768E+01 -0.33843871057E+02 -0.13582167533E+03  0.14000684291E+03  0.00000000000E+00 0.  1.
         -2    1    3    3    0  502  0.29968253768E+01  0.33843871057E+02 -0.16067451311E+02  0.37583926912E+02  0.00000000000E+00 0. -1.
<mgrwt>
<rscale>  0 0.92022686E+02</rscale>
<asrwt>0</asrwt>
<pdfrwt beam="1">  1        3 0.19770496E-02 0.92022686E+02</pdfrwt>
<pdfrwt beam="2">  1       -3 0.25344606E-01 0.92022686E+02</pdfrwt>
<totfact> 0.28966012E+04</totfact>
</mgrwt>
</event>
<event>
 5    1  0.3957498E+001  0.9332295E+02  0.7546771E-02  0.1294999E+00
          3   -1    0    0  501    0  0.00000000000E+00  0.00000000000E+00  0.84543332783E+02  0.84543332783E+02  0.00000000000E+00 0. -1.
         -3   -1    0    0    0  501 -0.00000000000E+00 -0.00000000000E+00 -0.25753578994E+02  0.25753578994E+02  0.00000000000E+00 0.  1.
         23    2    1    2    0    0  0.00000000000E+00  0.00000000000E+00  0.58789753789E+02  0.11029691178E+03  0.93322953217E+02 0.  0.
          2    1    3    3  502    0 -0.20551322550E+02  0.92341150259E+01  0.77688512048E+02  0.80889620120E+02  0.00000000000E+00 0. -1.
         -2    1    3    3    0  502  0.20551322550E+02 -0.92341150259E+01 -0.18898758259E+02  0.29407291658E+02  0.00000000000E+00 0.  1.
<mgrwt>
<rscale>  0 0.93322953E+02</rscale>
<asrwt>0</asrwt>
<pdfrwt beam="1">  1        3 0.13006666E-01 0.93322953E+02</pdfrwt>
<pdfrwt beam="2">  1       -3 0.39620891E-02 0.93322953E+02</pdfrwt>
<totfact> 0.31838871E+04</totfact>
</mgrwt>
</event>
<event>
 5    1  0.3957498E+001  0.9616477E+02  0.7546771E-02  0.1288574E+00
         -1   -1    0    0    0  501 -0.00000000000E+00  0.00000000000E+00  0.59803037148E+02  0.59803037148E+02  0.00000000000E+00 0.  1.
          1   -1    0    0  501    0  0.00000000000E+00 -0.00000000000E+00 -0.38658833635E+02  0.38658833635E+02  0.00000000000E+00 0. -1.
         23    2    1    2    0    0  0.00000000000E+00  0.00000000000E+00  0.21144203514E+02  0.98461870783E+02  0.96164768267E+02 0.  0.
          2    1    3    3  502    0 -0.33990882292E+02 -0.21142130787E+02 -0.16701490180E+02  0.43374065378E+02  0.00000000000E+00 0. -1.
         -2    1    3    3    0  502  0.33990882292E+02  0.21142130787E+02  0.37845693694E+02  0.55087805405E+02  0.00000000000E+00 0.  1.
<mgrwt>
<rscale>  0 0.96164768E+02</rscale>
<asrwt>0</asrwt>
<pdfrwt beam="2">  1        1 0.59475129E-02 0.96164768E+02</pdfrwt>
<pdfrwt beam="1">  1       -1 0.92004673E-02 0.96164768E+02</pdfrwt>
<totfact> 0.77509854E+04</totfact>
</mgrwt>
</event>
<event>
 5    1  0.3957498E+001  0.9276930E+02  0.7546771E-02  0.1296281E+00
         -1   -1    0    0    0  501 -0.00000000000E+00  0.00000000000E+00  0.17893119193E+02  0.17893119193E+02  0.00000000000E+00 0.  1.
          1   -1    0    0  501    0  0.00000000000E+00 -0.00000000000E+00 -0.12024375615E+03  0.12024375615E+03  0.00000000000E+00 0. -1.
         23    2    1    2    0    0  0.00000000000E+00  0.00000000000E+00 -0.10235063696E+03  0.13813687535E+03  0.92769302274E+02 0.  0.
          2    1    3    3  502    0 -0.12202115297E+02  0.22996040443E+02 -0.10834009352E+03  0.11142389941E+03  0.00000000000E+00 0. -1.
         -2    1    3    3    0  502  0.12202115297E+02 -0.22996040443E+02  0.59894565628E+01  0.26712975943E+02  0.00000000000E+00 0.  1.
<mgrwt>
<rscale>  0 0.92769302E+02</rscale>
<asrwt>0</asrwt>
<pdfrwt beam="2">  1        1 0.18499039E-01 0.92769302E+02</pdfrwt>
<pdfrwt beam="1">  1       -1 0.27527876E-02 0.92769302E+02</pdfrwt>
<totfact> 0.10282340E+05</totfact>
</mgrwt>
</event>
<event>
 5    1  0.3957498E+001  0.8237303E+02  0.7546771E-02  0.1322449E+00
         -3   -1    0    0    0  501 -0.00000000000E+00  0.00000000000E+00  0.34489580738E+01  0.34489580738E+01  0.00000000000E+00 0.  1.
          3   -1    0    0  501    0  0.00000000000E+00 -0.00000000000E+00 -0.49183810537E+03  0.49183810537E+03  0.00000000000E+00 0. -1.
         23    2    1    2    0    0  0.00000000000E+00  0.00000000000E+00 -0.48838914729E+03  0.49528706344E+03  0.82373029676E+02 0.  0.
          2    1    3    3  502    0 -0.32017321483E+01  0.38687948392E+02 -0.32692606266E+03  0.32922281040E+03  0.00000000000E+00 0. -1.
         -2    1    3    3    0  502  0.32017321483E+01 -0.38687948392E+02 -0.16146308463E+03  0.16606425304E+03  0.00000000000E+00 0.  1.
<mgrwt>
<rscale>  0 0.82373030E+02</rscale>
<asrwt>0</asrwt>
<pdfrwt beam="2">  1        3 0.75667414E-01 0.82373030E+02</pdfrwt>
<pdfrwt beam="1">  1       -3 0.53060884E-03 0.82373030E+02</pdfrwt>
<totfact> 0.23594598E+04</totfact>
</mgrwt>
</event>
<event>
 5    1  0.3957498E+001  0.9089977E+02  0.7546771E-02  0.1300687E+00
         -2   -1    0    0    0  501 -0.00000000000E+00  0.00000000000E+00  0.12010783442E+02  0.12010783442E+02  0.00000000000E+00 0. -1.
          2   -1    0    0  501    0  0.00000000000E+00 -0.00000000000E+00 -0.17198646766E+03  0.17198646766E+03  0.00000000000E+00 0.  1.
         23    2    1    2    0    0  0.00000000000E+00  0.00000000000E+00 -0.15997568422E+03  0.18399725110E+03  0.90899773771E+02 0.  0.
          2    1    3    3  502    0 -0.58607735336E+01  0.30114023503E+02 -0.12110291047E+02  0.32982756513E+02  0.00000000000E+00 0. -1.
         -2    1    3    3    0  502  0.58607735336E+01 -0.30114023503E+02 -0.14786539317E+03  0.15101449459E+03  0.00000000000E+00 0.  1.
<mgrwt>
<rscale>  0 0.90899774E+02</rscale>
<asrwt>0</asrwt>
<pdfrwt beam="2">  1        2 0.26459456E-01 0.90899774E+02</pdfrwt>
<pdfrwt beam="1">  1       -2 0.18478129E-02 0.90899774E+02</pdfrwt>
<totfact> 0.14778396E+05</totfact>
</mgrwt>
</event>
<event>
 5    1  0.3957498E+001  0.9767488E+02  0.7546771E-02  0.1285263E+00
          3   -1    0    0  501    0  0.00000000000E+00  0.00000000000E+00  0.94948774660E+02  0.94948774660E+02  0.00000000000E+00 0. -1.
         -3   -1    0    0    0  501 -0.00000000000E+00 -0.00000000000E+00 -0.25119812712E+02  0.25119812712E+02  0.00000000000E+00 0.  1.
         23    2    1    2    0    0  0.00000000000E+00  0.00000000000E+00  0.69828961948E+02  0.12006858737E+03  0.97674877767E+02 0.  0.
          2    1    3    3  502    0 -0.21859974772E+02  0.20570580840E+02  0.82270629331E+02  0.87575474556E+02  0.00000000000E+00 0. -1.
         -2    1    3    3    0  502  0.21859974772E+02 -0.20570580840E+02 -0.12441667384E+02  0.32493112816E+02  0.00000000000E+00 0.  1.
<mgrwt>
<rscale>  0 0.97674878E+02</rscale>
<asrwt>0</asrwt>
<pdfrwt beam="1">  1        3 0.14607504E-01 0.97674878E+02</pdfrwt>
<pdfrwt beam="2">  1       -3 0.38645866E-02 0.97674878E+02</pdfrwt>
<totfact> 0.27545541E+04</totfact>
</mgrwt>
</event>
<event>
 5    1  0.3957498E+001  0.9156473E+02  0.7546771E-02  0.1299106E+00
          3   -1    0    0  501    0  0.00000000000E+00  0.00000000000E+00  0.16034439054E+03  0.16034439054E+03  0.00000000000E+00 0. -1.
         -3   -1    0    0    0  501 -0.00000000000E+00 -0.00000000000E+00 -0.13072019958E+02  0.13072019958E+02  0.00000000000E+00 0.  1.
         23    2    1    2    0    0  0.00000000000E+00  0.00000000000E+00  0.14727237058E+03  0.17341641050E+03  0.91564732800E+02 0.  0.
          2    1    3    3  502    0 -0.23847416701E+02 -0.27388626924E+02  0.12643513169E+03  0.13154724890E+03  0.00000000000E+00 0. -1.
         -2    1    3    3    0  502  0.23847416701E+02  0.27388626924E+02  0.20837238892E+02  0.41869161596E+02  0.00000000000E+00 0.  1.
<mgrwt>
<rscale>  0 0.91564733E+02</rscale>
<asrwt>0</asrwt>
<pdfrwt beam="1">  1        3 0.24668366E-01 0.91564733E+02</pdfrwt>
<pdfrwt beam="2">  1       -3 0.20110801E-02 0.91564733E+02</pdfrwt>
<totfact> 0.29590885E+04</totfact>
</mgrwt>
</event>
<event>
 5    1  0.3957498E+001  0.9138248E+02  0.7546771E-02  0.1299538E+00
          1   -1    0    0  501    0  0.00000000000E+00  0.00000000000E+00  0.28592446813E+03  0.28592446813E+03  0.00000000000E+00 0. -1.
         -1   -1    0    0    0  501 -0.00000000000E+00 -0.00000000000E+00 -0.73015411663E+01  0.73015411663E+01  0.00000000000E+00 0.  1.
         23    2    1    2    0    0  0.00000000000E+00  0.00000000000E+00  0.27862292697E+03  0.29322600930E+03  0.91382476975E+02 0.  0.
          2    1    3    3  502    0 -0.20015749945E+02 -0.40559412092E+02  0.16010501308E+03  0.16637100519E+03  0.00000000000E+00 0.  1.
         -2    1    3    3    0  502  0.20015749945E+02  0.40559412092E+02  0.11851791389E+03  0.12685500411E+03  0.00000000000E+00 0. -1.
<mgrwt>
<rscale>  0 0.91382477E+02</rscale>
<asrwt>0</asrwt>
<pdfrwt beam="1">  1        1 0.43988371E-01 0.91382477E+02</pdfrwt>
<pdfrwt beam="2">  1       -1 0.11233142E-02 0.91382477E+02</pdfrwt>
<totfact> 0.12618528E+05</totfact>
</mgrwt>
</event>
<event>
 5    1  0.3957498E+001  0.9338353E+02  0.7546771E-02  0.1294859E+00
          2   -1    0    0  501    0  0.00000000000E+00  0.00000000000E+00  0.24948012953E+02  0.24948012953E+02  0.00000000000E+00 0. -1.
         -2   -1    0    0    0  501 -0.00000000000E+00 -0.00000000000E+00 -0.87386548474E+02  0.87386548474E+02  0.00000000000E+00 0.  1.
         23    2    1    2    0    0  0.00000000000E+00  0.00000000000E+00 -0.62438535522E+02  0.11233456143E+03  0.93383526239E+02 0.  0.
          2    1    3    3  502    0 -0.18638326547E+02  0.42728293279E+02 -0.34407955847E+02  0.57939638319E+02  0.00000000000E+00 0.  1.
         -2    1    3    3    0  502  0.18638326547E+02 -0.42728293279E+02 -0.28030579675E+02  0.54394923108E+02  0.00000000000E+00 0. -1.
<mgrwt>
<rscale>  0 0.93383526E+02</rscale>
<asrwt>0</asrwt>
<pdfrwt beam="1">  1        2 0.38381558E-02 0.93383526E+02</pdfrwt>
<pdfrwt beam="2">  1       -2 0.13444085E-01 0.93383526E+02</pdfrwt>
<totfact> 0.78236828E+04</totfact>
</mgrwt>
</event>
<event>
 5    1  0.3957498E+001  0.9312288E+02  0.7546771E-02  0.1295461E+00
          2   -1    0    0  501    0  0.00000000000E+00  0.00000000000E+00  0.69138474435E+02  0.69138474435E+02  0.00000000000E+00 0. -1.
         -2   -1    0    0    0  501 -0.00000000000E+00 -0.00000000000E+00 -0.31356895231E+02  0.31356895231E+02  0.00000000000E+00 0.  1.
         23    2    1    2    0    0  0.00000000000E+00  0.00000000000E+00  0.37781579203E+02  0.10049536967E+03  0.93122884390E+02 0.  0.
          2    1    3    3  502    0  0.35270064353E+02 -0.24351984364E+02 -0.74212655744E+00  0.42866622608E+02  0.00000000000E+00 0.  1.
         -2    1    3    3    0  502 -0.35270064353E+02  0.24351984364E+02  0.38523705761E+02  0.57628747058E+02  0.00000000000E+00 0. -1.
<mgrwt>
<rscale>  0 0.93122884E+02</rscale>
<asrwt>0</asrwt>
<pdfrwt beam="1">  1        2 0.10636688E-01 0.93122884E+02</pdfrwt>
<pdfrwt beam="2">  1       -2 0.48241377E-02 0.93122884E+02</pdfrwt>
<totfact> 0.10389582E+05</totfact>
</mgrwt>
</event>
<event>
 5    1  0.3957498E+001  0.8671256E+02  0.7546771E-02  0.1311014E+00
         -1   -1    0    0    0  501 -0.00000000000E+00  0.00000000000E+00  0.16464109172E+02  0.16464109172E+02  0.00000000000E+00 0.  1.
          1   -1    0    0  501    0  0.00000000000E+00 -0.00000000000E+00 -0.11417362555E+03  0.11417362555E+03  0.00000000000E+00 0. -1.
         23    2    1    2    0    0  0.00000000000E+00  0.00000000000E+00 -0.97709516382E+02  0.13063773473E+03  0.86712560468E+02 0.  0.
          2    1    3    3  502    0  0.10589400449E+02  0.30166149753E+02 -0.92975000579E+02  0.98318272592E+02  0.00000000000E+00 0. -1.
         -2    1    3    3    0  502 -0.10589400449E+02 -0.30166149753E+02 -0.47345158030E+01  0.32319462135E+02  0.00000000000E+00 0.  1.
<mgrwt>
<rscale>  0 0.86712560E+02</rscale>
<asrwt>0</asrwt>
<pdfrwt beam="2">  1        1 0.17565173E-01 0.86712560E+02</pdfrwt>
<pdfrwt beam="1">  1       -1 0.25329399E-02 0.86712560E+02</pdfrwt>
<totfact> 0.12235395E+05</totfact>
</mgrwt>
</event>
<event>
 5    1  0.3957498E+001  0.9077024E+02  0.7546771E-02  0.1300997E+00
          2   -1    0    0  501    0  0.00000000000E+00  0.00000000000E+00  0.29476272321E+04  0.29476272321E+04  0.00000000000E+00 0.  1.
         -2   -1    0    0    0  501 -0.00000000000E+00 -0.00000000000E+00 -0.69880241605E+00  0.69880241605E+00  0.00000000000E+00 0. -1.
         23    2    1    2    0    0  0.00000000000E+00  0.00000000000E+00  0.29469284297E+04  0.29483260346E+04  0.90770238105E+02 0.  0.
          2    1    3    3  502    0 -0.25055894635E+02  0.23622020250E+02  0.51320039710E+03  0.51435439658E+03  0.00000000000E+00 0. -1.
         -2    1    3    3    0  502  0.25055894635E+02 -0.23622020250E+02  0.24337280326E+04  0.24339716380E+04  0.00000000000E+00 0.  1.
<mgrwt>
<rscale>  0 0.90770238E+02</rscale>
<asrwt>0</asrwt>
<pdfrwt beam="1">  1        2 0.45347116E+00 0.90770238E+02</pdfrwt>
<pdfrwt beam="2">  1       -2 0.10751042E-03 0.90770238E+02</pdfrwt>
<totfact> 0.10778943E+05</totfact>
</mgrwt>
</event>
<event>
 5    1  0.3957498E+001  0.9165104E+02  0.7546771E-02  0.1298902E+00
          2   -1    0    0  501    0  0.00000000000E+00  0.00000000000E+00  0.72077078688E+03  0.72077078688E+03  0.00000000000E+00 0. -1.
         -2   -1    0    0    0  501 -0.00000000000E+00 -0.00000000000E+00 -0.29135177832E+01  0.29135177832E+01  0.00000000000E+00 0.  1.
         23    2    1    2    0    0  0.00000000000E+00  0.00000000000E+00  0.71785726909E+03  0.72368430466E+03  0.91651044842E+02 0.  0.
          2    1    3    3  502    0  0.45168581237E+02  0.62641517809E+01  0.39471294689E+03  0.39733833287E+03  0.00000000000E+00 0. -1.
         -2    1    3    3    0  502 -0.45168581237E+02 -0.62641517809E+01  0.32314432221E+03  0.32634597179E+03  0.00000000000E+00 0.  1.
<mgrwt>
<rscale>  0 0.91651045E+02</rscale>
<asrwt>0</asrwt>
<pdfrwt beam="1">  1        2 0.11088767E+00 0.91651045E+02</pdfrwt>
<pdfrwt beam="2">  1       -2 0.44823408E-03 0.91651045E+02</pdfrwt>
<totfact> 0.23547934E+05</totfact>
</mgrwt>
</event>
<event>
 5    1  0.3957498E+001  0.9291951E+02  0.7546771E-02  0.1295932E+00
          1   -1    0    0  501    0  0.00000000000E+00  0.00000000000E+00  0.25747951629E+02  0.25747951629E+02  0.00000000000E+00 0. -1.
         -1   -1    0    0    0  501 -0.00000000000E+00 -0.00000000000E+00 -0.83832255737E+02  0.83832255737E+02  0.00000000000E+00 0.  1.
         23    2    1    2    0    0  0.00000000000E+00  0.00000000000E+00 -0.58084304108E+02  0.10958020737E+03  0.92919510667E+02 0.  0.
          2    1    3    3  502    0  0.50013261770E+01 -0.43876128980E+02 -0.46065860267E+02  0.63813724542E+02  0.00000000000E+00 0. -1.
         -2    1    3    3    0  502 -0.50013261770E+01  0.43876128980E+02 -0.12018443842E+02  0.45766482825E+02  0.00000000000E+00 0.  1.
<mgrwt>
<rscale>  0 0.92919511E+02</rscale>
<asrwt>0</asrwt>
<pdfrwt beam="1">  1        1 0.39612233E-02 0.92919511E+02</pdfrwt>
<pdfrwt beam="2">  1       -1 0.12897270E-01 0.92919511E+02</pdfrwt>
<totfact> 0.79994842E+04</totfact>
</mgrwt>
</event>
<event>
 5    1  0.3957498E+001  0.9265355E+02  0.7546771E-02  0.1296550E+00
          2   -1    0    0  501    0  0.00000000000E+00  0.00000000000E+00  0.73223300859E+02  0.73223300859E+02  0.00000000000E+00 0. -1.
         -2   -1    0    0    0  501 -0.00000000000E+00 -0.00000000000E+00 -0.29309931582E+02  0.29309931582E+02  0.00000000000E+00 0.  1.
         23    2    1    2    0    0  0.00000000000E+00  0.00000000000E+00  0.43913369277E+02  0.10253323244E+03  0.92653546901E+02 0.  0.
          2    1    3    3  502    0  0.21796814324E+02 -0.40186555311E+02  0.13667321408E+02  0.47716412448E+02  0.00000000000E+00 0. -1.
         -2    1    3    3    0  502 -0.21796814324E+02  0.40186555311E+02  0.30246047869E+02  0.54816819993E+02  0.00000000000E+00 0.  1.
<mgrwt>
<rscale>  0 0.92653547E+02</rscale>
<asrwt>0</asrwt>
<pdfrwt beam="1">  1        2 0.11265123E-01 0.92653547E+02</pdfrwt>
<pdfrwt beam="2">  1       -2 0.45092203E-02 0.92653547E+02</pdfrwt>
<totfact> 0.10709159E+05</totfact>
</mgrwt>
</event>
<event>
 5    1  0.3957498E+001  0.8597934E+02  0.7546771E-02  0.1312891E+00
          2   -1    0    0  501    0  0.00000000000E+00  0.00000000000E+00  0.50088824978E+03  0.50088824978E+03  0.00000000000E+00 0. -1.
         -2   -1    0    0    0  501 -0.00000000000E+00 -0.00000000000E+00 -0.36896691874E+01  0.36896691874E+01  0.00000000000E+00 0.  1.
         23    2    1    2    0    0  0.00000000000E+00  0.00000000000E+00  0.49719858059E+03  0.50457791897E+03  0.85979344997E+02 0.  0.
          2    1    3    3  502    0 -0.41340047297E+02 -0.30940128773E+01  0.31539295051E+03  0.31810577747E+03  0.00000000000E+00 0. -1.
         -2    1    3    3    0  502  0.41340047297E+02  0.30940128773E+01  0.18180563008E+03  0.18647214150E+03  0.00000000000E+00 0.  1.
<mgrwt>
<rscale>  0 0.85979345E+02</rscale>
<asrwt>0</asrwt>
<pdfrwt beam="1">  1        2 0.77059677E-01 0.85979345E+02</pdfrwt>
<pdfrwt beam="2">  1       -2 0.56764181E-03 0.85979345E+02</pdfrwt>
<totfact> 0.25172420E+05</totfact>
</mgrwt>
</event>
<event>
 5    1  0.3957498E+001  0.8882064E+02  0.7546771E-02  0.1305733E+00
         -2   -1    0    0    0  501 -0.00000000000E+00  0.00000000000E+00  0.41165781511E+01  0.41165781511E+01  0.00000000000E+00 0.  1.
          2   -1    0    0  501    0  0.00000000000E+00 -0.00000000000E+00 -0.47910581124E+03  0.47910581124E+03  0.00000000000E+00 0. -1.
         23    2    1    2    0    0  0.00000000000E+00  0.00000000000E+00 -0.47498923309E+03  0.48322238939E+03  0.88820639822E+02 0.  0.
          2    1    3    3  502    0 -0.26393890064E+02 -0.34745879651E+01 -0.44105436546E+02  0.51516984841E+02  0.00000000000E+00 0.  1.
         -2    1    3    3    0  502  0.26393890064E+02  0.34745879651E+01 -0.43088379654E+03  0.43170540455E+03  0.00000000000E+00 0. -1.
<mgrwt>
<rscale>  0 0.88820640E+02</rscale>
<asrwt>0</asrwt>
<pdfrwt beam="2">  1        2 0.73708552E-01 0.88820640E+02</pdfrwt>
<pdfrwt beam="1">  1       -2 0.63332001E-03 0.88820640E+02</pdfrwt>
<totfact> 0.22771991E+05</totfact>
</mgrwt>
</event>
<event>
 5    1  0.3957498E+001  0.9417032E+02  0.7546771E-02  0.1293056E+00
          2   -1    0    0  501    0  0.00000000000E+00  0.00000000000E+00  0.18441040769E+03  0.18441040769E+03  0.00000000000E+00 0. -1.
         -2   -1    0    0    0  501 -0.00000000000E+00 -0.00000000000E+00 -0.12022164992E+02  0.12022164992E+02  0.00000000000E+00 0.  1.
         23    2    1    2    0    0  0.00000000000E+00  0.00000000000E+00  0.17238824270E+03  0.19643257268E+03  0.94170321175E+02 0.  0.
          2    1    3    3  502    0  0.17364896658E+02  0.37150434119E+02  0.13445612617E+03  0.14057078024E+03  0.00000000000E+00 0.  1.
         -2    1    3    3    0  502 -0.17364896658E+02 -0.37150434119E+02  0.37932116528E+02  0.55861792448E+02  0.00000000000E+00 0. -1.
<mgrwt>
<rscale>  0 0.94170321E+02</rscale>
<asrwt>0</asrwt>
<pdfrwt beam="1">  1        2 0.28370830E-01 0.94170321E+02</pdfrwt>
<pdfrwt beam="2">  1       -2 0.18495640E-02 0.94170321E+02</pdfrwt>
<totfact> 0.13766313E+05</totfact>
</mgrwt>
</event>
<event>
 5    1  0.3957498E+001  0.9029599E+02  0.7546771E-02  0.1302136E+00
         -1   -1    0    0    0  501 -0.00000000000E+00  0.00000000000E+00  0.47504443668E+02  0.47504443668E+02  0.00000000000E+00 0.  1.
          1   -1    0    0  501    0  0.00000000000E+00 -0.00000000000E+00 -0.42908439410E+02  0.42908439410E+02  0.00000000000E+00 0. -1.
         23    2    1    2    0    0  0.00000000000E+00  0.00000000000E+00  0.45960042582E+01  0.90412883079E+02  0.90295992001E+02 0.  0.
          2    1    3    3  502    0  0.39924747992E+02  0.49734084751E+01 -0.18213174788E+02  0.44163786408E+02  0.00000000000E+00 0. -1.
         -2    1    3    3    0  502 -0.39924747992E+02 -0.49734084751E+01  0.22809179046E+02  0.46249096670E+02  0.00000000000E+00 0.  1.
<mgrwt>
<rscale>  0 0.90295992E+02</rscale>
<asrwt>0</asrwt>
<pdfrwt beam="2">  1        1 0.66012984E-02 0.90295992E+02</pdfrwt>
<pdfrwt beam="1">  1       -1 0.73083760E-02 0.90295992E+02</pdfrwt>
<totfact> 0.94167072E+04</totfact>
</mgrwt>
</event>
<event>
 5    1  0.3957498E+001  0.9510793E+02  0.7546771E-02  0.1290933E+00
         -2   -1    0    0    0  501 -0.00000000000E+00  0.00000000000E+00  0.22047201038E+02  0.22047201038E+02  0.00000000000E+00 0. -1.
          2   -1    0    0  501    0  0.00000000000E+00 -0.00000000000E+00 -0.10256992799E+03  0.10256992799E+03  0.00000000000E+00 0.  1.
         23    2    1    2    0    0  0.00000000000E+00  0.00000000000E+00 -0.80522726955E+02  0.12461712903E+03  0.95107934956E+02 0.  0.
          2    1    3    3  502    0  0.98959179976E+01  0.40498942521E+02 -0.10288332295E+02  0.42941161136E+02  0.00000000000E+00 0. -1.
         -2    1    3    3    0  502 -0.98959179976E+01 -0.40498942521E+02 -0.70234394660E+02  0.81675967895E+02  0.00000000000E+00 0.  1.
<mgrwt>
<rscale>  0 0.95107935E+02</rscale>
<asrwt>0</asrwt>
<pdfrwt beam="2">  1        2 0.15779988E-01 0.95107935E+02</pdfrwt>
<pdfrwt beam="1">  1       -2 0.33918772E-02 0.95107935E+02</pdfrwt>
<totfact> 0.11003020E+05</totfact>
</mgrwt>
</event>
<event>
 5    1  0.3957498E+001  0.8987075E+02  0.7546771E-02  0.1303165E+00
          2   -1    0    0  501    0  0.00000000000E+00  0.00000000000E+00  0.44997272665E+03  0.44997272665E+03  0.00000000000E+00 0.  1.
         -2   -1    0    0    0  501 -0.00000000000E+00 -0.00000000000E+00 -0.44873566156E+01  0.44873566156E+01  0.00000000000E+00 0. -1.
         23    2    1    2    0    0  0.00000000000E+00  0.00000000000E+00  0.44548537004E+03  0.45446008327E+03  0.89870753681E+02 0.  0.
          2    1    3    3  502    0 -0.11473786072E+02  0.43253741241E+02  0.24337933340E+03  0.24745915587E+03  0.00000000000E+00 0. -1.
         -2    1    3    3    0  502  0.11473786072E+02 -0.43253741241E+02  0.20210603664E+03  0.20700092740E+03  0.00000000000E+00 0.  1.
<mgrwt>
<rscale>  0 0.89870754E+02</rscale>
<asrwt>0</asrwt>
<pdfrwt beam="1">  1        2 0.69226538E-01 0.89870754E+02</pdfrwt>
<pdfrwt beam="2">  1       -2 0.69036291E-03 0.89870754E+02</pdfrwt>
<totfact> 0.21613576E+05</totfact>
</mgrwt>
</event>
<event>
 5    1  0.3957498E+001  0.9058062E+02  0.7546771E-02  0.1301452E+00
          4   -1    0    0  501    0  0.00000000000E+00  0.00000000000E+00  0.73509044862E+01  0.73509044862E+01  0.00000000000E+00 0. -1.
         -4   -1    0    0    0  501 -0.00000000000E+00 -0.00000000000E+00 -0.27904212709E+03  0.27904212709E+03  0.00000000000E+00 0.  1.
         23    2    1    2    0    0  0.00000000000E+00  0.00000000000E+00 -0.27169122260E+03  0.28639303158E+03  0.90580616555E+02 0.  0.
          2    1    3    3  502    0  0.38101904421E+02  0.15106613191E+02 -0.74925774218E+02  0.85403960826E+02  0.00000000000E+00 0. -1.
         -2    1    3    3    0  502 -0.38101904421E+02 -0.15106613191E+02 -0.19676544839E+03  0.20098907075E+03  0.00000000000E+00 0.  1.
<mgrwt>
<rscale>  0 0.90580617E+02</rscale>
<asrwt>0</asrwt>
<pdfrwt beam="1">  1        4 0.11309084E-02 0.90580617E+02</pdfrwt>
<pdfrwt beam="2">  1       -4 0.42929557E-01 0.90580617E+02</pdfrwt>
<totfact> 0.18564234E+04</totfact>
</mgrwt>
</event>
<event>
 5    1  0.3957498E+001  0.9201016E+02  0.7546771E-02  0.1298056E+00
          2   -1    0    0  501    0  0.00000000000E+00  0.00000000000E+00  0.17227887076E+04  0.17227887076E+04  0.00000000000E+00 0.  1.
         -2   -1    0    0    0  501 -0.00000000000E+00 -0.00000000000E+00 -0.12285123504E+01  0.12285123504E+01  0.00000000000E+00 0. -1.
         23    2    1    2    0    0  0.00000000000E+00  0.00000000000E+00  0.17215601952E+04  0.17240172199E+04  0.92010156057E+02 0.  0.
          2    1    3    3  502    0 -0.28615376570E+02  0.36011054860E+02  0.84369571255E+03  0.84494857313E+03  0.00000000000E+00 0. -1.
         -2    1    3    3    0  502  0.28615376570E+02 -0.36011054860E+02  0.87786448269E+03  0.87906864681E+03  0.00000000000E+00 0.  1.
<mgrwt>
<rscale>  0 0.92010156E+02</rscale>
<asrwt>0</asrwt>
<pdfrwt beam="1">  1        2 0.26504248E+00 0.92010156E+02</pdfrwt>
<pdfrwt beam="2">  1       -2 0.18900328E-03 0.92010156E+02</pdfrwt>
<totfact> 0.21530302E+05</totfact>
</mgrwt>
</event>
<event>
 5    1  0.3957498E+001  0.9086964E+02  0.7546771E-02  0.1300759E+00
         -1   -1    0    0    0  501 -0.00000000000E+00  0.00000000000E+00  0.18112858726E+03  0.18112858726E+03  0.00000000000E+00 0.  1.
          1   -1    0    0  501    0  0.00000000000E+00 -0.00000000000E+00 -0.11397001862E+02  0.11397001862E+02  0.00000000000E+00 0. -1.
         23    2    1    2    0    0  0.00000000000E+00  0.00000000000E+00  0.16973158540E+03  0.19252558913E+03  0.90869639513E+02 0.  0.
          2    1    3    3  502    0 -0.41572478376E+02 -0.79538396857E+01  0.49872682604E+02  0.65412682213E+02  0.00000000000E+00 0. -1.
         -2    1    3    3    0  502  0.41572478376E+02  0.79538396857E+01  0.11985890280E+03  0.12711290691E+03  0.00000000000E+00 0.  1.
<mgrwt>
<rscale>  0 0.90869640E+02</rscale>
<asrwt>0</asrwt>
<pdfrwt beam="2">  1        1 0.17533850E-02 0.90869640E+02</pdfrwt>
<pdfrwt beam="1">  1       -1 0.27865934E-01 0.90869640E+02</pdfrwt>
<totfact> 0.71979958E+04</totfact>
</mgrwt>
</event>
<event>
 5    1  0.3957498E+001  0.9084400E+02  0.7546771E-02  0.1300821E+00
          2   -1    0    0  501    0  0.00000000000E+00  0.00000000000E+00  0.99994959146E+03  0.99994959146E+03  0.00000000000E+00 0.  1.
         -2   -1    0    0    0  501 -0.00000000000E+00 -0.00000000000E+00 -0.20632621666E+01  0.20632621666E+01  0.00000000000E+00 0. -1.
         23    2    1    2    0    0  0.00000000000E+00  0.00000000000E+00  0.99788632929E+03  0.10020128536E+04  0.90844001686E+02 0.  0.
          2    1    3    3  502    0 -0.22501816690E+02  0.37335033025E+02  0.35815487830E+03  0.36079793971E+03  0.00000000000E+00 0. -1.
         -2    1    3    3    0  502  0.22501816690E+02 -0.37335033025E+02  0.63973145099E+03  0.64121491392E+03  0.00000000000E+00 0.  1.
<mgrwt>
<rscale>  0 0.90844002E+02</rscale>
<asrwt>0</asrwt>
<pdfrwt beam="1">  1        2 0.15383801E+00 0.90844002E+02</pdfrwt>
<pdfrwt beam="2">  1       -2 0.31742575E-03 0.90844002E+02</pdfrwt>
<totfact> 0.25243198E+05</totfact>
</mgrwt>
</event>
<event>
 5    1  0.3957498E+001  0.8775380E+02  0.7546771E-02  0.1308384E+00
          2   -1    0    0  501    0  0.00000000000E+00  0.00000000000E+00  0.85667684048E+03  0.85667684048E+03  0.00000000000E+00 0. -1.
         -2   -1    0    0    0  501 -0.00000000000E+00 -0.00000000000E+00 -0.22472676910E+01  0.22472676910E+01  0.00000000000E+00 0.  1.
         23    2    1    2    0    0  0.00000000000E+00  0.00000000000E+00  0.85442957279E+03  0.85892410817E+03  0.87753796162E+02 0.  0.
          2    1    3    3  502    0  0.27324949647E+02  0.34020146185E+02  0.47223795905E+03  0.47424963173E+03  0.00000000000E+00 0. -1.
         -2    1    3    3    0  502 -0.27324949647E+02 -0.34020146185E+02  0.38219161374E+03  0.38467447645E+03  0.00000000000E+00 0.  1.
<mgrwt>
<rscale>  0 0.87753796E+02</rscale>
<asrwt>0</asrwt>
<pdfrwt beam="1">  1        2 0.13179618E+00 0.87753796E+02</pdfrwt>
<pdfrwt beam="2">  1       -2 0.34573418E-03 0.87753796E+02</pdfrwt>
<totfact> 0.27247547E+05</totfact>
</mgrwt>
</event>
<event>
 5    1  0.3957498E+001  0.9227220E+02  0.7546771E-02  0.1297441E+00
         -2   -1    0    0    0  501 -0.00000000000E+00  0.00000000000E+00  0.25055103069E+01  0.25055103069E+01  0.00000000000E+00 0. -1.
          2   -1    0    0  501    0  0.00000000000E+00 -0.00000000000E+00 -0.84954337059E+03  0.84954337059E+03  0.00000000000E+00 0.  1.
         23    2    1    2    0    0  0.00000000000E+00  0.00000000000E+00 -0.84703786028E+03  0.85204888089E+03  0.92272198873E+02 0.  0.
          2    1    3    3  502    0  0.19197806722E+02  0.41744823344E+02 -0.46198595382E+03  0.46426523409E+03  0.00000000000E+00 0. -1.
         -2    1    3    3    0  502 -0.19197806722E+02 -0.41744823344E+02 -0.38505190646E+03  0.38778364680E+03  0.00000000000E+00 0.  1.
<mgrwt>
<rscale>  0 0.92272199E+02</rscale>
<asrwt>0</asrwt>
<pdfrwt beam="2">  1        2 0.13069885E+00 0.92272199E+02</pdfrwt>
<pdfrwt beam="1">  1       -2 0.38546351E-03 0.92272199E+02</pdfrwt>
<totfact> 0.23847557E+05</totfact>
</mgrwt>
</event>
<event>
 5    1  0.3957498E+001  0.7793304E+02  0.7546771E-02  0.1335022E+00
          3   -1    0    0  501    0  0.00000000000E+00  0.00000000000E+00  0.12313129707E+02  0.12313129707E+02  0.00000000000E+00 0. -1.
         -3   -1    0    0    0  501 -0.00000000000E+00 -0.00000000000E+00 -0.12331467461E+03  0.12331467461E+03  0.00000000000E+00 0.  1.
         23    2    1    2    0    0  0.00000000000E+00  0.00000000000E+00 -0.11100154490E+03  0.13562780431E+03  0.77933037492E+02 0.  0.
          2    1    3    3  502    0  0.32363505992E+02 -0.10360569645E+01 -0.17774931458E+02  0.36938030842E+02  0.00000000000E+00 0. -1.
         -2    1    3    3    0  502 -0.32363505992E+02  0.10360569645E+01 -0.93226613441E+02  0.98689773472E+02  0.00000000000E+00 0.  1.
<mgrwt>
<rscale>  0 0.77933037E+02</rscale>
<asrwt>0</asrwt>
<pdfrwt beam="1">  1        3 0.18943277E-02 0.77933037E+02</pdfrwt>
<pdfrwt beam="2">  1       -3 0.18971488E-01 0.77933037E+02</pdfrwt>
<totfact> 0.49084925E+04</totfact>
</mgrwt>
</event>
<event>
 5    1  0.3957498E+001  0.8741395E+02  0.7546771E-02  0.1309238E+00
         -3   -1    0    0    0  501 -0.00000000000E+00  0.00000000000E+00  0.10946887604E+04  0.10946887604E+04  0.00000000000E+00 0.  1.
          3   -1    0    0  501    0  0.00000000000E+00 -0.00000000000E+00 -0.17450618799E+01  0.17450618799E+01  0.00000000000E+00 0. -1.
         23    2    1    2    0    0  0.00000000000E+00  0.00000000000E+00  0.10929436985E+04  0.10964338222E+04  0.87413949141E+02 0.  0.
          2    1    3    3  502    0 -0.21353434390E+02  0.53472076168E-01  0.68136136117E+02  0.71403816876E+02  0.00000000000E+00 0. -1.
         -2    1    3    3    0  502  0.21353434390E+02 -0.53472076168E-01  0.10248075624E+04  0.10250300054E+04  0.00000000000E+00 0.  1.
<mgrwt>
<rscale>  0 0.87413949E+02</rscale>
<asrwt>0</asrwt>
<pdfrwt beam="2">  1        3 0.26847193E-03 0.87413949E+02</pdfrwt>
<pdfrwt beam="1">  1       -3 0.16841311E+00 0.87413949E+02</pdfrwt>
<totfact> 0.10109113E+04</totfact>
</mgrwt>
</event>
<event>
 5    1  0.3957498E+001  0.8826007E+02  0.7546771E-02  0.1307121E+00
          1   -1    0    0  501    0  0.00000000000E+00  0.00000000000E+00  0.18733887499E+02  0.18733887499E+02  0.00000000000E+00 0. -1.
         -1   -1    0    0    0  501 -0.00000000000E+00 -0.00000000000E+00 -0.10395385627E+03  0.10395385627E+03  0.00000000000E+00 0.  1.
         23    2    1    2    0    0  0.00000000000E+00  0.00000000000E+00 -0.85219968775E+02  0.12268774377E+03  0.88260066815E+02 0.  0.
          2    1    3    3  502    0 -0.23852912325E+02  0.29728687408E+01  0.88350414172E+01  0.25609711669E+02  0.00000000000E+00 0. -1.
         -2    1    3    3    0  502  0.23852912325E+02 -0.29728687408E+01 -0.94055010192E+02  0.97078032104E+02  0.00000000000E+00 0.  1.
<mgrwt>
<rscale>  0 0.88260067E+02</rscale>
<asrwt>0</asrwt>
<pdfrwt beam="1">  1        1 0.28821366E-02 0.88260067E+02</pdfrwt>
<pdfrwt beam="2">  1       -1 0.15992901E-01 0.88260067E+02</pdfrwt>
<totfact> 0.87831064E+04</totfact>
</mgrwt>
</event>
<event>
 5    1  0.3957498E+001  0.9149776E+02  0.7546771E-02  0.1299265E+00
         -3   -1    0    0    0  501 -0.00000000000E+00  0.00000000000E+00  0.11163162625E+03  0.11163162625E+03  0.00000000000E+00 0.  1.
          3   -1    0    0  501    0  0.00000000000E+00 -0.00000000000E+00 -0.18748810502E+02  0.18748810502E+02  0.00000000000E+00 0. -1.
         23    2    1    2    0    0  0.00000000000E+00  0.00000000000E+00  0.92882815753E+02  0.13038043676E+03  0.91497764052E+02 0.  0.
          2    1    3    3  502    0  0.23519179764E+02 -0.12004547210E+02 -0.67936671752E+01  0.27265635591E+02  0.00000000000E+00 0. -1.
         -2    1    3    3    0  502 -0.23519179764E+02  0.12004547210E+02  0.99676482928E+02  0.10311480117E+03  0.00000000000E+00 0.  1.
<mgrwt>
<rscale>  0 0.91497764E+02</rscale>
<asrwt>0</asrwt>
<pdfrwt beam="2">  1        3 0.28844325E-02 0.91497764E+02</pdfrwt>
<pdfrwt beam="1">  1       -3 0.17174096E-01 0.91497764E+02</pdfrwt>
<totfact> 0.32243086E+04</totfact>
</mgrwt>
</event>
<event>
 5    1  0.3957498E+001  0.9171325E+02  0.7546771E-02  0.1298755E+00
         -2   -1    0    0    0  501 -0.00000000000E+00  0.00000000000E+00  0.11448449043E+04  0.11448449043E+04  0.00000000000E+00 0.  1.
          2   -1    0    0  501    0  0.00000000000E+00 -0.00000000000E+00 -0.18367817225E+01  0.18367817225E+01  0.00000000000E+00 0. -1.
         23    2    1    2    0    0  0.00000000000E+00  0.00000000000E+00  0.11430081225E+04  0.11466816860E+04  0.91713253029E+02 0.  0.
          2    1    3    3  502    0  0.15913231682E+02 -0.24409946643E+02  0.12879653817E+03  0.13205159856E+03  0.00000000000E+00 0. -1.
         -2    1    3    3    0  502 -0.15913231682E+02  0.24409946643E+02  0.10142115844E+04  0.10146300874E+04  0.00000000000E+00 0.  1.
<mgrwt>
<rscale>  0 0.91713253E+02</rscale>
<asrwt>0</asrwt>
<pdfrwt beam="2">  1        2 0.28258272E-03 0.91713253E+02</pdfrwt>
<pdfrwt beam="1">  1       -2 0.17612942E+00 0.91713253E+02</pdfrwt>
<totfact> 0.15573943E+04</totfact>
</mgrwt>
</event>
<event>
 5    1  0.3957498E+001  0.9051413E+02  0.7546771E-02  0.1301611E+00
         -1   -1    0    0    0  501 -0.00000000000E+00  0.00000000000E+00  0.16521810289E+03  0.16521810289E+03  0.00000000000E+00 0.  1.
          1   -1    0    0  501    0  0.00000000000E+00 -0.00000000000E+00 -0.12396957306E+02  0.12396957306E+02  0.00000000000E+00 0. -1.
         23    2    1    2    0    0  0.00000000000E+00  0.00000000000E+00  0.15282114559E+03  0.17761506020E+03  0.90514126361E+02 0.  0.
          2    1    3    3  502    0 -0.19700240068E+02 -0.23315042905E+02  0.10842118967E+02  0.32392008707E+02  0.00000000000E+00 0. -1.
         -2    1    3    3    0  502  0.19700240068E+02  0.23315042905E+02  0.14197902662E+03  0.14522305149E+03  0.00000000000E+00 0.  1.
<mgrwt>
<rscale>  0 0.90514126E+02</rscale>
<asrwt>0</asrwt>
<pdfrwt beam="2">  1        1 0.19072243E-02 0.90514126E+02</pdfrwt>
<pdfrwt beam="1">  1       -1 0.25418168E-01 0.90514126E+02</pdfrwt>
<totfact> 0.74459291E+04</totfact>
</mgrwt>
</event>
<event>
 5    1  0.3957498E+001  0.9207532E+02  0.7546771E-02  0.1297902E+00
         -2   -1    0    0    0  501 -0.00000000000E+00  0.00000000000E+00  0.46453782438E+01  0.46453782438E+01  0.00000000000E+00 0. -1.
          2   -1    0    0  501    0  0.00000000000E+00 -0.00000000000E+00 -0.45625269387E+03  0.45625269387E+03  0.00000000000E+00 0.  1.
         23    2    1    2    0    0  0.00000000000E+00  0.00000000000E+00 -0.45160731563E+03  0.46089807212E+03  0.92075324334E+02 0.  0.
          2    1    3    3  502    0 -0.18916354779E+02  0.20187282418E+02 -0.41603988784E+02  0.49962453226E+02  0.00000000000E+00 0. -1.
         -2    1    3    3    0  502  0.18916354779E+02 -0.20187282418E+02 -0.41000332685E+03  0.41093561889E+03  0.00000000000E+00 0.  1.
<mgrwt>
<rscale>  0 0.92075324E+02</rscale>
<asrwt>0</asrwt>
<pdfrwt beam="2">  1        2 0.70192740E-01 0.92075324E+02</pdfrwt>
<pdfrwt beam="1">  1       -2 0.71467339E-03 0.92075324E+02</pdfrwt>
<totfact> 0.20365674E+05</totfact>
</mgrwt>
</event>
<event>
 5    1  0.3957498E+001  0.9182066E+02  0.7546771E-02  0.1298502E+00
          1   -1    0    0  501    0  0.00000000000E+00  0.00000000000E+00  0.27126668864E+02  0.27126668864E+02  0.00000000000E+00 0. -1.
         -1   -1    0    0    0  501 -0.00000000000E+00 -0.00000000000E+00 -0.77700604028E+02  0.77700604028E+02  0.00000000000E+00 0.  1.
         23    2    1    2    0    0  0.00000000000E+00  0.00000000000E+00 -0.50573935164E+02  0.10482727289E+03  0.91820663382E+02 0.  0.
          2    1    3    3  502    0  0.80176718992E+01  0.30120200154E+02  0.13196183469E+02  0.33847433849E+02  0.00000000000E+00 0. -1.
         -2    1    3    3    0  502 -0.80176718992E+01 -0.30120200154E+02 -0.63770118633E+02  0.70979839042E+02  0.00000000000E+00 0.  1.
<mgrwt>
<rscale>  0 0.91820663E+02</rscale>
<asrwt>0</asrwt>
<pdfrwt beam="1">  1        1 0.41733337E-02 0.91820663E+02</pdfrwt>
<pdfrwt beam="2">  1       -1 0.11953939E-01 0.91820663E+02</pdfrwt>
<totfact> 0.83547993E+04</totfact>
</mgrwt>
</event>
<event>
 5    1  0.3957498E+001  0.9937720E+02  0.7546771E-02  0.1281611E+00
          3   -1    0    0  501    0  0.00000000000E+00  0.00000000000E+00  0.99729559168E+02  0.99729559168E+02  0.00000000000E+00 0. -1.
         -3   -1    0    0    0  501 -0.00000000000E+00 -0.00000000000E+00 -0.24756522889E+02  0.24756522889E+02  0.00000000000E+00 0.  1.
         23    2    1    2    0    0  0.00000000000E+00  0.00000000000E+00  0.74973036278E+02  0.12448608206E+03  0.99377202905E+02 0.  0.
          2    1    3    3  502    0  0.29045470968E+02 -0.91728187991E+01  0.86663322884E+02  0.91860282613E+02  0.00000000000E+00 0. -1.
         -2    1    3    3    0  502 -0.29045470968E+02  0.91728187991E+01 -0.11690286606E+02  0.32625799444E+02  0.00000000000E+00 0.  1.
<mgrwt>
<rscale>  0 0.99377203E+02</rscale>
<asrwt>0</asrwt>
<pdfrwt beam="1">  1        3 0.15343009E-01 0.99377203E+02</pdfrwt>
<pdfrwt beam="2">  1       -3 0.38086959E-02 0.99377203E+02</pdfrwt>
<totfact> 0.26036453E+04</totfact>
</mgrwt>
</event>
<event>
 5    1  0.3957498E+001  0.9112311E+02  0.7546771E-02  0.1300154E+00
         -1   -1    0    0    0  501 -0.00000000000E+00  0.00000000000E+00  0.17147755217E+02  0.17147755217E+02  0.00000000000E+00 0.  1.
          1   -1    0    0  501    0  0.00000000000E+00 -0.00000000000E+00 -0.12105698321E+03  0.12105698321E+03  0.00000000000E+00 0. -1.
         23    2    1    2    0    0  0.00000000000E+00  0.00000000000E+00 -0.10390922799E+03  0.13820473843E+03  0.91123114859E+02 0.  0.
          2    1    3    3  502    0 -0.10055971218E+02  0.37150303480E+02 -0.14971590494E+02  0.41296684222E+02  0.00000000000E+00 0.  1.
         -2    1    3    3    0  502  0.10055971218E+02 -0.37150303480E+02 -0.88937637500E+02  0.96908054206E+02  0.00000000000E+00 0. -1.
<mgrwt>
<rscale>  0 0.91123115E+02</rscale>
<asrwt>0</asrwt>
<pdfrwt beam="2">  1        1 0.18624151E-01 0.91123115E+02</pdfrwt>
<pdfrwt beam="1">  1       -1 0.26381162E-02 0.91123115E+02</pdfrwt>
<totfact> 0.10807597E+05</totfact>
</mgrwt>
</event>
<event>
 5    1  0.3957498E+001  0.9155235E+02  0.7546771E-02  0.1299135E+00
          1   -1    0    0  501    0  0.00000000000E+00  0.00000000000E+00  0.14009033175E+04  0.14009033175E+04  0.00000000000E+00 0. -1.
         -1   -1    0    0    0  501 -0.00000000000E+00 -0.00000000000E+00 -0.14957908889E+01  0.14957908889E+01  0.00000000000E+00 0.  1.
         23    2    1    2    0    0  0.00000000000E+00  0.00000000000E+00  0.13994075266E+04  0.14023991084E+04  0.91552354827E+02 0.  0.
          2    1    3    3  502    0 -0.15014572231E+02  0.22323543249E+02  0.12670244019E+04  0.12673099909E+04  0.00000000000E+00 0. -1.
         -2    1    3    3    0  502  0.15014572231E+02 -0.22323543249E+02  0.13238312474E+03  0.13508911754E+03  0.00000000000E+00 0.  1.
<mgrwt>
<rscale>  0 0.91552355E+02</rscale>
<asrwt>0</asrwt>
<pdfrwt beam="1">  1        1 0.21552254E+00 0.91552355E+02</pdfrwt>
<pdfrwt beam="2">  1       -1 0.23012280E-03 0.91552355E+02</pdfrwt>
<totfact> 0.11512144E+05</totfact>
</mgrwt>
</event>
<event>
 5    1  0.3957498E+001  0.9090785E+02  0.7546771E-02  0.1300668E+00
         -2   -1    0    0    0  501 -0.00000000000E+00  0.00000000000E+00  0.18995370991E+03  0.18995370991E+03  0.00000000000E+00 0.  1.
          2   -1    0    0  501    0  0.00000000000E+00 -0.00000000000E+00 -0.10876646582E+02  0.10876646582E+02  0.00000000000E+00 0. -1.
         23    2    1    2    0    0  0.00000000000E+00  0.00000000000E+00  0.17907706333E+03  0.20083035650E+03  0.90907851579E+02 0.  0.
          2    1    3    3  502    0 -0.35744494252E+02  0.27227919581E+02  0.74388288986E+02  0.86905960741E+02  0.00000000000E+00 0. -1.
         -2    1    3    3    0  502  0.35744494252E+02 -0.27227919581E+02  0.10468877435E+03  0.11392439575E+03  0.00000000000E+00 0.  1.
<mgrwt>
<rscale>  0 0.90907852E+02</rscale>
<asrwt>0</asrwt>
<pdfrwt beam="2">  1        2 0.16733304E-02 0.90907852E+02</pdfrwt>
<pdfrwt beam="1">  1       -2 0.29223645E-01 0.90907852E+02</pdfrwt>
<totfact> 0.64184856E+04</totfact>
</mgrwt>
</event>
<event>
 5    1  0.3957498E+001  0.8497634E+02  0.7546771E-02  0.1315494E+00
         -1   -1    0    0    0  501 -0.00000000000E+00  0.00000000000E+00  0.43811486347E+01  0.43811486347E+01  0.00000000000E+00 0.  1.
          1   -1    0    0  501    0  0.00000000000E+00 -0.00000000000E+00 -0.41204819943E+03  0.41204819943E+03  0.00000000000E+00 0. -1.
         23    2    1    2    0    0  0.00000000000E+00  0.00000000000E+00 -0.40766705079E+03  0.41642934806E+03  0.84976335678E+02 0.  0.
          2    1    3    3  502    0  0.23262560457E+01  0.37500932384E+02 -0.10662085422E+03  0.11304750307E+03  0.00000000000E+00 0. -1.
         -2    1    3    3    0  502 -0.23262560457E+01 -0.37500932384E+02 -0.30104619657E+03  0.30338184499E+03  0.00000000000E+00 0.  1.
<mgrwt>
<rscale>  0 0.84976336E+02</rscale>
<asrwt>0</asrwt>
<pdfrwt beam="2">  1        1 0.63392017E-01 0.84976336E+02</pdfrwt>
<pdfrwt beam="1">  1       -1 0.67402301E-03 0.84976336E+02</pdfrwt>
<totfact> 0.16328454E+05</totfact>
</mgrwt>
</event>
<event>
 5    1  0.3957498E+001  0.7142987E+02  0.7546771E-02  0.1355297E+00
          2   -1    0    0  501    0  0.00000000000E+00  0.00000000000E+00  0.33193770556E+04  0.33193770556E+04  0.00000000000E+00 0.  1.
         -2   -1    0    0    0  501 -0.00000000000E+00 -0.00000000000E+00 -0.38427589289E+00  0.38427589289E+00  0.00000000000E+00 0. -1.
         23    2    1    2    0    0  0.00000000000E+00  0.00000000000E+00  0.33189927797E+04  0.33197613314E+04  0.71429869994E+02 0.  0.
          2    1    3    3  502    0  0.34243213781E+02  0.89500655742E+01  0.14373088572E+04  0.14377445713E+04  0.00000000000E+00 0.  1.
         -2    1    3    3    0  502 -0.34243213781E+02 -0.89500655742E+01  0.18816839225E+04  0.18820167602E+04  0.00000000000E+00 0. -1.
<mgrwt>
<rscale>  0 0.71429870E+02</rscale>
<asrwt>0</asrwt>
<pdfrwt beam="1">  1        2 0.51065043E+00 0.71429870E+02</pdfrwt>
<pdfrwt beam="2">  1       -2 0.59122026E-04 0.71429870E+02</pdfrwt>
<totfact> 0.14522348E+05</totfact>
</mgrwt>
</event>
<event>
 5    1  0.3957498E+001  0.9089347E+02  0.7546771E-02  0.1300702E+00
         -1   -1    0    0    0  501 -0.00000000000E+00  0.00000000000E+00  0.21075174453E+01  0.21075174453E+01  0.00000000000E+00 0.  1.
          1   -1    0    0  501    0  0.00000000000E+00 -0.00000000000E+00 -0.98001838273E+03  0.98001838273E+03  0.00000000000E+00 0. -1.
         23    2    1    2    0    0  0.00000000000E+00  0.00000000000E+00 -0.97791086528E+03  0.98212590017E+03  0.90893472556E+02 0.  0.
          2    1    3    3  502    0  0.26662515957E+02  0.36675620817E+02 -0.52210995365E+03  0.52407518031E+03  0.00000000000E+00 0. -1.
         -2    1    3    3    0  502 -0.26662515957E+02 -0.36675620817E+02 -0.45580091163E+03  0.45805071986E+03  0.00000000000E+00 0.  1.
<mgrwt>
<rscale>  0 0.90893473E+02</rscale>
<asrwt>0</asrwt>
<pdfrwt beam="2">  1        1 0.15077151E+00 0.90893473E+02</pdfrwt>
<pdfrwt beam="1">  1       -1 0.32423462E-03 0.90893473E+02</pdfrwt>
<totfact> 0.13784983E+05</totfact>
</mgrwt>
</event>
<event>
 5    1  0.3957498E+001  0.8525748E+02  0.7546771E-02  0.1314761E+00
         -1   -1    0    0    0  501 -0.00000000000E+00  0.00000000000E+00  0.17318353893E+02  0.17318353893E+02  0.00000000000E+00 0.  1.
          1   -1    0    0  501    0  0.00000000000E+00 -0.00000000000E+00 -0.10492970011E+03  0.10492970011E+03  0.00000000000E+00 0. -1.
         23    2    1    2    0    0  0.00000000000E+00  0.00000000000E+00 -0.87611346219E+02  0.12224805401E+03  0.85257484844E+02 0.  0.
          2    1    3    3  502    0  0.40560198714E+02  0.94433882208E+01 -0.30750190320E+02  0.51767571949E+02  0.00000000000E+00 0. -1.
         -2    1    3    3    0  502 -0.40560198714E+02 -0.94433882208E+01 -0.56861155899E+02  0.70480482057E+02  0.00000000000E+00 0.  1.
<mgrwt>
<rscale>  0 0.85257485E+02</rscale>
<asrwt>0</asrwt>
<pdfrwt beam="2">  1        1 0.16143031E-01 0.85257485E+02</pdfrwt>
<pdfrwt beam="1">  1       -1 0.26643622E-02 0.85257485E+02</pdfrwt>
<totfact> 0.12628949E+05</totfact>
</mgrwt>
</event>
<event>
 5    1  0.3957498E+001  0.9183607E+02  0.7546771E-02  0.1298465E+00
         -1   -1    0    0    0  501 -0.00000000000E+00  0.00000000000E+00  0.10241582723E+02  0.10241582723E+02  0.00000000000E+00 0.  1.
          1   -1    0    0  501    0  0.00000000000E+00 -0.00000000000E+00 -0.20587307866E+03  0.20587307866E+03  0.00000000000E+00 0. -1.
         23    2    1    2    0    0  0.00000000000E+00  0.00000000000E+00 -0.19563149594E+03  0.21611466138E+03  0.91836074949E+02 0.  0.
          2    1    3    3  502    0  0.17320449471E+02 -0.23655150356E+02 -0.18097969774E+03  0.18333907140E+03  0.00000000000E+00 0. -1.
         -2    1    3    3    0  502 -0.17320449471E+02  0.23655150356E+02 -0.14651798197E+02  0.32775589981E+02  0.00000000000E+00 0.  1.
<mgrwt>
<rscale>  0 0.91836075E+02</rscale>
<asrwt>0</asrwt>
<pdfrwt beam="2">  1        1 0.31672778E-01 0.91836075E+02</pdfrwt>
<pdfrwt beam="1">  1       -1 0.15756283E-02 0.91836075E+02</pdfrwt>
<totfact> 0.11679342E+05</totfact>
</mgrwt>
</event>
<event>
 5    1  0.3957498E+001  0.9574597E+02  0.7546771E-02  0.1289505E+00
         -1   -1    0    0    0  501 -0.00000000000E+00  0.00000000000E+00  0.25791429501E+01  0.25791429501E+01  0.00000000000E+00 0.  1.
          1   -1    0    0  501    0  0.00000000000E+00 -0.00000000000E+00 -0.88859861360E+03  0.88859861360E+03  0.00000000000E+00 0. -1.
         23    2    1    2    0    0  0.00000000000E+00  0.00000000000E+00 -0.88601947065E+03  0.89117775655E+03  0.95745973278E+02 0.  0.
          2    1    3    3  502    0 -0.21628855913E+01 -0.20681624506E+02 -0.41651659061E+02  0.46553929682E+02  0.00000000000E+00 0.  1.
         -2    1    3    3    0  502  0.21628855913E+01  0.20681624506E+02 -0.84436781159E+03  0.84462382687E+03  0.00000000000E+00 0. -1.
<mgrwt>
<rscale>  0 0.95745973E+02</rscale>
<asrwt>0</asrwt>
<pdfrwt beam="2">  1        1 0.13670775E+00 0.95745973E+02</pdfrwt>
<pdfrwt beam="1">  1       -1 0.39679044E-03 0.95745973E+02</pdfrwt>
<totfact> 0.12252571E+05</totfact>
</mgrwt>
</event>
<event>
 5    1  0.3957498E+001  0.9437772E+02  0.7546771E-02  0.1292584E+00
          1   -1    0    0  501    0  0.00000000000E+00  0.00000000000E+00  0.10617982656E+02  0.10617982656E+02  0.00000000000E+00 0. -1.
         -1   -1    0    0    0  501 -0.00000000000E+00 -0.00000000000E+00 -0.20971861355E+03  0.20971861355E+03  0.00000000000E+00 0.  1.
         23    2    1    2    0    0  0.00000000000E+00  0.00000000000E+00 -0.19910063089E+03  0.22033659620E+03  0.94377721977E+02 0.  0.
          2    1    3    3  502    0  0.36597863009E+02  0.23490111761E+02 -0.56781432157E+02  0.71521465066E+02  0.00000000000E+00 0. -1.
         -2    1    3    3    0  502 -0.36597863009E+02 -0.23490111761E+02 -0.14231919873E+03  0.14881513114E+03  0.00000000000E+00 0.  1.
<mgrwt>
<rscale>  0 0.94377722E+02</rscale>
<asrwt>0</asrwt>
<pdfrwt beam="1">  1        1 0.16335357E-02 0.94377722E+02</pdfrwt>
<pdfrwt beam="2">  1       -1 0.32264403E-01 0.94377722E+02</pdfrwt>
<totfact> 0.62572365E+04</totfact>
</mgrwt>
</event>
<event>
 5    1  0.3957498E+001  0.9028919E+02  0.7546771E-02  0.1302153E+00
          1   -1    0    0  501    0  0.00000000000E+00  0.00000000000E+00  0.92203431515E+03  0.92203431515E+03  0.00000000000E+00 0. -1.
         -1   -1    0    0    0  501 -0.00000000000E+00 -0.00000000000E+00 -0.22103673639E+01  0.22103673639E+01  0.00000000000E+00 0.  1.
         23    2    1    2    0    0  0.00000000000E+00  0.00000000000E+00  0.91982394779E+03  0.92424468252E+03  0.90289192235E+02 0.  0.
          2    1    3    3  502    0  0.24635738825E+02 -0.72218720935E+01  0.84003742425E+03  0.84042962180E+03  0.00000000000E+00 0. -1.
         -2    1    3    3    0  502 -0.24635738825E+02  0.72218720935E+01  0.79786523543E+02  0.83815060717E+02  0.00000000000E+00 0.  1.
<mgrwt>
<rscale>  0 0.90289192E+02</rscale>
<asrwt>0</asrwt>
<pdfrwt beam="1">  1        1 0.14185113E+00 0.90289192E+02</pdfrwt>
<pdfrwt beam="2">  1       -1 0.34005725E-03 0.90289192E+02</pdfrwt>
<totfact> 0.14219019E+05</totfact>
</mgrwt>
</event>
<event>
 5    1  0.3957498E+001  0.7872838E+02  0.7546771E-02  0.1332699E+00
          3   -1    0    0  501    0  0.00000000000E+00  0.00000000000E+00  0.25581997354E+03  0.25581997354E+03  0.00000000000E+00 0. -1.
         -3   -1    0    0    0  501 -0.00000000000E+00 -0.00000000000E+00 -0.60571486162E+01  0.60571486162E+01  0.00000000000E+00 0.  1.
         23    2    1    2    0    0  0.00000000000E+00  0.00000000000E+00  0.24976282493E+03  0.26187712216E+03  0.78728383668E+02 0.  0.
          2    1    3    3  502    0 -0.55586862076E+01 -0.30300986903E+02  0.20639300967E+03  0.20867947489E+03  0.00000000000E+00 0. -1.
         -2    1    3    3    0  502  0.55586862076E+01  0.30300986903E+02  0.43369815258E+02  0.53197647271E+02  0.00000000000E+00 0.  1.
<mgrwt>
<rscale>  0 0.78728384E+02</rscale>
<asrwt>0</asrwt>
<pdfrwt beam="1">  1        3 0.39356911E-01 0.78728384E+02</pdfrwt>
<pdfrwt beam="2">  1       -3 0.93186922E-03 0.78728384E+02</pdfrwt>
<totfact> 0.37826008E+04</totfact>
</mgrwt>
</event>
<event>
 5    1  0.3957498E+001  0.8809301E+02  0.7546771E-02  0.1307537E+00
          1   -1    0    0  501    0  0.00000000000E+00  0.00000000000E+00  0.17227973905E+04  0.17227973905E+04  0.00000000000E+00 0. -1.
         -1   -1    0    0    0  501 -0.00000000000E+00 -0.00000000000E+00 -0.11261303596E+01  0.11261303596E+01  0.00000000000E+00 0.  1.
         23    2    1    2    0    0  0.00000000000E+00  0.00000000000E+00  0.17216712601E+04  0.17239235208E+04  0.88093006414E+02 0.  0.
          2    1    3    3  502    0 -0.17557868004E+02 -0.37687042152E+02  0.57623596306E+03  0.57773391539E+03  0.00000000000E+00 0.  1.
         -2    1    3    3    0  502  0.17557868004E+02  0.37687042152E+02  0.11454352971E+04  0.11461896055E+04  0.00000000000E+00 0. -1.
<mgrwt>
<rscale>  0 0.88093006E+02</rscale>
<asrwt>0</asrwt>
<pdfrwt beam="1">  1        1 0.26504364E+00 0.88093006E+02</pdfrwt>
<pdfrwt beam="2">  1       -1 0.17325220E-03 0.88093006E+02</pdfrwt>
<totfact> 0.10601566E+05</totfact>
</mgrwt>
</event>
<event>
 5    1  0.3957498E+001  0.9812966E+02  0.7546771E-02  0.1284279E+00
         -2   -1    0    0    0  501 -0.00000000000E+00  0.00000000000E+00  0.11949154179E+01  0.11949154179E+01  0.00000000000E+00 0.  1.
          2   -1    0    0  501    0  0.00000000000E+00 -0.00000000000E+00 -0.20146678531E+04  0.20146678531E+04  0.00000000000E+00 0. -1.
         23    2    1    2    0    0  0.00000000000E+00  0.00000000000E+00 -0.20134729377E+04  0.20158627685E+04  0.98129662785E+02 0.  0.
          2    1    3    3  502    0  0.35529912837E+02 -0.50912372663E+01 -0.16939438023E+04  0.16943240247E+04  0.00000000000E+00 0. -1.
         -2    1    3    3    0  502 -0.35529912837E+02  0.50912372663E+01 -0.31952913537E+03  0.32153874379E+03  0.00000000000E+00 0.  1.
<mgrwt>
<rscale>  0 0.98129663E+02</rscale>
<asrwt>0</asrwt>
<pdfrwt beam="2">  1        2 0.30994662E+00 0.98129663E+02</pdfrwt>
<pdfrwt beam="1">  1       -2 0.18383450E-03 0.98129663E+02</pdfrwt>
<totfact> 0.16085196E+05</totfact>
</mgrwt>
</event>
<event>
 5    1  0.3957498E+001  0.8967209E+02  0.7546771E-02  0.1303648E+00
         -1   -1    0    0    0  501 -0.00000000000E+00  0.00000000000E+00  0.12805103600E+01  0.12805103600E+01  0.00000000000E+00 0.  1.
          1   -1    0    0  501    0  0.00000000000E+00 -0.00000000000E+00 -0.15698982416E+04  0.15698982416E+04  0.00000000000E+00 0. -1.
         23    2    1    2    0    0  0.00000000000E+00  0.00000000000E+00 -0.15686177312E+04  0.15711787519E+04  0.89672090698E+02 0.  0.
          2    1    3    3  502    0 -0.41423281813E+02 -0.32639655742E+01 -0.10794436038E+04  0.10802430446E+04  0.00000000000E+00 0. -1.
         -2    1    3    3    0  502  0.41423281813E+02  0.32639655742E+01 -0.48917412746E+03  0.49093570732E+03  0.00000000000E+00 0.  1.
<mgrwt>
<rscale>  0 0.89672091E+02</rscale>
<asrwt>0</asrwt>
<pdfrwt beam="2">  1        1 0.24152433E+00 0.89672091E+02</pdfrwt>
<pdfrwt beam="1">  1       -1 0.19700035E-03 0.89672091E+02</pdfrwt>
<totfact> 0.11104133E+05</totfact>
</mgrwt>
</event>
<event>
 5    1  0.3957498E+001  0.8903274E+02  0.7546771E-02  0.1305211E+00
          1   -1    0    0  501    0  0.00000000000E+00  0.00000000000E+00  0.95869264240E+03  0.95869264240E+03  0.00000000000E+00 0.  1.
         -1   -1    0    0    0  501 -0.00000000000E+00 -0.00000000000E+00 -0.20670931561E+01  0.20670931561E+01  0.00000000000E+00 0. -1.
         23    2    1    2    0    0  0.00000000000E+00  0.00000000000E+00  0.95662554925E+03  0.96075973556E+03  0.89032735550E+02 0.  0.
          2    1    3    3  502    0  0.14712053928E+01  0.32910183592E+02  0.15521712618E+03  0.15867451241E+03  0.00000000000E+00 0. -1.
         -2    1    3    3    0  502 -0.14712053928E+01 -0.32910183592E+02  0.80140842307E+03  0.80208522315E+03  0.00000000000E+00 0.  1.
<mgrwt>
<rscale>  0 0.89032736E+02</rscale>
<asrwt>0</asrwt>
<pdfrwt beam="1">  1        1 0.14749082E+00 0.89032736E+02</pdfrwt>
<pdfrwt beam="2">  1       -1 0.31801510E-03 0.89032736E+02</pdfrwt>
<totfact> 0.14634718E+05</totfact>
</mgrwt>
</event>
<event>
 5    1  0.3957498E+001  0.9559167E+02  0.7546771E-02  0.1289849E+00
          1   -1    0    0  501    0  0.00000000000E+00  0.00000000000E+00  0.64708408062E+01  0.64708408062E+01  0.00000000000E+00 0. -1.
         -1   -1    0    0    0  501 -0.00000000000E+00 -0.00000000000E+00 -0.35303631107E+03  0.35303631107E+03  0.00000000000E+00 0.  1.
         23    2    1    2    0    0  0.00000000000E+00  0.00000000000E+00 -0.34656547027E+03  0.35950715188E+03  0.95591668418E+02 0.  0.
          2    1    3    3  502    0 -0.22183804582E+02 -0.41816007083E+02 -0.19815626804E+03  0.20373170150E+03  0.00000000000E+00 0. -1.
         -2    1    3    3    0  502  0.22183804582E+02  0.41816007083E+02 -0.14840920222E+03  0.15577545037E+03  0.00000000000E+00 0.  1.
<mgrwt>
<rscale>  0 0.95591668E+02</rscale>
<asrwt>0</asrwt>
<pdfrwt beam="1">  1        1 0.99551378E-03 0.95591668E+02</pdfrwt>
<pdfrwt beam="2">  1       -1 0.54313289E-01 0.95591668E+02</pdfrwt>
<totfact> 0.49966761E+04</totfact>
</mgrwt>
</event>
<event>
 5    1  0.3957498E+001  0.1030672E+03  0.7546771E-02  0.1273975E+00
          1   -1    0    0  501    0  0.00000000000E+00  0.00000000000E+00  0.13189316386E+02  0.13189316386E+02  0.00000000000E+00 0. -1.
         -1   -1    0    0    0  501 -0.00000000000E+00 -0.00000000000E+00 -0.20135344945E+03  0.20135344945E+03  0.00000000000E+00 0.  1.
         23    2    1    2    0    0  0.00000000000E+00  0.00000000000E+00 -0.18816413307E+03  0.21454276584E+03  0.10306724698E+03 0.  0.
          2    1    3    3  502    0 -0.22263834981E+02 -0.31039583000E+02 -0.16608730975E+03  0.17042338020E+03  0.00000000000E+00 0.  1.
         -2    1    3    3    0  502  0.22263834981E+02  0.31039583000E+02 -0.22076823320E+02  0.44119385635E+02  0.00000000000E+00 0. -1.
<mgrwt>
<rscale>  0 0.10306725E+03</rscale>
<asrwt>0</asrwt>
<pdfrwt beam="1">  1        1 0.20291259E-02 0.10306725E+03</pdfrwt>
<pdfrwt beam="2">  1       -1 0.30977449E-01 0.10306725E+03</pdfrwt>
<totfact> 0.50283587E+04</totfact>
</mgrwt>
</event>
<event>
 5    1  0.3957498E+001  0.9312697E+02  0.7546771E-02  0.1295451E+00
         -1   -1    0    0    0  501 -0.00000000000E+00  0.00000000000E+00  0.11994844169E+01  0.11994844169E+01  0.00000000000E+00 0.  1.
          1   -1    0    0  501    0  0.00000000000E+00 -0.00000000000E+00 -0.18075750187E+04  0.18075750187E+04  0.00000000000E+00 0. -1.
         23    2    1    2    0    0  0.00000000000E+00  0.00000000000E+00 -0.18063755343E+04  0.18087745031E+04  0.93126968538E+02 0.  0.
          2    1    3    3  502    0 -0.28928994966E+02 -0.28111729643E+02 -0.45142713100E+03  0.45322578335E+03  0.00000000000E+00 0. -1.
         -2    1    3    3    0  502  0.28928994966E+02  0.28111729643E+02 -0.13549484033E+04  0.13555487198E+04  0.00000000000E+00 0.  1.
<mgrwt>
<rscale>  0 0.93126969E+02</rscale>
<asrwt>0</asrwt>
<pdfrwt beam="2">  1        1 0.27808933E+00 0.93126969E+02</pdfrwt>
<pdfrwt beam="1">  1       -1 0.18453549E-03 0.93126969E+02</pdfrwt>
<totfact> 0.86509877E+04</totfact>
</mgrwt>
</event>
<event>
 5    1  0.3957498E+001  0.9328873E+02  0.7546771E-02  0.1295077E+00
         -1   -1    0    0    0  501 -0.00000000000E+00  0.00000000000E+00  0.87020004527E+01  0.87020004527E+01  0.00000000000E+00 0.  1.
          1   -1    0    0  501    0  0.00000000000E+00 -0.00000000000E+00 -0.25002258010E+03  0.25002258010E+03  0.00000000000E+00 0. -1.
         23    2    1    2    0    0  0.00000000000E+00  0.00000000000E+00 -0.24132057965E+03  0.25872458056E+03  0.93288726120E+02 0.  0.
          2    1    3    3  502    0 -0.80259261203E+01  0.40038568478E+02 -0.58139657860E+02  0.71047324171E+02  0.00000000000E+00 0.  1.
         -2    1    3    3    0  502  0.80259261203E+01 -0.40038568478E+02 -0.18318092179E+03  0.18767725639E+03  0.00000000000E+00 0. -1.
<mgrwt>
<rscale>  0 0.93288726E+02</rscale>
<asrwt>0</asrwt>
<pdfrwt beam="2">  1        1 0.38465010E-01 0.93288726E+02</pdfrwt>
<pdfrwt beam="1">  1       -1 0.13387694E-02 0.93288726E+02</pdfrwt>
<totfact> 0.11632017E+05</totfact>
</mgrwt>
</event>
<event>
 5    1  0.3957498E+001  0.9159149E+02  0.7546771E-02  0.1299043E+00
         -1   -1    0    0    0  501 -0.00000000000E+00  0.00000000000E+00  0.14127372842E+03  0.14127372842E+03  0.00000000000E+00 0.  1.
          1   -1    0    0  501    0  0.00000000000E+00 -0.00000000000E+00 -0.14845296220E+02  0.14845296220E+02  0.00000000000E+00 0. -1.
         23    2    1    2    0    0  0.00000000000E+00  0.00000000000E+00  0.12642843220E+03  0.15611902464E+03  0.91591491886E+02 0.  0.
          2    1    3    3  502    0  0.25034184693E+02 -0.84106733902E+01 -0.55833213649E+00  0.26415176791E+02  0.00000000000E+00 0. -1.
         -2    1    3    3    0  502 -0.25034184693E+02  0.84106733902E+01  0.12698676433E+03  0.12970384785E+03  0.00000000000E+00 0.  1.
<mgrwt>
<rscale>  0 0.91591492E+02</rscale>
<asrwt>0</asrwt>
<pdfrwt beam="2">  1        1 0.22838918E-02 0.91591492E+02</pdfrwt>
<pdfrwt beam="1">  1       -1 0.21734419E-01 0.91591492E+02</pdfrwt>
<totfact> 0.74937673E+04</totfact>
</mgrwt>
</event>
<event>
 5    1  0.3957498E+001  0.9053546E+02  0.7546771E-02  0.1301560E+00
          1   -1    0    0  501    0  0.00000000000E+00  0.00000000000E+00  0.63086454768E+03  0.63086454768E+03  0.00000000000E+00 0. -1.
         -1   -1    0    0    0  501 -0.00000000000E+00 -0.00000000000E+00 -0.32481893690E+01  0.32481893690E+01  0.00000000000E+00 0.  1.
         23    2    1    2    0    0  0.00000000000E+00  0.00000000000E+00  0.62761635831E+03  0.63411273704E+03  0.90535463041E+02 0.  0.
          2    1    3    3  502    0 -0.36283056539E+01  0.22202010488E+02  0.58894016100E+03  0.58936966932E+03  0.00000000000E+00 0. -1.
         -2    1    3    3    0  502  0.36283056539E+01 -0.22202010488E+02  0.38676197308E+02  0.44743067729E+02  0.00000000000E+00 0.  1.
<mgrwt>
<rscale>  0 0.90535463E+02</rscale>
<asrwt>0</asrwt>
<pdfrwt beam="1">  1        1 0.97055987E-01 0.90535463E+02</pdfrwt>
<pdfrwt beam="2">  1       -1 0.49972194E-03 0.90535463E+02</pdfrwt>
<totfact> 0.14461659E+05</totfact>
</mgrwt>
</event>
<event>
 5    1  0.3957498E+001  0.7933304E+02  0.7546771E-02  0.1330955E+00
         -1   -1    0    0    0  501 -0.00000000000E+00  0.00000000000E+00  0.70562060713E+00  0.70562060713E+00  0.00000000000E+00 0.  1.
          1   -1    0    0  501    0  0.00000000000E+00 -0.00000000000E+00 -0.22298568910E+04  0.22298568910E+04  0.00000000000E+00 0. -1.
         23    2    1    2    0    0  0.00000000000E+00  0.00000000000E+00 -0.22291512704E+04  0.22305625116E+04  0.79333044143E+02 0.  0.
          2    1    3    3  502    0 -0.24150506392E+02 -0.17309323166E+02 -0.18534407900E+04  0.18536789425E+04  0.00000000000E+00 0. -1.
         -2    1    3    3    0  502  0.24150506392E+02  0.17309323166E+02 -0.37571048037E+03  0.37688356914E+03  0.00000000000E+00 0.  1.
<mgrwt>
<rscale>  0 0.79333044E+02</rscale>
<asrwt>0</asrwt>
<pdfrwt beam="2">  1        1 0.34305139E+00 0.79333044E+02</pdfrwt>
<pdfrwt beam="1">  1       -1 0.10855813E-03 0.79333044E+02</pdfrwt>
<totfact> 0.95977251E+04</totfact>
</mgrwt>
</event>
<event>
 5    1  0.3957498E+001  0.9159275E+02  0.7546771E-02  0.1299040E+00
         -1   -1    0    0    0  501 -0.00000000000E+00  0.00000000000E+00  0.53435950699E+02  0.53435950699E+02  0.00000000000E+00 0.  1.
          1   -1    0    0  501    0  0.00000000000E+00 -0.00000000000E+00 -0.39249006037E+02  0.39249006037E+02  0.00000000000E+00 0. -1.
         23    2    1    2    0    0  0.00000000000E+00  0.00000000000E+00  0.14186944662E+02  0.92684956736E+02  0.91592749747E+02 0.  0.
          2    1    3    3  502    0  0.45651137059E+02 -0.25278654948E+01  0.97499493881E+01  0.46749095518E+02  0.00000000000E+00 0. -1.
         -2    1    3    3    0  502 -0.45651137059E+02  0.25278654948E+01  0.44369952735E+01  0.45935861217E+02  0.00000000000E+00 0.  1.
<mgrwt>
<rscale>  0 0.91592750E+02</rscale>
<asrwt>0</asrwt>
<pdfrwt beam="2">  1        1 0.60383086E-02 0.91592750E+02</pdfrwt>
<pdfrwt beam="1">  1       -1 0.82209155E-02 0.91592750E+02</pdfrwt>
<totfact> 0.89245099E+04</totfact>
</mgrwt>
</event>
<event>
 5    1  0.3957498E+001  0.9151439E+02  0.7546771E-02  0.1299225E+00
         -2   -1    0    0    0  501 -0.00000000000E+00  0.00000000000E+00  0.18674967525E+01  0.18674967525E+01  0.00000000000E+00 0.  1.
          2   -1    0    0  501    0  0.00000000000E+00 -0.00000000000E+00 -0.11211377275E+04  0.11211377275E+04  0.00000000000E+00 0. -1.
         23    2    1    2    0    0  0.00000000000E+00  0.00000000000E+00 -0.11192702307E+04  0.11230052242E+04  0.91514393735E+02 0.  0.
          2    1    3    3  502    0 -0.16588029978E+02 -0.21950643070E+02 -0.10082914733E+04  0.10086667877E+04  0.00000000000E+00 0. -1.
         -2    1    3    3    0  502  0.16588029978E+02  0.21950643070E+02 -0.11097875744E+03  0.11433843655E+03  0.00000000000E+00 0.  1.
<mgrwt>
<rscale>  0 0.91514394E+02</rscale>
<asrwt>0</asrwt>
<pdfrwt beam="2">  1        2 0.17248246E+00 0.91514394E+02</pdfrwt>
<pdfrwt beam="1">  1       -2 0.28730765E-03 0.91514394E+02</pdfrwt>
<totfact> 0.24758397E+05</totfact>
</mgrwt>
</event>
<event>
 5    1  0.3957498E+001  0.9111135E+02  0.7546771E-02  0.1300183E+00
          2   -1    0    0  501    0  0.00000000000E+00  0.00000000000E+00  0.32513113742E+03  0.32513113742E+03  0.00000000000E+00 0. -1.
         -2   -1    0    0    0  501 -0.00000000000E+00 -0.00000000000E+00 -0.63830223068E+01  0.63830223068E+01  0.00000000000E+00 0.  1.
         23    2    1    2    0    0  0.00000000000E+00  0.00000000000E+00  0.31874811511E+03  0.33151415972E+03  0.91111345128E+02 0.  0.
          2    1    3    3  502    0 -0.24996302026E+02 -0.21376639540E+01  0.29773195275E+03  0.29878704860E+03  0.00000000000E+00 0. -1.
         -2    1    3    3    0  502  0.24996302026E+02  0.21376639540E+01  0.21016162358E+02  0.32727111122E+02  0.00000000000E+00 0.  1.
<mgrwt>
<rscale>  0 0.91111345E+02</rscale>
<asrwt>0</asrwt>
<pdfrwt beam="1">  1        2 0.50020162E-01 0.91111345E+02</pdfrwt>
<pdfrwt beam="2">  1       -2 0.98200368E-03 0.91111345E+02</pdfrwt>
<totfact> 0.18546183E+05</totfact>
</mgrwt>
</event>
<event>
 5    1  0.3957498E+001  0.9129420E+02  0.7546771E-02  0.1299748E+00
         -1   -1    0    0    0  501 -0.00000000000E+00  0.00000000000E+00  0.22111358534E+03  0.22111358534E+03  0.00000000000E+00 0.  1.
          1   -1    0    0  501    0  0.00000000000E+00 -0.00000000000E+00 -0.94234721529E+01  0.94234721529E+01  0.00000000000E+00 0. -1.
         23    2    1    2    0    0  0.00000000000E+00  0.00000000000E+00  0.21169011318E+03  0.23053705749E+03  0.91294199466E+02 0.  0.
          2    1    3    3  502    0  0.26492624245E+02  0.15219800162E+02  0.20205189583E+02  0.36629921409E+02  0.00000000000E+00 0. -1.
         -2    1    3    3    0  502 -0.26492624245E+02 -0.15219800162E+02  0.19148492360E+03  0.19390713608E+03  0.00000000000E+00 0.  1.
<mgrwt>
<rscale>  0 0.91294199E+02</rscale>
<asrwt>0</asrwt>
<pdfrwt beam="2">  1        1 0.14497651E-02 0.91294199E+02</pdfrwt>
<pdfrwt beam="1">  1       -1 0.34017471E-01 0.91294199E+02</pdfrwt>
<totfact> 0.67160578E+04</totfact>
</mgrwt>
</event>
<event>
 5    1  0.3957498E+001  0.9061807E+02  0.7546771E-02  0.1301362E+00
         -2   -1    0    0    0  501 -0.00000000000E+00  0.00000000000E+00  0.11650894664E+03  0.11650894664E+03  0.00000000000E+00 0.  1.
          2   -1    0    0  501    0  0.00000000000E+00 -0.00000000000E+00 -0.17620180050E+02  0.17620180050E+02  0.00000000000E+00 0. -1.
         23    2    1    2    0    0  0.00000000000E+00  0.00000000000E+00  0.98888766589E+02  0.13412912669E+03  0.90618069218E+02 0.  0.
          2    1    3    3  502    0  0.35907469496E+02  0.14604550157E+02  0.14723084631E+02  0.41465750589E+02  0.00000000000E+00 0. -1.
         -2    1    3    3    0  502 -0.35907469496E+02 -0.14604550157E+02  0.84165681958E+02  0.92663376100E+02  0.00000000000E+00 0.  1.
<mgrwt>
<rscale>  0 0.90618069E+02</rscale>
<asrwt>0</asrwt>
<pdfrwt beam="2">  1        2 0.27107970E-02 0.90618069E+02</pdfrwt>
<pdfrwt beam="1">  1       -2 0.17924453E-01 0.90618069E+02</pdfrwt>
<totfact> 0.77316539E+04</totfact>
</mgrwt>
</event>
<event>
 5    1  0.3957498E+001  0.9816973E+02  0.7546771E-02  0.1284193E+00
         -2   -1    0    0    0  501 -0.00000000000E+00  0.00000000000E+00  0.24693333777E+02  0.24693333777E+02  0.00000000000E+00 0.  1.
          2   -1    0    0  501    0  0.00000000000E+00 -0.00000000000E+00 -0.97569815375E+02  0.97569815375E+02  0.00000000000E+00 0. -1.
         23    2    1    2    0    0  0.00000000000E+00  0.00000000000E+00 -0.72876481598E+02  0.12226314915E+03  0.98169730929E+02 0.  0.
          2    1    3    3  502    0 -0.13632994653E+02  0.41610171102E+02 -0.88116925150E+01  0.44664424404E+02  0.00000000000E+00 0.  1.
         -2    1    3    3    0  502  0.13632994653E+02 -0.41610171102E+02 -0.64064789083E+02  0.77598724749E+02  0.00000000000E+00 0. -1.
<mgrwt>
<rscale>  0 0.98169731E+02</rscale>
<asrwt>0</asrwt>
<pdfrwt beam="2">  1        2 0.15010741E-01 0.98169731E+02</pdfrwt>
<pdfrwt beam="1">  1       -2 0.37989745E-02 0.98169731E+02</pdfrwt>
<totfact> 0.99202536E+04</totfact>
</mgrwt>
</event>
<event>
 5    1  0.3957498E+001  0.8905738E+02  0.7546771E-02  0.1305151E+00
          3   -1    0    0  501    0  0.00000000000E+00  0.00000000000E+00  0.10872510113E+02  0.10872510113E+02  0.00000000000E+00 0.  1.
         -3   -1    0    0    0  501 -0.00000000000E+00 -0.00000000000E+00 -0.18236856014E+03  0.18236856014E+03  0.00000000000E+00 0. -1.
         23    2    1    2    0    0  0.00000000000E+00  0.00000000000E+00 -0.17149605003E+03  0.19324107026E+03  0.89057375091E+02 0.  0.
          2    1    3    3  502    0 -0.32107196230E+02 -0.12247871805E+02 -0.24301758568E+02  0.42088690678E+02  0.00000000000E+00 0.  1.
         -2    1    3    3    0  502  0.32107196230E+02  0.12247871805E+02 -0.14719429146E+03  0.15115237958E+03  0.00000000000E+00 0. -1.
<mgrwt>
<rscale>  0 0.89057375E+02</rscale>
<asrwt>0</asrwt>
<pdfrwt beam="1">  1        3 0.16726941E-02 0.89057375E+02</pdfrwt>
<pdfrwt beam="2">  1       -3 0.28056698E-01 0.89057375E+02</pdfrwt>
<totfact> 0.30736535E+04</totfact>
</mgrwt>
</event>
<event>
 5    1  0.3957498E+001  0.9007548E+02  0.7546771E-02  0.1302669E+00
          2   -1    0    0  501    0  0.00000000000E+00  0.00000000000E+00  0.18116719982E+03  0.18116719982E+03  0.00000000000E+00 0. -1.
         -2   -1    0    0    0  501 -0.00000000000E+00 -0.00000000000E+00 -0.11196277378E+02  0.11196277378E+02  0.00000000000E+00 0.  1.
         23    2    1    2    0    0  0.00000000000E+00  0.00000000000E+00  0.16997092245E+03  0.19236347720E+03  0.90075484367E+02 0.  0.
          2    1    3    3  502    0 -0.24160330485E+02 -0.32988580956E+02  0.12530385727E+03  0.13180677028E+03  0.00000000000E+00 0. -1.
         -2    1    3    3    0  502  0.24160330485E+02  0.32988580956E+02  0.44667065172E+02  0.60556706926E+02  0.00000000000E+00 0.  1.
<mgrwt>
<rscale>  0 0.90075484E+02</rscale>
<asrwt>0</asrwt>
<pdfrwt beam="1">  1        2 0.27871875E-01 0.90075484E+02</pdfrwt>
<pdfrwt beam="2">  1       -2 0.17225044E-02 0.90075484E+02</pdfrwt>
<totfact> 0.15426059E+05</totfact>
</mgrwt>
</event>
<event>
 5    1  0.3957498E+001  0.9179531E+02  0.7546771E-02  0.1298561E+00
          1   -1    0    0  501    0  0.00000000000E+00  0.00000000000E+00  0.23315062939E+02  0.23315062939E+02  0.00000000000E+00 0. -1.
         -1   -1    0    0    0  501 -0.00000000000E+00 -0.00000000000E+00 -0.90353388964E+02  0.90353388964E+02  0.00000000000E+00 0.  1.
         23    2    1    2    0    0  0.00000000000E+00  0.00000000000E+00 -0.67038326025E+02  0.11366845190E+03  0.91795314704E+02 0.  0.
          2    1    3    3  502    0 -0.32819938113E+02  0.30804436422E+02 -0.22406779968E+02  0.50280467674E+02  0.00000000000E+00 0. -1.
         -2    1    3    3    0  502  0.32819938113E+02 -0.30804436422E+02 -0.44631546058E+02  0.63387984228E+02  0.00000000000E+00 0.  1.
<mgrwt>
<rscale>  0 0.91795315E+02</rscale>
<asrwt>0</asrwt>
<pdfrwt beam="1">  1        1 0.35869328E-02 0.91795315E+02</pdfrwt>
<pdfrwt beam="2">  1       -1 0.13900521E-01 0.91795315E+02</pdfrwt>
<totfact> 0.81455982E+04</totfact>
</mgrwt>
</event>
<event>
 5    1  0.3957498E+001  0.9362437E+02  0.7546771E-02  0.1294305E+00
          1   -1    0    0  501    0  0.00000000000E+00  0.00000000000E+00  0.36269393515E+03  0.36269393515E+03  0.00000000000E+00 0. -1.
         -1   -1    0    0    0  501 -0.00000000000E+00 -0.00000000000E+00 -0.60419557915E+01  0.60419557915E+01  0.00000000000E+00 0.  1.
         23    2    1    2    0    0  0.00000000000E+00  0.00000000000E+00  0.35665197936E+03  0.36873589094E+03  0.93624371229E+02 0.  0.
          2    1    3    3  502    0  0.18368548462E+02 -0.42916459758E+02  0.16459514065E+03  0.17108707262E+03  0.00000000000E+00 0. -1.
         -2    1    3    3    0  502 -0.18368548462E+02  0.42916459758E+02  0.19205683871E+03  0.19764881832E+03  0.00000000000E+00 0.  1.
<mgrwt>
<rscale>  0 0.93624371E+02</rscale>
<asrwt>0</asrwt>
<pdfrwt beam="1">  1        1 0.55799050E-01 0.93624371E+02</pdfrwt>
<pdfrwt beam="2">  1       -1 0.92953194E-03 0.93624371E+02</pdfrwt>
<totfact> 0.12362903E+05</totfact>
</mgrwt>
</event>
<event>
 5    1  0.3957498E+001  0.9503154E+02  0.7546771E-02  0.1291105E+00
         -2   -1    0    0    0  501 -0.00000000000E+00  0.00000000000E+00  0.11900120592E+02  0.11900120592E+02  0.00000000000E+00 0.  1.
          2   -1    0    0  501    0  0.00000000000E+00 -0.00000000000E+00 -0.18972481696E+03  0.18972481696E+03  0.00000000000E+00 0. -1.
         23    2    1    2    0    0  0.00000000000E+00  0.00000000000E+00 -0.17782469636E+03  0.20162493755E+03  0.95031535842E+02 0.  0.
          2    1    3    3  502    0  0.39661634717E+02  0.19717451759E+02 -0.52414492715E+02  0.68622898648E+02  0.00000000000E+00 0.  1.
         -2    1    3    3    0  502 -0.39661634717E+02 -0.19717451759E+02 -0.12541020365E+03  0.13300203890E+03  0.00000000000E+00 0. -1.
<mgrwt>
<rscale>  0 0.95031536E+02</rscale>
<asrwt>0</asrwt>
<pdfrwt beam="2">  1        2 0.29188436E-01 0.95031536E+02</pdfrwt>
<pdfrwt beam="1">  1       -2 0.18307876E-02 0.95031536E+02</pdfrwt>
<totfact> 0.13568932E+05</totfact>
</mgrwt>
</event>
<event>
 5    1  0.3957498E+001  0.9092278E+02  0.7546771E-02  0.1300632E+00
         -3   -1    0    0    0  501 -0.00000000000E+00  0.00000000000E+00  0.46982824769E+03  0.46982824769E+03  0.00000000000E+00 0.  1.
          3   -1    0    0  501    0  0.00000000000E+00 -0.00000000000E+00 -0.43989220943E+01  0.43989220943E+01  0.00000000000E+00 0. -1.
         23    2    1    2    0    0  0.00000000000E+00  0.00000000000E+00  0.46542932559E+03  0.47422716978E+03  0.90922777328E+02 0.  0.
          2    1    3    3  502    0  0.31382724083E+02 -0.22350749580E+01  0.61557626078E+02  0.69131846925E+02  0.00000000000E+00 0. -1.
         -2    1    3    3    0  502 -0.31382724083E+02  0.22350749580E+01  0.40387169951E+03  0.40509532286E+03  0.00000000000E+00 0.  1.
<mgrwt>
<rscale>  0 0.90922777E+02</rscale>
<asrwt>0</asrwt>
<pdfrwt beam="2">  1        3 0.67675762E-03 0.90922777E+02</pdfrwt>
<pdfrwt beam="1">  1       -3 0.72281229E-01 0.90922777E+02</pdfrwt>
<totfact> 0.18672199E+04</totfact>
</mgrwt>
</event>
<event>
 5    1  0.3957498E+001  0.9218747E+02  0.7546771E-02  0.1297639E+00
         -2   -1    0    0    0  501 -0.00000000000E+00  0.00000000000E+00  0.65576066341E+02  0.65576066341E+02  0.00000000000E+00 0.  1.
          2   -1    0    0  501    0  0.00000000000E+00 -0.00000000000E+00 -0.32399508577E+02  0.32399508577E+02  0.00000000000E+00 0. -1.
         23    2    1    2    0    0  0.00000000000E+00  0.00000000000E+00  0.33176557763E+02  0.97975574918E+02  0.92187468213E+02 0.  0.
          2    1    3    3  502    0 -0.45567809619E+02  0.67756422720E+01  0.18199275731E+02  0.49533304340E+02  0.00000000000E+00 0. -1.
         -2    1    3    3    0  502  0.45567809619E+02 -0.67756422720E+01  0.14977282032E+02  0.48442270578E+02  0.00000000000E+00 0.  1.
<mgrwt>
<rscale>  0 0.92187468E+02</rscale>
<asrwt>0</asrwt>
<pdfrwt beam="2">  1        2 0.49845398E-02 0.92187468E+02</pdfrwt>
<pdfrwt beam="1">  1       -2 0.10088626E-01 0.92187468E+02</pdfrwt>
<totfact> 0.87397325E+04</totfact>
</mgrwt>
</event>
<event>
 5    1  0.3957498E+001  0.8991017E+02  0.7546771E-02  0.1303069E+00
         -2   -1    0    0    0  501 -0.00000000000E+00  0.00000000000E+00  0.21529507830E+03  0.21529507830E+03  0.00000000000E+00 0.  1.
          2   -1    0    0  501    0  0.00000000000E+00 -0.00000000000E+00 -0.93869296688E+01  0.93869296688E+01  0.00000000000E+00 0. -1.
         23    2    1    2    0    0  0.00000000000E+00  0.00000000000E+00  0.20590814863E+03  0.22468200797E+03  0.89910172017E+02 0.  0.
          2    1    3    3  502    0  0.42283901490E+02  0.13415815872E+02  0.12115490379E+03  0.12902101826E+03  0.00000000000E+00 0. -1.
         -2    1    3    3    0  502 -0.42283901490E+02 -0.13415815872E+02  0.84753244840E+02  0.95660989707E+02  0.00000000000E+00 0.  1.
<mgrwt>
<rscale>  0 0.89910172E+02</rscale>
<asrwt>0</asrwt>
<pdfrwt beam="2">  1        2 0.14441432E-02 0.89910172E+02</pdfrwt>
<pdfrwt beam="1">  1       -2 0.33122316E-01 0.89910172E+02</pdfrwt>
<totfact> 0.62513022E+04</totfact>
</mgrwt>
</event>
<event>
 5    1  0.3957498E+001  0.9017410E+02  0.7546771E-02  0.1302431E+00
          4   -1    0    0  501    0  0.00000000000E+00  0.00000000000E+00  0.50437278242E+03  0.50437278242E+03  0.00000000000E+00 0. -1.
         -4   -1    0    0    0  501 -0.00000000000E+00 -0.00000000000E+00 -0.40304354028E+01  0.40304354028E+01  0.00000000000E+00 0.  1.
         23    2    1    2    0    0  0.00000000000E+00  0.00000000000E+00  0.50034234701E+03  0.50840321782E+03  0.90174096469E+02 0.  0.
          2    1    3    3  502    0 -0.18458841921E+02  0.40040400633E+02  0.19701826607E+03  0.20189145523E+03  0.00000000000E+00 0. -1.
         -2    1    3    3    0  502  0.18458841921E+02 -0.40040400633E+02  0.30332408094E+03  0.30651176259E+03  0.00000000000E+00 0.  1.
<mgrwt>
<rscale>  0 0.90174096E+02</rscale>
<asrwt>0</asrwt>
<pdfrwt beam="1">  1        4 0.77595763E-01 0.90174096E+02</pdfrwt>
<pdfrwt beam="2">  1       -4 0.62006738E-03 0.90174096E+02</pdfrwt>
<totfact> 0.13297688E+04</totfact>
</mgrwt>
</event>
<event>
 5    1  0.3957498E+001  0.8969355E+02  0.7546771E-02  0.1303596E+00
         -2   -1    0    0    0  501 -0.00000000000E+00  0.00000000000E+00  0.11328861489E+02  0.11328861489E+02  0.00000000000E+00 0. -1.
          2   -1    0    0  501    0  0.00000000000E+00 -0.00000000000E+00 -0.17753180173E+03  0.17753180173E+03  0.00000000000E+00 0.  1.
         23    2    1    2    0    0  0.00000000000E+00  0.00000000000E+00 -0.16620294024E+03  0.18886066322E+03  0.89693549191E+02 0.  0.
          2    1    3    3  502    0 -0.10301494822E+01  0.37596301011E+02 -0.31666945590E+02  0.49166436729E+02  0.00000000000E+00 0. -1.
         -2    1    3    3    0  502  0.10301494822E+01 -0.37596301011E+02 -0.13453599465E+03  0.13969422649E+03  0.00000000000E+00 0.  1.
<mgrwt>
<rscale>  0 0.89693549E+02</rscale>
<asrwt>0</asrwt>
<pdfrwt beam="2">  1        2 0.27312584E-01 0.89693549E+02</pdfrwt>
<pdfrwt beam="1">  1       -2 0.17429018E-02 0.89693549E+02</pdfrwt>
<totfact> 0.15492097E+05</totfact>
</mgrwt>
</event>
<event>
 5    1  0.3957498E+001  0.9127774E+02  0.7546771E-02  0.1299787E+00
          1   -1    0    0  501    0  0.00000000000E+00  0.00000000000E+00  0.15189091686E+04  0.15189091686E+04  0.00000000000E+00 0. -1.
         -1   -1    0    0    0  501 -0.00000000000E+00 -0.00000000000E+00 -0.13713174280E+01  0.13713174280E+01  0.00000000000E+00 0.  1.
         23    2    1    2    0    0  0.00000000000E+00  0.00000000000E+00  0.15175378512E+04  0.15202804861E+04  0.91277743497E+02 0.  0.
          2    1    3    3  502    0  0.31574680839E+02 -0.31448401338E+02  0.59477803053E+03  0.59644519280E+03  0.00000000000E+00 0. -1.
         -2    1    3    3    0  502 -0.31574680839E+02  0.31448401338E+02  0.92275982068E+03  0.92383529326E+03  0.00000000000E+00 0.  1.
<mgrwt>
<rscale>  0 0.91277743E+02</rscale>
<asrwt>0</asrwt>
<pdfrwt beam="1">  1        1 0.23367699E+00 0.91277743E+02</pdfrwt>
<pdfrwt beam="2">  1       -1 0.21097313E-03 0.91277743E+02</pdfrwt>
<totfact> 0.10904710E+05</totfact>
</mgrwt>
</event>
<event>
 5    1  0.3957498E+001  0.9039585E+02  0.7546771E-02  0.1301896E+00
         -2   -1    0    0    0  501 -0.00000000000E+00  0.00000000000E+00  0.31198232449E+03  0.31198232449E+03  0.00000000000E+00 0.  1.
          2   -1    0    0  501    0  0.00000000000E+00 -0.00000000000E+00 -0.65479745798E+01  0.65479745798E+01  0.00000000000E+00 0. -1.
         23    2    1    2    0    0  0.00000000000E+00  0.00000000000E+00  0.30543434991E+03  0.31853029907E+03  0.90395847916E+02 0.  0.
          2    1    3    3  502    0  0.27865560347E+02  0.33041743626E+02  0.10615514388E+03  0.11461745438E+03  0.00000000000E+00 0. -1.
         -2    1    3    3    0  502 -0.27865560347E+02 -0.33041743626E+02  0.19927920603E+03  0.20391284470E+03  0.00000000000E+00 0.  1.
<mgrwt>
<rscale>  0 0.90395848E+02</rscale>
<asrwt>0</asrwt>
<pdfrwt beam="2">  1        2 0.10073809E-02 0.90395848E+02</pdfrwt>
<pdfrwt beam="1">  1       -2 0.47997269E-01 0.90395848E+02</pdfrwt>
<totfact> 0.50993386E+04</totfact>
</mgrwt>
</event>
<event>
 5    1  0.3957498E+001  0.9262673E+02  0.7546771E-02  0.1296613E+00
          2   -1    0    0  501    0  0.00000000000E+00  0.00000000000E+00  0.82600187581E+03  0.82600187581E+03  0.00000000000E+00 0. -1.
         -2   -1    0    0    0  501 -0.00000000000E+00 -0.00000000000E+00 -0.25967587936E+01  0.25967587936E+01  0.00000000000E+00 0.  1.
         23    2    1    2    0    0  0.00000000000E+00  0.00000000000E+00  0.82340511702E+03  0.82859863460E+03  0.92626726911E+02 0.  0.
          2    1    3    3  502    0  0.17715667500E+02 -0.27219808716E+02  0.70706411471E+03  0.70780959669E+03  0.00000000000E+00 0. -1.
         -2    1    3    3    0  502 -0.17715667500E+02  0.27219808716E+02  0.11634100231E+03  0.12078903791E+03  0.00000000000E+00 0.  1.
<mgrwt>
<rscale>  0 0.92626727E+02</rscale>
<asrwt>0</asrwt>
<pdfrwt beam="1">  1        2 0.12707700E+00 0.92626727E+02</pdfrwt>
<pdfrwt beam="2">  1       -2 0.39950201E-03 0.92626727E+02</pdfrwt>
<totfact> 0.23506399E+05</totfact>
</mgrwt>
</event>
<event>
 5    1  0.3957498E+001  0.9173229E+02  0.7546771E-02  0.1298710E+00
         -2   -1    0    0    0  501 -0.00000000000E+00  0.00000000000E+00  0.35497078285E+01  0.35497078285E+01  0.00000000000E+00 0.  1.
          2   -1    0    0  501    0  0.00000000000E+00 -0.00000000000E+00 -0.59264122473E+03  0.59264122473E+03  0.00000000000E+00 0. -1.
         23    2    1    2    0    0  0.00000000000E+00  0.00000000000E+00 -0.58909151690E+03  0.59619093256E+03  0.91732288643E+02 0.  0.
          2    1    3    3  502    0  0.22308042326E+02 -0.28792279758E+02 -0.47571737286E+03  0.47710969700E+03  0.00000000000E+00 0. -1.
         -2    1    3    3    0  502 -0.22308042326E+02  0.28792279758E+02 -0.11337414404E+03  0.11908123556E+03  0.00000000000E+00 0.  1.
<mgrwt>
<rscale>  0 0.91732289E+02</rscale>
<asrwt>0</asrwt>
<pdfrwt beam="2">  1        2 0.91175541E-01 0.91732289E+02</pdfrwt>
<pdfrwt beam="1">  1       -2 0.54610909E-03 0.91732289E+02</pdfrwt>
<totfact> 0.22343339E+05</totfact>
</mgrwt>
</event>
<event>
 5    1  0.3957498E+001  0.5676491E+02  0.7546771E-02  0.1411932E+00
          2   -1    0    0  501    0  0.00000000000E+00  0.00000000000E+00  0.57391822443E+02  0.57391822443E+02  0.00000000000E+00 0.  1.
         -2   -1    0    0    0  501 -0.00000000000E+00 -0.00000000000E+00 -0.14036212408E+02  0.14036212408E+02  0.00000000000E+00 0. -1.
         23    2    1    2    0    0  0.00000000000E+00  0.00000000000E+00  0.43355610035E+02  0.71428034852E+02  0.56764912061E+02 0.  0.
          2    1    3    3  502    0  0.16163111604E+02 -0.22591682579E+02  0.14347819165E+02  0.31264839889E+02  0.00000000000E+00 0. -1.
         -2    1    3    3    0  502 -0.16163111604E+02  0.22591682579E+02  0.29007790870E+02  0.40163194963E+02  0.00000000000E+00 0.  1.
<mgrwt>
<rscale>  0 0.56764912E+02</rscale>
<asrwt>0</asrwt>
<pdfrwt beam="1">  1        2 0.88295110E-02 0.56764912E+02</pdfrwt>
<pdfrwt beam="2">  1       -2 0.21594173E-02 0.56764912E+02</pdfrwt>
<totfact> 0.37945205E+05</totfact>
</mgrwt>
</event>
<event>
 5    1  0.3957498E+001  0.9062716E+02  0.7546771E-02  0.1301340E+00
          1   -1    0    0  501    0  0.00000000000E+00  0.00000000000E+00  0.71826236694E+02  0.71826236694E+02  0.00000000000E+00 0. -1.
         -1   -1    0    0    0  501 -0.00000000000E+00 -0.00000000000E+00 -0.28587332504E+02  0.28587332504E+02  0.00000000000E+00 0.  1.
         23    2    1    2    0    0  0.00000000000E+00  0.00000000000E+00  0.43238904190E+02  0.10041356920E+03  0.90627159524E+02 0.  0.
          2    1    3    3  502    0 -0.39781943550E+02  0.14051651111E+02  0.39935378317E+02  0.58093772238E+02  0.00000000000E+00 0. -1.
         -2    1    3    3    0  502  0.39781943550E+02 -0.14051651111E+02  0.33035258734E+01  0.42319796960E+02  0.00000000000E+00 0.  1.
<mgrwt>
<rscale>  0 0.90627160E+02</rscale>
<asrwt>0</asrwt>
<pdfrwt beam="1">  1        1 0.11050190E-01 0.90627160E+02</pdfrwt>
<pdfrwt beam="2">  1       -1 0.43980512E-02 0.90627160E+02</pdfrwt>
<totfact> 0.10072357E+05</totfact>
</mgrwt>
</event>
<event>
 5    1  0.3957498E+001  0.9353919E+02  0.7546771E-02  0.1294501E+00
         -1   -1    0    0    0  501 -0.00000000000E+00  0.00000000000E+00  0.21032313298E+01  0.21032313298E+01  0.00000000000E+00 0.  1.
          1   -1    0    0  501    0  0.00000000000E+00 -0.00000000000E+00 -0.10400163006E+04  0.10400163006E+04  0.00000000000E+00 0. -1.
         23    2    1    2    0    0  0.00000000000E+00  0.00000000000E+00 -0.10379130693E+04  0.10421195319E+04  0.93539186804E+02 0.  0.
          2    1    3    3  502    0 -0.52036863143E+00 -0.33236523148E+02 -0.15240976600E+03  0.15599254478E+03  0.00000000000E+00 0. -1.
         -2    1    3    3    0  502  0.52036863143E+00  0.33236523148E+02 -0.88550330329E+03  0.88612698717E+03  0.00000000000E+00 0.  1.
<mgrwt>
<rscale>  0 0.93539187E+02</rscale>
<asrwt>0</asrwt>
<pdfrwt beam="2">  1        1 0.16000251E+00 0.93539187E+02</pdfrwt>
<pdfrwt beam="1">  1       -1 0.32357405E-03 0.93539187E+02</pdfrwt>
<totfact> 0.12569738E+05</totfact>
</mgrwt>
</event>
<event>
 5    1  0.3957498E+001  0.9146058E+02  0.7546771E-02  0.1299353E+00
          2   -1    0    0  501    0  0.00000000000E+00  0.00000000000E+00  0.90554268109E+03  0.90554268109E+03  0.00000000000E+00 0. -1.
         -2   -1    0    0    0  501 -0.00000000000E+00 -0.00000000000E+00 -0.23093988619E+01  0.23093988619E+01  0.00000000000E+00 0.  1.
         23    2    1    2    0    0  0.00000000000E+00  0.00000000000E+00  0.90323328223E+03  0.90785207995E+03  0.91460575924E+02 0.  0.
          2    1    3    3  502    0  0.15040095409E+02 -0.25778319456E+02  0.79554518000E+03  0.79610480443E+03  0.00000000000E+00 0. -1.
         -2    1    3    3    0  502 -0.15040095409E+02  0.25778319456E+02  0.10768810223E+03  0.11174727552E+03  0.00000000000E+00 0.  1.
<mgrwt>
<rscale>  0 0.91460576E+02</rscale>
<asrwt>0</asrwt>
<pdfrwt beam="1">  1        2 0.13931398E+00 0.91460576E+02</pdfrwt>
<pdfrwt beam="2">  1       -2 0.35529285E-03 0.91460576E+02</pdfrwt>
<totfact> 0.24608733E+05</totfact>
</mgrwt>
</event>
<event>
 5    1  0.3957498E+001  0.9283801E+02  0.7546771E-02  0.1296121E+00
          2   -1    0    0  501    0  0.00000000000E+00  0.00000000000E+00  0.12852033463E+04  0.12852033463E+04  0.00000000000E+00 0. -1.
         -2   -1    0    0    0  501 -0.00000000000E+00 -0.00000000000E+00 -0.16765627964E+01  0.16765627964E+01  0.00000000000E+00 0.  1.
         23    2    1    2    0    0  0.00000000000E+00  0.00000000000E+00  0.12835267835E+04  0.12868799090E+04  0.92838011961E+02 0.  0.
          2    1    3    3  502    0 -0.33531125248E+02  0.26265926380E+02  0.89754166261E+03  0.89855176332E+03  0.00000000000E+00 0. -1.
         -2    1    3    3    0  502  0.33531125248E+02 -0.26265926380E+02  0.38598512085E+03  0.38832814573E+03  0.00000000000E+00 0.  1.
<mgrwt>
<rscale>  0 0.92838012E+02</rscale>
<asrwt>0</asrwt>
<pdfrwt beam="1">  1        2 0.19772280E+00 0.92838012E+02</pdfrwt>
<pdfrwt beam="2">  1       -2 0.25793376E-03 0.92838012E+02</pdfrwt>
<totfact> 0.23478303E+05</totfact>
</mgrwt>
</event>
<event>
 5    1  0.3957498E+001  0.8979092E+02  0.7546771E-02  0.1303359E+00
          3   -1    0    0  501    0  0.00000000000E+00  0.00000000000E+00  0.88303988777E+01  0.88303988777E+01  0.00000000000E+00 0. -1.
         -3   -1    0    0    0  501 -0.00000000000E+00 -0.00000000000E+00 -0.22825724322E+03  0.22825724322E+03  0.00000000000E+00 0.  1.
         23    2    1    2    0    0  0.00000000000E+00  0.00000000000E+00 -0.21942684434E+03  0.23708764210E+03  0.89790923915E+02 0.  0.
          2    1    3    3  502    0 -0.18446455815E+02  0.39973807114E+02 -0.13294713058E+03  0.14004683686E+03  0.00000000000E+00 0. -1.
         -2    1    3    3    0  502  0.18446455815E+02 -0.39973807114E+02 -0.86479713769E+02  0.97040805236E+02  0.00000000000E+00 0.  1.
<mgrwt>
<rscale>  0 0.89790924E+02</rscale>
<asrwt>0</asrwt>
<pdfrwt beam="1">  1        3 0.13585232E-02 0.89790924E+02</pdfrwt>
<pdfrwt beam="2">  1       -3 0.35116491E-01 0.89790924E+02</pdfrwt>
<totfact> 0.27805556E+04</totfact>
</mgrwt>
</event>
<event>
 5    1  0.3957498E+001  0.8938910E+02  0.7546771E-02  0.1304338E+00
          3   -1    0    0  501    0  0.00000000000E+00  0.00000000000E+00  0.90830321869E+02  0.90830321869E+02  0.00000000000E+00 0. -1.
         -3   -1    0    0    0  501 -0.00000000000E+00 -0.00000000000E+00 -0.21992688653E+02  0.21992688653E+02  0.00000000000E+00 0.  1.
         23    2    1    2    0    0  0.00000000000E+00  0.00000000000E+00  0.68837633216E+02  0.11282301052E+03  0.89389104238E+02 0.  0.
          2    1    3    3  502    0  0.18091227192E+02 -0.95909088601E+01  0.84561931683E+02  0.87005737305E+02  0.00000000000E+00 0. -1.
         -2    1    3    3    0  502 -0.18091227192E+02  0.95909088601E+01 -0.15724298467E+02  0.25817273217E+02  0.00000000000E+00 0.  1.
<mgrwt>
<rscale>  0 0.89389104E+02</rscale>
<asrwt>0</asrwt>
<pdfrwt beam="1">  1        3 0.13973895E-01 0.89389104E+02</pdfrwt>
<pdfrwt beam="2">  1       -3 0.33834906E-02 0.89389104E+02</pdfrwt>
<totfact> 0.35605237E+04</totfact>
</mgrwt>
</event>
<event>
 5    1  0.3957498E+001  0.8843913E+02  0.7546771E-02  0.1306676E+00
          2   -1    0    0  501    0  0.00000000000E+00  0.00000000000E+00  0.23336128138E+02  0.23336128138E+02  0.00000000000E+00 0. -1.
         -2   -1    0    0    0  501 -0.00000000000E+00 -0.00000000000E+00 -0.83791533022E+02  0.83791533022E+02  0.00000000000E+00 0.  1.
         23    2    1    2    0    0  0.00000000000E+00  0.00000000000E+00 -0.60455404884E+02  0.10712766116E+03  0.88439130514E+02 0.  0.
          2    1    3    3  502    0  0.24172979070E+02 -0.18890790787E+02 -0.68803385244E+02  0.75333264331E+02  0.00000000000E+00 0.  1.
         -2    1    3    3    0  502 -0.24172979070E+02  0.18890790787E+02  0.83479803603E+01  0.31794396830E+02  0.00000000000E+00 0. -1.
<mgrwt>
<rscale>  0 0.88439131E+02</rscale>
<asrwt>0</asrwt>
<pdfrwt beam="1">  1        2 0.35901735E-02 0.88439131E+02</pdfrwt>
<pdfrwt beam="2">  1       -2 0.12891005E-01 0.88439131E+02</pdfrwt>
<totfact> 0.90539725E+04</totfact>
</mgrwt>
</event>
<event>
 5    1  0.3957498E+001  0.9052458E+02  0.7546771E-02  0.1301586E+00
         -2   -1    0    0    0  501 -0.00000000000E+00  0.00000000000E+00  0.73920186254E+00  0.73920186254E+00  0.00000000000E+00 0.  1.
          2   -1    0    0  501    0  0.00000000000E+00 -0.00000000000E+00 -0.27714686874E+04  0.27714686874E+04  0.00000000000E+00 0. -1.
         23    2    1    2    0    0  0.00000000000E+00  0.00000000000E+00 -0.27707294855E+04  0.27722078893E+04  0.90524578225E+02 0.  0.
          2    1    3    3  502    0 -0.23095647440E+02 -0.29990638995E+02 -0.21453213750E+04  0.21456552960E+04  0.00000000000E+00 0. -1.
         -2    1    3    3    0  502  0.23095647440E+02  0.29990638995E+02 -0.62540811057E+03  0.62655259326E+03  0.00000000000E+00 0.  1.
<mgrwt>
<rscale>  0 0.90524578E+02</rscale>
<asrwt>0</asrwt>
<pdfrwt beam="2">  1        2 0.42637455E+00 0.90524578E+02</pdfrwt>
<pdfrwt beam="1">  1       -2 0.11372476E-03 0.90524578E+02</pdfrwt>
<totfact> 0.12490706E+05</totfact>
</mgrwt>
</event>
<event>
 5    1  0.3957498E+001  0.9074549E+02  0.7546771E-02  0.1301056E+00
          2   -1    0    0  501    0  0.00000000000E+00  0.00000000000E+00  0.17890119621E+03  0.17890119621E+03  0.00000000000E+00 0. -1.
         -2   -1    0    0    0  501 -0.00000000000E+00 -0.00000000000E+00 -0.11507390070E+02  0.11507390070E+02  0.00000000000E+00 0.  1.
         23    2    1    2    0    0  0.00000000000E+00  0.00000000000E+00  0.16739380614E+03  0.19040858628E+03  0.90745486912E+02 0.  0.
          2    1    3    3  502    0 -0.45206874322E+02 -0.18704843784E+01  0.90820416122E+02  0.10146678364E+03  0.00000000000E+00 0. -1.
         -2    1    3    3    0  502  0.45206874322E+02  0.18704843784E+01  0.76573390020E+02  0.88941802641E+02  0.00000000000E+00 0.  1.
<mgrwt>
<rscale>  0 0.90745487E+02</rscale>
<asrwt>0</asrwt>
<pdfrwt beam="1">  1        2 0.27523259E-01 0.90745487E+02</pdfrwt>
<pdfrwt beam="2">  1       -2 0.17703678E-02 0.90745487E+02</pdfrwt>
<totfact> 0.15053743E+05</totfact>
</mgrwt>
</event>
<event>
 5    1  0.3957498E+001  0.6916308E+02  0.7546771E-02  0.1362962E+00
          3   -1    0    0  501    0  0.00000000000E+00  0.00000000000E+00  0.26279806113E+02  0.26279806113E+02  0.00000000000E+00 0. -1.
         -3   -1    0    0    0  501 -0.00000000000E+00 -0.00000000000E+00 -0.45505777849E+02  0.45505777849E+02  0.00000000000E+00 0.  1.
         23    2    1    2    0    0  0.00000000000E+00  0.00000000000E+00 -0.19225971735E+02  0.71785583962E+02  0.69163083185E+02 0.  0.
          2    1    3    3  502    0 -0.16830589898E+02  0.30195125683E+02 -0.10580338230E+02  0.36151873097E+02  0.00000000000E+00 0. -1.
         -2    1    3    3    0  502  0.16830589898E+02 -0.30195125683E+02 -0.86456335050E+01  0.35633710865E+02  0.00000000000E+00 0.  1.
<mgrwt>
<rscale>  0 0.69163083E+02</rscale>
<asrwt>0</asrwt>
<pdfrwt beam="1">  1        3 0.40430471E-02 0.69163083E+02</pdfrwt>
<pdfrwt beam="2">  1       -3 0.70008888E-02 0.69163083E+02</pdfrwt>
<totfact> 0.77436902E+04</totfact>
</mgrwt>
</event>
<event>
 5    1  0.3957498E+001  0.9300381E+02  0.7546771E-02  0.1295736E+00
          2   -1    0    0  501    0  0.00000000000E+00  0.00000000000E+00  0.26341108745E+04  0.26341108745E+04  0.00000000000E+00 0. -1.
         -2   -1    0    0    0  501 -0.00000000000E+00 -0.00000000000E+00 -0.82093240360E+00  0.82093240360E+00  0.00000000000E+00 0.  1.
         23    2    1    2    0    0  0.00000000000E+00  0.00000000000E+00  0.26332899421E+04  0.26349318069E+04  0.93003805761E+02 0.  0.
          2    1    3    3  502    0  0.22035153899E+02  0.40618731877E+02  0.11694370711E+04  0.11703497309E+04  0.00000000000E+00 0. -1.
         -2    1    3    3    0  502 -0.22035153899E+02 -0.40618731877E+02  0.14638528710E+04  0.14645820760E+04  0.00000000000E+00 0.  1.
<mgrwt>
<rscale>  0 0.93003806E+02</rscale>
<asrwt>0</asrwt>
<pdfrwt beam="1">  1        2 0.40524106E+00 0.93003806E+02</pdfrwt>
<pdfrwt beam="2">  1       -2 0.12629940E-03 0.93003806E+02</pdfrwt>
<totfact> 0.12859082E+05</totfact>
</mgrwt>
</event>
<event>
 5    1  0.3957498E+001  0.8490389E+02  0.7546771E-02  0.1315684E+00
         -1   -1    0    0    0  501 -0.00000000000E+00  0.00000000000E+00  0.13975215044E+02  0.13975215044E+02  0.00000000000E+00 0.  1.
          1   -1    0    0  501    0  0.00000000000E+00 -0.00000000000E+00 -0.12895455482E+03  0.12895455482E+03  0.00000000000E+00 0. -1.
         23    2    1    2    0    0  0.00000000000E+00  0.00000000000E+00 -0.11497933977E+03  0.14292976986E+03  0.84903890003E+02 0.  0.
          2    1    3    3  502    0 -0.30823001612E+02 -0.20012445114E+02 -0.93264531381E+02  0.10024384371E+03  0.00000000000E+00 0. -1.
         -2    1    3    3    0  502  0.30823001612E+02  0.20012445114E+02 -0.21714808391E+02  0.42685926151E+02  0.00000000000E+00 0.  1.
<mgrwt>
<rscale>  0 0.84903890E+02</rscale>
<asrwt>0</asrwt>
<pdfrwt beam="2">  1        1 0.19839162E-01 0.84903890E+02</pdfrwt>
<pdfrwt beam="1">  1       -1 0.21500331E-02 0.84903890E+02</pdfrwt>
<totfact> 0.13220830E+05</totfact>
</mgrwt>
</event>
<event>
 5    1  0.3957498E+001  0.8969463E+02  0.7546771E-02  0.1303593E+00
         -2   -1    0    0    0  501 -0.00000000000E+00  0.00000000000E+00  0.17242501065E+03  0.17242501065E+03  0.00000000000E+00 0.  1.
          2   -1    0    0  501    0  0.00000000000E+00 -0.00000000000E+00 -0.11664674758E+02  0.11664674758E+02  0.00000000000E+00 0. -1.
         23    2    1    2    0    0  0.00000000000E+00  0.00000000000E+00  0.16076033589E+03  0.18408968541E+03  0.89694630150E+02 0.  0.
          2    1    3    3  502    0  0.10529132680E+02  0.26505940338E+02  0.93463782625E+01  0.30013035415E+02  0.00000000000E+00 0. -1.
         -2    1    3    3    0  502 -0.10529132680E+02 -0.26505940338E+02  0.15141395763E+03  0.15407664999E+03  0.00000000000E+00 0.  1.
<mgrwt>
<rscale>  0 0.89694630E+02</rscale>
<asrwt>0</asrwt>
<pdfrwt beam="2">  1        2 0.17945655E-02 0.89694630E+02</pdfrwt>
<pdfrwt beam="1">  1       -2 0.26526923E-01 0.89694630E+02</pdfrwt>
<totfact> 0.69081236E+04</totfact>
</mgrwt>
</event>
<event>
 5    1  0.3957498E+001  0.8882029E+02  0.7546771E-02  0.1305734E+00
          1   -1    0    0  501    0  0.00000000000E+00  0.00000000000E+00  0.33708966330E+01  0.33708966330E+01  0.00000000000E+00 0. -1.
         -1   -1    0    0    0  501 -0.00000000000E+00 -0.00000000000E+00 -0.58508499182E+03  0.58508499182E+03  0.00000000000E+00 0.  1.
         23    2    1    2    0    0  0.00000000000E+00  0.00000000000E+00 -0.58171409519E+03  0.58845588846E+03  0.88820291126E+02 0.  0.
          2    1    3    3  502    0 -0.39498340117E+02 -0.19520280226E+02 -0.32780476547E+03  0.33075236125E+03  0.00000000000E+00 0. -1.
         -2    1    3    3    0  502  0.39498340117E+02  0.19520280226E+02 -0.25390932972E+03  0.25770352720E+03  0.00000000000E+00 0.  1.
<mgrwt>
<rscale>  0 0.88820291E+02</rscale>
<asrwt>0</asrwt>
<pdfrwt beam="1">  1        1 0.51859974E-03 0.88820291E+02</pdfrwt>
<pdfrwt beam="2">  1       -1 0.90013031E-01 0.88820291E+02</pdfrwt>
<totfact> 0.45391082E+04</totfact>
</mgrwt>
</event>
<event>
 5    1  0.3957498E+001  0.9842037E+02  0.7546771E-02  0.1283653E+00
         -1   -1    0    0    0  501 -0.00000000000E+00  0.00000000000E+00  0.11472438365E+01  0.11472438365E+01  0.00000000000E+00 0.  1.
          1   -1    0    0  501    0  0.00000000000E+00 -0.00000000000E+00 -0.21108349546E+04  0.21108349546E+04  0.00000000000E+00 0. -1.
         23    2    1    2    0    0  0.00000000000E+00  0.00000000000E+00 -0.21096877107E+04  0.21119821984E+04  0.98420371701E+02 0.  0.
          2    1    3    3  502    0  0.46188015944E+02 -0.34824586433E+01 -0.69822608382E+03  0.69976076231E+03  0.00000000000E+00 0.  1.
         -2    1    3    3    0  502 -0.46188015944E+02  0.34824586433E+01 -0.14114616269E+04  0.14122214361E+04  0.00000000000E+00 0. -1.
<mgrwt>
<rscale>  0 0.98420372E+02</rscale>
<asrwt>0</asrwt>
<pdfrwt beam="2">  1        1 0.32474291E+00 0.98420372E+02</pdfrwt>
<pdfrwt beam="1">  1       -1 0.17649956E-03 0.98420372E+02</pdfrwt>
<totfact> 0.59691420E+04</totfact>
</mgrwt>
</event>
<event>
 5    1  0.3957498E+001  0.9618371E+02  0.7546771E-02  0.1288532E+00
         -2   -1    0    0    0  501 -0.00000000000E+00  0.00000000000E+00  0.85045737200E+01  0.85045737200E+01  0.00000000000E+00 0.  1.
          2   -1    0    0  501    0  0.00000000000E+00 -0.00000000000E+00 -0.27195092043E+03  0.27195092043E+03  0.00000000000E+00 0. -1.
         23    2    1    2    0    0  0.00000000000E+00  0.00000000000E+00 -0.26344634671E+03  0.28045549415E+03  0.96183712779E+02 0.  0.
          2    1    3    3  502    0 -0.46542238503E+02  0.12048858203E+02 -0.13526047720E+03  0.14355051947E+03  0.00000000000E+00 0. -1.
         -2    1    3    3    0  502  0.46542238503E+02 -0.12048858203E+02 -0.12818586951E+03  0.13690497467E+03  0.00000000000E+00 0.  1.
<mgrwt>
<rscale>  0 0.96183713E+02</rscale>
<asrwt>0</asrwt>
<pdfrwt beam="2">  1        2 0.41838601E-01 0.96183713E+02</pdfrwt>
<pdfrwt beam="1">  1       -2 0.13083960E-02 0.96183713E+02</pdfrwt>
<totfact> 0.15005877E+05</totfact>
</mgrwt>
</event>
<event>
 5    1  0.3957498E+001  0.8875408E+02  0.7546771E-02  0.1305897E+00
          2   -1    0    0  501    0  0.00000000000E+00  0.00000000000E+00  0.28231679853E+03  0.28231679853E+03  0.00000000000E+00 0. -1.
         -2   -1    0    0    0  501 -0.00000000000E+00 -0.00000000000E+00 -0.69755739776E+01  0.69755739776E+01  0.00000000000E+00 0.  1.
         23    2    1    2    0    0  0.00000000000E+00  0.00000000000E+00  0.27534122456E+03  0.28929237251E+03  0.88754080769E+02 0.  0.
          2    1    3    3  502    0  0.15711548596E+02  0.37517037708E+02  0.79825969879E+02  0.89591106393E+02  0.00000000000E+00 0.  1.
         -2    1    3    3    0  502 -0.15711548596E+02 -0.37517037708E+02  0.19551525468E+03  0.19970126612E+03  0.00000000000E+00 0. -1.
<mgrwt>
<rscale>  0 0.88754081E+02</rscale>
<asrwt>0</asrwt>
<pdfrwt beam="1">  1        2 0.43433345E-01 0.88754081E+02</pdfrwt>
<pdfrwt beam="2">  1       -2 0.10731654E-02 0.88754081E+02</pdfrwt>
<totfact> 0.18870962E+05</totfact>
</mgrwt>
</event>
<event>
 5    1  0.3957498E+001  0.8942216E+02  0.7546771E-02  0.1304257E+00
          2   -1    0    0  501    0  0.00000000000E+00  0.00000000000E+00  0.86202789513E+01  0.86202789513E+01  0.00000000000E+00 0. -1.
         -2   -1    0    0    0  501 -0.00000000000E+00 -0.00000000000E+00 -0.23190438312E+03  0.23190438312E+03  0.00000000000E+00 0.  1.
         23    2    1    2    0    0  0.00000000000E+00  0.00000000000E+00 -0.22328410417E+03  0.24052466207E+03  0.89422155477E+02 0.  0.
          2    1    3    3  502    0 -0.29872639644E+02 -0.25585247821E+02 -0.16883364557E+03  0.17335449051E+03  0.00000000000E+00 0.  1.
         -2    1    3    3    0  502  0.29872639644E+02  0.25585247821E+02 -0.54450458603E+02  0.67170171560E+02  0.00000000000E+00 0. -1.
<mgrwt>
<rscale>  0 0.89422155E+02</rscale>
<asrwt>0</asrwt>
<pdfrwt beam="1">  1        2 0.13261965E-02 0.89422155E+02</pdfrwt>
<pdfrwt beam="2">  1       -2 0.35677605E-01 0.89422155E+02</pdfrwt>
<totfact> 0.61243235E+04</totfact>
</mgrwt>
</event>
<event>
 5    1  0.3957498E+001  0.9172817E+02  0.7546771E-02  0.1298720E+00
         -1   -1    0    0    0  501 -0.00000000000E+00  0.00000000000E+00  0.16354580678E+03  0.16354580678E+03  0.00000000000E+00 0.  1.
          1   -1    0    0  501    0  0.00000000000E+00 -0.00000000000E+00 -0.12861928177E+02  0.12861928177E+02  0.00000000000E+00 0. -1.
         23    2    1    2    0    0  0.00000000000E+00  0.00000000000E+00  0.15068387861E+03  0.17640773496E+03  0.91728172784E+02 0.  0.
          2    1    3    3  502    0  0.14172290026E+02  0.27962011051E+02  0.10958179081E+02  0.33208576533E+02  0.00000000000E+00 0. -1.
         -2    1    3    3    0  502 -0.14172290026E+02 -0.27962011051E+02  0.13972569953E+03  0.14319915843E+03  0.00000000000E+00 0.  1.
<mgrwt>
<rscale>  0 0.91728173E+02</rscale>
<asrwt>0</asrwt>
<pdfrwt beam="2">  1        1 0.19787583E-02 0.91728173E+02</pdfrwt>
<pdfrwt beam="1">  1       -1 0.25160892E-01 0.91728173E+02</pdfrwt>
<totfact> 0.72107264E+04</totfact>
</mgrwt>
</event>
<event>
 5    1  0.3957498E+001  0.9102292E+02  0.7546771E-02  0.1300393E+00
          1   -1    0    0  501    0  0.00000000000E+00  0.00000000000E+00  0.48240307133E+03  0.48240307133E+03  0.00000000000E+00 0. -1.
         -1   -1    0    0    0  501 -0.00000000000E+00 -0.00000000000E+00 -0.42936976714E+01  0.42936976714E+01  0.00000000000E+00 0.  1.
         23    2    1    2    0    0  0.00000000000E+00  0.00000000000E+00  0.47810937365E+03  0.48669676900E+03  0.91022918961E+02 0.  0.
          2    1    3    3  502    0 -0.69159169424E+01  0.29073155680E+02  0.55519256305E+02  0.63051297441E+02  0.00000000000E+00 0.  1.
         -2    1    3    3    0  502  0.69159169424E+01 -0.29073155680E+02  0.42259011735E+03  0.42364547156E+03  0.00000000000E+00 0. -1.
<mgrwt>
<rscale>  0 0.91022919E+02</rscale>
<asrwt>0</asrwt>
<pdfrwt beam="1">  1        1 0.74215814E-01 0.91022919E+02</pdfrwt>
<pdfrwt beam="2">  1       -1 0.66056925E-03 0.91022919E+02</pdfrwt>
<totfact> 0.13927714E+05</totfact>
</mgrwt>
</event>
<event>
 5    1  0.3957498E+001  0.9000994E+02  0.7546771E-02  0.1302828E+00
         -1   -1    0    0    0  501 -0.00000000000E+00  0.00000000000E+00  0.45833751310E+01  0.45833751310E+01  0.00000000000E+00 0.  1.
          1   -1    0    0  501    0  0.00000000000E+00 -0.00000000000E+00 -0.44191173058E+03  0.44191173058E+03  0.00000000000E+00 0. -1.
         23    2    1    2    0    0  0.00000000000E+00  0.00000000000E+00 -0.43732835545E+03  0.44649510571E+03  0.90009938031E+02 0.  0.
          2    1    3    3  502    0  0.41258054189E+02 -0.67596950757E+01 -0.30130195814E+03  0.30418874156E+03  0.00000000000E+00 0. -1.
         -2    1    3    3    0  502 -0.41258054189E+02  0.67596950757E+01 -0.13602639731E+03  0.14230636415E+03  0.00000000000E+00 0.  1.
<mgrwt>
<rscale>  0 0.90009938E+02</rscale>
<asrwt>0</asrwt>
<pdfrwt beam="2">  1        1 0.67986428E-01 0.90009938E+02</pdfrwt>
<pdfrwt beam="1">  1       -1 0.70513455E-03 0.90009938E+02</pdfrwt>
<totfact> 0.14175500E+05</totfact>
</mgrwt>
</event>
<event>
 5    1  0.3957498E+001  0.9084793E+02  0.7546771E-02  0.1300811E+00
         -1   -1    0    0    0  501 -0.00000000000E+00  0.00000000000E+00  0.13143703620E+01  0.13143703620E+01  0.00000000000E+00 0.  1.
          1   -1    0    0  501    0  0.00000000000E+00 -0.00000000000E+00 -0.15698287819E+04  0.15698287819E+04  0.00000000000E+00 0. -1.
         23    2    1    2    0    0  0.00000000000E+00  0.00000000000E+00 -0.15685144116E+04  0.15711431523E+04  0.90847926215E+02 0.  0.
          2    1    3    3  502    0 -0.26127943790E+02 -0.30376650168E+02 -0.11543396115E+04  0.11550347826E+04  0.00000000000E+00 0. -1.
         -2    1    3    3    0  502  0.26127943790E+02  0.30376650168E+02 -0.41417480012E+03  0.41610836975E+03  0.00000000000E+00 0.  1.
<mgrwt>
<rscale>  0 0.90847926E+02</rscale>
<asrwt>0</asrwt>
<pdfrwt beam="2">  1        1 0.24151197E+00 0.90847926E+02</pdfrwt>
<pdfrwt beam="1">  1       -1 0.20221095E-03 0.90847926E+02</pdfrwt>
<totfact> 0.10728087E+05</totfact>
</mgrwt>
</event>
<event>
 5    1  0.3957498E+001  0.9040885E+02  0.7546771E-02  0.1301865E+00
         -1   -1    0    0    0  501 -0.00000000000E+00  0.00000000000E+00  0.16690109259E+04  0.16690109259E+04  0.00000000000E+00 0.  1.
          1   -1    0    0  501    0  0.00000000000E+00 -0.00000000000E+00 -0.12243418550E+01  0.12243418550E+01  0.00000000000E+00 0. -1.
         23    2    1    2    0    0  0.00000000000E+00  0.00000000000E+00  0.16677865841E+04  0.16702352678E+04  0.90408847642E+02 0.  0.
          2    1    3    3  502    0 -0.32985313459E+02 -0.20332566602E+02  0.40379802604E+03  0.40565291815E+03  0.00000000000E+00 0. -1.
         -2    1    3    3    0  502  0.32985313459E+02  0.20332566602E+02  0.12639885580E+04  0.12645823496E+04  0.00000000000E+00 0.  1.
<mgrwt>
<rscale>  0 0.90408848E+02</rscale>
<asrwt>0</asrwt>
<pdfrwt beam="2">  1        1 0.18836162E-03 0.90408848E+02</pdfrwt>
<pdfrwt beam="1">  1       -1 0.25676909E+00 0.90408848E+02</pdfrwt>
<totfact> 0.11305479E+04</totfact>
</mgrwt>
</event>
<event>
 5    1  0.3957498E+001  0.8719883E+02  0.7546771E-02  0.1309781E+00
         -3   -1    0    0    0  501 -0.00000000000E+00  0.00000000000E+00  0.59829040578E+03  0.59829040578E+03  0.00000000000E+00 0.  1.
          3   -1    0    0  501    0  0.00000000000E+00 -0.00000000000E+00 -0.31772342822E+01  0.31772342822E+01  0.00000000000E+00 0. -1.
         23    2    1    2    0    0  0.00000000000E+00  0.00000000000E+00  0.59511317150E+03  0.60146764006E+03  0.87198825405E+02 0.  0.
          2    1    3    3  502    0  0.38870674594E+02 -0.10041967225E+02  0.18026834493E+03  0.18468472225E+03  0.00000000000E+00 0. -1.
         -2    1    3    3    0  502 -0.38870674594E+02  0.10041967225E+02  0.41484482657E+03  0.41678291782E+03  0.00000000000E+00 0.  1.
<mgrwt>
<rscale>  0 0.87198825E+02</rscale>
<asrwt>0</asrwt>
<pdfrwt beam="2">  1        3 0.48880575E-03 0.87198825E+02</pdfrwt>
<pdfrwt beam="1">  1       -3 0.92044588E-01 0.87198825E+02</pdfrwt>
<totfact> 0.17641585E+04</totfact>
</mgrwt>
</event>
<event>
 5    1  0.3957498E+001  0.7583350E+02  0.7546771E-02  0.1341309E+00
         -3   -1    0    0    0  501 -0.00000000000E+00  0.00000000000E+00  0.84504813710E+02  0.84504813710E+02  0.00000000000E+00 0.  1.
          3   -1    0    0  501    0  0.00000000000E+00 -0.00000000000E+00 -0.17012995276E+02  0.17012995276E+02  0.00000000000E+00 0. -1.
         23    2    1    2    0    0  0.00000000000E+00  0.00000000000E+00  0.67491818434E+02  0.10151780899E+03  0.75833501737E+02 0.  0.
          2    1    3    3  502    0  0.35999538506E+02 -0.10275747200E+02  0.41791695300E+02  0.56107963332E+02  0.00000000000E+00 0. -1.
         -2    1    3    3    0  502 -0.35999538506E+02  0.10275747200E+02  0.25700123134E+02  0.45409845654E+02  0.00000000000E+00 0.  1.
<mgrwt>
<rscale>  0 0.75833502E+02</rscale>
<asrwt>0</asrwt>
<pdfrwt beam="2">  1        3 0.26173840E-02 0.75833502E+02</pdfrwt>
<pdfrwt beam="1">  1       -3 0.13000740E-01 0.75833502E+02</pdfrwt>
<totfact> 0.56726528E+04</totfact>
</mgrwt>
</event>
<event>
 5    1  0.3957498E+001  0.9129975E+02  0.7546771E-02  0.1299734E+00
          2   -1    0    0  501    0  0.00000000000E+00  0.00000000000E+00  0.25152512214E+03  0.25152512214E+03  0.00000000000E+00 0. -1.
         -2   -1    0    0    0  501 -0.00000000000E+00 -0.00000000000E+00 -0.82851004955E+01  0.82851004955E+01  0.00000000000E+00 0.  1.
         23    2    1    2    0    0  0.00000000000E+00  0.00000000000E+00  0.24324002165E+03  0.25981022264E+03  0.91299746201E+02 0.  0.
          2    1    3    3  502    0  0.39451549662E+02  0.20758855268E+02  0.14958254052E+03  0.15608424415E+03  0.00000000000E+00 0. -1.
         -2    1    3    3    0  502 -0.39451549662E+02 -0.20758855268E+02  0.93657481131E+02  0.10372597849E+03  0.00000000000E+00 0.  1.
<mgrwt>
<rscale>  0 0.91299746E+02</rscale>
<asrwt>0</asrwt>
<pdfrwt beam="1">  1        2 0.38696167E-01 0.91299746E+02</pdfrwt>
<pdfrwt beam="2">  1       -2 0.12746310E-02 0.91299746E+02</pdfrwt>
<totfact> 0.16763246E+05</totfact>
</mgrwt>
</event>
<event>
 5    1  0.3957498E+001  0.9255108E+02  0.7546771E-02  0.1296789E+00
          3   -1    0    0  501    0  0.00000000000E+00  0.00000000000E+00  0.14352838988E+03  0.14352838988E+03  0.00000000000E+00 0. -1.
         -3   -1    0    0    0  501 -0.00000000000E+00 -0.00000000000E+00 -0.14919875393E+02  0.14919875393E+02  0.00000000000E+00 0.  1.
         23    2    1    2    0    0  0.00000000000E+00  0.00000000000E+00  0.12860851449E+03  0.15844826528E+03  0.92551081948E+02 0.  0.
          2    1    3    3  502    0 -0.30371725786E+02 -0.34773198150E+02  0.58942455736E+02  0.74872091763E+02  0.00000000000E+00 0. -1.
         -2    1    3    3    0  502  0.30371725786E+02  0.34773198150E+02  0.69666058754E+02  0.83576173513E+02  0.00000000000E+00 0.  1.
<mgrwt>
<rscale>  0 0.92551082E+02</rscale>
<asrwt>0</asrwt>
<pdfrwt beam="1">  1        3 0.22081290E-01 0.92551082E+02</pdfrwt>
<pdfrwt beam="2">  1       -3 0.22953655E-02 0.92551082E+02</pdfrwt>
<totfact> 0.29573222E+04</totfact>
</mgrwt>
</event>
<event>
 5    1  0.3957498E+001  0.9129717E+02  0.7546771E-02  0.1299740E+00
          3   -1    0    0  501    0  0.00000000000E+00  0.00000000000E+00  0.20041815837E+03  0.20041815837E+03  0.00000000000E+00 0. -1.
         -3   -1    0    0    0  501 -0.00000000000E+00 -0.00000000000E+00 -0.10397227532E+02  0.10397227532E+02  0.00000000000E+00 0.  1.
         23    2    1    2    0    0  0.00000000000E+00  0.00000000000E+00  0.19002093084E+03  0.21081538590E+03  0.91297167408E+02 0.  0.
          2    1    3    3  502    0 -0.16853514888E+02 -0.15592378050E+02  0.18611451782E+03  0.18752540351E+03  0.00000000000E+00 0. -1.
         -2    1    3    3    0  502  0.16853514888E+02  0.15592378050E+02  0.39064130189E+01  0.23289982396E+02  0.00000000000E+00 0.  1.
<mgrwt>
<rscale>  0 0.91297167E+02</rscale>
<asrwt>0</asrwt>
<pdfrwt beam="1">  1        3 0.30833560E-01 0.91297167E+02</pdfrwt>
<pdfrwt beam="2">  1       -3 0.15995736E-02 0.91297167E+02</pdfrwt>
<totfact> 0.27849556E+04</totfact>
</mgrwt>
</event>
<event>
 5    1  0.3957498E+001  0.9083065E+02  0.7546771E-02  0.1300853E+00
          3   -1    0    0  501    0  0.00000000000E+00  0.00000000000E+00  0.18570424600E+01  0.18570424600E+01  0.00000000000E+00 0. -1.
         -3   -1    0    0    0  501 -0.00000000000E+00 -0.00000000000E+00 -0.11106648478E+04  0.11106648478E+04  0.00000000000E+00 0.  1.
         23    2    1    2    0    0  0.00000000000E+00  0.00000000000E+00 -0.11088078053E+04  0.11125218903E+04  0.90830650800E+02 0.  0.
          2    1    3    3  502    0 -0.69382343789E+01 -0.22381569677E+02 -0.77902483197E+02  0.81350295917E+02  0.00000000000E+00 0. -1.
         -2    1    3    3    0  502  0.69382343789E+01  0.22381569677E+02 -0.10309053221E+04  0.10311715943E+04  0.00000000000E+00 0.  1.
<mgrwt>
<rscale>  0 0.90830651E+02</rscale>
<asrwt>0</asrwt>
<pdfrwt beam="1">  1        3 0.28569888E-03 0.90830651E+02</pdfrwt>
<pdfrwt beam="2">  1       -3 0.17087149E+00 0.90830651E+02</pdfrwt>
<totfact> 0.89858026E+03</totfact>
</mgrwt>
</event>
<event>
 5    1  0.3957498E+001  0.9624055E+02  0.7546771E-02  0.1288406E+00
          2   -1    0    0  501    0  0.00000000000E+00  0.00000000000E+00  0.63509174952E+03  0.63509174952E+03  0.00000000000E+00 0.  1.
         -2   -1    0    0    0  501 -0.00000000000E+00 -0.00000000000E+00 -0.36460254521E+01  0.36460254521E+01  0.00000000000E+00 0. -1.
         23    2    1    2    0    0  0.00000000000E+00  0.00000000000E+00  0.63144572406E+03  0.63873777497E+03  0.96240546199E+02 0.  0.
          2    1    3    3  502    0 -0.28150913109E+02 -0.34372504917E+02  0.19305389972E+03  0.19810035639E+03  0.00000000000E+00 0. -1.
         -2    1    3    3    0  502  0.28150913109E+02  0.34372504917E+02  0.43839182434E+03  0.44063741858E+03  0.00000000000E+00 0.  1.
<mgrwt>
<rscale>  0 0.96240546E+02</rscale>
<asrwt>0</asrwt>
<pdfrwt beam="1">  1        2 0.97706335E-01 0.96240546E+02</pdfrwt>
<pdfrwt beam="2">  1       -2 0.56092750E-03 0.96240546E+02</pdfrwt>
<totfact> 0.20057870E+05</totfact>
</mgrwt>
</event>
<event>
 5    1  0.3957498E+001  0.9235760E+02  0.7546771E-02  0.1297241E+00
          1   -1    0    0  501    0  0.00000000000E+00  0.00000000000E+00  0.10760142983E+02  0.10760142983E+02  0.00000000000E+00 0. -1.
         -1   -1    0    0    0  501 -0.00000000000E+00 -0.00000000000E+00 -0.19818337894E+03  0.19818337894E+03  0.00000000000E+00 0.  1.
         23    2    1    2    0    0  0.00000000000E+00  0.00000000000E+00 -0.18742323596E+03  0.20894352192E+03  0.92357598371E+02 0.  0.
          2    1    3    3  502    0 -0.42970089533E+02 -0.36340937246E+01 -0.56342290313E+02  0.70951313655E+02  0.00000000000E+00 0. -1.
         -2    1    3    3    0  502  0.42970089533E+02  0.36340937246E+01 -0.13108094564E+03  0.13799220827E+03  0.00000000000E+00 0.  1.
<mgrwt>
<rscale>  0 0.92357598E+02</rscale>
<asrwt>0</asrwt>
<pdfrwt beam="1">  1        1 0.16554068E-02 0.92357598E+02</pdfrwt>
<pdfrwt beam="2">  1       -1 0.30489747E-01 0.92357598E+02</pdfrwt>
<totfact> 0.67308163E+04</totfact>
</mgrwt>
</event>
<event>
 5    1  0.3957498E+001  0.9512979E+02  0.7546771E-02  0.1290884E+00
         -1   -1    0    0    0  501 -0.00000000000E+00  0.00000000000E+00  0.48869517066E+02  0.48869517066E+02  0.00000000000E+00 0.  1.
          1   -1    0    0  501    0  0.00000000000E+00 -0.00000000000E+00 -0.46295103750E+02  0.46295103750E+02  0.00000000000E+00 0. -1.
         23    2    1    2    0    0  0.00000000000E+00  0.00000000000E+00  0.25744133151E+01  0.95164620816E+02  0.95129792658E+02 0.  0.
          2    1    3    3  502    0  0.21527387876E+02  0.51986009174E+01 -0.40822925088E+02  0.46443138277E+02  0.00000000000E+00 0. -1.
         -2    1    3    3    0  502 -0.21527387876E+02 -0.51986009174E+01  0.43397338403E+02  0.48721482539E+02  0.00000000000E+00 0.  1.
<mgrwt>
<rscale>  0 0.95129793E+02</rscale>
<asrwt>0</asrwt>
<pdfrwt beam="2">  1        1 0.71223236E-02 0.95129793E+02</pdfrwt>
<pdfrwt beam="1">  1       -1 0.75183873E-02 0.95129793E+02</pdfrwt>
<totfact> 0.82241223E+04</totfact>
</mgrwt>
</event>
<event>
 5    1  0.3957498E+001  0.8853694E+02  0.7546771E-02  0.1306434E+00
         -3   -1    0    0    0  501 -0.00000000000E+00  0.00000000000E+00  0.22439071406E+03  0.22439071406E+03  0.00000000000E+00 0.  1.
          3   -1    0    0  501    0  0.00000000000E+00 -0.00000000000E+00 -0.87334163857E+01  0.87334163857E+01  0.00000000000E+00 0. -1.
         23    2    1    2    0    0  0.00000000000E+00  0.00000000000E+00  0.21565729767E+03  0.23312413045E+03  0.88536942323E+02 0.  0.
          2    1    3    3  502    0  0.25230522801E+01  0.31640831014E+02  0.26578452812E+02  0.41399542678E+02  0.00000000000E+00 0. -1.
         -2    1    3    3    0  502 -0.25230522801E+01 -0.31640831014E+02  0.18907884486E+03  0.19172458777E+03  0.00000000000E+00 0.  1.
<mgrwt>
<rscale>  0 0.88536942E+02</rscale>
<asrwt>0</asrwt>
<pdfrwt beam="2">  1        3 0.13436027E-02 0.88536942E+02</pdfrwt>
<pdfrwt beam="1">  1       -3 0.34521644E-01 0.88536942E+02</pdfrwt>
<totfact> 0.29073756E+04</totfact>
</mgrwt>
</event>
<event>
 5    1  0.3957498E+001  0.9279270E+02  0.7546771E-02  0.1296226E+00
         -2   -1    0    0    0  501 -0.00000000000E+00  0.00000000000E+00  0.19241430602E+03  0.19241430602E+03  0.00000000000E+00 0.  1.
          2   -1    0    0  501    0  0.00000000000E+00 -0.00000000000E+00 -0.11187429023E+02  0.11187429023E+02  0.00000000000E+00 0. -1.
         23    2    1    2    0    0  0.00000000000E+00  0.00000000000E+00  0.18122687700E+03  0.20360173504E+03  0.92792702116E+02 0.  0.
          2    1    3    3  502    0 -0.39778400979E+02 -0.17591013730E+02  0.55175501060E+02  0.70257390115E+02  0.00000000000E+00 0. -1.
         -2    1    3    3    0  502  0.39778400979E+02  0.17591013730E+02  0.12605137594E+03  0.13334434493E+03  0.00000000000E+00 0.  1.
<mgrwt>
<rscale>  0 0.92792702E+02</rscale>
<asrwt>0</asrwt>
<pdfrwt beam="2">  1        2 0.17211431E-02 0.92792702E+02</pdfrwt>
<pdfrwt beam="1">  1       -2 0.29602199E-01 0.92792702E+02</pdfrwt>
<totfact> 0.60579190E+04</totfact>
</mgrwt>
</event>
<event>
 5    1  0.3957498E+001  0.9247449E+02  0.7546771E-02  0.1296968E+00
         -1   -1    0    0    0  501 -0.00000000000E+00  0.00000000000E+00  0.83933469967E+00  0.83933469967E+00  0.00000000000E+00 0.  1.
          1   -1    0    0  501    0  0.00000000000E+00 -0.00000000000E+00 -0.25471159451E+04  0.25471159451E+04  0.00000000000E+00 0. -1.
         23    2    1    2    0    0  0.00000000000E+00  0.00000000000E+00 -0.25462766104E+04  0.25479552798E+04  0.92474489386E+02 0.  0.
          2    1    3    3  502    0  0.25762024382E+02  0.35146773932E+02 -0.16990137903E+04  0.16995725455E+04  0.00000000000E+00 0. -1.
         -2    1    3    3    0  502 -0.25762024382E+02 -0.35146773932E+02 -0.84726282006E+03  0.84838273431E+03  0.00000000000E+00 0.  1.
<mgrwt>
<rscale>  0 0.92474489E+02</rscale>
<asrwt>0</asrwt>
<pdfrwt beam="2">  1        1 0.39186504E+00 0.92474489E+02</pdfrwt>
<pdfrwt beam="1">  1       -1 0.12912807E-03 0.92474489E+02</pdfrwt>
<totfact> 0.48190142E+04</totfact>
</mgrwt>
</event>
<event>
 5    1  0.3957498E+001  0.8579166E+02  0.7546771E-02  0.1313375E+00
          2   -1    0    0  501    0  0.00000000000E+00  0.00000000000E+00  0.12177798773E+03  0.12177798773E+03  0.00000000000E+00 0.  1.
         -2   -1    0    0    0  501 -0.00000000000E+00 -0.00000000000E+00 -0.15109892156E+02  0.15109892156E+02  0.00000000000E+00 0. -1.
         23    2    1    2    0    0  0.00000000000E+00  0.00000000000E+00  0.10666809558E+03  0.13688787989E+03  0.85791660704E+02 0.  0.
          2    1    3    3  502    0  0.27839868824E+02  0.24757161246E+02  0.87259535223E+02  0.94879933687E+02  0.00000000000E+00 0.  1.
         -2    1    3    3    0  502 -0.27839868824E+02 -0.24757161246E+02  0.19408560356E+02  0.42007946203E+02  0.00000000000E+00 0. -1.
<mgrwt>
<rscale>  0 0.85791661E+02</rscale>
<asrwt>0</asrwt>
<pdfrwt beam="1">  1        2 0.18735074E-01 0.85791661E+02</pdfrwt>
<pdfrwt beam="2">  1       -2 0.23245989E-02 0.85791661E+02</pdfrwt>
<totfact> 0.15396971E+05</totfact>
</mgrwt>
</event>
<event>
 5    1  0.3957498E+001  0.9005893E+02  0.7546771E-02  0.1302709E+00
          3   -1    0    0  501    0  0.00000000000E+00  0.00000000000E+00  0.12091292864E+03  0.12091292864E+03  0.00000000000E+00 0.  1.
         -3   -1    0    0    0  501 -0.00000000000E+00 -0.00000000000E+00 -0.16769529573E+02  0.16769529573E+02  0.00000000000E+00 0. -1.
         23    2    1    2    0    0  0.00000000000E+00  0.00000000000E+00  0.10414339907E+03  0.13768245821E+03  0.90058934762E+02 0.  0.
          2    1    3    3  502    0 -0.40974868260E+01 -0.41128342615E+02  0.24752568304E+02  0.48176961322E+02  0.00000000000E+00 0. -1.
         -2    1    3    3    0  502  0.40974868260E+01  0.41128342615E+02  0.79390830764E+02  0.89505496892E+02  0.00000000000E+00 0.  1.
<mgrwt>
<rscale>  0 0.90058935E+02</rscale>
<asrwt>0</asrwt>
<pdfrwt beam="1">  1        3 0.18601988E-01 0.90058935E+02</pdfrwt>
<pdfrwt beam="2">  1       -3 0.25799277E-02 0.90058935E+02</pdfrwt>
<totfact> 0.33166488E+04</totfact>
</mgrwt>
</event>
<event>
 5    1  0.3957498E+001  0.9140838E+02  0.7546771E-02  0.1299477E+00
         -1   -1    0    0    0  501 -0.00000000000E+00  0.00000000000E+00  0.13837648807E+02  0.13837648807E+02  0.00000000000E+00 0.  1.
          1   -1    0    0  501    0  0.00000000000E+00 -0.00000000000E+00 -0.15095577811E+03  0.15095577811E+03  0.00000000000E+00 0. -1.
         23    2    1    2    0    0  0.00000000000E+00  0.00000000000E+00 -0.13711812931E+03  0.16479342692E+03  0.91408381298E+02 0.  0.
          2    1    3    3  502    0 -0.27370988992E+02 -0.13902980448E+02 -0.12960035233E+03  0.13318676822E+03  0.00000000000E+00 0. -1.
         -2    1    3    3    0  502  0.27370988992E+02  0.13902980448E+02 -0.75177769762E+01  0.31606658704E+02  0.00000000000E+00 0.  1.
<mgrwt>
<rscale>  0 0.91408381E+02</rscale>
<asrwt>0</asrwt>
<pdfrwt beam="2">  1        1 0.23223964E-01 0.91408381E+02</pdfrwt>
<pdfrwt beam="1">  1       -1 0.21288692E-02 0.91408381E+02</pdfrwt>
<totfact> 0.11149761E+05</totfact>
</mgrwt>
</event>
<event>
 5    1  0.3957498E+001  0.9014524E+02  0.7546771E-02  0.1302500E+00
         -2   -1    0    0    0  501 -0.00000000000E+00  0.00000000000E+00  0.14703668248E+01  0.14703668248E+01  0.00000000000E+00 0.  1.
          2   -1    0    0  501    0  0.00000000000E+00 -0.00000000000E+00 -0.13816560365E+04  0.13816560365E+04  0.00000000000E+00 0. -1.
         23    2    1    2    0    0  0.00000000000E+00  0.00000000000E+00 -0.13801856697E+04  0.13831264033E+04  0.90145242788E+02 0.  0.
          2    1    3    3  502    0 -0.11530212581E+02 -0.30015951337E+02 -0.20546811351E+03  0.20796886499E+03  0.00000000000E+00 0.  1.
         -2    1    3    3    0  502  0.11530212581E+02  0.30015951337E+02 -0.11747175562E+04  0.11751575383E+04  0.00000000000E+00 0. -1.
<mgrwt>
<rscale>  0 0.90145243E+02</rscale>
<asrwt>0</asrwt>
<pdfrwt beam="2">  1        2 0.21256302E+00 0.90145243E+02</pdfrwt>
<pdfrwt beam="1">  1       -2 0.22620969E-03 0.90145243E+02</pdfrwt>
<totfact> 0.24964512E+05</totfact>
</mgrwt>
</event>
<event>
 5    1  0.3957498E+001  0.9515466E+02  0.7546771E-02  0.1290828E+00
          2   -1    0    0  501    0  0.00000000000E+00  0.00000000000E+00  0.19630115662E+03  0.19630115662E+03  0.00000000000E+00 0. -1.
         -2   -1    0    0    0  501 -0.00000000000E+00 -0.00000000000E+00 -0.11531273176E+02  0.11531273176E+02  0.00000000000E+00 0.  1.
         23    2    1    2    0    0  0.00000000000E+00  0.00000000000E+00  0.18476988345E+03  0.20783242980E+03  0.95154658566E+02 0.  0.
          2    1    3    3  502    0  0.33792476212E+01 -0.32156200359E+02  0.16861666453E+03  0.17168873024E+03  0.00000000000E+00 0. -1.
         -2    1    3    3    0  502 -0.33792476212E+01  0.32156200359E+02  0.16153218918E+02  0.36143699554E+02  0.00000000000E+00 0.  1.
<mgrwt>
<rscale>  0 0.95154659E+02</rscale>
<asrwt>0</asrwt>
<pdfrwt beam="1">  1        2 0.30200176E-01 0.95154659E+02</pdfrwt>
<pdfrwt beam="2">  1       -2 0.17740422E-02 0.95154659E+02</pdfrwt>
<totfact> 0.13689491E+05</totfact>
</mgrwt>
</event>
<event>
 5    1  0.3957498E+001  0.9320865E+02  0.7546771E-02  0.1295262E+00
         -1   -1    0    0    0  501 -0.00000000000E+00  0.00000000000E+00  0.16498144472E+01  0.16498144472E+01  0.00000000000E+00 0.  1.
          1   -1    0    0  501    0  0.00000000000E+00 -0.00000000000E+00 -0.13164894289E+04  0.13164894289E+04  0.00000000000E+00 0. -1.
         23    2    1    2    0    0  0.00000000000E+00  0.00000000000E+00 -0.13148396145E+04  0.13181392434E+04  0.93208653665E+02 0.  0.
          2    1    3    3  502    0 -0.22626055523E+02 -0.24625211783E+02 -0.11164569720E+04  0.11169577027E+04  0.00000000000E+00 0. -1.
         -2    1    3    3    0  502  0.22626055523E+02  0.24625211783E+02 -0.19838264251E+03  0.20118154064E+03  0.00000000000E+00 0.  1.
<mgrwt>
<rscale>  0 0.93208654E+02</rscale>
<asrwt>0</asrwt>
<pdfrwt beam="2">  1        1 0.20253609E+00 0.93208654E+02</pdfrwt>
<pdfrwt beam="1">  1       -1 0.25381854E-03 0.93208654E+02</pdfrwt>
<totfact> 0.11429557E+05</totfact>
</mgrwt>
</event>
<event>
 5    1  0.3957498E+001  0.9000739E+02  0.7546771E-02  0.1302834E+00
         -2   -1    0    0    0  501 -0.00000000000E+00  0.00000000000E+00  0.22150820231E+01  0.22150820231E+01  0.00000000000E+00 0.  1.
          2   -1    0    0  501    0  0.00000000000E+00 -0.00000000000E+00 -0.91433757412E+03  0.91433757412E+03  0.00000000000E+00 0. -1.
         23    2    1    2    0    0  0.00000000000E+00  0.00000000000E+00 -0.91212249209E+03  0.91655265614E+03  0.90007393552E+02 0.  0.
          2    1    3    3  502    0  0.15687979789E+02 -0.41976749830E+02 -0.41386286038E+03  0.41628190861E+03  0.00000000000E+00 0.  1.
         -2    1    3    3    0  502 -0.15687979789E+02  0.41976749830E+02 -0.49825963172E+03  0.50027074753E+03  0.00000000000E+00 0. -1.
<mgrwt>
<rscale>  0 0.90007394E+02</rscale>
<asrwt>0</asrwt>
<pdfrwt beam="2">  1        2 0.14066716E+00 0.90007394E+02</pdfrwt>
<pdfrwt beam="1">  1       -2 0.34078224E-03 0.90007394E+02</pdfrwt>
<totfact> 0.25694684E+05</totfact>
</mgrwt>
</event>
<event>
 5    1  0.3957498E+001  0.8981859E+02  0.7546771E-02  0.1303292E+00
         -1   -1    0    0    0  501 -0.00000000000E+00  0.00000000000E+00  0.18889121188E+01  0.18889121188E+01  0.00000000000E+00 0. -1.
          1   -1    0    0  501    0  0.00000000000E+00 -0.00000000000E+00 -0.10677281126E+04  0.10677281126E+04  0.00000000000E+00 0.  1.
         23    2    1    2    0    0  0.00000000000E+00  0.00000000000E+00 -0.10658392005E+04  0.10696170247E+04  0.89818585413E+02 0.  0.
          2    1    3    3  502    0  0.23126700526E+02  0.49364588450E+01 -0.78260389720E+02  0.81755131351E+02  0.00000000000E+00 0. -1.
         -2    1    3    3    0  502 -0.23126700526E+02 -0.49364588450E+01 -0.98757881076E+03  0.98786189336E+03  0.00000000000E+00 0.  1.
<mgrwt>
<rscale>  0 0.89818585E+02</rscale>
<asrwt>0</asrwt>
<pdfrwt beam="2">  1        1 0.16426570E+00 0.89818585E+02</pdfrwt>
<pdfrwt beam="1">  1       -1 0.29060216E-03 0.89818585E+02</pdfrwt>
<totfact> 0.13877454E+05</totfact>
</mgrwt>
</event>
<event>
 5    1  0.3957498E+001  0.8806887E+02  0.7546771E-02  0.1307597E+00
          4   -1    0    0  501    0  0.00000000000E+00  0.00000000000E+00  0.42896702527E+02  0.42896702527E+02  0.00000000000E+00 0. -1.
         -4   -1    0    0    0  501 -0.00000000000E+00 -0.00000000000E+00 -0.45202339060E+02  0.45202339060E+02  0.00000000000E+00 0.  1.
         23    2    1    2    0    0  0.00000000000E+00  0.00000000000E+00 -0.23056365328E+01  0.88099041586E+02  0.88068866057E+02 0.  0.
          2    1    3    3  502    0 -0.39563813077E+02 -0.17951340701E+02 -0.83306063303E+01  0.44237370401E+02  0.00000000000E+00 0. -1.
         -2    1    3    3    0  502  0.39563813077E+02  0.17951340701E+02  0.60249697975E+01  0.43861671186E+02  0.00000000000E+00 0.  1.
<mgrwt>
<rscale>  0 0.88068866E+02</rscale>
<asrwt>0</asrwt>
<pdfrwt beam="1">  1        4 0.65994927E-02 0.88068866E+02</pdfrwt>
<pdfrwt beam="2">  1       -4 0.69542060E-02 0.88068866E+02</pdfrwt>
<totfact> 0.29892967E+04</totfact>
</mgrwt>
</event>
<event>
 4    1  0.3957498E+001  0.1325931E+03  0.7546771E-02  0.1223658E+00
          2   -1    0    0  501    0  0.00000000000E+00  0.00000000000E+00  0.11643532216E+04  0.11643532216E+04  0.00000000000E+00 0. -1.
         -2   -1    0    0    0  501 -0.00000000000E+00 -0.00000000000E+00 -0.37748267022E+01  0.37748267022E+01  0.00000000000E+00 0.  1.
          2    1    1    2  502    0  0.60959595682E+02 -0.25510621945E+02  0.62721158012E+03  0.63068314578E+03  0.00000000000E+00 0. -1.
         -2    1    1    2    0  502 -0.60959595682E+02  0.25510621945E+02  0.53336681477E+03  0.53744490251E+03  0.00000000000E+00 0.  1.
<mgrwt>
<rscale>  0 0.13259309E+03</rscale>
<asrwt>0</asrwt>
<pdfrwt beam="1">  1        2 0.17913098E+00 0.13259309E+03</pdfrwt>
<pdfrwt beam="2">  1       -2 0.58074350E-03 0.13259309E+03</pdfrwt>
<totfact> 0.91396902E+04</totfact>
</mgrwt>
</event>
<event>
 5    1  0.3957498E+001  0.9038624E+02  0.7546771E-02  0.1301919E+00
          3   -1    0    0  501    0  0.00000000000E+00  0.00000000000E+00  0.23920408887E+03  0.23920408887E+03  0.00000000000E+00 0. -1.
         -3   -1    0    0    0  501 -0.00000000000E+00 -0.00000000000E+00 -0.85383919645E+01  0.85383919645E+01  0.00000000000E+00 0.  1.
         23    2    1    2    0    0  0.00000000000E+00  0.00000000000E+00  0.23066569691E+03  0.24774248084E+03  0.90386243872E+02 0.  0.
          2    1    3    3  502    0  0.41665257666E+02  0.10006093231E+02  0.15470150274E+03  0.16052623009E+03  0.00000000000E+00 0.  1.
         -2    1    3    3    0  502 -0.41665257666E+02 -0.10006093231E+02  0.75964194171E+02  0.87216250746E+02  0.00000000000E+00 0. -1.
<mgrwt>
<rscale>  0 0.90386244E+02</rscale>
<asrwt>0</asrwt>
<pdfrwt beam="1">  1        3 0.36800624E-01 0.90386244E+02</pdfrwt>
<pdfrwt beam="2">  1       -3 0.13135989E-02 0.90386244E+02</pdfrwt>
<totfact> 0.26824642E+04</totfact>
</mgrwt>
</event>
<event>
 5    1  0.3957498E+001  0.9085516E+02  0.7546771E-02  0.1300794E+00
          1   -1    0    0  501    0  0.00000000000E+00  0.00000000000E+00  0.66672693956E+03  0.66672693956E+03  0.00000000000E+00 0. -1.
         -1   -1    0    0    0  501 -0.00000000000E+00 -0.00000000000E+00 -0.30952178823E+01  0.30952178823E+01  0.00000000000E+00 0.  1.
         23    2    1    2    0    0  0.00000000000E+00  0.00000000000E+00  0.66363172168E+03  0.66982215745E+03  0.90855162670E+02 0.  0.
          2    1    3    3  502    0  0.38261303322E+02  0.11289791894E+02  0.49203299055E+03  0.49364749621E+03  0.00000000000E+00 0. -1.
         -2    1    3    3    0  502 -0.38261303322E+02 -0.11289791894E+02  0.17159873114E+03  0.17617466123E+03  0.00000000000E+00 0.  1.
<mgrwt>
<rscale>  0 0.90855163E+02</rscale>
<asrwt>0</asrwt>
<pdfrwt beam="1">  1        1 0.10257326E+00 0.90855163E+02</pdfrwt>
<pdfrwt beam="2">  1       -1 0.47618790E-03 0.90855163E+02</pdfrwt>
<totfact> 0.14349057E+05</totfact>
</mgrwt>
</event>
<event>
 5    1  0.3957498E+001  0.9100890E+02  0.7546771E-02  0.1300427E+00
          2   -1    0    0  501    0  0.00000000000E+00  0.00000000000E+00  0.85699532166E+03  0.85699532166E+03  0.00000000000E+00 0. -1.
         -2   -1    0    0    0  501 -0.00000000000E+00 -0.00000000000E+00 -0.24161799327E+01  0.24161799327E+01  0.00000000000E+00 0.  1.
         23    2    1    2    0    0  0.00000000000E+00  0.00000000000E+00  0.85457914173E+03  0.85941150160E+03  0.91008898435E+02 0.  0.
          2    1    3    3  502    0  0.21468157392E+02  0.24663823318E+02  0.72612772504E+03  0.72686357663E+03  0.00000000000E+00 0. -1.
         -2    1    3    3    0  502 -0.21468157392E+02 -0.24663823318E+02  0.12845141670E+03  0.13254792497E+03  0.00000000000E+00 0.  1.
<mgrwt>
<rscale>  0 0.91008898E+02</rscale>
<asrwt>0</asrwt>
<pdfrwt beam="1">  1        2 0.13184519E+00 0.91008898E+02</pdfrwt>
<pdfrwt beam="2">  1       -2 0.37172067E-03 0.91008898E+02</pdfrwt>
<totfact> 0.24760965E+05</totfact>
</mgrwt>
</event>
<event>
 5    1  0.3957498E+001  0.8825796E+02  0.7546771E-02  0.1307126E+00
         -4   -1    0    0    0  501 -0.00000000000E+00  0.00000000000E+00  0.22546977718E+03  0.22546977718E+03  0.00000000000E+00 0.  1.
          4   -1    0    0  501    0  0.00000000000E+00 -0.00000000000E+00 -0.86369310770E+01  0.86369310770E+01  0.00000000000E+00 0. -1.
         23    2    1    2    0    0  0.00000000000E+00  0.00000000000E+00  0.21683284610E+03  0.23410670825E+03  0.88257961123E+02 0.  0.
          2    1    3    3  502    0 -0.38918969281E+02 -0.18471045414E+02  0.83043327776E+02  0.93552445060E+02  0.00000000000E+00 0. -1.
         -2    1    3    3    0  502  0.38918969281E+02  0.18471045414E+02  0.13378951832E+03  0.14055426319E+03  0.00000000000E+00 0.  1.
<mgrwt>
<rscale>  0 0.88257961E+02</rscale>
<asrwt>0</asrwt>
<pdfrwt beam="2">  1        4 0.13287588E-02 0.88257961E+02</pdfrwt>
<pdfrwt beam="1">  1       -4 0.34687654E-01 0.88257961E+02</pdfrwt>
<totfact> 0.21852277E+04</totfact>
</mgrwt>
</event>
<event>
 5    1  0.3957498E+001  0.8919282E+02  0.7546771E-02  0.1304818E+00
         -2   -1    0    0    0  501 -0.00000000000E+00  0.00000000000E+00  0.39226454525E+02  0.39226454525E+02  0.00000000000E+00 0.  1.
          2   -1    0    0  501    0  0.00000000000E+00 -0.00000000000E+00 -0.50701492377E+02  0.50701492377E+02  0.00000000000E+00 0. -1.
         23    2    1    2    0    0  0.00000000000E+00  0.00000000000E+00 -0.11475037853E+02  0.89927946902E+02  0.89192820004E+02 0.  0.
          2    1    3    3  502    0  0.29308212578E+02 -0.30025272530E+02 -0.20973368954E+02  0.46908107192E+02  0.00000000000E+00 0. -1.
         -2    1    3    3    0  502 -0.29308212578E+02  0.30025272530E+02  0.94983311017E+01  0.43019839711E+02  0.00000000000E+00 0.  1.
<mgrwt>
<rscale>  0 0.89192820E+02</rscale>
<asrwt>0</asrwt>
<pdfrwt beam="2">  1        2 0.78002296E-02 0.89192820E+02</pdfrwt>
<pdfrwt beam="1">  1       -2 0.60348392E-02 0.89192820E+02</pdfrwt>
<totfact> 0.10798965E+05</totfact>
</mgrwt>
</event>
<event>
 5    1  0.3957498E+001  0.8780812E+02  0.7546771E-02  0.1308248E+00
          1   -1    0    0  501    0  0.00000000000E+00  0.00000000000E+00  0.82471557449E+03  0.82471557449E+03  0.00000000000E+00 0. -1.
         -1   -1    0    0    0  501 -0.00000000000E+00 -0.00000000000E+00 -0.23372502084E+01  0.23372502084E+01  0.00000000000E+00 0.  1.
         23    2    1    2    0    0  0.00000000000E+00  0.00000000000E+00  0.82237832428E+03  0.82705282470E+03  0.87808123732E+02 0.  0.
          2    1    3    3  502    0  0.30649666024E+02 -0.29838755189E+02  0.50434230868E+03  0.50615305755E+03  0.00000000000E+00 0. -1.
         -2    1    3    3    0  502 -0.30649666024E+02  0.29838755189E+02  0.31803601560E+03  0.32089976715E+03  0.00000000000E+00 0.  1.
<mgrwt>
<rscale>  0 0.87808124E+02</rscale>
<asrwt>0</asrwt>
<pdfrwt beam="1">  1        1 0.12687909E+00 0.87808124E+02</pdfrwt>
<pdfrwt beam="2">  1       -1 0.35957761E-03 0.87808124E+02</pdfrwt>
<totfact> 0.15559484E+05</totfact>
</mgrwt>
</event>
<event>
 5    1  0.3957498E+001  0.9086078E+02  0.7546771E-02  0.1300780E+00
         -1   -1    0    0    0  501 -0.00000000000E+00  0.00000000000E+00  0.59697278071E+02  0.59697278071E+02  0.00000000000E+00 0.  1.
          1   -1    0    0  501    0  0.00000000000E+00 -0.00000000000E+00 -0.34573107621E+02  0.34573107621E+02  0.00000000000E+00 0. -1.
         23    2    1    2    0    0  0.00000000000E+00  0.00000000000E+00  0.25124170449E+02  0.94270385692E+02  0.90860781846E+02 0.  0.
          2    1    3    3  502    0  0.35431867711E+02  0.27267010468E+02  0.41964301619E+01  0.44905647033E+02  0.00000000000E+00 0. -1.
         -2    1    3    3    0  502 -0.35431867711E+02 -0.27267010468E+02  0.20927740287E+02  0.49364738659E+02  0.00000000000E+00 0.  1.
<mgrwt>
<rscale>  0 0.90860782E+02</rscale>
<asrwt>0</asrwt>
<pdfrwt beam="2">  1        1 0.53189396E-02 0.90860782E+02</pdfrwt>
<pdfrwt beam="1">  1       -1 0.91841966E-02 0.90860782E+02</pdfrwt>
<totfact> 0.89534978E+04</totfact>
</mgrwt>
</event>
<event>
 5    1  0.3957498E+001  0.8006408E+02  0.7546771E-02  0.1328870E+00
          2   -1    0    0  501    0  0.00000000000E+00  0.00000000000E+00  0.27038021038E+01  0.27038021038E+01  0.00000000000E+00 0. -1.
         -2   -1    0    0    0  501 -0.00000000000E+00 -0.00000000000E+00 -0.59270770352E+03  0.59270770352E+03  0.00000000000E+00 0.  1.
         23    2    1    2    0    0  0.00000000000E+00  0.00000000000E+00 -0.59000390141E+03  0.59541150562E+03  0.80064082727E+02 0.  0.
          2    1    3    3  502    0  0.21393925590E+02 -0.77479016265E+00 -0.43441360799E+02  0.48429868676E+02  0.00000000000E+00 0. -1.
         -2    1    3    3    0  502 -0.21393925590E+02  0.77479016265E+00 -0.54656254061E+03  0.54698163695E+03  0.00000000000E+00 0.  1.
<mgrwt>
<rscale>  0 0.80064083E+02</rscale>
<asrwt>0</asrwt>
<pdfrwt beam="1">  1        2 0.41596974E-03 0.80064083E+02</pdfrwt>
<pdfrwt beam="2">  1       -2 0.91185759E-01 0.80064083E+02</pdfrwt>
<totfact> 0.44183231E+04</totfact>
</mgrwt>
</event>
<event>
 5    1  0.3957498E+001  0.5988330E+02  0.7546771E-02  0.1398322E+00
          2   -1    0    0  501    0  0.00000000000E+00  0.00000000000E+00  0.12145815971E+04  0.12145815971E+04  0.00000000000E+00 0. -1.
         -2   -1    0    0    0  501 -0.00000000000E+00 -0.00000000000E+00 -0.73811622573E+00  0.73811622573E+00  0.00000000000E+00 0.  1.
         23    2    1    2    0    0  0.00000000000E+00  0.00000000000E+00  0.12138434809E+04  0.12153197133E+04  0.59883299318E+02 0.  0.
          2    1    3    3  502    0  0.10118984157E+02 -0.21379677377E+02  0.97949470005E+03  0.97978025693E+03  0.00000000000E+00 0. -1.
         -2    1    3    3    0  502 -0.10118984157E+02  0.21379677377E+02  0.23434878084E+03  0.23553945641E+03  0.00000000000E+00 0.  1.
<mgrwt>
<rscale>  0 0.59883299E+02</rscale>
<asrwt>0</asrwt>
<pdfrwt beam="1">  1        2 0.18685711E+00 0.59883299E+02</pdfrwt>
<pdfrwt beam="2">  1       -2 0.11355731E-03 0.59883299E+02</pdfrwt>
<totfact> 0.73369078E+05</totfact>
</mgrwt>
</event>
<event>
 5    1  0.3957498E+001  0.9072225E+02  0.7546771E-02  0.1301112E+00
         -4   -1    0    0    0  501 -0.00000000000E+00  0.00000000000E+00  0.87219323696E+03  0.87219323696E+03  0.00000000000E+00 0.  1.
          4   -1    0    0  501    0  0.00000000000E+00 -0.00000000000E+00 -0.23591465163E+01  0.23591465163E+01  0.00000000000E+00 0. -1.
         23    2    1    2    0    0  0.00000000000E+00  0.00000000000E+00  0.86983409044E+03  0.87455238347E+03  0.90722249453E+02 0.  0.
          2    1    3    3  502    0 -0.20525052752E+02  0.41407949557E+01  0.47013907131E+02  0.51465827858E+02  0.00000000000E+00 0. -1.
         -2    1    3    3    0  502  0.20525052752E+02 -0.41407949557E+01  0.82282018331E+03  0.82308655562E+03  0.00000000000E+00 0.  1.
<mgrwt>
<rscale>  0 0.90722249E+02</rscale>
<asrwt>0</asrwt>
<pdfrwt beam="2">  1        4 0.36294631E-03 0.90722249E+02</pdfrwt>
<pdfrwt beam="1">  1       -4 0.13418332E+00 0.90722249E+02</pdfrwt>
<totfact> 0.82848545E+03</totfact>
</mgrwt>
</event>
<event>
 5    1  0.3957498E+001  0.8877365E+02  0.7546771E-02  0.1305849E+00
         -1   -1    0    0    0  501 -0.00000000000E+00  0.00000000000E+00  0.18623440518E+02  0.18623440518E+02  0.00000000000E+00 0.  1.
          1   -1    0    0  501    0  0.00000000000E+00 -0.00000000000E+00 -0.10579088892E+03  0.10579088892E+03  0.00000000000E+00 0. -1.
         23    2    1    2    0    0  0.00000000000E+00  0.00000000000E+00 -0.87167448402E+02  0.12441432944E+03  0.88773652107E+02 0.  0.
          2    1    3    3  502    0 -0.21474583097E+02 -0.36600233626E+02 -0.61827476167E+02  0.74989143413E+02  0.00000000000E+00 0. -1.
         -2    1    3    3    0  502  0.21474583097E+02  0.36600233626E+02 -0.25339972236E+02  0.49425186025E+02  0.00000000000E+00 0.  1.
<mgrwt>
<rscale>  0 0.88773652E+02</rscale>
<asrwt>0</asrwt>
<pdfrwt beam="2">  1        1 0.16275522E-01 0.88773652E+02</pdfrwt>
<pdfrwt beam="1">  1       -1 0.28651446E-02 0.88773652E+02</pdfrwt>
<totfact> 0.11337077E+05</totfact>
</mgrwt>
</event>
<event>
 5    1  0.3957498E+001  0.8744575E+02  0.7546771E-02  0.1309158E+00
          4   -1    0    0  501    0  0.00000000000E+00  0.00000000000E+00  0.38497272196E+01  0.38497272196E+01  0.00000000000E+00 0. -1.
         -4   -1    0    0    0  501 -0.00000000000E+00 -0.00000000000E+00 -0.49657796422E+03  0.49657796422E+03  0.00000000000E+00 0.  1.
         23    2    1    2    0    0  0.00000000000E+00  0.00000000000E+00 -0.49272823700E+03  0.50042769143E+03  0.87445747879E+02 0.  0.
          2    1    3    3  502    0 -0.17826985242E+02  0.21898339951E+02 -0.55328810579E+02  0.62117758939E+02  0.00000000000E+00 0. -1.
         -2    1    3    3    0  502  0.17826985242E+02 -0.21898339951E+02 -0.43739942642E+03  0.43830993250E+03  0.00000000000E+00 0.  1.
<mgrwt>
<rscale>  0 0.87445748E+02</rscale>
<asrwt>0</asrwt>
<pdfrwt beam="1">  1        4 0.59226578E-03 0.87445748E+02</pdfrwt>
<pdfrwt beam="2">  1       -4 0.76396603E-01 0.87445748E+02</pdfrwt>
<totfact> 0.14577013E+04</totfact>
</mgrwt>
</event>
<event>
 5    1  0.3957498E+001  0.9095679E+02  0.7546771E-02  0.1300551E+00
          1   -1    0    0  501    0  0.00000000000E+00  0.00000000000E+00  0.41807605578E+03  0.41807605578E+03  0.00000000000E+00 0. -1.
         -1   -1    0    0    0  501 -0.00000000000E+00 -0.00000000000E+00 -0.49471482889E+01  0.49471482889E+01  0.00000000000E+00 0.  1.
         23    2    1    2    0    0  0.00000000000E+00  0.00000000000E+00  0.41312890749E+03  0.42302320407E+03  0.90956786310E+02 0.  0.
          2    1    3    3  502    0  0.29617160016E+02  0.28734150143E+02  0.29547372332E+03  0.29834132923E+03  0.00000000000E+00 0. -1.
         -2    1    3    3    0  502 -0.29617160016E+02 -0.28734150143E+02  0.11765518417E+03  0.12468187484E+03  0.00000000000E+00 0.  1.
<mgrwt>
<rscale>  0 0.90956786E+02</rscale>
<asrwt>0</asrwt>
<pdfrwt beam="1">  1        1 0.64319365E-01 0.90956786E+02</pdfrwt>
<pdfrwt beam="2">  1       -1 0.76110006E-03 0.90956786E+02</pdfrwt>
<totfact> 0.13672455E+05</totfact>
</mgrwt>
</event>
<event>
 5    1  0.3957498E+001  0.9130824E+02  0.7546771E-02  0.1299714E+00
         -1   -1    0    0    0  501 -0.00000000000E+00  0.00000000000E+00  0.68709072934E+02  0.68709072934E+02  0.00000000000E+00 0.  1.
          1   -1    0    0  501    0  0.00000000000E+00 -0.00000000000E+00 -0.30335128686E+02  0.30335128686E+02  0.00000000000E+00 0. -1.
         23    2    1    2    0    0  0.00000000000E+00  0.00000000000E+00  0.38373944248E+02  0.99044201621E+02  0.91308237731E+02 0.  0.
          2    1    3    3  502    0  0.26089296946E+01  0.32445818404E+02 -0.15537077872E+02  0.36068524157E+02  0.00000000000E+00 0. -1.
         -2    1    3    3    0  502 -0.26089296946E+01 -0.32445818404E+02  0.53911022120E+02  0.62975677464E+02  0.00000000000E+00 0.  1.
<mgrwt>
<rscale>  0 0.91308238E+02</rscale>
<asrwt>0</asrwt>
<pdfrwt beam="2">  1        1 0.46669429E-02 0.91308238E+02</pdfrwt>
<pdfrwt beam="1">  1       -1 0.10570627E-01 0.91308238E+02</pdfrwt>
<totfact> 0.86481316E+04</totfact>
</mgrwt>
</event>
<event>
 5    1  0.3957498E+001  0.9009847E+02  0.7546771E-02  0.1302613E+00
          2   -1    0    0  501    0  0.00000000000E+00  0.00000000000E+00  0.63131974043E+03  0.63131974043E+03  0.00000000000E+00 0.  1.
         -2   -1    0    0    0  501 -0.00000000000E+00 -0.00000000000E+00 -0.32145890391E+01  0.32145890391E+01  0.00000000000E+00 0. -1.
         23    2    1    2    0    0  0.00000000000E+00  0.00000000000E+00  0.62810515139E+03  0.63453432947E+03  0.90098468750E+02 0.  0.
          2    1    3    3  502    0  0.18472527067E+02 -0.40360371602E+02  0.36825815777E+03  0.37092352934E+03  0.00000000000E+00 0. -1.
         -2    1    3    3    0  502 -0.18472527067E+02  0.40360371602E+02  0.25984699362E+03  0.26361080014E+03  0.00000000000E+00 0.  1.
<mgrwt>
<rscale>  0 0.90098469E+02</rscale>
<asrwt>0</asrwt>
<pdfrwt beam="1">  1        2 0.97126015E-01 0.90098469E+02</pdfrwt>
<pdfrwt beam="2">  1       -2 0.49455266E-03 0.90098469E+02</pdfrwt>
<totfact> 0.23843857E+05</totfact>
</mgrwt>
</event>
<event>
 5    1  0.3957498E+001  0.9515522E+02  0.7546771E-02  0.1290827E+00
         -4   -1    0    0    0  501 -0.00000000000E+00  0.00000000000E+00  0.19687278568E+02  0.19687278568E+02  0.00000000000E+00 0. -1.
          4   -1    0    0  501    0  0.00000000000E+00 -0.00000000000E+00 -0.11497926408E+03  0.11497926408E+03  0.00000000000E+00 0.  1.
         23    2    1    2    0    0  0.00000000000E+00  0.00000000000E+00 -0.95291985513E+02  0.13466654265E+03  0.95155216388E+02 0.  0.
          2    1    3    3  502    0  0.33873785710E+02 -0.52456175492E+01 -0.95027878939E+00  0.34290711447E+02  0.00000000000E+00 0. -1.
         -2    1    3    3    0  502 -0.33873785710E+02  0.52456175492E+01 -0.94341706724E+02  0.10037583120E+03  0.00000000000E+00 0.  1.
<mgrwt>
<rscale>  0 0.95155216E+02</rscale>
<asrwt>0</asrwt>
<pdfrwt beam="2">  1        4 0.17689118E-01 0.95155216E+02</pdfrwt>
<pdfrwt beam="1">  1       -4 0.30288120E-02 0.95155216E+02</pdfrwt>
<totfact> 0.21793918E+04</totfact>
</mgrwt>
</event>
<event>
 5    1  0.3957498E+001  0.9133169E+02  0.7546771E-02  0.1299658E+00
         -2   -1    0    0    0  501 -0.00000000000E+00  0.00000000000E+00  0.38958861963E+01  0.38958861963E+01  0.00000000000E+00 0.  1.
          2   -1    0    0  501    0  0.00000000000E+00 -0.00000000000E+00 -0.53527470191E+03  0.53527470191E+03  0.00000000000E+00 0. -1.
         23    2    1    2    0    0  0.00000000000E+00  0.00000000000E+00 -0.53137881571E+03  0.53917058811E+03  0.91331688310E+02 0.  0.
          2    1    3    3  502    0  0.10195362204E+02 -0.32944638341E+02 -0.88973022701E+02  0.95422708904E+02  0.00000000000E+00 0.  1.
         -2    1    3    3    0  502 -0.10195362204E+02  0.32944638341E+02 -0.44240579301E+03  0.44374787920E+03  0.00000000000E+00 0. -1.
<mgrwt>
<rscale>  0 0.91331688E+02</rscale>
<asrwt>0</asrwt>
<pdfrwt beam="2">  1        2 0.82349933E-01 0.91331688E+02</pdfrwt>
<pdfrwt beam="1">  1       -2 0.59936726E-03 0.91331688E+02</pdfrwt>
<totfact> 0.21923578E+05</totfact>
</mgrwt>
</event>
<event>
 5    1  0.3957498E+001  0.9208179E+02  0.7546771E-02  0.1297887E+00
          2   -1    0    0  501    0  0.00000000000E+00  0.00000000000E+00  0.29683968432E+02  0.29683968432E+02  0.00000000000E+00 0. -1.
         -2   -1    0    0    0  501 -0.00000000000E+00 -0.00000000000E+00 -0.71411076050E+02  0.71411076050E+02  0.00000000000E+00 0.  1.
         23    2    1    2    0    0  0.00000000000E+00  0.00000000000E+00 -0.41727107618E+02  0.10109504448E+03  0.92081792493E+02 0.  0.
          2    1    3    3  502    0 -0.40231105689E+02  0.15850650506E+01 -0.45381273057E+02  0.60667241905E+02  0.00000000000E+00 0. -1.
         -2    1    3    3    0  502  0.40231105689E+02 -0.15850650506E+01  0.36541654389E+01  0.40427802577E+02  0.00000000000E+00 0.  1.
<mgrwt>
<rscale>  0 0.92081792E+02</rscale>
<asrwt>0</asrwt>
<pdfrwt beam="1">  1        2 0.45667644E-02 0.92081792E+02</pdfrwt>
<pdfrwt beam="2">  1       -2 0.10986319E-01 0.92081792E+02</pdfrwt>
<totfact> 0.85659958E+04</totfact>
</mgrwt>
</event>
<event>
 5    1  0.3957498E+001  0.9073644E+02  0.7546771E-02  0.1301078E+00
         -2   -1    0    0    0  501 -0.00000000000E+00  0.00000000000E+00  0.88138641255E+00  0.88138641255E+00  0.00000000000E+00 0.  1.
          2   -1    0    0  501    0  0.00000000000E+00 -0.00000000000E+00 -0.23352702919E+04  0.23352702919E+04  0.00000000000E+00 0. -1.
         23    2    1    2    0    0  0.00000000000E+00  0.00000000000E+00 -0.23343889055E+04  0.23361516783E+04  0.90736442621E+02 0.  0.
          2    1    3    3  502    0 -0.17198161612E+02  0.33894048699E+02 -0.18050092514E+04  0.18054093666E+04  0.00000000000E+00 0. -1.
         -2    1    3    3    0  502  0.17198161612E+02 -0.33894048699E+02 -0.52937965408E+03  0.53074231172E+03  0.00000000000E+00 0.  1.
<mgrwt>
<rscale>  0 0.90736443E+02</rscale>
<asrwt>0</asrwt>
<pdfrwt beam="2">  1        2 0.35927453E+00 0.90736443E+02</pdfrwt>
<pdfrwt beam="1">  1       -2 0.13559709E-03 0.90736443E+02</pdfrwt>
<totfact> 0.16681900E+05</totfact>
</mgrwt>
</event>
<event>
 5    1  0.3957498E+001  0.9058998E+02  0.7546771E-02  0.1301429E+00
         -1   -1    0    0    0  501 -0.00000000000E+00  0.00000000000E+00  0.44030552688E+03  0.44030552688E+03  0.00000000000E+00 0.  1.
          1   -1    0    0  501    0  0.00000000000E+00 -0.00000000000E+00 -0.46595734969E+01  0.46595734969E+01  0.00000000000E+00 0. -1.
         23    2    1    2    0    0  0.00000000000E+00  0.00000000000E+00  0.43564595339E+03  0.44496510038E+03  0.90589976567E+02 0.  0.
          2    1    3    3  502    0  0.43151522045E+02 -0.12897302695E+02  0.19414308713E+03  0.19929860148E+03  0.00000000000E+00 0. -1.
         -2    1    3    3    0  502 -0.43151522045E+02  0.12897302695E+02  0.24150286626E+03  0.24566649890E+03  0.00000000000E+00 0.  1.
<mgrwt>
<rscale>  0 0.90589977E+02</rscale>
<asrwt>0</asrwt>
<pdfrwt beam="2">  1        1 0.71685781E-03 0.90589977E+02</pdfrwt>
<pdfrwt beam="1">  1       -1 0.67739279E-01 0.90589977E+02</pdfrwt>
<totfact> 0.51524137E+04</totfact>
</mgrwt>
</event>
<event>
 5    1  0.3957498E+001  0.8857694E+02  0.7546771E-02  0.1306335E+00
         -2   -1    0    0    0  501 -0.00000000000E+00  0.00000000000E+00  0.34461283316E+02  0.34461283316E+02  0.00000000000E+00 0.  1.
          2   -1    0    0  501    0  0.00000000000E+00 -0.00000000000E+00 -0.56918031228E+02  0.56918031228E+02  0.00000000000E+00 0. -1.
         23    2    1    2    0    0  0.00000000000E+00  0.00000000000E+00 -0.22456747911E+02  0.91379314544E+02  0.88576936049E+02 0.  0.
          2    1    3    3  502    0 -0.24097054073E+02  0.89872516908E+01 -0.48425028227E+02  0.54830849590E+02  0.00000000000E+00 0. -1.
         -2    1    3    3    0  502  0.24097054073E+02 -0.89872516908E+01  0.25968280316E+02  0.36548464954E+02  0.00000000000E+00 0.  1.
<mgrwt>
<rscale>  0 0.88576936E+02</rscale>
<asrwt>0</asrwt>
<pdfrwt beam="2">  1        2 0.87566202E-02 0.88576936E+02</pdfrwt>
<pdfrwt beam="1">  1       -2 0.53017359E-02 0.88576936E+02</pdfrwt>
<totfact> 0.11347406E+05</totfact>
</mgrwt>
</event>
<event>
 5    1  0.3957498E+001  0.8642976E+02  0.7546771E-02  0.1311735E+00
         -2   -1    0    0    0  501 -0.00000000000E+00  0.00000000000E+00  0.39564825104E+01  0.39564825104E+01  0.00000000000E+00 0.  1.
          2   -1    0    0  501    0  0.00000000000E+00 -0.00000000000E+00 -0.47201667722E+03  0.47201667722E+03  0.00000000000E+00 0. -1.
         23    2    1    2    0    0  0.00000000000E+00  0.00000000000E+00 -0.46806019471E+03  0.47597315973E+03  0.86429757099E+02 0.  0.
          2    1    3    3  502    0 -0.81050463380E+01 -0.25406125905E+02 -0.42129923545E+03  0.42214240346E+03  0.00000000000E+00 0. -1.
         -2    1    3    3    0  502  0.81050463380E+01  0.25406125905E+02 -0.46760959264E+02  0.53830756273E+02  0.00000000000E+00 0.  1.
<mgrwt>
<rscale>  0 0.86429757E+02</rscale>
<asrwt>0</asrwt>
<pdfrwt beam="2">  1        2 0.72617906E-01 0.86429757E+02</pdfrwt>
<pdfrwt beam="1">  1       -2 0.60868999E-03 0.86429757E+02</pdfrwt>
<totfact> 0.24349530E+05</totfact>
</mgrwt>
</event>
<event>
 5    1  0.3957498E+001  0.9143229E+02  0.7546771E-02  0.1299420E+00
         -3   -1    0    0    0  501 -0.00000000000E+00  0.00000000000E+00  0.20761314410E+01  0.20761314410E+01  0.00000000000E+00 0.  1.
          3   -1    0    0  501    0  0.00000000000E+00 -0.00000000000E+00 -0.10066634869E+04  0.10066634869E+04  0.00000000000E+00 0. -1.
         23    2    1    2    0    0  0.00000000000E+00  0.00000000000E+00 -0.10045873554E+04  0.10087396183E+04  0.91432285667E+02 0.  0.
          2    1    3    3  502    0  0.34636423722E+02 -0.23593069861E+02 -0.70381716322E+03  0.70506376594E+03  0.00000000000E+00 0. -1.
         -2    1    3    3    0  502 -0.34636423722E+02  0.23593069861E+02 -0.30077019219E+03  0.30367585236E+03  0.00000000000E+00 0.  1.
<mgrwt>
<rscale>  0 0.91432286E+02</rscale>
<asrwt>0</asrwt>
<pdfrwt beam="2">  1        3 0.15487079E+00 0.91432286E+02</pdfrwt>
<pdfrwt beam="1">  1       -3 0.31940591E-03 0.91432286E+02</pdfrwt>
<totfact> 0.98574164E+03</totfact>
</mgrwt>
</event>
<event>
 5    1  0.3957498E+001  0.9182122E+02  0.7546771E-02  0.1298500E+00
         -2   -1    0    0    0  501 -0.00000000000E+00  0.00000000000E+00  0.95965736697E+00  0.95965736697E+00  0.00000000000E+00 0. -1.
          2   -1    0    0  501    0  0.00000000000E+00 -0.00000000000E+00 -0.21963925157E+04  0.21963925157E+04  0.00000000000E+00 0.  1.
         23    2    1    2    0    0  0.00000000000E+00  0.00000000000E+00 -0.21954328583E+04  0.21973521731E+04  0.91821223221E+02 0.  0.
          2    1    3    3  502    0  0.13458356789E+02 -0.32228604748E+02 -0.38460614362E+03  0.38618867933E+03  0.00000000000E+00 0. -1.
         -2    1    3    3    0  502 -0.13458356789E+02  0.32228604748E+02 -0.18108267147E+04  0.18111634937E+04  0.00000000000E+00 0.  1.
<mgrwt>
<rscale>  0 0.91821223E+02</rscale>
<asrwt>0</asrwt>
<pdfrwt beam="2">  1        2 0.33790628E+00 0.91821223E+02</pdfrwt>
<pdfrwt beam="1">  1       -2 0.14763971E-03 0.91821223E+02</pdfrwt>
<totfact> 0.17494387E+05</totfact>
</mgrwt>
</event>
<event>
 5    1  0.3957498E+001  0.9436489E+02  0.7546771E-02  0.1292613E+00
         -3   -1    0    0    0  501 -0.00000000000E+00  0.00000000000E+00  0.58056119698E+01  0.58056119698E+01  0.00000000000E+00 0.  1.
          3   -1    0    0  501    0  0.00000000000E+00 -0.00000000000E+00 -0.38345365717E+03  0.38345365717E+03  0.00000000000E+00 0. -1.
         23    2    1    2    0    0  0.00000000000E+00  0.00000000000E+00 -0.37764804520E+03  0.38925926914E+03  0.94364890546E+02 0.  0.
          2    1    3    3  502    0 -0.36285294772E+02  0.50062431552E+01 -0.66143119752E+02  0.75608183273E+02  0.00000000000E+00 0.  1.
         -2    1    3    3    0  502  0.36285294772E+02 -0.50062431552E+01 -0.31150492545E+03  0.31365108587E+03  0.00000000000E+00 0. -1.
<mgrwt>
<rscale>  0 0.94364891E+02</rscale>
<asrwt>0</asrwt>
<pdfrwt beam="2">  1        3 0.58992895E-01 0.94364891E+02</pdfrwt>
<pdfrwt beam="1">  1       -3 0.89317070E-03 0.94364891E+02</pdfrwt>
<totfact> 0.19097810E+04</totfact>
</mgrwt>
</event>
<event>
 5    1  0.3957498E+001  0.9096529E+02  0.7546771E-02  0.1300531E+00
         -1   -1    0    0    0  501 -0.00000000000E+00  0.00000000000E+00  0.68812566692E+01  0.68812566692E+01  0.00000000000E+00 0.  1.
          1   -1    0    0  501    0  0.00000000000E+00 -0.00000000000E+00 -0.30062403241E+03  0.30062403241E+03  0.00000000000E+00 0. -1.
         23    2    1    2    0    0  0.00000000000E+00  0.00000000000E+00 -0.29374277574E+03  0.30750528908E+03  0.90965292897E+02 0.  0.
          2    1    3    3  502    0  0.37481610426E+01 -0.34764800209E+02 -0.24519776268E+03  0.24767838595E+03  0.00000000000E+00 0. -1.
         -2    1    3    3    0  502 -0.37481610426E+01  0.34764800209E+02 -0.48545013067E+02  0.59826903133E+02  0.00000000000E+00 0.  1.
<mgrwt>
<rscale>  0 0.90965293E+02</rscale>
<asrwt>0</asrwt>
<pdfrwt beam="2">  1        1 0.46249855E-01 0.90965293E+02</pdfrwt>
<pdfrwt beam="1">  1       -1 0.10586548E-02 0.90965293E+02</pdfrwt>
<totfact> 0.12896850E+05</totfact>
</mgrwt>
</event>
<event>
 5    1  0.3957498E+001  0.9085827E+02  0.7546771E-02  0.1300786E+00
         -2   -1    0    0    0  501 -0.00000000000E+00  0.00000000000E+00  0.17354786794E+03  0.17354786794E+03  0.00000000000E+00 0.  1.
          2   -1    0    0  501    0  0.00000000000E+00 -0.00000000000E+00 -0.11891857100E+02  0.11891857100E+02  0.00000000000E+00 0. -1.
         23    2    1    2    0    0  0.00000000000E+00  0.00000000000E+00  0.16165601084E+03  0.18543972504E+03  0.90858273053E+02 0.  0.
          2    1    3    3  502    0  0.30143437579E+02  0.12394374566E+02  0.16236324537E+02  0.36412437222E+02  0.00000000000E+00 0. -1.
         -2    1    3    3    0  502 -0.30143437579E+02 -0.12394374566E+02  0.14541968631E+03  0.14902728782E+03  0.00000000000E+00 0.  1.
<mgrwt>
<rscale>  0 0.90858273E+02</rscale>
<asrwt>0</asrwt>
<pdfrwt beam="2">  1        2 0.18295166E-02 0.90858273E+02</pdfrwt>
<pdfrwt beam="1">  1       -2 0.26699670E-01 0.90858273E+02</pdfrwt>
<totfact> 0.66684877E+04</totfact>
</mgrwt>
</event>
<event>
 5    1  0.3957498E+001  0.9298191E+02  0.7546771E-02  0.1295787E+00
         -2   -1    0    0    0  501 -0.00000000000E+00  0.00000000000E+00  0.15643953053E+01  0.15643953053E+01  0.00000000000E+00 0.  1.
          2   -1    0    0  501    0  0.00000000000E+00 -0.00000000000E+00 -0.13816256653E+04  0.13816256653E+04  0.00000000000E+00 0. -1.
         23    2    1    2    0    0  0.00000000000E+00  0.00000000000E+00 -0.13800612700E+04  0.13831900606E+04  0.92981905864E+02 0.  0.
          2    1    3    3  502    0 -0.37362280740E+02  0.23279480458E+02 -0.91244133100E+03  0.91350263094E+03  0.00000000000E+00 0. -1.
         -2    1    3    3    0  502  0.37362280740E+02 -0.23279480458E+02 -0.46761993899E+03  0.46968742965E+03  0.00000000000E+00 0.  1.
<mgrwt>
<rscale>  0 0.92981906E+02</rscale>
<asrwt>0</asrwt>
<pdfrwt beam="2">  1        2 0.21255658E+00 0.92981906E+02</pdfrwt>
<pdfrwt beam="1">  1       -2 0.24067757E-03 0.92981906E+02</pdfrwt>
<totfact> 0.23007740E+05</totfact>
</mgrwt>
</event>
<event>
 5    1  0.3957498E+001  0.9115121E+02  0.7546771E-02  0.1300088E+00
          2   -1    0    0  501    0  0.00000000000E+00  0.00000000000E+00  0.94281326780E+02  0.94281326780E+02  0.00000000000E+00 0. -1.
         -2   -1    0    0    0  501 -0.00000000000E+00 -0.00000000000E+00 -0.22031251788E+02  0.22031251788E+02  0.00000000000E+00 0.  1.
         23    2    1    2    0    0  0.00000000000E+00  0.00000000000E+00  0.72250074992E+02  0.11631257857E+03  0.91151207326E+02 0.  0.
          2    1    3    3  502    0 -0.33244195119E+02 -0.29733961173E+02  0.24164881217E+02  0.50726979414E+02  0.00000000000E+00 0.  1.
         -2    1    3    3    0  502  0.33244195119E+02  0.29733961173E+02  0.48085193775E+02  0.65585599155E+02  0.00000000000E+00 0. -1.
<mgrwt>
<rscale>  0 0.91151207E+02</rscale>
<asrwt>0</asrwt>
<pdfrwt beam="1">  1        2 0.14504819E-01 0.91151207E+02</pdfrwt>
<pdfrwt beam="2">  1       -2 0.33894234E-02 0.91151207E+02</pdfrwt>
<totfact> 0.12060735E+05</totfact>
</mgrwt>
</event>
<event>
 5    1  0.3957498E+001  0.9146961E+02  0.7546771E-02  0.1299331E+00
          1   -1    0    0  501    0  0.00000000000E+00  0.00000000000E+00  0.25927406466E+02  0.25927406466E+02  0.00000000000E+00 0. -1.
         -1   -1    0    0    0  501 -0.00000000000E+00 -0.00000000000E+00 -0.80674181101E+02  0.80674181101E+02  0.00000000000E+00 0.  1.
         23    2    1    2    0    0  0.00000000000E+00  0.00000000000E+00 -0.54746774635E+02  0.10660158757E+03  0.91469607733E+02 0.  0.
          2    1    3    3  502    0  0.57740859416E+01 -0.41858119849E+02 -0.69789965437E+01  0.42826961817E+02  0.00000000000E+00 0. -1.
         -2    1    3    3    0  502 -0.57740859416E+01  0.41858119849E+02 -0.47767778091E+02  0.63774625749E+02  0.00000000000E+00 0.  1.
<mgrwt>
<rscale>  0 0.91469608E+02</rscale>
<asrwt>0</asrwt>
<pdfrwt beam="1">  1        1 0.39888318E-02 0.91469608E+02</pdfrwt>
<pdfrwt beam="2">  1       -1 0.12411412E-01 0.91469608E+02</pdfrwt>
<totfact> 0.83838619E+04</totfact>
</mgrwt>
</event>
<event>
 5    1  0.3957498E+001  0.9502214E+02  0.7546771E-02  0.1291126E+00
         -1   -1    0    0    0  501 -0.00000000000E+00  0.00000000000E+00  0.13354231522E+03  0.13354231522E+03  0.00000000000E+00 0.  1.
          1   -1    0    0  501    0  0.00000000000E+00 -0.00000000000E+00 -0.16903270737E+02  0.16903270737E+02  0.00000000000E+00 0. -1.
         23    2    1    2    0    0  0.00000000000E+00  0.00000000000E+00  0.11663904448E+03  0.15044558596E+03  0.95022142872E+02 0.  0.
          2    1    3    3  502    0  0.34415495963E+02  0.28472738328E+02  0.83955704376E+02  0.95098283305E+02  0.00000000000E+00 0. -1.
         -2    1    3    3    0  502 -0.34415495963E+02 -0.28472738328E+02  0.32683340107E+02  0.55347302652E+02  0.00000000000E+00 0.  1.
<mgrwt>
<rscale>  0 0.95022143E+02</rscale>
<asrwt>0</asrwt>
<pdfrwt beam="2">  1        1 0.26005033E-02 0.95022143E+02</pdfrwt>
<pdfrwt beam="1">  1       -1 0.20544971E-01 0.95022143E+02</pdfrwt>
<totfact> 0.68973075E+04</totfact>
</mgrwt>
</event>
<event>
 5    1  0.3957498E+001  0.8901426E+02  0.7546771E-02  0.1305257E+00
          1   -1    0    0  501    0  0.00000000000E+00  0.00000000000E+00  0.69869339466E+01  0.69869339466E+01  0.00000000000E+00 0. -1.
         -1   -1    0    0    0  501 -0.00000000000E+00 -0.00000000000E+00 -0.28351274065E+03  0.28351274065E+03  0.00000000000E+00 0.  1.
         23    2    1    2    0    0  0.00000000000E+00  0.00000000000E+00 -0.27652580670E+03  0.29049967460E+03  0.89014263844E+02 0.  0.
          2    1    3    3  502    0 -0.34053152772E+01  0.42582785276E+02 -0.97502224362E+02  0.10644986392E+03  0.00000000000E+00 0. -1.
         -2    1    3    3    0  502  0.34053152772E+01 -0.42582785276E+02 -0.17902358234E+03  0.18404981067E+03  0.00000000000E+00 0.  1.
<mgrwt>
<rscale>  0 0.89014264E+02</rscale>
<asrwt>0</asrwt>
<pdfrwt beam="1">  1        1 0.10749128E-02 0.89014264E+02</pdfrwt>
<pdfrwt beam="2">  1       -1 0.43617348E-01 0.89014264E+02</pdfrwt>
<totfact> 0.65922366E+04</totfact>
</mgrwt>
</event>
<event>
 5    1  0.3957498E+001  0.9049190E+02  0.7546771E-02  0.1301665E+00
         -1   -1    0    0    0  501 -0.00000000000E+00  0.00000000000E+00  0.20443005977E+02  0.20443005977E+02  0.00000000000E+00 0.  1.
          1   -1    0    0  501    0  0.00000000000E+00 -0.00000000000E+00 -0.10014163595E+03  0.10014163595E+03  0.00000000000E+00 0. -1.
         23    2    1    2    0    0  0.00000000000E+00  0.00000000000E+00 -0.79698629970E+02  0.12058464192E+03  0.90491901565E+02 0.  0.
          2    1    3    3  502    0 -0.85666782955E+01 -0.27488970990E+02 -0.86358128859E+02  0.91031631443E+02  0.00000000000E+00 0. -1.
         -2    1    3    3    0  502  0.85666782955E+01  0.27488970990E+02  0.66594988885E+01  0.29553010482E+02  0.00000000000E+00 0.  1.
<mgrwt>
<rscale>  0 0.90491902E+02</rscale>
<asrwt>0</asrwt>
<pdfrwt beam="2">  1        1 0.15406405E-01 0.90491902E+02</pdfrwt>
<pdfrwt beam="1">  1       -1 0.31450779E-02 0.90491902E+02</pdfrwt>
<totfact> 0.10664377E+05</totfact>
</mgrwt>
</event>
<event>
 5    1  0.3957498E+001  0.9212477E+02  0.7546771E-02  0.1297786E+00
          2   -1    0    0  501    0  0.00000000000E+00  0.00000000000E+00  0.10182811341E+04  0.10182811341E+04  0.00000000000E+00 0. -1.
         -2   -1    0    0    0  501 -0.00000000000E+00 -0.00000000000E+00 -0.20836517062E+01  0.20836517062E+01  0.00000000000E+00 0.  1.
         23    2    1    2    0    0  0.00000000000E+00  0.00000000000E+00  0.10161974824E+04  0.10203647858E+04  0.92124768056E+02 0.  0.
          2    1    3    3  502    0  0.38087065025E+01  0.45617271250E+02  0.45129595341E+03  0.45361159514E+03  0.00000000000E+00 0.  1.
         -2    1    3    3    0  502 -0.38087065025E+01 -0.45617271250E+02  0.56490152894E+03  0.56675319063E+03  0.00000000000E+00 0. -1.
<mgrwt>
<rscale>  0 0.92124768E+02</rscale>
<asrwt>0</asrwt>
<pdfrwt beam="1">  1        2 0.15665824E+00 0.92124768E+02</pdfrwt>
<pdfrwt beam="2">  1       -2 0.32056261E-03 0.92124768E+02</pdfrwt>
<totfact> 0.24345680E+05</totfact>
</mgrwt>
</event>
<event>
 5    1  0.3957498E+001  0.9185902E+02  0.7546771E-02  0.1298411E+00
          1   -1    0    0  501    0  0.00000000000E+00  0.00000000000E+00  0.16038265113E+02  0.16038265113E+02  0.00000000000E+00 0. -1.
         -1   -1    0    0    0  501 -0.00000000000E+00 -0.00000000000E+00 -0.13153041814E+03  0.13153041814E+03  0.00000000000E+00 0.  1.
         23    2    1    2    0    0  0.00000000000E+00  0.00000000000E+00 -0.11549215303E+03  0.14756868325E+03  0.91859016250E+02 0.  0.
          2    1    3    3  502    0  0.97741628782E+01  0.40145778402E+02 -0.25524374889E+02  0.48566567688E+02  0.00000000000E+00 0. -1.
         -2    1    3    3    0  502 -0.97741628782E+01 -0.40145778402E+02 -0.89967778137E+02  0.99002115566E+02  0.00000000000E+00 0.  1.
<mgrwt>
<rscale>  0 0.91859016E+02</rscale>
<asrwt>0</asrwt>
<pdfrwt beam="1">  1        1 0.24674255E-02 0.91859016E+02</pdfrwt>
<pdfrwt beam="2">  1       -1 0.20235448E-01 0.91859016E+02</pdfrwt>
<totfact> 0.75556171E+04</totfact>
</mgrwt>
</event>
<event>
 5    1  0.3957498E+001  0.9232726E+02  0.7546771E-02  0.1297312E+00
          2   -1    0    0  501    0  0.00000000000E+00  0.00000000000E+00  0.10072632861E+03  0.10072632861E+03  0.00000000000E+00 0. -1.
         -2   -1    0    0    0  501 -0.00000000000E+00 -0.00000000000E+00 -0.21157138223E+02  0.21157138223E+02  0.00000000000E+00 0.  1.
         23    2    1    2    0    0  0.00000000000E+00  0.00000000000E+00  0.79569190388E+02  0.12188346683E+03  0.92327262650E+02 0.  0.
          2    1    3    3  502    0  0.36144904435E+02  0.32343290473E+01  0.77452484173E+02  0.85532463461E+02  0.00000000000E+00 0. -1.
         -2    1    3    3    0  502 -0.36144904435E+02 -0.32343290473E+01  0.21167062145E+01  0.36351003373E+02  0.00000000000E+00 0.  1.
<mgrwt>
<rscale>  0 0.92327263E+02</rscale>
<asrwt>0</asrwt>
<pdfrwt beam="1">  1        2 0.15496358E-01 0.92327263E+02</pdfrwt>
<pdfrwt beam="2">  1       -2 0.32549444E-02 0.92327263E+02</pdfrwt>
<totfact> 0.11876922E+05</totfact>
</mgrwt>
</event>
<event>
 5    1  0.3957498E+001  0.9083689E+02  0.7546771E-02  0.1300838E+00
         -3   -1    0    0    0  501 -0.00000000000E+00  0.00000000000E+00  0.24364746315E+02  0.24364746315E+02  0.00000000000E+00 0.  1.
          3   -1    0    0  501    0  0.00000000000E+00 -0.00000000000E+00 -0.84664747298E+02  0.84664747298E+02  0.00000000000E+00 0. -1.
         23    2    1    2    0    0  0.00000000000E+00  0.00000000000E+00 -0.60300000982E+02  0.10902949361E+03  0.90836888757E+02 0.  0.
          2    1    3    3  502    0 -0.22620592502E+02  0.33093181810E+02 -0.55780502866E+02  0.68689987534E+02  0.00000000000E+00 0. -1.
         -2    1    3    3    0  502  0.22620592502E+02 -0.33093181810E+02 -0.45194981164E+01  0.40339506079E+02  0.00000000000E+00 0.  1.
<mgrwt>
<rscale>  0 0.90836889E+02</rscale>
<asrwt>0</asrwt>
<pdfrwt beam="2">  1        3 0.13025346E-01 0.90836889E+02</pdfrwt>
<pdfrwt beam="1">  1       -3 0.37484225E-02 0.90836889E+02</pdfrwt>
<totfact> 0.34361106E+04</totfact>
</mgrwt>
</event>
<event>
 5    1  0.3957498E+001  0.9080091E+02  0.7546771E-02  0.1300924E+00
         -1   -1    0    0    0  501 -0.00000000000E+00  0.00000000000E+00  0.43353223716E+02  0.43353223716E+02  0.00000000000E+00 0.  1.
          1   -1    0    0  501    0  0.00000000000E+00 -0.00000000000E+00 -0.47544358338E+02  0.47544358338E+02  0.00000000000E+00 0. -1.
         23    2    1    2    0    0  0.00000000000E+00  0.00000000000E+00 -0.41911346225E+01  0.90897582054E+02  0.90800907560E+02 0.  0.
          2    1    3    3  502    0  0.62788443219E+01 -0.42327340793E+02 -0.17283191385E+02  0.46149066828E+02  0.00000000000E+00 0. -1.
         -2    1    3    3    0  502 -0.62788443219E+01  0.42327340793E+02  0.13092056763E+02  0.44748515226E+02  0.00000000000E+00 0.  1.
<mgrwt>
<rscale>  0 0.90800908E+02</rscale>
<asrwt>0</asrwt>
<pdfrwt beam="2">  1        1 0.73145166E-02 0.90800908E+02</pdfrwt>
<pdfrwt beam="1">  1       -1 0.66697267E-02 0.90800908E+02</pdfrwt>
<totfact> 0.94140553E+04</totfact>
</mgrwt>
</event>
<event>
 5    1  0.3957498E+001  0.9122854E+02  0.7546771E-02  0.1299904E+00
          1   -1    0    0  501    0  0.00000000000E+00  0.00000000000E+00  0.23261837796E+02  0.23261837796E+02  0.00000000000E+00 0. -1.
         -1   -1    0    0    0  501 -0.00000000000E+00 -0.00000000000E+00 -0.89445289346E+02  0.89445289346E+02  0.00000000000E+00 0.  1.
         23    2    1    2    0    0  0.00000000000E+00  0.00000000000E+00 -0.66183451550E+02  0.11270712714E+03  0.91228544050E+02 0.  0.
          2    1    3    3  502    0  0.24056141512E+02 -0.14275202942E+02  0.11421442084E+02  0.30214710039E+02  0.00000000000E+00 0. -1.
         -2    1    3    3    0  502 -0.24056141512E+02  0.14275202942E+02 -0.77604893634E+02  0.82492417103E+02  0.00000000000E+00 0.  1.
<mgrwt>
<rscale>  0 0.91228544E+02</rscale>
<asrwt>0</asrwt>
<pdfrwt beam="1">  1        1 0.35787443E-02 0.91228544E+02</pdfrwt>
<pdfrwt beam="2">  1       -1 0.13760814E-01 0.91228544E+02</pdfrwt>
<totfact> 0.82912058E+04</totfact>
</mgrwt>
</event>
<event>
 5    1  0.3957498E+001  0.8714366E+02  0.7546771E-02  0.1309920E+00
         -2   -1    0    0    0  501 -0.00000000000E+00  0.00000000000E+00  0.83405665978E+00  0.83405665978E+00  0.00000000000E+00 0.  1.
          2   -1    0    0  501    0  0.00000000000E+00 -0.00000000000E+00 -0.22762295087E+04  0.22762295087E+04  0.00000000000E+00 0. -1.
         23    2    1    2    0    0  0.00000000000E+00  0.00000000000E+00 -0.22753954521E+04  0.22770635654E+04  0.87143660262E+02 0.  0.
          2    1    3    3  502    0 -0.16547818745E+02  0.24124381564E+02 -0.19814532030E+04  0.19816691479E+04  0.00000000000E+00 0. -1.
         -2    1    3    3    0  502  0.16547818745E+02 -0.24124381564E+02 -0.29394224909E+03  0.29539441750E+03  0.00000000000E+00 0.  1.
<mgrwt>
<rscale>  0 0.87143660E+02</rscale>
<asrwt>0</asrwt>
<pdfrwt beam="2">  1        2 0.35018541E+00 0.87143660E+02</pdfrwt>
<pdfrwt beam="1">  1       -2 0.12831778E-03 0.87143660E+02</pdfrwt>
<totfact> 0.19215152E+05</totfact>
</mgrwt>
</event>
<event>
 5    1  0.3957498E+001  0.9132112E+02  0.7546771E-02  0.1299684E+00
          3   -1    0    0  501    0  0.00000000000E+00  0.00000000000E+00  0.41764943203E+01  0.41764943203E+01  0.00000000000E+00 0. -1.
         -3   -1    0    0    0  501 -0.00000000000E+00 -0.00000000000E+00 -0.49919536656E+03  0.49919536656E+03  0.00000000000E+00 0.  1.
         23    2    1    2    0    0  0.00000000000E+00  0.00000000000E+00 -0.49501887224E+03  0.50337186088E+03  0.91321117232E+02 0.  0.
          2    1    3    3  502    0  0.14274433005E+02 -0.40634252993E+02 -0.16391696722E+03  0.16948060094E+03  0.00000000000E+00 0. -1.
         -2    1    3    3    0  502 -0.14274433005E+02  0.40634252993E+02 -0.33110190502E+03  0.33389125993E+03  0.00000000000E+00 0.  1.
<mgrwt>
<rscale>  0 0.91321117E+02</rscale>
<asrwt>0</asrwt>
<pdfrwt beam="1">  1        3 0.64253771E-03 0.91321117E+02</pdfrwt>
<pdfrwt beam="2">  1       -3 0.76799273E-01 0.91321117E+02</pdfrwt>
<totfact> 0.17734662E+04</totfact>
</mgrwt>
</event>
<event>
 5    1  0.3957498E+001  0.6783648E+02  0.7546771E-02  0.1367609E+00
          1   -1    0    0  501    0  0.00000000000E+00  0.00000000000E+00  0.21412294233E+03  0.21412294233E+03  0.00000000000E+00 0. -1.
         -1   -1    0    0    0  501 -0.00000000000E+00 -0.00000000000E+00 -0.53728346588E+01  0.53728346588E+01  0.00000000000E+00 0.  1.
         23    2    1    2    0    0  0.00000000000E+00  0.00000000000E+00  0.20875010767E+03  0.21949577699E+03  0.67836484749E+02 0.  0.
          2    1    3    3  502    0 -0.33495866355E+02 -0.16237314551E+01  0.12082213787E+03  0.12538978653E+03  0.00000000000E+00 0. -1.
         -2    1    3    3    0  502  0.33495866355E+02  0.16237314551E+01  0.87927969797E+02  0.94105990454E+02  0.00000000000E+00 0.  1.
<mgrwt>
<rscale>  0 0.67836485E+02</rscale>
<asrwt>0</asrwt>
<pdfrwt beam="1">  1        1 0.32941985E-01 0.67836485E+02</pdfrwt>
<pdfrwt beam="2">  1       -1 0.82659011E-03 0.67836485E+02</pdfrwt>
<totfact> 0.26149182E+05</totfact>
</mgrwt>
</event>
<event>
 5    1  0.3957498E+001  0.9295335E+02  0.7546771E-02  0.1295853E+00
         -1   -1    0    0    0  501 -0.00000000000E+00  0.00000000000E+00  0.10693069067E+03  0.10693069067E+03  0.00000000000E+00 0.  1.
          1   -1    0    0  501    0  0.00000000000E+00 -0.00000000000E+00 -0.20200759846E+02  0.20200759846E+02  0.00000000000E+00 0. -1.
         23    2    1    2    0    0  0.00000000000E+00  0.00000000000E+00  0.86729930823E+02  0.12713145052E+03  0.92953347490E+02 0.  0.
          2    1    3    3  502    0 -0.29361059246E+02 -0.26678421272E+02  0.10249011997E+02  0.40973799049E+02  0.00000000000E+00 0. -1.
         -2    1    3    3    0  502  0.29361059246E+02  0.26678421272E+02  0.76480918827E+02  0.86157651466E+02  0.00000000000E+00 0.  1.
<mgrwt>
<rscale>  0 0.92953347E+02</rscale>
<asrwt>0</asrwt>
<pdfrwt beam="2">  1        1 0.31078093E-02 0.92953347E+02</pdfrwt>
<pdfrwt beam="1">  1       -1 0.16450875E-01 0.92953347E+02</pdfrwt>
<totfact> 0.76440486E+04</totfact>
</mgrwt>
</event>
<event>
 5    1  0.3957498E+001  0.9433313E+02  0.7546771E-02  0.1292685E+00
          1   -1    0    0  501    0  0.00000000000E+00  0.00000000000E+00  0.91366300529E+03  0.91366300529E+03  0.00000000000E+00 0. -1.
         -1   -1    0    0    0  501 -0.00000000000E+00 -0.00000000000E+00 -0.24349073505E+01  0.24349073505E+01  0.00000000000E+00 0.  1.
         23    2    1    2    0    0  0.00000000000E+00  0.00000000000E+00  0.91122809794E+03  0.91609791264E+03  0.94333128167E+02 0.  0.
          2    1    3    3  502    0 -0.27245948900E+02 -0.11848695883E+02  0.81136499034E+03  0.81190878852E+03  0.00000000000E+00 0. -1.
         -2    1    3    3    0  502  0.27245948900E+02  0.11848695883E+02  0.99863107592E+02  0.10418912411E+03  0.00000000000E+00 0.  1.
<mgrwt>
<rscale>  0 0.94333128E+02</rscale>
<asrwt>0</asrwt>
<pdfrwt beam="1">  1        1 0.14056327E+00 0.94333128E+02</pdfrwt>
<pdfrwt beam="2">  1       -1 0.37460186E-03 0.94333128E+02</pdfrwt>
<totfact> 0.12684122E+05</totfact>
</mgrwt>
</event>
<event>
 5    1  0.3957498E+001  0.9165970E+02  0.7546771E-02  0.1298882E+00
         -1   -1    0    0    0  501 -0.00000000000E+00  0.00000000000E+00  0.21603189948E+02  0.21603189948E+02  0.00000000000E+00 0.  1.
          1   -1    0    0  501    0  0.00000000000E+00 -0.00000000000E+00 -0.97225236045E+02  0.97225236045E+02  0.00000000000E+00 0. -1.
         23    2    1    2    0    0  0.00000000000E+00  0.00000000000E+00 -0.75622046097E+02  0.11882842599E+03  0.91659701985E+02 0.  0.
          2    1    3    3  502    0  0.30882033270E+02 -0.22014839119E+02 -0.71167344811E+02  0.80642073930E+02  0.00000000000E+00 0. -1.
         -2    1    3    3    0  502 -0.30882033270E+02  0.22014839119E+02 -0.44547012855E+01  0.38186352063E+02  0.00000000000E+00 0.  1.
<mgrwt>
<rscale>  0 0.91659702E+02</rscale>
<asrwt>0</asrwt>
<pdfrwt beam="2">  1        1 0.14957728E-01 0.91659702E+02</pdfrwt>
<pdfrwt beam="1">  1       -1 0.33235678E-02 0.91659702E+02</pdfrwt>
<totfact> 0.10247646E+05</totfact>
</mgrwt>
</event>
<event>
 5    1  0.3957498E+001  0.9033420E+02  0.7546771E-02  0.1302044E+00
          2   -1    0    0  501    0  0.00000000000E+00  0.00000000000E+00  0.19095870552E+04  0.19095870552E+04  0.00000000000E+00 0. -1.
         -2   -1    0    0    0  501 -0.00000000000E+00 -0.00000000000E+00 -0.10683288236E+01  0.10683288236E+01  0.00000000000E+00 0.  1.
         23    2    1    2    0    0  0.00000000000E+00  0.00000000000E+00  0.19085187263E+04  0.19106553840E+04  0.90334199331E+02 0.  0.
          2    1    3    3  502    0  0.42686308017E+02  0.10347228641E+01  0.12657430152E+04  0.12664630165E+04  0.00000000000E+00 0. -1.
         -2    1    3    3    0  502 -0.42686308017E+02 -0.10347228641E+01  0.64277571110E+03  0.64419236748E+03  0.00000000000E+00 0.  1.
<mgrwt>
<rscale>  0 0.90334199E+02</rscale>
<asrwt>0</asrwt>
<pdfrwt beam="1">  1        2 0.29377989E+00 0.90334199E+02</pdfrwt>
<pdfrwt beam="2">  1       -2 0.16435981E-03 0.90334199E+02</pdfrwt>
<totfact> 0.21004302E+05</totfact>
</mgrwt>
</event>
<event>
 5    1  0.3957498E+001  0.9368120E+02  0.7546771E-02  0.1294174E+00
         -2   -1    0    0    0  501 -0.00000000000E+00  0.00000000000E+00  0.16409311518E+02  0.16409311518E+02  0.00000000000E+00 0. -1.
          2   -1    0    0  501    0  0.00000000000E+00 -0.00000000000E+00 -0.13370710989E+03  0.13370710989E+03  0.00000000000E+00 0.  1.
         23    2    1    2    0    0  0.00000000000E+00  0.00000000000E+00 -0.11729779837E+03  0.15011642141E+03  0.93681195944E+02 0.  0.
          2    1    3    3  502    0  0.19618981541E+02  0.37067582703E+02 -0.25222773987E+02  0.48939743069E+02  0.00000000000E+00 0. -1.
         -2    1    3    3    0  502 -0.19618981541E+02 -0.37067582703E+02 -0.92075024386E+02  0.10117667834E+03  0.00000000000E+00 0.  1.
<mgrwt>
<rscale>  0 0.93681196E+02</rscale>
<asrwt>0</asrwt>
<pdfrwt beam="2">  1        2 0.20570325E-01 0.93681196E+02</pdfrwt>
<pdfrwt beam="1">  1       -2 0.25245094E-02 0.93681196E+02</pdfrwt>
<totfact> 0.12492463E+05</totfact>
</mgrwt>
</event>
<event>
 5    1  0.3957498E+001  0.9092429E+02  0.7546771E-02  0.1300629E+00
         -2   -1    0    0    0  501 -0.00000000000E+00  0.00000000000E+00  0.46428091959E+02  0.46428091959E+02  0.00000000000E+00 0.  1.
          2   -1    0    0  501    0  0.00000000000E+00 -0.00000000000E+00 -0.44516296456E+02  0.44516296456E+02  0.00000000000E+00 0. -1.
         23    2    1    2    0    0  0.00000000000E+00  0.00000000000E+00  0.19117955037E+01  0.90944388415E+02  0.90924291705E+02 0.  0.
          2    1    3    3  502    0 -0.19026550280E+02 -0.38783939163E+02 -0.13210676998E+02  0.45174390303E+02  0.00000000000E+00 0. -1.
         -2    1    3    3    0  502  0.19026550280E+02  0.38783939163E+02  0.15122472502E+02  0.45769998111E+02  0.00000000000E+00 0.  1.
<mgrwt>
<rscale>  0 0.90924292E+02</rscale>
<asrwt>0</asrwt>
<pdfrwt beam="2">  1        2 0.68486610E-02 0.90924292E+02</pdfrwt>
<pdfrwt beam="1">  1       -2 0.71427833E-02 0.90924292E+02</pdfrwt>
<totfact> 0.98852229E+04</totfact>
</mgrwt>
</event>
<event>
 5    1  0.3957498E+001  0.9168391E+02  0.7546771E-02  0.1298824E+00
          1   -1    0    0  501    0  0.00000000000E+00  0.00000000000E+00  0.17837534699E+04  0.17837534699E+04  0.00000000000E+00 0. -1.
         -1   -1    0    0    0  501 -0.00000000000E+00 -0.00000000000E+00 -0.11781252418E+01  0.11781252418E+01  0.00000000000E+00 0.  1.
         23    2    1    2    0    0  0.00000000000E+00  0.00000000000E+00  0.17825753446E+04  0.17849315951E+04  0.91683913267E+02 0.  0.
          2    1    3    3  502    0  0.39029460984E+02  0.23094003493E+02  0.10216718785E+04  0.10226778863E+04  0.00000000000E+00 0. -1.
         -2    1    3    3    0  502 -0.39029460984E+02 -0.23094003493E+02  0.76090346616E+03  0.76225370883E+03  0.00000000000E+00 0.  1.
<mgrwt>
<rscale>  0 0.91683913E+02</rscale>
<asrwt>0</asrwt>
<pdfrwt beam="1">  1        1 0.27442145E+00 0.91683913E+02</pdfrwt>
<pdfrwt beam="2">  1       -1 0.18125146E-03 0.91683913E+02</pdfrwt>
<totfact> 0.91630314E+04</totfact>
</mgrwt>
</event>
<event>
 5    1  0.3957498E+001  0.8934166E+02  0.7546771E-02  0.1304454E+00
          2   -1    0    0  501    0  0.00000000000E+00  0.00000000000E+00  0.12013000161E+03  0.12013000161E+03  0.00000000000E+00 0. -1.
         -2   -1    0    0    0  501 -0.00000000000E+00 -0.00000000000E+00 -0.16611028738E+02  0.16611028738E+02  0.00000000000E+00 0.  1.
         23    2    1    2    0    0  0.00000000000E+00  0.00000000000E+00  0.10351897287E+03  0.13674103035E+03  0.89341656781E+02 0.  0.
          2    1    3    3  502    0 -0.24371520026E+02  0.37307506381E+02  0.56516954195E+02  0.71972127467E+02  0.00000000000E+00 0. -1.
         -2    1    3    3    0  502  0.24371520026E+02 -0.37307506381E+02  0.47002018677E+02  0.64768902881E+02  0.00000000000E+00 0.  1.
<mgrwt>
<rscale>  0 0.89341657E+02</rscale>
<asrwt>0</asrwt>
<pdfrwt beam="1">  1        2 0.18481538E-01 0.89341657E+02</pdfrwt>
<pdfrwt beam="2">  1       -2 0.25555430E-02 0.89341657E+02</pdfrwt>
<totfact> 0.13731860E+05</totfact>
</mgrwt>
</event>
<event>
 5    1  0.3957498E+001  0.1040637E+03  0.7546771E-02  0.1271975E+00
          1   -1    0    0  501    0  0.00000000000E+00  0.00000000000E+00  0.56659272900E+03  0.56659272900E+03  0.00000000000E+00 0. -1.
         -1   -1    0    0    0  501 -0.00000000000E+00 -0.00000000000E+00 -0.47782394458E+01  0.47782394458E+01  0.00000000000E+00 0.  1.
         23    2    1    2    0    0  0.00000000000E+00  0.00000000000E+00  0.56181448956E+03  0.57137096845E+03  0.10406374445E+03 0.  0.
          2    1    3    3  502    0  0.36917561089E+02  0.12029668725E+02  0.90731811805E+02  0.98690835034E+02  0.00000000000E+00 0. -1.
         -2    1    3    3    0  502 -0.36917561089E+02 -0.12029668725E+02  0.47108267775E+03  0.47268013342E+03  0.00000000000E+00 0.  1.
<mgrwt>
<rscale>  0 0.10406374E+03</rscale>
<asrwt>0</asrwt>
<pdfrwt beam="1">  1        1 0.87168059E-01 0.10406374E+03</pdfrwt>
<pdfrwt beam="2">  1       -1 0.73511421E-03 0.10406374E+03</pdfrwt>
<totfact> 0.99142427E+04</totfact>
</mgrwt>
</event>
<event>
 5    1  0.3957498E+001  0.9307768E+02  0.7546771E-02  0.1295565E+00
         -1   -1    0    0    0  501 -0.00000000000E+00  0.00000000000E+00  0.14738254139E+02  0.14738254139E+02  0.00000000000E+00 0.  1.
          1   -1    0    0  501    0  0.00000000000E+00 -0.00000000000E+00 -0.14695523456E+03  0.14695523456E+03  0.00000000000E+00 0. -1.
         23    2    1    2    0    0  0.00000000000E+00  0.00000000000E+00 -0.13221698043E+03  0.16169348870E+03  0.93077679260E+02 0.  0.
          2    1    3    3  502    0  0.13893607328E+02  0.42599107587E+02 -0.87954789507E+02  0.98710492295E+02  0.00000000000E+00 0. -1.
         -2    1    3    3    0  502 -0.13893607328E+02 -0.42599107587E+02 -0.44262190918E+02  0.62982996409E+02  0.00000000000E+00 0.  1.
<mgrwt>
<rscale>  0 0.93077679E+02</rscale>
<asrwt>0</asrwt>
<pdfrwt beam="2">  1        1 0.22608498E-01 0.93077679E+02</pdfrwt>
<pdfrwt beam="1">  1       -1 0.22674237E-02 0.93077679E+02</pdfrwt>
<totfact> 0.10564846E+05</totfact>
</mgrwt>
</event>
<event>
 5    1  0.3957498E+001  0.8829505E+02  0.7546771E-02  0.1307034E+00
          1   -1    0    0  501    0  0.00000000000E+00  0.00000000000E+00  0.11557019848E+03  0.11557019848E+03  0.00000000000E+00 0. -1.
         -1   -1    0    0    0  501 -0.00000000000E+00 -0.00000000000E+00 -0.16864243752E+02  0.16864243752E+02  0.00000000000E+00 0.  1.
         23    2    1    2    0    0  0.00000000000E+00  0.00000000000E+00  0.98705954726E+02  0.13243444223E+03  0.88295050769E+02 0.  0.
          2    1    3    3  502    0 -0.71368294029E+01  0.42080087822E+02  0.66278417474E+02  0.78832079434E+02  0.00000000000E+00 0. -1.
         -2    1    3    3    0  502  0.71368294029E+01 -0.42080087822E+02  0.32427537252E+02  0.53602362796E+02  0.00000000000E+00 0.  1.
<mgrwt>
<rscale>  0 0.88295051E+02</rscale>
<asrwt>0</asrwt>
<pdfrwt beam="1">  1        1 0.17780030E-01 0.88295051E+02</pdfrwt>
<pdfrwt beam="2">  1       -1 0.25944991E-02 0.88295051E+02</pdfrwt>
<totfact> 0.11676378E+05</totfact>
</mgrwt>
</event>
<event>
 5    1  0.3957498E+001  0.8773835E+02  0.7546771E-02  0.1308423E+00
         -1   -1    0    0    0  501 -0.00000000000E+00  0.00000000000E+00  0.15102251492E+01  0.15102251492E+01  0.00000000000E+00 0.  1.
          1   -1    0    0  501    0  0.00000000000E+00 -0.00000000000E+00 -0.12743163358E+04  0.12743163358E+04  0.00000000000E+00 0. -1.
         23    2    1    2    0    0  0.00000000000E+00  0.00000000000E+00 -0.12728061106E+04  0.12758265609E+04  0.87738351437E+02 0.  0.
          2    1    3    3  502    0 -0.27459906409E+02 -0.25410648191E+02 -0.30329792509E+03  0.30559675860E+03  0.00000000000E+00 0.  1.
         -2    1    3    3    0  502  0.27459906409E+02  0.25410648191E+02 -0.96950818552E+03  0.97022980231E+03  0.00000000000E+00 0. -1.
<mgrwt>
<rscale>  0 0.87738351E+02</rscale>
<asrwt>0</asrwt>
<pdfrwt beam="2">  1        1 0.19604845E+00 0.87738351E+02</pdfrwt>
<pdfrwt beam="1">  1       -1 0.23234259E-03 0.87738351E+02</pdfrwt>
<totfact> 0.13664984E+05</totfact>
</mgrwt>
</event>
<event>
 5    1  0.3957498E+001  0.9148127E+02  0.7546771E-02  0.1299304E+00
          2   -1    0    0  501    0  0.00000000000E+00  0.00000000000E+00  0.96760371396E+01  0.96760371396E+01  0.00000000000E+00 0. -1.
         -2   -1    0    0    0  501 -0.00000000000E+00 -0.00000000000E+00 -0.21622546065E+03  0.21622546065E+03  0.00000000000E+00 0.  1.
         23    2    1    2    0    0  0.00000000000E+00  0.00000000000E+00 -0.20654942351E+03  0.22590149779E+03  0.91481267760E+02 0.  0.
          2    1    3    3  502    0 -0.32689700997E+01 -0.45473353803E+02 -0.94136853339E+02  0.10459569412E+03  0.00000000000E+00 0. -1.
         -2    1    3    3    0  502  0.32689700997E+01  0.45473353803E+02 -0.11241257017E+03  0.12130580367E+03  0.00000000000E+00 0.  1.
<mgrwt>
<rscale>  0 0.91481268E+02</rscale>
<asrwt>0</asrwt>
<pdfrwt beam="1">  1        2 0.14886210E-02 0.91481268E+02</pdfrwt>
<pdfrwt beam="2">  1       -2 0.33265457E-01 0.91481268E+02</pdfrwt>
<totfact> 0.59687445E+04</totfact>
</mgrwt>
</event>
<event>
 5    1  0.3957498E+001  0.9191702E+02  0.7546771E-02  0.1298275E+00
          1   -1    0    0  501    0  0.00000000000E+00  0.00000000000E+00  0.12379583822E+03  0.12379583822E+03  0.00000000000E+00 0. -1.
         -1   -1    0    0    0  501 -0.00000000000E+00 -0.00000000000E+00 -0.17061837790E+02  0.17061837790E+02  0.00000000000E+00 0.  1.
         23    2    1    2    0    0  0.00000000000E+00  0.00000000000E+00  0.10673400043E+03  0.14085767601E+03  0.91917017159E+02 0.  0.
          2    1    3    3  502    0  0.37592889486E+02 -0.25973561843E+02  0.60926354679E+02  0.76156890359E+02  0.00000000000E+00 0. -1.
         -2    1    3    3    0  502 -0.37592889486E+02  0.25973561843E+02  0.45807645754E+02  0.64700785654E+02  0.00000000000E+00 0.  1.
<mgrwt>
<rscale>  0 0.91917017E+02</rscale>
<asrwt>0</asrwt>
<pdfrwt beam="1">  1        1 0.19045513E-01 0.91917017E+02</pdfrwt>
<pdfrwt beam="2">  1       -1 0.26248982E-02 0.91917017E+02</pdfrwt>
<totfact> 0.10597565E+05</totfact>
</mgrwt>
</event>
<event>
 5    1  0.3957498E+001  0.9199377E+02  0.7546771E-02  0.1298094E+00
         -1   -1    0    0    0  501 -0.00000000000E+00  0.00000000000E+00  0.48165417135E+02  0.48165417135E+02  0.00000000000E+00 0.  1.
          1   -1    0    0  501    0  0.00000000000E+00 -0.00000000000E+00 -0.43925984206E+02  0.43925984206E+02  0.00000000000E+00 0. -1.
         23    2    1    2    0    0  0.00000000000E+00  0.00000000000E+00  0.42394329286E+01  0.92091401342E+02  0.91993768319E+02 0.  0.
          2    1    3    3  502    0 -0.14083523554E+02  0.43442787854E+02  0.76111468023E+01  0.46298498981E+02  0.00000000000E+00 0.  1.
         -2    1    3    3    0  502  0.14083523554E+02 -0.43442787854E+02 -0.33717138737E+01  0.45792902361E+02  0.00000000000E+00 0. -1.
<mgrwt>
<rscale>  0 0.91993768E+02</rscale>
<asrwt>0</asrwt>
<pdfrwt beam="2">  1        1 0.67578437E-02 0.91993768E+02</pdfrwt>
<pdfrwt beam="1">  1       -1 0.74100642E-02 0.91993768E+02</pdfrwt>
<totfact> 0.89675129E+04</totfact>
</mgrwt>
</event>
<event>
 5    1  0.3957498E+001  0.9204502E+02  0.7546771E-02  0.1297974E+00
         -2   -1    0    0    0  501 -0.00000000000E+00  0.00000000000E+00  0.11800681342E+01  0.11800681342E+01  0.00000000000E+00 0.  1.
          2   -1    0    0  501    0  0.00000000000E+00 -0.00000000000E+00 -0.17948723334E+04  0.17948723334E+04  0.00000000000E+00 0. -1.
         23    2    1    2    0    0  0.00000000000E+00  0.00000000000E+00 -0.17936922652E+04  0.17960524015E+04  0.92045024754E+02 0.  0.
          2    1    3    3  502    0  0.10323271936E+02  0.38185975205E+02 -0.13558453767E+04  0.13564222883E+04  0.00000000000E+00 0. -1.
         -2    1    3    3    0  502 -0.10323271936E+02 -0.38185975205E+02 -0.43784688850E+03  0.43963011318E+03  0.00000000000E+00 0.  1.
<mgrwt>
<rscale>  0 0.92045025E+02</rscale>
<asrwt>0</asrwt>
<pdfrwt beam="2">  1        2 0.27613646E+00 0.92045025E+02</pdfrwt>
<pdfrwt beam="1">  1       -2 0.18154746E-03 0.92045025E+02</pdfrwt>
<totfact> 0.20944756E+05</totfact>
</mgrwt>
</event>
<event>
 5    1  0.3957498E+001  0.9402091E+02  0.7546771E-02  0.1293397E+00
         -2   -1    0    0    0  501 -0.00000000000E+00  0.00000000000E+00  0.98062923626E+02  0.98062923626E+02  0.00000000000E+00 0.  1.
          2   -1    0    0  501    0  0.00000000000E+00 -0.00000000000E+00 -0.22536374842E+02  0.22536374842E+02  0.00000000000E+00 0. -1.
         23    2    1    2    0    0  0.00000000000E+00  0.00000000000E+00  0.75526548784E+02  0.12059929847E+03  0.94020908419E+02 0.  0.
          2    1    3    3  502    0 -0.73814392977E+01 -0.44280616291E+02  0.19864212075E+02  0.49090177700E+02  0.00000000000E+00 0. -1.
         -2    1    3    3    0  502  0.73814392977E+01  0.44280616291E+02  0.55662336708E+02  0.71509120768E+02  0.00000000000E+00 0.  1.
<mgrwt>
<rscale>  0 0.94020908E+02</rscale>
<asrwt>0</asrwt>
<pdfrwt beam="2">  1        2 0.34671346E-02 0.94020908E+02</pdfrwt>
<pdfrwt beam="1">  1       -2 0.15086603E-01 0.94020908E+02</pdfrwt>
<totfact> 0.74367422E+04</totfact>
</mgrwt>
</event>
<event>
 5    1  0.3957498E+001  0.7996358E+02  0.7546771E-02  0.1329155E+00
         -1   -1    0    0    0  501 -0.00000000000E+00  0.00000000000E+00  0.70133030750E+01  0.70133030750E+01  0.00000000000E+00 0.  1.
          1   -1    0    0  501    0  0.00000000000E+00 -0.00000000000E+00 -0.22793017700E+03  0.22793017700E+03  0.00000000000E+00 0. -1.
         23    2    1    2    0    0  0.00000000000E+00  0.00000000000E+00 -0.22091687393E+03  0.23494348008E+03  0.79963576990E+02 0.  0.
          2    1    3    3  502    0 -0.27984632249E+02  0.17964927045E+02 -0.17567337896E+03  0.17879321665E+03  0.00000000000E+00 0. -1.
         -2    1    3    3    0  502  0.27984632249E+02 -0.17964927045E+02 -0.45243494970E+02  0.56150263427E+02  0.00000000000E+00 0.  1.
<mgrwt>
<rscale>  0 0.79963577E+02</rscale>
<asrwt>0</asrwt>
<pdfrwt beam="2">  1        1 0.35066182E-01 0.79963577E+02</pdfrwt>
<pdfrwt beam="1">  1       -1 0.10789697E-02 0.79963577E+02</pdfrwt>
<totfact> 0.17210215E+05</totfact>
</mgrwt>
</event>
<event>
 5    1  0.3957498E+001  0.9024272E+02  0.7546771E-02  0.1302265E+00
          1   -1    0    0  501    0  0.00000000000E+00  0.00000000000E+00  0.61323505903E+03  0.61323505903E+03  0.00000000000E+00 0. -1.
         -1   -1    0    0    0  501 -0.00000000000E+00 -0.00000000000E+00 -0.33199949451E+01  0.33199949451E+01  0.00000000000E+00 0.  1.
         23    2    1    2    0    0  0.00000000000E+00  0.00000000000E+00  0.60991506409E+03  0.61655505398E+03  0.90242723721E+02 0.  0.
          2    1    3    3  502    0 -0.26490960091E+02  0.27247003209E+02  0.47115909067E+03  0.47268917787E+03  0.00000000000E+00 0.  1.
         -2    1    3    3    0  502  0.26490960091E+02 -0.27247003209E+02  0.13875597342E+03  0.14386587611E+03  0.00000000000E+00 0. -1.
<mgrwt>
<rscale>  0 0.90242724E+02</rscale>
<asrwt>0</asrwt>
<pdfrwt beam="1">  1        1 0.94343765E-01 0.90242724E+02</pdfrwt>
<pdfrwt beam="2">  1       -1 0.51076894E-03 0.90242724E+02</pdfrwt>
<totfact> 0.14567261E+05</totfact>
</mgrwt>
</event>
<event>
 5    1  0.3957498E+001  0.9162772E+02  0.7546771E-02  0.1298957E+00
          2   -1    0    0  501    0  0.00000000000E+00  0.00000000000E+00  0.97087533864E+03  0.97087533864E+03  0.00000000000E+00 0. -1.
         -2   -1    0    0    0  501 -0.00000000000E+00 -0.00000000000E+00 -0.21618735767E+01  0.21618735767E+01  0.00000000000E+00 0.  1.
         23    2    1    2    0    0  0.00000000000E+00  0.00000000000E+00  0.96871346506E+03  0.97303721222E+03  0.91627719406E+02 0.  0.
          2    1    3    3  502    0  0.62814199675E+01  0.33011470256E+02  0.15366719902E+03  0.15729851067E+03  0.00000000000E+00 0.  1.
         -2    1    3    3    0  502 -0.62814199675E+01 -0.33011470256E+02  0.81504626605E+03  0.81573870155E+03  0.00000000000E+00 0. -1.
<mgrwt>
<rscale>  0 0.91627719E+02</rscale>
<asrwt>0</asrwt>
<pdfrwt beam="1">  1        2 0.14936509E+00 0.91627719E+02</pdfrwt>
<pdfrwt beam="2">  1       -2 0.33259671E-03 0.91627719E+02</pdfrwt>
<totfact> 0.24639370E+05</totfact>
</mgrwt>
</event>
<event>
 5    1  0.3957498E+001  0.9218732E+02  0.7546771E-02  0.1297640E+00
          2   -1    0    0  501    0  0.00000000000E+00  0.00000000000E+00  0.40352461791E+02  0.40352461791E+02  0.00000000000E+00 0. -1.
         -2   -1    0    0    0  501 -0.00000000000E+00 -0.00000000000E+00 -0.52651700233E+02  0.52651700233E+02  0.00000000000E+00 0.  1.
         23    2    1    2    0    0  0.00000000000E+00  0.00000000000E+00 -0.12299238443E+02  0.93004162024E+02  0.92187324983E+02 0.  0.
          2    1    3    3  502    0  0.44592852406E+02 -0.26543150480E+01  0.53114036750E+01  0.44986429988E+02  0.00000000000E+00 0. -1.
         -2    1    3    3    0  502 -0.44592852406E+02  0.26543150480E+01 -0.17610642118E+02  0.48017732036E+02  0.00000000000E+00 0.  1.
<mgrwt>
<rscale>  0 0.92187325E+02</rscale>
<asrwt>0</asrwt>
<pdfrwt beam="1">  1        2 0.62080711E-02 0.92187325E+02</pdfrwt>
<pdfrwt beam="2">  1       -2 0.81002616E-02 0.92187325E+02</pdfrwt>
<totfact> 0.92596751E+04</totfact>
</mgrwt>
</event>
<event>
 5    1  0.3957498E+001  0.9132482E+02  0.7546771E-02  0.1299675E+00
          1   -1    0    0  501    0  0.00000000000E+00  0.00000000000E+00  0.13663604391E+04  0.13663604391E+04  0.00000000000E+00 0. -1.
         -1   -1    0    0    0  501 -0.00000000000E+00 -0.00000000000E+00 -0.15259925248E+01  0.15259925248E+01  0.00000000000E+00 0.  1.
         23    2    1    2    0    0  0.00000000000E+00  0.00000000000E+00  0.13648344465E+04  0.13678864316E+04  0.91324822830E+02 0.  0.
          2    1    3    3  502    0  0.15919630723E+02 -0.42700591384E+02  0.63931557049E+03  0.64093773006E+03  0.00000000000E+00 0.  1.
         -2    1    3    3    0  502 -0.15919630723E+02  0.42700591384E+02  0.72551887604E+03  0.72694870152E+03  0.00000000000E+00 0. -1.
<mgrwt>
<rscale>  0 0.91324823E+02</rscale>
<asrwt>0</asrwt>
<pdfrwt beam="1">  1        1 0.21020832E+00 0.91324823E+02</pdfrwt>
<pdfrwt beam="2">  1       -1 0.23476917E-03 0.91324823E+02</pdfrwt>
<totfact> 0.11785897E+05</totfact>
</mgrwt>
</event>
<event>
 5    1  0.3957498E+001  0.9252182E+02  0.7546771E-02  0.1296857E+00
          1   -1    0    0  501    0  0.00000000000E+00  0.00000000000E+00  0.11622496986E+01  0.11622496986E+01  0.00000000000E+00 0. -1.
         -1   -1    0    0    0  501 -0.00000000000E+00 -0.00000000000E+00 -0.18413185488E+04  0.18413185488E+04  0.00000000000E+00 0.  1.
         23    2    1    2    0    0  0.00000000000E+00  0.00000000000E+00 -0.18401562991E+04  0.18424807985E+04  0.92521822903E+02 0.  0.
          2    1    3    3  502    0 -0.19433302021E+02 -0.41046995991E+02 -0.74469591948E+03  0.74607943384E+03  0.00000000000E+00 0. -1.
         -2    1    3    3    0  502  0.19433302021E+02  0.41046995991E+02 -0.10954603796E+04  0.10964013646E+04  0.00000000000E+00 0.  1.
<mgrwt>
<rscale>  0 0.92521823E+02</rscale>
<asrwt>0</asrwt>
<pdfrwt beam="1">  1        1 0.17880992E-03 0.92521823E+02</pdfrwt>
<pdfrwt beam="2">  1       -1 0.28327617E+00 0.92521823E+02</pdfrwt>
<totfact> 0.84042419E+03</totfact>
</mgrwt>
</event>
<event>
 5    1  0.3957498E+001  0.7670769E+02  0.7546771E-02  0.1338663E+00
         -1   -1    0    0    0  501 -0.00000000000E+00  0.00000000000E+00  0.12365951091E+01  0.12365951091E+01  0.00000000000E+00 0.  1.
          1   -1    0    0  501    0  0.00000000000E+00 -0.00000000000E+00 -0.11895707488E+04  0.11895707488E+04  0.00000000000E+00 0. -1.
         23    2    1    2    0    0  0.00000000000E+00  0.00000000000E+00 -0.11883341537E+04  0.11908073439E+04  0.76707688529E+02 0.  0.
          2    1    3    3  502    0 -0.37396878574E+01  0.36243316358E+02 -0.40823294209E+03  0.40985570419E+03  0.00000000000E+00 0. -1.
         -2    1    3    3    0  502  0.37396878574E+01 -0.36243316358E+02 -0.78010121156E+03  0.78095163968E+03  0.00000000000E+00 0.  1.
<mgrwt>
<rscale>  0 0.76707689E+02</rscale>
<asrwt>0</asrwt>
<pdfrwt beam="2">  1        1 0.18301118E+00 0.76707689E+02</pdfrwt>
<pdfrwt beam="1">  1       -1 0.19024509E-03 0.76707689E+02</pdfrwt>
<totfact> 0.20109572E+05</totfact>
</mgrwt>
</event>
<event>
 5    1  0.3957498E+001  0.9328565E+02  0.7546771E-02  0.1295085E+00
          4   -1    0    0  501    0  0.00000000000E+00  0.00000000000E+00  0.59232509676E+01  0.59232509676E+01  0.00000000000E+00 0. -1.
         -4   -1    0    0    0  501 -0.00000000000E+00 -0.00000000000E+00 -0.36729035042E+03  0.36729035042E+03  0.00000000000E+00 0.  1.
         23    2    1    2    0    0  0.00000000000E+00  0.00000000000E+00 -0.36136709945E+03  0.37321360139E+03  0.93285645702E+02 0.  0.
          2    1    3    3  502    0  0.35759813896E+02  0.28547981928E+02 -0.14449902216E+03  0.15157083812E+03  0.00000000000E+00 0. -1.
         -2    1    3    3    0  502 -0.35759813896E+02 -0.28547981928E+02 -0.21686807729E+03  0.22164276327E+03  0.00000000000E+00 0.  1.
<mgrwt>
<rscale>  0 0.93285646E+02</rscale>
<asrwt>0</asrwt>
<pdfrwt beam="1">  1        4 0.91126921E-03 0.93285646E+02</pdfrwt>
<pdfrwt beam="2">  1       -4 0.56506218E-01 0.93285646E+02</pdfrwt>
<totfact> 0.14866839E+04</totfact>
</mgrwt>
</event>
<event>
 5    1  0.3957498E+001  0.8898296E+02  0.7546771E-02  0.1305333E+00
         -2   -1    0    0    0  501 -0.00000000000E+00  0.00000000000E+00  0.82177497010E+02  0.82177497010E+02  0.00000000000E+00 0.  1.
          2   -1    0    0  501    0  0.00000000000E+00 -0.00000000000E+00 -0.24088000485E+02  0.24088000485E+02  0.00000000000E+00 0. -1.
         23    2    1    2    0    0  0.00000000000E+00  0.00000000000E+00  0.58089496526E+02  0.10626549749E+03  0.88982955397E+02 0.  0.
          2    1    3    3  502    0 -0.40858202711E+01  0.28807014794E+02 -0.11152054227E+02  0.31159370053E+02  0.00000000000E+00 0. -1.
         -2    1    3    3    0  502  0.40858202711E+01 -0.28807014794E+02  0.69241550753E+02  0.75106127442E+02  0.00000000000E+00 0.  1.
<mgrwt>
<rscale>  0 0.88982955E+02</rscale>
<asrwt>0</asrwt>
<pdfrwt beam="2">  1        2 0.37058463E-02 0.88982955E+02</pdfrwt>
<pdfrwt beam="1">  1       -2 0.12642692E-01 0.88982955E+02</pdfrwt>
<totfact> 0.89661638E+04</totfact>
</mgrwt>
</event>
<event>
 5    1  0.3957498E+001  0.9744669E+02  0.7546771E-02  0.1285759E+00
         -1   -1    0    0    0  501 -0.00000000000E+00  0.00000000000E+00  0.16838906856E+03  0.16838906856E+03  0.00000000000E+00 0. -1.
          1   -1    0    0  501    0  0.00000000000E+00 -0.00000000000E+00 -0.14098091866E+02  0.14098091866E+02  0.00000000000E+00 0.  1.
         23    2    1    2    0    0  0.00000000000E+00  0.00000000000E+00  0.15429097670E+03  0.18248716043E+03  0.97446694308E+02 0.  0.
          2    1    3    3  502    0 -0.45688066696E+02 -0.10604067487E+02  0.10185636342E+03  0.11213636544E+03  0.00000000000E+00 0. -1.
         -2    1    3    3    0  502  0.45688066696E+02  0.10604067487E+02  0.52434613277E+02  0.70350794986E+02  0.00000000000E+00 0.  1.
<mgrwt>
<rscale>  0 0.97446694E+02</rscale>
<asrwt>0</asrwt>
<pdfrwt beam="2">  1        1 0.21689373E-02 0.97446694E+02</pdfrwt>
<pdfrwt beam="1">  1       -1 0.25906009E-01 0.97446694E+02</pdfrwt>
<totfact> 0.61142961E+04</totfact>
</mgrwt>
</event>
<event>
 5    1  0.3957498E+001  0.8694545E+02  0.7546771E-02  0.1310422E+00
          1   -1    0    0  501    0  0.00000000000E+00  0.00000000000E+00  0.11299831318E+03  0.11299831318E+03  0.00000000000E+00 0. -1.
         -1   -1    0    0    0  501 -0.00000000000E+00 -0.00000000000E+00 -0.16724831252E+02  0.16724831252E+02  0.00000000000E+00 0.  1.
         23    2    1    2    0    0  0.00000000000E+00  0.00000000000E+00  0.96273481924E+02  0.12972314443E+03  0.86945447717E+02 0.  0.
          2    1    3    3  502    0  0.34073978993E+02 -0.12350237119E+02  0.12318855192E+02  0.38279480072E+02  0.00000000000E+00 0. -1.
         -2    1    3    3    0  502 -0.34073978993E+02  0.12350237119E+02  0.83954626732E+02  0.91443664357E+02  0.00000000000E+00 0.  1.
<mgrwt>
<rscale>  0 0.86945448E+02</rscale>
<asrwt>0</asrwt>
<pdfrwt beam="1">  1        1 0.17384355E-01 0.86945448E+02</pdfrwt>
<pdfrwt beam="2">  1       -1 0.25730510E-02 0.86945448E+02</pdfrwt>
<totfact> 0.12126088E+05</totfact>
</mgrwt>
</event>
<event>
 5    1  0.3957498E+001  0.1056462E+03  0.7546771E-02  0.1268852E+00
          2   -1    0    0  501    0  0.00000000000E+00  0.00000000000E+00  0.14781107414E+03  0.14781107414E+03  0.00000000000E+00 0. -1.
         -2   -1    0    0    0  501 -0.00000000000E+00 -0.00000000000E+00 -0.18877337807E+02  0.18877337807E+02  0.00000000000E+00 0.  1.
         23    2    1    2    0    0  0.00000000000E+00  0.00000000000E+00  0.12893373633E+03  0.16668841195E+03  0.10564619403E+03 0.  0.
          2    1    3    3  502    0 -0.26816080012E+02 -0.45488283584E+02  0.62239159919E+02  0.81621070307E+02  0.00000000000E+00 0. -1.
         -2    1    3    3    0  502  0.26816080012E+02  0.45488283584E+02  0.66694576414E+02  0.85067341640E+02  0.00000000000E+00 0.  1.
<mgrwt>
<rscale>  0 0.10564619E+03</rscale>
<asrwt>0</asrwt>
<pdfrwt beam="1">  1        2 0.22740165E-01 0.10564619E+03</pdfrwt>
<pdfrwt beam="2">  1       -2 0.29042059E-02 0.10564619E+03</pdfrwt>
<totfact> 0.92872196E+04</totfact>
</mgrwt>
</event>
<event>
 5    1  0.3957498E+001  0.9454967E+02  0.7546771E-02  0.1292194E+00
          1   -1    0    0  501    0  0.00000000000E+00  0.00000000000E+00  0.11263826037E+02  0.11263826037E+02  0.00000000000E+00 0. -1.
         -1   -1    0    0    0  501 -0.00000000000E+00 -0.00000000000E+00 -0.19841481125E+03  0.19841481125E+03  0.00000000000E+00 0.  1.
         23    2    1    2    0    0  0.00000000000E+00  0.00000000000E+00 -0.18715098522E+03  0.20967863729E+03  0.94549667732E+02 0.  0.
          2    1    3    3  502    0  0.15158947288E+02 -0.36530555113E+02 -0.15100528073E+03  0.15609891078E+03  0.00000000000E+00 0. -1.
         -2    1    3    3    0  502 -0.15158947288E+02  0.36530555113E+02 -0.36145704493E+02  0.53579726511E+02  0.00000000000E+00 0.  1.
<mgrwt>
<rscale>  0 0.94549668E+02</rscale>
<asrwt>0</asrwt>
<pdfrwt beam="1">  1        1 0.17328963E-02 0.94549668E+02</pdfrwt>
<pdfrwt beam="2">  1       -1 0.30525356E-01 0.94549668E+02</pdfrwt>
<totfact> 0.63288859E+04</totfact>
</mgrwt>
</event>
<event>
 5    1  0.3957498E+001  0.8883324E+02  0.7546771E-02  0.1305702E+00
          1   -1    0    0  501    0  0.00000000000E+00  0.00000000000E+00  0.97590161379E+03  0.97590161379E+03  0.00000000000E+00 0. -1.
         -1   -1    0    0    0  501 -0.00000000000E+00 -0.00000000000E+00 -0.20215520951E+01  0.20215520951E+01  0.00000000000E+00 0.  1.
         23    2    1    2    0    0  0.00000000000E+00  0.00000000000E+00  0.97388006169E+03  0.97792316588E+03  0.88833235942E+02 0.  0.
          2    1    3    3  502    0  0.22977993034E+02  0.15205952943E+02  0.87044573490E+03  0.87088172938E+03  0.00000000000E+00 0. -1.
         -2    1    3    3    0  502 -0.22977993034E+02 -0.15205952943E+02  0.10343432679E+03  0.10704143650E+03  0.00000000000E+00 0.  1.
<mgrwt>
<rscale>  0 0.88833236E+02</rscale>
<asrwt>0</asrwt>
<pdfrwt beam="1">  1        1 0.15013833E+00 0.88833236E+02</pdfrwt>
<pdfrwt beam="2">  1       -1 0.31100879E-03 0.88833236E+02</pdfrwt>
<totfact> 0.14660237E+05</totfact>
</mgrwt>
</event>
<event>
 5    1  0.3957498E+001  0.9021003E+02  0.7546771E-02  0.1302344E+00
         -1   -1    0    0    0  501 -0.00000000000E+00  0.00000000000E+00  0.15054313721E+03  0.15054313721E+03  0.00000000000E+00 0.  1.
          1   -1    0    0  501    0  0.00000000000E+00 -0.00000000000E+00 -0.13514149337E+02  0.13514149337E+02  0.00000000000E+00 0. -1.
         23    2    1    2    0    0  0.00000000000E+00  0.00000000000E+00  0.13702898787E+03  0.16405728655E+03  0.90210031324E+02 0.  0.
          2    1    3    3  502    0  0.14945094591E+02 -0.39553095647E+02  0.97076542872E+02  0.10588511890E+03  0.00000000000E+00 0. -1.
         -2    1    3    3    0  502 -0.14945094591E+02  0.39553095647E+02  0.39952445000E+02  0.58172167650E+02  0.00000000000E+00 0.  1.
<mgrwt>
<rscale>  0 0.90210031E+02</rscale>
<asrwt>0</asrwt>
<pdfrwt beam="2">  1        1 0.20791000E-02 0.90210031E+02</pdfrwt>
<pdfrwt beam="1">  1       -1 0.23160482E-01 0.90210031E+02</pdfrwt>
<totfact> 0.76819741E+04</totfact>
</mgrwt>
</event>
<event>
 5    1  0.3957498E+001  0.9112659E+02  0.7546771E-02  0.1300146E+00
          2   -1    0    0  501    0  0.00000000000E+00  0.00000000000E+00  0.87820235135E+03  0.87820235135E+03  0.00000000000E+00 0. -1.
         -2   -1    0    0    0  501 -0.00000000000E+00 -0.00000000000E+00 -0.23639354926E+01  0.23639354926E+01  0.00000000000E+00 0.  1.
         23    2    1    2    0    0  0.00000000000E+00  0.00000000000E+00  0.87583841586E+03  0.88056628684E+03  0.91126586856E+02 0.  0.
          2    1    3    3  502    0 -0.29535957453E+02 -0.58254396982E+01  0.76840679799E+03  0.76899630411E+03  0.00000000000E+00 0. -1.
         -2    1    3    3    0  502  0.29535957453E+02  0.58254396982E+01  0.10743161786E+03  0.11156998273E+03  0.00000000000E+00 0.  1.
<mgrwt>
<rscale>  0 0.91126587E+02</rscale>
<asrwt>0</asrwt>
<pdfrwt beam="1">  1        2 0.13510779E+00 0.91126587E+02</pdfrwt>
<pdfrwt beam="2">  1       -2 0.36368308E-03 0.91126587E+02</pdfrwt>
<totfact> 0.24757495E+05</totfact>
</mgrwt>
</event>
<event>
 5    1  0.3957498E+001  0.9169377E+02  0.7546771E-02  0.1298801E+00
         -2   -1    0    0    0  501 -0.00000000000E+00  0.00000000000E+00  0.14643291706E+01  0.14643291706E+01  0.00000000000E+00 0.  1.
          2   -1    0    0  501    0  0.00000000000E+00 -0.00000000000E+00 -0.14354263232E+04  0.14354263232E+04  0.00000000000E+00 0. -1.
         23    2    1    2    0    0  0.00000000000E+00  0.00000000000E+00 -0.14339619940E+04  0.14368906524E+04  0.91693765051E+02 0.  0.
          2    1    3    3  502    0  0.33972910497E+02 -0.30554066759E+02 -0.77608821117E+03  0.77743206852E+03  0.00000000000E+00 0. -1.
         -2    1    3    3    0  502 -0.33972910497E+02  0.30554066759E+02 -0.65787378288E+03  0.65945858387E+03  0.00000000000E+00 0.  1.
<mgrwt>
<rscale>  0 0.91693765E+02</rscale>
<asrwt>0</asrwt>
<pdfrwt beam="2">  1        2 0.22083554E+00 0.91693765E+02</pdfrwt>
<pdfrwt beam="1">  1       -2 0.22528067E-03 0.91693765E+02</pdfrwt>
<totfact> 0.23605399E+05</totfact>
</mgrwt>
</event>
<event>
 5    1  0.3957498E+001  0.8342226E+02  0.7546771E-02  0.1319611E+00
          1   -1    0    0  501    0  0.00000000000E+00  0.00000000000E+00  0.88560998229E+01  0.88560998229E+01  0.00000000000E+00 0. -1.
         -1   -1    0    0    0  501 -0.00000000000E+00 -0.00000000000E+00 -0.19645422348E+03  0.19645422348E+03  0.00000000000E+00 0.  1.
         23    2    1    2    0    0  0.00000000000E+00  0.00000000000E+00 -0.18759812366E+03  0.20531032330E+03  0.83422256353E+02 0.  0.
          2    1    3    3  502    0 -0.12555809501E+02 -0.38584005957E+02 -0.70008463275E+02  0.80916987080E+02  0.00000000000E+00 0. -1.
         -2    1    3    3    0  502  0.12555809501E+02  0.38584005957E+02 -0.11758966038E+03  0.12439333622E+03  0.00000000000E+00 0.  1.
<mgrwt>
<rscale>  0 0.83422256E+02</rscale>
<asrwt>0</asrwt>
<pdfrwt beam="1">  1        1 0.13624770E-02 0.83422256E+02</pdfrwt>
<pdfrwt beam="2">  1       -1 0.30223724E-01 0.83422256E+02</pdfrwt>
<totfact> 0.87892149E+04</totfact>
</mgrwt>
</event>
<event>
 5    1  0.3957498E+001  0.9458312E+02  0.7546771E-02  0.1292118E+00
          2   -1    0    0  501    0  0.00000000000E+00  0.00000000000E+00  0.64236774472E+03  0.64236774472E+03  0.00000000000E+00 0. -1.
         -2   -1    0    0    0  501 -0.00000000000E+00 -0.00000000000E+00 -0.34816376539E+01  0.34816376539E+01  0.00000000000E+00 0.  1.
         23    2    1    2    0    0  0.00000000000E+00  0.00000000000E+00  0.63888610707E+03  0.64584938238E+03  0.94583121702E+02 0.  0.
          2    1    3    3  502    0  0.40586855925E+02  0.20916145088E+02  0.40354964746E+03  0.40612448333E+03  0.00000000000E+00 0. -1.
         -2    1    3    3    0  502 -0.40586855925E+02 -0.20916145088E+02  0.23533645961E+03  0.23972489905E+03  0.00000000000E+00 0.  1.
<mgrwt>
<rscale>  0 0.94583122E+02</rscale>
<asrwt>0</asrwt>
<pdfrwt beam="1">  1        2 0.98825713E-01 0.94583122E+02</pdfrwt>
<pdfrwt beam="2">  1       -2 0.53563707E-03 0.94583122E+02</pdfrwt>
<totfact> 0.21067387E+05</totfact>
</mgrwt>
</event>
<event>
 5    1  0.3957498E+001  0.8994204E+02  0.7546771E-02  0.1302992E+00
         -1   -1    0    0    0  501 -0.00000000000E+00  0.00000000000E+00  0.55969438805E+02  0.55969438805E+02  0.00000000000E+00 0.  1.
          1   -1    0    0  501    0  0.00000000000E+00 -0.00000000000E+00 -0.36133873963E+02  0.36133873963E+02  0.00000000000E+00 0. -1.
         23    2    1    2    0    0  0.00000000000E+00  0.00000000000E+00  0.19835564842E+02  0.92103312768E+02  0.89942040172E+02 0.  0.
          2    1    3    3  502    0  0.97013772834E+01  0.33744947404E+02  0.38692002418E+02  0.52248533449E+02  0.00000000000E+00 0.  1.
         -2    1    3    3    0  502 -0.97013772834E+01 -0.33744947404E+02 -0.18856437576E+02  0.39854779319E+02  0.00000000000E+00 0. -1.
<mgrwt>
<rscale>  0 0.89942040E+02</rscale>
<asrwt>0</asrwt>
<pdfrwt beam="2">  1        1 0.55590576E-02 0.89942040E+02</pdfrwt>
<pdfrwt beam="1">  1       -1 0.86106829E-02 0.89942040E+02</pdfrwt>
<totfact> 0.92780991E+04</totfact>
</mgrwt>
</event>
<event>
 5    1  0.3957498E+001  0.9429273E+02  0.7546771E-02  0.1292777E+00
          2   -1    0    0  501    0  0.00000000000E+00  0.00000000000E+00  0.14033144583E+04  0.14033144583E+04  0.00000000000E+00 0. -1.
         -2   -1    0    0    0  501 -0.00000000000E+00 -0.00000000000E+00 -0.15839498231E+01  0.15839498231E+01  0.00000000000E+00 0.  1.
         23    2    1    2    0    0  0.00000000000E+00  0.00000000000E+00  0.14017305085E+04  0.14048984081E+04  0.94292729050E+02 0.  0.
          2    1    3    3  502    0  0.56891490375E+00  0.45629856627E+02  0.52433982319E+03  0.52632181949E+03  0.00000000000E+00 0.  1.
         -2    1    3    3    0  502 -0.56891490375E+00 -0.45629856627E+02  0.87739068530E+03  0.87857658866E+03  0.00000000000E+00 0. -1.
<mgrwt>
<rscale>  0 0.94292729E+02</rscale>
<asrwt>0</asrwt>
<pdfrwt beam="1">  1        2 0.21589354E+00 0.94292729E+02</pdfrwt>
<pdfrwt beam="2">  1       -2 0.24368571E-03 0.94292729E+02</pdfrwt>
<totfact> 0.22077394E+05</totfact>
</mgrwt>
</event>
<event>
 5    1  0.3957498E+001  0.9162459E+02  0.7546771E-02  0.1298965E+00
          1   -1    0    0  501    0  0.00000000000E+00  0.00000000000E+00  0.48214888217E+03  0.48214888217E+03  0.00000000000E+00 0. -1.
         -1   -1    0    0    0  501 -0.00000000000E+00 -0.00000000000E+00 -0.43529423383E+01  0.43529423383E+01  0.00000000000E+00 0.  1.
         23    2    1    2    0    0  0.00000000000E+00  0.00000000000E+00  0.47779593983E+03  0.48650182451E+03  0.91624588022E+02 0.  0.
          2    1    3    3  502    0 -0.11136428276E+02  0.32075039672E+02  0.40220459074E+03  0.40363518307E+03  0.00000000000E+00 0. -1.
         -2    1    3    3    0  502  0.11136428276E+02 -0.32075039672E+02  0.75591349091E+02  0.82866641431E+02  0.00000000000E+00 0.  1.
<mgrwt>
<rscale>  0 0.91624588E+02</rscale>
<asrwt>0</asrwt>
<pdfrwt beam="1">  1        1 0.74176709E-01 0.91624588E+02</pdfrwt>
<pdfrwt beam="2">  1       -1 0.66968382E-03 0.91624588E+02</pdfrwt>
<totfact> 0.13685535E+05</totfact>
</mgrwt>
</event>
<event>
 5    1  0.3957498E+001  0.9124423E+02  0.7546771E-02  0.1299866E+00
         -1   -1    0    0    0  501 -0.00000000000E+00  0.00000000000E+00  0.30788294153E+02  0.30788294153E+02  0.00000000000E+00 0.  1.
          1   -1    0    0  501    0  0.00000000000E+00 -0.00000000000E+00 -0.67602880444E+02  0.67602880444E+02  0.00000000000E+00 0. -1.
         23    2    1    2    0    0  0.00000000000E+00  0.00000000000E+00 -0.36814586291E+02  0.98391174597E+02  0.91244229817E+02 0.  0.
          2    1    3    3  502    0  0.27915275181E+02  0.19581177064E+02 -0.51091335919E+02  0.61424829585E+02  0.00000000000E+00 0. -1.
         -2    1    3    3    0  502 -0.27915275181E+02 -0.19581177064E+02  0.14276749628E+02  0.36966345012E+02  0.00000000000E+00 0.  1.
<mgrwt>
<rscale>  0 0.91244230E+02</rscale>
<asrwt>0</asrwt>
<pdfrwt beam="2">  1        1 0.10400443E-01 0.91244230E+02</pdfrwt>
<pdfrwt beam="1">  1       -1 0.47366607E-02 0.91244230E+02</pdfrwt>
<totfact> 0.97938914E+04</totfact>
</mgrwt>
</event>
<event>
 5    1  0.3957498E+001  0.9162826E+02  0.7546771E-02  0.1298956E+00
          4   -1    0    0  501    0  0.00000000000E+00  0.00000000000E+00  0.42100377804E+01  0.42100377804E+01  0.00000000000E+00 0. -1.
         -4   -1    0    0    0  501 -0.00000000000E+00 -0.00000000000E+00 -0.49855475987E+03  0.49855475987E+03  0.00000000000E+00 0.  1.
         23    2    1    2    0    0  0.00000000000E+00  0.00000000000E+00 -0.49434472209E+03  0.50276479765E+03  0.91628257097E+02 0.  0.
          2    1    3    3  502    0 -0.22341864743E+02  0.14594610591E+02 -0.42839557886E+02  0.50471668274E+02  0.00000000000E+00 0. -1.
         -2    1    3    3    0  502  0.22341864743E+02 -0.14594610591E+02 -0.45150516420E+03  0.45229312937E+03  0.00000000000E+00 0.  1.
<mgrwt>
<rscale>  0 0.91628257E+02</rscale>
<asrwt>0</asrwt>
<pdfrwt beam="1">  1        4 0.64769816E-03 0.91628257E+02</pdfrwt>
<pdfrwt beam="2">  1       -4 0.76700728E-01 0.91628257E+02</pdfrwt>
<totfact> 0.12850662E+04</totfact>
</mgrwt>
</event>
<event>
 5    1  0.3957498E+001  0.6706383E+02  0.7546771E-02  0.1370372E+00
          1   -1    0    0  501    0  0.00000000000E+00  0.00000000000E+00  0.76172502271E+03  0.76172502271E+03  0.00000000000E+00 0. -1.
         -1   -1    0    0    0  501 -0.00000000000E+00 -0.00000000000E+00 -0.14761091556E+01  0.14761091556E+01  0.00000000000E+00 0.  1.
         23    2    1    2    0    0  0.00000000000E+00  0.00000000000E+00  0.76024891355E+03  0.76320113186E+03  0.67063828703E+02 0.  0.
          2    1    3    3  502    0  0.18459654970E+02  0.18392924615E+02  0.62027965989E+03  0.62082679953E+03  0.00000000000E+00 0. -1.
         -2    1    3    3    0  502 -0.18459654970E+02 -0.18392924615E+02  0.13996925366E+03  0.14237433233E+03  0.00000000000E+00 0.  1.
<mgrwt>
<rscale>  0 0.67063829E+02</rscale>
<asrwt>0</asrwt>
<pdfrwt beam="1">  1        1 0.11718815E+00 0.67063829E+02</pdfrwt>
<pdfrwt beam="2">  1       -1 0.22709433E-03 0.67063829E+02</pdfrwt>
<totfact> 0.31551583E+05</totfact>
</mgrwt>
</event>
<event>
 5    1  0.3957498E+001  0.1119601E+03  0.7546771E-02  0.1256982E+00
         -2   -1    0    0    0  501 -0.00000000000E+00  0.00000000000E+00  0.21076909262E+01  0.21076909262E+01  0.00000000000E+00 0.  1.
          2   -1    0    0  501    0  0.00000000000E+00 -0.00000000000E+00 -0.14868253774E+04  0.14868253774E+04  0.00000000000E+00 0. -1.
         23    2    1    2    0    0  0.00000000000E+00  0.00000000000E+00 -0.14847176865E+04  0.14889330683E+04  0.11196014213E+03 0.  0.
          2    1    3    3  502    0 -0.30744877030E+02  0.37725016602E+02 -0.11102675617E+04  0.11113336506E+04  0.00000000000E+00 0. -1.
         -2    1    3    3    0  502  0.30744877030E+02 -0.37725016602E+02 -0.37445012472E+03  0.37759941769E+03  0.00000000000E+00 0.  1.
<mgrwt>
<rscale>  0 0.11196014E+03</rscale>
<asrwt>0</asrwt>
<pdfrwt beam="2">  1        2 0.22874275E+00 0.11196014E+03</pdfrwt>
<pdfrwt beam="1">  1       -2 0.32425960E-03 0.11196014E+03</pdfrwt>
<totfact> 0.13707812E+05</totfact>
</mgrwt>
</event>
<event>
 5    1  0.3957498E+001  0.9060323E+02  0.7546771E-02  0.1301397E+00
         -4   -1    0    0    0  501 -0.00000000000E+00  0.00000000000E+00  0.10022230610E+03  0.10022230610E+03  0.00000000000E+00 0.  1.
          4   -1    0    0  501    0  0.00000000000E+00 -0.00000000000E+00 -0.20476842669E+02  0.20476842669E+02  0.00000000000E+00 0. -1.
         23    2    1    2    0    0  0.00000000000E+00  0.00000000000E+00  0.79745463433E+02  0.12069914877E+03  0.90603231597E+02 0.  0.
          2    1    3    3  502    0  0.17540901106E+02 -0.24553416161E+02 -0.51397827843E+01  0.30609979155E+02  0.00000000000E+00 0. -1.
         -2    1    3    3    0  502 -0.17540901106E+02  0.24553416161E+02  0.84885246217E+02  0.90089169616E+02  0.00000000000E+00 0.  1.
<mgrwt>
<rscale>  0 0.90603232E+02</rscale>
<asrwt>0</asrwt>
<pdfrwt beam="2">  1        4 0.31502835E-02 0.90603232E+02</pdfrwt>
<pdfrwt beam="1">  1       -4 0.15418816E-01 0.90603232E+02</pdfrwt>
<totfact> 0.25666355E+04</totfact>
</mgrwt>
</event>
<event>
 5    1  0.3957498E+001  0.9106588E+02  0.7546771E-02  0.1300291E+00
         -2   -1    0    0    0  501 -0.00000000000E+00  0.00000000000E+00  0.21265295629E+01  0.21265295629E+01  0.00000000000E+00 0.  1.
          2   -1    0    0  501    0  0.00000000000E+00 -0.00000000000E+00 -0.97494458594E+03  0.97494458594E+03  0.00000000000E+00 0. -1.
         23    2    1    2    0    0  0.00000000000E+00  0.00000000000E+00 -0.97281805638E+03  0.97707111550E+03  0.91065876906E+02 0.  0.
          2    1    3    3  502    0  0.18273403217E+02 -0.31721094604E+02 -0.77691369303E+03  0.77777569487E+03  0.00000000000E+00 0. -1.
         -2    1    3    3    0  502 -0.18273403217E+02  0.31721094604E+02 -0.19590436334E+03  0.19929542063E+03  0.00000000000E+00 0.  1.
<mgrwt>
<rscale>  0 0.91065877E+02</rscale>
<asrwt>0</asrwt>
<pdfrwt beam="2">  1        2 0.14999146E+00 0.91065877E+02</pdfrwt>
<pdfrwt beam="1">  1       -2 0.32715842E-03 0.91065877E+02</pdfrwt>
<totfact> 0.25048338E+05</totfact>
</mgrwt>
</event>
<event>
 5    1  0.3957498E+001  0.9177178E+02  0.7546771E-02  0.1298617E+00
          1   -1    0    0  501    0  0.00000000000E+00  0.00000000000E+00  0.62147626926E+01  0.62147626926E+01  0.00000000000E+00 0. -1.
         -1   -1    0    0    0  501 -0.00000000000E+00 -0.00000000000E+00 -0.33879245080E+03  0.33879245080E+03  0.00000000000E+00 0.  1.
         23    2    1    2    0    0  0.00000000000E+00  0.00000000000E+00 -0.33257768811E+03  0.34500721349E+03  0.91771775264E+02 0.  0.
          2    1    3    3  502    0  0.13431575970E+01  0.42293044821E+02 -0.23301260285E+03  0.23682351826E+03  0.00000000000E+00 0.  1.
         -2    1    3    3    0  502 -0.13431575970E+01 -0.42293044821E+02 -0.99565085257E+02  0.10818369524E+03  0.00000000000E+00 0. -1.
<mgrwt>
<rscale>  0 0.91771775E+02</rscale>
<asrwt>0</asrwt>
<pdfrwt beam="1">  1        1 0.95611729E-03 0.91771775E+02</pdfrwt>
<pdfrwt beam="2">  1       -1 0.52121918E-01 0.91771775E+02</pdfrwt>
<totfact> 0.56636548E+04</totfact>
</mgrwt>
</event>
<event>
 5    1  0.3957498E+001  0.6765738E+02  0.7546771E-02  0.1368245E+00
         -2   -1    0    0    0  501 -0.00000000000E+00  0.00000000000E+00  0.29930691815E+01  0.29930691815E+01  0.00000000000E+00 0.  1.
          2   -1    0    0  501    0  0.00000000000E+00 -0.00000000000E+00 -0.38234341826E+03  0.38234341826E+03  0.00000000000E+00 0. -1.
         23    2    1    2    0    0  0.00000000000E+00  0.00000000000E+00 -0.37935034908E+03  0.38533648744E+03  0.67657381029E+02 0.  0.
          2    1    3    3  502    0 -0.18708370977E+02  0.25835552832E+02 -0.12551609832E+03  0.12950586810E+03  0.00000000000E+00 0.  1.
         -2    1    3    3    0  502  0.18708370977E+02 -0.25835552832E+02 -0.25383425076E+03  0.25583061934E+03  0.00000000000E+00 0. -1.
<mgrwt>
<rscale>  0 0.67657381E+02</rscale>
<asrwt>0</asrwt>
<pdfrwt beam="2">  1        2 0.58822064E-01 0.67657381E+02</pdfrwt>
<pdfrwt beam="1">  1       -2 0.46047218E-03 0.67657381E+02</pdfrwt>
<totfact> 0.42837539E+05</totfact>
</mgrwt>
</event>
<event>
 5    1  0.3957498E+001  0.9050616E+02  0.7546771E-02  0.1301631E+00
          4   -1    0    0  501    0  0.00000000000E+00  0.00000000000E+00  0.43051247049E+02  0.43051247049E+02  0.00000000000E+00 0. -1.
         -4   -1    0    0    0  501 -0.00000000000E+00 -0.00000000000E+00 -0.47567528291E+02  0.47567528291E+02  0.00000000000E+00 0.  1.
         23    2    1    2    0    0  0.00000000000E+00  0.00000000000E+00 -0.45162812424E+01  0.90618775340E+02  0.90506163590E+02 0.  0.
          2    1    3    3  502    0  0.31216467490E+02  0.14000310829E+01  0.30515039582E+02  0.43676029699E+02  0.00000000000E+00 0. -1.
         -2    1    3    3    0  502 -0.31216467490E+02 -0.14000310829E+01 -0.35031320824E+02  0.46942745641E+02  0.00000000000E+00 0.  1.
<mgrwt>
<rscale>  0 0.90506164E+02</rscale>
<asrwt>0</asrwt>
<pdfrwt beam="1">  1        4 0.66232688E-02 0.90506164E+02</pdfrwt>
<pdfrwt beam="2">  1       -4 0.73180813E-02 0.90506164E+02</pdfrwt>
<totfact> 0.27599058E+04</totfact>
</mgrwt>
</event>
<event>
 5    1  0.3957498E+001  0.9567708E+02  0.7546771E-02  0.1289658E+00
          4   -1    0    0  501    0  0.00000000000E+00  0.00000000000E+00  0.32679906413E+02  0.32679906413E+02  0.00000000000E+00 0.  1.
         -4   -1    0    0    0  501 -0.00000000000E+00 -0.00000000000E+00 -0.70028529452E+02  0.70028529452E+02  0.00000000000E+00 0. -1.
         23    2    1    2    0    0  0.00000000000E+00  0.00000000000E+00 -0.37348623039E+02  0.10270843586E+03  0.95677077479E+02 0.  0.
          2    1    3    3  502    0 -0.45289060067E+02  0.12034082722E+02 -0.29004820428E+02  0.55110776776E+02  0.00000000000E+00 0. -1.
         -2    1    3    3    0  502  0.45289060067E+02 -0.12034082722E+02 -0.83438026110E+01  0.47597659089E+02  0.00000000000E+00 0.  1.
<mgrwt>
<rscale>  0 0.95677077E+02</rscale>
<asrwt>0</asrwt>
<pdfrwt beam="1">  1        4 0.50276780E-02 0.95677077E+02</pdfrwt>
<pdfrwt beam="2">  1       -4 0.10773620E-01 0.95677077E+02</pdfrwt>
<totfact> 0.23059246E+04</totfact>
</mgrwt>
</event>
<event>
 5    1  0.3957498E+001  0.9113390E+02  0.7546771E-02  0.1300129E+00
         -1   -1    0    0    0  501 -0.00000000000E+00  0.00000000000E+00  0.85740065500E+01  0.85740065500E+01  0.00000000000E+00 0.  1.
          1   -1    0    0  501    0  0.00000000000E+00 -0.00000000000E+00 -0.24216764920E+03  0.24216764920E+03  0.00000000000E+00 0. -1.
         23    2    1    2    0    0  0.00000000000E+00  0.00000000000E+00 -0.23359364265E+03  0.25074165575E+03  0.91133901715E+02 0.  0.
          2    1    3    3  502    0  0.27707922171E+02 -0.35875621661E+02 -0.12957147235E+03  0.13727183115E+03  0.00000000000E+00 0. -1.
         -2    1    3    3    0  502 -0.27707922171E+02  0.35875621661E+02 -0.10402217030E+03  0.11346982460E+03  0.00000000000E+00 0.  1.
<mgrwt>
<rscale>  0 0.91133902E+02</rscale>
<asrwt>0</asrwt>
<pdfrwt beam="2">  1        1 0.37256565E-01 0.91133902E+02</pdfrwt>
<pdfrwt beam="1">  1       -1 0.13190778E-02 0.91133902E+02</pdfrwt>
<totfact> 0.12306015E+05</totfact>
</mgrwt>
</event>
<event>
 5    1  0.3957498E+001  0.8628578E+02  0.7546771E-02  0.1312104E+00
          4   -1    0    0  501    0  0.00000000000E+00  0.00000000000E+00  0.26078905676E+02  0.26078905676E+02  0.00000000000E+00 0. -1.
         -4   -1    0    0    0  501 -0.00000000000E+00 -0.00000000000E+00 -0.71372206904E+02  0.71372206904E+02  0.00000000000E+00 0.  1.
         23    2    1    2    0    0  0.00000000000E+00  0.00000000000E+00 -0.45293301228E+02  0.97451112581E+02  0.86285782184E+02 0.  0.
          2    1    3    3  502    0  0.29390781304E+02  0.27794558983E+02 -0.39585891936E+02  0.56598572200E+02  0.00000000000E+00 0. -1.
         -2    1    3    3    0  502 -0.29390781304E+02 -0.27794558983E+02 -0.57074092920E+01  0.40852540380E+02  0.00000000000E+00 0.  1.
<mgrwt>
<rscale>  0 0.86285782E+02</rscale>
<asrwt>0</asrwt>
<pdfrwt beam="1">  1        4 0.40121393E-02 0.86285782E+02</pdfrwt>
<pdfrwt beam="2">  1       -4 0.10980340E-01 0.86285782E+02</pdfrwt>
<totfact> 0.30883328E+04</totfact>
</mgrwt>
</event>
<event>
 5    1  0.3957498E+001  0.9119544E+02  0.7546771E-02  0.1299982E+00
         -1   -1    0    0    0  501 -0.00000000000E+00  0.00000000000E+00  0.18442213166E+01  0.18442213166E+01  0.00000000000E+00 0.  1.
          1   -1    0    0  501    0  0.00000000000E+00 -0.00000000000E+00 -0.11273875991E+04  0.11273875991E+04  0.00000000000E+00 0. -1.
         23    2    1    2    0    0  0.00000000000E+00  0.00000000000E+00 -0.11255433778E+04  0.11292318204E+04  0.91195443799E+02 0.  0.
          2    1    3    3  502    0  0.35690983387E+01  0.33866180785E+02 -0.93824994233E+03  0.93886772814E+03  0.00000000000E+00 0. -1.
         -2    1    3    3    0  502 -0.35690983387E+01 -0.33866180785E+02 -0.18729343549E+03  0.19036409231E+03  0.00000000000E+00 0.  1.
<mgrwt>
<rscale>  0 0.91195444E+02</rscale>
<asrwt>0</asrwt>
<pdfrwt beam="2">  1        1 0.17344452E+00 0.91195444E+02</pdfrwt>
<pdfrwt beam="1">  1       -1 0.28372591E-03 0.91195444E+02</pdfrwt>
<totfact> 0.13070465E+05</totfact>
</mgrwt>
</event>
<event>
 5    1  0.3957498E+001  0.9498249E+02  0.7546771E-02  0.1291216E+00
          3   -1    0    0  501    0  0.00000000000E+00  0.00000000000E+00  0.73529178194E+02  0.73529178194E+02  0.00000000000E+00 0. -1.
         -3   -1    0    0    0  501 -0.00000000000E+00 -0.00000000000E+00 -0.30673789626E+02  0.30673789626E+02  0.00000000000E+00 0.  1.
         23    2    1    2    0    0  0.00000000000E+00  0.00000000000E+00  0.42855388568E+02  0.10420296782E+03  0.94982494036E+02 0.  0.
          2    1    3    3  502    0  0.36884668154E+02 -0.29563361036E+02  0.16406553020E+02  0.50036447141E+02  0.00000000000E+00 0. -1.
         -2    1    3    3    0  502 -0.36884668154E+02  0.29563361036E+02  0.26448835549E+02  0.54166520679E+02  0.00000000000E+00 0.  1.
<mgrwt>
<rscale>  0 0.94982494E+02</rscale>
<asrwt>0</asrwt>
<pdfrwt beam="1">  1        3 0.11312181E-01 0.94982494E+02</pdfrwt>
<pdfrwt beam="2">  1       -3 0.47190446E-02 0.94982494E+02</pdfrwt>
<totfact> 0.30731004E+04</totfact>
</mgrwt>
</event>
<event>
 5    1  0.3957498E+001  0.9010765E+02  0.7546771E-02  0.1302591E+00
          1   -1    0    0  501    0  0.00000000000E+00  0.00000000000E+00  0.97027617685E+03  0.97027617685E+03  0.00000000000E+00 0. -1.
         -1   -1    0    0    0  501 -0.00000000000E+00 -0.00000000000E+00 -0.20920302641E+01  0.20920302641E+01  0.00000000000E+00 0.  1.
         23    2    1    2    0    0  0.00000000000E+00  0.00000000000E+00  0.96818414658E+03  0.97236820711E+03  0.90107649541E+02 0.  0.
          2    1    3    3  502    0  0.11687400943E+01 -0.29872377245E+02  0.84782416664E+03  0.84835107262E+03  0.00000000000E+00 0. -1.
         -2    1    3    3    0  502 -0.11687400943E+01  0.29872377245E+02  0.12035997994E+03  0.12401713449E+03  0.00000000000E+00 0.  1.
<mgrwt>
<rscale>  0 0.90107650E+02</rscale>
<asrwt>0</asrwt>
<pdfrwt beam="1">  1        1 0.14927290E+00 0.90107650E+02</pdfrwt>
<pdfrwt beam="2">  1       -1 0.32185158E-03 0.90107650E+02</pdfrwt>
<totfact> 0.14139008E+05</totfact>
</mgrwt>
</event>
<event>
 5    1  0.3957498E+001  0.8777348E+02  0.7546771E-02  0.1308335E+00
         -2   -1    0    0    0  501 -0.00000000000E+00  0.00000000000E+00  0.25162143382E+03  0.25162143382E+03  0.00000000000E+00 0.  1.
          2   -1    0    0  501    0  0.00000000000E+00 -0.00000000000E+00 -0.76545379972E+01  0.76545379972E+01  0.00000000000E+00 0. -1.
         23    2    1    2    0    0  0.00000000000E+00  0.00000000000E+00  0.24396689582E+03  0.25927597181E+03  0.87773477225E+02 0.  0.
          2    1    3    3  502    0 -0.30272793145E+02  0.27665993145E+02  0.75823127665E+02  0.86203224246E+02  0.00000000000E+00 0. -1.
         -2    1    3    3    0  502  0.30272793145E+02 -0.27665993145E+02  0.16814376815E+03  0.17307274757E+03  0.00000000000E+00 0.  1.
<mgrwt>
<rscale>  0 0.87773477E+02</rscale>
<asrwt>0</asrwt>
<pdfrwt beam="2">  1        2 0.11776214E-02 0.87773477E+02</pdfrwt>
<pdfrwt beam="1">  1       -2 0.38710983E-01 0.87773477E+02</pdfrwt>
<totfact> 0.61730688E+04</totfact>
</mgrwt>
</event>
<event>
 5    1  0.3957498E+001  0.9091501E+02  0.7546771E-02  0.1300651E+00
         -2   -1    0    0    0  501 -0.00000000000E+00  0.00000000000E+00  0.13867803607E+01  0.13867803607E+01  0.00000000000E+00 0.  1.
          2   -1    0    0  501    0  0.00000000000E+00 -0.00000000000E+00 -0.14900590734E+04  0.14900590734E+04  0.00000000000E+00 0. -1.
         23    2    1    2    0    0  0.00000000000E+00  0.00000000000E+00 -0.14886722931E+04  0.14914458538E+04  0.90915007768E+02 0.  0.
          2    1    3    3  502    0  0.84031590897E+01 -0.18283286218E+02 -0.14130205161E+04  0.14131637805E+04  0.00000000000E+00 0. -1.
         -2    1    3    3    0  502 -0.84031590897E+01  0.18283286218E+02 -0.75651776921E+02  0.78282073229E+02  0.00000000000E+00 0.  1.
<mgrwt>
<rscale>  0 0.90915008E+02</rscale>
<asrwt>0</asrwt>
<pdfrwt beam="2">  1        2 0.22924053E+00 0.90915008E+02</pdfrwt>
<pdfrwt beam="1">  1       -2 0.21335020E-03 0.90915008E+02</pdfrwt>
<totfact> 0.23835021E+05</totfact>
</mgrwt>
</event>
<event>
 5    1  0.3957498E+001  0.9276982E+02  0.7546771E-02  0.1296279E+00
          2   -1    0    0  501    0  0.00000000000E+00  0.00000000000E+00  0.32307495571E+03  0.32307495571E+03  0.00000000000E+00 0. -1.
         -2   -1    0    0    0  501 -0.00000000000E+00 -0.00000000000E+00 -0.66596304618E+01  0.66596304618E+01  0.00000000000E+00 0.  1.
         23    2    1    2    0    0  0.00000000000E+00  0.00000000000E+00  0.31641532525E+03  0.32973458617E+03  0.92769818724E+02 0.  0.
          2    1    3    3  502    0  0.35892475334E+02  0.48952978958E+01  0.26118061306E+03  0.26368076601E+03  0.00000000000E+00 0. -1.
         -2    1    3    3    0  502 -0.35892475334E+02 -0.48952978958E+01  0.55234712194E+02  0.66053820164E+02  0.00000000000E+00 0.  1.
<mgrwt>
<rscale>  0 0.92769819E+02</rscale>
<asrwt>0</asrwt>
<pdfrwt beam="1">  1        2 0.49703827E-01 0.92769819E+02</pdfrwt>
<pdfrwt beam="2">  1       -2 0.10245588E-02 0.92769819E+02</pdfrwt>
<totfact> 0.17633117E+05</totfact>
</mgrwt>
</event>
<event>
 5    1  0.3957498E+001  0.8706974E+02  0.7546771E-02  0.1310107E+00
         -3   -1    0    0    0  501 -0.00000000000E+00  0.00000000000E+00  0.41307153654E+02  0.41307153654E+02  0.00000000000E+00 0.  1.
          3   -1    0    0  501    0  0.00000000000E+00 -0.00000000000E+00 -0.45882729489E+02  0.45882729489E+02  0.00000000000E+00 0. -1.
         23    2    1    2    0    0  0.00000000000E+00  0.00000000000E+00 -0.45755758351E+01  0.87189883144E+02  0.87069741176E+02 0.  0.
          2    1    3    3  502    0  0.10695815773E+02 -0.26376995634E+02 -0.35274683438E+02  0.45326037389E+02  0.00000000000E+00 0. -1.
         -2    1    3    3    0  502 -0.10695815773E+02  0.26376995634E+02  0.30699107603E+02  0.41863845755E+02  0.00000000000E+00 0.  1.
<mgrwt>
<rscale>  0 0.87069741E+02</rscale>
<asrwt>0</asrwt>
<pdfrwt beam="2">  1        3 0.70588814E-02 0.87069741E+02</pdfrwt>
<pdfrwt beam="1">  1       -3 0.63549467E-02 0.87069741E+02</pdfrwt>
<totfact> 0.40399729E+04</totfact>
</mgrwt>
</event>
<event>
 5    1  0.3957498E+001  0.9176764E+02  0.7546771E-02  0.1298627E+00
         -2   -1    0    0    0  501 -0.00000000000E+00  0.00000000000E+00  0.26680204996E+02  0.26680204996E+02  0.00000000000E+00 0.  1.
          2   -1    0    0  501    0  0.00000000000E+00 -0.00000000000E+00 -0.78909629621E+02  0.78909629621E+02  0.00000000000E+00 0. -1.
         23    2    1    2    0    0  0.00000000000E+00  0.00000000000E+00 -0.52229424625E+02  0.10558983462E+03  0.91767643414E+02 0.  0.
          2    1    3    3  502    0  0.37781420694E+02  0.25721148508E+02 -0.21467587581E+02  0.50496242898E+02  0.00000000000E+00 0. -1.
         -2    1    3    3    0  502 -0.37781420694E+02 -0.25721148508E+02 -0.30761837044E+02  0.55093591719E+02  0.00000000000E+00 0.  1.
<mgrwt>
<rscale>  0 0.91767643E+02</rscale>
<asrwt>0</asrwt>
<pdfrwt beam="2">  1        2 0.12139943E-01 0.91767643E+02</pdfrwt>
<pdfrwt beam="1">  1       -2 0.41046469E-02 0.91767643E+02</pdfrwt>
<totfact> 0.11236692E+05</totfact>
</mgrwt>
</event>
<event>
 5    1  0.3957498E+001  0.9115571E+02  0.7546771E-02  0.1300077E+00
         -2   -1    0    0    0  501 -0.00000000000E+00  0.00000000000E+00  0.41408441429E+01  0.41408441429E+01  0.00000000000E+00 0.  1.
          2   -1    0    0  501    0  0.00000000000E+00 -0.00000000000E+00 -0.50167085521E+03  0.50167085521E+03  0.00000000000E+00 0. -1.
         23    2    1    2    0    0  0.00000000000E+00  0.00000000000E+00 -0.49753001106E+03  0.50581169935E+03  0.91155709036E+02 0.  0.
          2    1    3    3  502    0 -0.14807233892E+02  0.41795855753E+02 -0.30727686422E+03  0.31045968984E+03  0.00000000000E+00 0. -1.
         -2    1    3    3    0  502  0.14807233892E+02 -0.41795855753E+02 -0.19025314685E+03  0.19535200951E+03  0.00000000000E+00 0.  1.
<mgrwt>
<rscale>  0 0.91155709E+02</rscale>
<asrwt>0</asrwt>
<pdfrwt beam="2">  1        2 0.77180119E-01 0.91155709E+02</pdfrwt>
<pdfrwt beam="1">  1       -2 0.63705305E-03 0.91155709E+02</pdfrwt>
<totfact> 0.21586280E+05</totfact>
</mgrwt>
</event>
<event>
 5    1  0.3957498E+001  0.9324766E+02  0.7546771E-02  0.1295172E+00
          3   -1    0    0  501    0  0.00000000000E+00  0.00000000000E+00  0.11883856725E+03  0.11883856725E+03  0.00000000000E+00 0. -1.
         -3   -1    0    0    0  501 -0.00000000000E+00 -0.00000000000E+00 -0.18291886911E+02  0.18291886911E+02  0.00000000000E+00 0.  1.
         23    2    1    2    0    0  0.00000000000E+00  0.00000000000E+00  0.10054668034E+03  0.13713045416E+03  0.93247662336E+02 0.  0.
          2    1    3    3  502    0  0.22913535801E+02  0.11132647578E+02  0.10769882019E+03  0.11067069095E+03  0.00000000000E+00 0. -1.
         -2    1    3    3    0  502 -0.22913535801E+02 -0.11132647578E+02 -0.71521398466E+01  0.26459763215E+02  0.00000000000E+00 0.  1.
<mgrwt>
<rscale>  0 0.93247662E+02</rscale>
<asrwt>0</asrwt>
<pdfrwt beam="1">  1        3 0.18282856E-01 0.93247662E+02</pdfrwt>
<pdfrwt beam="2">  1       -3 0.28141365E-02 0.93247662E+02</pdfrwt>
<totfact> 0.30210987E+04</totfact>
</mgrwt>
</event>
<event>
 5    1  0.3957498E+001  0.8907639E+02  0.7546771E-02  0.1305104E+00
          2   -1    0    0  501    0  0.00000000000E+00  0.00000000000E+00  0.68999348032E+03  0.68999348032E+03  0.00000000000E+00 0. -1.
         -2   -1    0    0    0  501 -0.00000000000E+00 -0.00000000000E+00 -0.28748834236E+01  0.28748834236E+01  0.00000000000E+00 0.  1.
         23    2    1    2    0    0  0.00000000000E+00  0.00000000000E+00  0.68711859689E+03  0.69286836374E+03  0.89076390114E+02 0.  0.
          2    1    3    3  502    0  0.29422051951E+01  0.44422793726E+02  0.35342784486E+03  0.35622083417E+03  0.00000000000E+00 0. -1.
         -2    1    3    3    0  502 -0.29422051951E+01 -0.44422793726E+02  0.33369075203E+03  0.33664752957E+03  0.00000000000E+00 0.  1.
<mgrwt>
<rscale>  0 0.89076390E+02</rscale>
<asrwt>0</asrwt>
<pdfrwt beam="1">  1        2 0.10615271E+00 0.89076390E+02</pdfrwt>
<pdfrwt beam="2">  1       -2 0.44229031E-03 0.89076390E+02</pdfrwt>
<totfact> 0.25130523E+05</totfact>
</mgrwt>
</event>
<event>
 5    1  0.3957498E+001  0.1042217E+03  0.7546771E-02  0.1271661E+00
         -2   -1    0    0    0  501 -0.00000000000E+00  0.00000000000E+00  0.13751978788E+01  0.13751978788E+01  0.00000000000E+00 0. -1.
          2   -1    0    0  501    0  0.00000000000E+00 -0.00000000000E+00 -0.19746536776E+04  0.19746536776E+04  0.00000000000E+00 0.  1.
         23    2    1    2    0    0  0.00000000000E+00  0.00000000000E+00 -0.19732784797E+04  0.19760288754E+04  0.10422167814E+03 0.  0.
          2    1    3    3  502    0 -0.10368716115E+02  0.40717999669E+02 -0.40223428334E+03  0.40442290299E+03  0.00000000000E+00 0. -1.
         -2    1    3    3    0  502  0.10368716115E+02 -0.40717999669E+02 -0.15710441964E+04  0.15716059725E+04  0.00000000000E+00 0.  1.
<mgrwt>
<rscale>  0 0.10422168E+03</rscale>
<asrwt>0</asrwt>
<pdfrwt beam="2">  1        2 0.30379479E+00 0.10422168E+03</pdfrwt>
<pdfrwt beam="1">  1       -2 0.21156757E-03 0.10422168E+03</pdfrwt>
<totfact> 0.13954217E+05</totfact>
</mgrwt>
</event>
<event>
 5    1  0.3957498E+001  0.9368230E+02  0.7546771E-02  0.1294172E+00
         -4   -1    0    0    0  501 -0.00000000000E+00  0.00000000000E+00  0.24555828519E+03  0.24555828519E+03  0.00000000000E+00 0.  1.
          4   -1    0    0  501    0  0.00000000000E+00 -0.00000000000E+00 -0.89351232264E+01  0.89351232264E+01  0.00000000000E+00 0. -1.
         23    2    1    2    0    0  0.00000000000E+00  0.00000000000E+00  0.23662316196E+03  0.25449340841E+03  0.93682304357E+02 0.  0.
          2    1    3    3  502    0  0.14420692413E+02  0.40540543210E+02  0.68029456522E+02  0.80495335070E+02  0.00000000000E+00 0. -1.
         -2    1    3    3    0  502 -0.14420692413E+02 -0.40540543210E+02  0.16859370544E+03  0.17399807334E+03  0.00000000000E+00 0.  1.
<mgrwt>
<rscale>  0 0.93682304E+02</rscale>
<asrwt>0</asrwt>
<pdfrwt beam="2">  1        4 0.13746345E-02 0.93682304E+02</pdfrwt>
<pdfrwt beam="1">  1       -4 0.37778193E-01 0.93682304E+02</pdfrwt>
<totfact> 0.17955366E+04</totfact>
</mgrwt>
</event>
<event>
 5    1  0.3957498E+001  0.7024930E+02  0.7546771E-02  0.1359247E+00
          2   -1    0    0  501    0  0.00000000000E+00  0.00000000000E+00  0.11841458507E+04  0.11841458507E+04  0.00000000000E+00 0.  1.
         -2   -1    0    0    0  501 -0.00000000000E+00 -0.00000000000E+00 -0.10418826575E+01  0.10418826575E+01  0.00000000000E+00 0. -1.
         23    2    1    2    0    0  0.00000000000E+00  0.00000000000E+00  0.11831039681E+04  0.11851877334E+04  0.70249299665E+02 0.  0.
          2    1    3    3  502    0  0.17797398981E+02  0.24388128050E+02  0.28870966677E+03  0.29028399868E+03  0.00000000000E+00 0. -1.
         -2    1    3    3    0  502 -0.17797398981E+02 -0.24388128050E+02  0.89439430131E+03  0.89490373472E+03  0.00000000000E+00 0.  1.
<mgrwt>
<rscale>  0 0.70249300E+02</rscale>
<asrwt>0</asrwt>
<pdfrwt beam="1">  1        2 0.18217521E+00 0.70249300E+02</pdfrwt>
<pdfrwt beam="2">  1       -2 0.16029059E-03 0.70249300E+02</pdfrwt>
<totfact> 0.49033197E+05</totfact>
</mgrwt>
</event>
<event>
 5    1  0.3957498E+001  0.9082508E+02  0.7546771E-02  0.1300866E+00
         -1   -1    0    0    0  501 -0.00000000000E+00  0.00000000000E+00  0.14056088357E+01  0.14056088357E+01  0.00000000000E+00 0.  1.
          1   -1    0    0  501    0  0.00000000000E+00 -0.00000000000E+00 -0.14671924151E+04  0.14671924151E+04  0.00000000000E+00 0. -1.
         23    2    1    2    0    0  0.00000000000E+00  0.00000000000E+00 -0.14657868063E+04  0.14685980239E+04  0.90825076325E+02 0.  0.
          2    1    3    3  502    0 -0.18028984012E+02 -0.36080729736E+02 -0.10703042071E+04  0.10710639379E+04  0.00000000000E+00 0. -1.
         -2    1    3    3    0  502  0.18028984012E+02  0.36080729736E+02 -0.39548259920E+03  0.39753408608E+03  0.00000000000E+00 0.  1.
<mgrwt>
<rscale>  0 0.90825076E+02</rscale>
<asrwt>0</asrwt>
<pdfrwt beam="2">  1        1 0.22572153E+00 0.90825076E+02</pdfrwt>
<pdfrwt beam="1">  1       -1 0.21624787E-03 0.90825076E+02</pdfrwt>
<totfact> 0.11363519E+05</totfact>
</mgrwt>
</event>
<event>
 4    1  0.3957498E+001  0.1983823E+03  0.7546771E-02  0.1151111E+00
         -1   -1    0    0    0  501 -0.00000000000E+00  0.00000000000E+00  0.27742452353E+02  0.27742452353E+02  0.00000000000E+00 0.  1.
          1   -1    0    0  501    0  0.00000000000E+00 -0.00000000000E+00 -0.35465093380E+03  0.35465093380E+03  0.00000000000E+00 0. -1.
          2    1    1    2  502    0  0.28600830782E+02  0.53202316829E+02 -0.31511264939E+03  0.32084961562E+03  0.00000000000E+00 0. -1.
         -2    1    1    2    0  502 -0.28600830782E+02 -0.53202316829E+02 -0.11795832055E+02  0.61543770532E+02  0.00000000000E+00 0.  1.
<mgrwt>
<rscale>  0 0.19838232E+03</rscale>
<asrwt>0</asrwt>
<pdfrwt beam="2">  1        1 0.54561682E-01 0.19838232E+03</pdfrwt>
<pdfrwt beam="1">  1       -1 0.42680696E-02 0.19838232E+03</pdfrwt>
<totfact> 0.15316732E+04</totfact>
</mgrwt>
</event>
<event>
 5    1  0.3957498E+001  0.9127526E+02  0.7546771E-02  0.1299793E+00
         -1   -1    0    0    0  501 -0.00000000000E+00  0.00000000000E+00  0.27398966723E+02  0.27398966723E+02  0.00000000000E+00 0.  1.
          1   -1    0    0  501    0  0.00000000000E+00 -0.00000000000E+00 -0.76017227565E+02  0.76017227565E+02  0.00000000000E+00 0. -1.
         23    2    1    2    0    0  0.00000000000E+00  0.00000000000E+00 -0.48618260841E+02  0.10341619429E+03  0.91275264742E+02 0.  0.
          2    1    3    3  502    0 -0.20139734631E+01  0.22642103020E+02 -0.69146630649E+02  0.72787206625E+02  0.00000000000E+00 0. -1.
         -2    1    3    3    0  502  0.20139734631E+01 -0.22642103020E+02  0.20528369807E+02  0.30628987662E+02  0.00000000000E+00 0.  1.
<mgrwt>
<rscale>  0 0.91275265E+02</rscale>
<asrwt>0</asrwt>
<pdfrwt beam="2">  1        1 0.11694958E-01 0.91275265E+02</pdfrwt>
<pdfrwt beam="1">  1       -1 0.42152257E-02 0.91275265E+02</pdfrwt>
<totfact> 0.99643074E+04</totfact>
</mgrwt>
</event>
<event>
 5    1  0.3957498E+001  0.8947857E+02  0.7546771E-02  0.1304119E+00
          1   -1    0    0  501    0  0.00000000000E+00  0.00000000000E+00  0.42689546034E+02  0.42689546034E+02  0.00000000000E+00 0. -1.
         -1   -1    0    0    0  501 -0.00000000000E+00 -0.00000000000E+00 -0.46887446646E+02  0.46887446646E+02  0.00000000000E+00 0.  1.
         23    2    1    2    0    0  0.00000000000E+00  0.00000000000E+00 -0.41979006112E+01  0.89576992680E+02  0.89478574240E+02 0.  0.
          2    1    3    3  502    0 -0.37645515323E+02  0.21345384950E+02  0.92622559683E+01  0.44256069281E+02  0.00000000000E+00 0. -1.
         -2    1    3    3    0  502  0.37645515323E+02 -0.21345384950E+02 -0.13460156580E+02  0.45320923399E+02  0.00000000000E+00 0.  1.
<mgrwt>
<rscale>  0 0.89478574E+02</rscale>
<asrwt>0</asrwt>
<pdfrwt beam="1">  1        1 0.65676225E-02 0.89478574E+02</pdfrwt>
<pdfrwt beam="2">  1       -1 0.72134533E-02 0.89478574E+02</pdfrwt>
<totfact> 0.96527201E+04</totfact>
</mgrwt>
</event>
<event>
 5    1  0.3957498E+001  0.8609780E+02  0.7546771E-02  0.1312586E+00
         -2   -1    0    0    0  501 -0.00000000000E+00  0.00000000000E+00  0.81804164774E+03  0.81804164774E+03  0.00000000000E+00 0.  1.
          2   -1    0    0  501    0  0.00000000000E+00 -0.00000000000E+00 -0.22654196676E+01  0.22654196676E+01  0.00000000000E+00 0. -1.
         23    2    1    2    0    0  0.00000000000E+00  0.00000000000E+00  0.81577622807E+03  0.82030706741E+03  0.86097796434E+02 0.  0.
          2    1    3    3  502    0 -0.30962488571E+02 -0.29660221838E+02  0.37123069168E+03  0.37369858296E+03  0.00000000000E+00 0. -1.
         -2    1    3    3    0  502  0.30962488571E+02  0.29660221838E+02  0.44454553639E+03  0.44660848445E+03  0.00000000000E+00 0.  1.
<mgrwt>
<rscale>  0 0.86097796E+02</rscale>
<asrwt>0</asrwt>
<pdfrwt beam="2">  1        2 0.34852675E-03 0.86097796E+02</pdfrwt>
<pdfrwt beam="1">  1       -2 0.12585233E+00 0.86097796E+02</pdfrwt>
<totfact> 0.27033854E+04</totfact>
</mgrwt>
</event>
<event>
 5    1  0.3957498E+001  0.9039001E+02  0.7546771E-02  0.1301910E+00
         -4   -1    0    0    0  501 -0.00000000000E+00  0.00000000000E+00  0.40528250857E+02  0.40528250857E+02  0.00000000000E+00 0.  1.
          4   -1    0    0  501    0  0.00000000000E+00 -0.00000000000E+00 -0.50399129982E+02  0.50399129982E+02  0.00000000000E+00 0. -1.
         23    2    1    2    0    0  0.00000000000E+00  0.00000000000E+00 -0.98708791251E+01  0.90927380840E+02  0.90390012344E+02 0.  0.
          2    1    3    3  502    0 -0.29470656205E+02 -0.32657504315E+02  0.54971566883E+01  0.44331150413E+02  0.00000000000E+00 0.  1.
         -2    1    3    3    0  502  0.29470656205E+02  0.32657504315E+02 -0.15368035813E+02  0.46596230427E+02  0.00000000000E+00 0. -1.
<mgrwt>
<rscale>  0 0.90390012E+02</rscale>
<asrwt>0</asrwt>
<pdfrwt beam="2">  1        4 0.77537123E-02 0.90390012E+02</pdfrwt>
<pdfrwt beam="1">  1       -4 0.62351155E-02 0.90390012E+02</pdfrwt>
<totfact> 0.27674930E+04</totfact>
</mgrwt>
</event>
<event>
 5    1  0.3957498E+001  0.9181309E+02  0.7546771E-02  0.1298519E+00
          2   -1    0    0  501    0  0.00000000000E+00  0.00000000000E+00  0.39857412296E+03  0.39857412296E+03  0.00000000000E+00 0. -1.
         -2   -1    0    0    0  501 -0.00000000000E+00 -0.00000000000E+00 -0.52873753024E+01  0.52873753024E+01  0.00000000000E+00 0.  1.
         23    2    1    2    0    0  0.00000000000E+00  0.00000000000E+00  0.39328674765E+03  0.40386149826E+03  0.91813092180E+02 0.  0.
          2    1    3    3  502    0  0.45574113344E+02 -0.13334415729E+01  0.17310578208E+03  0.17900946809E+03  0.00000000000E+00 0. -1.
         -2    1    3    3    0  502 -0.45574113344E+02  0.13334415729E+01  0.22018096557E+03  0.22485203017E+03  0.00000000000E+00 0.  1.
<mgrwt>
<rscale>  0 0.91813092E+02</rscale>
<asrwt>0</asrwt>
<pdfrwt beam="1">  1        2 0.61319072E-01 0.91813092E+02</pdfrwt>
<pdfrwt beam="2">  1       -2 0.81344267E-03 0.91813092E+02</pdfrwt>
<totfact> 0.19571963E+05</totfact>
</mgrwt>
</event>
<event>
 5    1  0.3957498E+001  0.9670784E+02  0.7546771E-02  0.1287375E+00
         -2   -1    0    0    0  501 -0.00000000000E+00  0.00000000000E+00  0.57904497564E+01  0.57904497564E+01  0.00000000000E+00 0.  1.
          2   -1    0    0  501    0  0.00000000000E+00 -0.00000000000E+00 -0.40378580792E+03  0.40378580792E+03  0.00000000000E+00 0. -1.
         23    2    1    2    0    0  0.00000000000E+00  0.00000000000E+00 -0.39799535817E+03  0.40957625768E+03  0.96707836976E+02 0.  0.
          2    1    3    3  502    0  0.43596572891E+02  0.51394557131E+01 -0.11313431723E+03  0.12135258097E+03  0.00000000000E+00 0.  1.
         -2    1    3    3    0  502 -0.43596572891E+02 -0.51394557131E+01 -0.28486104093E+03  0.28822367670E+03  0.00000000000E+00 0. -1.
<mgrwt>
<rscale>  0 0.96707837E+02</rscale>
<asrwt>0</asrwt>
<pdfrwt beam="2">  1        2 0.62120915E-01 0.96707837E+02</pdfrwt>
<pdfrwt beam="1">  1       -2 0.89083811E-03 0.96707837E+02</pdfrwt>
<totfact> 0.17121433E+05</totfact>
</mgrwt>
</event>
<event>
 5    1  0.3957498E+001  0.9392264E+02  0.7546771E-02  0.1293621E+00
          1   -1    0    0  501    0  0.00000000000E+00  0.00000000000E+00  0.23497304746E+03  0.23497304746E+03  0.00000000000E+00 0. -1.
         -1   -1    0    0    0  501 -0.00000000000E+00 -0.00000000000E+00 -0.93856111727E+01  0.93856111727E+01  0.00000000000E+00 0.  1.
         23    2    1    2    0    0  0.00000000000E+00  0.00000000000E+00  0.22558743629E+03  0.24435865863E+03  0.93922641775E+02 0.  0.
          2    1    3    3  502    0  0.41529279429E+02 -0.13715059949E+02  0.68291563116E+02  0.81095755204E+02  0.00000000000E+00 0. -1.
         -2    1    3    3    0  502 -0.41529279429E+02  0.13715059949E+02  0.15729587317E+03  0.16326290343E+03  0.00000000000E+00 0.  1.
<mgrwt>
<rscale>  0 0.93922642E+02</rscale>
<asrwt>0</asrwt>
<pdfrwt beam="1">  1        1 0.36149695E-01 0.93922642E+02</pdfrwt>
<pdfrwt beam="2">  1       -1 0.14439404E-02 0.93922642E+02</pdfrwt>
<totfact> 0.11284333E+05</totfact>
</mgrwt>
</event>
<event>
 5    1  0.3957498E+001  0.8595451E+02  0.7546771E-02  0.1312955E+00
          4   -1    0    0  501    0  0.00000000000E+00  0.00000000000E+00  0.35178734695E+02  0.35178734695E+02  0.00000000000E+00 0. -1.
         -4   -1    0    0    0  501 -0.00000000000E+00 -0.00000000000E+00 -0.52504578040E+02  0.52504578040E+02  0.00000000000E+00 0.  1.
         23    2    1    2    0    0  0.00000000000E+00  0.00000000000E+00 -0.17325843345E+02  0.87683312734E+02  0.85954514044E+02 0.  0.
          2    1    3    3  502    0  0.36876995837E+02  0.10598292484E+02  0.11086422735E+02  0.39939271333E+02  0.00000000000E+00 0. -1.
         -2    1    3    3    0  502 -0.36876995837E+02 -0.10598292484E+02 -0.28412266080E+02  0.47744041401E+02  0.00000000000E+00 0.  1.
<mgrwt>
<rscale>  0 0.85954514E+02</rscale>
<asrwt>0</asrwt>
<pdfrwt beam="1">  1        4 0.54121130E-02 0.85954514E+02</pdfrwt>
<pdfrwt beam="2">  1       -4 0.80776274E-02 0.85954514E+02</pdfrwt>
<totfact> 0.31947626E+04</totfact>
</mgrwt>
</event>
<event>
 5    1  0.3957498E+001  0.6650335E+02  0.7546771E-02  0.1372404E+00
         -1   -1    0    0    0  501 -0.00000000000E+00  0.00000000000E+00  0.84338427160E+02  0.84338427160E+02  0.00000000000E+00 0.  1.
          1   -1    0    0  501    0  0.00000000000E+00 -0.00000000000E+00 -0.13109967627E+02  0.13109967627E+02  0.00000000000E+00 0. -1.
         23    2    1    2    0    0  0.00000000000E+00  0.00000000000E+00  0.71228459533E+02  0.97448394786E+02  0.66503354795E+02 0.  0.
          2    1    3    3  502    0  0.23575239283E+02 -0.21158476680E+02  0.20800694248E+02  0.37896463211E+02  0.00000000000E+00 0. -1.
         -2    1    3    3    0  502 -0.23575239283E+02  0.21158476680E+02  0.50427765285E+02  0.59551931575E+02  0.00000000000E+00 0.  1.
<mgrwt>
<rscale>  0 0.66503355E+02</rscale>
<asrwt>0</asrwt>
<pdfrwt beam="2">  1        1 0.20169182E-02 0.66503355E+02</pdfrwt>
<pdfrwt beam="1">  1       -1 0.12975142E-01 0.66503355E+02</pdfrwt>
<totfact> 0.18739155E+05</totfact>
</mgrwt>
</event>
<event>
 5    1  0.3957498E+001  0.9201484E+02  0.7546771E-02  0.1298045E+00
          3   -1    0    0  501    0  0.00000000000E+00  0.00000000000E+00  0.15888910980E+02  0.15888910980E+02  0.00000000000E+00 0.  1.
         -3   -1    0    0    0  501 -0.00000000000E+00 -0.00000000000E+00 -0.13321762096E+03  0.13321762096E+03  0.00000000000E+00 0. -1.
         23    2    1    2    0    0  0.00000000000E+00  0.00000000000E+00 -0.11732870998E+03  0.14910653194E+03  0.92014844897E+02 0.  0.
          2    1    3    3  502    0  0.36445543181E+02  0.12898416025E+02 -0.99079727758E+02  0.10635525002E+03  0.00000000000E+00 0. -1.
         -2    1    3    3    0  502 -0.36445543181E+02 -0.12898416025E+02 -0.18248982218E+02  0.42751281919E+02  0.00000000000E+00 0.  1.
<mgrwt>
<rscale>  0 0.92014845E+02</rscale>
<asrwt>0</asrwt>
<pdfrwt beam="1">  1        3 0.24444478E-02 0.92014845E+02</pdfrwt>
<pdfrwt beam="2">  1       -3 0.20495019E-01 0.92014845E+02</pdfrwt>
<totfact> 0.30593707E+04</totfact>
</mgrwt>
</event>
<event>
 5    1  0.3957498E+001  0.8982681E+02  0.7546771E-02  0.1303272E+00
          2   -1    0    0  501    0  0.00000000000E+00  0.00000000000E+00  0.84020104644E+01  0.84020104644E+01  0.00000000000E+00 0. -1.
         -2   -1    0    0    0  501 -0.00000000000E+00 -0.00000000000E+00 -0.24008706671E+03  0.24008706671E+03  0.00000000000E+00 0.  1.
         23    2    1    2    0    0  0.00000000000E+00  0.00000000000E+00 -0.23168505625E+03  0.24848907718E+03  0.89826812186E+02 0.  0.
          2    1    3    3  502    0 -0.36435382084E+02  0.25264100347E+02 -0.13567570221E+03  0.14273649850E+03  0.00000000000E+00 0. -1.
         -2    1    3    3    0  502  0.36435382084E+02 -0.25264100347E+02 -0.96009354038E+02  0.10575257868E+03  0.00000000000E+00 0.  1.
<mgrwt>
<rscale>  0 0.89826812E+02</rscale>
<asrwt>0</asrwt>
<pdfrwt beam="1">  1        2 0.12926171E-02 0.89826812E+02</pdfrwt>
<pdfrwt beam="2">  1       -2 0.36936470E-01 0.89826812E+02</pdfrwt>
<totfact> 0.59540419E+04</totfact>
</mgrwt>
</event>
<event>
 5    1  0.3957498E+001  0.8752341E+02  0.7546771E-02  0.1308962E+00
         -1   -1    0    0    0  501 -0.00000000000E+00  0.00000000000E+00  0.51986557865E+03  0.51986557865E+03  0.00000000000E+00 0.  1.
          1   -1    0    0  501    0  0.00000000000E+00 -0.00000000000E+00 -0.36838119716E+01  0.36838119716E+01  0.00000000000E+00 0. -1.
         23    2    1    2    0    0  0.00000000000E+00  0.00000000000E+00  0.51618176668E+03  0.52354939062E+03  0.87523414975E+02 0.  0.
          2    1    3    3  502    0  0.21091711279E+02  0.46968705960E+00  0.28743927539E+02  0.35655213658E+02  0.00000000000E+00 0. -1.
         -2    1    3    3    0  502 -0.21091711279E+02 -0.46968705960E+00  0.48743783914E+03  0.48789417696E+03  0.00000000000E+00 0.  1.
<mgrwt>
<rscale>  0 0.87523415E+02</rscale>
<asrwt>0</asrwt>
<pdfrwt beam="2">  1        1 0.56674072E-03 0.87523415E+02</pdfrwt>
<pdfrwt beam="1">  1       -1 0.79979261E-01 0.87523415E+02</pdfrwt>
<totfact> 0.51093669E+04</totfact>
</mgrwt>
</event>
<event>
 5    1  0.3957498E+001  0.9296399E+02  0.7546771E-02  0.1295829E+00
         -1   -1    0    0    0  501 -0.00000000000E+00  0.00000000000E+00  0.11391286629E+01  0.11391286629E+01  0.00000000000E+00 0.  1.
          1   -1    0    0  501    0  0.00000000000E+00 -0.00000000000E+00 -0.18966915201E+04  0.18966915201E+04  0.00000000000E+00 0. -1.
         23    2    1    2    0    0  0.00000000000E+00  0.00000000000E+00 -0.18955523914E+04  0.18978306487E+04  0.92963986043E+02 0.  0.
          2    1    3    3  502    0 -0.28458217784E+02 -0.16035330304E+01 -0.19821122623E+03  0.20025017274E+03  0.00000000000E+00 0.  1.
         -2    1    3    3    0  502  0.28458217784E+02  0.16035330304E+01 -0.16973411652E+04  0.16975804760E+04  0.00000000000E+00 0. -1.
<mgrwt>
<rscale>  0 0.92963986E+02</rscale>
<asrwt>0</asrwt>
<pdfrwt beam="2">  1        1 0.29179690E+00 0.92963986E+02</pdfrwt>
<pdfrwt beam="1">  1       -1 0.17525164E-03 0.92963986E+02</pdfrwt>
<totfact> 0.81688184E+04</totfact>
</mgrwt>
</event>
<event>
 5    1  0.3957498E+001  0.9300234E+02  0.7546771E-02  0.1295740E+00
          1   -1    0    0  501    0  0.00000000000E+00  0.00000000000E+00  0.16287506855E+03  0.16287506855E+03  0.00000000000E+00 0. -1.
         -1   -1    0    0    0  501 -0.00000000000E+00 -0.00000000000E+00 -0.13276179141E+02  0.13276179141E+02  0.00000000000E+00 0.  1.
         23    2    1    2    0    0  0.00000000000E+00  0.00000000000E+00  0.14959888941E+03  0.17615124769E+03  0.93002335191E+02 0.  0.
          2    1    3    3  502    0  0.20347787447E+02 -0.34949496734E+02  0.31324504402E+02  0.51153928021E+02  0.00000000000E+00 0. -1.
         -2    1    3    3    0  502 -0.20347787447E+02  0.34949496734E+02  0.11827438501E+03  0.12499731967E+03  0.00000000000E+00 0.  1.
<mgrwt>
<rscale>  0 0.93002335E+02</rscale>
<asrwt>0</asrwt>
<pdfrwt beam="1">  1        1 0.25057701E-01 0.93002335E+02</pdfrwt>
<pdfrwt beam="2">  1       -1 0.20424892E-02 0.93002335E+02</pdfrwt>
<totfact> 0.10792796E+05</totfact>
</mgrwt>
</event>
<event>
 5    1  0.3957498E+001  0.1003755E+03  0.7546771E-02  0.1279508E+00
         -2   -1    0    0    0  501 -0.00000000000E+00  0.00000000000E+00  0.84772936398E+02  0.84772936398E+02  0.00000000000E+00 0. -1.
          2   -1    0    0  501    0  0.00000000000E+00 -0.00000000000E+00 -0.29712449331E+02  0.29712449331E+02  0.00000000000E+00 0.  1.
         23    2    1    2    0    0  0.00000000000E+00  0.00000000000E+00  0.55060487067E+02  0.11448538573E+03  0.10037552645E+03 0.  0.
          2    1    3    3  502    0 -0.26081576230E+02 -0.73228761943E+01  0.75717681606E+02  0.80417911203E+02  0.00000000000E+00 0. -1.
         -2    1    3    3    0  502  0.26081576230E+02  0.73228761943E+01 -0.20657194539E+02  0.34067474527E+02  0.00000000000E+00 0.  1.
<mgrwt>
<rscale>  0 0.10037553E+03</rscale>
<asrwt>0</asrwt>
<pdfrwt beam="2">  1        2 0.45711461E-02 0.10037553E+03</pdfrwt>
<pdfrwt beam="1">  1       -2 0.13041990E-01 0.10037553E+03</pdfrwt>
<totfact> 0.66074092E+04</totfact>
</mgrwt>
</event>
<event>
 5    1  0.3957498E+001  0.9302124E+02  0.7546771E-02  0.1295696E+00
         -2   -1    0    0    0  501 -0.00000000000E+00  0.00000000000E+00  0.38652563509E+01  0.38652563509E+01  0.00000000000E+00 0.  1.
          2   -1    0    0  501    0  0.00000000000E+00 -0.00000000000E+00 -0.55966215345E+03  0.55966215345E+03  0.00000000000E+00 0. -1.
         23    2    1    2    0    0  0.00000000000E+00  0.00000000000E+00 -0.55579689710E+03  0.56352740980E+03  0.93021238283E+02 0.  0.
          2    1    3    3  502    0 -0.40371091613E+02 -0.39648773792E+01 -0.41573640445E+03  0.41771078903E+03  0.00000000000E+00 0. -1.
         -2    1    3    3    0  502  0.40371091613E+02  0.39648773792E+01 -0.14006049265E+03  0.14581662077E+03  0.00000000000E+00 0.  1.
<mgrwt>
<rscale>  0 0.93021238E+02</rscale>
<asrwt>0</asrwt>
<pdfrwt beam="2">  1        2 0.86101882E-01 0.93021238E+02</pdfrwt>
<pdfrwt beam="1">  1       -2 0.59465474E-03 0.93021238E+02</pdfrwt>
<totfact> 0.21172769E+05</totfact>
</mgrwt>
</event>
<event>
 5    1  0.3957498E+001  0.9095716E+02  0.7546771E-02  0.1300550E+00
          2   -1    0    0  501    0  0.00000000000E+00  0.00000000000E+00  0.14922346289E+04  0.14922346289E+04  0.00000000000E+00 0. -1.
         -2   -1    0    0    0  501 -0.00000000000E+00 -0.00000000000E+00 -0.13860428470E+01  0.13860428470E+01  0.00000000000E+00 0.  1.
         23    2    1    2    0    0  0.00000000000E+00  0.00000000000E+00  0.14908485861E+04  0.14936206718E+04  0.90957157685E+02 0.  0.
          2    1    3    3  502    0  0.17901228213E+02  0.12651619924E+02  0.13997577113E+04  0.13999293438E+04  0.00000000000E+00 0. -1.
         -2    1    3    3    0  502 -0.17901228213E+02 -0.12651619924E+02  0.91090874827E+02  0.93691327960E+02  0.00000000000E+00 0.  1.
<mgrwt>
<rscale>  0 0.90957158E+02</rscale>
<asrwt>0</asrwt>
<pdfrwt beam="1">  1        2 0.22957327E+00 0.90957158E+02</pdfrwt>
<pdfrwt beam="2">  1       -2 0.21323855E-03 0.90957158E+02</pdfrwt>
<totfact> 0.23793163E+05</totfact>
</mgrwt>
</event>
<event>
 5    1  0.3957498E+001  0.9083929E+02  0.7546771E-02  0.1300832E+00
          1   -1    0    0  501    0  0.00000000000E+00  0.00000000000E+00  0.31379818774E+03  0.31379818774E+03  0.00000000000E+00 0. -1.
         -1   -1    0    0    0  501 -0.00000000000E+00 -0.00000000000E+00 -0.65741109120E+01  0.65741109120E+01  0.00000000000E+00 0.  1.
         23    2    1    2    0    0  0.00000000000E+00  0.00000000000E+00  0.30722407683E+03  0.32037229865E+03  0.90839288641E+02 0.  0.
          2    1    3    3  502    0 -0.14301436484E+02 -0.15139252322E+02  0.29596633239E+03  0.29669815968E+03  0.00000000000E+00 0. -1.
         -2    1    3    3    0  502  0.14301436484E+02  0.15139252322E+02  0.11257744435E+02  0.23674138974E+02  0.00000000000E+00 0.  1.
<mgrwt>
<rscale>  0 0.90839289E+02</rscale>
<asrwt>0</asrwt>
<pdfrwt beam="1">  1        1 0.48276633E-01 0.90839289E+02</pdfrwt>
<pdfrwt beam="2">  1       -1 0.10114019E-02 0.90839289E+02</pdfrwt>
<totfact> 0.13049938E+05</totfact>
</mgrwt>
</event>
<event>
 5    1  0.3957498E+001  0.9085920E+02  0.7546771E-02  0.1300784E+00
         -2   -1    0    0    0  501 -0.00000000000E+00  0.00000000000E+00  0.14584571534E+03  0.14584571534E+03  0.00000000000E+00 0.  1.
          2   -1    0    0  501    0  0.00000000000E+00 -0.00000000000E+00 -0.14150901978E+02  0.14150901978E+02  0.00000000000E+00 0. -1.
         23    2    1    2    0    0  0.00000000000E+00  0.00000000000E+00  0.13169481336E+03  0.15999661732E+03  0.90859197042E+02 0.  0.
          2    1    3    3  502    0  0.18679417322E+02  0.41186738620E+02  0.73437880325E+02  0.86246103310E+02  0.00000000000E+00 0. -1.
         -2    1    3    3    0  502 -0.18679417322E+02 -0.41186738620E+02  0.58256933040E+02  0.73750514011E+02  0.00000000000E+00 0.  1.
<mgrwt>
<rscale>  0 0.90859197E+02</rscale>
<asrwt>0</asrwt>
<pdfrwt beam="2">  1        2 0.21770619E-02 0.90859197E+02</pdfrwt>
<pdfrwt beam="1">  1       -2 0.22437801E-01 0.90859197E+02</pdfrwt>
<totfact> 0.71194495E+04</totfact>
</mgrwt>
</event>
<event>
 5    1  0.3957498E+001  0.9458852E+02  0.7546771E-02  0.1292106E+00
          1   -1    0    0  501    0  0.00000000000E+00  0.00000000000E+00  0.89717545750E+03  0.89717545750E+03  0.00000000000E+00 0. -1.
         -1   -1    0    0    0  501 -0.00000000000E+00 -0.00000000000E+00 -0.24930989378E+01  0.24930989378E+01  0.00000000000E+00 0.  1.
         23    2    1    2    0    0  0.00000000000E+00  0.00000000000E+00  0.89468235856E+03  0.89966855643E+03  0.94588523196E+02 0.  0.
          2    1    3    3  502    0 -0.31327127897E+02 -0.32991653307E+02  0.57022198199E+03  0.57203404346E+03  0.00000000000E+00 0.  1.
         -2    1    3    3    0  502  0.31327127897E+02  0.32991653307E+02  0.32446037656E+03  0.32763451297E+03  0.00000000000E+00 0. -1.
<mgrwt>
<rscale>  0 0.94588523E+02</rscale>
<asrwt>0</asrwt>
<pdfrwt beam="1">  1        1 0.13802674E+00 0.94588523E+02</pdfrwt>
<pdfrwt beam="2">  1       -1 0.38355440E-03 0.94588523E+02</pdfrwt>
<totfact> 0.12634339E+05</totfact>
</mgrwt>
</event>
<event>
 5    1  0.3957498E+001  0.7626225E+02  0.7546771E-02  0.1340006E+00
         -1   -1    0    0    0  501 -0.00000000000E+00  0.00000000000E+00  0.86059110440E+00  0.86059110440E+00  0.00000000000E+00 0.  1.
          1   -1    0    0  501    0  0.00000000000E+00 -0.00000000000E+00 -0.16895161387E+04  0.16895161387E+04  0.00000000000E+00 0. -1.
         23    2    1    2    0    0  0.00000000000E+00  0.00000000000E+00 -0.16886555476E+04  0.16903767298E+04  0.76262246485E+02 0.  0.
          2    1    3    3  502    0 -0.21807322760E+02  0.94148113198E+01 -0.15055026526E+04  0.15056900195E+04  0.00000000000E+00 0. -1.
         -2    1    3    3    0  502  0.21807322760E+02 -0.94148113198E+01 -0.18315289506E+03  0.18468671031E+03  0.00000000000E+00 0.  1.
<mgrwt>
<rscale>  0 0.76262246E+02</rscale>
<asrwt>0</asrwt>
<pdfrwt beam="2">  1        1 0.25992532E+00 0.76262246E+02</pdfrwt>
<pdfrwt beam="1">  1       -1 0.13239876E-03 0.76262246E+02</pdfrwt>
<totfact> 0.15808670E+05</totfact>
</mgrwt>
</event>
<event>
 5    1  0.3957498E+001  0.9148497E+02  0.7546771E-02  0.1299295E+00
          2   -1    0    0  501    0  0.00000000000E+00  0.00000000000E+00  0.61457084970E+03  0.61457084970E+03  0.00000000000E+00 0. -1.
         -2   -1    0    0    0  501 -0.00000000000E+00 -0.00000000000E+00 -0.34046115572E+01  0.34046115572E+01  0.00000000000E+00 0.  1.
         23    2    1    2    0    0  0.00000000000E+00  0.00000000000E+00  0.61116623814E+03  0.61797546126E+03  0.91484971829E+02 0.  0.
          2    1    3    3  502    0 -0.27880861114E+02  0.51388551185E-01  0.60626434450E+02  0.66730125216E+02  0.00000000000E+00 0.  1.
         -2    1    3    3    0  502  0.27880861114E+02 -0.51388551185E-01  0.55053980369E+03  0.55124533604E+03  0.00000000000E+00 0. -1.
<mgrwt>
<rscale>  0 0.91484972E+02</rscale>
<asrwt>0</asrwt>
<pdfrwt beam="1">  1        2 0.94549274E-01 0.91484972E+02</pdfrwt>
<pdfrwt beam="2">  1       -2 0.52378688E-03 0.91484972E+02</pdfrwt>
<totfact> 0.22734983E+05</totfact>
</mgrwt>
</event>
<event>
 5    1  0.3957498E+001  0.9130413E+02  0.7546771E-02  0.1299724E+00
          3   -1    0    0  501    0  0.00000000000E+00  0.00000000000E+00  0.44159383366E+02  0.44159383366E+02  0.00000000000E+00 0. -1.
         -3   -1    0    0    0  501 -0.00000000000E+00 -0.00000000000E+00 -0.47195197939E+02  0.47195197939E+02  0.00000000000E+00 0.  1.
         23    2    1    2    0    0  0.00000000000E+00  0.00000000000E+00 -0.30358145724E+01  0.91354581305E+02  0.91304125620E+02 0.  0.
          2    1    3    3  502    0 -0.48190131715E+01 -0.38368537938E+02  0.22759533258E+02  0.44870524240E+02  0.00000000000E+00 0. -1.
         -2    1    3    3    0  502  0.48190131715E+01  0.38368537938E+02 -0.25795347831E+02  0.46484057064E+02  0.00000000000E+00 0.  1.
<mgrwt>
<rscale>  0 0.91304126E+02</rscale>
<asrwt>0</asrwt>
<pdfrwt beam="1">  1        3 0.67937513E-02 0.91304126E+02</pdfrwt>
<pdfrwt beam="2">  1       -3 0.72607997E-02 0.91304126E+02</pdfrwt>
<totfact> 0.35190713E+04</totfact>
</mgrwt>
</event>
<event>
 5    1  0.3957498E+001  0.9222350E+02  0.7546771E-02  0.1297555E+00
          2   -1    0    0  501    0  0.00000000000E+00  0.00000000000E+00  0.83933804964E+02  0.83933804964E+02  0.00000000000E+00 0. -1.
         -2   -1    0    0    0  501 -0.00000000000E+00 -0.00000000000E+00 -0.25332979191E+02  0.25332979191E+02  0.00000000000E+00 0.  1.
         23    2    1    2    0    0  0.00000000000E+00  0.00000000000E+00  0.58600825773E+02  0.10926678415E+03  0.92223496671E+02 0.  0.
          2    1    3    3  502    0  0.36116189849E+02 -0.22082249516E+02  0.50962846475E+02  0.66251163263E+02  0.00000000000E+00 0. -1.
         -2    1    3    3    0  502 -0.36116189849E+02  0.22082249516E+02  0.76379792973E+01  0.43015620891E+02  0.00000000000E+00 0.  1.
<mgrwt>
<rscale>  0 0.92223497E+02</rscale>
<asrwt>0</asrwt>
<pdfrwt beam="1">  1        2 0.12912893E-01 0.92223497E+02</pdfrwt>
<pdfrwt beam="2">  1       -2 0.38973815E-02 0.92223497E+02</pdfrwt>
<totfact> 0.11281877E+05</totfact>
</mgrwt>
</event>
<event>
 5    1  0.3957498E+001  0.9289236E+02  0.7546771E-02  0.1295995E+00
          2   -1    0    0  501    0  0.00000000000E+00  0.00000000000E+00  0.16716775775E+02  0.16716775775E+02  0.00000000000E+00 0. -1.
         -2   -1    0    0    0  501 -0.00000000000E+00 -0.00000000000E+00 -0.12904688036E+03  0.12904688036E+03  0.00000000000E+00 0.  1.
         23    2    1    2    0    0  0.00000000000E+00  0.00000000000E+00 -0.11233010459E+03  0.14576365614E+03  0.92892362731E+02 0.  0.
          2    1    3    3  502    0  0.20621419407E+02  0.98135398238E+01  0.72980024101E+01  0.23975181781E+02  0.00000000000E+00 0. -1.
         -2    1    3    3    0  502 -0.20621419407E+02 -0.98135398238E+01 -0.11962810700E+03  0.12178847436E+03  0.00000000000E+00 0.  1.
<mgrwt>
<rscale>  0 0.92892363E+02</rscale>
<asrwt>0</asrwt>
<pdfrwt beam="1">  1        2 0.25718116E-02 0.92892363E+02</pdfrwt>
<pdfrwt beam="2">  1       -2 0.19853367E-01 0.92892363E+02</pdfrwt>
<totfact> 0.70251833E+04</totfact>
</mgrwt>
</event>
<event>
 5    1  0.3957498E+001  0.9286045E+02  0.7546771E-02  0.1296069E+00
          2   -1    0    0  501    0  0.00000000000E+00  0.00000000000E+00  0.19133938223E+03  0.19133938223E+03  0.00000000000E+00 0.  1.
         -2   -1    0    0    0  501 -0.00000000000E+00 -0.00000000000E+00 -0.11266713134E+02  0.11266713134E+02  0.00000000000E+00 0. -1.
         23    2    1    2    0    0  0.00000000000E+00  0.00000000000E+00  0.18007266909E+03  0.20260609536E+03  0.92860452956E+02 0.  0.
          2    1    3    3  502    0  0.24267954667E+02  0.82412894111E+01  0.55648769332E+01  0.26226328950E+02  0.00000000000E+00 0. -1.
         -2    1    3    3    0  502 -0.24267954667E+02 -0.82412894111E+01  0.17450779216E+03  0.17637976641E+03  0.00000000000E+00 0.  1.
<mgrwt>
<rscale>  0 0.92860453E+02</rscale>
<asrwt>0</asrwt>
<pdfrwt beam="1">  1        2 0.29436826E-01 0.92860453E+02</pdfrwt>
<pdfrwt beam="2">  1       -2 0.17333406E-02 0.92860453E+02</pdfrwt>
<totfact> 0.14489274E+05</totfact>
</mgrwt>
</event>
<event>
 5    1  0.3957498E+001  0.9131368E+02  0.7546771E-02  0.1299701E+00
         -2   -1    0    0    0  501 -0.00000000000E+00  0.00000000000E+00  0.10909927208E+01  0.10909927208E+01  0.00000000000E+00 0.  1.
          2   -1    0    0  501    0  0.00000000000E+00 -0.00000000000E+00 -0.19106882067E+04  0.19106882067E+04  0.00000000000E+00 0. -1.
         23    2    1    2    0    0  0.00000000000E+00  0.00000000000E+00 -0.19095972140E+04  0.19117791994E+04  0.91313677511E+02 0.  0.
          2    1    3    3  502    0  0.33125105085E+02 -0.26555073903E+02 -0.13064442817E+04  0.13071339280E+04  0.00000000000E+00 0. -1.
         -2    1    3    3    0  502 -0.33125105085E+02  0.26555073903E+02 -0.60315293230E+03  0.60464527144E+03  0.00000000000E+00 0.  1.
<mgrwt>
<rscale>  0 0.91313678E+02</rscale>
<asrwt>0</asrwt>
<pdfrwt beam="2">  1        2 0.29395091E+00 0.91313678E+02</pdfrwt>
<pdfrwt beam="1">  1       -2 0.16784567E-03 0.91313678E+02</pdfrwt>
<totfact> 0.20404639E+05</totfact>
</mgrwt>
</event>
<event>
 5    1  0.3957498E+001  0.9110306E+02  0.7546771E-02  0.1300202E+00
          1   -1    0    0  501    0  0.00000000000E+00  0.00000000000E+00  0.80237476146E+01  0.80237476146E+01  0.00000000000E+00 0. -1.
         -1   -1    0    0    0  501 -0.00000000000E+00 -0.00000000000E+00 -0.25860008234E+03  0.25860008234E+03  0.00000000000E+00 0.  1.
         23    2    1    2    0    0  0.00000000000E+00  0.00000000000E+00 -0.25057633472E+03  0.26662382995E+03  0.91103057990E+02 0.  0.
          2    1    3    3  502    0 -0.24804754431E+02  0.10974547313E+01 -0.13521191799E+02  0.28271945051E+02  0.00000000000E+00 0. -1.
         -2    1    3    3    0  502  0.24804754431E+02 -0.10974547313E+01 -0.23705514293E+03  0.23835188490E+03  0.00000000000E+00 0.  1.
<mgrwt>
<rscale>  0 0.91103058E+02</rscale>
<asrwt>0</asrwt>
<pdfrwt beam="1">  1        1 0.12344226E-02 0.91103058E+02</pdfrwt>
<pdfrwt beam="2">  1       -1 0.39784630E-01 0.91103058E+02</pdfrwt>
<totfact> 0.64152119E+04</totfact>
</mgrwt>
</event>
<event>
 5    1  0.3957498E+001  0.9100023E+02  0.7546771E-02  0.1300447E+00
         -1   -1    0    0    0  501 -0.00000000000E+00  0.00000000000E+00  0.10595330835E+02  0.10595330835E+02  0.00000000000E+00 0.  1.
          1   -1    0    0  501    0  0.00000000000E+00 -0.00000000000E+00 -0.19539364789E+03  0.19539364789E+03  0.00000000000E+00 0. -1.
         23    2    1    2    0    0  0.00000000000E+00  0.00000000000E+00 -0.18479831705E+03  0.20598897872E+03  0.91000227306E+02 0.  0.
          2    1    3    3  502    0  0.36667974512E+01 -0.38264975126E+02 -0.14750336538E+03  0.15242997252E+03  0.00000000000E+00 0. -1.
         -2    1    3    3    0  502 -0.36667974512E+01  0.38264975126E+02 -0.37294951677E+02  0.53559006204E+02  0.00000000000E+00 0.  1.
<mgrwt>
<rscale>  0 0.91000227E+02</rscale>
<asrwt>0</asrwt>
<pdfrwt beam="2">  1        1 0.30060556E-01 0.91000227E+02</pdfrwt>
<pdfrwt beam="1">  1       -1 0.16300512E-02 0.91000227E+02</pdfrwt>
<totfact> 0.11848785E+05</totfact>
</mgrwt>
</event>
<event>
 5    1  0.3957498E+001  0.9188441E+02  0.7546771E-02  0.1298351E+00
          4   -1    0    0  501    0  0.00000000000E+00  0.00000000000E+00  0.39437832186E+02  0.39437832186E+02  0.00000000000E+00 0. -1.
         -4   -1    0    0    0  501 -0.00000000000E+00 -0.00000000000E+00 -0.53519330150E+02  0.53519330150E+02  0.00000000000E+00 0.  1.
         23    2    1    2    0    0  0.00000000000E+00  0.00000000000E+00 -0.14081497963E+02  0.92957162336E+02  0.91884413502E+02 0.  0.
          2    1    3    3  502    0  0.11673225954E+02 -0.37044489649E+02  0.17784030616E+02  0.42718030883E+02  0.00000000000E+00 0. -1.
         -2    1    3    3    0  502 -0.11673225954E+02  0.37044489649E+02 -0.31865528579E+02  0.50239131453E+02  0.00000000000E+00 0.  1.
<mgrwt>
<rscale>  0 0.91884414E+02</rscale>
<asrwt>0</asrwt>
<pdfrwt beam="1">  1        4 0.60673588E-02 0.91884414E+02</pdfrwt>
<pdfrwt beam="2">  1       -4 0.82337430E-02 0.91884414E+02</pdfrwt>
<totfact> 0.26342423E+04</totfact>
</mgrwt>
</event>
<event>
 5    1  0.3957498E+001  0.9275807E+02  0.7546771E-02  0.1296307E+00
          1   -1    0    0  501    0  0.00000000000E+00  0.00000000000E+00  0.53913110991E+03  0.53913110991E+03  0.00000000000E+00 0. -1.
         -1   -1    0    0    0  501 -0.00000000000E+00 -0.00000000000E+00 -0.39897809496E+01  0.39897809496E+01  0.00000000000E+00 0.  1.
         23    2    1    2    0    0  0.00000000000E+00  0.00000000000E+00  0.53514132896E+03  0.54312089086E+03  0.92758073107E+02 0.  0.
          2    1    3    3  502    0 -0.37344736452E+02 -0.19775693894E+02  0.37948202009E+03  0.38182759327E+03  0.00000000000E+00 0. -1.
         -2    1    3    3    0  502  0.37344736452E+02  0.19775693894E+02  0.15565930886E+03  0.16129329758E+03  0.00000000000E+00 0.  1.
<mgrwt>
<rscale>  0 0.92758073E+02</rscale>
<asrwt>0</asrwt>
<pdfrwt beam="1">  1        1 0.82943190E-01 0.92758073E+02</pdfrwt>
<pdfrwt beam="2">  1       -1 0.61381288E-03 0.92758073E+02</pdfrwt>
<totfact> 0.13414131E+05</totfact>
</mgrwt>
</event>
<event>
 5    1  0.3957498E+001  0.9005863E+02  0.7546771E-02  0.1302710E+00
         -3   -1    0    0    0  501 -0.00000000000E+00  0.00000000000E+00  0.18814209245E+02  0.18814209245E+02  0.00000000000E+00 0.  1.
          3   -1    0    0  501    0  0.00000000000E+00 -0.00000000000E+00 -0.10777169427E+03  0.10777169427E+03  0.00000000000E+00 0. -1.
         23    2    1    2    0    0  0.00000000000E+00  0.00000000000E+00 -0.88957485025E+02  0.12658590352E+03  0.90058629941E+02 0.  0.
          2    1    3    3  502    0 -0.30459324756E+02  0.18898065293E+02 -0.82785557119E+02  0.90212836137E+02  0.00000000000E+00 0. -1.
         -2    1    3    3    0  502  0.30459324756E+02 -0.18898065293E+02 -0.61719279064E+01  0.36373067379E+02  0.00000000000E+00 0.  1.
<mgrwt>
<rscale>  0 0.90058630E+02</rscale>
<asrwt>0</asrwt>
<pdfrwt beam="2">  1        3 0.16580260E-01 0.90058630E+02</pdfrwt>
<pdfrwt beam="1">  1       -3 0.28944938E-02 0.90058630E+02</pdfrwt>
<totfact> 0.33916717E+04</totfact>
</mgrwt>
</event>
<event>
 5    1  0.3957498E+001  0.9030937E+02  0.7546771E-02  0.1302104E+00
         -1   -1    0    0    0  501 -0.00000000000E+00  0.00000000000E+00  0.19354492714E+01  0.19354492714E+01  0.00000000000E+00 0.  1.
          1   -1    0    0  501    0  0.00000000000E+00 -0.00000000000E+00 -0.10534739572E+04  0.10534739572E+04  0.00000000000E+00 0. -1.
         23    2    1    2    0    0  0.00000000000E+00  0.00000000000E+00 -0.10515385079E+04  0.10554094065E+04  0.90309366134E+02 0.  0.
          2    1    3    3  502    0 -0.29083257633E+02 -0.31261552689E+02 -0.69745683915E+03  0.69876259418E+03  0.00000000000E+00 0. -1.
         -2    1    3    3    0  502  0.29083257633E+02  0.31261552689E+02 -0.35408166879E+03  0.35664681230E+03  0.00000000000E+00 0.  1.
<mgrwt>
<rscale>  0 0.90309366E+02</rscale>
<asrwt>0</asrwt>
<pdfrwt beam="2">  1        1 0.16207245E+00 0.90309366E+02</pdfrwt>
<pdfrwt beam="1">  1       -1 0.29776228E-03 0.90309366E+02</pdfrwt>
<totfact> 0.13739118E+05</totfact>
</mgrwt>
</event>
<event>
 5    1  0.3957498E+001  0.9230627E+02  0.7546771E-02  0.1297361E+00
          3   -1    0    0  501    0  0.00000000000E+00  0.00000000000E+00  0.31492144583E+03  0.31492144583E+03  0.00000000000E+00 0. -1.
         -3   -1    0    0    0  501 -0.00000000000E+00 -0.00000000000E+00 -0.67639461176E+01  0.67639461176E+01  0.00000000000E+00 0.  1.
         23    2    1    2    0    0  0.00000000000E+00  0.00000000000E+00  0.30815749971E+03  0.32168539195E+03  0.92306266111E+02 0.  0.
          2    1    3    3  502    0 -0.11193769831E+02 -0.26819341304E+02  0.29127109095E+02  0.41145668487E+02  0.00000000000E+00 0. -1.
         -2    1    3    3    0  502  0.11193769831E+02  0.26819341304E+02  0.27903039062E+03  0.28053972346E+03  0.00000000000E+00 0.  1.
<mgrwt>
<rscale>  0 0.92306266E+02</rscale>
<asrwt>0</asrwt>
<pdfrwt beam="1">  1        3 0.48449442E-01 0.92306266E+02</pdfrwt>
<pdfrwt beam="2">  1       -3 0.10406073E-02 0.92306266E+02</pdfrwt>
<totfact> 0.22460358E+04</totfact>
</mgrwt>
</event>
<event>
 5    1  0.3957498E+001  0.9033970E+02  0.7546771E-02  0.1302031E+00
         -2   -1    0    0    0  501 -0.00000000000E+00  0.00000000000E+00  0.83511786712E+01  0.83511786712E+01  0.00000000000E+00 0.  1.
          2   -1    0    0  501    0  0.00000000000E+00 -0.00000000000E+00 -0.24431464990E+03  0.24431464990E+03  0.00000000000E+00 0. -1.
         23    2    1    2    0    0  0.00000000000E+00  0.00000000000E+00 -0.23596347123E+03  0.25266582857E+03  0.90339698767E+02 0.  0.
          2    1    3    3  502    0  0.31435933041E+02  0.26015425981E+02 -0.17216364080E+03  0.17693314978E+03  0.00000000000E+00 0. -1.
         -2    1    3    3    0  502 -0.31435933041E+02 -0.26015425981E+02 -0.63799830425E+02  0.75732678794E+02  0.00000000000E+00 0.  1.
<mgrwt>
<rscale>  0 0.90339699E+02</rscale>
<asrwt>0</asrwt>
<pdfrwt beam="2">  1        2 0.37586875E-01 0.90339699E+02</pdfrwt>
<pdfrwt beam="1">  1       -2 0.12847965E-02 0.90339699E+02</pdfrwt>
<totfact> 0.17059891E+05</totfact>
</mgrwt>
</event>
<event>
 5    1  0.3957498E+001  0.7956003E+02  0.7546771E-02  0.1330305E+00
          1   -1    0    0  501    0  0.00000000000E+00  0.00000000000E+00  0.42409228694E+03  0.42409228694E+03  0.00000000000E+00 0. -1.
         -1   -1    0    0    0  501 -0.00000000000E+00 -0.00000000000E+00 -0.37313804641E+01  0.37313804641E+01  0.00000000000E+00 0.  1.
         23    2    1    2    0    0  0.00000000000E+00  0.00000000000E+00  0.42036090648E+03  0.42782366741E+03  0.79560032038E+02 0.  0.
          2    1    3    3  502    0 -0.54030799956E+01 -0.20270161040E+02  0.39193051915E+03  0.39249153436E+03  0.00000000000E+00 0. -1.
         -2    1    3    3    0  502  0.54030799956E+01  0.20270161040E+02  0.28430387326E+02  0.35332133046E+02  0.00000000000E+00 0.  1.
<mgrwt>
<rscale>  0 0.79560032E+02</rscale>
<asrwt>0</asrwt>
<pdfrwt beam="1">  1        1 0.65244929E-01 0.79560032E+02</pdfrwt>
<pdfrwt beam="2">  1       -1 0.57405887E-03 0.79560032E+02</pdfrwt>
<totfact> 0.19498365E+05</totfact>
</mgrwt>
</event>
<event>
 5    1  0.3957498E+001  0.9002243E+02  0.7546771E-02  0.1302797E+00
         -1   -1    0    0    0  501 -0.00000000000E+00  0.00000000000E+00  0.32629865531E+02  0.32629865531E+02  0.00000000000E+00 0.  1.
          1   -1    0    0  501    0  0.00000000000E+00 -0.00000000000E+00 -0.62090652383E+02  0.62090652383E+02  0.00000000000E+00 0. -1.
         23    2    1    2    0    0  0.00000000000E+00  0.00000000000E+00 -0.29460786851E+02  0.94720517914E+02  0.90022433604E+02 0.  0.
          2    1    3    3  502    0  0.35596166326E+01  0.32198612282E+02 -0.47611697740E+02  0.57587283884E+02  0.00000000000E+00 0. -1.
         -2    1    3    3    0  502 -0.35596166326E+01 -0.32198612282E+02  0.18150910889E+02  0.37133234030E+02  0.00000000000E+00 0.  1.
<mgrwt>
<rscale>  0 0.90022434E+02</rscale>
<asrwt>0</asrwt>
<pdfrwt beam="2">  1        1 0.95524081E-02 0.90022434E+02</pdfrwt>
<pdfrwt beam="1">  1       -1 0.50199793E-02 0.90022434E+02</pdfrwt>
<totfact> 0.10034736E+05</totfact>
</mgrwt>
</event>
<event>
 5    1  0.3957498E+001  0.9043176E+02  0.7546771E-02  0.1301809E+00
          2   -1    0    0  501    0  0.00000000000E+00  0.00000000000E+00  0.78834264541E+03  0.78834264541E+03  0.00000000000E+00 0.  1.
         -2   -1    0    0    0  501 -0.00000000000E+00 -0.00000000000E+00 -0.25933850273E+01  0.25933850273E+01  0.00000000000E+00 0. -1.
         23    2    1    2    0    0  0.00000000000E+00  0.00000000000E+00  0.78574926039E+03  0.79093603044E+03  0.90431764618E+02 0.  0.
          2    1    3    3  502    0 -0.22643821438E+02 -0.33825415772E+02  0.22068855982E+03  0.22441110007E+03  0.00000000000E+00 0. -1.
         -2    1    3    3    0  502  0.22643821438E+02  0.33825415772E+02  0.56506070057E+03  0.56652493037E+03  0.00000000000E+00 0.  1.
<mgrwt>
<rscale>  0 0.90431765E+02</rscale>
<asrwt>0</asrwt>
<pdfrwt beam="1">  1        2 0.12128329E+00 0.90431765E+02</pdfrwt>
<pdfrwt beam="2">  1       -2 0.39898294E-03 0.90431765E+02</pdfrwt>
<totfact> 0.24841089E+05</totfact>
</mgrwt>
</event>
<event>
 5    1  0.3957498E+001  0.9804844E+02  0.7546771E-02  0.1284454E+00
         -2   -1    0    0    0  501 -0.00000000000E+00  0.00000000000E+00  0.20274572576E+01  0.20274572576E+01  0.00000000000E+00 0.  1.
          2   -1    0    0  501    0  0.00000000000E+00 -0.00000000000E+00 -0.11854130552E+04  0.11854130552E+04  0.00000000000E+00 0. -1.
         23    2    1    2    0    0  0.00000000000E+00  0.00000000000E+00 -0.11833855980E+04  0.11874405125E+04  0.98048443172E+02 0.  0.
          2    1    3    3  502    0  0.19044872920E+02 -0.44740469383E+02 -0.66728322511E+03  0.66905255347E+03  0.00000000000E+00 0. -1.
         -2    1    3    3    0  502 -0.19044872920E+02  0.44740469383E+02 -0.51610237287E+03  0.51838795903E+03  0.00000000000E+00 0.  1.
<mgrwt>
<rscale>  0 0.98048443E+02</rscale>
<asrwt>0</asrwt>
<pdfrwt beam="2">  1        2 0.18237089E+00 0.98048443E+02</pdfrwt>
<pdfrwt beam="1">  1       -2 0.31191710E-03 0.98048443E+02</pdfrwt>
<totfact> 0.20550941E+05</totfact>
</mgrwt>
</event>
<event>
 5    1  0.3957498E+001  0.9224532E+02  0.7546771E-02  0.1297504E+00
         -1   -1    0    0    0  501 -0.00000000000E+00  0.00000000000E+00  0.86392708105E+00  0.86392708105E+00  0.00000000000E+00 0.  1.
          1   -1    0    0  501    0  0.00000000000E+00 -0.00000000000E+00 -0.24623603571E+04  0.24623603571E+04  0.00000000000E+00 0. -1.
         23    2    1    2    0    0  0.00000000000E+00  0.00000000000E+00 -0.24614964300E+04  0.24632242841E+04  0.92245320657E+02 0.  0.
          2    1    3    3  502    0 -0.29831579194E+02  0.31128034148E+02 -0.16682388925E+04  0.16687959372E+04  0.00000000000E+00 0. -1.
         -2    1    3    3    0  502  0.29831579194E+02 -0.31128034148E+02 -0.79325753753E+03  0.79442834697E+03  0.00000000000E+00 0.  1.
<mgrwt>
<rscale>  0 0.92245321E+02</rscale>
<asrwt>0</asrwt>
<pdfrwt beam="2">  1        1 0.37882514E+00 0.92245321E+02</pdfrwt>
<pdfrwt beam="1">  1       -1 0.13291170E-03 0.92245321E+02</pdfrwt>
<totfact> 0.52503554E+04</totfact>
</mgrwt>
</event>
<event>
 5    1  0.3957498E+001  0.9070825E+02  0.7546771E-02  0.1301146E+00
         -2   -1    0    0    0  501 -0.00000000000E+00  0.00000000000E+00  0.52765348522E+01  0.52765348522E+01  0.00000000000E+00 0.  1.
          2   -1    0    0  501    0  0.00000000000E+00 -0.00000000000E+00 -0.38983852937E+03  0.38983852937E+03  0.00000000000E+00 0. -1.
         23    2    1    2    0    0  0.00000000000E+00  0.00000000000E+00 -0.38456199452E+03  0.39511506422E+03  0.90708248511E+02 0.  0.
          2    1    3    3  502    0  0.21914211019E+01  0.43136635719E+02 -0.25254750737E+03  0.25621439293E+03  0.00000000000E+00 0. -1.
         -2    1    3    3    0  502 -0.21914211019E+01 -0.43136635719E+02 -0.13201448715E+03  0.13890067129E+03  0.00000000000E+00 0.  1.
<mgrwt>
<rscale>  0 0.90708249E+02</rscale>
<asrwt>0</asrwt>
<pdfrwt beam="2">  1        2 0.59975186E-01 0.90708249E+02</pdfrwt>
<pdfrwt beam="1">  1       -2 0.81177422E-03 0.90708249E+02</pdfrwt>
<totfact> 0.20051445E+05</totfact>
</mgrwt>
</event>
<event>
 5    1  0.3957498E+001  0.9198004E+02  0.7546771E-02  0.1298126E+00
         -2   -1    0    0    0  501 -0.00000000000E+00  0.00000000000E+00  0.68806723478E+01  0.68806723478E+01  0.00000000000E+00 0.  1.
          2   -1    0    0  501    0  0.00000000000E+00 -0.00000000000E+00 -0.30739465722E+03  0.30739465722E+03  0.00000000000E+00 0. -1.
         23    2    1    2    0    0  0.00000000000E+00  0.00000000000E+00 -0.30051398487E+03  0.31427532956E+03  0.91980039525E+02 0.  0.
          2    1    3    3  502    0  0.43163011582E+02  0.25721533658E+01 -0.20378388198E+03  0.20832074332E+03  0.00000000000E+00 0. -1.
         -2    1    3    3    0  502 -0.43163011582E+02 -0.25721533658E+01 -0.96730102890E+02  0.10595458625E+03  0.00000000000E+00 0.  1.
<mgrwt>
<rscale>  0 0.91980040E+02</rscale>
<asrwt>0</asrwt>
<pdfrwt beam="2">  1        2 0.47291488E-01 0.91980040E+02</pdfrwt>
<pdfrwt beam="1">  1       -2 0.10585649E-02 0.91980040E+02</pdfrwt>
<totfact> 0.17709924E+05</totfact>
</mgrwt>
</event>
<event>
 5    1  0.3957498E+001  0.8556875E+02  0.7546771E-02  0.1313952E+00
          1   -1    0    0  501    0  0.00000000000E+00  0.00000000000E+00  0.61581711774E+02  0.61581711774E+02  0.00000000000E+00 0. -1.
         -1   -1    0    0    0  501 -0.00000000000E+00 -0.00000000000E+00 -0.29724776917E+02  0.29724776917E+02  0.00000000000E+00 0.  1.
         23    2    1    2    0    0  0.00000000000E+00  0.00000000000E+00  0.31856934857E+02  0.91306488691E+02  0.85568747675E+02 0.  0.
          2    1    3    3  502    0  0.30035282305E+02 -0.52904043348E+00  0.48436068621E+02  0.56995182343E+02  0.00000000000E+00 0. -1.
         -2    1    3    3    0  502 -0.30035282305E+02  0.52904043348E+00 -0.16579133763E+02  0.34311306348E+02  0.00000000000E+00 0.  1.
<mgrwt>
<rscale>  0 0.85568748E+02</rscale>
<asrwt>0</asrwt>
<pdfrwt beam="1">  1        1 0.94741095E-02 0.85568748E+02</pdfrwt>
<pdfrwt beam="2">  1       -1 0.45730426E-02 0.85568748E+02</pdfrwt>
<totfact> 0.11524918E+05</totfact>
</mgrwt>
</event>
<event>
 5    1  0.3957498E+001  0.7892761E+02  0.7546771E-02  0.1332123E+00
         -3   -1    0    0    0  501 -0.00000000000E+00  0.00000000000E+00  0.58235213072E+02  0.58235213072E+02  0.00000000000E+00 0.  1.
          3   -1    0    0  501    0  0.00000000000E+00 -0.00000000000E+00 -0.26743127569E+02  0.26743127569E+02  0.00000000000E+00 0. -1.
         23    2    1    2    0    0  0.00000000000E+00  0.00000000000E+00  0.31492085503E+02  0.84978340642E+02  0.78927605620E+02 0.  0.
          2    1    3    3  502    0  0.27964117474E+02 -0.11301611834E+02 -0.11654386149E+02  0.32334857548E+02  0.00000000000E+00 0. -1.
         -2    1    3    3    0  502 -0.27964117474E+02  0.11301611834E+02  0.43146471652E+02  0.52643483093E+02  0.00000000000E+00 0.  1.
<mgrwt>
<rscale>  0 0.78927606E+02</rscale>
<asrwt>0</asrwt>
<pdfrwt beam="2">  1        3 0.41143273E-02 0.78927606E+02</pdfrwt>
<pdfrwt beam="1">  1       -3 0.89592636E-02 0.78927606E+02</pdfrwt>
<totfact> 0.52890663E+04</totfact>
</mgrwt>
</event>
<event>
 5    1  0.3957498E+001  0.9086734E+02  0.7546771E-02  0.1300765E+00
         -1   -1    0    0    0  501 -0.00000000000E+00  0.00000000000E+00  0.76353691399E+02  0.76353691399E+02  0.00000000000E+00 0.  1.
          1   -1    0    0  501    0  0.00000000000E+00 -0.00000000000E+00 -0.27034951689E+02  0.27034951689E+02  0.00000000000E+00 0. -1.
         23    2    1    2    0    0  0.00000000000E+00  0.00000000000E+00  0.49318739709E+02  0.10338864309E+03  0.90867339749E+02 0.  0.
          2    1    3    3  502    0 -0.29337641261E+02 -0.27228379179E+02  0.19972360709E+00  0.40026512676E+02  0.00000000000E+00 0. -1.
         -2    1    3    3    0  502  0.29337641261E+02  0.27228379179E+02  0.49119016102E+02  0.63362130412E+02  0.00000000000E+00 0.  1.
<mgrwt>
<rscale>  0 0.90867340E+02</rscale>
<asrwt>0</asrwt>
<pdfrwt beam="2">  1        1 0.41592234E-02 0.90867340E+02</pdfrwt>
<pdfrwt beam="1">  1       -1 0.11746722E-01 0.90867340E+02</pdfrwt>
<totfact> 0.86060142E+04</totfact>
</mgrwt>
</event>
<event>
 5    1  0.3957498E+001  0.8670551E+02  0.7546771E-02  0.1311032E+00
         -2   -1    0    0    0  501 -0.00000000000E+00  0.00000000000E+00  0.45572329986E+01  0.45572329986E+01  0.00000000000E+00 0.  1.
          2   -1    0    0  501    0  0.00000000000E+00 -0.00000000000E+00 -0.41241286359E+03  0.41241286359E+03  0.00000000000E+00 0. -1.
         23    2    1    2    0    0  0.00000000000E+00  0.00000000000E+00 -0.40785563059E+03  0.41697009659E+03  0.86705513343E+02 0.  0.
          2    1    3    3  502    0  0.33955416845E+01 -0.36426110103E+02 -0.31579045112E+03  0.31790250112E+03  0.00000000000E+00 0. -1.
         -2    1    3    3    0  502 -0.33955416845E+01  0.36426110103E+02 -0.92065179469E+02  0.99067595465E+02  0.00000000000E+00 0.  1.
<mgrwt>
<rscale>  0 0.86705513E+02</rscale>
<asrwt>0</asrwt>
<pdfrwt beam="2">  1        2 0.63448119E-01 0.86705513E+02</pdfrwt>
<pdfrwt beam="1">  1       -2 0.70111292E-03 0.86705513E+02</pdfrwt>
<totfact> 0.23052065E+05</totfact>
</mgrwt>
</event>
<event>
 5    1  0.3957498E+001  0.9156228E+02  0.7546771E-02  0.1299112E+00
          2   -1    0    0  501    0  0.00000000000E+00  0.00000000000E+00  0.75974695142E+03  0.75974695142E+03  0.00000000000E+00 0. -1.
         -2   -1    0    0    0  501 -0.00000000000E+00 -0.00000000000E+00 -0.27586987732E+01  0.27586987732E+01  0.00000000000E+00 0.  1.
         23    2    1    2    0    0  0.00000000000E+00  0.00000000000E+00  0.75698825264E+03  0.76250565019E+03  0.91562284437E+02 0.  0.
          2    1    3    3  502    0  0.34217925030E+02  0.14026270976E+02  0.15375190135E+03  0.15813680735E+03  0.00000000000E+00 0. -1.
         -2    1    3    3    0  502 -0.34217925030E+02 -0.14026270976E+02  0.60323635129E+03  0.60436884284E+03  0.00000000000E+00 0.  1.
<mgrwt>
<rscale>  0 0.91562284E+02</rscale>
<asrwt>0</asrwt>
<pdfrwt beam="1">  1        2 0.11688398E+00 0.91562284E+02</pdfrwt>
<pdfrwt beam="2">  1       -2 0.42441580E-03 0.91562284E+02</pdfrwt>
<totfact> 0.23871787E+05</totfact>
</mgrwt>
</event>
<event>
 5    1  0.3957498E+001  0.9341646E+02  0.7546771E-02  0.1294783E+00
          1   -1    0    0  501    0  0.00000000000E+00  0.00000000000E+00  0.32634056214E+03  0.32634056214E+03  0.00000000000E+00 0. -1.
         -1   -1    0    0    0  501 -0.00000000000E+00 -0.00000000000E+00 -0.66852202214E+01  0.66852202214E+01  0.00000000000E+00 0.  1.
         23    2    1    2    0    0  0.00000000000E+00  0.00000000000E+00  0.31965534192E+03  0.33302578236E+03  0.93416455190E+02 0.  0.
          2    1    3    3  502    0  0.13012794635E+02 -0.27942223097E+02  0.34720591575E+02  0.46428656400E+02  0.00000000000E+00 0.  1.
         -2    1    3    3    0  502 -0.13012794635E+02  0.27942223097E+02  0.28493475034E+03  0.28659712596E+03  0.00000000000E+00 0. -1.
<mgrwt>
<rscale>  0 0.93416455E+02</rscale>
<asrwt>0</asrwt>
<pdfrwt beam="1">  1        1 0.50206228E-01 0.93416455E+02</pdfrwt>
<pdfrwt beam="2">  1       -1 0.10284957E-02 0.93416455E+02</pdfrwt>
<totfact> 0.12200919E+05</totfact>
</mgrwt>
</event>
<event>
 5    1  0.3957498E+001  0.9106968E+02  0.7546771E-02  0.1300282E+00
         -1   -1    0    0    0  501 -0.00000000000E+00  0.00000000000E+00  0.17167280733E+01  0.17167280733E+01  0.00000000000E+00 0.  1.
          1   -1    0    0  501    0  0.00000000000E+00 -0.00000000000E+00 -0.12077751869E+04  0.12077751869E+04  0.00000000000E+00 0. -1.
         23    2    1    2    0    0  0.00000000000E+00  0.00000000000E+00 -0.12060584589E+04  0.12094919150E+04  0.91069678152E+02 0.  0.
          2    1    3    3  502    0  0.32437915185E+02  0.14245232975E+02 -0.98293791684E+03  0.98357617569E+03  0.00000000000E+00 0. -1.
         -2    1    3    3    0  502 -0.32437915185E+02 -0.14245232975E+02 -0.22312054202E+03  0.22591573933E+03  0.00000000000E+00 0.  1.
<mgrwt>
<rscale>  0 0.91069678E+02</rscale>
<asrwt>0</asrwt>
<pdfrwt beam="2">  1        1 0.18581183E+00 0.91069678E+02</pdfrwt>
<pdfrwt beam="1">  1       -1 0.26411164E-03 0.91069678E+02</pdfrwt>
<totfact> 0.12730729E+05</totfact>
</mgrwt>
</event>
<event>
 5    1  0.3957498E+001  0.7069505E+02  0.7546771E-02  0.1357745E+00
         -2   -1    0    0    0  501 -0.00000000000E+00  0.00000000000E+00  0.66397483432E+00  0.66397483432E+00  0.00000000000E+00 0.  1.
          2   -1    0    0  501    0  0.00000000000E+00 -0.00000000000E+00 -0.18817695454E+04  0.18817695454E+04  0.00000000000E+00 0. -1.
         23    2    1    2    0    0  0.00000000000E+00  0.00000000000E+00 -0.18811055706E+04  0.18824335202E+04  0.70695052786E+02 0.  0.
          2    1    3    3  502    0  0.28118156994E+02  0.46590653460E+01 -0.38384667833E+03  0.38490337762E+03  0.00000000000E+00 0. -1.
         -2    1    3    3    0  502 -0.28118156994E+02 -0.46590653460E+01 -0.14972588922E+04  0.14975301426E+04  0.00000000000E+00 0.  1.
<mgrwt>
<rscale>  0 0.70695053E+02</rscale>
<asrwt>0</asrwt>
<pdfrwt beam="2">  1        2 0.28950326E+00 0.70695053E+02</pdfrwt>
<pdfrwt beam="1">  1       -2 0.10214989E-03 0.70695053E+02</pdfrwt>
<totfact> 0.40276948E+05</totfact>
</mgrwt>
</event>
<event>
 5    1  0.3957498E+001  0.1168246E+03  0.7546771E-02  0.1248429E+00
          2   -1    0    0  501    0  0.00000000000E+00  0.00000000000E+00  0.10671964774E+04  0.10671964774E+04  0.00000000000E+00 0. -1.
         -2   -1    0    0    0  501 -0.00000000000E+00 -0.00000000000E+00 -0.31971588606E+01  0.31971588606E+01  0.00000000000E+00 0.  1.
         23    2    1    2    0    0  0.00000000000E+00  0.00000000000E+00  0.10639993185E+04  0.10703936363E+04  0.11682459799E+03 0.  0.
          2    1    3    3  502    0 -0.37861200700E+01  0.50989843126E+02  0.27322101189E+03  0.27796406269E+03  0.00000000000E+00 0. -1.
         -2    1    3    3    0  502  0.37861200700E+01 -0.50989843126E+02  0.79077830664E+03  0.79242957357E+03  0.00000000000E+00 0.  1.
<mgrwt>
<rscale>  0 0.11682460E+03</rscale>
<asrwt>0</asrwt>
<pdfrwt beam="1">  1        2 0.16418379E+00 0.11682460E+03</pdfrwt>
<pdfrwt beam="2">  1       -2 0.49187145E-03 0.11682460E+03</pdfrwt>
<totfact> 0.12931430E+05</totfact>
</mgrwt>
</event>
<event>
 5    1  0.3957498E+001  0.8895371E+02  0.7546771E-02  0.1305405E+00
          2   -1    0    0  501    0  0.00000000000E+00  0.00000000000E+00  0.27868931437E+03  0.27868931437E+03  0.00000000000E+00 0. -1.
         -2   -1    0    0    0  501 -0.00000000000E+00 -0.00000000000E+00 -0.70981930646E+01  0.70981930646E+01  0.00000000000E+00 0.  1.
         23    2    1    2    0    0  0.00000000000E+00  0.00000000000E+00  0.27159112130E+03  0.28578750743E+03  0.88953708376E+02 0.  0.
          2    1    3    3  502    0 -0.18598024687E+02  0.12838926282E+02  0.25886867988E+03  0.25985326239E+03  0.00000000000E+00 0. -1.
         -2    1    3    3    0  502  0.18598024687E+02 -0.12838926282E+02  0.12722441424E+02  0.25934245046E+02  0.00000000000E+00 0.  1.
<mgrwt>
<rscale>  0 0.88953708E+02</rscale>
<asrwt>0</asrwt>
<pdfrwt beam="1">  1        2 0.42875271E-01 0.88953708E+02</pdfrwt>
<pdfrwt beam="2">  1       -2 0.10920299E-02 0.88953708E+02</pdfrwt>
<totfact> 0.18668426E+05</totfact>
</mgrwt>
</event>
<event>
 5    1  0.3957498E+001  0.9151255E+02  0.7546771E-02  0.1299230E+00
          2   -1    0    0  501    0  0.00000000000E+00  0.00000000000E+00  0.73658904380E+03  0.73658904380E+03  0.00000000000E+00 0. -1.
         -2   -1    0    0    0  501 -0.00000000000E+00 -0.00000000000E+00 -0.28423403177E+01  0.28423403177E+01  0.00000000000E+00 0.  1.
         23    2    1    2    0    0  0.00000000000E+00  0.00000000000E+00  0.73374670348E+03  0.73943138412E+03  0.91512550762E+02 0.  0.
          2    1    3    3  502    0  0.73400653076E+01 -0.33817651782E+02  0.60875443490E+03  0.60973721565E+03  0.00000000000E+00 0. -1.
         -2    1    3    3    0  502 -0.73400653076E+01  0.33817651782E+02  0.12499226858E+03  0.12969416847E+03  0.00000000000E+00 0.  1.
<mgrwt>
<rscale>  0 0.91512551E+02</rscale>
<asrwt>0</asrwt>
<pdfrwt beam="1">  1        2 0.11332124E+00 0.91512551E+02</pdfrwt>
<pdfrwt beam="2">  1       -2 0.43728371E-03 0.91512551E+02</pdfrwt>
<totfact> 0.23753859E+05</totfact>
</mgrwt>
</event>
<event>
 5    1  0.3957498E+001  0.6589932E+02  0.7546771E-02  0.1374620E+00
          1   -1    0    0  501    0  0.00000000000E+00  0.00000000000E+00  0.14119614735E+04  0.14119614735E+04  0.00000000000E+00 0. -1.
         -1   -1    0    0    0  501 -0.00000000000E+00 -0.00000000000E+00 -0.76891612333E+00  0.76891612333E+00  0.00000000000E+00 0.  1.
         23    2    1    2    0    0  0.00000000000E+00  0.00000000000E+00  0.14111925574E+04  0.14127303897E+04  0.65899315399E+02 0.  0.
          2    1    3    3  502    0  0.25137327753E+02  0.10638282585E+01  0.11617023641E+04  0.11619747845E+04  0.00000000000E+00 0. -1.
         -2    1    3    3    0  502 -0.25137327753E+02 -0.10638282585E+01  0.24949019331E+03  0.25075560519E+03  0.00000000000E+00 0.  1.
<mgrwt>
<rscale>  0 0.65899315E+02</rscale>
<asrwt>0</asrwt>
<pdfrwt beam="1">  1        1 0.21722277E+00 0.65899315E+02</pdfrwt>
<pdfrwt beam="2">  1       -1 0.11829592E-03 0.65899315E+02</pdfrwt>
<totfact> 0.26968031E+05</totfact>
</mgrwt>
</event>
<event>
 5    1  0.3957498E+001  0.9022213E+02  0.7546771E-02  0.1302315E+00
          1   -1    0    0  501    0  0.00000000000E+00  0.00000000000E+00  0.74978022343E+03  0.74978022343E+03  0.00000000000E+00 0. -1.
         -1   -1    0    0    0  501 -0.00000000000E+00 -0.00000000000E+00 -0.27141393831E+01  0.27141393831E+01  0.00000000000E+00 0.  1.
         23    2    1    2    0    0  0.00000000000E+00  0.00000000000E+00  0.74706608404E+03  0.75249436281E+03  0.90222126622E+02 0.  0.
          2    1    3    3  502    0  0.19285978919E+02 -0.53014842382E+01  0.36290100007E+02  0.41437013364E+02  0.00000000000E+00 0.  1.
         -2    1    3    3    0  502 -0.19285978919E+02  0.53014842382E+01  0.71077598404E+03  0.71105734945E+03  0.00000000000E+00 0. -1.
<mgrwt>
<rscale>  0 0.90222127E+02</rscale>
<asrwt>0</asrwt>
<pdfrwt beam="1">  1        1 0.11535064E+00 0.90222127E+02</pdfrwt>
<pdfrwt beam="2">  1       -1 0.41756050E-03 0.90222127E+02</pdfrwt>
<totfact> 0.14591180E+05</totfact>
</mgrwt>
</event>
<event>
 5    1  0.3957498E+001  0.8087244E+02  0.7546771E-02  0.1326594E+00
         -1   -1    0    0    0  501 -0.00000000000E+00  0.00000000000E+00  0.20968950087E+01  0.20968950087E+01  0.00000000000E+00 0.  1.
          1   -1    0    0  501    0  0.00000000000E+00 -0.00000000000E+00 -0.77976627621E+03  0.77976627621E+03  0.00000000000E+00 0. -1.
         23    2    1    2    0    0  0.00000000000E+00  0.00000000000E+00 -0.77766938120E+03  0.78186317122E+03  0.80872443083E+02 0.  0.
          2    1    3    3  502    0  0.34720619775E+02 -0.98235970503E+01 -0.56527334008E+03  0.56642384617E+03  0.00000000000E+00 0. -1.
         -2    1    3    3    0  502 -0.34720619775E+02  0.98235970503E+01 -0.21239604111E+03  0.21543932505E+03  0.00000000000E+00 0.  1.
<mgrwt>
<rscale>  0 0.80872443E+02</rscale>
<asrwt>0</asrwt>
<pdfrwt beam="2">  1        1 0.11996401E+00 0.80872443E+02</pdfrwt>
<pdfrwt beam="1">  1       -1 0.32259932E-03 0.80872443E+02</pdfrwt>
<totfact> 0.19405226E+05</totfact>
</mgrwt>
</event>
<event>
 5    1  0.3957498E+001  0.9059624E+02  0.7546771E-02  0.1301414E+00
         -1   -1    0    0    0  501 -0.00000000000E+00  0.00000000000E+00  0.72687944170E+02  0.72687944170E+02  0.00000000000E+00 0.  1.
          1   -1    0    0  501    0  0.00000000000E+00 -0.00000000000E+00 -0.28229159097E+02  0.28229159097E+02  0.00000000000E+00 0. -1.
         23    2    1    2    0    0  0.00000000000E+00  0.00000000000E+00  0.44458785073E+02  0.10091710327E+03  0.90596237017E+02 0.  0.
          2    1    3    3  502    0 -0.15722399577E+02 -0.36524791811E+02 -0.19369371319E+01  0.39812133713E+02  0.00000000000E+00 0. -1.
         -2    1    3    3    0  502  0.15722399577E+02  0.36524791811E+02  0.46395722205E+02  0.61104969554E+02  0.00000000000E+00 0.  1.
<mgrwt>
<rscale>  0 0.90596237E+02</rscale>
<asrwt>0</asrwt>
<pdfrwt beam="2">  1        1 0.43429476E-02 0.90596237E+02</pdfrwt>
<pdfrwt beam="1">  1       -1 0.11182761E-01 0.90596237E+02</pdfrwt>
<totfact> 0.87423594E+04</totfact>
</mgrwt>
</event>
<event>
 5    1  0.3957498E+001  0.8996490E+02  0.7546771E-02  0.1302937E+00
         -1   -1    0    0    0  501 -0.00000000000E+00  0.00000000000E+00  0.12764533011E+03  0.12764533011E+03  0.00000000000E+00 0.  1.
          1   -1    0    0  501    0  0.00000000000E+00 -0.00000000000E+00 -0.15851898561E+02  0.15851898561E+02  0.00000000000E+00 0. -1.
         23    2    1    2    0    0  0.00000000000E+00  0.00000000000E+00  0.11179343155E+03  0.14349722867E+03  0.89964900371E+02 0.  0.
          2    1    3    3  502    0 -0.15094330623E+01  0.36950693826E+02  0.15050449667E+02  0.39926785466E+02  0.00000000000E+00 0. -1.
         -2    1    3    3    0  502  0.15094330623E+01 -0.36950693826E+02  0.96742981881E+02  0.10357044321E+03  0.00000000000E+00 0.  1.
<mgrwt>
<rscale>  0 0.89964900E+02</rscale>
<asrwt>0</asrwt>
<pdfrwt beam="2">  1        1 0.24387537E-02 0.89964900E+02</pdfrwt>
<pdfrwt beam="1">  1       -1 0.19637742E-01 0.89964900E+02</pdfrwt>
<totfact> 0.80255722E+04</totfact>
</mgrwt>
</event>
<event>
 5    1  0.3957498E+001  0.7965948E+02  0.7546771E-02  0.1330021E+00
         -1   -1    0    0    0  501 -0.00000000000E+00  0.00000000000E+00  0.50361075040E+01  0.50361075040E+01  0.00000000000E+00 0.  1.
          1   -1    0    0  501    0  0.00000000000E+00 -0.00000000000E+00 -0.31500682623E+03  0.31500682623E+03  0.00000000000E+00 0. -1.
         23    2    1    2    0    0  0.00000000000E+00  0.00000000000E+00 -0.30997071873E+03  0.32004293374E+03  0.79659481329E+02 0.  0.
          2    1    3    3  502    0  0.34550508938E+02 -0.19014625313E+02 -0.17739592734E+03  0.18172674179E+03  0.00000000000E+00 0. -1.
         -2    1    3    3    0  502 -0.34550508938E+02  0.19014625313E+02 -0.13257479138E+03  0.13831619194E+03  0.00000000000E+00 0.  1.
<mgrwt>
<rscale>  0 0.79659481E+02</rscale>
<asrwt>0</asrwt>
<pdfrwt beam="2">  1        1 0.48462616E-01 0.79659481E+02</pdfrwt>
<pdfrwt beam="1">  1       -1 0.77478534E-03 0.79659481E+02</pdfrwt>
<totfact> 0.18478391E+05</totfact>
</mgrwt>
</event>
<event>
 5    1  0.3957498E+001  0.8950074E+02  0.7546771E-02  0.1304065E+00
         -1   -1    0    0    0  501 -0.00000000000E+00  0.00000000000E+00  0.94683930592E+01  0.94683930592E+01  0.00000000000E+00 0.  1.
          1   -1    0    0  501    0  0.00000000000E+00 -0.00000000000E+00 -0.21150323681E+03  0.21150323681E+03  0.00000000000E+00 0. -1.
         23    2    1    2    0    0  0.00000000000E+00  0.00000000000E+00 -0.20203484375E+03  0.22097162987E+03  0.89500743670E+02 0.  0.
          2    1    3    3  502    0 -0.24454564080E+02  0.21620791262E+02 -0.17659718033E+03  0.17958855314E+03  0.00000000000E+00 0. -1.
         -2    1    3    3    0  502  0.24454564080E+02 -0.21620791262E+02 -0.25437663422E+02  0.41383076729E+02  0.00000000000E+00 0.  1.
<mgrwt>
<rscale>  0 0.89500744E+02</rscale>
<asrwt>0</asrwt>
<pdfrwt beam="2">  1        1 0.32538960E-01 0.89500744E+02</pdfrwt>
<pdfrwt beam="1">  1       -1 0.14566758E-02 0.89500744E+02</pdfrwt>
<totfact> 0.12579074E+05</totfact>
</mgrwt>
</event>
<event>
 5    1  0.3957498E+001  0.8980116E+02  0.7546771E-02  0.1303334E+00
         -2   -1    0    0    0  501 -0.00000000000E+00  0.00000000000E+00  0.66661851879E+00  0.66661851879E+00  0.00000000000E+00 0.  1.
          2   -1    0    0  501    0  0.00000000000E+00 -0.00000000000E+00 -0.30243116597E+04  0.30243116597E+04  0.00000000000E+00 0. -1.
         23    2    1    2    0    0  0.00000000000E+00  0.00000000000E+00 -0.30236450412E+04  0.30249782782E+04  0.89801161661E+02 0.  0.
          2    1    3    3  502    0 -0.18492046713E+02  0.35968206618E+02 -0.85483456352E+03  0.85579074467E+03  0.00000000000E+00 0. -1.
         -2    1    3    3    0  502  0.18492046713E+02 -0.35968206618E+02 -0.21688104776E+04  0.21691875335E+04  0.00000000000E+00 0.  1.
<mgrwt>
<rscale>  0 0.89801162E+02</rscale>
<asrwt>0</asrwt>
<pdfrwt beam="2">  1        2 0.46528975E+00 0.89801162E+02</pdfrwt>
<pdfrwt beam="1">  1       -2 0.10255426E-03 0.89801162E+02</pdfrwt>
<totfact> 0.10394236E+05</totfact>
</mgrwt>
</event>
<event>
 5    1  0.3957498E+001  0.9000222E+02  0.7546771E-02  0.1302846E+00
          2   -1    0    0  501    0  0.00000000000E+00  0.00000000000E+00  0.18211931852E+03  0.18211931852E+03  0.00000000000E+00 0. -1.
         -2   -1    0    0    0  501 -0.00000000000E+00 -0.00000000000E+00 -0.11119632633E+02  0.11119632633E+02  0.00000000000E+00 0.  1.
         23    2    1    2    0    0  0.00000000000E+00  0.00000000000E+00  0.17099968588E+03  0.19323895115E+03  0.90002220358E+02 0.  0.
          2    1    3    3  502    0 -0.32700053554E+02  0.25378993657E+02  0.12340680427E+03  0.13016384352E+03  0.00000000000E+00 0. -1.
         -2    1    3    3    0  502  0.32700053554E+02 -0.25378993657E+02  0.47592881616E+02  0.63075107626E+02  0.00000000000E+00 0.  1.
<mgrwt>
<rscale>  0 0.90002220E+02</rscale>
<asrwt>0</asrwt>
<pdfrwt beam="1">  1        2 0.28018355E-01 0.90002220E+02</pdfrwt>
<pdfrwt beam="2">  1       -2 0.17107128E-02 0.90002220E+02</pdfrwt>
<totfact> 0.15488676E+05</totfact>
</mgrwt>
</event>
<event>
 5    1  0.3957498E+001  0.9164474E+02  0.7546771E-02  0.1298917E+00
         -2   -1    0    0    0  501 -0.00000000000E+00  0.00000000000E+00  0.19226676808E+03  0.19226676808E+03  0.00000000000E+00 0.  1.
          2   -1    0    0  501    0  0.00000000000E+00 -0.00000000000E+00 -0.10920710897E+02  0.10920710897E+02  0.00000000000E+00 0. -1.
         23    2    1    2    0    0  0.00000000000E+00  0.00000000000E+00  0.18134605718E+03  0.20318747897E+03  0.91644744297E+02 0.  0.
          2    1    3    3  502    0 -0.11510797632E+02  0.43087804826E+02  0.67352920996E+02  0.80780402039E+02  0.00000000000E+00 0. -1.
         -2    1    3    3    0  502  0.11510797632E+02 -0.43087804826E+02  0.11399313618E+03  0.12240707694E+03  0.00000000000E+00 0.  1.
<mgrwt>
<rscale>  0 0.91644744E+02</rscale>
<asrwt>0</asrwt>
<pdfrwt beam="2">  1        2 0.16801095E-02 0.91644744E+02</pdfrwt>
<pdfrwt beam="1">  1       -2 0.29579500E-01 0.91644744E+02</pdfrwt>
<totfact> 0.62556315E+04</totfact>
</mgrwt>
</event>
<event>
 4    1  0.3957498E+001  0.1350800E+03  0.7546771E-02  0.1220107E+00
         -1   -1    0    0    0  501 -0.00000000000E+00  0.00000000000E+00  0.10202279687E+03  0.10202279687E+03  0.00000000000E+00 0.  1.
          1   -1    0    0  501    0  0.00000000000E+00 -0.00000000000E+00 -0.44712048571E+02  0.44712048571E+02  0.00000000000E+00 0. -1.
          2    1    1    2  502    0  0.27032659427E+02 -0.61839755331E+02  0.25837686097E+02  0.72266908319E+02  0.00000000000E+00 0. -1.
         -2    1    1    2    0  502 -0.27032659427E+02  0.61839755331E+02  0.31473062206E+02  0.74467937126E+02  0.00000000000E+00 0.  1.
<mgrwt>
<rscale>  0 0.13507995E+03</rscale>
<asrwt>0</asrwt>
<pdfrwt beam="2">  1        1 0.68787767E-02 0.13507995E+03</pdfrwt>
<pdfrwt beam="1">  1       -1 0.15695815E-01 0.13507995E+03</pdfrwt>
<totfact> 0.29328997E+04</totfact>
</mgrwt>
</event>
<event>
 5    1  0.3957498E+001  0.9008711E+02  0.7546771E-02  0.1302641E+00
         -2   -1    0    0    0  501 -0.00000000000E+00  0.00000000000E+00  0.12483625931E+03  0.12483625931E+03  0.00000000000E+00 0.  1.
          2   -1    0    0  501    0  0.00000000000E+00 -0.00000000000E+00 -0.16252664927E+02  0.16252664927E+02  0.00000000000E+00 0. -1.
         23    2    1    2    0    0  0.00000000000E+00  0.00000000000E+00  0.10858359439E+03  0.14108892424E+03  0.90087111029E+02 0.  0.
          2    1    3    3  502    0 -0.22234050429E+02 -0.36617261823E+02  0.32492346553E+02  0.53767364138E+02  0.00000000000E+00 0. -1.
         -2    1    3    3    0  502  0.22234050429E+02  0.36617261823E+02  0.76091247834E+02  0.87321560103E+02  0.00000000000E+00 0.  1.
<mgrwt>
<rscale>  0 0.90087111E+02</rscale>
<asrwt>0</asrwt>
<pdfrwt beam="2">  1        2 0.25004101E-02 0.90087111E+02</pdfrwt>
<pdfrwt beam="1">  1       -2 0.19205578E-01 0.90087111E+02</pdfrwt>
<totfact> 0.76731458E+04</totfact>
</mgrwt>
</event>
<event>
 5    1  0.3957498E+001  0.9097460E+02  0.7546771E-02  0.1300509E+00
          2   -1    0    0  501    0  0.00000000000E+00  0.00000000000E+00  0.21698612818E+03  0.21698612818E+03  0.00000000000E+00 0. -1.
         -2   -1    0    0    0  501 -0.00000000000E+00 -0.00000000000E+00 -0.95356066820E+01  0.95356066820E+01  0.00000000000E+00 0.  1.
         23    2    1    2    0    0  0.00000000000E+00  0.00000000000E+00  0.20745052150E+03  0.22652173487E+03  0.90974598077E+02 0.  0.
          2    1    3    3  502    0 -0.21900845261E+02 -0.27134642783E+02  0.17645375523E+03  0.17986623807E+03  0.00000000000E+00 0. -1.
         -2    1    3    3    0  502  0.21900845261E+02  0.27134642783E+02  0.30996766272E+02  0.46655496798E+02  0.00000000000E+00 0.  1.
<mgrwt>
<rscale>  0 0.90974598E+02</rscale>
<asrwt>0</asrwt>
<pdfrwt beam="1">  1        2 0.33382478E-01 0.90974598E+02</pdfrwt>
<pdfrwt beam="2">  1       -2 0.14670166E-02 0.90974598E+02</pdfrwt>
<totfact> 0.16028775E+05</totfact>
</mgrwt>
</event>
<event>
 5    1  0.3957498E+001  0.9153990E+02  0.7546771E-02  0.1299165E+00
          2   -1    0    0  501    0  0.00000000000E+00  0.00000000000E+00  0.16459341822E+04  0.16459341822E+04  0.00000000000E+00 0. -1.
         -2   -1    0    0    0  501 -0.00000000000E+00 -0.00000000000E+00 -0.12727656718E+01  0.12727656718E+01  0.00000000000E+00 0.  1.
         23    2    1    2    0    0  0.00000000000E+00  0.00000000000E+00  0.16446614166E+04  0.16472069479E+04  0.91539904419E+02 0.  0.
          2    1    3    3  502    0 -0.24494451556E+02 -0.41891316664E+01  0.15139723068E+04  0.15141762357E+04  0.00000000000E+00 0. -1.
         -2    1    3    3    0  502  0.24494451556E+02  0.41891316664E+01  0.13068910972E+03  0.13303071217E+03  0.00000000000E+00 0.  1.
<mgrwt>
<rscale>  0 0.91539904E+02</rscale>
<asrwt>0</asrwt>
<pdfrwt beam="1">  1        2 0.25321894E+00 0.91539904E+02</pdfrwt>
<pdfrwt beam="2">  1       -2 0.19581142E-03 0.91539904E+02</pdfrwt>
<totfact> 0.22395027E+05</totfact>
</mgrwt>
</event>
<event>
 5    1  0.3957498E+001  0.9165856E+02  0.7546771E-02  0.1298884E+00
         -3   -1    0    0    0  501 -0.00000000000E+00  0.00000000000E+00  0.84980070604E+02  0.84980070604E+02  0.00000000000E+00 0.  1.
          3   -1    0    0  501    0  0.00000000000E+00 -0.00000000000E+00 -0.24715474210E+02  0.24715474210E+02  0.00000000000E+00 0. -1.
         23    2    1    2    0    0  0.00000000000E+00  0.00000000000E+00  0.60264596394E+02  0.10969554481E+03  0.91658556466E+02 0.  0.
          2    1    3    3  502    0  0.23405855636E+02 -0.37999557046E+02  0.17664908624E+02  0.47998431333E+02  0.00000000000E+00 0. -1.
         -2    1    3    3    0  502 -0.23405855636E+02  0.37999557046E+02  0.42599687770E+02  0.61697113481E+02  0.00000000000E+00 0.  1.
<mgrwt>
<rscale>  0 0.91658556E+02</rscale>
<asrwt>0</asrwt>
<pdfrwt beam="2">  1        3 0.38023807E-02 0.91658556E+02</pdfrwt>
<pdfrwt beam="1">  1       -3 0.13073857E-01 0.91658556E+02</pdfrwt>
<totfact> 0.33484088E+04</totfact>
</mgrwt>
</event>
<event>
 5    1  0.3957498E+001  0.9483494E+02  0.7546771E-02  0.1291548E+00
          2   -1    0    0  501    0  0.00000000000E+00  0.00000000000E+00  0.45406607970E+02  0.45406607970E+02  0.00000000000E+00 0. -1.
         -2   -1    0    0    0  501 -0.00000000000E+00 -0.00000000000E+00 -0.49517384413E+02  0.49517384413E+02  0.00000000000E+00 0.  1.
         23    2    1    2    0    0  0.00000000000E+00  0.00000000000E+00 -0.41107764432E+01  0.94923992383E+02  0.94834940011E+02 0.  0.
          2    1    3    3  502    0  0.42283230751E+02  0.21163030475E+02 -0.56183656285E+01  0.47616294417E+02  0.00000000000E+00 0. -1.
         -2    1    3    3    0  502 -0.42283230751E+02 -0.21163030475E+02  0.15075891853E+01  0.47307697966E+02  0.00000000000E+00 0.  1.
<mgrwt>
<rscale>  0 0.94834940E+02</rscale>
<asrwt>0</asrwt>
<pdfrwt beam="1">  1        2 0.69856320E-02 0.94834940E+02</pdfrwt>
<pdfrwt beam="2">  1       -2 0.76180591E-02 0.94834940E+02</pdfrwt>
<totfact> 0.87998114E+04</totfact>
</mgrwt>
</event>
<event>
 5    1  0.3957498E+001  0.9257604E+02  0.7546771E-02  0.1296731E+00
          1   -1    0    0  501    0  0.00000000000E+00  0.00000000000E+00  0.12830627354E+02  0.12830627354E+02  0.00000000000E+00 0. -1.
         -1   -1    0    0    0  501 -0.00000000000E+00 -0.00000000000E+00 -0.16698954368E+03  0.16698954368E+03  0.00000000000E+00 0.  1.
         23    2    1    2    0    0  0.00000000000E+00  0.00000000000E+00 -0.15415891633E+03  0.17982017104E+03  0.92576035929E+02 0.  0.
          2    1    3    3  502    0 -0.39214095225E+02 -0.28498301891E+01 -0.12452800002E+03  0.13058747867E+03  0.00000000000E+00 0.  1.
         -2    1    3    3    0  502  0.39214095225E+02  0.28498301891E+01 -0.29630916307E+02  0.49232692366E+02  0.00000000000E+00 0. -1.
<mgrwt>
<rscale>  0 0.92576036E+02</rscale>
<asrwt>0</asrwt>
<pdfrwt beam="1">  1        1 0.19739428E-02 0.92576036E+02</pdfrwt>
<pdfrwt beam="2">  1       -1 0.25690697E-01 0.92576036E+02</pdfrwt>
<totfact> 0.70035184E+04</totfact>
</mgrwt>
</event>
<event>
 4    1  0.3957498E+001  0.1780435E+03  0.7546771E-02  0.1169710E+00
          2   -1    0    0  501    0  0.00000000000E+00  0.00000000000E+00  0.43601340757E+03  0.43601340757E+03  0.00000000000E+00 0. -1.
         -2   -1    0    0    0  501 -0.00000000000E+00 -0.00000000000E+00 -0.18175758357E+02  0.18175758357E+02  0.00000000000E+00 0.  1.
          2    1    1    2  502    0  0.65110751372E+02  0.38050695014E+02  0.32958976099E+03  0.33810749162E+03  0.00000000000E+00 0. -1.
         -2    1    1    2    0  502 -0.65110751372E+02 -0.38050695014E+02  0.88247888213E+02  0.11608167430E+03  0.00000000000E+00 0.  1.
<mgrwt>
<rscale>  0 0.17804353E+03</rscale>
<asrwt>0</asrwt>
<pdfrwt beam="1">  1        2 0.67078978E-01 0.17804353E+03</pdfrwt>
<pdfrwt beam="2">  1       -2 0.27962708E-02 0.17804353E+03</pdfrwt>
<totfact> 0.32640702E+04</totfact>
</mgrwt>
</event>
<event>
 5    1  0.3957498E+001  0.8940441E+02  0.7546771E-02  0.1304300E+00
          1   -1    0    0  501    0  0.00000000000E+00  0.00000000000E+00  0.13032766241E+03  0.13032766241E+03  0.00000000000E+00 0. -1.
         -1   -1    0    0    0  501 -0.00000000000E+00 -0.00000000000E+00 -0.15332793117E+02  0.15332793117E+02  0.00000000000E+00 0.  1.
         23    2    1    2    0    0  0.00000000000E+00  0.00000000000E+00  0.11499486930E+03  0.14566045553E+03  0.89404408955E+02 0.  0.
          2    1    3    3  502    0  0.14769526228E+02  0.28966608026E+02  0.10747750648E+03  0.11228810127E+03  0.00000000000E+00 0. -1.
         -2    1    3    3    0  502 -0.14769526228E+02 -0.28966608026E+02  0.75173628113E+01  0.33372354265E+02  0.00000000000E+00 0.  1.
<mgrwt>
<rscale>  0 0.89404409E+02</rscale>
<asrwt>0</asrwt>
<pdfrwt beam="1">  1        1 0.20050409E-01 0.89404409E+02</pdfrwt>
<pdfrwt beam="2">  1       -1 0.23588913E-02 0.89404409E+02</pdfrwt>
<totfact> 0.11526963E+05</totfact>
</mgrwt>
</event>
<event>
 5    1  0.3957498E+001  0.9070749E+02  0.7546771E-02  0.1301147E+00
          1   -1    0    0  501    0  0.00000000000E+00  0.00000000000E+00  0.74653544160E+03  0.74653544160E+03  0.00000000000E+00 0. -1.
         -1   -1    0    0    0  501 -0.00000000000E+00 -0.00000000000E+00 -0.27553441306E+01  0.27553441306E+01  0.00000000000E+00 0.  1.
         23    2    1    2    0    0  0.00000000000E+00  0.00000000000E+00  0.74378009747E+03  0.74929078573E+03  0.90707486951E+02 0.  0.
          2    1    3    3  502    0  0.10779833222E+01 -0.20013184790E+02  0.70796953004E+03  0.70825316454E+03  0.00000000000E+00 0. -1.
         -2    1    3    3    0  502 -0.10779833222E+01  0.20013184790E+02  0.35810567429E+02  0.41037621192E+02  0.00000000000E+00 0.  1.
<mgrwt>
<rscale>  0 0.90707487E+02</rscale>
<asrwt>0</asrwt>
<pdfrwt beam="1">  1        1 0.11485145E+00 0.90707487E+02</pdfrwt>
<pdfrwt beam="2">  1       -1 0.42389969E-03 0.90707487E+02</pdfrwt>
<totfact> 0.14388630E+05</totfact>
</mgrwt>
</event>
<event>
 5    1  0.3957498E+001  0.8883424E+02  0.7546771E-02  0.1305700E+00
         -4   -1    0    0    0  501 -0.00000000000E+00  0.00000000000E+00  0.26898173917E+02  0.26898173917E+02  0.00000000000E+00 0. -1.
          4   -1    0    0  501    0  0.00000000000E+00 -0.00000000000E+00 -0.73346260144E+02  0.73346260144E+02  0.00000000000E+00 0.  1.
         23    2    1    2    0    0  0.00000000000E+00  0.00000000000E+00 -0.46448086227E+02  0.10024443406E+03  0.88834238028E+02 0.  0.
          2    1    3    3  502    0 -0.78830129134E+01  0.31600570211E+02  0.10856871405E+02  0.34330883865E+02  0.00000000000E+00 0. -1.
         -2    1    3    3    0  502  0.78830129134E+01 -0.31600570211E+02 -0.57304957632E+02  0.65913550196E+02  0.00000000000E+00 0.  1.
<mgrwt>
<rscale>  0 0.88834238E+02</rscale>
<asrwt>0</asrwt>
<pdfrwt beam="2">  1        4 0.11284040E-01 0.88834238E+02</pdfrwt>
<pdfrwt beam="1">  1       -4 0.41381807E-02 0.88834238E+02</pdfrwt>
<totfact> 0.28368723E+04</totfact>
</mgrwt>
</event>
<event>
 5    1  0.3957498E+001  0.9045234E+02  0.7546771E-02  0.1301760E+00
          2   -1    0    0  501    0  0.00000000000E+00  0.00000000000E+00  0.23730990998E+03  0.23730990998E+03  0.00000000000E+00 0. -1.
         -2   -1    0    0    0  501 -0.00000000000E+00 -0.00000000000E+00 -0.86191368335E+01  0.86191368335E+01  0.00000000000E+00 0.  1.
         23    2    1    2    0    0  0.00000000000E+00  0.00000000000E+00  0.22869077314E+03  0.24592904681E+03  0.90452342944E+02 0.  0.
          2    1    3    3  502    0 -0.29609292946E+02 -0.13343632088E+02  0.19992075499E+03  0.20254152913E+03  0.00000000000E+00 0. -1.
         -2    1    3    3    0  502  0.29609292946E+02  0.13343632088E+02  0.28770018154E+02  0.43387517682E+02  0.00000000000E+00 0.  1.
<mgrwt>
<rscale>  0 0.90452343E+02</rscale>
<asrwt>0</asrwt>
<pdfrwt beam="1">  1        2 0.36509212E-01 0.90452343E+02</pdfrwt>
<pdfrwt beam="2">  1       -2 0.13260212E-02 0.90452343E+02</pdfrwt>
<totfact> 0.16821746E+05</totfact>
</mgrwt>
</event>
<event>
 5    1  0.3957498E+001  0.9293252E+02  0.7546771E-02  0.1295902E+00
          2   -1    0    0  501    0  0.00000000000E+00  0.00000000000E+00  0.42402299780E+02  0.42402299780E+02  0.00000000000E+00 0. -1.
         -2   -1    0    0    0  501 -0.00000000000E+00 -0.00000000000E+00 -0.50919721551E+02  0.50919721551E+02  0.00000000000E+00 0.  1.
         23    2    1    2    0    0  0.00000000000E+00  0.00000000000E+00 -0.85174217712E+01  0.93322021331E+02  0.92932519560E+02 0.  0.
          2    1    3    3  502    0  0.67880186914E+01  0.36389737530E+02  0.23944998819E+02  0.44086881991E+02  0.00000000000E+00 0. -1.
         -2    1    3    3    0  502 -0.67880186914E+01 -0.36389737530E+02 -0.32462420590E+02  0.49235139340E+02  0.00000000000E+00 0.  1.
<mgrwt>
<rscale>  0 0.92932520E+02</rscale>
<asrwt>0</asrwt>
<pdfrwt beam="1">  1        2 0.65234308E-02 0.92932520E+02</pdfrwt>
<pdfrwt beam="2">  1       -2 0.78338033E-02 0.92932520E+02</pdfrwt>
<totfact> 0.91640888E+04</totfact>
</mgrwt>
</event>
<event>
 5    1  0.3957498E+001  0.9146400E+02  0.7546771E-02  0.1299345E+00
          2   -1    0    0  501    0  0.00000000000E+00  0.00000000000E+00  0.17598781589E+03  0.17598781589E+03  0.00000000000E+00 0. -1.
         -2   -1    0    0    0  501 -0.00000000000E+00 -0.00000000000E+00 -0.11883866871E+02  0.11883866871E+02  0.00000000000E+00 0.  1.
         23    2    1    2    0    0  0.00000000000E+00  0.00000000000E+00  0.16410394902E+03  0.18787168276E+03  0.91463998927E+02 0.  0.
          2    1    3    3  502    0 -0.17330290286E+02  0.29597440935E+02  0.14418720249E+03  0.14821031284E+03  0.00000000000E+00 0. -1.
         -2    1    3    3    0  502  0.17330290286E+02 -0.29597440935E+02  0.19916746525E+02  0.39661369914E+02  0.00000000000E+00 0.  1.
<mgrwt>
<rscale>  0 0.91463999E+02</rscale>
<asrwt>0</asrwt>
<pdfrwt beam="1">  1        2 0.27075047E-01 0.91463999E+02</pdfrwt>
<pdfrwt beam="2">  1       -2 0.18282873E-02 0.91463999E+02</pdfrwt>
<totfact> 0.14651137E+05</totfact>
</mgrwt>
</event>
<event>
 5    1  0.3957498E+001  0.9434702E+02  0.7546771E-02  0.1292654E+00
         -1   -1    0    0    0  501 -0.00000000000E+00  0.00000000000E+00  0.12765495062E+01  0.12765495062E+01  0.00000000000E+00 0.  1.
          1   -1    0    0  501    0  0.00000000000E+00 -0.00000000000E+00 -0.17432460374E+04  0.17432460374E+04  0.00000000000E+00 0. -1.
         23    2    1    2    0    0  0.00000000000E+00  0.00000000000E+00 -0.17419694879E+04  0.17445225869E+04  0.94347016237E+02 0.  0.
          2    1    3    3  502    0  0.21722088306E+02 -0.53104208320E+01 -0.16390170739E+04  0.16391696124E+04  0.00000000000E+00 0. -1.
         -2    1    3    3    0  502 -0.21722088306E+02  0.53104208320E+01 -0.10295241405E+03  0.10535297456E+03  0.00000000000E+00 0.  1.
<mgrwt>
<rscale>  0 0.94347016E+02</rscale>
<asrwt>0</asrwt>
<pdfrwt beam="2">  1        1 0.26819141E+00 0.94347016E+02</pdfrwt>
<pdfrwt beam="1">  1       -1 0.19639244E-03 0.94347016E+02</pdfrwt>
<totfact> 0.87223210E+04</totfact>
</mgrwt>
</event>
<event>
 5    1  0.3957498E+001  0.9029822E+02  0.7546771E-02  0.1302131E+00
          2   -1    0    0  501    0  0.00000000000E+00  0.00000000000E+00  0.12283251050E+04  0.12283251050E+04  0.00000000000E+00 0. -1.
         -2   -1    0    0    0  501 -0.00000000000E+00 -0.00000000000E+00 -0.16595297780E+01  0.16595297780E+01  0.00000000000E+00 0.  1.
         23    2    1    2    0    0  0.00000000000E+00  0.00000000000E+00  0.12266655752E+04  0.12299846347E+04  0.90298219001E+02 0.  0.
          2    1    3    3  502    0 -0.16164257961E+02 -0.41816327352E+02  0.68611933011E+03  0.68758244860E+03  0.00000000000E+00 0. -1.
         -2    1    3    3    0  502  0.16164257961E+02  0.41816327352E+02  0.54054624506E+03  0.54240218613E+03  0.00000000000E+00 0.  1.
<mgrwt>
<rscale>  0 0.90298219E+02</rscale>
<asrwt>0</asrwt>
<pdfrwt beam="1">  1        2 0.18897237E+00 0.90298219E+02</pdfrwt>
<pdfrwt beam="2">  1       -2 0.25531326E-03 0.90298219E+02</pdfrwt>
<totfact> 0.25438108E+05</totfact>
</mgrwt>
</event>
<event>
 5    1  0.3957498E+001  0.9467201E+02  0.7546771E-02  0.1291917E+00
         -1   -1    0    0    0  501 -0.00000000000E+00  0.00000000000E+00  0.12997344901E+02  0.12997344901E+02  0.00000000000E+00 0.  1.
          1   -1    0    0  501    0  0.00000000000E+00 -0.00000000000E+00 -0.17239654685E+03  0.17239654685E+03  0.00000000000E+00 0. -1.
         23    2    1    2    0    0  0.00000000000E+00  0.00000000000E+00 -0.15939920195E+03  0.18539389175E+03  0.94672010207E+02 0.  0.
          2    1    3    3  502    0  0.15850858112E+02 -0.19642385661E+02 -0.12799066589E+01  0.25272735871E+02  0.00000000000E+00 0.  1.
         -2    1    3    3    0  502 -0.15850858112E+02  0.19642385661E+02 -0.15811929529E+03  0.16012115588E+03  0.00000000000E+00 0. -1.
<mgrwt>
<rscale>  0 0.94672010E+02</rscale>
<asrwt>0</asrwt>
<pdfrwt beam="2">  1        1 0.26522545E-01 0.94672010E+02</pdfrwt>
<pdfrwt beam="1">  1       -1 0.19995916E-02 0.94672010E+02</pdfrwt>
<totfact> 0.10397547E+05</totfact>
</mgrwt>
</event>
<event>
 5    1  0.3957498E+001  0.8998517E+02  0.7546771E-02  0.1302888E+00
         -2   -1    0    0    0  501 -0.00000000000E+00  0.00000000000E+00  0.46475530441E+02  0.46475530441E+02  0.00000000000E+00 0.  1.
          2   -1    0    0  501    0  0.00000000000E+00 -0.00000000000E+00 -0.43556954258E+02  0.43556954258E+02  0.00000000000E+00 0. -1.
         23    2    1    2    0    0  0.00000000000E+00  0.00000000000E+00  0.29185761825E+01  0.90032484699E+02  0.89985166634E+02 0.  0.
          2    1    3    3  502    0  0.10941299261E+02  0.23718347582E+02 -0.35194119788E+02  0.43828051625E+02  0.00000000000E+00 0. -1.
         -2    1    3    3    0  502 -0.10941299261E+02 -0.23718347582E+02  0.38112695971E+02  0.46204433074E+02  0.00000000000E+00 0.  1.
<mgrwt>
<rscale>  0 0.89985167E+02</rscale>
<asrwt>0</asrwt>
<pdfrwt beam="2">  1        2 0.67010699E-02 0.89985167E+02</pdfrwt>
<pdfrwt beam="1">  1       -2 0.71500816E-02 0.89985167E+02</pdfrwt>
<totfact> 0.10127129E+05</totfact>
</mgrwt>
</event>
<event>
 5    1  0.3957498E+001  0.9477272E+02  0.7546771E-02  0.1291689E+00
         -2   -1    0    0    0  501 -0.00000000000E+00  0.00000000000E+00  0.10645728745E+01  0.10645728745E+01  0.00000000000E+00 0.  1.
          2   -1    0    0  501    0  0.00000000000E+00 -0.00000000000E+00 -0.21092656110E+04  0.21092656110E+04  0.00000000000E+00 0. -1.
         23    2    1    2    0    0  0.00000000000E+00  0.00000000000E+00 -0.21082010382E+04  0.21103301839E+04  0.94772716635E+02 0.  0.
          2    1    3    3  502    0 -0.42563415734E+02 -0.12704981000E+02 -0.14216158480E+04  0.14223096288E+04  0.00000000000E+00 0. -1.
         -2    1    3    3    0  502  0.42563415734E+02  0.12704981000E+02 -0.68658519012E+03  0.68802055507E+03  0.00000000000E+00 0.  1.
<mgrwt>
<rscale>  0 0.94772717E+02</rscale>
<asrwt>0</asrwt>
<pdfrwt beam="2">  1        2 0.32450506E+00 0.94772717E+02</pdfrwt>
<pdfrwt beam="1">  1       -2 0.16377910E-03 0.94772717E+02</pdfrwt>
<totfact> 0.16841870E+05</totfact>
</mgrwt>
</event>
<event>
 5    1  0.3957498E+001  0.8544440E+02  0.7546771E-02  0.1314274E+00
         -1   -1    0    0    0  501 -0.00000000000E+00  0.00000000000E+00  0.14230841795E+01  0.14230841795E+01  0.00000000000E+00 0.  1.
          1   -1    0    0  501    0  0.00000000000E+00 -0.00000000000E+00 -0.12825569610E+04  0.12825569610E+04  0.00000000000E+00 0. -1.
         23    2    1    2    0    0  0.00000000000E+00  0.00000000000E+00 -0.12811338769E+04  0.12839800452E+04  0.85444403457E+02 0.  0.
          2    1    3    3  502    0  0.10938665559E+02 -0.22460741888E+02 -0.11613474070E+04  0.11616160894E+04  0.00000000000E+00 0. -1.
         -2    1    3    3    0  502 -0.10938665559E+02  0.22460741888E+02 -0.11978646988E+03  0.12236395587E+03  0.00000000000E+00 0.  1.
<mgrwt>
<rscale>  0 0.85444403E+02</rscale>
<asrwt>0</asrwt>
<pdfrwt beam="2">  1        1 0.19731700E+00 0.85444403E+02</pdfrwt>
<pdfrwt beam="1">  1       -1 0.21893542E-03 0.85444403E+02</pdfrwt>
<totfact> 0.14599789E+05</totfact>
</mgrwt>
</event>
<event>
 5    1  0.3957498E+001  0.9183696E+02  0.7546771E-02  0.1298463E+00
          1   -1    0    0  501    0  0.00000000000E+00  0.00000000000E+00  0.10612435954E+03  0.10612435954E+03  0.00000000000E+00 0. -1.
         -1   -1    0    0    0  501 -0.00000000000E+00 -0.00000000000E+00 -0.19868264774E+02  0.19868264774E+02  0.00000000000E+00 0.  1.
         23    2    1    2    0    0  0.00000000000E+00  0.00000000000E+00  0.86256094761E+02  0.12599262431E+03  0.91836961496E+02 0.  0.
          2    1    3    3  502    0  0.29621384235E+02  0.45669471197E+01  0.90854636768E+02  0.95670520184E+02  0.00000000000E+00 0. -1.
         -2    1    3    3    0  502 -0.29621384235E+02 -0.45669471197E+01 -0.45985420071E+01  0.30322104125E+02  0.00000000000E+00 0.  1.
<mgrwt>
<rscale>  0 0.91836961E+02</rscale>
<asrwt>0</asrwt>
<pdfrwt beam="1">  1        1 0.16326824E-01 0.91836961E+02</pdfrwt>
<pdfrwt beam="2">  1       -1 0.30566562E-02 0.91836961E+02</pdfrwt>
<totfact> 0.10344290E+05</totfact>
</mgrwt>
</event>
<event>
 5    1  0.3957498E+001  0.8924877E+02  0.7546771E-02  0.1304681E+00
          1   -1    0    0  501    0  0.00000000000E+00  0.00000000000E+00  0.34098499332E+03  0.34098499332E+03  0.00000000000E+00 0. -1.
         -1   -1    0    0    0  501 -0.00000000000E+00 -0.00000000000E+00 -0.58399513910E+01  0.58399513910E+01  0.00000000000E+00 0.  1.
         23    2    1    2    0    0  0.00000000000E+00  0.00000000000E+00  0.33514504193E+03  0.34682494471E+03  0.89248771107E+02 0.  0.
          2    1    3    3  502    0 -0.32780415484E+02 -0.11961318068E+02  0.27566521687E+03  0.27786496821E+03  0.00000000000E+00 0. -1.
         -2    1    3    3    0  502  0.32780415484E+02  0.11961318068E+02  0.59479825056E+02  0.68959976493E+02  0.00000000000E+00 0.  1.
<mgrwt>
<rscale>  0 0.89248771E+02</rscale>
<asrwt>0</asrwt>
<pdfrwt beam="1">  1        1 0.52459214E-01 0.89248771E+02</pdfrwt>
<pdfrwt beam="2">  1       -1 0.89845432E-03 0.89248771E+02</pdfrwt>
<totfact> 0.13887894E+05</totfact>
</mgrwt>
</event>
<event>
 5    1  0.3957498E+001  0.9175301E+02  0.7546771E-02  0.1298661E+00
         -2   -1    0    0    0  501 -0.00000000000E+00  0.00000000000E+00  0.64873022223E+00  0.64873022223E+00  0.00000000000E+00 0.  1.
          2   -1    0    0  501    0  0.00000000000E+00 -0.00000000000E+00 -0.32442664750E+04  0.32442664750E+04  0.00000000000E+00 0. -1.
         23    2    1    2    0    0  0.00000000000E+00  0.00000000000E+00 -0.32436177448E+04  0.32449152052E+04  0.91753010006E+02 0.  0.
          2    1    3    3  502    0 -0.45792626767E+02  0.22337887688E+01 -0.15637052505E+04  0.15643772131E+04  0.00000000000E+00 0. -1.
         -2    1    3    3    0  502  0.45792626767E+02 -0.22337887688E+01 -0.16799124942E+04  0.16805379921E+04  0.00000000000E+00 0.  1.
<mgrwt>
<rscale>  0 0.91753010E+02</rscale>
<asrwt>0</asrwt>
<pdfrwt beam="2">  1        2 0.49911559E+00 0.91753010E+02</pdfrwt>
<pdfrwt beam="1">  1       -2 0.99805116E-04 0.91753010E+02</pdfrwt>
<totfact> 0.80360042E+04</totfact>
</mgrwt>
</event>
<event>
 5    1  0.3957498E+001  0.9151178E+02  0.7546771E-02  0.1299231E+00
         -1   -1    0    0    0  501 -0.00000000000E+00  0.00000000000E+00  0.34706341035E+01  0.34706341035E+01  0.00000000000E+00 0.  1.
          1   -1    0    0  501    0  0.00000000000E+00 -0.00000000000E+00 -0.60323307143E+03  0.60323307143E+03  0.00000000000E+00 0. -1.
         23    2    1    2    0    0  0.00000000000E+00  0.00000000000E+00 -0.59976243733E+03  0.60670370553E+03  0.91511775638E+02 0.  0.
          2    1    3    3  502    0 -0.40101246936E+02  0.19990422342E+02 -0.36131839070E+03  0.36408612504E+03  0.00000000000E+00 0. -1.
         -2    1    3    3    0  502  0.40101246936E+02 -0.19990422342E+02 -0.23844404663E+03  0.24261758049E+03  0.00000000000E+00 0.  1.
<mgrwt>
<rscale>  0 0.91511776E+02</rscale>
<asrwt>0</asrwt>
<pdfrwt beam="2">  1        1 0.92805151E-01 0.91511776E+02</pdfrwt>
<pdfrwt beam="1">  1       -1 0.53394334E-03 0.91511776E+02</pdfrwt>
<totfact> 0.14026351E+05</totfact>
</mgrwt>
</event>
<event>
 5    1  0.3957498E+001  0.9460908E+02  0.7546771E-02  0.1292059E+00
         -2   -1    0    0    0  501 -0.00000000000E+00  0.00000000000E+00  0.27383954807E+01  0.27383954807E+01  0.00000000000E+00 0.  1.
          2   -1    0    0  501    0  0.00000000000E+00 -0.00000000000E+00 -0.81716443543E+03  0.81716443543E+03  0.00000000000E+00 0. -1.
         23    2    1    2    0    0  0.00000000000E+00  0.00000000000E+00 -0.81442603994E+03  0.81990283091E+03  0.94609077724E+02 0.  0.
          2    1    3    3  502    0 -0.94360379176E+00  0.44471652154E+02 -0.54670982431E+03  0.54851640835E+03  0.00000000000E+00 0. -1.
         -2    1    3    3    0  502  0.94360379176E+00 -0.44471652154E+02 -0.26771621563E+03  0.27138642255E+03  0.00000000000E+00 0.  1.
<mgrwt>
<rscale>  0 0.94609078E+02</rscale>
<asrwt>0</asrwt>
<pdfrwt beam="2">  1        2 0.12571738E+00 0.94609078E+02</pdfrwt>
<pdfrwt beam="1">  1       -2 0.42129236E-03 0.94609078E+02</pdfrwt>
<totfact> 0.22188401E+05</totfact>
</mgrwt>
</event>
<event>
 5    1  0.3957498E+001  0.9467916E+02  0.7546771E-02  0.1291900E+00
          2   -1    0    0  501    0  0.00000000000E+00  0.00000000000E+00  0.40235470762E+03  0.40235470762E+03  0.00000000000E+00 0. -1.
         -2   -1    0    0    0  501 -0.00000000000E+00 -0.00000000000E+00 -0.55698012093E+01  0.55698012093E+01  0.00000000000E+00 0.  1.
         23    2    1    2    0    0  0.00000000000E+00  0.00000000000E+00  0.39678490641E+03  0.40792450883E+03  0.94679157940E+02 0.  0.
          2    1    3    3  502    0  0.44758960054E+02  0.26002172550E+01  0.13292176905E+03  0.14027944369E+03  0.00000000000E+00 0. -1.
         -2    1    3    3    0  502 -0.44758960054E+02 -0.26002172550E+01  0.26386313736E+03  0.26764506514E+03  0.00000000000E+00 0.  1.
<mgrwt>
<rscale>  0 0.94679158E+02</rscale>
<asrwt>0</asrwt>
<pdfrwt beam="1">  1        2 0.61900702E-01 0.94679158E+02</pdfrwt>
<pdfrwt beam="2">  1       -2 0.85689281E-03 0.94679158E+02</pdfrwt>
<totfact> 0.18095140E+05</totfact>
</mgrwt>
</event>
<event>
 5    1  0.3957498E+001  0.9194951E+02  0.7546771E-02  0.1298198E+00
         -1   -1    0    0    0  501 -0.00000000000E+00  0.00000000000E+00  0.23847191408E+01  0.23847191408E+01  0.00000000000E+00 0.  1.
          1   -1    0    0  501    0  0.00000000000E+00 -0.00000000000E+00 -0.88634262758E+03  0.88634262758E+03  0.00000000000E+00 0. -1.
         23    2    1    2    0    0  0.00000000000E+00  0.00000000000E+00 -0.88395790844E+03  0.88872734672E+03  0.91949512870E+02 0.  0.
          2    1    3    3  502    0 -0.43107684310E+02 -0.47330701166E+01 -0.58951584983E+03  0.59110879844E+03  0.00000000000E+00 0. -1.
         -2    1    3    3    0  502  0.43107684310E+02  0.47330701166E+01 -0.29444205861E+03  0.29761854828E+03  0.00000000000E+00 0.  1.
<mgrwt>
<rscale>  0 0.91949513E+02</rscale>
<asrwt>0</asrwt>
<pdfrwt beam="2">  1        1 0.13636021E+00 0.91949513E+02</pdfrwt>
<pdfrwt beam="1">  1       -1 0.36688039E-03 0.91949513E+02</pdfrwt>
<totfact> 0.13645258E+05</totfact>
</mgrwt>
</event>
<event>
 5    1  0.3957498E+001  0.8987885E+02  0.7546771E-02  0.1303145E+00
         -2   -1    0    0    0  501 -0.00000000000E+00  0.00000000000E+00  0.12920837968E+03  0.12920837968E+03  0.00000000000E+00 0.  1.
          2   -1    0    0  501    0  0.00000000000E+00 -0.00000000000E+00 -0.15630194121E+02  0.15630194121E+02  0.00000000000E+00 0. -1.
         23    2    1    2    0    0  0.00000000000E+00  0.00000000000E+00  0.11357818556E+03  0.14483857380E+03  0.89878853053E+02 0.  0.
          2    1    3    3  502    0  0.70843371749E+01  0.36463219160E+02  0.97550400952E+02  0.10438311602E+03  0.00000000000E+00 0.  1.
         -2    1    3    3    0  502 -0.70843371749E+01 -0.36463219160E+02  0.16027784608E+02  0.40455457780E+02  0.00000000000E+00 0. -1.
<mgrwt>
<rscale>  0 0.89878853E+02</rscale>
<asrwt>0</asrwt>
<pdfrwt beam="2">  1        2 0.24046453E-02 0.89878853E+02</pdfrwt>
<pdfrwt beam="1">  1       -2 0.19878212E-01 0.89878853E+02</pdfrwt>
<totfact> 0.76302009E+04</totfact>
</mgrwt>
</event>
<event>
 5    1  0.3957498E+001  0.8869309E+02  0.7546771E-02  0.1306048E+00
         -2   -1    0    0    0  501 -0.00000000000E+00  0.00000000000E+00  0.13241296776E+02  0.13241296776E+02  0.00000000000E+00 0.  1.
          2   -1    0    0  501    0  0.00000000000E+00 -0.00000000000E+00 -0.14852141532E+03  0.14852141532E+03  0.00000000000E+00 0. -1.
         23    2    1    2    0    0  0.00000000000E+00  0.00000000000E+00 -0.13528011854E+03  0.16176271209E+03  0.88693091904E+02 0.  0.
          2    1    3    3  502    0  0.11126914509E+02 -0.28343345832E+02 -0.12644219103E+03  0.13005683816E+03  0.00000000000E+00 0. -1.
         -2    1    3    3    0  502 -0.11126914509E+02  0.28343345832E+02 -0.88379275141E+01  0.31705873938E+02  0.00000000000E+00 0.  1.
<mgrwt>
<rscale>  0 0.88693092E+02</rscale>
<asrwt>0</asrwt>
<pdfrwt beam="2">  1        2 0.22849449E-01 0.88693092E+02</pdfrwt>
<pdfrwt beam="1">  1       -2 0.20371225E-02 0.88693092E+02</pdfrwt>
<totfact> 0.15016181E+05</totfact>
</mgrwt>
</event>
<event>
 5    1  0.3957498E+001  0.1005047E+03  0.7546771E-02  0.1279238E+00
          2   -1    0    0  501    0  0.00000000000E+00  0.00000000000E+00  0.39765364568E+03  0.39765364568E+03  0.00000000000E+00 0.  1.
         -2   -1    0    0    0  501 -0.00000000000E+00 -0.00000000000E+00 -0.63505014125E+01  0.63505014125E+01  0.00000000000E+00 0. -1.
         23    2    1    2    0    0  0.00000000000E+00  0.00000000000E+00  0.39130314426E+03  0.40400414709E+03  0.10050472702E+03 0.  0.
          2    1    3    3  502    0 -0.30925668491E+02 -0.47573606199E+01  0.35371888931E+03  0.35510010153E+03  0.00000000000E+00 0.  1.
         -2    1    3    3    0  502  0.30925668491E+02  0.47573606199E+01  0.37584254957E+02  0.48904045562E+02  0.00000000000E+00 0. -1.
<mgrwt>
<rscale>  0 0.10050473E+03</rscale>
<asrwt>0</asrwt>
<pdfrwt beam="1">  1        2 0.61177464E-01 0.10050473E+03</pdfrwt>
<pdfrwt beam="2">  1       -2 0.97700053E-03 0.10050473E+03</pdfrwt>
<totfact> 0.15358961E+05</totfact>
</mgrwt>
</event>
<event>
 5    1  0.3957498E+001  0.9185156E+02  0.7546771E-02  0.1298429E+00
          2   -1    0    0  501    0  0.00000000000E+00  0.00000000000E+00  0.33381940268E+02  0.33381940268E+02  0.00000000000E+00 0. -1.
         -2   -1    0    0    0  501 -0.00000000000E+00 -0.00000000000E+00 -0.63183187767E+02  0.63183187767E+02  0.00000000000E+00 0.  1.
         23    2    1    2    0    0  0.00000000000E+00  0.00000000000E+00 -0.29801247500E+02  0.96565128035E+02  0.91851562861E+02 0.  0.
          2    1    3    3  502    0 -0.39532720841E+02  0.36172601216E+01  0.93767652106E+01  0.40790247777E+02  0.00000000000E+00 0. -1.
         -2    1    3    3    0  502  0.39532720841E+02 -0.36172601216E+01 -0.39178012710E+02  0.55774880258E+02  0.00000000000E+00 0.  1.
<mgrwt>
<rscale>  0 0.91851563E+02</rscale>
<asrwt>0</asrwt>
<pdfrwt beam="1">  1        2 0.51356831E-02 0.91851563E+02</pdfrwt>
<pdfrwt beam="2">  1       -2 0.97204905E-02 0.91851563E+02</pdfrwt>
<totfact> 0.89047810E+04</totfact>
</mgrwt>
</event>
<event>
 5    1  0.3957498E+001  0.9225447E+02  0.7546771E-02  0.1297482E+00
         -1   -1    0    0    0  501 -0.00000000000E+00  0.00000000000E+00  0.24189581052E+03  0.24189581052E+03  0.00000000000E+00 0.  1.
          1   -1    0    0  501    0  0.00000000000E+00 -0.00000000000E+00 -0.87960260101E+01  0.87960260101E+01  0.00000000000E+00 0. -1.
         23    2    1    2    0    0  0.00000000000E+00  0.00000000000E+00  0.23309978451E+03  0.25069183653E+03  0.92254470701E+02 0.  0.
          2    1    3    3  502    0  0.30918249650E+02 -0.88948771559E+01  0.26725093126E+02  0.41824485695E+02  0.00000000000E+00 0. -1.
         -2    1    3    3    0  502 -0.30918249650E+02  0.88948771559E+01  0.20637469139E+03  0.20886735084E+03  0.00000000000E+00 0.  1.
<mgrwt>
<rscale>  0 0.92254471E+02</rscale>
<asrwt>0</asrwt>
<pdfrwt beam="2">  1        1 0.13532350E-02 0.92254471E+02</pdfrwt>
<pdfrwt beam="1">  1       -1 0.37214735E-01 0.92254471E+02</pdfrwt>
<totfact> 0.63502683E+04</totfact>
</mgrwt>
</event>
<event>
 5    1  0.3957498E+001  0.8933769E+02  0.7546771E-02  0.1304464E+00
          1   -1    0    0  501    0  0.00000000000E+00  0.00000000000E+00  0.10215853960E+02  0.10215853960E+02  0.00000000000E+00 0. -1.
         -1   -1    0    0    0  501 -0.00000000000E+00 -0.00000000000E+00 -0.19531461013E+03  0.19531461013E+03  0.00000000000E+00 0.  1.
         23    2    1    2    0    0  0.00000000000E+00  0.00000000000E+00 -0.18509875617E+03  0.20553046409E+03  0.89337685964E+02 0.  0.
          2    1    3    3  502    0  0.16825025231E+02 -0.22049649791E+02 -0.11994231414E+02  0.30218042907E+02  0.00000000000E+00 0. -1.
         -2    1    3    3    0  502 -0.16825025231E+02  0.22049649791E+02 -0.17310452476E+03  0.17531242118E+03  0.00000000000E+00 0.  1.
<mgrwt>
<rscale>  0 0.89337686E+02</rscale>
<asrwt>0</asrwt>
<pdfrwt beam="1">  1        1 0.15716698E-02 0.89337686E+02</pdfrwt>
<pdfrwt beam="2">  1       -1 0.30048402E-01 0.89337686E+02</pdfrwt>
<totfact> 0.73697822E+04</totfact>
</mgrwt>
</event>
<event>
 5    1  0.3957498E+001  0.9260055E+02  0.7546771E-02  0.1296674E+00
         -2   -1    0    0    0  501 -0.00000000000E+00  0.00000000000E+00  0.19345361462E+01  0.19345361462E+01  0.00000000000E+00 0.  1.
          2   -1    0    0  501    0  0.00000000000E+00 -0.00000000000E+00 -0.11081290434E+04  0.11081290434E+04  0.00000000000E+00 0. -1.
         23    2    1    2    0    0  0.00000000000E+00  0.00000000000E+00 -0.11061945072E+04  0.11100635795E+04  0.92600554837E+02 0.  0.
          2    1    3    3  502    0 -0.44500365756E+01 -0.24602998618E+02 -0.10202476524E+04  0.10205539587E+04  0.00000000000E+00 0. -1.
         -2    1    3    3    0  502  0.44500365756E+01  0.24602998618E+02 -0.85946854804E+02  0.89509620808E+02  0.00000000000E+00 0.  1.
<mgrwt>
<rscale>  0 0.92600555E+02</rscale>
<asrwt>0</asrwt>
<pdfrwt beam="2">  1        2 0.17048146E+00 0.92600555E+02</pdfrwt>
<pdfrwt beam="1">  1       -2 0.29762082E-03 0.92600555E+02</pdfrwt>
<totfact> 0.24012299E+05</totfact>
</mgrwt>
</event>
<event>
 5    1  0.3957498E+001  0.9224878E+02  0.7546771E-02  0.1297496E+00
         -2   -1    0    0    0  501 -0.00000000000E+00  0.00000000000E+00  0.28903778832E+01  0.28903778832E+01  0.00000000000E+00 0.  1.
          2   -1    0    0  501    0  0.00000000000E+00 -0.00000000000E+00 -0.73604886275E+03  0.73604886275E+03  0.00000000000E+00 0. -1.
         23    2    1    2    0    0  0.00000000000E+00  0.00000000000E+00 -0.73315848486E+03  0.73893924063E+03  0.92248780021E+02 0.  0.
          2    1    3    3  502    0  0.34091358579E+02 -0.21542286500E+02 -0.54590389121E+03  0.54739140409E+03  0.00000000000E+00 0. -1.
         -2    1    3    3    0  502 -0.34091358579E+02  0.21542286500E+02 -0.18725459366E+03  0.19154783654E+03  0.00000000000E+00 0.  1.
<mgrwt>
<rscale>  0 0.92248780E+02</rscale>
<asrwt>0</asrwt>
<pdfrwt beam="2">  1        2 0.11323820E+00 0.92248780E+02</pdfrwt>
<pdfrwt beam="1">  1       -2 0.44467385E-03 0.92248780E+02</pdfrwt>
<totfact> 0.23253144E+05</totfact>
</mgrwt>
</event>
<event>
 5    1  0.3957498E+001  0.8992308E+02  0.7546771E-02  0.1303038E+00
         -1   -1    0    0    0  501 -0.00000000000E+00  0.00000000000E+00  0.52353021685E+03  0.52353021685E+03  0.00000000000E+00 0.  1.
          1   -1    0    0  501    0  0.00000000000E+00 -0.00000000000E+00 -0.38613623475E+01  0.38613623475E+01  0.00000000000E+00 0. -1.
         23    2    1    2    0    0  0.00000000000E+00  0.00000000000E+00  0.51966885450E+03  0.52739157920E+03  0.89923075284E+02 0.  0.
          2    1    3    3  502    0  0.70050088955E+00  0.31673169035E+02  0.72720564828E+02  0.79321881515E+02  0.00000000000E+00 0. -1.
         -2    1    3    3    0  502 -0.70050088955E+00 -0.31673169035E+02  0.44694828967E+03  0.44806969768E+03  0.00000000000E+00 0.  1.
<mgrwt>
<rscale>  0 0.89923075E+02</rscale>
<asrwt>0</asrwt>
<pdfrwt beam="2">  1        1 0.59405616E-03 0.89923075E+02</pdfrwt>
<pdfrwt beam="1">  1       -1 0.80543054E-01 0.89923075E+02</pdfrwt>
<totfact> 0.47388132E+04</totfact>
</mgrwt>
</event>
<event>
 5    1  0.3957498E+001  0.8442297E+02  0.7546771E-02  0.1316948E+00
         -3   -1    0    0    0  501 -0.00000000000E+00  0.00000000000E+00  0.48267206498E+02  0.48267206498E+02  0.00000000000E+00 0.  1.
          3   -1    0    0  501    0  0.00000000000E+00 -0.00000000000E+00 -0.36915528522E+02  0.36915528522E+02  0.00000000000E+00 0. -1.
         23    2    1    2    0    0  0.00000000000E+00  0.00000000000E+00  0.11351677976E+02  0.85182735021E+02  0.84422969343E+02 0.  0.
          2    1    3    3  502    0 -0.22484010897E+02 -0.28119299636E+02 -0.16558437304E+02  0.39628368677E+02  0.00000000000E+00 0. -1.
         -2    1    3    3    0  502  0.22484010897E+02  0.28119299636E+02  0.27910115280E+02  0.45554366344E+02  0.00000000000E+00 0.  1.
<mgrwt>
<rscale>  0 0.84422969E+02</rscale>
<asrwt>0</asrwt>
<pdfrwt beam="2">  1        3 0.56793121E-02 0.84422969E+02</pdfrwt>
<pdfrwt beam="1">  1       -3 0.74257241E-02 0.84422969E+02</pdfrwt>
<totfact> 0.44112080E+04</totfact>
</mgrwt>
</event>
<event>
 5    1  0.3957498E+001  0.9087199E+02  0.7546771E-02  0.1300754E+00
          3   -1    0    0  501    0  0.00000000000E+00  0.00000000000E+00  0.16477646747E+03  0.16477646747E+03  0.00000000000E+00 0. -1.
         -3   -1    0    0    0  501 -0.00000000000E+00 -0.00000000000E+00 -0.12528667838E+02  0.12528667838E+02  0.00000000000E+00 0.  1.
         23    2    1    2    0    0  0.00000000000E+00  0.00000000000E+00  0.15224779964E+03  0.17730513531E+03  0.90871989710E+02 0.  0.
          2    1    3    3  502    0  0.98575303557E+01  0.20082816808E+02 -0.10376973667E+01  0.22395697165E+02  0.00000000000E+00 0.  1.
         -2    1    3    3    0  502 -0.98575303557E+01 -0.20082816808E+02  0.15328549700E+03  0.15490943815E+03  0.00000000000E+00 0. -1.
<mgrwt>
<rscale>  0 0.90871990E+02</rscale>
<asrwt>0</asrwt>
<pdfrwt beam="1">  1        3 0.25350224E-01 0.90871990E+02</pdfrwt>
<pdfrwt beam="2">  1       -3 0.19274875E-02 0.90871990E+02</pdfrwt>
<totfact> 0.29985316E+04</totfact>
</mgrwt>
</event>
<event>
 5    1  0.3957498E+001  0.9067252E+02  0.7546771E-02  0.1301231E+00
         -1   -1    0    0    0  501 -0.00000000000E+00  0.00000000000E+00  0.20260163644E+02  0.20260163644E+02  0.00000000000E+00 0.  1.
          1   -1    0    0  501    0  0.00000000000E+00 -0.00000000000E+00 -0.10144916128E+03  0.10144916128E+03  0.00000000000E+00 0. -1.
         23    2    1    2    0    0  0.00000000000E+00  0.00000000000E+00 -0.81188997640E+02  0.12170932493E+03  0.90672523052E+02 0.  0.
          2    1    3    3  502    0  0.41088819016E+02 -0.14100797599E+02 -0.58005736706E+02  0.72469228172E+02  0.00000000000E+00 0. -1.
         -2    1    3    3    0  502 -0.41088819016E+02  0.14100797599E+02 -0.23183260934E+02  0.49240096756E+02  0.00000000000E+00 0.  1.
<mgrwt>
<rscale>  0 0.90672523E+02</rscale>
<asrwt>0</asrwt>
<pdfrwt beam="2">  1        1 0.15607564E-01 0.90672523E+02</pdfrwt>
<pdfrwt beam="1">  1       -1 0.31169482E-02 0.90672523E+02</pdfrwt>
<totfact> 0.10629557E+05</totfact>
</mgrwt>
</event>
<event>
 5    1  0.3957498E+001  0.9077233E+02  0.7546771E-02  0.1300992E+00
         -4   -1    0    0    0  501 -0.00000000000E+00  0.00000000000E+00  0.87577565749E+01  0.87577565749E+01  0.00000000000E+00 0.  1.
          4   -1    0    0  501    0  0.00000000000E+00 -0.00000000000E+00 -0.23520909909E+03  0.23520909909E+03  0.00000000000E+00 0. -1.
         23    2    1    2    0    0  0.00000000000E+00  0.00000000000E+00 -0.22645134251E+03  0.24396685566E+03  0.90772331335E+02 0.  0.
          2    1    3    3  502    0 -0.32235221441E+02  0.31175699163E+02 -0.94436833971E+02  0.10454352840E+03  0.00000000000E+00 0.  1.
         -2    1    3    3    0  502  0.32235221441E+02 -0.31175699163E+02 -0.13201450854E+03  0.13942332726E+03  0.00000000000E+00 0. -1.
<mgrwt>
<rscale>  0 0.90772331E+02</rscale>
<asrwt>0</asrwt>
<pdfrwt beam="2">  1        4 0.36186009E-01 0.90772331E+02</pdfrwt>
<pdfrwt beam="1">  1       -4 0.13473474E-02 0.90772331E+02</pdfrwt>
<totfact> 0.19914055E+04</totfact>
</mgrwt>
</event>
<event>
 5    1  0.3957498E+001  0.9194922E+02  0.7546771E-02  0.1298199E+00
          1   -1    0    0  501    0  0.00000000000E+00  0.00000000000E+00  0.77286616213E+03  0.77286616213E+03  0.00000000000E+00 0. -1.
         -1   -1    0    0    0  501 -0.00000000000E+00 -0.00000000000E+00 -0.27348393671E+01  0.27348393671E+01  0.00000000000E+00 0.  1.
         23    2    1    2    0    0  0.00000000000E+00  0.00000000000E+00  0.77013132277E+03  0.77560100150E+03  0.91949220892E+02 0.  0.
          2    1    3    3  502    0 -0.38948815155E+02 -0.19112979913E+01  0.17965725206E+03  0.18384066873E+03  0.00000000000E+00 0. -1.
         -2    1    3    3    0  502  0.38948815155E+02  0.19112979913E+01  0.59047407071E+03  0.59176033277E+03  0.00000000000E+00 0.  1.
<mgrwt>
<rscale>  0 0.91949221E+02</rscale>
<asrwt>0</asrwt>
<pdfrwt beam="1">  1        1 0.11890231E+00 0.91949221E+02</pdfrwt>
<pdfrwt beam="2">  1       -1 0.42074514E-03 0.91949221E+02</pdfrwt>
<totfact> 0.13854459E+05</totfact>
</mgrwt>
</event>
<event>
 5    1  0.3957498E+001  0.9003181E+02  0.7546771E-02  0.1302775E+00
          4   -1    0    0  501    0  0.00000000000E+00  0.00000000000E+00  0.90532682220E+03  0.90532682220E+03  0.00000000000E+00 0.  1.
         -4   -1    0    0    0  501 -0.00000000000E+00 -0.00000000000E+00 -0.22383424775E+01  0.22383424775E+01  0.00000000000E+00 0. -1.
         23    2    1    2    0    0  0.00000000000E+00  0.00000000000E+00  0.90308847972E+03  0.90756516467E+03  0.90031805095E+02 0.  0.
          2    1    3    3  502    0  0.36754501309E+02  0.15142857259E+02  0.23860180739E+03  0.24189051652E+03  0.00000000000E+00 0. -1.
         -2    1    3    3    0  502 -0.36754501309E+02 -0.15142857259E+02  0.66448667233E+03  0.66567464816E+03  0.00000000000E+00 0.  1.
<mgrwt>
<rscale>  0 0.90031805E+02</rscale>
<asrwt>0</asrwt>
<pdfrwt beam="1">  1        4 0.13928076E+00 0.90031805E+02</pdfrwt>
<pdfrwt beam="2">  1       -4 0.34436110E-03 0.90031805E+02</pdfrwt>
<totfact> 0.81445767E+03</totfact>
</mgrwt>
</event>
<event>
 5    1  0.3957498E+001  0.8739597E+02  0.7546771E-02  0.1309283E+00
         -2   -1    0    0    0  501 -0.00000000000E+00  0.00000000000E+00  0.74074486894E+03  0.74074486894E+03  0.00000000000E+00 0.  1.
          2   -1    0    0  501    0  0.00000000000E+00 -0.00000000000E+00 -0.25778296353E+01  0.25778296353E+01  0.00000000000E+00 0. -1.
         23    2    1    2    0    0  0.00000000000E+00  0.00000000000E+00  0.73816703930E+03  0.74332269857E+03  0.87395974172E+02 0.  0.
          2    1    3    3  502    0  0.17588350580E+02 -0.24711630369E+02  0.63662659699E+03  0.63734875755E+03  0.00000000000E+00 0.  1.
         -2    1    3    3    0  502 -0.17588350580E+02  0.24711630369E+02  0.10154044231E+03  0.10597394103E+03  0.00000000000E+00 0. -1.
<mgrwt>
<rscale>  0 0.87395974E+02</rscale>
<asrwt>0</asrwt>
<pdfrwt beam="2">  1        2 0.39658976E-03 0.87395974E+02</pdfrwt>
<pdfrwt beam="1">  1       -2 0.11396058E+00 0.87395974E+02</pdfrwt>
<totfact> 0.28733269E+04</totfact>
</mgrwt>
</event>
<event>
 5    1  0.3957498E+001  0.9165063E+02  0.7546771E-02  0.1298903E+00
         -1   -1    0    0    0  501 -0.00000000000E+00  0.00000000000E+00  0.89979467290E+02  0.89979467290E+02  0.00000000000E+00 0.  1.
          1   -1    0    0  501    0  0.00000000000E+00 -0.00000000000E+00 -0.23338207167E+02  0.23338207167E+02  0.00000000000E+00 0. -1.
         23    2    1    2    0    0  0.00000000000E+00  0.00000000000E+00  0.66641260123E+02  0.11331767446E+03  0.91650628987E+02 0.  0.
          2    1    3    3  502    0 -0.31293110710E+02  0.26296482921E+02  0.77058953376E+01  0.41595007090E+02  0.00000000000E+00 0. -1.
         -2    1    3    3    0  502  0.31293110710E+02 -0.26296482921E+02  0.58935364785E+02  0.71722667367E+02  0.00000000000E+00 0.  1.
<mgrwt>
<rscale>  0 0.91650629E+02</rscale>
<asrwt>0</asrwt>
<pdfrwt beam="2">  1        1 0.35904935E-02 0.91650629E+02</pdfrwt>
<pdfrwt beam="1">  1       -1 0.13842995E-01 0.91650629E+02</pdfrwt>
<totfact> 0.81847431E+04</totfact>
</mgrwt>
</event>
<event>
 5    1  0.3957498E+001  0.9210002E+02  0.7546771E-02  0.1297844E+00
         -1   -1    0    0    0  501 -0.00000000000E+00  0.00000000000E+00  0.68931713493E+02  0.68931713493E+02  0.00000000000E+00 0.  1.
          1   -1    0    0  501    0  0.00000000000E+00 -0.00000000000E+00 -0.30763828181E+02  0.30763828181E+02  0.00000000000E+00 0. -1.
         23    2    1    2    0    0  0.00000000000E+00  0.00000000000E+00  0.38167885312E+02  0.99695541673E+02  0.92100019329E+02 0.  0.
          2    1    3    3  502    0  0.12564987852E+02  0.21036925440E+02 -0.23120912542E+02  0.33689876052E+02  0.00000000000E+00 0. -1.
         -2    1    3    3    0  502 -0.12564987852E+02 -0.21036925440E+02  0.61288797854E+02  0.66005665621E+02  0.00000000000E+00 0.  1.
<mgrwt>
<rscale>  0 0.92100019E+02</rscale>
<asrwt>0</asrwt>
<pdfrwt beam="2">  1        1 0.47328967E-02 0.92100019E+02</pdfrwt>
<pdfrwt beam="1">  1       -1 0.10604879E-01 0.92100019E+02</pdfrwt>
<totfact> 0.84553312E+04</totfact>
</mgrwt>
</event>
<event>
 5    1  0.3957498E+001  0.9427191E+02  0.7546771E-02  0.1292824E+00
          1   -1    0    0  501    0  0.00000000000E+00  0.00000000000E+00  0.15414905177E+03  0.15414905177E+03  0.00000000000E+00 0. -1.
         -1   -1    0    0    0  501 -0.00000000000E+00 -0.00000000000E+00 -0.14413310788E+02  0.14413310788E+02  0.00000000000E+00 0.  1.
         23    2    1    2    0    0  0.00000000000E+00  0.00000000000E+00  0.13973574099E+03  0.16856236256E+03  0.94271908665E+02 0.  0.
          2    1    3    3  502    0 -0.45285524778E+02  0.87947536714E+01  0.87173309197E+02  0.98627137659E+02  0.00000000000E+00 0. -1.
         -2    1    3    3    0  502  0.45285524778E+02 -0.87947536714E+01  0.52562431790E+02  0.69935224903E+02  0.00000000000E+00 0.  1.
<mgrwt>
<rscale>  0 0.94271909E+02</rscale>
<asrwt>0</asrwt>
<pdfrwt beam="1">  1        1 0.23715238E-01 0.94271909E+02</pdfrwt>
<pdfrwt beam="2">  1       -1 0.22174325E-02 0.94271909E+02</pdfrwt>
<totfact> 0.10297269E+05</totfact>
</mgrwt>
</event>
<event>
 5    1  0.3957498E+001  0.9096976E+02  0.7546771E-02  0.1300520E+00
          1   -1    0    0  501    0  0.00000000000E+00  0.00000000000E+00  0.24415465729E+03  0.24415465729E+03  0.00000000000E+00 0. -1.
         -1   -1    0    0    0  501 -0.00000000000E+00 -0.00000000000E+00 -0.84736214860E+01  0.84736214860E+01  0.00000000000E+00 0.  1.
         23    2    1    2    0    0  0.00000000000E+00  0.00000000000E+00  0.23568103581E+03  0.25262827878E+03  0.90969756512E+02 0.  0.
          2    1    3    3  502    0 -0.39391850771E+02  0.20415263730E+02  0.14566287519E+03  0.15227006964E+03  0.00000000000E+00 0.  1.
         -2    1    3    3    0  502  0.39391850771E+02 -0.20415263730E+02  0.90018160620E+02  0.10035820914E+03  0.00000000000E+00 0. -1.
<mgrwt>
<rscale>  0 0.90969757E+02</rscale>
<asrwt>0</asrwt>
<pdfrwt beam="1">  1        1 0.37562250E-01 0.90969757E+02</pdfrwt>
<pdfrwt beam="2">  1       -1 0.13036343E-02 0.90969757E+02</pdfrwt>
<totfact> 0.12385165E+05</totfact>
</mgrwt>
</event>
<event>
 5    1  0.3957498E+001  0.8873086E+02  0.7546771E-02  0.1305955E+00
          2   -1    0    0  501    0  0.00000000000E+00  0.00000000000E+00  0.65345815012E+01  0.65345815012E+01  0.00000000000E+00 0. -1.
         -2   -1    0    0    0  501 -0.00000000000E+00 -0.00000000000E+00 -0.30121152041E+03  0.30121152041E+03  0.00000000000E+00 0.  1.
         23    2    1    2    0    0  0.00000000000E+00  0.00000000000E+00 -0.29467693891E+03  0.30774610191E+03  0.88730856622E+02 0.  0.
          2    1    3    3  502    0 -0.34286023338E+02 -0.16630314980E+02 -0.68538923851E+02  0.78419913640E+02  0.00000000000E+00 0. -1.
         -2    1    3    3    0  502  0.34286023338E+02  0.16630314980E+02 -0.22613801506E+03  0.22932618827E+03  0.00000000000E+00 0.  1.
<mgrwt>
<rscale>  0 0.88730857E+02</rscale>
<asrwt>0</asrwt>
<pdfrwt beam="1">  1        2 0.10053202E-02 0.88730857E+02</pdfrwt>
<pdfrwt beam="2">  1       -2 0.46340235E-01 0.88730857E+02</pdfrwt>
<totfact> 0.54572108E+04</totfact>
</mgrwt>
</event>
<event>
 5    1  0.3957498E+001  0.9067143E+02  0.7546771E-02  0.1301234E+00
         -2   -1    0    0    0  501 -0.00000000000E+00  0.00000000000E+00  0.12866435859E+02  0.12866435859E+02  0.00000000000E+00 0.  1.
          2   -1    0    0  501    0  0.00000000000E+00 -0.00000000000E+00 -0.15974331937E+03  0.15974331937E+03  0.00000000000E+00 0. -1.
         23    2    1    2    0    0  0.00000000000E+00  0.00000000000E+00 -0.14687688351E+03  0.17260975523E+03  0.90671432602E+02 0.  0.
          2    1    3    3  502    0  0.16659070402E+02  0.20775103112E+02 -0.14328568517E+03  0.14573920924E+03  0.00000000000E+00 0. -1.
         -2    1    3    3    0  502 -0.16659070402E+02 -0.20775103112E+02 -0.35911983387E+01  0.26870545984E+02  0.00000000000E+00 0.  1.
<mgrwt>
<rscale>  0 0.90671433E+02</rscale>
<asrwt>0</asrwt>
<pdfrwt beam="2">  1        2 0.24575897E-01 0.90671433E+02</pdfrwt>
<pdfrwt beam="1">  1       -2 0.19794515E-02 0.90671433E+02</pdfrwt>
<totfact> 0.14502289E+05</totfact>
</mgrwt>
</event>
<event>
 5    1  0.3957498E+001  0.8381630E+02  0.7546771E-02  0.1318557E+00
         -1   -1    0    0    0  501 -0.00000000000E+00  0.00000000000E+00  0.46663960046E+03  0.46663960046E+03  0.00000000000E+00 0.  1.
          1   -1    0    0  501    0  0.00000000000E+00 -0.00000000000E+00 -0.37637033739E+01  0.37637033739E+01  0.00000000000E+00 0. -1.
         23    2    1    2    0    0  0.00000000000E+00  0.00000000000E+00  0.46287589709E+03  0.47040330383E+03  0.83816300053E+02 0.  0.
          2    1    3    3  502    0 -0.28173020008E+02  0.12258737810E+02  0.39139352689E+03  0.39259761665E+03  0.00000000000E+00 0.  1.
         -2    1    3    3    0  502  0.28173020008E+02 -0.12258737810E+02  0.71482370197E+02  0.77805687183E+02  0.00000000000E+00 0. -1.
<mgrwt>
<rscale>  0 0.83816300E+02</rscale>
<asrwt>0</asrwt>
<pdfrwt beam="2">  1        1 0.57903166E-03 0.83816300E+02</pdfrwt>
<pdfrwt beam="1">  1       -1 0.71790662E-01 0.83816300E+02</pdfrwt>
<totfact> 0.61084874E+04</totfact>
</mgrwt>
</event>
<event>
 5    1  0.3957498E+001  0.9087992E+02  0.7546771E-02  0.1300735E+00
         -2   -1    0    0    0  501 -0.00000000000E+00  0.00000000000E+00  0.30168698187E+01  0.30168698187E+01  0.00000000000E+00 0.  1.
          2   -1    0    0  501    0  0.00000000000E+00 -0.00000000000E+00 -0.68441467695E+03  0.68441467695E+03  0.00000000000E+00 0. -1.
         23    2    1    2    0    0  0.00000000000E+00  0.00000000000E+00 -0.68139780713E+03  0.68743154677E+03  0.90879920386E+02 0.  0.
          2    1    3    3  502    0 -0.35197162196E+02  0.19164858491E+00 -0.55808345550E+03  0.55919229274E+03  0.00000000000E+00 0. -1.
         -2    1    3    3    0  502  0.35197162196E+02 -0.19164858491E+00 -0.12331435163E+03  0.12823925403E+03  0.00000000000E+00 0.  1.
<mgrwt>
<rscale>  0 0.90879920E+02</rscale>
<asrwt>0</asrwt>
<pdfrwt beam="2">  1        2 0.10529447E+00 0.90879920E+02</pdfrwt>
<pdfrwt beam="1">  1       -2 0.46413425E-03 0.90879920E+02</pdfrwt>
<totfact> 0.23791883E+05</totfact>
</mgrwt>
</event>
<event>
 5    1  0.3957498E+001  0.8851294E+02  0.7546771E-02  0.1306493E+00
          1   -1    0    0  501    0  0.00000000000E+00  0.00000000000E+00  0.35651489636E+03  0.35651489636E+03  0.00000000000E+00 0. -1.
         -1   -1    0    0    0  501 -0.00000000000E+00 -0.00000000000E+00 -0.54938378906E+01  0.54938378906E+01  0.00000000000E+00 0.  1.
         23    2    1    2    0    0  0.00000000000E+00  0.00000000000E+00  0.35102105847E+03  0.36200873425E+03  0.88512937952E+02 0.  0.
          2    1    3    3  502    0 -0.12324819372E+02  0.27758542659E+02  0.30716435878E+03  0.30866224448E+03  0.00000000000E+00 0.  1.
         -2    1    3    3    0  502  0.12324819372E+02 -0.27758542659E+02  0.43856699689E+02  0.53346489769E+02  0.00000000000E+00 0. -1.
<mgrwt>
<rscale>  0 0.88512938E+02</rscale>
<asrwt>0</asrwt>
<pdfrwt beam="1">  1        1 0.54848427E-01 0.88512938E+02</pdfrwt>
<pdfrwt beam="2">  1       -1 0.84520611E-03 0.88512938E+02</pdfrwt>
<totfact> 0.14309177E+05</totfact>
</mgrwt>
</event>
<event>
 5    1  0.3957498E+001  0.9161197E+02  0.7546771E-02  0.1298994E+00
         -4   -1    0    0    0  501 -0.00000000000E+00  0.00000000000E+00  0.99484239616E+01  0.99484239616E+01  0.00000000000E+00 0.  1.
          4   -1    0    0  501    0  0.00000000000E+00 -0.00000000000E+00 -0.21090657775E+03  0.21090657775E+03  0.00000000000E+00 0. -1.
         23    2    1    2    0    0  0.00000000000E+00  0.00000000000E+00 -0.20095815378E+03  0.22085500171E+03  0.91611965413E+02 0.  0.
          2    1    3    3  502    0 -0.29826644454E+02  0.19826614666E+02 -0.31636420915E+02  0.47786886244E+02  0.00000000000E+00 0. -1.
         -2    1    3    3    0  502  0.29826644454E+02 -0.19826614666E+02 -0.16932173287E+03  0.17306811546E+03  0.00000000000E+00 0.  1.
<mgrwt>
<rscale>  0 0.91611965E+02</rscale>
<asrwt>0</asrwt>
<pdfrwt beam="2">  1        4 0.32447164E-01 0.91611965E+02</pdfrwt>
<pdfrwt beam="1">  1       -4 0.15305269E-02 0.91611965E+02</pdfrwt>
<totfact> 0.20285216E+04</totfact>
</mgrwt>
</event>
<event>
 5    1  0.3957498E+001  0.9235650E+02  0.7546771E-02  0.1297243E+00
         -2   -1    0    0    0  501 -0.00000000000E+00  0.00000000000E+00  0.12078529251E+02  0.12078529251E+02  0.00000000000E+00 0.  1.
          2   -1    0    0  501    0  0.00000000000E+00 -0.00000000000E+00 -0.17654721663E+03  0.17654721663E+03  0.00000000000E+00 0. -1.
         23    2    1    2    0    0  0.00000000000E+00  0.00000000000E+00 -0.16446868738E+03  0.18862574588E+03  0.92356498854E+02 0.  0.
          2    1    3    3  502    0 -0.15536076506E+02 -0.42710195164E+02 -0.98939381542E+02  0.10887851792E+03  0.00000000000E+00 0. -1.
         -2    1    3    3    0  502  0.15536076506E+02  0.42710195164E+02 -0.65529305835E+02  0.79747227961E+02  0.00000000000E+00 0.  1.
<mgrwt>
<rscale>  0 0.92356499E+02</rscale>
<asrwt>0</asrwt>
<pdfrwt beam="2">  1        2 0.27161110E-01 0.92356499E+02</pdfrwt>
<pdfrwt beam="1">  1       -2 0.18582353E-02 0.92356499E+02</pdfrwt>
<totfact> 0.14287145E+05</totfact>
</mgrwt>
</event>
<event>
 5    1  0.3957498E+001  0.9157218E+02  0.7546771E-02  0.1299088E+00
         -3   -1    0    0    0  501 -0.00000000000E+00  0.00000000000E+00  0.87723338061E+03  0.87723338061E+03  0.00000000000E+00 0.  1.
          3   -1    0    0  501    0  0.00000000000E+00 -0.00000000000E+00 -0.23897470783E+01  0.23897470783E+01  0.00000000000E+00 0. -1.
         23    2    1    2    0    0  0.00000000000E+00  0.00000000000E+00  0.87484363354E+03  0.87962312769E+03  0.91572177178E+02 0.  0.
          2    1    3    3  502    0 -0.42174318692E+02 -0.29406416953E+01  0.26855503537E+03  0.27186233198E+03  0.00000000000E+00 0. -1.
         -2    1    3    3    0  502  0.42174318692E+02  0.29406416953E+01  0.60628859817E+03  0.60776079571E+03  0.00000000000E+00 0.  1.
<mgrwt>
<rscale>  0 0.91572177E+02</rscale>
<asrwt>0</asrwt>
<pdfrwt beam="2">  1        3 0.36765410E-03 0.91572177E+02</pdfrwt>
<pdfrwt beam="1">  1       -3 0.13495872E+00 0.91572177E+02</pdfrwt>
<totfact> 0.11206150E+04</totfact>
</mgrwt>
</event>
<event>
 5    1  0.3957498E+001  0.9131009E+02  0.7546771E-02  0.1299710E+00
          1   -1    0    0  501    0  0.00000000000E+00  0.00000000000E+00  0.20894646704E+02  0.20894646704E+02  0.00000000000E+00 0. -1.
         -1   -1    0    0    0  501 -0.00000000000E+00 -0.00000000000E+00 -0.99756808003E+02  0.99756808003E+02  0.00000000000E+00 0.  1.
         23    2    1    2    0    0  0.00000000000E+00  0.00000000000E+00 -0.78862161299E+02  0.12065145471E+03  0.91310092750E+02 0.  0.
          2    1    3    3  502    0 -0.26075259933E+02 -0.31773614403E+02 -0.13173290447E+02  0.43162684509E+02  0.00000000000E+00 0. -1.
         -2    1    3    3    0  502  0.26075259933E+02  0.31773614403E+02 -0.65688870853E+02  0.77488770198E+02  0.00000000000E+00 0.  1.
<mgrwt>
<rscale>  0 0.91310093E+02</rscale>
<asrwt>0</asrwt>
<pdfrwt beam="1">  1        1 0.32145611E-02 0.91310093E+02</pdfrwt>
<pdfrwt beam="2">  1       -1 0.15347201E-01 0.91310093E+02</pdfrwt>
<totfact> 0.81101527E+04</totfact>
</mgrwt>
</event>
<event>
 5    1  0.3957498E+001  0.9681617E+02  0.7546771E-02  0.1287137E+00
         -2   -1    0    0    0  501 -0.00000000000E+00  0.00000000000E+00  0.84610334276E+00  0.84610334276E+00  0.00000000000E+00 0.  1.
          2   -1    0    0  501    0  0.00000000000E+00 -0.00000000000E+00 -0.27695705535E+04  0.27695705535E+04  0.00000000000E+00 0. -1.
         23    2    1    2    0    0  0.00000000000E+00  0.00000000000E+00 -0.27687244501E+04  0.27704166568E+04  0.96816174337E+02 0.  0.
          2    1    3    3  502    0 -0.72925868289E+01 -0.37643223911E+02 -0.22299161239E+04  0.22302457519E+04  0.00000000000E+00 0. -1.
         -2    1    3    3    0  502  0.72925868289E+01  0.37643223911E+02 -0.53880832625E+03  0.54017090496E+03  0.00000000000E+00 0.  1.
<mgrwt>
<rscale>  0 0.96816174E+02</rscale>
<asrwt>0</asrwt>
<pdfrwt beam="2">  1        2 0.42608985E+00 0.96816174E+02</pdfrwt>
<pdfrwt beam="1">  1       -2 0.13016911E-03 0.96816174E+02</pdfrwt>
<totfact> 0.10456209E+05</totfact>
</mgrwt>
</event>
<event>
 5    1  0.3957498E+001  0.9039814E+02  0.7546771E-02  0.1301890E+00
          4   -1    0    0  501    0  0.00000000000E+00  0.00000000000E+00  0.14666360453E+03  0.14666360453E+03  0.00000000000E+00 0. -1.
         -4   -1    0    0    0  501 -0.00000000000E+00 -0.00000000000E+00 -0.13929535679E+02  0.13929535679E+02  0.00000000000E+00 0.  1.
         23    2    1    2    0    0  0.00000000000E+00  0.00000000000E+00  0.13273406886E+03  0.16059314021E+03  0.90398139630E+02 0.  0.
          2    1    3    3  502    0 -0.38509498285E+02 -0.22991779823E+02  0.56419769461E+02  0.72074917854E+02  0.00000000000E+00 0.  1.
         -2    1    3    3    0  502  0.38509498285E+02  0.22991779823E+02  0.76314299394E+02  0.88518222359E+02  0.00000000000E+00 0. -1.
<mgrwt>
<rscale>  0 0.90398140E+02</rscale>
<asrwt>0</asrwt>
<pdfrwt beam="1">  1        4 0.22563630E-01 0.90398140E+02</pdfrwt>
<pdfrwt beam="2">  1       -4 0.21430056E-02 0.90398140E+02</pdfrwt>
<totfact> 0.23691311E+04</totfact>
</mgrwt>
</event>
<event>
 5    1  0.3957498E+001  0.9115690E+02  0.7546771E-02  0.1300074E+00
          2   -1    0    0  501    0  0.00000000000E+00  0.00000000000E+00  0.11401617835E+03  0.11401617835E+03  0.00000000000E+00 0. -1.
         -2   -1    0    0    0  501 -0.00000000000E+00 -0.00000000000E+00 -0.18220177628E+02  0.18220177628E+02  0.00000000000E+00 0.  1.
         23    2    1    2    0    0  0.00000000000E+00  0.00000000000E+00  0.95796000723E+02  0.13223635598E+03  0.91156898192E+02 0.  0.
          2    1    3    3  502    0 -0.31793342870E+02  0.28845781266E+01  0.95088766479E+02  0.10030459088E+03  0.00000000000E+00 0. -1.
         -2    1    3    3    0  502  0.31793342870E+02 -0.28845781266E+01  0.70723424447E+00  0.31931765095E+02  0.00000000000E+00 0.  1.
<mgrwt>
<rscale>  0 0.91156898E+02</rscale>
<asrwt>0</asrwt>
<pdfrwt beam="1">  1        2 0.17540950E-01 0.91156898E+02</pdfrwt>
<pdfrwt beam="2">  1       -2 0.28031043E-02 0.91156898E+02</pdfrwt>
<totfact> 0.12784578E+05</totfact>
</mgrwt>
</event>
<event>
 5    1  0.3957498E+001  0.8969643E+02  0.7546771E-02  0.1303589E+00
         -3   -1    0    0    0  501 -0.00000000000E+00  0.00000000000E+00  0.61357877968E+01  0.61357877968E+01  0.00000000000E+00 0.  1.
          3   -1    0    0  501    0  0.00000000000E+00 -0.00000000000E+00 -0.32780832432E+03  0.32780832432E+03  0.00000000000E+00 0. -1.
         23    2    1    2    0    0  0.00000000000E+00  0.00000000000E+00 -0.32167253652E+03  0.33394411212E+03  0.89696428381E+02 0.  0.
          2    1    3    3  502    0 -0.25886467382E+02 -0.35289990924E+02 -0.19728976899E+03  0.20208598567E+03  0.00000000000E+00 0. -1.
         -2    1    3    3    0  502  0.25886467382E+02  0.35289990924E+02 -0.12438276753E+03  0.13185812645E+03  0.00000000000E+00 0.  1.
<mgrwt>
<rscale>  0 0.89696428E+02</rscale>
<asrwt>0</asrwt>
<pdfrwt beam="2">  1        3 0.50432048E-01 0.89696428E+02</pdfrwt>
<pdfrwt beam="1">  1       -3 0.94396739E-03 0.89696428E+02</pdfrwt>
<totfact> 0.23794147E+04</totfact>
</mgrwt>
</event>
<event>
 5    1  0.3957498E+001  0.9418006E+02  0.7546771E-02  0.1293034E+00
          2   -1    0    0  501    0  0.00000000000E+00  0.00000000000E+00  0.23235237897E+03  0.23235237897E+03  0.00000000000E+00 0. -1.
         -2   -1    0    0    0  501 -0.00000000000E+00 -0.00000000000E+00 -0.95435681702E+01  0.95435681702E+01  0.00000000000E+00 0.  1.
         23    2    1    2    0    0  0.00000000000E+00  0.00000000000E+00  0.22280881080E+03  0.24189594714E+03  0.94180056662E+02 0.  0.
          2    1    3    3  502    0 -0.42080644119E+01 -0.19808393125E+02  0.22111924390E+01  0.20370803035E+02  0.00000000000E+00 0.  1.
         -2    1    3    3    0  502  0.42080644119E+01  0.19808393125E+02  0.22059761836E+03  0.22152514411E+03  0.00000000000E+00 0. -1.
<mgrwt>
<rscale>  0 0.94180057E+02</rscale>
<asrwt>0</asrwt>
<pdfrwt beam="1">  1        2 0.35746516E-01 0.94180057E+02</pdfrwt>
<pdfrwt beam="2">  1       -2 0.14682414E-02 0.94180057E+02</pdfrwt>
<totfact> 0.14974716E+05</totfact>
</mgrwt>
</event>
<event>
 5    1  0.3957498E+001  0.8592071E+02  0.7546771E-02  0.1313042E+00
         -1   -1    0    0    0  501 -0.00000000000E+00  0.00000000000E+00  0.18875723140E+01  0.18875723140E+01  0.00000000000E+00 0.  1.
          1   -1    0    0  501    0  0.00000000000E+00 -0.00000000000E+00 -0.97775968219E+03  0.97775968219E+03  0.00000000000E+00 0. -1.
         23    2    1    2    0    0  0.00000000000E+00  0.00000000000E+00 -0.97587210988E+03  0.97964725451E+03  0.85920710096E+02 0.  0.
          2    1    3    3  502    0  0.20442840322E+02 -0.25769899618E+01 -0.91774480233E+03  0.91797607420E+03  0.00000000000E+00 0. -1.
         -2    1    3    3    0  502 -0.20442840322E+02  0.25769899618E+01 -0.58127307550E+02  0.61671180309E+02  0.00000000000E+00 0.  1.
<mgrwt>
<rscale>  0 0.85920710E+02</rscale>
<asrwt>0</asrwt>
<pdfrwt beam="2">  1        1 0.15042488E+00 0.85920710E+02</pdfrwt>
<pdfrwt beam="1">  1       -1 0.29039514E-03 0.85920710E+02</pdfrwt>
<totfact> 0.15997594E+05</totfact>
</mgrwt>
</event>
<event>
 5    1  0.3957498E+001  0.8813978E+02  0.7546771E-02  0.1307420E+00
          1   -1    0    0  501    0  0.00000000000E+00  0.00000000000E+00  0.15732768658E+04  0.15732768658E+04  0.00000000000E+00 0. -1.
         -1   -1    0    0    0  501 -0.00000000000E+00 -0.00000000000E+00 -0.12344650747E+01  0.12344650747E+01  0.00000000000E+00 0.  1.
         23    2    1    2    0    0  0.00000000000E+00  0.00000000000E+00  0.15720424007E+04  0.15745113308E+04  0.88139783155E+02 0.  0.
          2    1    3    3  502    0 -0.92703158572E+01 -0.40310774248E+02  0.10576790498E+04  0.10584875387E+04  0.00000000000E+00 0. -1.
         -2    1    3    3    0  502  0.92703158572E+01  0.40310774248E+02  0.51436335090E+03  0.51602379211E+03  0.00000000000E+00 0.  1.
<mgrwt>
<rscale>  0 0.88139783E+02</rscale>
<asrwt>0</asrwt>
<pdfrwt beam="1">  1        1 0.24204099E+00 0.88139783E+02</pdfrwt>
<pdfrwt beam="2">  1       -1 0.18991896E-03 0.88139783E+02</pdfrwt>
<totfact> 0.11599361E+05</totfact>
</mgrwt>
</event>
<event>
 5    1  0.3957498E+001  0.9016780E+02  0.7546771E-02  0.1302446E+00
         -1   -1    0    0    0  501 -0.00000000000E+00  0.00000000000E+00  0.49133486791E+02  0.49133486791E+02  0.00000000000E+00 0.  1.
          1   -1    0    0  501    0  0.00000000000E+00 -0.00000000000E+00 -0.41368076582E+02  0.41368076582E+02  0.00000000000E+00 0. -1.
         23    2    1    2    0    0  0.00000000000E+00  0.00000000000E+00  0.77654102089E+01  0.90501563372E+02  0.90167795676E+02 0.  0.
          2    1    3    3  502    0 -0.23925041208E+02  0.33790394712E+02  0.21791382663E+02  0.46787420639E+02  0.00000000000E+00 0. -1.
         -2    1    3    3    0  502  0.23925041208E+02 -0.33790394712E+02 -0.14025972455E+02  0.43714142734E+02  0.00000000000E+00 0.  1.
<mgrwt>
<rscale>  0 0.90167796E+02</rscale>
<asrwt>0</asrwt>
<pdfrwt beam="2">  1        1 0.63643194E-02 0.90167796E+02</pdfrwt>
<pdfrwt beam="1">  1       -1 0.75589980E-02 0.90167796E+02</pdfrwt>
<totfact> 0.94027626E+04</totfact>
</mgrwt>
</event>
<event>
 5    1  0.3957498E+001  0.9041351E+02  0.7546771E-02  0.1301853E+00
         -1   -1    0    0    0  501 -0.00000000000E+00  0.00000000000E+00  0.13724112510E+01  0.13724112510E+01  0.00000000000E+00 0.  1.
          1   -1    0    0  501    0  0.00000000000E+00 -0.00000000000E+00 -0.14890951175E+04  0.14890951175E+04  0.00000000000E+00 0. -1.
         23    2    1    2    0    0  0.00000000000E+00  0.00000000000E+00 -0.14877227062E+04  0.14904675287E+04  0.90413514323E+02 0.  0.
          2    1    3    3  502    0 -0.13349554021E+02  0.21546677023E+02 -0.13609339917E+04  0.13611700113E+04  0.00000000000E+00 0. -1.
         -2    1    3    3    0  502  0.13349554021E+02 -0.21546677023E+02 -0.12678871453E+03  0.12929751744E+03  0.00000000000E+00 0.  1.
<mgrwt>
<rscale>  0 0.90413514E+02</rscale>
<asrwt>0</asrwt>
<pdfrwt beam="2">  1        1 0.22909127E+00 0.90413514E+02</pdfrwt>
<pdfrwt beam="1">  1       -1 0.21114045E-03 0.90413514E+02</pdfrwt>
<totfact> 0.11366878E+05</totfact>
</mgrwt>
</event>
<event>
 5    1  0.3957498E+001  0.9017549E+02  0.7546771E-02  0.1302427E+00
          1   -1    0    0  501    0  0.00000000000E+00  0.00000000000E+00  0.11305169091E+04  0.11305169091E+04  0.00000000000E+00 0. -1.
         -1   -1    0    0    0  501 -0.00000000000E+00 -0.00000000000E+00 -0.17982081391E+01  0.17982081391E+01  0.00000000000E+00 0.  1.
         23    2    1    2    0    0  0.00000000000E+00  0.00000000000E+00  0.11287187010E+04  0.11323151173E+04  0.90175489073E+02 0.  0.
          2    1    3    3  502    0  0.13259586185E+02  0.25309845816E+02  0.10023197241E+04  0.10027268991E+04  0.00000000000E+00 0. -1.
         -2    1    3    3    0  502 -0.13259586185E+02 -0.25309845816E+02  0.12639897687E+03  0.12958821812E+03  0.00000000000E+00 0.  1.
<mgrwt>
<rscale>  0 0.90175489E+02</rscale>
<asrwt>0</asrwt>
<pdfrwt beam="1">  1        1 0.17392511E+00 0.90175489E+02</pdfrwt>
<pdfrwt beam="2">  1       -1 0.27664831E-03 0.90175489E+02</pdfrwt>
<totfact> 0.13450153E+05</totfact>
</mgrwt>
</event>
<event>
 5    1  0.3957498E+001  0.9115172E+02  0.7546771E-02  0.1300086E+00
          2   -1    0    0  501    0  0.00000000000E+00  0.00000000000E+00  0.84060338565E+02  0.84060338565E+02  0.00000000000E+00 0. -1.
         -2   -1    0    0    0  501 -0.00000000000E+00 -0.00000000000E+00 -0.24710335255E+02  0.24710335255E+02  0.00000000000E+00 0.  1.
         23    2    1    2    0    0  0.00000000000E+00  0.00000000000E+00  0.59350003309E+02  0.10877067382E+03  0.91151722915E+02 0.  0.
          2    1    3    3  502    0  0.43487598161E+02  0.90077144130E+01  0.41893818514E+02  0.61052454025E+02  0.00000000000E+00 0. -1.
         -2    1    3    3    0  502 -0.43487598161E+02 -0.90077144130E+01  0.17456184795E+02  0.47718219795E+02  0.00000000000E+00 0.  1.
<mgrwt>
<rscale>  0 0.91151723E+02</rscale>
<asrwt>0</asrwt>
<pdfrwt beam="1">  1        2 0.12932360E-01 0.91151723E+02</pdfrwt>
<pdfrwt beam="2">  1       -2 0.38015901E-02 0.91151723E+02</pdfrwt>
<totfact> 0.11659381E+05</totfact>
</mgrwt>
</event>
<event>
 5    1  0.3957498E+001  0.9285252E+02  0.7546771E-02  0.1296087E+00
         -2   -1    0    0    0  501 -0.00000000000E+00  0.00000000000E+00  0.10550651792E+01  0.10550651792E+01  0.00000000000E+00 0.  1.
          2   -1    0    0  501    0  0.00000000000E+00 -0.00000000000E+00 -0.20429048449E+04  0.20429048449E+04  0.00000000000E+00 0. -1.
         23    2    1    2    0    0  0.00000000000E+00  0.00000000000E+00 -0.20418497797E+04  0.20439599100E+04  0.92852523201E+02 0.  0.
          2    1    3    3  502    0 -0.13741986375E+02  0.43724320703E+02 -0.11837901677E+04  0.11846770950E+04  0.00000000000E+00 0. -1.
         -2    1    3    3    0  502  0.13741986375E+02 -0.43724320703E+02 -0.85805961203E+03  0.85928281503E+03  0.00000000000E+00 0.  1.
<mgrwt>
<rscale>  0 0.92852523E+02</rscale>
<asrwt>0</asrwt>
<pdfrwt beam="2">  1        2 0.31429650E+00 0.92852523E+02</pdfrwt>
<pdfrwt beam="1">  1       -2 0.16231594E-03 0.92852523E+02</pdfrwt>
<totfact> 0.18376742E+05</totfact>
</mgrwt>
</event>
<event>
 5    1  0.3957498E+001  0.9017021E+02  0.7546771E-02  0.1302440E+00
          1   -1    0    0  501    0  0.00000000000E+00  0.00000000000E+00  0.57799571417E+02  0.57799571417E+02  0.00000000000E+00 0. -1.
         -1   -1    0    0    0  501 -0.00000000000E+00 -0.00000000000E+00 -0.35167500828E+02  0.35167500828E+02  0.00000000000E+00 0.  1.
         23    2    1    2    0    0  0.00000000000E+00  0.00000000000E+00  0.22632070589E+02  0.92967072245E+02  0.90170205183E+02 0.  0.
          2    1    3    3  502    0  0.93375513884E+01 -0.19426413915E+02  0.52143436316E+02  0.56422631757E+02  0.00000000000E+00 0. -1.
         -2    1    3    3    0  502 -0.93375513884E+01  0.19426413915E+02 -0.29511365727E+02  0.36544440488E+02  0.00000000000E+00 0.  1.
<mgrwt>
<rscale>  0 0.90170205E+02</rscale>
<asrwt>0</asrwt>
<pdfrwt beam="1">  1        1 0.88922418E-02 0.90170205E+02</pdfrwt>
<pdfrwt beam="2">  1       -1 0.54103847E-02 0.90170205E+02</pdfrwt>
<totfact> 0.98825371E+04</totfact>
</mgrwt>
</event>
<event>
 5    1  0.3957498E+001  0.9208229E+02  0.7546771E-02  0.1297886E+00
          1   -1    0    0  501    0  0.00000000000E+00  0.00000000000E+00  0.51332500108E+03  0.51332500108E+03  0.00000000000E+00 0. -1.
         -1   -1    0    0    0  501 -0.00000000000E+00 -0.00000000000E+00 -0.41295226384E+01  0.41295226384E+01  0.00000000000E+00 0.  1.
         23    2    1    2    0    0  0.00000000000E+00  0.00000000000E+00  0.50919547845E+03  0.51745452372E+03  0.92082293908E+02 0.  0.
          2    1    3    3  502    0 -0.29159153853E+02  0.27009587766E+02  0.38518421977E+03  0.38722946330E+03  0.00000000000E+00 0. -1.
         -2    1    3    3    0  502  0.29159153853E+02 -0.27009587766E+02  0.12401125867E+03  0.13022506042E+03  0.00000000000E+00 0.  1.
<mgrwt>
<rscale>  0 0.92082294E+02</rscale>
<asrwt>0</asrwt>
<pdfrwt beam="1">  1        1 0.78973026E-01 0.92082294E+02</pdfrwt>
<pdfrwt beam="2">  1       -1 0.63531158E-03 0.92082294E+02</pdfrwt>
<totfact> 0.13607251E+05</totfact>
</mgrwt>
</event>
<event>
 5    1  0.3957498E+001  0.9024519E+02  0.7546771E-02  0.1302259E+00
          2   -1    0    0  501    0  0.00000000000E+00  0.00000000000E+00  0.16179613125E+04  0.16179613125E+04  0.00000000000E+00 0. -1.
         -2   -1    0    0    0  501 -0.00000000000E+00 -0.00000000000E+00 -0.12584038164E+01  0.12584038164E+01  0.00000000000E+00 0.  1.
         23    2    1    2    0    0  0.00000000000E+00  0.00000000000E+00  0.16167029087E+04  0.16192197163E+04  0.90245192457E+02 0.  0.
          2    1    3    3  502    0  0.14957928906E+02  0.40995710238E+02  0.60247345224E+03  0.60405185916E+03  0.00000000000E+00 0. -1.
         -2    1    3    3    0  502 -0.14957928906E+02 -0.40995710238E+02  0.10142294564E+04  0.10151678571E+04  0.00000000000E+00 0.  1.
<mgrwt>
<rscale>  0 0.90245192E+02</rscale>
<asrwt>0</asrwt>
<pdfrwt beam="1">  1        2 0.24891546E+00 0.90245192E+02</pdfrwt>
<pdfrwt beam="2">  1       -2 0.19360188E-03 0.90245192E+02</pdfrwt>
<totfact> 0.23456600E+05</totfact>
</mgrwt>
</event>
<event>
 5    1  0.3957498E+001  0.9690882E+02  0.7546771E-02  0.1286934E+00
         -1   -1    0    0    0  501 -0.00000000000E+00  0.00000000000E+00  0.66965584090E+03  0.66965584090E+03  0.00000000000E+00 0.  1.
          1   -1    0    0  501    0  0.00000000000E+00 -0.00000000000E+00 -0.35060245891E+01  0.35060245891E+01  0.00000000000E+00 0. -1.
         23    2    1    2    0    0  0.00000000000E+00  0.00000000000E+00  0.66614981631E+03  0.67316186549E+03  0.96908819917E+02 0.  0.
          2    1    3    3  502    0 -0.20988775335E+02  0.14316513079E+02  0.46472935983E+02  0.52964374967E+02  0.00000000000E+00 0. -1.
         -2    1    3    3    0  502  0.20988775335E+02 -0.14316513079E+02  0.61967688033E+03  0.62019749052E+03  0.00000000000E+00 0.  1.
<mgrwt>
<rscale>  0 0.96908820E+02</rscale>
<asrwt>0</asrwt>
<pdfrwt beam="2">  1        1 0.53938893E-03 0.96908820E+02</pdfrwt>
<pdfrwt beam="1">  1       -1 0.10302387E+00 0.96908820E+02</pdfrwt>
<totfact> 0.32560794E+04</totfact>
</mgrwt>
</event>
<event>
 5    1  0.3957498E+001  0.8655821E+02  0.7546771E-02  0.1311407E+00
          1   -1    0    0  501    0  0.00000000000E+00  0.00000000000E+00  0.20225918567E+03  0.20225918567E+03  0.00000000000E+00 0. -1.
         -1   -1    0    0    0  501 -0.00000000000E+00 -0.00000000000E+00 -0.92607958567E+01  0.92607958567E+01  0.00000000000E+00 0.  1.
         23    2    1    2    0    0  0.00000000000E+00  0.00000000000E+00  0.19299838981E+03  0.21151998153E+03  0.86558212288E+02 0.  0.
          2    1    3    3  502    0 -0.56237420274E+01  0.41735767312E+02  0.72113799864E+02  0.83509884914E+02  0.00000000000E+00 0.  1.
         -2    1    3    3    0  502  0.56237420274E+01 -0.41735767312E+02  0.12088458995E+03  0.12801009661E+03  0.00000000000E+00 0. -1.
<mgrwt>
<rscale>  0 0.86558212E+02</rscale>
<asrwt>0</asrwt>
<pdfrwt beam="1">  1        1 0.31116795E-01 0.86558212E+02</pdfrwt>
<pdfrwt beam="2">  1       -1 0.14247380E-02 0.86558212E+02</pdfrwt>
<totfact> 0.13634649E+05</totfact>
</mgrwt>
</event>
<event>
 5    1  0.3957498E+001  0.9457475E+02  0.7546771E-02  0.1292137E+00
          2   -1    0    0  501    0  0.00000000000E+00  0.00000000000E+00  0.56515258319E+03  0.56515258319E+03  0.00000000000E+00 0. -1.
         -2   -1    0    0    0  501 -0.00000000000E+00 -0.00000000000E+00 -0.39566229819E+01  0.39566229819E+01  0.00000000000E+00 0.  1.
         23    2    1    2    0    0  0.00000000000E+00  0.00000000000E+00  0.56119596020E+03  0.56910920617E+03  0.94574747136E+02 0.  0.
          2    1    3    3  502    0  0.26762595085E+02 -0.29236951273E+02  0.43578335802E+03  0.43758218764E+03  0.00000000000E+00 0. -1.
         -2    1    3    3    0  502 -0.26762595085E+02  0.29236951273E+02  0.12541260218E+03  0.13152701852E+03  0.00000000000E+00 0.  1.
<mgrwt>
<rscale>  0 0.94574747E+02</rscale>
<asrwt>0</asrwt>
<pdfrwt beam="1">  1        2 0.86946487E-01 0.94574747E+02</pdfrwt>
<pdfrwt beam="2">  1       -2 0.60871168E-03 0.94574747E+02</pdfrwt>
<totfact> 0.20322773E+05</totfact>
</mgrwt>
</event>
<event>
 5    1  0.3957498E+001  0.6472174E+02  0.7546771E-02  0.1379021E+00
         -2   -1    0    0    0  501 -0.00000000000E+00  0.00000000000E+00  0.44082749829E+00  0.44082749829E+00  0.00000000000E+00 0.  1.
          2   -1    0    0  501    0  0.00000000000E+00 -0.00000000000E+00 -0.23755912929E+04  0.23755912929E+04  0.00000000000E+00 0. -1.
         23    2    1    2    0    0  0.00000000000E+00  0.00000000000E+00 -0.23751504654E+04  0.23760321204E+04  0.64721741836E+02 0.  0.
          2    1    3    3  502    0  0.43728487493E+00 -0.31427836814E+02 -0.90481131399E+03  0.90535706441E+03  0.00000000000E+00 0. -1.
         -2    1    3    3    0  502 -0.43728487493E+00  0.31427836814E+02 -0.14703391514E+04  0.14706750560E+04  0.00000000000E+00 0.  1.
<mgrwt>
<rscale>  0 0.64721742E+02</rscale>
<asrwt>0</asrwt>
<pdfrwt beam="2">  1        2 0.36548576E+00 0.64721742E+02</pdfrwt>
<pdfrwt beam="1">  1       -2 0.67817726E-04 0.64721742E+02</pdfrwt>
<totfact> 0.39318058E+05</totfact>
</mgrwt>
</event>
<event>
 5    1  0.3957498E+001  0.8769320E+02  0.7546771E-02  0.1308536E+00
         -2   -1    0    0    0  501 -0.00000000000E+00  0.00000000000E+00  0.13606909400E+01  0.13606909400E+01  0.00000000000E+00 0.  1.
          2   -1    0    0  501    0  0.00000000000E+00 -0.00000000000E+00 -0.14129028953E+04  0.14129028953E+04  0.00000000000E+00 0. -1.
         23    2    1    2    0    0  0.00000000000E+00  0.00000000000E+00 -0.14115422043E+04  0.14142635862E+04  0.87693196284E+02 0.  0.
          2    1    3    3  502    0 -0.42152381157E+02  0.40381176463E+01 -0.52231911065E+03  0.52403280716E+03  0.00000000000E+00 0.  1.
         -2    1    3    3    0  502  0.42152381157E+02 -0.40381176463E+01 -0.88922309367E+03  0.89023077904E+03  0.00000000000E+00 0. -1.
<mgrwt>
<rscale>  0 0.87693196E+02</rscale>
<asrwt>0</asrwt>
<pdfrwt beam="2">  1        2 0.21736955E+00 0.87693196E+02</pdfrwt>
<pdfrwt beam="1">  1       -2 0.20933719E-03 0.87693196E+02</pdfrwt>
<totfact> 0.26673169E+05</totfact>
</mgrwt>
</event>
<event>
 5    1  0.3957498E+001  0.9137586E+02  0.7546771E-02  0.1299554E+00
          1   -1    0    0  501    0  0.00000000000E+00  0.00000000000E+00  0.38979005530E+02  0.38979005530E+02  0.00000000000E+00 0. -1.
         -1   -1    0    0    0  501 -0.00000000000E+00 -0.00000000000E+00 -0.53551575803E+02  0.53551575803E+02  0.00000000000E+00 0.  1.
         23    2    1    2    0    0  0.00000000000E+00  0.00000000000E+00 -0.14572570273E+02  0.92530581333E+02  0.91375864852E+02 0.  0.
          2    1    3    3  502    0  0.25084729722E+02 -0.23080274591E+02  0.23519264566E+02  0.41413748275E+02  0.00000000000E+00 0. -1.
         -2    1    3    3    0  502 -0.25084729722E+02  0.23080274591E+02 -0.38091834840E+02  0.51116833058E+02  0.00000000000E+00 0.  1.
<mgrwt>
<rscale>  0 0.91375865E+02</rscale>
<asrwt>0</asrwt>
<pdfrwt beam="1">  1        1 0.59967701E-02 0.91375865E+02</pdfrwt>
<pdfrwt beam="2">  1       -1 0.82387040E-02 0.91375865E+02</pdfrwt>
<totfact> 0.89751592E+04</totfact>
</mgrwt>
</event>
<event>
 5    1  0.3957498E+001  0.8965816E+02  0.7546771E-02  0.1303682E+00
         -2   -1    0    0    0  501 -0.00000000000E+00  0.00000000000E+00  0.82809613486E+03  0.82809613486E+03  0.00000000000E+00 0.  1.
          2   -1    0    0  501    0  0.00000000000E+00 -0.00000000000E+00 -0.24268274142E+01  0.24268274142E+01  0.00000000000E+00 0. -1.
         23    2    1    2    0    0  0.00000000000E+00  0.00000000000E+00  0.82566930745E+03  0.83052296228E+03  0.89658159733E+02 0.  0.
          2    1    3    3  502    0 -0.21383521128E+02 -0.21447248815E+02  0.10667070550E+03  0.11088678402E+03  0.00000000000E+00 0. -1.
         -2    1    3    3    0  502  0.21383521128E+02  0.21447248815E+02  0.71899860195E+03  0.71963617826E+03  0.00000000000E+00 0.  1.
<mgrwt>
<rscale>  0 0.89658160E+02</rscale>
<asrwt>0</asrwt>
<pdfrwt beam="2">  1        2 0.37335872E-03 0.89658160E+02</pdfrwt>
<pdfrwt beam="1">  1       -2 0.12739918E+00 0.89658160E+02</pdfrwt>
<totfact> 0.24034058E+04</totfact>
</mgrwt>
</event>
<event>
 5    1  0.3957498E+001  0.9195197E+02  0.7546771E-02  0.1298192E+00
         -2   -1    0    0    0  501 -0.00000000000E+00  0.00000000000E+00  0.10142250736E+02  0.10142250736E+02  0.00000000000E+00 0.  1.
          2   -1    0    0  501    0  0.00000000000E+00 -0.00000000000E+00 -0.20841442602E+03  0.20841442602E+03  0.00000000000E+00 0. -1.
         23    2    1    2    0    0  0.00000000000E+00  0.00000000000E+00 -0.19827217528E+03  0.21855667676E+03  0.91951973676E+02 0.  0.
          2    1    3    3  502    0 -0.60078827542E+00 -0.38833087369E+02 -0.15761940922E+03  0.16233375430E+03  0.00000000000E+00 0. -1.
         -2    1    3    3    0  502  0.60078827542E+00  0.38833087369E+02 -0.40652766061E+02  0.56222922457E+02  0.00000000000E+00 0.  1.
<mgrwt>
<rscale>  0 0.91951974E+02</rscale>
<asrwt>0</asrwt>
<pdfrwt beam="2">  1        2 0.32063759E-01 0.91951974E+02</pdfrwt>
<pdfrwt beam="1">  1       -2 0.15603462E-02 0.91951974E+02</pdfrwt>
<totfact> 0.15347007E+05</totfact>
</mgrwt>
</event>
<event>
 5    1  0.3957498E+001  0.9651790E+02  0.7546771E-02  0.1287794E+00
         -1   -1    0    0    0  501 -0.00000000000E+00  0.00000000000E+00  0.65805967447E+01  0.65805967447E+01  0.00000000000E+00 0.  1.
          1   -1    0    0  501    0  0.00000000000E+00 -0.00000000000E+00 -0.35390805239E+03  0.35390805239E+03  0.00000000000E+00 0. -1.
         23    2    1    2    0    0  0.00000000000E+00  0.00000000000E+00 -0.34732745564E+03  0.36048864913E+03  0.96517898391E+02 0.  0.
          2    1    3    3  502    0  0.13493059886E+02  0.17565299422E+02 -0.33380185267E+03  0.33453591624E+03  0.00000000000E+00 0. -1.
         -2    1    3    3    0  502 -0.13493059886E+02 -0.17565299422E+02 -0.13525602978E+02  0.25952732897E+02  0.00000000000E+00 0.  1.
<mgrwt>
<rscale>  0 0.96517898E+02</rscale>
<asrwt>0</asrwt>
<pdfrwt beam="2">  1        1 0.54447411E-01 0.96517898E+02</pdfrwt>
<pdfrwt beam="1">  1       -1 0.10123992E-02 0.96517898E+02</pdfrwt>
<totfact> 0.11348105E+05</totfact>
</mgrwt>
</event>
<event>
 5    1  0.3957498E+001  0.9134026E+02  0.7546771E-02  0.1299638E+00
          1   -1    0    0  501    0  0.00000000000E+00  0.00000000000E+00  0.68510815029E+03  0.68510815029E+03  0.00000000000E+00 0. -1.
         -1   -1    0    0    0  501 -0.00000000000E+00 -0.00000000000E+00 -0.30444257960E+01  0.30444257960E+01  0.00000000000E+00 0.  1.
         23    2    1    2    0    0  0.00000000000E+00  0.00000000000E+00  0.68206372449E+03  0.68815257608E+03  0.91340263318E+02 0.  0.
          2    1    3    3  502    0  0.18788312050E+02 -0.30631971632E+02  0.55338258063E+03  0.55454810333E+03  0.00000000000E+00 0. -1.
         -2    1    3    3    0  502 -0.18788312050E+02  0.30631971632E+02  0.12868114386E+03  0.13360447276E+03  0.00000000000E+00 0.  1.
<mgrwt>
<rscale>  0 0.91340263E+02</rscale>
<asrwt>0</asrwt>
<pdfrwt beam="1">  1        1 0.10540113E+00 0.91340263E+02</pdfrwt>
<pdfrwt beam="2">  1       -1 0.46837374E-03 0.91340263E+02</pdfrwt>
<totfact> 0.14151454E+05</totfact>
</mgrwt>
</event>
<event>
 5    1  0.3957498E+001  0.9059459E+02  0.7546771E-02  0.1301418E+00
         -1   -1    0    0    0  501 -0.00000000000E+00  0.00000000000E+00  0.46148558586E+02  0.46148558586E+02  0.00000000000E+00 0.  1.
          1   -1    0    0  501    0  0.00000000000E+00 -0.00000000000E+00 -0.44461736492E+02  0.44461736492E+02  0.00000000000E+00 0. -1.
         23    2    1    2    0    0  0.00000000000E+00  0.00000000000E+00  0.16868220944E+01  0.90610295078E+02  0.90594592583E+02 0.  0.
          2    1    3    3  502    0  0.34887847468E+02 -0.47980154190E+01 -0.27651212811E+02  0.44774685067E+02  0.00000000000E+00 0. -1.
         -2    1    3    3    0  502 -0.34887847468E+02  0.47980154190E+01  0.29338034906E+02  0.45835610011E+02  0.00000000000E+00 0.  1.
<mgrwt>
<rscale>  0 0.90594593E+02</rscale>
<asrwt>0</asrwt>
<pdfrwt beam="2">  1        1 0.68402671E-02 0.90594593E+02</pdfrwt>
<pdfrwt beam="1">  1       -1 0.70997783E-02 0.90594593E+02</pdfrwt>
<totfact> 0.93796579E+04</totfact>
</mgrwt>
</event>
<event>
 5    1  0.3957498E+001  0.9304297E+02  0.7546771E-02  0.1295646E+00
          2   -1    0    0  501    0  0.00000000000E+00  0.00000000000E+00  0.14876222863E+04  0.14876222863E+04  0.00000000000E+00 0. -1.
         -2   -1    0    0    0  501 -0.00000000000E+00 -0.00000000000E+00 -0.14548373157E+01  0.14548373157E+01  0.00000000000E+00 0.  1.
         23    2    1    2    0    0  0.00000000000E+00  0.00000000000E+00  0.14861674490E+04  0.14890771236E+04  0.93042966714E+02 0.  0.
          2    1    3    3  502    0 -0.20278306361E+02 -0.31863606651E+02  0.11777821209E+04  0.11783875523E+04  0.00000000000E+00 0. -1.
         -2    1    3    3    0  502  0.20278306361E+02  0.31863606651E+02  0.30838532808E+03  0.31068957129E+03  0.00000000000E+00 0.  1.
<mgrwt>
<rscale>  0 0.93042967E+02</rscale>
<asrwt>0</asrwt>
<pdfrwt beam="1">  1        2 0.22886375E+00 0.93042967E+02</pdfrwt>
<pdfrwt beam="2">  1       -2 0.22382232E-03 0.93042967E+02</pdfrwt>
<totfact> 0.22438173E+05</totfact>
</mgrwt>
</event>
<event>
 5    1  0.3957498E+001  0.8987935E+02  0.7546771E-02  0.1303144E+00
         -2   -1    0    0    0  501 -0.00000000000E+00  0.00000000000E+00  0.17620402973E+01  0.17620402973E+01  0.00000000000E+00 0.  1.
          2   -1    0    0  501    0  0.00000000000E+00 -0.00000000000E+00 -0.11461567612E+04  0.11461567612E+04  0.00000000000E+00 0. -1.
         23    2    1    2    0    0  0.00000000000E+00  0.00000000000E+00 -0.11443947209E+04  0.11479188015E+04  0.89879350247E+02 0.  0.
          2    1    3    3  502    0 -0.23152385509E+02 -0.24128174305E+01 -0.10631586884E+04  0.10634134903E+04  0.00000000000E+00 0. -1.
         -2    1    3    3    0  502  0.23152385509E+02  0.24128174305E+01 -0.81236032473E+02  0.84505311162E+02  0.00000000000E+00 0.  1.
<mgrwt>
<rscale>  0 0.89879350E+02</rscale>
<asrwt>0</asrwt>
<pdfrwt beam="2">  1        2 0.17633142E+00 0.89879350E+02</pdfrwt>
<pdfrwt beam="1">  1       -2 0.27108373E-03 0.89879350E+02</pdfrwt>
<totfact> 0.25928701E+05</totfact>
</mgrwt>
</event>
<event>
 5    1  0.3957498E+001  0.8590351E+02  0.7546771E-02  0.1313087E+00
         -1   -1    0    0    0  501 -0.00000000000E+00  0.00000000000E+00  0.12576474775E+04  0.12576474775E+04  0.00000000000E+00 0.  1.
          1   -1    0    0  501    0  0.00000000000E+00 -0.00000000000E+00 -0.14669079253E+01  0.14669079253E+01  0.00000000000E+00 0. -1.
         23    2    1    2    0    0  0.00000000000E+00  0.00000000000E+00  0.12561805695E+04  0.12591143854E+04  0.85903505213E+02 0.  0.
          2    1    3    3  502    0 -0.35405937728E+01 -0.39228201607E+02  0.87918223347E+03  0.88006408133E+03  0.00000000000E+00 0.  1.
         -2    1    3    3    0  502  0.35405937728E+01  0.39228201607E+02  0.37699833606E+03  0.37905030404E+03  0.00000000000E+00 0. -1.
<mgrwt>
<rscale>  0 0.85903505E+02</rscale>
<asrwt>0</asrwt>
<pdfrwt beam="2">  1        1 0.22567915E-03 0.85903505E+02</pdfrwt>
<pdfrwt beam="1">  1       -1 0.19348337E+00 0.85903505E+02</pdfrwt>
<totfact> 0.21890469E+04</totfact>
</mgrwt>
</event>
<event>
 5    1  0.3957498E+001  0.9709114E+02  0.7546771E-02  0.1286535E+00
         -1   -1    0    0    0  501 -0.00000000000E+00  0.00000000000E+00  0.11177755794E+02  0.11177755794E+02  0.00000000000E+00 0.  1.
          1   -1    0    0  501    0  0.00000000000E+00 -0.00000000000E+00 -0.21083590118E+03  0.21083590118E+03  0.00000000000E+00 0. -1.
         23    2    1    2    0    0  0.00000000000E+00  0.00000000000E+00 -0.19965814538E+03  0.22201365697E+03  0.97091136895E+02 0.  0.
          2    1    3    3  502    0  0.40786295105E+02  0.19993057670E+02 -0.13899882950E+03  0.14623241373E+03  0.00000000000E+00 0. -1.
         -2    1    3    3    0  502 -0.40786295105E+02 -0.19993057670E+02 -0.60659315882E+02  0.75781243238E+02  0.00000000000E+00 0.  1.
<mgrwt>
<rscale>  0 0.97091137E+02</rscale>
<asrwt>0</asrwt>
<pdfrwt beam="2">  1        1 0.32436292E-01 0.97091137E+02</pdfrwt>
<pdfrwt beam="1">  1       -1 0.17196548E-02 0.97091137E+02</pdfrwt>
<totfact> 0.10101794E+05</totfact>
</mgrwt>
</event>
<event>
 5    1  0.3957498E+001  0.8934566E+02  0.7546771E-02  0.1304444E+00
         -1   -1    0    0    0  501 -0.00000000000E+00  0.00000000000E+00  0.32223792085E+01  0.32223792085E+01  0.00000000000E+00 0.  1.
          1   -1    0    0  501    0  0.00000000000E+00 -0.00000000000E+00 -0.61931306146E+03  0.61931306146E+03  0.00000000000E+00 0. -1.
         23    2    1    2    0    0  0.00000000000E+00  0.00000000000E+00 -0.61609068225E+03  0.62253544066E+03  0.89345655357E+02 0.  0.
          2    1    3    3  502    0  0.37177294745E+02  0.23197421148E+02 -0.24754646017E+03  0.25139515018E+03  0.00000000000E+00 0. -1.
         -2    1    3    3    0  502 -0.37177294745E+02 -0.23197421148E+02 -0.36854422208E+03  0.37114029048E+03  0.00000000000E+00 0.  1.
<mgrwt>
<rscale>  0 0.89345655E+02</rscale>
<asrwt>0</asrwt>
<pdfrwt beam="2">  1        1 0.95278996E-01 0.89345655E+02</pdfrwt>
<pdfrwt beam="1">  1       -1 0.49575032E-03 0.89345655E+02</pdfrwt>
<totfact> 0.14964086E+05</totfact>
</mgrwt>
</event>
<event>
 5    1  0.3957498E+001  0.9253099E+02  0.7546771E-02  0.1296836E+00
         -2   -1    0    0    0  501 -0.00000000000E+00  0.00000000000E+00  0.65942927083E+01  0.65942927083E+01  0.00000000000E+00 0.  1.
          2   -1    0    0  501    0  0.00000000000E+00 -0.00000000000E+00 -0.32459824738E+03  0.32459824738E+03  0.00000000000E+00 0. -1.
         23    2    1    2    0    0  0.00000000000E+00  0.00000000000E+00 -0.31800395467E+03  0.33119254009E+03  0.92530986287E+02 0.  0.
          2    1    3    3  502    0 -0.22663461485E+02  0.22507848372E+02 -0.27880086751E+03  0.28062458810E+03  0.00000000000E+00 0. -1.
         -2    1    3    3    0  502  0.22663461485E+02 -0.22507848372E+02 -0.39203087166E+02  0.50567951987E+02  0.00000000000E+00 0.  1.
<mgrwt>
<rscale>  0 0.92530986E+02</rscale>
<asrwt>0</asrwt>
<pdfrwt beam="2">  1        2 0.49938198E-01 0.92530986E+02</pdfrwt>
<pdfrwt beam="1">  1       -2 0.10145064E-02 0.92530986E+02</pdfrwt>
<totfact> 0.17785927E+05</totfact>
</mgrwt>
</event>
<event>
 5    1  0.3957498E+001  0.9084958E+02  0.7546771E-02  0.1300807E+00
         -2   -1    0    0    0  501 -0.00000000000E+00  0.00000000000E+00  0.28897567851E+01  0.28897567851E+01  0.00000000000E+00 0. -1.
          2   -1    0    0  501    0  0.00000000000E+00 -0.00000000000E+00 -0.71404327456E+03  0.71404327456E+03  0.00000000000E+00 0.  1.
         23    2    1    2    0    0  0.00000000000E+00  0.00000000000E+00 -0.71115351777E+03  0.71693303134E+03  0.90849576719E+02 0.  0.
          2    1    3    3  502    0 -0.12754574192E+02 -0.41873225051E+02 -0.45137405187E+03  0.45349154440E+03  0.00000000000E+00 0.  1.
         -2    1    3    3    0  502  0.12754574192E+02  0.41873225051E+02 -0.25977946590E+03  0.26344148694E+03  0.00000000000E+00 0. -1.
<mgrwt>
<rscale>  0 0.90849577E+02</rscale>
<asrwt>0</asrwt>
<pdfrwt beam="2">  1        2 0.10985289E+00 0.90849577E+02</pdfrwt>
<pdfrwt beam="1">  1       -2 0.44457765E-03 0.90849577E+02</pdfrwt>
<totfact> 0.24049424E+05</totfact>
</mgrwt>
</event>
<event>
 5    1  0.3957498E+001  0.9082242E+02  0.7546771E-02  0.1300872E+00
          1   -1    0    0  501    0  0.00000000000E+00  0.00000000000E+00  0.88110209535E+03  0.88110209535E+03  0.00000000000E+00 0. -1.
         -1   -1    0    0    0  501 -0.00000000000E+00 -0.00000000000E+00 -0.23404531789E+01  0.23404531789E+01  0.00000000000E+00 0.  1.
         23    2    1    2    0    0  0.00000000000E+00  0.00000000000E+00  0.87876164217E+03  0.88344254853E+03  0.90822424545E+02 0.  0.
          2    1    3    3  502    0  0.27091547493E+02 -0.22948242225E+02  0.71478167074E+03  0.71566291688E+03  0.00000000000E+00 0. -1.
         -2    1    3    3    0  502 -0.27091547493E+02  0.22948242225E+02  0.16397997143E+03  0.16777963165E+03  0.00000000000E+00 0.  1.
<mgrwt>
<rscale>  0 0.90822425E+02</rscale>
<asrwt>0</asrwt>
<pdfrwt beam="1">  1        1 0.13555390E+00 0.90822425E+02</pdfrwt>
<pdfrwt beam="2">  1       -1 0.36007042E-03 0.90822425E+02</pdfrwt>
<totfact> 0.14110793E+05</totfact>
</mgrwt>
</event>
<event>
 5    1  0.3957498E+001  0.9802770E+02  0.7546771E-02  0.1284499E+00
         -2   -1    0    0    0  501 -0.00000000000E+00  0.00000000000E+00  0.21419695048E+02  0.21419695048E+02  0.00000000000E+00 0. -1.
          2   -1    0    0  501    0  0.00000000000E+00 -0.00000000000E+00 -0.11215646844E+03  0.11215646844E+03  0.00000000000E+00 0.  1.
         23    2    1    2    0    0  0.00000000000E+00  0.00000000000E+00 -0.90736773388E+02  0.13357616348E+03  0.98027697138E+02 0.  0.
          2    1    3    3  502    0  0.48043665285E+02  0.81728109363E+01 -0.52497041071E+02  0.71630495836E+02  0.00000000000E+00 0. -1.
         -2    1    3    3    0  502 -0.48043665285E+02 -0.81728109363E+01 -0.38239732317E+02  0.61945667647E+02  0.00000000000E+00 0.  1.
<mgrwt>
<rscale>  0 0.98027697E+02</rscale>
<asrwt>0</asrwt>
<pdfrwt beam="2">  1        2 0.17254841E-01 0.98027697E+02</pdfrwt>
<pdfrwt beam="1">  1       -2 0.32953377E-02 0.98027697E+02</pdfrwt>
<totfact> 0.10409384E+05</totfact>
</mgrwt>
</event>
<event>
 5    1  0.3957498E+001  0.9462278E+02  0.7546771E-02  0.1292028E+00
         -2   -1    0    0    0  501 -0.00000000000E+00  0.00000000000E+00  0.57282445621E+01  0.57282445621E+01  0.00000000000E+00 0.  1.
          2   -1    0    0  501    0  0.00000000000E+00 -0.00000000000E+00 -0.39075980749E+03  0.39075980749E+03  0.00000000000E+00 0. -1.
         23    2    1    2    0    0  0.00000000000E+00  0.00000000000E+00 -0.38503156292E+03  0.39648805205E+03  0.94622782506E+02 0.  0.
          2    1    3    3  502    0 -0.42185768393E+02 -0.19356717428E+02 -0.23093012125E+03  0.23554838667E+03  0.00000000000E+00 0. -1.
         -2    1    3    3    0  502  0.42185768393E+02  0.19356717428E+02 -0.15410144168E+03  0.16093966538E+03  0.00000000000E+00 0.  1.
<mgrwt>
<rscale>  0 0.94622783E+02</rscale>
<asrwt>0</asrwt>
<pdfrwt beam="2">  1        2 0.60116894E-01 0.94622783E+02</pdfrwt>
<pdfrwt beam="1">  1       -2 0.88126838E-03 0.94622783E+02</pdfrwt>
<totfact> 0.17934150E+05</totfact>
</mgrwt>
</event>
<event>
 5    1  0.3957498E+001  0.9193537E+02  0.7546771E-02  0.1298231E+00
          1   -1    0    0  501    0  0.00000000000E+00  0.00000000000E+00  0.11061107992E+04  0.11061107992E+04  0.00000000000E+00 0. -1.
         -1   -1    0    0    0  501 -0.00000000000E+00 -0.00000000000E+00 -0.19103221233E+01  0.19103221233E+01  0.00000000000E+00 0.  1.
         23    2    1    2    0    0  0.00000000000E+00  0.00000000000E+00  0.11042004771E+04  0.11080211213E+04  0.91935367090E+02 0.  0.
          2    1    3    3  502    0  0.35947438626E+02 -0.21721851756E+02  0.77724400837E+03  0.77837799669E+03  0.00000000000E+00 0. -1.
         -2    1    3    3    0  502 -0.35947438626E+02  0.21721851756E+02  0.32695646872E+03  0.32964312465E+03  0.00000000000E+00 0.  1.
<mgrwt>
<rscale>  0 0.91935367E+02</rscale>
<asrwt>0</asrwt>
<pdfrwt beam="1">  1        1 0.17017038E+00 0.91935367E+02</pdfrwt>
<pdfrwt beam="2">  1       -1 0.29389659E-03 0.91935367E+02</pdfrwt>
<totfact> 0.12887710E+05</totfact>
</mgrwt>
</event>
<event>
 5    1  0.3957498E+001  0.9333565E+02  0.7546771E-02  0.1294969E+00
         -3   -1    0    0    0  501 -0.00000000000E+00  0.00000000000E+00  0.22245111763E+02  0.22245111763E+02  0.00000000000E+00 0.  1.
          3   -1    0    0  501    0  0.00000000000E+00 -0.00000000000E+00 -0.97904029968E+02  0.97904029968E+02  0.00000000000E+00 0. -1.
         23    2    1    2    0    0  0.00000000000E+00  0.00000000000E+00 -0.75658918205E+02  0.12014914173E+03  0.93335654252E+02 0.  0.
          2    1    3    3  502    0  0.42707928205E+02 -0.96855672006E+01 -0.58590569303E+02  0.73148015385E+02  0.00000000000E+00 0. -1.
         -2    1    3    3    0  502 -0.42707928205E+02  0.96855672006E+01 -0.17068348902E+02  0.47001126346E+02  0.00000000000E+00 0.  1.
<mgrwt>
<rscale>  0 0.93335654E+02</rscale>
<asrwt>0</asrwt>
<pdfrwt beam="2">  1        3 0.15062158E-01 0.93335654E+02</pdfrwt>
<pdfrwt beam="1">  1       -3 0.34223249E-02 0.93335654E+02</pdfrwt>
<totfact> 0.31183750E+04</totfact>
</mgrwt>
</event>
<event>
 5    1  0.3957498E+001  0.8847555E+02  0.7546771E-02  0.1306586E+00
         -4   -1    0    0    0  501 -0.00000000000E+00  0.00000000000E+00  0.50634166152E+03  0.50634166152E+03  0.00000000000E+00 0.  1.
          4   -1    0    0  501    0  0.00000000000E+00 -0.00000000000E+00 -0.38649409407E+01  0.38649409407E+01  0.00000000000E+00 0. -1.
         23    2    1    2    0    0  0.00000000000E+00  0.00000000000E+00  0.50247672058E+03  0.51020660246E+03  0.88475547301E+02 0.  0.
          2    1    3    3  502    0 -0.97493697447E+01 -0.24017183162E+02  0.44513752165E+02  0.51510672964E+02  0.00000000000E+00 0. -1.
         -2    1    3    3    0  502  0.97493697447E+01  0.24017183162E+02  0.45796296841E+03  0.45869592949E+03  0.00000000000E+00 0.  1.
<mgrwt>
<rscale>  0 0.88475547E+02</rscale>
<asrwt>0</asrwt>
<pdfrwt beam="2">  1        4 0.59460670E-03 0.88475547E+02</pdfrwt>
<pdfrwt beam="1">  1       -4 0.77898665E-01 0.88475547E+02</pdfrwt>
<totfact> 0.13942836E+04</totfact>
</mgrwt>
</event>
<event>
 5    1  0.3957498E+001  0.8967604E+02  0.7546771E-02  0.1303638E+00
          1   -1    0    0  501    0  0.00000000000E+00  0.00000000000E+00  0.11711369318E+03  0.11711369318E+03  0.00000000000E+00 0. -1.
         -1   -1    0    0    0  501 -0.00000000000E+00 -0.00000000000E+00 -0.17166635116E+02  0.17166635116E+02  0.00000000000E+00 0.  1.
         23    2    1    2    0    0  0.00000000000E+00  0.00000000000E+00  0.99947058060E+02  0.13428032829E+03  0.89676040006E+02 0.  0.
          2    1    3    3  502    0 -0.56448630403E+01 -0.32896971578E+02  0.94804723677E+02  0.10050876006E+03  0.00000000000E+00 0. -1.
         -2    1    3    3    0  502  0.56448630403E+01  0.32896971578E+02  0.51423343835E+01  0.33771568230E+02  0.00000000000E+00 0.  1.
<mgrwt>
<rscale>  0 0.89676040E+02</rscale>
<asrwt>0</asrwt>
<pdfrwt beam="1">  1        1 0.18017491E-01 0.89676040E+02</pdfrwt>
<pdfrwt beam="2">  1       -1 0.26410209E-02 0.89676040E+02</pdfrwt>
<totfact> 0.11221928E+05</totfact>
</mgrwt>
</event>
<event>
 5    1  0.3957498E+001  0.9391949E+02  0.7546771E-02  0.1293628E+00
          2   -1    0    0  501    0  0.00000000000E+00  0.00000000000E+00  0.11069110985E+04  0.11069110985E+04  0.00000000000E+00 0.  1.
         -2   -1    0    0    0  501 -0.00000000000E+00 -0.00000000000E+00 -0.19922266986E+01  0.19922266986E+01  0.00000000000E+00 0. -1.
         23    2    1    2    0    0  0.00000000000E+00  0.00000000000E+00  0.11049188718E+04  0.11089033252E+04  0.93919494106E+02 0.  0.
          2    1    3    3  502    0  0.17423314173E+02 -0.10996337406E+02  0.54221770726E+02  0.58004238929E+02  0.00000000000E+00 0. -1.
         -2    1    3    3    0  502 -0.17423314173E+02  0.10996337406E+02  0.10506971010E+04  0.10508990862E+04  0.00000000000E+00 0.  1.
<mgrwt>
<rscale>  0 0.93919494E+02</rscale>
<asrwt>0</asrwt>
<pdfrwt beam="1">  1        2 0.17029352E+00 0.93919494E+02</pdfrwt>
<pdfrwt beam="2">  1       -2 0.30649730E-03 0.93919494E+02</pdfrwt>
<totfact> 0.23133747E+05</totfact>
</mgrwt>
</event>
<event>
 5    1  0.3957498E+001  0.9092888E+02  0.7546771E-02  0.1300618E+00
          1   -1    0    0  501    0  0.00000000000E+00  0.00000000000E+00  0.21713887639E+02  0.21713887639E+02  0.00000000000E+00 0. -1.
         -1   -1    0    0    0  501 -0.00000000000E+00 -0.00000000000E+00 -0.95193234277E+02  0.95193234277E+02  0.00000000000E+00 0.  1.
         23    2    1    2    0    0  0.00000000000E+00  0.00000000000E+00 -0.73479346638E+02  0.11690712192E+03  0.90928877550E+02 0.  0.
          2    1    3    3  502    0  0.22045000286E+02  0.21295994272E+02  0.64321179593E+01  0.31318900860E+02  0.00000000000E+00 0. -1.
         -2    1    3    3    0  502 -0.22045000286E+02 -0.21295994272E+02 -0.79911464597E+02  0.85588221057E+02  0.00000000000E+00 0.  1.
<mgrwt>
<rscale>  0 0.90928878E+02</rscale>
<asrwt>0</asrwt>
<pdfrwt beam="1">  1        1 0.33405981E-02 0.90928878E+02</pdfrwt>
<pdfrwt beam="2">  1       -1 0.14645113E-01 0.90928878E+02</pdfrwt>
<totfact> 0.82688119E+04</totfact>
</mgrwt>
</event>
<event>
 5    1  0.3957498E+001  0.9199760E+02  0.7546771E-02  0.1298085E+00
         -2   -1    0    0    0  501 -0.00000000000E+00  0.00000000000E+00  0.27486410700E+01  0.27486410700E+01  0.00000000000E+00 0.  1.
          2   -1    0    0  501    0  0.00000000000E+00 -0.00000000000E+00 -0.76979482729E+03  0.76979482729E+03  0.00000000000E+00 0. -1.
         23    2    1    2    0    0  0.00000000000E+00  0.00000000000E+00 -0.76704618622E+03  0.77254346836E+03  0.91997601659E+02 0.  0.
          2    1    3    3  502    0  0.41294658675E+02  0.15339968785E+02 -0.49471414273E+03  0.49667156803E+03  0.00000000000E+00 0. -1.
         -2    1    3    3    0  502 -0.41294658675E+02 -0.15339968785E+02 -0.27233204349E+03  0.27587190033E+03  0.00000000000E+00 0.  1.
<mgrwt>
<rscale>  0 0.91997602E+02</rscale>
<asrwt>0</asrwt>
<pdfrwt beam="2">  1        2 0.11843025E+00 0.91997602E+02</pdfrwt>
<pdfrwt beam="1">  1       -2 0.42286685E-03 0.91997602E+02</pdfrwt>
<totfact> 0.23635967E+05</totfact>
</mgrwt>
</event>
<event>
 5    1  0.3957498E+001  0.9400969E+02  0.7546771E-02  0.1293422E+00
          2   -1    0    0  501    0  0.00000000000E+00  0.00000000000E+00  0.11483977376E+03  0.11483977376E+03  0.00000000000E+00 0. -1.
         -2   -1    0    0    0  501 -0.00000000000E+00 -0.00000000000E+00 -0.19239463188E+02  0.19239463188E+02  0.00000000000E+00 0.  1.
         23    2    1    2    0    0  0.00000000000E+00  0.00000000000E+00  0.95600310568E+02  0.13407923694E+03  0.94009693110E+02 0.  0.
          2    1    3    3  502    0 -0.76897897278E+01  0.40729160035E+02  0.79417996384E+02  0.89583567092E+02  0.00000000000E+00 0. -1.
         -2    1    3    3    0  502  0.76897897278E+01 -0.40729160035E+02  0.16182314184E+02  0.44495669852E+02  0.00000000000E+00 0.  1.
<mgrwt>
<rscale>  0 0.94009693E+02</rscale>
<asrwt>0</asrwt>
<pdfrwt beam="1">  1        2 0.17667657E-01 0.94009693E+02</pdfrwt>
<pdfrwt beam="2">  1       -2 0.29599175E-02 0.94009693E+02</pdfrwt>
<totfact> 0.11773828E+05</totfact>
</mgrwt>
</event>
<event>
 5    1  0.3957498E+001  0.9202200E+02  0.7546771E-02  0.1298028E+00
          2   -1    0    0  501    0  0.00000000000E+00  0.00000000000E+00  0.12759685344E+03  0.12759685344E+03  0.00000000000E+00 0. -1.
         -2   -1    0    0    0  501 -0.00000000000E+00 -0.00000000000E+00 -0.16591412610E+02  0.16591412610E+02  0.00000000000E+00 0.  1.
         23    2    1    2    0    0  0.00000000000E+00  0.00000000000E+00  0.11100544083E+03  0.14418826605E+03  0.92021998309E+02 0.  0.
          2    1    3    3  502    0 -0.35355903652E+02 -0.17090301808E+01  0.10156103399E+03  0.10755279788E+03  0.00000000000E+00 0. -1.
         -2    1    3    3    0  502  0.35355903652E+02  0.17090301808E+01  0.94444068379E+01  0.36635468166E+02  0.00000000000E+00 0.  1.
<mgrwt>
<rscale>  0 0.92021998E+02</rscale>
<asrwt>0</asrwt>
<pdfrwt beam="1">  1        2 0.19630284E-01 0.92021998E+02</pdfrwt>
<pdfrwt beam="2">  1       -2 0.25525251E-02 0.92021998E+02</pdfrwt>
<totfact> 0.12917131E+05</totfact>
</mgrwt>
</event>
<event>
 5    1  0.3957498E+001  0.9032156E+02  0.7546771E-02  0.1302075E+00
          3   -1    0    0  501    0  0.00000000000E+00  0.00000000000E+00  0.11174700843E+01  0.11174700843E+01  0.00000000000E+00 0. -1.
         -3   -1    0    0    0  501 -0.00000000000E+00 -0.00000000000E+00 -0.18251013517E+04  0.18251013517E+04  0.00000000000E+00 0.  1.
         23    2    1    2    0    0  0.00000000000E+00  0.00000000000E+00 -0.18239838816E+04  0.18262188218E+04  0.90321562460E+02 0.  0.
          2    1    3    3  502    0  0.35451994833E+01  0.28424720778E+02 -0.20607008335E+03  0.20805146585E+03  0.00000000000E+00 0. -1.
         -2    1    3    3    0  502 -0.35451994833E+01 -0.28424720778E+02 -0.16179137983E+04  0.16181673560E+04  0.00000000000E+00 0.  1.
<mgrwt>
<rscale>  0 0.90321562E+02</rscale>
<asrwt>0</asrwt>
<pdfrwt beam="1">  1        3 0.17191953E-03 0.90321562E+02</pdfrwt>
<pdfrwt beam="2">  1       -3 0.28078309E+00 0.90321562E+02</pdfrwt>
<totfact> 0.44592751E+03</totfact>
</mgrwt>
</event>
<event>
 5    1  0.3957498E+001  0.9162283E+02  0.7546771E-02  0.1298969E+00
         -2   -1    0    0    0  501 -0.00000000000E+00  0.00000000000E+00  0.50731624034E+01  0.50731624034E+01  0.00000000000E+00 0.  1.
          2   -1    0    0  501    0  0.00000000000E+00 -0.00000000000E+00 -0.41368393910E+03  0.41368393910E+03  0.00000000000E+00 0. -1.
         23    2    1    2    0    0  0.00000000000E+00  0.00000000000E+00 -0.40861077670E+03  0.41875710151E+03  0.91622831363E+02 0.  0.
          2    1    3    3  502    0  0.22887435975E+02 -0.38280571730E+02 -0.25212039225E+03  0.25603501535E+03  0.00000000000E+00 0. -1.
         -2    1    3    3    0  502 -0.22887435975E+02  0.38280571730E+02 -0.15649038445E+03  0.16272208615E+03  0.00000000000E+00 0.  1.
<mgrwt>
<rscale>  0 0.91622831E+02</rscale>
<asrwt>0</asrwt>
<pdfrwt beam="2">  1        2 0.63643682E-01 0.91622831E+02</pdfrwt>
<pdfrwt beam="1">  1       -2 0.78048653E-03 0.91622831E+02</pdfrwt>
<totfact> 0.19942669E+05</totfact>
</mgrwt>
</event>
<event>
 5    1  0.3957498E+001  0.8942970E+02  0.7546771E-02  0.1304239E+00
         -2   -1    0    0    0  501 -0.00000000000E+00  0.00000000000E+00  0.11960400816E+01  0.11960400816E+01  0.00000000000E+00 0. -1.
          2   -1    0    0  501    0  0.00000000000E+00 -0.00000000000E+00 -0.16716980210E+04  0.16716980210E+04  0.00000000000E+00 0.  1.
         23    2    1    2    0    0  0.00000000000E+00  0.00000000000E+00 -0.16705019809E+04  0.16728940610E+04  0.89429700600E+02 0.  0.
          2    1    3    3  502    0 -0.32554393495E+02  0.30022509538E+02 -0.95098541165E+03  0.95201596246E+03  0.00000000000E+00 0. -1.
         -2    1    3    3    0  502  0.32554393495E+02 -0.30022509538E+02 -0.71951656923E+03  0.72087809858E+03  0.00000000000E+00 0.  1.
<mgrwt>
<rscale>  0 0.89429701E+02</rscale>
<asrwt>0</asrwt>
<pdfrwt beam="2">  1        2 0.25718266E+00 0.89429701E+02</pdfrwt>
<pdfrwt beam="1">  1       -2 0.18400735E-03 0.89429701E+02</pdfrwt>
<totfact> 0.23616295E+05</totfact>
</mgrwt>
</event>
<event>
 5    1  0.3957498E+001  0.8953824E+02  0.7546771E-02  0.1303974E+00
         -1   -1    0    0    0  501 -0.00000000000E+00  0.00000000000E+00  0.25704557742E+03  0.25704557742E+03  0.00000000000E+00 0.  1.
          1   -1    0    0  501    0  0.00000000000E+00 -0.00000000000E+00 -0.77973490075E+01  0.77973490075E+01  0.00000000000E+00 0. -1.
         23    2    1    2    0    0  0.00000000000E+00  0.00000000000E+00  0.24924822841E+03  0.26484292643E+03  0.89538239383E+02 0.  0.
          2    1    3    3  502    0  0.43529589515E+02 -0.52603924900E+01  0.97875831339E+02  0.10724819464E+03  0.00000000000E+00 0. -1.
         -2    1    3    3    0  502 -0.43529589515E+02  0.52603924900E+01  0.15137239707E+03  0.15759473179E+03  0.00000000000E+00 0.  1.
<mgrwt>
<rscale>  0 0.89538239E+02</rscale>
<asrwt>0</asrwt>
<pdfrwt beam="2">  1        1 0.11995924E-02 0.89538239E+02</pdfrwt>
<pdfrwt beam="1">  1       -1 0.39545467E-01 0.89538239E+02</pdfrwt>
<totfact> 0.67258987E+04</totfact>
</mgrwt>
</event>
<event>
 5    1  0.3957498E+001  0.9319865E+02  0.7546771E-02  0.1295285E+00
         -1   -1    0    0    0  501 -0.00000000000E+00  0.00000000000E+00  0.19211020124E+03  0.19211020124E+03  0.00000000000E+00 0.  1.
          1   -1    0    0  501    0  0.00000000000E+00 -0.00000000000E+00 -0.11303393410E+02  0.11303393410E+02  0.00000000000E+00 0. -1.
         23    2    1    2    0    0  0.00000000000E+00  0.00000000000E+00  0.18080680783E+03  0.20341359465E+03  0.93198651979E+02 0.  0.
          2    1    3    3  502    0 -0.41084373342E+02  0.68782287330E+01  0.44816116854E+02  0.61185946862E+02  0.00000000000E+00 0. -1.
         -2    1    3    3    0  502  0.41084373342E+02 -0.68782287330E+01  0.13599069098E+03  0.14222764779E+03  0.00000000000E+00 0.  1.
<mgrwt>
<rscale>  0 0.93198652E+02</rscale>
<asrwt>0</asrwt>
<pdfrwt beam="2">  1        1 0.17389837E-02 0.93198652E+02</pdfrwt>
<pdfrwt beam="1">  1       -1 0.29555413E-01 0.93198652E+02</pdfrwt>
<totfact> 0.66313333E+04</totfact>
</mgrwt>
</event>
<event>
 5    1  0.3957498E+001  0.9401514E+02  0.7546771E-02  0.1293410E+00
          1   -1    0    0  501    0  0.00000000000E+00  0.00000000000E+00  0.52559259401E+03  0.52559259401E+03  0.00000000000E+00 0. -1.
         -1   -1    0    0    0  501 -0.00000000000E+00 -0.00000000000E+00 -0.42042287204E+01  0.42042287204E+01  0.00000000000E+00 0.  1.
         23    2    1    2    0    0  0.00000000000E+00  0.00000000000E+00  0.52138836529E+03  0.52979682273E+03  0.94015136631E+02 0.  0.
          2    1    3    3  502    0 -0.39765821370E+02  0.52735983297E+01  0.12259311586E+03  0.12898916019E+03  0.00000000000E+00 0. -1.
         -2    1    3    3    0  502  0.39765821370E+02 -0.52735983297E+01  0.39879524943E+03  0.40080766255E+03  0.00000000000E+00 0.  1.
<mgrwt>
<rscale>  0 0.94015137E+02</rscale>
<asrwt>0</asrwt>
<pdfrwt beam="1">  1        1 0.80860347E-01 0.94015137E+02</pdfrwt>
<pdfrwt beam="2">  1       -1 0.64680483E-03 0.94015137E+02</pdfrwt>
<totfact> 0.12909914E+05</totfact>
</mgrwt>
</event>
<event>
 5    1  0.3957498E+001  0.9050528E+02  0.7546771E-02  0.1301633E+00
          1   -1    0    0  501    0  0.00000000000E+00  0.00000000000E+00  0.20475178335E+03  0.20475178335E+03  0.00000000000E+00 0. -1.
         -1   -1    0    0    0  501 -0.00000000000E+00 -0.00000000000E+00 -0.10001384391E+02  0.10001384391E+02  0.00000000000E+00 0.  1.
         23    2    1    2    0    0  0.00000000000E+00  0.00000000000E+00  0.19475039896E+03  0.21475316774E+03  0.90505276976E+02 0.  0.
          2    1    3    3  502    0  0.18608887905E+02 -0.34115895523E+02  0.15239282868E+03  0.15726970233E+03  0.00000000000E+00 0. -1.
         -2    1    3    3    0  502 -0.18608887905E+02  0.34115895523E+02  0.42357570280E+02  0.57483465418E+02  0.00000000000E+00 0.  1.
<mgrwt>
<rscale>  0 0.90505277E+02</rscale>
<asrwt>0</asrwt>
<pdfrwt beam="1">  1        1 0.31500271E-01 0.90505277E+02</pdfrwt>
<pdfrwt beam="2">  1       -1 0.15386747E-02 0.90505277E+02</pdfrwt>
<totfact> 0.12132578E+05</totfact>
</mgrwt>
</event>
<event>
 5    1  0.3957498E+001  0.9143379E+02  0.7546771E-02  0.1299416E+00
          1   -1    0    0  501    0  0.00000000000E+00  0.00000000000E+00  0.50218391276E+03  0.50218391276E+03  0.00000000000E+00 0. -1.
         -1   -1    0    0    0  501 -0.00000000000E+00 -0.00000000000E+00 -0.41618908404E+01  0.41618908404E+01  0.00000000000E+00 0.  1.
         23    2    1    2    0    0  0.00000000000E+00  0.00000000000E+00  0.49802202191E+03  0.50634580360E+03  0.91433793025E+02 0.  0.
          2    1    3    3  502    0 -0.34459360697E+02 -0.29892218480E+02  0.26566358643E+03  0.26955172679E+03  0.00000000000E+00 0. -1.
         -2    1    3    3    0  502  0.34459360697E+02  0.29892218480E+02  0.23235843549E+03  0.23679407680E+03  0.00000000000E+00 0.  1.
<mgrwt>
<rscale>  0 0.91433793E+02</rscale>
<asrwt>0</asrwt>
<pdfrwt beam="1">  1        1 0.77259016E-01 0.91433793E+02</pdfrwt>
<pdfrwt beam="2">  1       -1 0.64029129E-03 0.91433793E+02</pdfrwt>
<totfact> 0.13830066E+05</totfact>
</mgrwt>
</event>
<event>
 5    1  0.3957498E+001  0.8918469E+02  0.7546771E-02  0.1304838E+00
          2   -1    0    0  501    0  0.00000000000E+00  0.00000000000E+00  0.19042210710E+03  0.19042210710E+03  0.00000000000E+00 0. -1.
         -2   -1    0    0    0  501 -0.00000000000E+00 -0.00000000000E+00 -0.10442470019E+02  0.10442470019E+02  0.00000000000E+00 0.  1.
         23    2    1    2    0    0  0.00000000000E+00  0.00000000000E+00  0.17997963708E+03  0.20086457711E+03  0.89184688019E+02 0.  0.
          2    1    3    3  502    0 -0.34897364489E+01 -0.39015341162E+02  0.13798413190E+03  0.14343638228E+03  0.00000000000E+00 0. -1.
         -2    1    3    3    0  502  0.34897364489E+01  0.39015341162E+02  0.41995505176E+02  0.57428194830E+02  0.00000000000E+00 0.  1.
<mgrwt>
<rscale>  0 0.89184688E+02</rscale>
<asrwt>0</asrwt>
<pdfrwt beam="1">  1        2 0.29295706E-01 0.89184688E+02</pdfrwt>
<pdfrwt beam="2">  1       -2 0.16065340E-02 0.89184688E+02</pdfrwt>
<totfact> 0.16127527E+05</totfact>
</mgrwt>
</event>
<event>
 5    1  0.3957498E+001  0.9249841E+02  0.7546771E-02  0.1296912E+00
         -2   -1    0    0    0  501 -0.00000000000E+00  0.00000000000E+00  0.12452618718E+01  0.12452618718E+01  0.00000000000E+00 0.  1.
          2   -1    0    0  501    0  0.00000000000E+00 -0.00000000000E+00 -0.17177022097E+04  0.17177022097E+04  0.00000000000E+00 0. -1.
         23    2    1    2    0    0  0.00000000000E+00  0.00000000000E+00 -0.17164569478E+04  0.17189474716E+04  0.92498412285E+02 0.  0.
          2    1    3    3  502    0 -0.10665489749E+02 -0.28622731447E+02 -0.15035818633E+04  0.15038920949E+04  0.00000000000E+00 0. -1.
         -2    1    3    3    0  502  0.10665489749E+02  0.28622731447E+02 -0.21287508455E+03  0.21505537671E+03  0.00000000000E+00 0.  1.
<mgrwt>
<rscale>  0 0.92498412E+02</rscale>
<asrwt>0</asrwt>
<pdfrwt beam="2">  1        2 0.26426086E+00 0.92498412E+02</pdfrwt>
<pdfrwt beam="1">  1       -2 0.19157949E-03 0.92498412E+02</pdfrwt>
<totfact> 0.21269625E+05</totfact>
</mgrwt>
</event>
<event>
 5    1  0.3957498E+001  0.9192331E+02  0.7546771E-02  0.1298260E+00
         -2   -1    0    0    0  501 -0.00000000000E+00  0.00000000000E+00  0.82257328771E+02  0.82257328771E+02  0.00000000000E+00 0. -1.
          2   -1    0    0  501    0  0.00000000000E+00 -0.00000000000E+00 -0.25681281422E+02  0.25681281422E+02  0.00000000000E+00 0.  1.
         23    2    1    2    0    0  0.00000000000E+00  0.00000000000E+00  0.56576047349E+02  0.10793861019E+03  0.91923307364E+02 0.  0.
          2    1    3    3  502    0 -0.26417245751E+02  0.33555235196E+02  0.48237713782E+02  0.64425939753E+02  0.00000000000E+00 0. -1.
         -2    1    3    3    0  502  0.26417245751E+02 -0.33555235196E+02  0.83383335672E+01  0.43512670440E+02  0.00000000000E+00 0.  1.
<mgrwt>
<rscale>  0 0.91923307E+02</rscale>
<asrwt>0</asrwt>
<pdfrwt beam="2">  1        2 0.39509664E-02 0.91923307E+02</pdfrwt>
<pdfrwt beam="1">  1       -2 0.12654974E-01 0.91923307E+02</pdfrwt>
<totfact> 0.82746012E+04</totfact>
</mgrwt>
</event>
<event>
 5    1  0.3957498E+001  0.9573661E+02  0.7546771E-02  0.1289526E+00
          2   -1    0    0  501    0  0.00000000000E+00  0.00000000000E+00  0.59751104227E+02  0.59751104227E+02  0.00000000000E+00 0.  1.
         -2   -1    0    0    0  501 -0.00000000000E+00 -0.00000000000E+00 -0.38348658375E+02  0.38348658375E+02  0.00000000000E+00 0. -1.
         23    2    1    2    0    0  0.00000000000E+00  0.00000000000E+00  0.21402445852E+02  0.98099762602E+02  0.95736611253E+02 0.  0.
          2    1    3    3  502    0  0.36904173571E+02  0.16218766948E+02 -0.15750873045E+02  0.43278821956E+02  0.00000000000E+00 0. -1.
         -2    1    3    3    0  502 -0.36904173571E+02 -0.16218766948E+02  0.37153318897E+02  0.54820940646E+02  0.00000000000E+00 0.  1.
<mgrwt>
<rscale>  0 0.95736611E+02</rscale>
<asrwt>0</asrwt>
<pdfrwt beam="1">  1        2 0.91924776E-02 0.95736611E+02</pdfrwt>
<pdfrwt beam="2">  1       -2 0.58997936E-02 0.95736611E+02</pdfrwt>
<totfact> 0.92256137E+04</totfact>
</mgrwt>
</event>
<event>
 5    1  0.3957498E+001  0.9317040E+02  0.7546771E-02  0.1295351E+00
          1   -1    0    0  501    0  0.00000000000E+00  0.00000000000E+00  0.15769406893E+02  0.15769406893E+02  0.00000000000E+00 0. -1.
         -1   -1    0    0    0  501 -0.00000000000E+00 -0.00000000000E+00 -0.13761968508E+03  0.13761968508E+03  0.00000000000E+00 0.  1.
         23    2    1    2    0    0  0.00000000000E+00  0.00000000000E+00 -0.12185027819E+03  0.15338909198E+03  0.93170398958E+02 0.  0.
          2    1    3    3  502    0 -0.57895757150E+01  0.44326446683E+02 -0.39344556218E+02  0.59551214652E+02  0.00000000000E+00 0. -1.
         -2    1    3    3    0  502  0.57895757150E+01 -0.44326446683E+02 -0.82505721973E+02  0.93837877325E+02  0.00000000000E+00 0.  1.
<mgrwt>
<rscale>  0 0.93170399E+02</rscale>
<asrwt>0</asrwt>
<pdfrwt beam="1">  1        1 0.24260627E-02 0.93170399E+02</pdfrwt>
<pdfrwt beam="2">  1       -1 0.21172259E-01 0.93170399E+02</pdfrwt>
<totfact> 0.72107614E+04</totfact>
</mgrwt>
</event>
<event>
 5    1  0.3957498E+001  0.9055219E+02  0.7546771E-02  0.1301520E+00
          2   -1    0    0  501    0  0.00000000000E+00  0.00000000000E+00  0.17581298222E+04  0.17581298222E+04  0.00000000000E+00 0. -1.
         -2   -1    0    0    0  501 -0.00000000000E+00 -0.00000000000E+00 -0.11659688482E+01  0.11659688482E+01  0.00000000000E+00 0.  1.
         23    2    1    2    0    0  0.00000000000E+00  0.00000000000E+00  0.17569638533E+04  0.17592957910E+04  0.90552186140E+02 0.  0.
          2    1    3    3  502    0 -0.31508344549E+02 -0.26299132915E+01  0.15081078877E+04  0.15084392905E+04  0.00000000000E+00 0. -1.
         -2    1    3    3    0  502  0.31508344549E+02  0.26299132915E+01  0.24885596563E+03  0.25085650051E+03  0.00000000000E+00 0.  1.
<mgrwt>
<rscale>  0 0.90552186E+02</rscale>
<asrwt>0</asrwt>
<pdfrwt beam="1">  1        2 0.27047939E+00 0.90552186E+02</pdfrwt>
<pdfrwt beam="2">  1       -2 0.17938123E-03 0.90552186E+02</pdfrwt>
<totfact> 0.22172613E+05</totfact>
</mgrwt>
</event>
<event>
 5    1  0.3957498E+001  0.9124547E+02  0.7546771E-02  0.1299863E+00
         -2   -1    0    0    0  501 -0.00000000000E+00  0.00000000000E+00  0.90397154187E+01  0.90397154187E+01  0.00000000000E+00 0. -1.
          2   -1    0    0  501    0  0.00000000000E+00 -0.00000000000E+00 -0.23025435976E+03  0.23025435976E+03  0.00000000000E+00 0.  1.
         23    2    1    2    0    0  0.00000000000E+00  0.00000000000E+00 -0.22121464434E+03  0.23929407518E+03  0.91245468625E+02 0.  0.
          2    1    3    3  502    0 -0.42130433186E+02 -0.55049853712E+01 -0.67026282744E+02  0.79358684735E+02  0.00000000000E+00 0. -1.
         -2    1    3    3    0  502  0.42130433186E+02  0.55049853712E+01 -0.15418836160E+03  0.15993539044E+03  0.00000000000E+00 0.  1.
<mgrwt>
<rscale>  0 0.91245469E+02</rscale>
<asrwt>0</asrwt>
<pdfrwt beam="2">  1        2 0.35423745E-01 0.91245469E+02</pdfrwt>
<pdfrwt beam="1">  1       -2 0.13907255E-02 0.91245469E+02</pdfrwt>
<totfact> 0.16251203E+05</totfact>
</mgrwt>
</event>
<event>
 5    1  0.3957498E+001  0.9141907E+02  0.7546771E-02  0.1299451E+00
          1   -1    0    0  501    0  0.00000000000E+00  0.00000000000E+00  0.64871898228E+03  0.64871898228E+03  0.00000000000E+00 0. -1.
         -1   -1    0    0    0  501 -0.00000000000E+00 -0.00000000000E+00 -0.32207500358E+01  0.32207500358E+01  0.00000000000E+00 0.  1.
         23    2    1    2    0    0  0.00000000000E+00  0.00000000000E+00  0.64549823225E+03  0.65193973232E+03  0.91419072090E+02 0.  0.
          2    1    3    3  502    0 -0.25223478267E+02  0.21755990919E+02  0.54597400419E+03  0.54698917746E+03  0.00000000000E+00 0. -1.
         -2    1    3    3    0  502  0.25223478267E+02 -0.21755990919E+02  0.99524228052E+02  0.10495055486E+03  0.00000000000E+00 0.  1.
<mgrwt>
<rscale>  0 0.91419072E+02</rscale>
<asrwt>0</asrwt>
<pdfrwt beam="1">  1        1 0.99802817E-01 0.91419072E+02</pdfrwt>
<pdfrwt beam="2">  1       -1 0.49550052E-03 0.91419072E+02</pdfrwt>
<totfact> 0.14108055E+05</totfact>
</mgrwt>
</event>
<event>
 5    1  0.3957498E+001  0.9268057E+02  0.7546771E-02  0.1296487E+00
          2   -1    0    0  501    0  0.00000000000E+00  0.00000000000E+00  0.66521272802E+03  0.66521272802E+03  0.00000000000E+00 0. -1.
         -2   -1    0    0    0  501 -0.00000000000E+00 -0.00000000000E+00 -0.32281736587E+01  0.32281736587E+01  0.00000000000E+00 0.  1.
         23    2    1    2    0    0  0.00000000000E+00  0.00000000000E+00  0.66198455436E+03  0.66844090167E+03  0.92680574146E+02 0.  0.
          2    1    3    3  502    0  0.33175372792E+02 -0.30757931544E+02  0.25859330956E+03  0.26252077149E+03  0.00000000000E+00 0.  1.
         -2    1    3    3    0  502 -0.33175372792E+02  0.30757931544E+02  0.40339124479E+03  0.40592013018E+03  0.00000000000E+00 0. -1.
<mgrwt>
<rscale>  0 0.92680574E+02</rscale>
<asrwt>0</asrwt>
<pdfrwt beam="1">  1        2 0.10234031E+00 0.92680574E+02</pdfrwt>
<pdfrwt beam="2">  1       -2 0.49664263E-03 0.92680574E+02</pdfrwt>
<totfact> 0.22432677E+05</totfact>
</mgrwt>
</event>
<event>
 5    1  0.3957498E+001  0.9463419E+02  0.7546771E-02  0.1292002E+00
          1   -1    0    0  501    0  0.00000000000E+00  0.00000000000E+00  0.13742080310E+04  0.13742080310E+04  0.00000000000E+00 0. -1.
         -1   -1    0    0    0  501 -0.00000000000E+00 -0.00000000000E+00 -0.16292347062E+01  0.16292347062E+01  0.00000000000E+00 0.  1.
         23    2    1    2    0    0  0.00000000000E+00  0.00000000000E+00  0.13725787963E+04  0.13758372657E+04  0.94634188698E+02 0.  0.
          2    1    3    3  502    0 -0.60669450602E+01  0.26669476455E+02  0.12476401681E+04  0.12479399256E+04  0.00000000000E+00 0. -1.
         -2    1    3    3    0  502  0.60669450602E+01 -0.26669476455E+02  0.12493862819E+03  0.12789734012E+03  0.00000000000E+00 0.  1.
<mgrwt>
<rscale>  0 0.94634189E+02</rscale>
<asrwt>0</asrwt>
<pdfrwt beam="1">  1        1 0.21141569E+00 0.94634189E+02</pdfrwt>
<pdfrwt beam="2">  1       -1 0.25065259E-03 0.94634189E+02</pdfrwt>
<totfact> 0.10684216E+05</totfact>
</mgrwt>
</event>
<event>
 5    1  0.3957498E+001  0.9030342E+02  0.7546771E-02  0.1302119E+00
         -1   -1    0    0    0  501 -0.00000000000E+00  0.00000000000E+00  0.25317386641E+02  0.25317386641E+02  0.00000000000E+00 0.  1.
          1   -1    0    0  501    0  0.00000000000E+00 -0.00000000000E+00 -0.80524776960E+02  0.80524776960E+02  0.00000000000E+00 0. -1.
         23    2    1    2    0    0  0.00000000000E+00  0.00000000000E+00 -0.55207390319E+02  0.10584216360E+03  0.90303419923E+02 0.  0.
          2    1    3    3  502    0  0.17196695412E+02  0.32744046175E+02  0.27522613867E+01  0.37087381085E+02  0.00000000000E+00 0.  1.
         -2    1    3    3    0  502 -0.17196695412E+02 -0.32744046175E+02 -0.57959651706E+02  0.68754782516E+02  0.00000000000E+00 0. -1.
<mgrwt>
<rscale>  0 0.90303420E+02</rscale>
<asrwt>0</asrwt>
<pdfrwt beam="2">  1        1 0.12388427E-01 0.90303420E+02</pdfrwt>
<pdfrwt beam="1">  1       -1 0.38949825E-02 0.90303420E+02</pdfrwt>
<totfact> 0.10354397E+05</totfact>
</mgrwt>
</event>
<event>
 5    1  0.3957498E+001  0.9193817E+02  0.7546771E-02  0.1298225E+00
          1   -1    0    0  501    0  0.00000000000E+00  0.00000000000E+00  0.18615429487E+02  0.18615429487E+02  0.00000000000E+00 0. -1.
         -1   -1    0    0    0  501 -0.00000000000E+00 -0.00000000000E+00 -0.11351640543E+03  0.11351640543E+03  0.00000000000E+00 0.  1.
         23    2    1    2    0    0  0.00000000000E+00  0.00000000000E+00 -0.94900975938E+02  0.13213183491E+03  0.91938167066E+02 0.  0.
          2    1    3    3  502    0 -0.15231312010E+02  0.42319703740E+02 -0.61100417915E+02  0.75869699219E+02  0.00000000000E+00 0. -1.
         -2    1    3    3    0  502  0.15231312010E+02 -0.42319703740E+02 -0.33800558023E+02  0.56262135694E+02  0.00000000000E+00 0.  1.
<mgrwt>
<rscale>  0 0.91938167E+02</rscale>
<asrwt>0</asrwt>
<pdfrwt beam="1">  1        1 0.28639124E-02 0.91938167E+02</pdfrwt>
<pdfrwt beam="2">  1       -1 0.17464062E-01 0.91938167E+02</pdfrwt>
<totfact> 0.77725233E+04</totfact>
</mgrwt>
</event>
<event>
 5    1  0.3957498E+001  0.9225521E+02  0.7546771E-02  0.1297480E+00
          4   -1    0    0  501    0  0.00000000000E+00  0.00000000000E+00  0.50669856523E+03  0.50669856523E+03  0.00000000000E+00 0. -1.
         -4   -1    0    0    0  501 -0.00000000000E+00 -0.00000000000E+00 -0.41992537936E+01  0.41992537936E+01  0.00000000000E+00 0.  1.
         23    2    1    2    0    0  0.00000000000E+00  0.00000000000E+00  0.50249931144E+03  0.51089781902E+03  0.92255208466E+02 0.  0.
          2    1    3    3  502    0 -0.20503231014E+02 -0.30155307155E+02  0.94807788133E+02  0.10157874641E+03  0.00000000000E+00 0.  1.
         -2    1    3    3    0  502  0.20503231014E+02  0.30155307155E+02  0.40769152330E+03  0.40931907261E+03  0.00000000000E+00 0. -1.
<mgrwt>
<rscale>  0 0.92255208E+02</rscale>
<asrwt>0</asrwt>
<pdfrwt beam="1">  1        4 0.77953577E-01 0.92255208E+02</pdfrwt>
<pdfrwt beam="2">  1       -4 0.64603945E-03 0.92255208E+02</pdfrwt>
<totfact> 0.12477557E+04</totfact>
</mgrwt>
</event>
<event>
 5    1  0.3957498E+001  0.9372244E+02  0.7546771E-02  0.1294080E+00
         -2   -1    0    0    0  501 -0.00000000000E+00  0.00000000000E+00  0.41943300839E+01  0.41943300839E+01  0.00000000000E+00 0.  1.
          2   -1    0    0  501    0  0.00000000000E+00 -0.00000000000E+00 -0.52355777701E+03  0.52355777701E+03  0.00000000000E+00 0. -1.
         23    2    1    2    0    0  0.00000000000E+00  0.00000000000E+00 -0.51936344692E+03  0.52775210709E+03  0.93722444159E+02 0.  0.
          2    1    3    3  502    0  0.29503903959E+02 -0.29431454098E+02 -0.38035933198E+03  0.38263548223E+03  0.00000000000E+00 0. -1.
         -2    1    3    3    0  502 -0.29503903959E+02  0.29431454098E+02 -0.13900411495E+03  0.14511662486E+03  0.00000000000E+00 0.  1.
<mgrwt>
<rscale>  0 0.93722444E+02</rscale>
<asrwt>0</asrwt>
<pdfrwt beam="2">  1        2 0.80547333E-01 0.93722444E+02</pdfrwt>
<pdfrwt beam="1">  1       -2 0.64528169E-03 0.93722444E+02</pdfrwt>
<totfact> 0.20330963E+05</totfact>
</mgrwt>
</event>
<event>
 5    1  0.3957498E+001  0.9073545E+02  0.7546771E-02  0.1301080E+00
          4   -1    0    0  501    0  0.00000000000E+00  0.00000000000E+00  0.46316799324E+02  0.46316799324E+02  0.00000000000E+00 0.  1.
         -4   -1    0    0    0  501 -0.00000000000E+00 -0.00000000000E+00 -0.44438099646E+02  0.44438099646E+02  0.00000000000E+00 0. -1.
         23    2    1    2    0    0  0.00000000000E+00  0.00000000000E+00  0.18786996781E+01  0.90754898971E+02  0.90735451587E+02 0.  0.
          2    1    3    3  502    0 -0.41703670441E+02  0.32491041196E+01 -0.16627948885E+02  0.45013792219E+02  0.00000000000E+00 0. -1.
         -2    1    3    3    0  502  0.41703670441E+02 -0.32491041196E+01  0.18506648564E+02  0.45741106752E+02  0.00000000000E+00 0.  1.
<mgrwt>
<rscale>  0 0.90735452E+02</rscale>
<asrwt>0</asrwt>
<pdfrwt beam="1">  1        4 0.71256615E-02 0.90735452E+02</pdfrwt>
<pdfrwt beam="2">  1       -4 0.68366307E-02 0.90735452E+02</pdfrwt>
<totfact> 0.27401697E+04</totfact>
</mgrwt>
</event>
<event>
 5    1  0.3957498E+001  0.9227976E+02  0.7546771E-02  0.1297423E+00
          1   -1    0    0  501    0  0.00000000000E+00  0.00000000000E+00  0.89253740740E+02  0.89253740740E+02  0.00000000000E+00 0. -1.
         -1   -1    0    0    0  501 -0.00000000000E+00 -0.00000000000E+00 -0.23852090565E+02  0.23852090565E+02  0.00000000000E+00 0.  1.
         23    2    1    2    0    0  0.00000000000E+00  0.00000000000E+00  0.65401650175E+02  0.11310583130E+03  0.92279755253E+02 0.  0.
          2    1    3    3  502    0  0.20458023069E+02  0.59084550616E+01  0.82870814276E+02  0.85562914910E+02  0.00000000000E+00 0. -1.
         -2    1    3    3    0  502 -0.20458023069E+02 -0.59084550616E+01 -0.17469164102E+02  0.27542916394E+02  0.00000000000E+00 0.  1.
<mgrwt>
<rscale>  0 0.92279755E+02</rscale>
<asrwt>0</asrwt>
<pdfrwt beam="1">  1        1 0.13731345E-01 0.92279755E+02</pdfrwt>
<pdfrwt beam="2">  1       -1 0.36695524E-02 0.92279755E+02</pdfrwt>
<totfact> 0.99199343E+04</totfact>
</mgrwt>
</event>
<event>
 5    1  0.3957498E+001  0.9100305E+02  0.7546771E-02  0.1300441E+00
         -1   -1    0    0    0  501 -0.00000000000E+00  0.00000000000E+00  0.12619992894E+02  0.12619992894E+02  0.00000000000E+00 0.  1.
          1   -1    0    0  501    0  0.00000000000E+00 -0.00000000000E+00 -0.16405627338E+03  0.16405627338E+03  0.00000000000E+00 0. -1.
         23    2    1    2    0    0  0.00000000000E+00  0.00000000000E+00 -0.15143628049E+03  0.17667626627E+03  0.91003054988E+02 0.  0.
          2    1    3    3  502    0  0.38386135124E+02 -0.14830012327E+02 -0.11341215462E+03  0.12064717755E+03  0.00000000000E+00 0. -1.
         -2    1    3    3    0  502 -0.38386135124E+02  0.14830012327E+02 -0.38024125867E+02  0.56029088725E+02  0.00000000000E+00 0.  1.
<mgrwt>
<rscale>  0 0.91003055E+02</rscale>
<asrwt>0</asrwt>
<pdfrwt beam="2">  1        1 0.25239427E-01 0.91003055E+02</pdfrwt>
<pdfrwt beam="1">  1       -1 0.19415374E-02 0.91003055E+02</pdfrwt>
<totfact> 0.11459886E+05</totfact>
</mgrwt>
</event>
<event>
 5    1  0.3957498E+001  0.9064978E+02  0.7546771E-02  0.1301286E+00
          4   -1    0    0  501    0  0.00000000000E+00  0.00000000000E+00  0.71314718027E+03  0.71314718027E+03  0.00000000000E+00 0. -1.
         -4   -1    0    0    0  501 -0.00000000000E+00 -0.00000000000E+00 -0.28806757672E+01  0.28806757672E+01  0.00000000000E+00 0.  1.
         23    2    1    2    0    0  0.00000000000E+00  0.00000000000E+00  0.71026650450E+03  0.71602785603E+03  0.90649783246E+02 0.  0.
          2    1    3    3  502    0  0.10603823659E+02 -0.38653448355E+02  0.18798078783E+03  0.19220641701E+03  0.00000000000E+00 0. -1.
         -2    1    3    3    0  502 -0.10603823659E+02  0.38653448355E+02  0.52228571667E+03  0.52382143903E+03  0.00000000000E+00 0.  1.
<mgrwt>
<rscale>  0 0.90649783E+02</rscale>
<asrwt>0</asrwt>
<pdfrwt beam="1">  1        4 0.10971481E+00 0.90649783E+02</pdfrwt>
<pdfrwt beam="2">  1       -4 0.44318145E-03 0.90649783E+02</pdfrwt>
<totfact> 0.99968569E+03</totfact>
</mgrwt>
</event>
<event>
 5    1  0.3957498E+001  0.9043826E+02  0.7546771E-02  0.1301794E+00
          2   -1    0    0  501    0  0.00000000000E+00  0.00000000000E+00  0.20681598564E+02  0.20681598564E+02  0.00000000000E+00 0. -1.
         -2   -1    0    0    0  501 -0.00000000000E+00 -0.00000000000E+00 -0.98869042300E+02  0.98869042300E+02  0.00000000000E+00 0.  1.
         23    2    1    2    0    0  0.00000000000E+00  0.00000000000E+00 -0.78187443736E+02  0.11955064086E+03  0.90438262771E+02 0.  0.
          2    1    3    3  502    0 -0.41440864570E+02 -0.18094545414E+02 -0.38948834846E+02  0.59680562714E+02  0.00000000000E+00 0. -1.
         -2    1    3    3    0  502  0.41440864570E+02  0.18094545414E+02 -0.39238608890E+02  0.59870078150E+02  0.00000000000E+00 0.  1.
<mgrwt>
<rscale>  0 0.90438263E+02</rscale>
<asrwt>0</asrwt>
<pdfrwt beam="1">  1        2 0.31817844E-02 0.90438263E+02</pdfrwt>
<pdfrwt beam="2">  1       -2 0.15210622E-01 0.90438263E+02</pdfrwt>
<totfact> 0.81712189E+04</totfact>
</mgrwt>
</event>
<event>
 5    1  0.3957498E+001  0.9112887E+02  0.7546771E-02  0.1300141E+00
          4   -1    0    0  501    0  0.00000000000E+00  0.00000000000E+00  0.64155617493E+02  0.64155617493E+02  0.00000000000E+00 0. -1.
         -4   -1    0    0    0  501 -0.00000000000E+00 -0.00000000000E+00 -0.32360652076E+02  0.32360652076E+02  0.00000000000E+00 0.  1.
         23    2    1    2    0    0  0.00000000000E+00  0.00000000000E+00  0.31794965418E+02  0.96516269569E+02  0.91128867356E+02 0.  0.
          2    1    3    3  502    0  0.17020232913E+02  0.35919458809E+02  0.39490444300E+02  0.56030268967E+02  0.00000000000E+00 0. -1.
         -2    1    3    3    0  502 -0.17020232913E+02 -0.35919458809E+02 -0.76954788823E+01  0.40486000602E+02  0.00000000000E+00 0.  1.
<mgrwt>
<rscale>  0 0.91128867E+02</rscale>
<asrwt>0</asrwt>
<pdfrwt beam="1">  1        4 0.98700950E-02 0.91128867E+02</pdfrwt>
<pdfrwt beam="2">  1       -4 0.49785619E-02 0.91128867E+02</pdfrwt>
<totfact> 0.26713950E+04</totfact>
</mgrwt>
</event>
<event>
 5    1  0.3957498E+001  0.9227681E+02  0.7546771E-02  0.1297430E+00
         -2   -1    0    0    0  501 -0.00000000000E+00  0.00000000000E+00  0.21398292685E+03  0.21398292685E+03  0.00000000000E+00 0. -1.
          2   -1    0    0  501    0  0.00000000000E+00 -0.00000000000E+00 -0.99482359345E+01  0.99482359345E+01  0.00000000000E+00 0.  1.
         23    2    1    2    0    0  0.00000000000E+00  0.00000000000E+00  0.20403469092E+03  0.22393116279E+03  0.92276814905E+02 0.  0.
          2    1    3    3  502    0  0.22882658132E+02 -0.31359440838E+02  0.41508330709E+02  0.56832843419E+02  0.00000000000E+00 0. -1.
         -2    1    3    3    0  502 -0.22882658132E+02  0.31359440838E+02  0.16252636021E+03  0.16709831937E+03  0.00000000000E+00 0.  1.
<mgrwt>
<rscale>  0 0.92276815E+02</rscale>
<asrwt>0</asrwt>
<pdfrwt beam="2">  1        2 0.15304980E-02 0.92276815E+02</pdfrwt>
<pdfrwt beam="1">  1       -2 0.32920447E-01 0.92276815E+02</pdfrwt>
<totfact> 0.58655178E+04</totfact>
</mgrwt>
</event>
<event>
 5    1  0.3957498E+001  0.9436541E+02  0.7546771E-02  0.1292612E+00
          2   -1    0    0  501    0  0.00000000000E+00  0.00000000000E+00  0.44026625921E+02  0.44026625921E+02  0.00000000000E+00 0. -1.
         -2   -1    0    0    0  501 -0.00000000000E+00 -0.00000000000E+00 -0.50565026750E+02  0.50565026750E+02  0.00000000000E+00 0.  1.
         23    2    1    2    0    0  0.00000000000E+00  0.00000000000E+00 -0.65384008291E+01  0.94591652671E+02  0.94365407166E+02 0.  0.
          2    1    3    3  502    0 -0.24334660885E+02 -0.24921825278E+02 -0.35172136961E+02  0.49501033464E+02  0.00000000000E+00 0.  1.
         -2    1    3    3    0  502  0.24334660885E+02  0.24921825278E+02  0.28633736132E+02  0.45090619207E+02  0.00000000000E+00 0. -1.
<mgrwt>
<rscale>  0 0.94365407E+02</rscale>
<asrwt>0</asrwt>
<pdfrwt beam="1">  1        2 0.67733271E-02 0.94365407E+02</pdfrwt>
<pdfrwt beam="2">  1       -2 0.77792349E-02 0.94365407E+02</pdfrwt>
<totfact> 0.88540769E+04</totfact>
</mgrwt>
</event>
<event>
 5    1  0.3957498E+001  0.8631812E+02  0.7546771E-02  0.1312021E+00
         -3   -1    0    0    0  501 -0.00000000000E+00  0.00000000000E+00  0.14465459766E+03  0.14465459766E+03  0.00000000000E+00 0.  1.
          3   -1    0    0  501    0  0.00000000000E+00 -0.00000000000E+00 -0.12876910868E+02  0.12876910868E+02  0.00000000000E+00 0. -1.
         23    2    1    2    0    0  0.00000000000E+00  0.00000000000E+00  0.13177768679E+03  0.15753150852E+03  0.86318117695E+02 0.  0.
          2    1    3    3  502    0 -0.16878156496E+02 -0.15918780562E+02 -0.52813184809E+00  0.23206866755E+02  0.00000000000E+00 0. -1.
         -2    1    3    3    0  502  0.16878156496E+02  0.15918780562E+02  0.13230581864E+03  0.13432464177E+03  0.00000000000E+00 0.  1.
<mgrwt>
<rscale>  0 0.86318118E+02</rscale>
<asrwt>0</asrwt>
<pdfrwt beam="2">  1        3 0.19810633E-02 0.86318118E+02</pdfrwt>
<pdfrwt beam="1">  1       -3 0.22254552E-01 0.86318118E+02</pdfrwt>
<totfact> 0.35758114E+04</totfact>
</mgrwt>
</event>
<event>
 5    1  0.3957498E+001  0.9582993E+02  0.7546771E-02  0.1289318E+00
          2   -1    0    0  501    0  0.00000000000E+00  0.00000000000E+00  0.40165189669E+02  0.40165189669E+02  0.00000000000E+00 0. -1.
         -2   -1    0    0    0  501 -0.00000000000E+00 -0.00000000000E+00 -0.57160043969E+02  0.57160043969E+02  0.00000000000E+00 0.  1.
         23    2    1    2    0    0  0.00000000000E+00  0.00000000000E+00 -0.16994854300E+02  0.97325233638E+02  0.95829932850E+02 0.  0.
          2    1    3    3  502    0 -0.20861916259E+02  0.33978655277E+02  0.18489275555E+02  0.43950220420E+02  0.00000000000E+00 0. -1.
         -2    1    3    3    0  502  0.20861916259E+02 -0.33978655277E+02 -0.35484129855E+02  0.53375013218E+02  0.00000000000E+00 0.  1.
<mgrwt>
<rscale>  0 0.95829933E+02</rscale>
<asrwt>0</asrwt>
<pdfrwt beam="1">  1        2 0.61792600E-02 0.95829933E+02</pdfrwt>
<pdfrwt beam="2">  1       -2 0.87938528E-02 0.95829933E+02</pdfrwt>
<totfact> 0.82597558E+04</totfact>
</mgrwt>
</event>
<event>
 5    1  0.3957498E+001  0.9277142E+02  0.7546771E-02  0.1296276E+00
         -2   -1    0    0    0  501 -0.00000000000E+00  0.00000000000E+00  0.27417221334E+01  0.27417221334E+01  0.00000000000E+00 0.  1.
          2   -1    0    0  501    0  0.00000000000E+00 -0.00000000000E+00 -0.78477475135E+03  0.78477475135E+03  0.00000000000E+00 0. -1.
         23    2    1    2    0    0  0.00000000000E+00  0.00000000000E+00 -0.78203302922E+03  0.78751647348E+03  0.92771424598E+02 0.  0.
          2    1    3    3  502    0 -0.37810811786E+02  0.18166833641E+02 -0.55907361375E+03  0.56064516133E+03  0.00000000000E+00 0. -1.
         -2    1    3    3    0  502  0.37810811786E+02 -0.18166833641E+02 -0.22295941546E+03  0.22687131215E+03  0.00000000000E+00 0.  1.
<mgrwt>
<rscale>  0 0.92771425E+02</rscale>
<asrwt>0</asrwt>
<pdfrwt beam="2">  1        2 0.12073448E+00 0.92771425E+02</pdfrwt>
<pdfrwt beam="1">  1       -2 0.42180374E-03 0.92771425E+02</pdfrwt>
<totfact> 0.23203636E+05</totfact>
</mgrwt>
</event>
<event>
 5    1  0.3957498E+001  0.8915860E+02  0.7546771E-02  0.1304902E+00
          4   -1    0    0  501    0  0.00000000000E+00  0.00000000000E+00  0.28370964336E+02  0.28370964336E+02  0.00000000000E+00 0. -1.
         -4   -1    0    0    0  501 -0.00000000000E+00 -0.00000000000E+00 -0.70047461566E+02  0.70047461566E+02  0.00000000000E+00 0.  1.
         23    2    1    2    0    0  0.00000000000E+00  0.00000000000E+00 -0.41676497230E+02  0.98418425901E+02  0.89158601018E+02 0.  0.
          2    1    3    3  502    0 -0.25344006392E+02 -0.89124173266E+01  0.18431241141E+02  0.32580062809E+02  0.00000000000E+00 0. -1.
         -2    1    3    3    0  502  0.25344006392E+02  0.89124173266E+01 -0.60107738371E+02  0.65838363093E+02  0.00000000000E+00 0.  1.
<mgrwt>
<rscale>  0 0.89158601E+02</rscale>
<asrwt>0</asrwt>
<pdfrwt beam="1">  1        4 0.43647638E-02 0.89158601E+02</pdfrwt>
<pdfrwt beam="2">  1       -4 0.10776532E-01 0.89158601E+02</pdfrwt>
<totfact> 0.28212396E+04</totfact>
</mgrwt>
</event>
<event>
 5    1  0.3957498E+001  0.9664920E+02  0.7546771E-02  0.1287504E+00
          2   -1    0    0  501    0  0.00000000000E+00  0.00000000000E+00  0.26198972488E+03  0.26198972488E+03  0.00000000000E+00 0. -1.
         -2   -1    0    0    0  501 -0.00000000000E+00 -0.00000000000E+00 -0.89135823212E+01  0.89135823212E+01  0.00000000000E+00 0.  1.
         23    2    1    2    0    0  0.00000000000E+00  0.00000000000E+00  0.25307614256E+03  0.27090330720E+03  0.96649200308E+02 0.  0.
          2    1    3    3  502    0 -0.27425935026E+02 -0.39001688093E+01  0.23752493691E+03  0.23913487592E+03  0.00000000000E+00 0. -1.
         -2    1    3    3    0  502  0.27425935026E+02  0.39001688093E+01  0.15551205650E+02  0.31768431280E+02  0.00000000000E+00 0.  1.
<mgrwt>
<rscale>  0 0.96649200E+02</rscale>
<asrwt>0</asrwt>
<pdfrwt beam="1">  1        2 0.40306106E-01 0.96649200E+02</pdfrwt>
<pdfrwt beam="2">  1       -2 0.13713206E-02 0.96649200E+02</pdfrwt>
<totfact> 0.14605538E+05</totfact>
</mgrwt>
</event>
<event>
 5    1  0.3957498E+001  0.9149893E+02  0.7546771E-02  0.1299262E+00
         -1   -1    0    0    0  501 -0.00000000000E+00  0.00000000000E+00  0.25970690816E+02  0.25970690816E+02  0.00000000000E+00 0.  1.
          1   -1    0    0  501    0  0.00000000000E+00 -0.00000000000E+00 -0.80591366674E+02  0.80591366674E+02  0.00000000000E+00 0. -1.
         23    2    1    2    0    0  0.00000000000E+00  0.00000000000E+00 -0.54620675858E+02  0.10656205749E+03  0.91498928220E+02 0.  0.
          2    1    3    3  502    0 -0.39003213506E+02  0.65357122097E+01 -0.52273649861E+00  0.39550467144E+02  0.00000000000E+00 0. -1.
         -2    1    3    3    0  502  0.39003213506E+02 -0.65357122097E+01 -0.54097939359E+02  0.67011590347E+02  0.00000000000E+00 0.  1.
<mgrwt>
<rscale>  0 0.91498928E+02</rscale>
<asrwt>0</asrwt>
<pdfrwt beam="2">  1        1 0.12398672E-01 0.91498928E+02</pdfrwt>
<pdfrwt beam="1">  1       -1 0.39954909E-02 0.91498928E+02</pdfrwt>
<totfact> 0.99888951E+04</totfact>
</mgrwt>
</event>
<event>
 5    1  0.3957498E+001  0.8919462E+02  0.7546771E-02  0.1304814E+00
         -3   -1    0    0    0  501 -0.00000000000E+00  0.00000000000E+00  0.59845017535E+00  0.59845017535E+00  0.00000000000E+00 0.  1.
          3   -1    0    0  501    0  0.00000000000E+00 -0.00000000000E+00 -0.33234515730E+04  0.33234515730E+04  0.00000000000E+00 0. -1.
         23    2    1    2    0    0  0.00000000000E+00  0.00000000000E+00 -0.33228531229E+04  0.33240500232E+04  0.89194622633E+02 0.  0.
          2    1    3    3  502    0 -0.19849473080E+02 -0.38582799441E+02 -0.20456353391E+04  0.20460954461E+04  0.00000000000E+00 0. -1.
         -2    1    3    3    0  502  0.19849473080E+02  0.38582799441E+02 -0.12772177838E+04  0.12779545771E+04  0.00000000000E+00 0.  1.
<mgrwt>
<rscale>  0 0.89194623E+02</rscale>
<asrwt>0</asrwt>
<pdfrwt beam="2">  1        3 0.51129522E+00 0.89194623E+02</pdfrwt>
<pdfrwt beam="1">  1       -3 0.92070163E-04 0.89194623E+02</pdfrwt>
<totfact> 0.79989872E+02</totfact>
</mgrwt>
</event>
<event>
 5    1  0.3957498E+001  0.6263146E+02  0.7546771E-02  0.1387109E+00
         -1   -1    0    0    0  501 -0.00000000000E+00  0.00000000000E+00  0.19830918016E+02  0.19830918016E+02  0.00000000000E+00 0.  1.
          1   -1    0    0  501    0  0.00000000000E+00 -0.00000000000E+00 -0.49451820804E+02  0.49451820804E+02  0.00000000000E+00 0. -1.
         23    2    1    2    0    0  0.00000000000E+00  0.00000000000E+00 -0.29620902789E+02  0.69282738820E+02  0.62631461873E+02 0.  0.
          2    1    3    3  502    0 -0.30099225853E+02 -0.77993382746E+01 -0.18931971454E+02  0.36403469856E+02  0.00000000000E+00 0. -1.
         -2    1    3    3    0  502  0.30099225853E+02  0.77993382746E+01 -0.10688931335E+02  0.32879268963E+02  0.00000000000E+00 0.  1.
<mgrwt>
<rscale>  0 0.62631462E+02</rscale>
<asrwt>0</asrwt>
<pdfrwt beam="2">  1        1 0.76079724E-02 0.62631462E+02</pdfrwt>
<pdfrwt beam="1">  1       -1 0.30509105E-02 0.62631462E+02</pdfrwt>
<totfact> 0.25953299E+05</totfact>
</mgrwt>
</event>
<event>
 5    1  0.3957498E+001  0.8131046E+02  0.7546771E-02  0.1325373E+00
         -2   -1    0    0    0  501 -0.00000000000E+00  0.00000000000E+00  0.11409240572E+02  0.11409240572E+02  0.00000000000E+00 0.  1.
          2   -1    0    0  501    0  0.00000000000E+00 -0.00000000000E+00 -0.14486921480E+03  0.14486921480E+03  0.00000000000E+00 0. -1.
         23    2    1    2    0    0  0.00000000000E+00  0.00000000000E+00 -0.13345997423E+03  0.15627845538E+03  0.81310459922E+02 0.  0.
          2    1    3    3  502    0 -0.19951104093E+02  0.87726378657E+01 -0.13269235078E+03  0.13447031526E+03  0.00000000000E+00 0. -1.
         -2    1    3    3    0  502  0.19951104093E+02 -0.87726378657E+01 -0.76762345003E+00  0.21808140118E+02  0.00000000000E+00 0.  1.
<mgrwt>
<rscale>  0 0.81310460E+02</rscale>
<asrwt>0</asrwt>
<pdfrwt beam="2">  1        2 0.22287570E-01 0.81310460E+02</pdfrwt>
<pdfrwt beam="1">  1       -2 0.17552679E-02 0.81310460E+02</pdfrwt>
<totfact> 0.18814058E+05</totfact>
</mgrwt>
</event>
<event>
 5    1  0.3957498E+001  0.8406392E+02  0.7546771E-02  0.1317899E+00
         -1   -1    0    0    0  501 -0.00000000000E+00  0.00000000000E+00  0.18856098473E+02  0.18856098473E+02  0.00000000000E+00 0.  1.
          1   -1    0    0  501    0  0.00000000000E+00 -0.00000000000E+00 -0.93693056262E+02  0.93693056262E+02  0.00000000000E+00 0. -1.
         23    2    1    2    0    0  0.00000000000E+00  0.00000000000E+00 -0.74836957789E+02  0.11254915473E+03  0.84063916042E+02 0.  0.
          2    1    3    3  502    0  0.40122771583E+02  0.99537169232E+01 -0.47594831100E+02  0.63041107442E+02  0.00000000000E+00 0.  1.
         -2    1    3    3    0  502 -0.40122771583E+02 -0.99537169232E+01 -0.27242126689E+02  0.49508047292E+02  0.00000000000E+00 0. -1.
<mgrwt>
<rscale>  0 0.84063916E+02</rscale>
<asrwt>0</asrwt>
<pdfrwt beam="2">  1        1 0.14414317E-01 0.84063916E+02</pdfrwt>
<pdfrwt beam="1">  1       -1 0.29009382E-02 0.84063916E+02</pdfrwt>
<totfact> 0.12882928E+05</totfact>
</mgrwt>
</event>
<event>
 5    1  0.3957498E+001  0.9155630E+02  0.7546771E-02  0.1299126E+00
          1   -1    0    0  501    0  0.00000000000E+00  0.00000000000E+00  0.97292610204E+02  0.97292610204E+02  0.00000000000E+00 0. -1.
         -1   -1    0    0    0  501 -0.00000000000E+00 -0.00000000000E+00 -0.21539548233E+02  0.21539548233E+02  0.00000000000E+00 0.  1.
         23    2    1    2    0    0  0.00000000000E+00  0.00000000000E+00  0.75753061971E+02  0.11883215844E+03  0.91556296784E+02 0.  0.
          2    1    3    3  502    0  0.38203616667E+02  0.39631034047E+01  0.70205167354E+02  0.80024921358E+02  0.00000000000E+00 0. -1.
         -2    1    3    3    0  502 -0.38203616667E+02 -0.39631034047E+01  0.55478946169E+01  0.38807237079E+02  0.00000000000E+00 0.  1.
<mgrwt>
<rscale>  0 0.91556297E+02</rscale>
<asrwt>0</asrwt>
<pdfrwt beam="1">  1        1 0.14968094E-01 0.91556297E+02</pdfrwt>
<pdfrwt beam="2">  1       -1 0.33137767E-02 0.91556297E+02</pdfrwt>
<totfact> 0.10280481E+05</totfact>
</mgrwt>
</event>
<event>
 5    1  0.3957498E+001  0.9088479E+02  0.7546771E-02  0.1300723E+00
         -2   -1    0    0    0  501 -0.00000000000E+00  0.00000000000E+00  0.55922992345E+02  0.55922992345E+02  0.00000000000E+00 0.  1.
          2   -1    0    0  501    0  0.00000000000E+00 -0.00000000000E+00 -0.36925976071E+02  0.36925976071E+02  0.00000000000E+00 0. -1.
         23    2    1    2    0    0  0.00000000000E+00  0.00000000000E+00  0.18997016274E+02  0.92848968415E+02  0.90884785902E+02 0.  0.
          2    1    3    3  502    0  0.45414727381E+02  0.15800553273E+01  0.96318634651E+01  0.46451768876E+02  0.00000000000E+00 0. -1.
         -2    1    3    3    0  502 -0.45414727381E+02 -0.15800553273E+01  0.93651528089E+01  0.46397199539E+02  0.00000000000E+00 0.  1.
<mgrwt>
<rscale>  0 0.90884786E+02</rscale>
<asrwt>0</asrwt>
<pdfrwt beam="2">  1        2 0.56809194E-02 0.90884786E+02</pdfrwt>
<pdfrwt beam="1">  1       -2 0.86035373E-02 0.90884786E+02</pdfrwt>
<totfact> 0.94309338E+04</totfact>
</mgrwt>
</event>
<event>
 5    1  0.3957498E+001  0.9251962E+02  0.7546771E-02  0.1296862E+00
          1   -1    0    0  501    0  0.00000000000E+00  0.00000000000E+00  0.22315657850E+02  0.22315657850E+02  0.00000000000E+00 0. -1.
         -1   -1    0    0    0  501 -0.00000000000E+00 -0.00000000000E+00 -0.95895442888E+02  0.95895442888E+02  0.00000000000E+00 0.  1.
         23    2    1    2    0    0  0.00000000000E+00  0.00000000000E+00 -0.73579785038E+02  0.11821110074E+03  0.92519617224E+02 0.  0.
          2    1    3    3  502    0  0.41040544052E+02 -0.21324441538E+02 -0.35569832092E+02  0.58346131132E+02  0.00000000000E+00 0. -1.
         -2    1    3    3    0  502 -0.41040544052E+02  0.21324441538E+02 -0.38009952945E+02  0.59864969606E+02  0.00000000000E+00 0.  1.
<mgrwt>
<rscale>  0 0.92519617E+02</rscale>
<asrwt>0</asrwt>
<pdfrwt beam="1">  1        1 0.34331781E-02 0.92519617E+02</pdfrwt>
<pdfrwt beam="2">  1       -1 0.14753145E-01 0.92519617E+02</pdfrwt>
<totfact> 0.78970677E+04</totfact>
</mgrwt>
</event>
<event>
 5    1  0.3957498E+001  0.6917805E+02  0.7546771E-02  0.1362911E+00
          1   -1    0    0  501    0  0.00000000000E+00  0.00000000000E+00  0.61196494170E+03  0.61196494170E+03  0.00000000000E+00 0. -1.
         -1   -1    0    0    0  501 -0.00000000000E+00 -0.00000000000E+00 -0.19550149791E+01  0.19550149791E+01  0.00000000000E+00 0.  1.
         23    2    1    2    0    0  0.00000000000E+00  0.00000000000E+00  0.61000992673E+03  0.61391995668E+03  0.69178049342E+02 0.  0.
          2    1    3    3  502    0  0.20967081799E+02 -0.19233147529E+02  0.47955700175E+03  0.48040030226E+03  0.00000000000E+00 0. -1.
         -2    1    3    3    0  502 -0.20967081799E+02  0.19233147529E+02  0.13045292498E+03  0.13351965443E+03  0.00000000000E+00 0.  1.
<mgrwt>
<rscale>  0 0.69178049E+02</rscale>
<asrwt>0</asrwt>
<pdfrwt beam="1">  1        1 0.94148300E-01 0.69178049E+02</pdfrwt>
<pdfrwt beam="2">  1       -1 0.30077202E-03 0.69178049E+02</pdfrwt>
<totfact> 0.29140479E+05</totfact>
</mgrwt>
</event>
<event>
 5    1  0.3957498E+001  0.8782708E+02  0.7546771E-02  0.1308201E+00
          1   -1    0    0  501    0  0.00000000000E+00  0.00000000000E+00  0.38398000207E+03  0.38398000207E+03  0.00000000000E+00 0. -1.
         -1   -1    0    0    0  501 -0.00000000000E+00 -0.00000000000E+00 -0.50221338630E+01  0.50221338630E+01  0.00000000000E+00 0.  1.
         23    2    1    2    0    0  0.00000000000E+00  0.00000000000E+00  0.37895786820E+03  0.38900213593E+03  0.87827079448E+02 0.  0.
          2    1    3    3  502    0  0.19014519689E+02  0.17850682277E+02  0.34596139260E+03  0.34694305583E+03  0.00000000000E+00 0. -1.
         -2    1    3    3    0  502 -0.19014519689E+02 -0.17850682277E+02  0.32996475600E+02  0.42059080099E+02  0.00000000000E+00 0.  1.
<mgrwt>
<rscale>  0 0.87827079E+02</rscale>
<asrwt>0</asrwt>
<pdfrwt beam="1">  1        1 0.59073823E-01 0.87827079E+02</pdfrwt>
<pdfrwt beam="2">  1       -1 0.77263628E-03 0.87827079E+02</pdfrwt>
<totfact> 0.14794797E+05</totfact>
</mgrwt>
</event>
<event>
 5    1  0.3957498E+001  0.9154371E+02  0.7546771E-02  0.1299156E+00
          2   -1    0    0  501    0  0.00000000000E+00  0.00000000000E+00  0.15716566297E+03  0.15716566297E+03  0.00000000000E+00 0.  1.
         -2   -1    0    0    0  501 -0.00000000000E+00 -0.00000000000E+00 -0.13330283466E+02  0.13330283466E+02  0.00000000000E+00 0. -1.
         23    2    1    2    0    0  0.00000000000E+00  0.00000000000E+00  0.14383537950E+03  0.17049594644E+03  0.91543712806E+02 0.  0.
          2    1    3    3  502    0 -0.29277003563E+02 -0.16677754000E+02  0.14218506040E+02  0.36571250048E+02  0.00000000000E+00 0. -1.
         -2    1    3    3    0  502  0.29277003563E+02  0.16677754000E+02  0.12961687346E+03  0.13392469639E+03  0.00000000000E+00 0.  1.
<mgrwt>
<rscale>  0 0.91543713E+02</rscale>
<asrwt>0</asrwt>
<pdfrwt beam="1">  1        2 0.24179331E-01 0.91543713E+02</pdfrwt>
<pdfrwt beam="2">  1       -2 0.20508130E-02 0.91543713E+02</pdfrwt>
<totfact> 0.14051947E+05</totfact>
</mgrwt>
</event>
<event>
 5    1  0.3957498E+001  0.9120113E+02  0.7546771E-02  0.1299969E+00
         -1   -1    0    0    0  501 -0.00000000000E+00  0.00000000000E+00  0.38561589842E+02  0.38561589842E+02  0.00000000000E+00 0.  1.
          1   -1    0    0  501    0  0.00000000000E+00 -0.00000000000E+00 -0.53924429152E+02  0.53924429152E+02  0.00000000000E+00 0. -1.
         23    2    1    2    0    0  0.00000000000E+00  0.00000000000E+00 -0.15362839310E+02  0.92486018995E+02  0.91201134192E+02 0.  0.
          2    1    3    3  502    0 -0.39261439584E+02 -0.65734403060E+01 -0.30237559681E+02  0.49989806672E+02  0.00000000000E+00 0. -1.
         -2    1    3    3    0  502  0.39261439584E+02  0.65734403060E+01  0.14874720371E+02  0.42496212323E+02  0.00000000000E+00 0.  1.
<mgrwt>
<rscale>  0 0.91201134E+02</rscale>
<asrwt>0</asrwt>
<pdfrwt beam="2">  1        1 0.82960660E-02 0.91201134E+02</pdfrwt>
<pdfrwt beam="1">  1       -1 0.59325523E-02 0.91201134E+02</pdfrwt>
<totfact> 0.94762942E+04</totfact>
</mgrwt>
</event>
<event>
 5    1  0.3957498E+001  0.9239258E+02  0.7546771E-02  0.1297159E+00
          2   -1    0    0  501    0  0.00000000000E+00  0.00000000000E+00  0.99750953556E+03  0.99750953556E+03  0.00000000000E+00 0. -1.
         -2   -1    0    0    0  501 -0.00000000000E+00 -0.00000000000E+00 -0.21394255459E+01  0.21394255459E+01  0.00000000000E+00 0.  1.
         23    2    1    2    0    0  0.00000000000E+00  0.00000000000E+00  0.99537011002E+03  0.99964896111E+03  0.92392583743E+02 0.  0.
          2    1    3    3  502    0  0.47608252980E+01 -0.44811298309E+02  0.60769388744E+03  0.60936243628E+03  0.00000000000E+00 0. -1.
         -2    1    3    3    0  502 -0.47608252980E+01  0.44811298309E+02  0.38767622258E+03  0.39028652483E+03  0.00000000000E+00 0.  1.
<mgrwt>
<rscale>  0 0.92392584E+02</rscale>
<asrwt>0</asrwt>
<pdfrwt beam="1">  1        2 0.15346263E+00 0.92392584E+02</pdfrwt>
<pdfrwt beam="2">  1       -2 0.32914319E-03 0.92392584E+02</pdfrwt>
<totfact> 0.24141209E+05</totfact>
</mgrwt>
</event>
<event>
 4    1  0.3957498E+001  0.4996874E+02  0.7546771E-02  0.1445510E+00
          2   -1    0    0  501    0  0.00000000000E+00  0.00000000000E+00  0.44089051216E+01  0.44089051216E+01  0.00000000000E+00 0. -1.
         -2   -1    0    0    0  501 -0.00000000000E+00 -0.00000000000E+00 -0.14158135049E+03  0.14158135049E+03  0.00000000000E+00 0.  1.
          2    1    1    2  502    0 -0.12320966435E+02 -0.17983953147E+02 -0.32924364524E+02  0.39487245587E+02  0.00000000000E+00 0. -1.
         -2    1    1    2    0  502  0.12320966435E+02  0.17983953147E+02 -0.10424808084E+03  0.10650301002E+03  0.00000000000E+00 0.  1.
<mgrwt>
<rscale>  0 0.49968740E+02</rscale>
<asrwt>0</asrwt>
<pdfrwt beam="1">  1        2 0.67829303E-03 0.49968740E+02</pdfrwt>
<pdfrwt beam="2">  1       -2 0.21781748E-01 0.49968740E+02</pdfrwt>
<totfact> 0.32020475E+05</totfact>
</mgrwt>
</event>
<event>
 5    1  0.3957498E+001  0.9585743E+02  0.7546771E-02  0.1289257E+00
         -1   -1    0    0    0  501 -0.00000000000E+00  0.00000000000E+00  0.12157047147E+02  0.12157047147E+02  0.00000000000E+00 0.  1.
          1   -1    0    0  501    0  0.00000000000E+00 -0.00000000000E+00 -0.18895721378E+03  0.18895721378E+03  0.00000000000E+00 0. -1.
         23    2    1    2    0    0  0.00000000000E+00  0.00000000000E+00 -0.17680016664E+03  0.20111426093E+03  0.95857430734E+02 0.  0.
          2    1    3    3  502    0  0.48123270514E+01 -0.44881847286E+02 -0.12220568781E+03  0.13027574156E+03  0.00000000000E+00 0. -1.
         -2    1    3    3    0  502 -0.48123270514E+01  0.44881847286E+02 -0.54594478830E+02  0.70838519367E+02  0.00000000000E+00 0.  1.
<mgrwt>
<rscale>  0 0.95857431E+02</rscale>
<asrwt>0</asrwt>
<pdfrwt beam="2">  1        1 0.29070340E-01 0.95857431E+02</pdfrwt>
<pdfrwt beam="1">  1       -1 0.18703150E-02 0.95857431E+02</pdfrwt>
<totfact> 0.10233730E+05</totfact>
</mgrwt>
</event>
<event>
 5    1  0.3957498E+001  0.1016892E+03  0.7546771E-02  0.1276783E+00
         -1   -1    0    0    0  501 -0.00000000000E+00  0.00000000000E+00  0.78653616759E+01  0.78653616759E+01  0.00000000000E+00 0.  1.
          1   -1    0    0  501    0  0.00000000000E+00 -0.00000000000E+00 -0.32867812054E+03  0.32867812054E+03  0.00000000000E+00 0. -1.
         23    2    1    2    0    0  0.00000000000E+00  0.00000000000E+00 -0.32081275886E+03  0.33654348221E+03  0.10168917923E+03 0.  0.
          2    1    3    3  502    0  0.27982602562E+02  0.35950472231E+02 -0.23512484267E+03  0.23949771218E+03  0.00000000000E+00 0. -1.
         -2    1    3    3    0  502 -0.27982602562E+02 -0.35950472231E+02 -0.85687916194E+02  0.97045770034E+02  0.00000000000E+00 0.  1.
<mgrwt>
<rscale>  0 0.10168918E+03</rscale>
<asrwt>0</asrwt>
<pdfrwt beam="2">  1        1 0.50565861E-01 0.10168918E+03</pdfrwt>
<pdfrwt beam="1">  1       -1 0.12100557E-02 0.10168918E+03</pdfrwt>
<totfact> 0.97317367E+04</totfact>
</mgrwt>
</event>
<event>
 5    1  0.3957498E+001  0.9413057E+02  0.7546771E-02  0.1293146E+00
         -2   -1    0    0    0  501 -0.00000000000E+00  0.00000000000E+00  0.57078838108E+03  0.57078838108E+03  0.00000000000E+00 0.  1.
          2   -1    0    0  501    0  0.00000000000E+00 -0.00000000000E+00 -0.38808450816E+01  0.38808450816E+01  0.00000000000E+00 0. -1.
         23    2    1    2    0    0  0.00000000000E+00  0.00000000000E+00  0.56690753600E+03  0.57466922616E+03  0.94130574871E+02 0.  0.
          2    1    3    3  502    0 -0.17708252944E+01 -0.46616699408E+02  0.32152522309E+03  0.32489186135E+03  0.00000000000E+00 0.  1.
         -2    1    3    3    0  502  0.17708252944E+01  0.46616699408E+02  0.24538231291E+03  0.24977736481E+03  0.00000000000E+00 0. -1.
<mgrwt>
<rscale>  0 0.94130575E+02</rscale>
<asrwt>0</asrwt>
<pdfrwt beam="2">  1        2 0.59705354E-03 0.94130575E+02</pdfrwt>
<pdfrwt beam="1">  1       -2 0.87813530E-01 0.94130575E+02</pdfrwt>
<totfact> 0.30028399E+04</totfact>
</mgrwt>
</event>
<event>
 5    1  0.3957498E+001  0.9224198E+02  0.7546771E-02  0.1297511E+00
         -2   -1    0    0    0  501 -0.00000000000E+00  0.00000000000E+00  0.69467555438E+01  0.69467555438E+01  0.00000000000E+00 0.  1.
          2   -1    0    0  501    0  0.00000000000E+00 -0.00000000000E+00 -0.30620704642E+03  0.30620704642E+03  0.00000000000E+00 0. -1.
         23    2    1    2    0    0  0.00000000000E+00  0.00000000000E+00 -0.29926029088E+03  0.31315380197E+03  0.92241975202E+02 0.  0.
          2    1    3    3  502    0 -0.15491301627E+02  0.35456997717E+02 -0.64420691435E+02  0.75147884855E+02  0.00000000000E+00 0.  1.
         -2    1    3    3    0  502  0.15491301627E+02 -0.35456997717E+02 -0.23483959944E+03  0.23800591711E+03  0.00000000000E+00 0. -1.
<mgrwt>
<rscale>  0 0.92241975E+02</rscale>
<asrwt>0</asrwt>
<pdfrwt beam="2">  1        2 0.47108778E-01 0.92241975E+02</pdfrwt>
<pdfrwt beam="1">  1       -2 0.10687316E-02 0.92241975E+02</pdfrwt>
<totfact> 0.17550567E+05</totfact>
</mgrwt>
</event>
<event>
 5    1  0.3957498E+001  0.8860982E+02  0.7546771E-02  0.1306254E+00
          2   -1    0    0  501    0  0.00000000000E+00  0.00000000000E+00  0.43275824594E+02  0.43275824594E+02  0.00000000000E+00 0. -1.
         -2   -1    0    0    0  501 -0.00000000000E+00 -0.00000000000E+00 -0.45358469390E+02  0.45358469390E+02  0.00000000000E+00 0.  1.
         23    2    1    2    0    0  0.00000000000E+00  0.00000000000E+00 -0.20826447959E+01  0.88634293984E+02  0.88609822598E+02 0.  0.
          2    1    3    3  502    0 -0.19659669014E+02  0.19181306744E+02  0.33731765565E+02  0.43500081865E+02  0.00000000000E+00 0. -1.
         -2    1    3    3    0  502  0.19659669014E+02 -0.19181306744E+02 -0.35814410361E+02  0.45134212119E+02  0.00000000000E+00 0.  1.
<mgrwt>
<rscale>  0 0.88609823E+02</rscale>
<asrwt>0</asrwt>
<pdfrwt beam="1">  1        2 0.66578192E-02 0.88609823E+02</pdfrwt>
<pdfrwt beam="2">  1       -2 0.69782261E-02 0.88609823E+02</pdfrwt>
<totfact> 0.10566481E+05</totfact>
</mgrwt>
</event>
<event>
 5    1  0.3957498E+001  0.9191262E+02  0.7546771E-02  0.1298285E+00
         -2   -1    0    0    0  501 -0.00000000000E+00  0.00000000000E+00  0.25773828824E+01  0.25773828824E+01  0.00000000000E+00 0.  1.
          2   -1    0    0  501    0  0.00000000000E+00 -0.00000000000E+00 -0.81942897888E+03  0.81942897888E+03  0.00000000000E+00 0. -1.
         23    2    1    2    0    0  0.00000000000E+00  0.00000000000E+00 -0.81685159600E+03  0.82200636177E+03  0.91912615533E+02 0.  0.
          2    1    3    3  502    0 -0.16077367793E+02 -0.40653681025E+02 -0.28170180196E+03  0.28507386545E+03  0.00000000000E+00 0. -1.
         -2    1    3    3    0  502  0.16077367793E+02  0.40653681025E+02 -0.53514979405E+03  0.53693249632E+03  0.00000000000E+00 0.  1.
<mgrwt>
<rscale>  0 0.91912616E+02</rscale>
<asrwt>0</asrwt>
<pdfrwt beam="2">  1        2 0.12606589E+00 0.91912616E+02</pdfrwt>
<pdfrwt beam="1">  1       -2 0.39652079E-03 0.91912616E+02</pdfrwt>
<totfact> 0.23960310E+05</totfact>
</mgrwt>
</event>
<event>
 5    1  0.3957498E+001  0.9050890E+02  0.7546771E-02  0.1301624E+00
          2   -1    0    0  501    0  0.00000000000E+00  0.00000000000E+00  0.12220165215E+03  0.12220165215E+03  0.00000000000E+00 0. -1.
         -2   -1    0    0    0  501 -0.00000000000E+00 -0.00000000000E+00 -0.16758900177E+02  0.16758900177E+02  0.00000000000E+00 0.  1.
         23    2    1    2    0    0  0.00000000000E+00  0.00000000000E+00  0.10544275198E+03  0.13896055233E+03  0.90508900997E+02 0.  0.
          2    1    3    3  502    0  0.49313563422E+01  0.23826981321E+02  0.11130406343E+03  0.11393260223E+03  0.00000000000E+00 0. -1.
         -2    1    3    3    0  502 -0.49313563422E+01 -0.23826981321E+02 -0.58613114565E+01  0.25027950101E+02  0.00000000000E+00 0.  1.
<mgrwt>
<rscale>  0 0.90508901E+02</rscale>
<asrwt>0</asrwt>
<pdfrwt beam="1">  1        2 0.18800254E-01 0.90508901E+02</pdfrwt>
<pdfrwt beam="2">  1       -2 0.25782924E-02 0.90508901E+02</pdfrwt>
<totfact> 0.13327260E+05</totfact>
</mgrwt>
</event>
<event>
 5    1  0.3957498E+001  0.8629590E+02  0.7546771E-02  0.1312078E+00
         -2   -1    0    0    0  501 -0.00000000000E+00  0.00000000000E+00  0.92924100334E+02  0.92924100334E+02  0.00000000000E+00 0.  1.
          2   -1    0    0  501    0  0.00000000000E+00 -0.00000000000E+00 -0.20035121724E+02  0.20035121724E+02  0.00000000000E+00 0. -1.
         23    2    1    2    0    0  0.00000000000E+00  0.00000000000E+00  0.72888978611E+02  0.11295922206E+03  0.86295901670E+02 0.  0.
          2    1    3    3  502    0  0.38534226759E+02  0.18693254739E+02  0.29589998500E+02  0.52056627012E+02  0.00000000000E+00 0. -1.
         -2    1    3    3    0  502 -0.38534226759E+02 -0.18693254739E+02  0.43298980111E+02  0.60902595046E+02  0.00000000000E+00 0.  1.
<mgrwt>
<rscale>  0 0.86295902E+02</rscale>
<asrwt>0</asrwt>
<pdfrwt beam="2">  1        2 0.30823265E-02 0.86295902E+02</pdfrwt>
<pdfrwt beam="1">  1       -2 0.14296015E-01 0.86295902E+02</pdfrwt>
<totfact> 0.93460579E+04</totfact>
</mgrwt>
</event>
<event>
 5    1  0.3957498E+001  0.8937053E+02  0.7546771E-02  0.1304383E+00
         -1   -1    0    0    0  501 -0.00000000000E+00  0.00000000000E+00  0.83065854786E+00  0.83065854786E+00  0.00000000000E+00 0.  1.
          1   -1    0    0  501    0  0.00000000000E+00 -0.00000000000E+00 -0.24038429654E+04  0.24038429654E+04  0.00000000000E+00 0. -1.
         23    2    1    2    0    0  0.00000000000E+00  0.00000000000E+00 -0.24030123068E+04  0.24046736239E+04  0.89370525497E+02 0.  0.
          2    1    3    3  502    0  0.27465899473E+02  0.34047978844E+02 -0.95617850817E+03  0.95717865625E+03  0.00000000000E+00 0.  1.
         -2    1    3    3    0  502 -0.27465899473E+02 -0.34047978844E+02 -0.14468337987E+04  0.14474949677E+04  0.00000000000E+00 0. -1.
<mgrwt>
<rscale>  0 0.89370525E+02</rscale>
<asrwt>0</asrwt>
<pdfrwt beam="2">  1        1 0.36982226E+00 0.89370525E+02</pdfrwt>
<pdfrwt beam="1">  1       -1 0.12779353E-03 0.89370525E+02</pdfrwt>
<totfact> 0.60244443E+04</totfact>
</mgrwt>
</event>
<event>
 5    1  0.3957498E+001  0.9296391E+02  0.7546771E-02  0.1295829E+00
         -1   -1    0    0    0  501 -0.00000000000E+00  0.00000000000E+00  0.12977554253E+03  0.12977554253E+03  0.00000000000E+00 0.  1.
          1   -1    0    0  501    0  0.00000000000E+00 -0.00000000000E+00 -0.16648532193E+02  0.16648532193E+02  0.00000000000E+00 0. -1.
         23    2    1    2    0    0  0.00000000000E+00  0.00000000000E+00  0.11312701033E+03  0.14642407472E+03  0.92963913378E+02 0.  0.
          2    1    3    3  502    0 -0.30499858837E+02  0.31623567544E+02  0.32661901800E+02  0.54745696109E+02  0.00000000000E+00 0. -1.
         -2    1    3    3    0  502  0.30499858837E+02 -0.31623567544E+02  0.80465108534E+02  0.91678378611E+02  0.00000000000E+00 0.  1.
<mgrwt>
<rscale>  0 0.92963913E+02</rscale>
<asrwt>0</asrwt>
<pdfrwt beam="2">  1        1 0.25613127E-02 0.92963913E+02</pdfrwt>
<pdfrwt beam="1">  1       -1 0.19965467E-01 0.92963913E+02</pdfrwt>
<totfact> 0.73462015E+04</totfact>
</mgrwt>
</event>
<event>
 5    1  0.3957498E+001  0.7849312E+02  0.7546771E-02  0.1333383E+00
         -3   -1    0    0    0  501 -0.00000000000E+00  0.00000000000E+00  0.18904843055E+03  0.18904843055E+03  0.00000000000E+00 0. -1.
          3   -1    0    0  501    0  0.00000000000E+00 -0.00000000000E+00 -0.81476087393E+01  0.81476087393E+01  0.00000000000E+00 0.  1.
         23    2    1    2    0    0  0.00000000000E+00  0.00000000000E+00  0.18090082181E+03  0.19719603929E+03  0.78493124410E+02 0.  0.
          2    1    3    3  502    0 -0.14284136204E+02 -0.15944310908E+02  0.17308982613E+03  0.17440855915E+03  0.00000000000E+00 0. -1.
         -2    1    3    3    0  502  0.14284136204E+02  0.15944310908E+02  0.78109956858E+01  0.22787480138E+02  0.00000000000E+00 0.  1.
<mgrwt>
<rscale>  0 0.78493124E+02</rscale>
<asrwt>0</asrwt>
<pdfrwt beam="2">  1        3 0.12534784E-02 0.78493124E+02</pdfrwt>
<pdfrwt beam="1">  1       -3 0.29084371E-01 0.78493124E+02</pdfrwt>
<totfact> 0.42742869E+04</totfact>
</mgrwt>
</event>
<event>
 5    1  0.3957498E+001  0.9110710E+02  0.7546771E-02  0.1300193E+00
         -2   -1    0    0    0  501 -0.00000000000E+00  0.00000000000E+00  0.15257441731E+01  0.15257441731E+01  0.00000000000E+00 0.  1.
          2   -1    0    0  501    0  0.00000000000E+00 -0.00000000000E+00 -0.13600746141E+04  0.13600746141E+04  0.00000000000E+00 0. -1.
         23    2    1    2    0    0  0.00000000000E+00  0.00000000000E+00 -0.13585488699E+04  0.13616003583E+04  0.91107099998E+02 0.  0.
          2    1    3    3  502    0 -0.13222966468E+02 -0.38268805959E+02 -0.99125667241E+03  0.99208323187E+03  0.00000000000E+00 0. -1.
         -2    1    3    3    0  502  0.13222966468E+02  0.38268805959E+02 -0.36729219753E+03  0.36951712642E+03  0.00000000000E+00 0.  1.
<mgrwt>
<rscale>  0 0.91107100E+02</rscale>
<asrwt>0</asrwt>
<pdfrwt beam="2">  1        2 0.20924245E+00 0.91107100E+02</pdfrwt>
<pdfrwt beam="1">  1       -2 0.23472965E-03 0.91107100E+02</pdfrwt>
<totfact> 0.24374948E+05</totfact>
</mgrwt>
</event>
<event>
 5    1  0.3957498E+001  0.9171986E+02  0.7546771E-02  0.1298739E+00
          3   -1    0    0  501    0  0.00000000000E+00  0.00000000000E+00  0.22917929719E+03  0.22917929719E+03  0.00000000000E+00 0. -1.
         -3   -1    0    0    0  501 -0.00000000000E+00 -0.00000000000E+00 -0.91768019759E+01  0.91768019759E+01  0.00000000000E+00 0.  1.
         23    2    1    2    0    0  0.00000000000E+00  0.00000000000E+00  0.22000249522E+03  0.23835609917E+03  0.91719856679E+02 0.  0.
          2    1    3    3  502    0  0.44715115981E+01 -0.31204440862E+02  0.19656003971E+03  0.19907174776E+03  0.00000000000E+00 0. -1.
         -2    1    3    3    0  502 -0.44715115981E+01  0.31204440862E+02  0.23442455509E+02  0.39284351411E+02  0.00000000000E+00 0.  1.
<mgrwt>
<rscale>  0 0.91719857E+02</rscale>
<asrwt>0</asrwt>
<pdfrwt beam="1">  1        3 0.35258349E-01 0.91719857E+02</pdfrwt>
<pdfrwt beam="2">  1       -3 0.14118159E-02 0.91719857E+02</pdfrwt>
<totfact> 0.26206788E+04</totfact>
</mgrwt>
</event>
<event>
 5    1  0.3957498E+001  0.8928056E+02  0.7546771E-02  0.1304603E+00
         -1   -1    0    0    0  501 -0.00000000000E+00  0.00000000000E+00  0.22654111333E+03  0.22654111333E+03  0.00000000000E+00 0.  1.
          1   -1    0    0  501    0  0.00000000000E+00 -0.00000000000E+00 -0.87964367450E+01  0.87964367450E+01  0.00000000000E+00 0. -1.
         23    2    1    2    0    0  0.00000000000E+00  0.00000000000E+00  0.21774467659E+03  0.23533755008E+03  0.89280559442E+02 0.  0.
          2    1    3    3  502    0 -0.34737280345E+02  0.10900606753E+02  0.40782940198E+02  0.54669462084E+02  0.00000000000E+00 0. -1.
         -2    1    3    3    0  502  0.34737280345E+02 -0.10900606753E+02  0.17696173639E+03  0.18066808799E+03  0.00000000000E+00 0.  1.
<mgrwt>
<rscale>  0 0.89280559E+02</rscale>
<asrwt>0</asrwt>
<pdfrwt beam="2">  1        1 0.13532981E-02 0.89280559E+02</pdfrwt>
<pdfrwt beam="1">  1       -1 0.34852475E-01 0.89280559E+02</pdfrwt>
<totfact> 0.70644587E+04</totfact>
</mgrwt>
</event>
<event>
 5    1  0.3957498E+001  0.1047635E+03  0.7546771E-02  0.1270586E+00
          3   -1    0    0  501    0  0.00000000000E+00  0.00000000000E+00  0.93374188238E+01  0.93374188238E+01  0.00000000000E+00 0. -1.
         -3   -1    0    0    0  501 -0.00000000000E+00 -0.00000000000E+00 -0.29385522608E+03  0.29385522608E+03  0.00000000000E+00 0.  1.
         23    2    1    2    0    0  0.00000000000E+00  0.00000000000E+00 -0.28451780726E+03  0.30319264491E+03  0.10476353029E+03 0.  0.
          2    1    3    3  502    0 -0.32205434561E+02 -0.36573398499E+02 -0.19785556160E+03  0.20376856173E+03  0.00000000000E+00 0.  1.
         -2    1    3    3    0  502  0.32205434561E+02  0.36573398499E+02 -0.86662245659E+02  0.99424083178E+02  0.00000000000E+00 0. -1.
<mgrwt>
<rscale>  0 0.10476353E+03</rscale>
<asrwt>0</asrwt>
<pdfrwt beam="1">  1        3 0.14365260E-02 0.10476353E+03</pdfrwt>
<pdfrwt beam="2">  1       -3 0.45208494E-01 0.10476353E+03</pdfrwt>
<totfact> 0.16409571E+04</totfact>
</mgrwt>
</event>
<event>
 5    1  0.3957498E+001  0.9401349E+02  0.7546771E-02  0.1293414E+00
          2   -1    0    0  501    0  0.00000000000E+00  0.00000000000E+00  0.16694431682E+03  0.16694431682E+03  0.00000000000E+00 0. -1.
         -2   -1    0    0    0  501 -0.00000000000E+00 -0.00000000000E+00 -0.13235754979E+02  0.13235754979E+02  0.00000000000E+00 0.  1.
         23    2    1    2    0    0  0.00000000000E+00  0.00000000000E+00  0.15370856184E+03  0.18018007180E+03  0.94013489936E+02 0.  0.
          2    1    3    3  502    0 -0.12042978983E+02  0.23396632580E+02  0.22029153402E+01  0.26406222655E+02  0.00000000000E+00 0.  1.
         -2    1    3    3    0  502  0.12042978983E+02 -0.23396632580E+02  0.15150564650E+03  0.15377384914E+03  0.00000000000E+00 0. -1.
<mgrwt>
<rscale>  0 0.94013490E+02</rscale>
<asrwt>0</asrwt>
<pdfrwt beam="1">  1        2 0.25683740E-01 0.94013490E+02</pdfrwt>
<pdfrwt beam="2">  1       -2 0.20362701E-02 0.94013490E+02</pdfrwt>
<totfact> 0.13348907E+05</totfact>
</mgrwt>
</event>
<event>
 5    1  0.3957498E+001  0.9074673E+02  0.7546771E-02  0.1301053E+00
         -2   -1    0    0    0  501 -0.00000000000E+00  0.00000000000E+00  0.50548489774E+02  0.50548489774E+02  0.00000000000E+00 0.  1.
          2   -1    0    0  501    0  0.00000000000E+00 -0.00000000000E+00 -0.40728067937E+02  0.40728067937E+02  0.00000000000E+00 0. -1.
         23    2    1    2    0    0  0.00000000000E+00  0.00000000000E+00  0.98204218369E+01  0.91276557711E+02  0.90746731635E+02 0.  0.
          2    1    3    3  502    0  0.26589061116E+02  0.20362739937E+02  0.35701406628E+02  0.48951095841E+02  0.00000000000E+00 0. -1.
         -2    1    3    3    0  502 -0.26589061116E+02 -0.20362739937E+02 -0.25880984791E+02  0.42325461870E+02  0.00000000000E+00 0.  1.
<mgrwt>
<rscale>  0 0.90746732E+02</rscale>
<asrwt>0</asrwt>
<pdfrwt beam="2">  1        2 0.62658566E-02 0.90746732E+02</pdfrwt>
<pdfrwt beam="1">  1       -2 0.77766908E-02 0.90746732E+02</pdfrwt>
<totfact> 0.97153553E+04</totfact>
</mgrwt>
</event>
<event>
 5    1  0.3957498E+001  0.9250204E+02  0.7546771E-02  0.1296903E+00
         -1   -1    0    0    0  501 -0.00000000000E+00  0.00000000000E+00  0.75103482717E+01  0.75103482717E+01  0.00000000000E+00 0.  1.
          1   -1    0    0  501    0  0.00000000000E+00 -0.00000000000E+00 -0.28482794654E+03  0.28482794654E+03  0.00000000000E+00 0. -1.
         23    2    1    2    0    0  0.00000000000E+00  0.00000000000E+00 -0.27731759827E+03  0.29233829481E+03  0.92502044864E+02 0.  0.
          2    1    3    3  502    0 -0.30095880831E+02  0.31114173327E+01 -0.24921277372E+03  0.25104272455E+03  0.00000000000E+00 0. -1.
         -2    1    3    3    0  502  0.30095880831E+02 -0.31114173327E+01 -0.28104824544E+02  0.41295570264E+02  0.00000000000E+00 0.  1.
<mgrwt>
<rscale>  0 0.92502045E+02</rscale>
<asrwt>0</asrwt>
<pdfrwt beam="2">  1        1 0.43819685E-01 0.92502045E+02</pdfrwt>
<pdfrwt beam="1">  1       -1 0.11554382E-02 0.92502045E+02</pdfrwt>
<totfact> 0.12205741E+05</totfact>
</mgrwt>
</event>
<event>
 5    1  0.3957498E+001  0.9261142E+02  0.7546771E-02  0.1296648E+00
         -1   -1    0    0    0  501 -0.00000000000E+00  0.00000000000E+00  0.11449374265E+02  0.11449374265E+02  0.00000000000E+00 0.  1.
          1   -1    0    0  501    0  0.00000000000E+00 -0.00000000000E+00 -0.18727826601E+03  0.18727826601E+03  0.00000000000E+00 0. -1.
         23    2    1    2    0    0  0.00000000000E+00  0.00000000000E+00 -0.17582889174E+03  0.19872764027E+03  0.92611423900E+02 0.  0.
          2    1    3    3  502    0 -0.95914067431E+01  0.45079451196E+02 -0.97526903987E+02  0.10786866554E+03  0.00000000000E+00 0. -1.
         -2    1    3    3    0  502  0.95914067431E+01 -0.45079451196E+02 -0.78301987758E+02  0.90858974737E+02  0.00000000000E+00 0.  1.
<mgrwt>
<rscale>  0 0.92611424E+02</rscale>
<asrwt>0</asrwt>
<pdfrwt beam="2">  1        1 0.28812041E-01 0.92611424E+02</pdfrwt>
<pdfrwt beam="1">  1       -1 0.17614422E-02 0.92611424E+02</pdfrwt>
<totfact> 0.11210462E+05</totfact>
</mgrwt>
</event>
<event>
 5    1  0.3957498E+001  0.9538458E+02  0.7546771E-02  0.1290312E+00
         -4   -1    0    0    0  501 -0.00000000000E+00  0.00000000000E+00  0.76398852664E+02  0.76398852664E+02  0.00000000000E+00 0.  1.
          4   -1    0    0  501    0  0.00000000000E+00 -0.00000000000E+00 -0.29772106162E+02  0.29772106162E+02  0.00000000000E+00 0. -1.
         23    2    1    2    0    0  0.00000000000E+00  0.00000000000E+00  0.46626746502E+02  0.10617095883E+03  0.95384584754E+02 0.  0.
          2    1    3    3  502    0  0.23771883239E+02 -0.28040088612E+01  0.69228415653E+02  0.73249835715E+02  0.00000000000E+00 0.  1.
         -2    1    3    3    0  502 -0.23771883239E+02  0.28040088612E+01 -0.22601669151E+02  0.32921123111E+02  0.00000000000E+00 0. -1.
<mgrwt>
<rscale>  0 0.95384585E+02</rscale>
<asrwt>0</asrwt>
<pdfrwt beam="2">  1        4 0.45803240E-02 0.95384585E+02</pdfrwt>
<pdfrwt beam="1">  1       -4 0.11753670E-01 0.95384585E+02</pdfrwt>
<totfact> 0.23068774E+04</totfact>
</mgrwt>
</event>
<event>
 5    1  0.3957498E+001  0.9029842E+02  0.7546771E-02  0.1302131E+00
         -2   -1    0    0    0  501 -0.00000000000E+00  0.00000000000E+00  0.10970400690E+03  0.10970400690E+03  0.00000000000E+00 0. -1.
          2   -1    0    0  501    0  0.00000000000E+00 -0.00000000000E+00 -0.18581375741E+02  0.18581375741E+02  0.00000000000E+00 0.  1.
         23    2    1    2    0    0  0.00000000000E+00  0.00000000000E+00  0.91122631155E+02  0.12828538264E+03  0.90298424625E+02 0.  0.
          2    1    3    3  502    0  0.23042423231E+02  0.18948252555E+02  0.93706769209E+02  0.98340978940E+02  0.00000000000E+00 0. -1.
         -2    1    3    3    0  502 -0.23042423231E+02 -0.18948252555E+02 -0.25841380547E+01  0.29944403697E+02  0.00000000000E+00 0.  1.
<mgrwt>
<rscale>  0 0.90298425E+02</rscale>
<asrwt>0</asrwt>
<pdfrwt beam="2">  1        2 0.28586733E-02 0.90298425E+02</pdfrwt>
<pdfrwt beam="1">  1       -2 0.16877539E-01 0.90298425E+02</pdfrwt>
<totfact> 0.79488870E+04</totfact>
</mgrwt>
</event>
<event>
 5    1  0.3957498E+001  0.9240532E+02  0.7546771E-02  0.1297129E+00
         -2   -1    0    0    0  501 -0.00000000000E+00  0.00000000000E+00  0.26397834750E+02  0.26397834750E+02  0.00000000000E+00 0.  1.
          2   -1    0    0  501    0  0.00000000000E+00 -0.00000000000E+00 -0.80865942721E+02  0.80865942721E+02  0.00000000000E+00 0. -1.
         23    2    1    2    0    0  0.00000000000E+00  0.00000000000E+00 -0.54468107971E+02  0.10726377747E+03  0.92405320039E+02 0.  0.
          2    1    3    3  502    0  0.24228186748E+02  0.39147514771E+02 -0.22715460916E+02  0.51337365636E+02  0.00000000000E+00 0.  1.
         -2    1    3    3    0  502 -0.24228186748E+02 -0.39147514771E+02 -0.31752647055E+02  0.55926411836E+02  0.00000000000E+00 0. -1.
<mgrwt>
<rscale>  0 0.92405320E+02</rscale>
<asrwt>0</asrwt>
<pdfrwt beam="2">  1        2 0.12440914E-01 0.92405320E+02</pdfrwt>
<pdfrwt beam="1">  1       -2 0.40612053E-02 0.92405320E+02</pdfrwt>
<totfact> 0.11099754E+05</totfact>
</mgrwt>
</event>
<event>
 5    1  0.3957498E+001  0.8681438E+02  0.7546771E-02  0.1310755E+00
         -2   -1    0    0    0  501 -0.00000000000E+00  0.00000000000E+00  0.75795091102E+03  0.75795091102E+03  0.00000000000E+00 0.  1.
          2   -1    0    0  501    0  0.00000000000E+00 -0.00000000000E+00 -0.24858918085E+01  0.24858918085E+01  0.00000000000E+00 0. -1.
         23    2    1    2    0    0  0.00000000000E+00  0.00000000000E+00  0.75546501921E+03  0.76043680283E+03  0.86814375790E+02 0.  0.
          2    1    3    3  502    0 -0.31325055942E+01  0.20395293947E+02  0.43221583567E+02  0.47894528837E+02  0.00000000000E+00 0. -1.
         -2    1    3    3    0  502  0.31325055942E+01 -0.20395293947E+02  0.71224343564E+03  0.71254227399E+03  0.00000000000E+00 0.  1.
<mgrwt>
<rscale>  0 0.86814376E+02</rscale>
<asrwt>0</asrwt>
<pdfrwt beam="2">  1        2 0.38244550E-03 0.86814376E+02</pdfrwt>
<pdfrwt beam="1">  1       -2 0.11660765E+00 0.86814376E+02</pdfrwt>
<totfact> 0.28586173E+04</totfact>
</mgrwt>
</event>
<event>
 5    1  0.3957498E+001  0.9043838E+02  0.7546771E-02  0.1301794E+00
         -1   -1    0    0    0  501 -0.00000000000E+00  0.00000000000E+00  0.15760877652E+02  0.15760877652E+02  0.00000000000E+00 0.  1.
          1   -1    0    0  501    0  0.00000000000E+00 -0.00000000000E+00 -0.12973739372E+03  0.12973739372E+03  0.00000000000E+00 0. -1.
         23    2    1    2    0    0  0.00000000000E+00  0.00000000000E+00 -0.11397651606E+03  0.14549827137E+03  0.90438380996E+02 0.  0.
          2    1    3    3  502    0  0.29946646089E+02 -0.33352006342E+02 -0.66589673182E+02  0.80270433620E+02  0.00000000000E+00 0. -1.
         -2    1    3    3    0  502 -0.29946646089E+02  0.33352006342E+02 -0.47386842882E+02  0.65227837749E+02  0.00000000000E+00 0.  1.
<mgrwt>
<rscale>  0 0.90438381E+02</rscale>
<asrwt>0</asrwt>
<pdfrwt beam="2">  1        1 0.19959599E-01 0.90438381E+02</pdfrwt>
<pdfrwt beam="1">  1       -1 0.24247505E-02 0.90438381E+02</pdfrwt>
<totfact> 0.11165635E+05</totfact>
</mgrwt>
</event>
<event>
 5    1  0.3957498E+001  0.9331409E+02  0.7546771E-02  0.1295019E+00
         -1   -1    0    0    0  501 -0.00000000000E+00  0.00000000000E+00  0.12233665595E+01  0.12233665595E+01  0.00000000000E+00 0.  1.
          1   -1    0    0  501    0  0.00000000000E+00 -0.00000000000E+00 -0.17794175984E+04  0.17794175984E+04  0.00000000000E+00 0. -1.
         23    2    1    2    0    0  0.00000000000E+00  0.00000000000E+00 -0.17781942318E+04  0.17806409649E+04  0.93314092940E+02 0.  0.
          2    1    3    3  502    0 -0.44308568414E+02  0.72323052382E+01 -0.11314673603E+04  0.11323576921E+04  0.00000000000E+00 0. -1.
         -2    1    3    3    0  502  0.44308568414E+02 -0.72323052382E+01 -0.64672687153E+03  0.64828327283E+03  0.00000000000E+00 0.  1.
<mgrwt>
<rscale>  0 0.93314093E+02</rscale>
<asrwt>0</asrwt>
<pdfrwt beam="2">  1        1 0.27375648E+00 0.93314093E+02</pdfrwt>
<pdfrwt beam="1">  1       -1 0.18821029E-03 0.93314093E+02</pdfrwt>
<totfact> 0.87695361E+04</totfact>
</mgrwt>
</event>
<event>
 5    1  0.3957498E+001  0.9255634E+02  0.7546771E-02  0.1296777E+00
         -2   -1    0    0    0  501 -0.00000000000E+00  0.00000000000E+00  0.13512266180E+03  0.13512266180E+03  0.00000000000E+00 0.  1.
          2   -1    0    0  501    0  0.00000000000E+00 -0.00000000000E+00 -0.15849813344E+02  0.15849813344E+02  0.00000000000E+00 0. -1.
         23    2    1    2    0    0  0.00000000000E+00  0.00000000000E+00  0.11927284845E+03  0.15097247514E+03  0.92556338908E+02 0.  0.
          2    1    3    3  502    0 -0.14443771484E+02 -0.16135958513E+02 -0.70746119090E+01  0.22782489449E+02  0.00000000000E+00 0. -1.
         -2    1    3    3    0  502  0.14443771484E+02  0.16135958513E+02  0.12634746036E+03  0.12818998569E+03  0.00000000000E+00 0.  1.
<mgrwt>
<rscale>  0 0.92556339E+02</rscale>
<asrwt>0</asrwt>
<pdfrwt beam="2">  1        2 0.24384329E-02 0.92556339E+02</pdfrwt>
<pdfrwt beam="1">  1       -2 0.20788101E-01 0.92556339E+02</pdfrwt>
<totfact> 0.69790758E+04</totfact>
</mgrwt>
</event>
<event>
 5    1  0.3957498E+001  0.9606110E+02  0.7546771E-02  0.1288804E+00
         -2   -1    0    0    0  501 -0.00000000000E+00  0.00000000000E+00  0.12680502231E+03  0.12680502231E+03  0.00000000000E+00 0. -1.
          2   -1    0    0  501    0  0.00000000000E+00 -0.00000000000E+00 -0.18192761886E+02  0.18192761886E+02  0.00000000000E+00 0.  1.
         23    2    1    2    0    0  0.00000000000E+00  0.00000000000E+00  0.10861226043E+03  0.14499778420E+03  0.96061096745E+02 0.  0.
          2    1    3    3  502    0  0.29453733838E+02 -0.59665478406E+01  0.11086076660E+03  0.11486179392E+03  0.00000000000E+00 0. -1.
         -2    1    3    3    0  502 -0.29453733838E+02  0.59665478406E+01 -0.22485061782E+01  0.30135990280E+02  0.00000000000E+00 0.  1.
<mgrwt>
<rscale>  0 0.96061097E+02</rscale>
<asrwt>0</asrwt>
<pdfrwt beam="2">  1        2 0.27988865E-02 0.96061097E+02</pdfrwt>
<pdfrwt beam="1">  1       -2 0.19508464E-01 0.96061097E+02</pdfrwt>
<totfact> 0.64946311E+04</totfact>
</mgrwt>
</event>
<event>
 5    1  0.3957498E+001  0.9257847E+02  0.7546771E-02  0.1296725E+00
          2   -1    0    0  501    0  0.00000000000E+00  0.00000000000E+00  0.26040591659E+03  0.26040591659E+03  0.00000000000E+00 0. -1.
         -2   -1    0    0    0  501 -0.00000000000E+00 -0.00000000000E+00 -0.82282817648E+01  0.82282817648E+01  0.00000000000E+00 0.  1.
         23    2    1    2    0    0  0.00000000000E+00  0.00000000000E+00  0.25217763483E+03  0.26863419836E+03  0.92578469526E+02 0.  0.
          2    1    3    3  502    0  0.10563876342E+02  0.40702499983E+02  0.18223518922E+03  0.18702393745E+03  0.00000000000E+00 0. -1.
         -2    1    3    3    0  502 -0.10563876342E+02 -0.40702499983E+02  0.69942445605E+02  0.81610260908E+02  0.00000000000E+00 0.  1.
<mgrwt>
<rscale>  0 0.92578470E+02</rscale>
<asrwt>0</asrwt>
<pdfrwt beam="1">  1        2 0.40062442E-01 0.92578470E+02</pdfrwt>
<pdfrwt beam="2">  1       -2 0.12658897E-02 0.92578470E+02</pdfrwt>
<totfact> 0.16359413E+05</totfact>
</mgrwt>
</event>
<event>
 5    1  0.3957498E+001  0.9091091E+02  0.7546771E-02  0.1300661E+00
          1   -1    0    0  501    0  0.00000000000E+00  0.00000000000E+00  0.11120707970E+04  0.11120707970E+04  0.00000000000E+00 0. -1.
         -1   -1    0    0    0  501 -0.00000000000E+00 -0.00000000000E+00 -0.18579738588E+01  0.18579738588E+01  0.00000000000E+00 0.  1.
         23    2    1    2    0    0  0.00000000000E+00  0.00000000000E+00  0.11102128232E+04  0.11139287709E+04  0.90910911776E+02 0.  0.
          2    1    3    3  502    0 -0.27494828772E+02  0.36044893392E+02  0.59574218730E+03  0.59746460454E+03  0.00000000000E+00 0. -1.
         -2    1    3    3    0  502  0.27494828772E+02 -0.36044893392E+02  0.51447063587E+03  0.51646416634E+03  0.00000000000E+00 0.  1.
<mgrwt>
<rscale>  0 0.90910912E+02</rscale>
<asrwt>0</asrwt>
<pdfrwt beam="1">  1        1 0.17108728E+00 0.90910912E+02</pdfrwt>
<pdfrwt beam="2">  1       -1 0.28584302E-03 0.90910912E+02</pdfrwt>
<totfact> 0.13248594E+05</totfact>
</mgrwt>
</event>
<event>
 5    1  0.3957498E+001  0.9283607E+02  0.7546771E-02  0.1296126E+00
         -1   -1    0    0    0  501 -0.00000000000E+00  0.00000000000E+00  0.58142668245E+02  0.58142668245E+02  0.00000000000E+00 0.  1.
          1   -1    0    0  501    0  0.00000000000E+00 -0.00000000000E+00 -0.37057706064E+02  0.37057706064E+02  0.00000000000E+00 0. -1.
         23    2    1    2    0    0  0.00000000000E+00  0.00000000000E+00  0.21084962182E+02  0.95200374309E+02  0.92836068628E+02 0.  0.
          2    1    3    3  502    0  0.38738547490E+02  0.20758966024E+02  0.25856807109E+02  0.50992001391E+02  0.00000000000E+00 0.  1.
         -2    1    3    3    0  502 -0.38738547490E+02 -0.20758966024E+02 -0.47718449275E+01  0.44208372918E+02  0.00000000000E+00 0. -1.
<mgrwt>
<rscale>  0 0.92836069E+02</rscale>
<asrwt>0</asrwt>
<pdfrwt beam="2">  1        1 0.57011856E-02 0.92836069E+02</pdfrwt>
<pdfrwt beam="1">  1       -1 0.89450259E-02 0.92836069E+02</pdfrwt>
<totfact> 0.85132300E+04</totfact>
</mgrwt>
</event>
<event>
 5    1  0.3957498E+001  0.9057861E+02  0.7546771E-02  0.1301457E+00
         -3   -1    0    0    0  501 -0.00000000000E+00  0.00000000000E+00  0.69266691877E+02  0.69266691877E+02  0.00000000000E+00 0.  1.
          3   -1    0    0  501    0  0.00000000000E+00 -0.00000000000E+00 -0.29611943211E+02  0.29611943211E+02  0.00000000000E+00 0. -1.
         23    2    1    2    0    0  0.00000000000E+00  0.00000000000E+00  0.39654748666E+02  0.98878635088E+02  0.90578614392E+02 0.  0.
          2    1    3    3  502    0  0.43373250979E+02  0.88678457972E+01  0.30254830405E+02  0.53621193127E+02  0.00000000000E+00 0. -1.
         -2    1    3    3    0  502 -0.43373250979E+02 -0.88678457972E+01  0.93999182612E+01  0.45257441961E+02  0.00000000000E+00 0.  1.
<mgrwt>
<rscale>  0 0.90578614E+02</rscale>
<asrwt>0</asrwt>
<pdfrwt beam="2">  1        3 0.45556836E-02 0.90578614E+02</pdfrwt>
<pdfrwt beam="1">  1       -3 0.10656414E-01 0.90578614E+02</pdfrwt>
<totfact> 0.35383259E+04</totfact>
</mgrwt>
</event>
<event>
 5    1  0.3957498E+001  0.9624464E+02  0.7546771E-02  0.1288397E+00
         -1   -1    0    0    0  501 -0.00000000000E+00  0.00000000000E+00  0.15942403675E+01  0.15942403675E+01  0.00000000000E+00 0.  1.
          1   -1    0    0  501    0  0.00000000000E+00 -0.00000000000E+00 -0.14525776031E+04  0.14525776031E+04  0.00000000000E+00 0. -1.
         23    2    1    2    0    0  0.00000000000E+00  0.00000000000E+00 -0.14509833627E+04  0.14541718435E+04  0.96244643524E+02 0.  0.
          2    1    3    3  502    0 -0.10478364547E+02 -0.31114006644E+02 -0.12570837493E+04  0.12575123977E+04  0.00000000000E+00 0. -1.
         -2    1    3    3    0  502  0.10478364547E+02  0.31114006644E+02 -0.19389961341E+03  0.19665944578E+03  0.00000000000E+00 0.  1.
<mgrwt>
<rscale>  0 0.96244644E+02</rscale>
<asrwt>0</asrwt>
<pdfrwt beam="2">  1        1 0.22347395E+00 0.96244644E+02</pdfrwt>
<pdfrwt beam="1">  1       -1 0.24526723E-03 0.96244644E+02</pdfrwt>
<totfact> 0.98192770E+04</totfact>
</mgrwt>
</event>
<event>
 5    1  0.3957498E+001  0.9565751E+02  0.7546771E-02  0.1289702E+00
          1   -1    0    0  501    0  0.00000000000E+00  0.00000000000E+00  0.65118237630E+03  0.65118237630E+03  0.00000000000E+00 0. -1.
         -1   -1    0    0    0  501 -0.00000000000E+00 -0.00000000000E+00 -0.35129783587E+01  0.35129783587E+01  0.00000000000E+00 0.  1.
         23    2    1    2    0    0  0.00000000000E+00  0.00000000000E+00  0.64766939794E+03  0.65469535466E+03  0.95657505624E+02 0.  0.
          2    1    3    3  502    0 -0.16661203979E+02  0.27911672463E+02  0.56395966264E+03  0.56489570565E+03  0.00000000000E+00 0. -1.
         -2    1    3    3    0  502  0.16661203979E+02 -0.27911672463E+02  0.83709735301E+02  0.89799649007E+02  0.00000000000E+00 0.  1.
<mgrwt>
<rscale>  0 0.95657506E+02</rscale>
<asrwt>0</asrwt>
<pdfrwt beam="1">  1        1 0.10018181E+00 0.95657506E+02</pdfrwt>
<pdfrwt beam="2">  1       -1 0.54045873E-03 0.95657506E+02</pdfrwt>
<totfact> 0.12511244E+05</totfact>
</mgrwt>
</event>
<event>
 5    1  0.3957498E+001  0.9097245E+02  0.7546771E-02  0.1300514E+00
          2   -1    0    0  501    0  0.00000000000E+00  0.00000000000E+00  0.65937466607E+01  0.65937466607E+01  0.00000000000E+00 0. -1.
         -2   -1    0    0    0  501 -0.00000000000E+00 -0.00000000000E+00 -0.31378162014E+03  0.31378162014E+03  0.00000000000E+00 0.  1.
         23    2    1    2    0    0  0.00000000000E+00  0.00000000000E+00 -0.30718787348E+03  0.32037536680E+03  0.90972446597E+02 0.  0.
          2    1    3    3  502    0 -0.88089273491E+00  0.22123261140E+02 -0.13664107278E+02  0.26017734013E+02  0.00000000000E+00 0. -1.
         -2    1    3    3    0  502  0.88089273491E+00 -0.22123261140E+02 -0.29352376620E+03  0.29435763278E+03  0.00000000000E+00 0.  1.
<mgrwt>
<rscale>  0 0.90972447E+02</rscale>
<asrwt>0</asrwt>
<pdfrwt beam="1">  1        2 0.10144228E-02 0.90972447E+02</pdfrwt>
<pdfrwt beam="2">  1       -2 0.48274084E-01 0.90972447E+02</pdfrwt>
<totfact> 0.49999142E+04</totfact>
</mgrwt>
</event>
<event>
 5    1  0.3957498E+001  0.9135117E+02  0.7546771E-02  0.1299612E+00
          1   -1    0    0  501    0  0.00000000000E+00  0.00000000000E+00  0.15779857523E+04  0.15779857523E+04  0.00000000000E+00 0. -1.
         -1   -1    0    0    0  501 -0.00000000000E+00 -0.00000000000E+00 -0.13221025148E+01  0.13221025148E+01  0.00000000000E+00 0.  1.
         23    2    1    2    0    0  0.00000000000E+00  0.00000000000E+00  0.15766636498E+04  0.15793078548E+04  0.91351167072E+02 0.  0.
          2    1    3    3  502    0 -0.39740206858E+02  0.11519375312E+02  0.45386707166E+03  0.45574916214E+03  0.00000000000E+00 0.  1.
         -2    1    3    3    0  502  0.39740206858E+02 -0.11519375312E+02  0.11227965781E+04  0.11235586927E+04  0.00000000000E+00 0. -1.
<mgrwt>
<rscale>  0 0.91351167E+02</rscale>
<asrwt>0</asrwt>
<pdfrwt beam="1">  1        1 0.24276553E+00 0.91351167E+02</pdfrwt>
<pdfrwt beam="2">  1       -1 0.20340165E-03 0.91351167E+02</pdfrwt>
<totfact> 0.10522483E+05</totfact>
</mgrwt>
</event>
<event>
 5    1  0.3957498E+001  0.9330092E+02  0.7546771E-02  0.1295049E+00
         -3   -1    0    0    0  501 -0.00000000000E+00  0.00000000000E+00  0.41919629454E+03  0.41919629454E+03  0.00000000000E+00 0.  1.
          3   -1    0    0  501    0  0.00000000000E+00 -0.00000000000E+00 -0.51915191219E+01  0.51915191219E+01  0.00000000000E+00 0. -1.
         23    2    1    2    0    0  0.00000000000E+00  0.00000000000E+00  0.41400477542E+03  0.42438781367E+03  0.93300923446E+02 0.  0.
          2    1    3    3  502    0  0.84418789706E+01  0.40779511242E+02  0.11137029035E+03  0.11890153670E+03  0.00000000000E+00 0. -1.
         -2    1    3    3    0  502 -0.84418789706E+01 -0.40779511242E+02  0.30263448507E+03  0.30548627696E+03  0.00000000000E+00 0.  1.
<mgrwt>
<rscale>  0 0.93300923E+02</rscale>
<asrwt>0</asrwt>
<pdfrwt beam="2">  1        3 0.79869558E-03 0.93300923E+02</pdfrwt>
<pdfrwt beam="1">  1       -3 0.64491711E-01 0.93300923E+02</pdfrwt>
<totfact> 0.18692967E+04</totfact>
</mgrwt>
</event>
<event>
 5    1  0.3957498E+001  0.9202393E+02  0.7546771E-02  0.1298023E+00
          2   -1    0    0  501    0  0.00000000000E+00  0.00000000000E+00  0.25246015820E+02  0.25246015820E+02  0.00000000000E+00 0. -1.
         -2   -1    0    0    0  501 -0.00000000000E+00 -0.00000000000E+00 -0.83858812440E+02  0.83858812440E+02  0.00000000000E+00 0.  1.
         23    2    1    2    0    0  0.00000000000E+00  0.00000000000E+00 -0.58612796620E+02  0.10910482826E+03  0.92023929616E+02 0.  0.
          2    1    3    3  502    0 -0.15010936025E+02 -0.19030579870E+02  0.17063219343E+02  0.29641940302E+02  0.00000000000E+00 0. -1.
         -2    1    3    3    0  502  0.15010936025E+02  0.19030579870E+02 -0.75676015963E+02  0.79462887958E+02  0.00000000000E+00 0.  1.
<mgrwt>
<rscale>  0 0.92023930E+02</rscale>
<asrwt>0</asrwt>
<pdfrwt beam="1">  1        2 0.38840024E-02 0.92023930E+02</pdfrwt>
<pdfrwt beam="2">  1       -2 0.12901356E-01 0.92023930E+02</pdfrwt>
<totfact> 0.82078136E+04</totfact>
</mgrwt>
</event>
<event>
 5    1  0.3957498E+001  0.8968778E+02  0.7546771E-02  0.1303610E+00
         -2   -1    0    0    0  501 -0.00000000000E+00  0.00000000000E+00  0.10671280188E+02  0.10671280188E+02  0.00000000000E+00 0.  1.
          2   -1    0    0  501    0  0.00000000000E+00 -0.00000000000E+00 -0.18844736482E+03  0.18844736482E+03  0.00000000000E+00 0. -1.
         23    2    1    2    0    0  0.00000000000E+00  0.00000000000E+00 -0.17777608463E+03  0.19911864501E+03  0.89687783575E+02 0.  0.
          2    1    3    3  502    0  0.37949023476E+02  0.14456392992E+02 -0.46655395962E+02  0.61853388375E+02  0.00000000000E+00 0. -1.
         -2    1    3    3    0  502 -0.37949023476E+02 -0.14456392992E+02 -0.13112068867E+03  0.13726525663E+03  0.00000000000E+00 0.  1.
<mgrwt>
<rscale>  0 0.89687784E+02</rscale>
<asrwt>0</asrwt>
<pdfrwt beam="2">  1        2 0.28991904E-01 0.89687784E+02</pdfrwt>
<pdfrwt beam="1">  1       -2 0.16417353E-02 0.89687784E+02</pdfrwt>
<totfact> 0.15826494E+05</totfact>
</mgrwt>
</event>
<event>
 5    1  0.3957498E+001  0.8932865E+02  0.7546771E-02  0.1304486E+00
         -1   -1    0    0    0  501 -0.00000000000E+00  0.00000000000E+00  0.56521715065E+01  0.56521715065E+01  0.00000000000E+00 0.  1.
          1   -1    0    0  501    0  0.00000000000E+00 -0.00000000000E+00 -0.35294431793E+03  0.35294431793E+03  0.00000000000E+00 0. -1.
         23    2    1    2    0    0  0.00000000000E+00  0.00000000000E+00 -0.34729214642E+03  0.35859648944E+03  0.89328647526E+02 0.  0.
          2    1    3    3  502    0 -0.35848535168E+02 -0.10970297070E+01 -0.66787348611E+02  0.75808118842E+02  0.00000000000E+00 0.  1.
         -2    1    3    3    0  502  0.35848535168E+02  0.10970297070E+01 -0.28050479781E+03  0.28278837060E+03  0.00000000000E+00 0. -1.
<mgrwt>
<rscale>  0 0.89328648E+02</rscale>
<asrwt>0</asrwt>
<pdfrwt beam="2">  1        1 0.54299123E-01 0.89328648E+02</pdfrwt>
<pdfrwt beam="1">  1       -1 0.86956489E-03 0.89328648E+02</pdfrwt>
<totfact> 0.13940643E+05</totfact>
</mgrwt>
</event>
<event>
 5    1  0.3957498E+001  0.9276958E+02  0.7546771E-02  0.1296280E+00
         -1   -1    0    0    0  501 -0.00000000000E+00  0.00000000000E+00  0.86032590649E+01  0.86032590649E+01  0.00000000000E+00 0.  1.
          1   -1    0    0  501    0  0.00000000000E+00 -0.00000000000E+00 -0.25008533136E+03  0.25008533136E+03  0.00000000000E+00 0. -1.
         23    2    1    2    0    0  0.00000000000E+00  0.00000000000E+00 -0.24148207229E+03  0.25868859042E+03  0.92769583248E+02 0.  0.
          2    1    3    3  502    0 -0.75909927282E+01 -0.25979134393E+02 -0.15698682896E+02  0.31288771773E+02  0.00000000000E+00 0.  1.
         -2    1    3    3    0  502  0.75909927282E+01  0.25979134393E+02 -0.22578338940E+03  0.22739981865E+03  0.00000000000E+00 0. -1.
<mgrwt>
<rscale>  0 0.92769583E+02</rscale>
<asrwt>0</asrwt>
<pdfrwt beam="2">  1        1 0.38474668E-01 0.92769583E+02</pdfrwt>
<pdfrwt beam="1">  1       -1 0.13235783E-02 0.92769583E+02</pdfrwt>
<totfact> 0.11807792E+05</totfact>
</mgrwt>
</event>
<event>
 5    1  0.3957498E+001  0.8635718E+02  0.7546771E-02  0.1311921E+00
          1   -1    0    0  501    0  0.00000000000E+00  0.00000000000E+00  0.18616515367E+04  0.18616515367E+04  0.00000000000E+00 0. -1.
         -1   -1    0    0    0  501 -0.00000000000E+00 -0.00000000000E+00 -0.10014713371E+01  0.10014713371E+01  0.00000000000E+00 0.  1.
         23    2    1    2    0    0  0.00000000000E+00  0.00000000000E+00  0.18606500654E+04  0.18626530081E+04  0.86357180447E+02 0.  0.
          2    1    3    3  502    0  0.28197450068E+02  0.32569804944E+02  0.86743223260E+03  0.86850133364E+03  0.00000000000E+00 0. -1.
         -2    1    3    3    0  502 -0.28197450068E+02 -0.32569804944E+02  0.99321783280E+03  0.99415167443E+03  0.00000000000E+00 0.  1.
<mgrwt>
<rscale>  0 0.86357180E+02</rscale>
<asrwt>0</asrwt>
<pdfrwt beam="1">  1        1 0.28640516E+00 0.86357180E+02</pdfrwt>
<pdfrwt beam="2">  1       -1 0.15407400E-03 0.86357180E+02</pdfrwt>
<totfact> 0.10180565E+05</totfact>
</mgrwt>
</event>
<event>
 5    1  0.3957498E+001  0.9087489E+02  0.7546771E-02  0.1300747E+00
          1   -1    0    0  501    0  0.00000000000E+00  0.00000000000E+00  0.70254965764E+03  0.70254965764E+03  0.00000000000E+00 0.  1.
         -1   -1    0    0    0  501 -0.00000000000E+00 -0.00000000000E+00 -0.29386694548E+01  0.29386694548E+01  0.00000000000E+00 0. -1.
         23    2    1    2    0    0  0.00000000000E+00  0.00000000000E+00  0.69961098818E+03  0.70548832709E+03  0.90874885846E+02 0.  0.
          2    1    3    3  502    0 -0.97640955323E+01  0.26790873331E+02  0.75170006196E+02  0.80396631067E+02  0.00000000000E+00 0. -1.
         -2    1    3    3    0  502  0.97640955323E+01 -0.26790873331E+02  0.62444098199E+03  0.62509169602E+03  0.00000000000E+00 0.  1.
<mgrwt>
<rscale>  0 0.90874886E+02</rscale>
<asrwt>0</asrwt>
<pdfrwt beam="1">  1        1 0.10808443E+00 0.90874886E+02</pdfrwt>
<pdfrwt beam="2">  1       -1 0.45210355E-03 0.90874886E+02</pdfrwt>
<totfact> 0.14342262E+05</totfact>
</mgrwt>
</event>
<event>
 5    1  0.3957498E+001  0.8921096E+02  0.7546771E-02  0.1304774E+00
         -1   -1    0    0    0  501 -0.00000000000E+00  0.00000000000E+00  0.51465545820E+01  0.51465545820E+01  0.00000000000E+00 0.  1.
          1   -1    0    0  501    0  0.00000000000E+00 -0.00000000000E+00 -0.38659819760E+03  0.38659819760E+03  0.00000000000E+00 0. -1.
         23    2    1    2    0    0  0.00000000000E+00  0.00000000000E+00 -0.38145164302E+03  0.39174475219E+03  0.89210957293E+02 0.  0.
          2    1    3    3  502    0 -0.40463795210E+02 -0.17595705372E+02 -0.16202419689E+03  0.16792488782E+03  0.00000000000E+00 0. -1.
         -2    1    3    3    0  502  0.40463795210E+02  0.17595705372E+02 -0.21942744613E+03  0.22381986437E+03  0.00000000000E+00 0.  1.
<mgrwt>
<rscale>  0 0.89210957E+02</rscale>
<asrwt>0</asrwt>
<pdfrwt beam="2">  1        1 0.59476641E-01 0.89210957E+02</pdfrwt>
<pdfrwt beam="1">  1       -1 0.79177770E-03 0.89210957E+02</pdfrwt>
<totfact> 0.14211211E+05</totfact>
</mgrwt>
</event>
<event>
 5    1  0.3957498E+001  0.9087140E+02  0.7546771E-02  0.1300755E+00
         -1   -1    0    0    0  501 -0.00000000000E+00  0.00000000000E+00  0.33016196692E+02  0.33016196692E+02  0.00000000000E+00 0.  1.
          1   -1    0    0  501    0  0.00000000000E+00 -0.00000000000E+00 -0.62526973905E+02  0.62526973905E+02  0.00000000000E+00 0. -1.
         23    2    1    2    0    0  0.00000000000E+00  0.00000000000E+00 -0.29510777213E+02  0.95543170597E+02  0.90871400759E+02 0.  0.
          2    1    3    3  502    0  0.49431325563E+01 -0.34298790451E+02 -0.45652580352E+02  0.57314916720E+02  0.00000000000E+00 0. -1.
         -2    1    3    3    0  502 -0.49431325563E+01  0.34298790451E+02  0.16141803138E+02  0.38228253877E+02  0.00000000000E+00 0.  1.
<mgrwt>
<rscale>  0 0.90871401E+02</rscale>
<asrwt>0</asrwt>
<pdfrwt beam="2">  1        1 0.96195343E-02 0.90871401E+02</pdfrwt>
<pdfrwt beam="1">  1       -1 0.50794149E-02 0.90871401E+02</pdfrwt>
<totfact> 0.97881233E+04</totfact>
</mgrwt>
</event>
<event>
 5    1  0.3957498E+001  0.9018127E+02  0.7546771E-02  0.1302413E+00
         -2   -1    0    0    0  501 -0.00000000000E+00  0.00000000000E+00  0.49552355870E+02  0.49552355870E+02  0.00000000000E+00 0.  1.
          2   -1    0    0  501    0  0.00000000000E+00 -0.00000000000E+00 -0.41030654325E+02  0.41030654325E+02  0.00000000000E+00 0. -1.
         23    2    1    2    0    0  0.00000000000E+00  0.00000000000E+00  0.85217015451E+01  0.90583010196E+02  0.90181274879E+02 0.  0.
          2    1    3    3  502    0  0.37209675148E+02 -0.24136969093E+02  0.12421845247E+02  0.46059260100E+02  0.00000000000E+00 0. -1.
         -2    1    3    3    0  502 -0.37209675148E+02  0.24136969093E+02 -0.39001437017E+01  0.44523750095E+02  0.00000000000E+00 0.  1.
<mgrwt>
<rscale>  0 0.90181275E+02</rscale>
<asrwt>0</asrwt>
<pdfrwt beam="2">  1        2 0.63124084E-02 0.90181275E+02</pdfrwt>
<pdfrwt beam="1">  1       -2 0.76234393E-02 0.90181275E+02</pdfrwt>
<totfact> 0.99109456E+04</totfact>
</mgrwt>
</event>
<event>
 5    1  0.3957498E+001  0.9126218E+02  0.7546771E-02  0.1299824E+00
          1   -1    0    0  501    0  0.00000000000E+00  0.00000000000E+00  0.51386155265E+02  0.51386155265E+02  0.00000000000E+00 0. -1.
         -1   -1    0    0    0  501 -0.00000000000E+00 -0.00000000000E+00 -0.40520571546E+02  0.40520571546E+02  0.00000000000E+00 0.  1.
         23    2    1    2    0    0  0.00000000000E+00  0.00000000000E+00  0.10865583719E+02  0.91906726810E+02  0.91262180137E+02 0.  0.
          2    1    3    3  502    0  0.14186212668E+02 -0.39794063784E+02  0.22799300340E+02  0.48006502042E+02  0.00000000000E+00 0. -1.
         -2    1    3    3    0  502 -0.14186212668E+02  0.39794063784E+02 -0.11933716621E+02  0.43900224768E+02  0.00000000000E+00 0.  1.
<mgrwt>
<rscale>  0 0.91262180E+02</rscale>
<asrwt>0</asrwt>
<pdfrwt beam="1">  1        1 0.79055624E-02 0.91262180E+02</pdfrwt>
<pdfrwt beam="2">  1       -1 0.62339341E-02 0.91262180E+02</pdfrwt>
<totfact> 0.93903703E+04</totfact>
</mgrwt>
</event>
<event>
 5    1  0.3957498E+001  0.9180809E+02  0.7546771E-02  0.1298531E+00
         -2   -1    0    0    0  501 -0.00000000000E+00  0.00000000000E+00  0.22946537138E+01  0.22946537138E+01  0.00000000000E+00 0. -1.
          2   -1    0    0  501    0  0.00000000000E+00 -0.00000000000E+00 -0.91830038204E+03  0.91830038204E+03  0.00000000000E+00 0.  1.
         23    2    1    2    0    0  0.00000000000E+00  0.00000000000E+00 -0.91600572833E+03  0.92059503576E+03  0.91808090755E+02 0.  0.
          2    1    3    3  502    0  0.33350088900E+02  0.62108853567E+01 -0.14790239121E+03  0.15174294334E+03  0.00000000000E+00 0. -1.
         -2    1    3    3    0  502 -0.33350088900E+02 -0.62108853567E+01 -0.76810333712E+03  0.76885209242E+03  0.00000000000E+00 0.  1.
<mgrwt>
<rscale>  0 0.91808091E+02</rscale>
<asrwt>0</asrwt>
<pdfrwt beam="2">  1        2 0.14127732E+00 0.91808091E+02</pdfrwt>
<pdfrwt beam="1">  1       -2 0.35302281E-03 0.91808091E+02</pdfrwt>
<totfact> 0.24399687E+05</totfact>
</mgrwt>
</event>
<event>
 5    1  0.3957498E+001  0.9037953E+02  0.7546771E-02  0.1301935E+00
          1   -1    0    0  501    0  0.00000000000E+00  0.00000000000E+00  0.65699866449E+03  0.65699866449E+03  0.00000000000E+00 0. -1.
         -1   -1    0    0    0  501 -0.00000000000E+00 -0.00000000000E+00 -0.31082479992E+01  0.31082479992E+01  0.00000000000E+00 0.  1.
         23    2    1    2    0    0  0.00000000000E+00  0.00000000000E+00  0.65389041649E+03  0.66010691249E+03  0.90379528310E+02 0.  0.
          2    1    3    3  502    0 -0.21134407163E+02 -0.30210919925E+02  0.51778796448E+03  0.51909896841E+03  0.00000000000E+00 0. -1.
         -2    1    3    3    0  502  0.21134407163E+02  0.30210919925E+02  0.13610245202E+03  0.14100794408E+03  0.00000000000E+00 0.  1.
<mgrwt>
<rscale>  0 0.90379528E+02</rscale>
<asrwt>0</asrwt>
<pdfrwt beam="1">  1        1 0.10107661E+00 0.90379528E+02</pdfrwt>
<pdfrwt beam="2">  1       -1 0.47819252E-03 0.90379528E+02</pdfrwt>
<totfact> 0.14545728E+05</totfact>
</mgrwt>
</event>
<event>
 5    1  0.3957498E+001  0.9026361E+02  0.7546771E-02  0.1302215E+00
         -1   -1    0    0    0  501 -0.00000000000E+00  0.00000000000E+00  0.86306425249E+02  0.86306425249E+02  0.00000000000E+00 0.  1.
          1   -1    0    0  501    0  0.00000000000E+00 -0.00000000000E+00 -0.23600557887E+02  0.23600557887E+02  0.00000000000E+00 0. -1.
         23    2    1    2    0    0  0.00000000000E+00  0.00000000000E+00  0.62705867362E+02  0.10990698314E+03  0.90263609170E+02 0.  0.
          2    1    3    3  502    0 -0.23493228202E+02 -0.13975530583E+02  0.75079521303E+02  0.79901074746E+02  0.00000000000E+00 0.  1.
         -2    1    3    3    0  502  0.23493228202E+02  0.13975530583E+02 -0.12373653941E+02  0.30005908390E+02  0.00000000000E+00 0. -1.
<mgrwt>
<rscale>  0 0.90263609E+02</rscale>
<asrwt>0</asrwt>
<pdfrwt beam="2">  1        1 0.36308551E-02 0.90263609E+02</pdfrwt>
<pdfrwt beam="1">  1       -1 0.13277911E-01 0.90263609E+02</pdfrwt>
<totfact> 0.85739453E+04</totfact>
</mgrwt>
</event>
<event>
 5    1  0.3957498E+001  0.8955511E+02  0.7546771E-02  0.1303933E+00
          2   -1    0    0  501    0  0.00000000000E+00  0.00000000000E+00  0.37517414808E+03  0.37517414808E+03  0.00000000000E+00 0. -1.
         -2   -1    0    0    0  501 -0.00000000000E+00 -0.00000000000E+00 -0.53442638456E+01  0.53442638456E+01  0.00000000000E+00 0.  1.
         23    2    1    2    0    0  0.00000000000E+00  0.00000000000E+00  0.36982988423E+03  0.38051841193E+03  0.89555114547E+02 0.  0.
          2    1    3    3  502    0 -0.27457837028E+02 -0.26874794087E+02  0.87202839280E+02  0.95291775878E+02  0.00000000000E+00 0.  1.
         -2    1    3    3    0  502  0.27457837028E+02  0.26874794087E+02  0.28262704495E+03  0.28522663605E+03  0.00000000000E+00 0. -1.
<mgrwt>
<rscale>  0 0.89555115E+02</rscale>
<asrwt>0</asrwt>
<pdfrwt beam="1">  1        2 0.57719079E-01 0.89555115E+02</pdfrwt>
<pdfrwt beam="2">  1       -2 0.82219473E-03 0.89555115E+02</pdfrwt>
<totfact> 0.20458095E+05</totfact>
</mgrwt>
</event>
<event>
 5    1  0.3957498E+001  0.8974313E+02  0.7546771E-02  0.1303475E+00
          1   -1    0    0  501    0  0.00000000000E+00  0.00000000000E+00  0.20809206940E+03  0.20809206940E+03  0.00000000000E+00 0. -1.
         -1   -1    0    0    0  501 -0.00000000000E+00 -0.00000000000E+00 -0.96758005422E+01  0.96758005422E+01  0.00000000000E+00 0.  1.
         23    2    1    2    0    0  0.00000000000E+00  0.00000000000E+00  0.19841626885E+03  0.21776786994E+03  0.89743130275E+02 0.  0.
          2    1    3    3  502    0 -0.74899382679E+01  0.31449463212E+02  0.17471652064E+03  0.17768238657E+03  0.00000000000E+00 0. -1.
         -2    1    3    3    0  502  0.74899382679E+01 -0.31449463212E+02  0.23699748211E+02  0.40085483368E+02  0.00000000000E+00 0.  1.
<mgrwt>
<rscale>  0 0.89743130E+02</rscale>
<asrwt>0</asrwt>
<pdfrwt beam="1">  1        1 0.32014161E-01 0.89743130E+02</pdfrwt>
<pdfrwt beam="2">  1       -1 0.14885848E-02 0.89743130E+02</pdfrwt>
<totfact> 0.12449163E+05</totfact>
</mgrwt>
</event>
<event>
 5    1  0.3957498E+001  0.9095985E+02  0.7546771E-02  0.1300544E+00
          1   -1    0    0  501    0  0.00000000000E+00  0.00000000000E+00  0.13792464064E+03  0.13792464064E+03  0.00000000000E+00 0. -1.
         -1   -1    0    0    0  501 -0.00000000000E+00 -0.00000000000E+00 -0.14996766212E+02  0.14996766212E+02  0.00000000000E+00 0.  1.
         23    2    1    2    0    0  0.00000000000E+00  0.00000000000E+00  0.12292787442E+03  0.15292140685E+03  0.90959850275E+02 0.  0.
          2    1    3    3  502    0 -0.45044162476E+02 -0.57461429499E+01  0.57201230220E+02  0.73034070616E+02  0.00000000000E+00 0. -1.
         -2    1    3    3    0  502  0.45044162476E+02  0.57461429499E+01  0.65726644204E+02  0.79887336232E+02  0.00000000000E+00 0.  1.
<mgrwt>
<rscale>  0 0.90959850E+02</rscale>
<asrwt>0</asrwt>
<pdfrwt beam="1">  1        1 0.21219175E-01 0.90959850E+02</pdfrwt>
<pdfrwt beam="2">  1       -1 0.23071949E-02 0.90959850E+02</pdfrwt>
<totfact> 0.11114519E+05</totfact>
</mgrwt>
</event>
<event>
 5    1  0.3957498E+001  0.9114225E+02  0.7546771E-02  0.1300109E+00
          3   -1    0    0  501    0  0.00000000000E+00  0.00000000000E+00  0.55012379107E+02  0.55012379107E+02  0.00000000000E+00 0. -1.
         -3   -1    0    0    0  501 -0.00000000000E+00 -0.00000000000E+00 -0.37750182093E+02  0.37750182093E+02  0.00000000000E+00 0.  1.
         23    2    1    2    0    0  0.00000000000E+00  0.00000000000E+00  0.17262197014E+02  0.92762561199E+02  0.91142247693E+02 0.  0.
          2    1    3    3  502    0  0.32458626778E+02  0.37802087123E+01  0.40958563846E+02  0.52397102807E+02  0.00000000000E+00 0. -1.
         -2    1    3    3    0  502 -0.32458626778E+02 -0.37802087123E+01 -0.23696366832E+02  0.40365458393E+02  0.00000000000E+00 0.  1.
<mgrwt>
<rscale>  0 0.91142248E+02</rscale>
<asrwt>0</asrwt>
<pdfrwt beam="1">  1        3 0.84634430E-02 0.91142248E+02</pdfrwt>
<pdfrwt beam="2">  1       -3 0.58077203E-02 0.91142248E+02</pdfrwt>
<totfact> 0.35253675E+04</totfact>
</mgrwt>
</event>
<event>
 5    1  0.3957498E+001  0.9741797E+02  0.7546771E-02  0.1285821E+00
         -2   -1    0    0    0  501 -0.00000000000E+00  0.00000000000E+00  0.18495147623E+01  0.18495147623E+01  0.00000000000E+00 0.  1.
          2   -1    0    0  501    0  0.00000000000E+00 -0.00000000000E+00 -0.12828040497E+04  0.12828040497E+04  0.00000000000E+00 0. -1.
         23    2    1    2    0    0  0.00000000000E+00  0.00000000000E+00 -0.12809545350E+04  0.12846535645E+04  0.97417966046E+02 0.  0.
          2    1    3    3  502    0 -0.23242060165E+02 -0.28250675801E+02 -0.10645732308E+04  0.10652016043E+04  0.00000000000E+00 0. -1.
         -2    1    3    3    0  502  0.23242060165E+02  0.28250675801E+02 -0.21638130420E+03  0.21945196024E+03  0.00000000000E+00 0.  1.
<mgrwt>
<rscale>  0 0.97417966E+02</rscale>
<asrwt>0</asrwt>
<pdfrwt beam="2">  1        2 0.19735506E+00 0.97417966E+02</pdfrwt>
<pdfrwt beam="1">  1       -2 0.28453988E-03 0.97417966E+02</pdfrwt>
<totfact> 0.20678683E+05</totfact>
</mgrwt>
</event>
<event>
 5    1  0.3957498E+001  0.9117581E+02  0.7546771E-02  0.1300029E+00
          2   -1    0    0  501    0  0.00000000000E+00  0.00000000000E+00  0.11792965938E+03  0.11792965938E+03  0.00000000000E+00 0. -1.
         -2   -1    0    0    0  501 -0.00000000000E+00 -0.00000000000E+00 -0.17622851788E+02  0.17622851788E+02  0.00000000000E+00 0.  1.
         23    2    1    2    0    0  0.00000000000E+00  0.00000000000E+00  0.10030680759E+03  0.13555251117E+03  0.91175806189E+02 0.  0.
          2    1    3    3  502    0 -0.32734756436E+01 -0.23810909024E+02  0.10774482606E+03  0.11039303680E+03  0.00000000000E+00 0. -1.
         -2    1    3    3    0  502  0.32734756436E+01  0.23810909024E+02 -0.74380184736E+01  0.25159474361E+02  0.00000000000E+00 0.  1.
<mgrwt>
<rscale>  0 0.91175806E+02</rscale>
<asrwt>0</asrwt>
<pdfrwt beam="1">  1        2 0.18143024E-01 0.91175806E+02</pdfrwt>
<pdfrwt beam="2">  1       -2 0.27112080E-02 0.91175806E+02</pdfrwt>
<totfact> 0.12914816E+05</totfact>
</mgrwt>
</event>
<event>
 4    1  0.3957498E+001  0.4992781E+02  0.7546771E-02  0.1445731E+00
          1   -1    0    0  501    0  0.00000000000E+00  0.00000000000E+00  0.65919668224E+01  0.65919668224E+01  0.00000000000E+00 0. -1.
         -1   -1    0    0    0  501 -0.00000000000E+00 -0.00000000000E+00 -0.94538779574E+02  0.94538779574E+02  0.00000000000E+00 0.  1.
          2    1    1    2  502    0  0.21252328411E+02 -0.11860535955E+02 -0.55226134617E+02  0.60351136864E+02  0.00000000000E+00 0. -1.
         -2    1    1    2    0  502 -0.21252328411E+02  0.11860535955E+02 -0.32720678135E+02  0.40779609533E+02  0.00000000000E+00 0.  1.
<mgrwt>
<rscale>  0 0.49927808E+02</rscale>
<asrwt>0</asrwt>
<pdfrwt beam="1">  1        1 0.10141488E-02 0.49927808E+02</pdfrwt>
<pdfrwt beam="2">  1       -1 0.14544427E-01 0.49927808E+02</pdfrwt>
<totfact> 0.37697048E+05</totfact>
</mgrwt>
</event>
<event>
 5    1  0.3957498E+001  0.9448137E+02  0.7546771E-02  0.1292348E+00
          2   -1    0    0  501    0  0.00000000000E+00  0.00000000000E+00  0.55424899444E+03  0.55424899444E+03  0.00000000000E+00 0. -1.
         -2   -1    0    0    0  501 -0.00000000000E+00 -0.00000000000E+00 -0.40264974632E+01  0.40264974632E+01  0.00000000000E+00 0.  1.
         23    2    1    2    0    0  0.00000000000E+00  0.00000000000E+00  0.55022249697E+03  0.55827549190E+03  0.94481366841E+02 0.  0.
          2    1    3    3  502    0 -0.41765957916E+02  0.22070745195E+02  0.27268116980E+03  0.27674272058E+03  0.00000000000E+00 0. -1.
         -2    1    3    3    0  502  0.41765957916E+02 -0.22070745195E+02  0.27754132718E+03  0.28153277132E+03  0.00000000000E+00 0.  1.
<mgrwt>
<rscale>  0 0.94481367E+02</rscale>
<asrwt>0</asrwt>
<pdfrwt beam="1">  1        2 0.85269015E-01 0.94481367E+02</pdfrwt>
<pdfrwt beam="2">  1       -2 0.61946159E-03 0.94481367E+02</pdfrwt>
<totfact> 0.20256265E+05</totfact>
</mgrwt>
</event>
<event>
 5    1  0.3957498E+001  0.9210240E+02  0.7546771E-02  0.1297839E+00
          2   -1    0    0  501    0  0.00000000000E+00  0.00000000000E+00  0.16604263610E+01  0.16604263610E+01  0.00000000000E+00 0. -1.
         -2   -1    0    0    0  501 -0.00000000000E+00 -0.00000000000E+00 -0.12772099175E+04  0.12772099175E+04  0.00000000000E+00 0.  1.
         23    2    1    2    0    0  0.00000000000E+00  0.00000000000E+00 -0.12755494911E+04  0.12788703438E+04  0.92102399870E+02 0.  0.
          2    1    3    3  502    0  0.21267533691E+02  0.40394074293E+02 -0.72191993774E+03  0.72336186362E+03  0.00000000000E+00 0. -1.
         -2    1    3    3    0  502 -0.21267533691E+02 -0.40394074293E+02 -0.55362955338E+03  0.55550848023E+03  0.00000000000E+00 0.  1.
<mgrwt>
<rscale>  0 0.92102400E+02</rscale>
<asrwt>0</asrwt>
<pdfrwt beam="1">  1        2 0.25545021E-03 0.92102400E+02</pdfrwt>
<pdfrwt beam="2">  1       -2 0.19649384E+00 0.92102400E+02</pdfrwt>
<totfact> 0.13269851E+04</totfact>
</mgrwt>
</event>
<event>
 5    1  0.3957498E+001  0.8122828E+02  0.7546771E-02  0.1325601E+00
          2   -1    0    0  501    0  0.00000000000E+00  0.00000000000E+00  0.32656822869E+02  0.32656822869E+02  0.00000000000E+00 0. -1.
         -2   -1    0    0    0  501 -0.00000000000E+00 -0.00000000000E+00 -0.50510374568E+02  0.50510374568E+02  0.00000000000E+00 0.  1.
         23    2    1    2    0    0  0.00000000000E+00  0.00000000000E+00 -0.17853551699E+02  0.83167197436E+02  0.81228279688E+02 0.  0.
          2    1    3    3  502    0  0.77798742595E+01 -0.39621252792E+02 -0.13405927822E+02  0.42545140934E+02  0.00000000000E+00 0. -1.
         -2    1    3    3    0  502 -0.77798742595E+01  0.39621252792E+02 -0.44476238772E+01  0.40622056502E+02  0.00000000000E+00 0.  1.
<mgrwt>
<rscale>  0 0.81228280E+02</rscale>
<asrwt>0</asrwt>
<pdfrwt beam="1">  1        2 0.50241266E-02 0.81228280E+02</pdfrwt>
<pdfrwt beam="2">  1       -2 0.77708269E-02 0.81228280E+02</pdfrwt>
<totfact> 0.12654635E+05</totfact>
</mgrwt>
</event>
<event>
 5    1  0.3957498E+001  0.8937734E+02  0.7546771E-02  0.1304367E+00
         -1   -1    0    0    0  501 -0.00000000000E+00  0.00000000000E+00  0.82422172480E+01  0.82422172480E+01  0.00000000000E+00 0.  1.
          1   -1    0    0  501    0  0.00000000000E+00 -0.00000000000E+00 -0.24229856686E+03  0.24229856686E+03  0.00000000000E+00 0. -1.
         23    2    1    2    0    0  0.00000000000E+00  0.00000000000E+00 -0.23405634961E+03  0.25054078410E+03  0.89377344488E+02 0.  0.
          2    1    3    3  502    0 -0.39443060732E+02  0.19899886547E+02 -0.13589857426E+03  0.14289920578E+03  0.00000000000E+00 0. -1.
         -2    1    3    3    0  502  0.39443060732E+02 -0.19899886547E+02 -0.98157775345E+02  0.10764157833E+03  0.00000000000E+00 0.  1.
<mgrwt>
<rscale>  0 0.89377344E+02</rscale>
<asrwt>0</asrwt>
<pdfrwt beam="2">  1        1 0.37276704E-01 0.89377344E+02</pdfrwt>
<pdfrwt beam="1">  1       -1 0.12680334E-02 0.89377344E+02</pdfrwt>
<totfact> 0.12963329E+05</totfact>
</mgrwt>
</event>
<event>
 5    1  0.3957498E+001  0.9323401E+02  0.7546771E-02  0.1295204E+00
         -1   -1    0    0    0  501 -0.00000000000E+00  0.00000000000E+00  0.20919693328E+02  0.20919693328E+02  0.00000000000E+00 0.  1.
          1   -1    0    0  501    0  0.00000000000E+00 -0.00000000000E+00 -0.10388035799E+03  0.10388035799E+03  0.00000000000E+00 0. -1.
         23    2    1    2    0    0  0.00000000000E+00  0.00000000000E+00 -0.82960664661E+02  0.12480005132E+03  0.93234011645E+02 0.  0.
          2    1    3    3  502    0  0.17464213605E+02  0.42091366386E+02 -0.54627177989E+02  0.71139373459E+02  0.00000000000E+00 0. -1.
         -2    1    3    3    0  502 -0.17464213605E+02 -0.42091366386E+02 -0.28333486672E+02  0.53660677857E+02  0.00000000000E+00 0.  1.
<mgrwt>
<rscale>  0 0.93234012E+02</rscale>
<asrwt>0</asrwt>
<pdfrwt beam="2">  1        1 0.15981594E-01 0.93234012E+02</pdfrwt>
<pdfrwt beam="1">  1       -1 0.32184143E-02 0.93234012E+02</pdfrwt>
<totfact> 0.98907532E+04</totfact>
</mgrwt>
</event>
<event>
 5    1  0.3957498E+001  0.9177132E+02  0.7546771E-02  0.1298618E+00
         -3   -1    0    0    0  501 -0.00000000000E+00  0.00000000000E+00  0.36592352192E+01  0.36592352192E+01  0.00000000000E+00 0.  1.
          3   -1    0    0  501    0  0.00000000000E+00 -0.00000000000E+00 -0.57539173996E+03  0.57539173996E+03  0.00000000000E+00 0. -1.
         23    2    1    2    0    0  0.00000000000E+00  0.00000000000E+00 -0.57173250474E+03  0.57905097518E+03  0.91771318389E+02 0.  0.
          2    1    3    3  502    0  0.23368857079E+02 -0.87112125942E+01 -0.52889314597E+03  0.52948082926E+03  0.00000000000E+00 0. -1.
         -2    1    3    3    0  502 -0.23368857079E+02  0.87112125942E+01 -0.42839358777E+02  0.49570145919E+02  0.00000000000E+00 0.  1.
<mgrwt>
<rscale>  0 0.91771318E+02</rscale>
<asrwt>0</asrwt>
<pdfrwt beam="2">  1        3 0.88521859E-01 0.91771318E+02</pdfrwt>
<pdfrwt beam="1">  1       -3 0.56295893E-03 0.91771318E+02</pdfrwt>
<totfact> 0.15871510E+04</totfact>
</mgrwt>
</event>
<event>
 5    1  0.3957498E+001  0.9200951E+02  0.7546771E-02  0.1298057E+00
         -2   -1    0    0    0  501 -0.00000000000E+00  0.00000000000E+00  0.47967531356E+02  0.47967531356E+02  0.00000000000E+00 0. -1.
          2   -1    0    0  501    0  0.00000000000E+00 -0.00000000000E+00 -0.44122296279E+02  0.44122296279E+02  0.00000000000E+00 0.  1.
         23    2    1    2    0    0  0.00000000000E+00  0.00000000000E+00  0.38452350772E+01  0.92089827635E+02  0.92009513209E+02 0.  0.
          2    1    3    3  502    0 -0.11813176042E+02  0.37803371095E+02  0.25347996507E+02  0.47023046704E+02  0.00000000000E+00 0. -1.
         -2    1    3    3    0  502  0.11813176042E+02 -0.37803371095E+02 -0.21502761430E+02  0.45066780931E+02  0.00000000000E+00 0.  1.
<mgrwt>
<rscale>  0 0.92009513E+02</rscale>
<asrwt>0</asrwt>
<pdfrwt beam="2">  1        2 0.67880456E-02 0.92009513E+02</pdfrwt>
<pdfrwt beam="1">  1       -2 0.73796202E-02 0.92009513E+02</pdfrwt>
<totfact> 0.95311655E+04</totfact>
</mgrwt>
</event>
<event>
 5    1  0.3957498E+001  0.8954715E+02  0.7546771E-02  0.1303952E+00
         -3   -1    0    0    0  501 -0.00000000000E+00  0.00000000000E+00  0.17199751696E+02  0.17199751696E+02  0.00000000000E+00 0.  1.
          3   -1    0    0  501    0  0.00000000000E+00 -0.00000000000E+00 -0.11655244085E+03  0.11655244085E+03  0.00000000000E+00 0. -1.
         23    2    1    2    0    0  0.00000000000E+00  0.00000000000E+00 -0.99352689154E+02  0.13375219255E+03  0.89547150533E+02 0.  0.
          2    1    3    3  502    0 -0.34613686195E+02  0.20657735597E+02 -0.20566479906E+02  0.45252949161E+02  0.00000000000E+00 0.  1.
         -2    1    3    3    0  502  0.34613686195E+02 -0.20657735597E+02 -0.78786209248E+02  0.88499243385E+02  0.00000000000E+00 0. -1.
<mgrwt>
<rscale>  0 0.89547151E+02</rscale>
<asrwt>0</asrwt>
<pdfrwt beam="2">  1        3 0.17931145E-01 0.89547151E+02</pdfrwt>
<pdfrwt beam="1">  1       -3 0.26461156E-02 0.89547151E+02</pdfrwt>
<totfact> 0.33947244E+04</totfact>
</mgrwt>
</event>
<event>
 5    1  0.3957498E+001  0.9197981E+02  0.7546771E-02  0.1298127E+00
         -1   -1    0    0    0  501 -0.00000000000E+00  0.00000000000E+00  0.65908354623E+02  0.65908354623E+02  0.00000000000E+00 0.  1.
          1   -1    0    0  501    0  0.00000000000E+00 -0.00000000000E+00 -0.32091096818E+02  0.32091096818E+02  0.00000000000E+00 0. -1.
         23    2    1    2    0    0  0.00000000000E+00  0.00000000000E+00  0.33817257804E+02  0.97999451441E+02  0.91979810596E+02 0.  0.
          2    1    3    3  502    0  0.19604329680E+02 -0.40752597711E+02  0.79965487221E+01  0.45924380822E+02  0.00000000000E+00 0. -1.
         -2    1    3    3    0  502 -0.19604329680E+02  0.40752597711E+02  0.25820709082E+02  0.52075070619E+02  0.00000000000E+00 0.  1.
<mgrwt>
<rscale>  0 0.91979811E+02</rscale>
<asrwt>0</asrwt>
<pdfrwt beam="2">  1        1 0.49370918E-02 0.91979811E+02</pdfrwt>
<pdfrwt beam="1">  1       -1 0.10139747E-01 0.91979811E+02</pdfrwt>
<totfact> 0.85449718E+04</totfact>
</mgrwt>
</event>
<event>
 5    1  0.3957498E+001  0.9197885E+02  0.7546771E-02  0.1298129E+00
         -1   -1    0    0    0  501 -0.00000000000E+00  0.00000000000E+00  0.50551278497E+01  0.50551278497E+01  0.00000000000E+00 0.  1.
          1   -1    0    0  501    0  0.00000000000E+00 -0.00000000000E+00 -0.41839242530E+03  0.41839242530E+03  0.00000000000E+00 0. -1.
         23    2    1    2    0    0  0.00000000000E+00  0.00000000000E+00 -0.41333729745E+03  0.42344755315E+03  0.91978849770E+02 0.  0.
          2    1    3    3  502    0 -0.23066607869E+02 -0.17035218626E+01 -0.38966734902E+03  0.39035319043E+03  0.00000000000E+00 0. -1.
         -2    1    3    3    0  502  0.23066607869E+02  0.17035218626E+01 -0.23669948435E+02  0.33094362726E+02  0.00000000000E+00 0.  1.
<mgrwt>
<rscale>  0 0.91978850E+02</rscale>
<asrwt>0</asrwt>
<pdfrwt beam="2">  1        1 0.64368059E-01 0.91978850E+02</pdfrwt>
<pdfrwt beam="1">  1       -1 0.77771206E-03 0.91978850E+02</pdfrwt>
<totfact> 0.13274200E+05</totfact>
</mgrwt>
</event>
<event>
 5    1  0.3957498E+001  0.9172034E+02  0.7546771E-02  0.1298738E+00
          1   -1    0    0  501    0  0.00000000000E+00  0.00000000000E+00  0.10482591876E+04  0.10482591876E+04  0.00000000000E+00 0. -1.
         -1   -1    0    0    0  501 -0.00000000000E+00 -0.00000000000E+00 -0.20063314553E+01  0.20063314553E+01  0.00000000000E+00 0.  1.
         23    2    1    2    0    0  0.00000000000E+00  0.00000000000E+00  0.10462528562E+04  0.10502655191E+04  0.91720344122E+02 0.  0.
          2    1    3    3  502    0  0.37573046398E+02  0.21195993983E+02  0.34493905366E+03  0.34762617094E+03  0.00000000000E+00 0. -1.
         -2    1    3    3    0  502 -0.37573046398E+02 -0.21195993983E+02  0.70131380251E+03  0.70263934815E+03  0.00000000000E+00 0.  1.
<mgrwt>
<rscale>  0 0.91720344E+02</rscale>
<asrwt>0</asrwt>
<pdfrwt beam="1">  1        1 0.16127021E+00 0.91720344E+02</pdfrwt>
<pdfrwt beam="2">  1       -1 0.30866721E-03 0.91720344E+02</pdfrwt>
<totfact> 0.13208182E+05</totfact>
</mgrwt>
</event>
<event>
 5    1  0.3957498E+001  0.9064302E+02  0.7546771E-02  0.1301302E+00
         -2   -1    0    0    0  501 -0.00000000000E+00  0.00000000000E+00  0.10155572406E+02  0.10155572406E+02  0.00000000000E+00 0. -1.
          2   -1    0    0  501    0  0.00000000000E+00 -0.00000000000E+00 -0.20225737749E+03  0.20225737749E+03  0.00000000000E+00 0.  1.
         23    2    1    2    0    0  0.00000000000E+00  0.00000000000E+00 -0.19210180508E+03  0.21241294989E+03  0.90643023819E+02 0.  0.
          2    1    3    3  502    0 -0.39465232175E+02  0.16984375049E+02 -0.62248540027E+02  0.75636329115E+02  0.00000000000E+00 0. -1.
         -2    1    3    3    0  502  0.39465232175E+02 -0.16984375049E+02 -0.12985326505E+03  0.13677662078E+03  0.00000000000E+00 0.  1.
<mgrwt>
<rscale>  0 0.90643024E+02</rscale>
<asrwt>0</asrwt>
<pdfrwt beam="2">  1        2 0.31116519E-01 0.90643024E+02</pdfrwt>
<pdfrwt beam="1">  1       -2 0.15623958E-02 0.90643024E+02</pdfrwt>
<totfact> 0.15778159E+05</totfact>
</mgrwt>
</event>
<event>
 5    1  0.3957498E+001  0.1078991E+03  0.7546771E-02  0.1264511E+00
          3   -1    0    0  501    0  0.00000000000E+00  0.00000000000E+00  0.26244757154E+01  0.26244757154E+01  0.00000000000E+00 0. -1.
         -3   -1    0    0    0  501 -0.00000000000E+00 -0.00000000000E+00 -0.11090035183E+04  0.11090035183E+04  0.00000000000E+00 0.  1.
         23    2    1    2    0    0  0.00000000000E+00  0.00000000000E+00 -0.11063790426E+04  0.11116279940E+04  0.10789907881E+03 0.  0.
          2    1    3    3  502    0 -0.30823622412E+02 -0.38936633851E+02 -0.33600611685E+03  0.33965610213E+03  0.00000000000E+00 0. -1.
         -2    1    3    3    0  502  0.30823622412E+02  0.38936633851E+02 -0.77037292570E+03  0.77197189185E+03  0.00000000000E+00 0.  1.
<mgrwt>
<rscale>  0 0.10789908E+03</rscale>
<asrwt>0</asrwt>
<pdfrwt beam="1">  1        3 0.40376578E-03 0.10789908E+03</pdfrwt>
<pdfrwt beam="2">  1       -3 0.17061581E+00 0.10789908E+03</pdfrwt>
<totfact> 0.56676529E+03</totfact>
</mgrwt>
</event>
<event>
 5    1  0.3957498E+001  0.9442120E+02  0.7546771E-02  0.1292485E+00
          2   -1    0    0  501    0  0.00000000000E+00  0.00000000000E+00  0.11847412527E+04  0.11847412527E+04  0.00000000000E+00 0. -1.
         -2   -1    0    0    0  501 -0.00000000000E+00 -0.00000000000E+00 -0.18812891774E+01  0.18812891774E+01  0.00000000000E+00 0.  1.
         23    2    1    2    0    0  0.00000000000E+00  0.00000000000E+00  0.11828599635E+04  0.11866225419E+04  0.94421203058E+02 0.  0.
          2    1    3    3  502    0  0.23057167405E+02 -0.66547771033E+01  0.11023691863E+04  0.11026303741E+04  0.00000000000E+00 0. -1.
         -2    1    3    3    0  502 -0.23057167405E+02  0.66547771033E+01  0.80490777262E+02  0.83992167797E+02  0.00000000000E+00 0.  1.
<mgrwt>
<rscale>  0 0.94421203E+02</rscale>
<asrwt>0</asrwt>
<pdfrwt beam="1">  1        2 0.18226729E+00 0.94421203E+02</pdfrwt>
<pdfrwt beam="2">  1       -2 0.28943005E-03 0.94421203E+02</pdfrwt>
<totfact> 0.22708196E+05</totfact>
</mgrwt>
</event>
<event>
 5    1  0.3957498E+001  0.9011551E+02  0.7546771E-02  0.1302572E+00
          1   -1    0    0  501    0  0.00000000000E+00  0.00000000000E+00  0.10933318310E+04  0.10933318310E+04  0.00000000000E+00 0. -1.
         -1   -1    0    0    0  501 -0.00000000000E+00 -0.00000000000E+00 -0.18568941059E+01  0.18568941059E+01  0.00000000000E+00 0.  1.
         23    2    1    2    0    0  0.00000000000E+00  0.00000000000E+00  0.10914749369E+04  0.10951887251E+04  0.90115513264E+02 0.  0.
          2    1    3    3  502    0 -0.26849567096E+02 -0.16485172385E+02  0.93720170686E+03  0.93773114458E+03  0.00000000000E+00 0. -1.
         -2    1    3    3    0  502  0.26849567096E+02  0.16485172385E+02  0.15427323001E+03  0.15745758051E+03  0.00000000000E+00 0.  1.
<mgrwt>
<rscale>  0 0.90115513E+02</rscale>
<asrwt>0</asrwt>
<pdfrwt beam="1">  1        1 0.16820438E+00 0.90115513E+02</pdfrwt>
<pdfrwt beam="2">  1       -1 0.28567689E-03 0.90115513E+02</pdfrwt>
<totfact> 0.13644917E+05</totfact>
</mgrwt>
</event>
<event>
 5    1  0.3957498E+001  0.8836952E+02  0.7546771E-02  0.1306849E+00
          1   -1    0    0  501    0  0.00000000000E+00  0.00000000000E+00  0.50209038260E+01  0.50209038260E+01  0.00000000000E+00 0. -1.
         -1   -1    0    0    0  501 -0.00000000000E+00 -0.00000000000E+00 -0.38883298233E+03  0.38883298233E+03  0.00000000000E+00 0.  1.
         23    2    1    2    0    0  0.00000000000E+00  0.00000000000E+00 -0.38381207851E+03  0.39385388616E+03  0.88369519829E+02 0.  0.
          2    1    3    3  502    0  0.20710435703E+02 -0.38856029046E+02 -0.17548198307E+03  0.18092163917E+03  0.00000000000E+00 0. -1.
         -2    1    3    3    0  502 -0.20710435703E+02  0.38856029046E+02 -0.20833009544E+03  0.21293224699E+03  0.00000000000E+00 0.  1.
<mgrwt>
<rscale>  0 0.88369520E+02</rscale>
<asrwt>0</asrwt>
<pdfrwt beam="1">  1        1 0.77244655E-03 0.88369520E+02</pdfrwt>
<pdfrwt beam="2">  1       -1 0.59820474E-01 0.88369520E+02</pdfrwt>
<totfact> 0.58654502E+04</totfact>
</mgrwt>
</event>
<event>
 5    1  0.3957498E+001  0.1006249E+03  0.7546771E-02  0.1278987E+00
         -1   -1    0    0    0  501 -0.00000000000E+00  0.00000000000E+00  0.12730757472E+03  0.12730757472E+03  0.00000000000E+00 0.  1.
          1   -1    0    0  501    0  0.00000000000E+00 -0.00000000000E+00 -0.19883694466E+02  0.19883694466E+02  0.00000000000E+00 0. -1.
         23    2    1    2    0    0  0.00000000000E+00  0.00000000000E+00  0.10742388025E+03  0.14719126918E+03  0.10062494559E+03 0.  0.
          2    1    3    3  502    0 -0.32059756836E+02 -0.38759324847E+02  0.52088562077E+02  0.72410852572E+02  0.00000000000E+00 0. -1.
         -2    1    3    3    0  502  0.32059756836E+02  0.38759324847E+02  0.55335318173E+02  0.74780416609E+02  0.00000000000E+00 0.  1.
<mgrwt>
<rscale>  0 0.10062495E+03</rscale>
<asrwt>0</asrwt>
<pdfrwt beam="2">  1        1 0.30590300E-02 0.10062495E+03</pdfrwt>
<pdfrwt beam="1">  1       -1 0.19585780E-01 0.10062495E+03</pdfrwt>
<totfact> 0.60059226E+04</totfact>
</mgrwt>
</event>
<event>
 5    1  0.3957498E+001  0.9252072E+02  0.7546771E-02  0.1296860E+00
          1   -1    0    0  501    0  0.00000000000E+00  0.00000000000E+00  0.63255331898E+03  0.63255331898E+03  0.00000000000E+00 0. -1.
         -1   -1    0    0    0  501 -0.00000000000E+00 -0.00000000000E+00 -0.33831472421E+01  0.33831472421E+01  0.00000000000E+00 0.  1.
         23    2    1    2    0    0  0.00000000000E+00  0.00000000000E+00  0.62917017174E+03  0.63593646622E+03  0.92520722362E+02 0.  0.
          2    1    3    3  502    0 -0.29318654017E+02  0.24703154281E+02  0.49252535401E+03  0.49401523625E+03  0.00000000000E+00 0. -1.
         -2    1    3    3    0  502  0.29318654017E+02 -0.24703154281E+02  0.13664481772E+03  0.14192122997E+03  0.00000000000E+00 0.  1.
<mgrwt>
<rscale>  0 0.92520722E+02</rscale>
<asrwt>0</asrwt>
<pdfrwt beam="1">  1        1 0.97315801E-01 0.92520722E+02</pdfrwt>
<pdfrwt beam="2">  1       -1 0.52048469E-03 0.92520722E+02</pdfrwt>
<totfact> 0.13656045E+05</totfact>
</mgrwt>
</event>
<event>
 5    1  0.3957498E+001  0.9070863E+02  0.7546771E-02  0.1301145E+00
          3   -1    0    0  501    0  0.00000000000E+00  0.00000000000E+00  0.21997488233E+03  0.21997488233E+03  0.00000000000E+00 0. -1.
         -3   -1    0    0    0  501 -0.00000000000E+00 -0.00000000000E+00 -0.93511302298E+01  0.93511302298E+01  0.00000000000E+00 0.  1.
         23    2    1    2    0    0  0.00000000000E+00  0.00000000000E+00  0.21062375210E+03  0.22932601256E+03  0.90708627417E+02 0.  0.
          2    1    3    3  502    0 -0.31996989864E+02 -0.28147988924E+02  0.14455111164E+03  0.15070215830E+03  0.00000000000E+00 0. -1.
         -2    1    3    3    0  502  0.31996989864E+02  0.28147988924E+02  0.66072640463E+02  0.78623854259E+02  0.00000000000E+00 0.  1.
<mgrwt>
<rscale>  0 0.90708627E+02</rscale>
<asrwt>0</asrwt>
<pdfrwt beam="1">  1        3 0.33842286E-01 0.90708627E+02</pdfrwt>
<pdfrwt beam="2">  1       -3 0.14386356E-02 0.90708627E+02</pdfrwt>
<totfact> 0.27427575E+04</totfact>
</mgrwt>
</event>
<event>
 5    1  0.3957498E+001  0.9596754E+02  0.7546771E-02  0.1289012E+00
         -1   -1    0    0    0  501 -0.00000000000E+00  0.00000000000E+00  0.40358326997E+01  0.40358326997E+01  0.00000000000E+00 0.  1.
          1   -1    0    0  501    0  0.00000000000E+00 -0.00000000000E+00 -0.57049986118E+03  0.57049986118E+03  0.00000000000E+00 0. -1.
         23    2    1    2    0    0  0.00000000000E+00  0.00000000000E+00 -0.56646402848E+03  0.57453569388E+03  0.95967536072E+02 0.  0.
          2    1    3    3  502    0  0.60317409754E+01 -0.38036393522E+02 -0.45459312020E+03  0.45622149672E+03  0.00000000000E+00 0. -1.
         -2    1    3    3    0  502 -0.60317409754E+01  0.38036393522E+02 -0.11187090828E+03  0.11831419717E+03  0.00000000000E+00 0.  1.
<mgrwt>
<rscale>  0 0.95967536E+02</rscale>
<asrwt>0</asrwt>
<pdfrwt beam="2">  1        1 0.87769246E-01 0.95967536E+02</pdfrwt>
<pdfrwt beam="1">  1       -1 0.62089708E-03 0.95967536E+02</pdfrwt>
<totfact> 0.12316011E+05</totfact>
</mgrwt>
</event>
<event>
 5    1  0.3957498E+001  0.9274862E+02  0.7546771E-02  0.1296329E+00
         -3   -1    0    0    0  501 -0.00000000000E+00  0.00000000000E+00  0.99432095028E+01  0.99432095028E+01  0.00000000000E+00 0.  1.
          3   -1    0    0  501    0  0.00000000000E+00 -0.00000000000E+00 -0.21628594263E+03  0.21628594263E+03  0.00000000000E+00 0. -1.
         23    2    1    2    0    0  0.00000000000E+00  0.00000000000E+00 -0.20634273313E+03  0.22622915214E+03  0.92748615949E+02 0.  0.
          2    1    3    3  502    0  0.64257272688E+01  0.29510664559E+02 -0.18900803540E+03  0.19140586913E+03  0.00000000000E+00 0. -1.
         -2    1    3    3    0  502 -0.64257272688E+01 -0.29510664559E+02 -0.17334697733E+02  0.34823283003E+02  0.00000000000E+00 0.  1.
<mgrwt>
<rscale>  0 0.92748616E+02</rscale>
<asrwt>0</asrwt>
<pdfrwt beam="2">  1        3 0.33274756E-01 0.92748616E+02</pdfrwt>
<pdfrwt beam="1">  1       -3 0.15297247E-02 0.92748616E+02</pdfrwt>
<totfact> 0.25970372E+04</totfact>
</mgrwt>
</event>
<event>
 5    1  0.3957498E+001  0.9055315E+02  0.7546771E-02  0.1301518E+00
          1   -1    0    0  501    0  0.00000000000E+00  0.00000000000E+00  0.41141528850E+03  0.41141528850E+03  0.00000000000E+00 0. -1.
         -1   -1    0    0    0  501 -0.00000000000E+00 -0.00000000000E+00 -0.49827221017E+01  0.49827221017E+01  0.00000000000E+00 0.  1.
         23    2    1    2    0    0  0.00000000000E+00  0.00000000000E+00  0.40643256640E+03  0.41639801060E+03  0.90553145743E+02 0.  0.
          2    1    3    3  502    0  0.26611694934E+02 -0.36588666096E+02  0.19517863522E+03  0.20035371831E+03  0.00000000000E+00 0. -1.
         -2    1    3    3    0  502 -0.26611694934E+02  0.36588666096E+02  0.21125393118E+03  0.21604429229E+03  0.00000000000E+00 0.  1.
<mgrwt>
<rscale>  0 0.90553146E+02</rscale>
<asrwt>0</asrwt>
<pdfrwt beam="1">  1        1 0.63294633E-01 0.90553146E+02</pdfrwt>
<pdfrwt beam="2">  1       -1 0.76657296E-03 0.90553146E+02</pdfrwt>
<totfact> 0.13799631E+05</totfact>
</mgrwt>
</event>
<event>
 5    1  0.3957498E+001  0.9021607E+02  0.7546771E-02  0.1302329E+00
         -2   -1    0    0    0  501 -0.00000000000E+00  0.00000000000E+00  0.11748726286E+02  0.11748726286E+02  0.00000000000E+00 0. -1.
          2   -1    0    0  501    0  0.00000000000E+00 -0.00000000000E+00 -0.17318767869E+03  0.17318767869E+03  0.00000000000E+00 0.  1.
         23    2    1    2    0    0  0.00000000000E+00  0.00000000000E+00 -0.16143895240E+03  0.18493640497E+03  0.90216065821E+02 0.  0.
          2    1    3    3  502    0  0.21618045046E+02 -0.37827049071E+02 -0.10467023958E+03  0.11337585531E+03  0.00000000000E+00 0. -1.
         -2    1    3    3    0  502 -0.21618045046E+02  0.37827049071E+02 -0.56768712818E+02  0.71560549663E+02  0.00000000000E+00 0.  1.
<mgrwt>
<rscale>  0 0.90216066E+02</rscale>
<asrwt>0</asrwt>
<pdfrwt beam="2">  1        2 0.26644257E-01 0.90216066E+02</pdfrwt>
<pdfrwt beam="1">  1       -2 0.18074964E-02 0.90216066E+02</pdfrwt>
<totfact> 0.15119359E+05</totfact>
</mgrwt>
</event>
<event>
 5    1  0.3957498E+001  0.9097419E+02  0.7546771E-02  0.1300510E+00
         -2   -1    0    0    0  501 -0.00000000000E+00  0.00000000000E+00  0.90544702272E+00  0.90544702272E+00  0.00000000000E+00 0. -1.
          2   -1    0    0  501    0  0.00000000000E+00 -0.00000000000E+00 -0.22851428840E+04  0.22851428840E+04  0.00000000000E+00 0.  1.
         23    2    1    2    0    0  0.00000000000E+00  0.00000000000E+00 -0.22842374370E+04  0.22860483311E+04  0.90974190204E+02 0.  0.
          2    1    3    3  502    0 -0.30019660796E+02  0.55849876511E+01 -0.29490916161E+03  0.29648572600E+03  0.00000000000E+00 0. -1.
         -2    1    3    3    0  502  0.30019660796E+02 -0.55849876511E+01 -0.19893282754E+04  0.19895626051E+04  0.00000000000E+00 0.  1.
<mgrwt>
<rscale>  0 0.90974190E+02</rscale>
<asrwt>0</asrwt>
<pdfrwt beam="2">  1        2 0.35155937E+00 0.90974190E+02</pdfrwt>
<pdfrwt beam="1">  1       -2 0.13929997E-03 0.90974190E+02</pdfrwt>
<totfact> 0.17060332E+05</totfact>
</mgrwt>
</event>
<event>
 5    1  0.3957498E+001  0.9125988E+02  0.7546771E-02  0.1299829E+00
         -4   -1    0    0    0  501 -0.00000000000E+00  0.00000000000E+00  0.35441004624E+02  0.35441004624E+02  0.00000000000E+00 0.  1.
          4   -1    0    0  501    0  0.00000000000E+00 -0.00000000000E+00 -0.58748088342E+02  0.58748088342E+02  0.00000000000E+00 0. -1.
         23    2    1    2    0    0  0.00000000000E+00  0.00000000000E+00 -0.23307083718E+02  0.94189092966E+02  0.91259876628E+02 0.  0.
          2    1    3    3  502    0  0.34318410434E+02  0.27290669846E+02 -0.24690584841E+02  0.50320561753E+02  0.00000000000E+00 0. -1.
         -2    1    3    3    0  502 -0.34318410434E+02 -0.27290669846E+02  0.13835011229E+01  0.43868531212E+02  0.00000000000E+00 0.  1.
<mgrwt>
<rscale>  0 0.91259877E+02</rscale>
<asrwt>0</asrwt>
<pdfrwt beam="2">  1        4 0.90381673E-02 0.91259877E+02</pdfrwt>
<pdfrwt beam="1">  1       -4 0.54524623E-02 0.91259877E+02</pdfrwt>
<totfact> 0.26757237E+04</totfact>
</mgrwt>
</event>
<event>
 5    1  0.3957498E+001  0.8267438E+02  0.7546771E-02  0.1321629E+00
         -2   -1    0    0    0  501 -0.00000000000E+00  0.00000000000E+00  0.35438963537E+01  0.35438963537E+01  0.00000000000E+00 0.  1.
          2   -1    0    0  501    0  0.00000000000E+00 -0.00000000000E+00 -0.48217078025E+03  0.48217078025E+03  0.00000000000E+00 0. -1.
         23    2    1    2    0    0  0.00000000000E+00  0.00000000000E+00 -0.47862688389E+03  0.48571467660E+03  0.82674379827E+02 0.  0.
          2    1    3    3  502    0 -0.29125012572E+02  0.22442885233E+02 -0.35028996429E+03  0.35221443544E+03  0.00000000000E+00 0. -1.
         -2    1    3    3    0  502  0.29125012572E+02 -0.22442885233E+02 -0.12833691961E+03  0.13350024116E+03  0.00000000000E+00 0.  1.
<mgrwt>
<rscale>  0 0.82674380E+02</rscale>
<asrwt>0</asrwt>
<pdfrwt beam="2">  1        2 0.74180110E-01 0.82674380E+02</pdfrwt>
<pdfrwt beam="1">  1       -2 0.54521489E-03 0.82674380E+02</pdfrwt>
<totfact> 0.27556753E+05</totfact>
</mgrwt>
</event>
<event>
 5    1  0.3957498E+001  0.9134903E+02  0.7546771E-02  0.1299617E+00
         -4   -1    0    0    0  501 -0.00000000000E+00  0.00000000000E+00  0.46607915681E+02  0.46607915681E+02  0.00000000000E+00 0.  1.
          4   -1    0    0  501    0  0.00000000000E+00 -0.00000000000E+00 -0.44759808067E+02  0.44759808067E+02  0.00000000000E+00 0. -1.
         23    2    1    2    0    0  0.00000000000E+00  0.00000000000E+00  0.18481076144E+01  0.91367723748E+02  0.91349030872E+02 0.  0.
          2    1    3    3  502    0  0.35205524810E+02  0.20207214538E+02 -0.20018255122E+02  0.45260258888E+02  0.00000000000E+00 0. -1.
         -2    1    3    3    0  502 -0.35205524810E+02 -0.20207214538E+02  0.21866362737E+02  0.46107464860E+02  0.00000000000E+00 0.  1.
<mgrwt>
<rscale>  0 0.91349031E+02</rscale>
<asrwt>0</asrwt>
<pdfrwt beam="2">  1        4 0.68861243E-02 0.91349031E+02</pdfrwt>
<pdfrwt beam="1">  1       -4 0.71704486E-02 0.91349031E+02</pdfrwt>
<totfact> 0.26865634E+04</totfact>
</mgrwt>
</event>
<event>
 5    1  0.3957498E+001  0.9159766E+02  0.7546771E-02  0.1299028E+00
         -4   -1    0    0    0  501 -0.00000000000E+00  0.00000000000E+00  0.43340981858E+03  0.43340981858E+03  0.00000000000E+00 0.  1.
          4   -1    0    0  501    0  0.00000000000E+00 -0.00000000000E+00 -0.48396061489E+01  0.48396061489E+01  0.00000000000E+00 0. -1.
         23    2    1    2    0    0  0.00000000000E+00  0.00000000000E+00  0.42857021243E+03  0.43824942473E+03  0.91597659861E+02 0.  0.
          2    1    3    3  502    0  0.35926486107E+02  0.11461045467E+02  0.89937234889E+02  0.97523198197E+02  0.00000000000E+00 0. -1.
         -2    1    3    3    0  502 -0.35926486107E+02 -0.11461045467E+02  0.33863297754E+03  0.34072622653E+03  0.00000000000E+00 0.  1.
<mgrwt>
<rscale>  0 0.91597660E+02</rscale>
<asrwt>0</asrwt>
<pdfrwt beam="2">  1        4 0.74455513E-03 0.91597660E+02</pdfrwt>
<pdfrwt beam="1">  1       -4 0.66678403E-01 0.91597660E+02</pdfrwt>
<totfact> 0.14123113E+04</totfact>
</mgrwt>
</event>
<event>
 5    1  0.3957498E+001  0.8966714E+02  0.7546771E-02  0.1303660E+00
         -4   -1    0    0    0  501 -0.00000000000E+00  0.00000000000E+00  0.12037989375E+02  0.12037989375E+02  0.00000000000E+00 0.  1.
          4   -1    0    0  501    0  0.00000000000E+00 -0.00000000000E+00 -0.16697547118E+03  0.16697547118E+03  0.00000000000E+00 0. -1.
         23    2    1    2    0    0  0.00000000000E+00  0.00000000000E+00 -0.15493748180E+03  0.17901346055E+03  0.89667138862E+02 0.  0.
          2    1    3    3  502    0  0.24410082789E+02  0.21660341940E+01 -0.15242116821E+03  0.15437861369E+03  0.00000000000E+00 0. -1.
         -2    1    3    3    0  502 -0.24410082789E+02 -0.21660341940E+01 -0.25163135918E+01  0.24634846863E+02  0.00000000000E+00 0.  1.
<mgrwt>
<rscale>  0 0.89667139E+02</rscale>
<asrwt>0</asrwt>
<pdfrwt beam="2">  1        4 0.25688535E-01 0.89667139E+02</pdfrwt>
<pdfrwt beam="1">  1       -4 0.18519983E-02 0.89667139E+02</pdfrwt>
<totfact> 0.23313857E+04</totfact>
</mgrwt>
</event>
<event>
 5    1  0.3957498E+001  0.9133268E+02  0.7546771E-02  0.1299656E+00
         -3   -1    0    0    0  501 -0.00000000000E+00  0.00000000000E+00  0.12460822867E+03  0.12460822867E+03  0.00000000000E+00 0.  1.
          3   -1    0    0  501    0  0.00000000000E+00 -0.00000000000E+00 -0.16735769626E+02  0.16735769626E+02  0.00000000000E+00 0. -1.
         23    2    1    2    0    0  0.00000000000E+00  0.00000000000E+00  0.10787245904E+03  0.14134399830E+03  0.91332679989E+02 0.  0.
          2    1    3    3  502    0 -0.44725653789E+02 -0.76150409310E+01  0.45888603412E+02  0.64530123805E+02  0.00000000000E+00 0. -1.
         -2    1    3    3    0  502  0.44725653789E+02  0.76150409310E+01  0.61983855633E+02  0.76813874491E+02  0.00000000000E+00 0.  1.
<mgrwt>
<rscale>  0 0.91332680E+02</rscale>
<asrwt>0</asrwt>
<pdfrwt beam="2">  1        3 0.25747339E-02 0.91332680E+02</pdfrwt>
<pdfrwt beam="1">  1       -3 0.19170496E-01 0.91332680E+02</pdfrwt>
<totfact> 0.31699147E+04</totfact>
</mgrwt>
</event>
<event>
 5    1  0.3957498E+001  0.9337719E+02  0.7546771E-02  0.1294873E+00
         -4   -1    0    0    0  501 -0.00000000000E+00  0.00000000000E+00  0.14376576199E+03  0.14376576199E+03  0.00000000000E+00 0.  1.
          4   -1    0    0  501    0  0.00000000000E+00 -0.00000000000E+00 -0.15162335784E+02  0.15162335784E+02  0.00000000000E+00 0. -1.
         23    2    1    2    0    0  0.00000000000E+00  0.00000000000E+00  0.12860342620E+03  0.15892809777E+03  0.93377186884E+02 0.  0.
          2    1    3    3  502    0 -0.20769581730E+02  0.41736834135E+02  0.59967150131E+02  0.75956553000E+02  0.00000000000E+00 0. -1.
         -2    1    3    3    0  502  0.20769581730E+02 -0.41736834135E+02  0.68636276073E+02  0.82971544773E+02  0.00000000000E+00 0.  1.
<mgrwt>
<rscale>  0 0.93377187E+02</rscale>
<asrwt>0</asrwt>
<pdfrwt beam="2">  1        4 0.23326671E-02 0.93377187E+02</pdfrwt>
<pdfrwt beam="1">  1       -4 0.22117809E-01 0.93377187E+02</pdfrwt>
<totfact> 0.21785500E+04</totfact>
</mgrwt>
</event>
<event>
 5    1  0.3957498E+001  0.9032213E+02  0.7546771E-02  0.1302073E+00
         -2   -1    0    0    0  501 -0.00000000000E+00  0.00000000000E+00  0.88291782404E+02  0.88291782404E+02  0.00000000000E+00 0.  1.
          2   -1    0    0  501    0  0.00000000000E+00 -0.00000000000E+00 -0.23099790334E+02  0.23099790334E+02  0.00000000000E+00 0. -1.
         23    2    1    2    0    0  0.00000000000E+00  0.00000000000E+00  0.65191992070E+02  0.11139157274E+03  0.90322127118E+02 0.  0.
          2    1    3    3  502    0 -0.45450250310E+01 -0.44056309235E+02  0.21710613283E+02  0.49325108870E+02  0.00000000000E+00 0. -1.
         -2    1    3    3    0  502  0.45450250310E+01  0.44056309235E+02  0.43481378787E+02  0.62066463869E+02  0.00000000000E+00 0.  1.
<mgrwt>
<rscale>  0 0.90322127E+02</rscale>
<asrwt>0</asrwt>
<pdfrwt beam="2">  1        2 0.35538140E-02 0.90322127E+02</pdfrwt>
<pdfrwt beam="1">  1       -2 0.13583351E-01 0.90322127E+02</pdfrwt>
<totfact> 0.84704759E+04</totfact>
</mgrwt>
</event>
<event>
 5    1  0.3957498E+001  0.8932486E+02  0.7546771E-02  0.1304495E+00
          1   -1    0    0  501    0  0.00000000000E+00  0.00000000000E+00  0.39482901225E+02  0.39482901225E+02  0.00000000000E+00 0. -1.
         -1   -1    0    0    0  501 -0.00000000000E+00 -0.00000000000E+00 -0.50521428847E+02  0.50521428847E+02  0.00000000000E+00 0.  1.
         23    2    1    2    0    0  0.00000000000E+00  0.00000000000E+00 -0.11038527621E+02  0.90004330072E+02  0.89324858464E+02 0.  0.
          2    1    3    3  502    0 -0.40096002133E+02 -0.18117831998E+02  0.22063510097E+01  0.44054661593E+02  0.00000000000E+00 0. -1.
         -2    1    3    3    0  502  0.40096002133E+02  0.18117831998E+02 -0.13244878631E+02  0.45949668478E+02  0.00000000000E+00 0.  1.
<mgrwt>
<rscale>  0 0.89324858E+02</rscale>
<asrwt>0</asrwt>
<pdfrwt beam="1">  1        1 0.60742925E-02 0.89324858E+02</pdfrwt>
<pdfrwt beam="2">  1       -1 0.77725274E-02 0.89324858E+02</pdfrwt>
<totfact> 0.95873820E+04</totfact>
</mgrwt>
</event>
<event>
 5    1  0.3957498E+001  0.6535351E+02  0.7546771E-02  0.1376647E+00
         -1   -1    0    0    0  501 -0.00000000000E+00  0.00000000000E+00  0.13606325875E+01  0.13606325875E+01  0.00000000000E+00 0.  1.
          1   -1    0    0  501    0  0.00000000000E+00 -0.00000000000E+00 -0.78476009813E+03  0.78476009813E+03  0.00000000000E+00 0. -1.
         23    2    1    2    0    0  0.00000000000E+00  0.00000000000E+00 -0.78339946555E+03  0.78612073072E+03  0.65353505274E+02 0.  0.
          2    1    3    3  502    0 -0.19381855477E+02  0.10835505457E+02 -0.68006510058E+03  0.68042751673E+03  0.00000000000E+00 0. -1.
         -2    1    3    3    0  502  0.19381855477E+02 -0.10835505457E+02 -0.10333436497E+03  0.10569321399E+03  0.00000000000E+00 0.  1.
<mgrwt>
<rscale>  0 0.65353505E+02</rscale>
<asrwt>0</asrwt>
<pdfrwt beam="2">  1        1 0.12073242E+00 0.65353505E+02</pdfrwt>
<pdfrwt beam="1">  1       -1 0.20932793E-03 0.65353505E+02</pdfrwt>
<totfact> 0.33640776E+05</totfact>
</mgrwt>
</event>
<event>
 5    1  0.3957498E+001  0.9292072E+02  0.7546771E-02  0.1295929E+00
         -1   -1    0    0    0  501 -0.00000000000E+00  0.00000000000E+00  0.19003302875E+03  0.19003302875E+03  0.00000000000E+00 0.  1.
          1   -1    0    0  501    0  0.00000000000E+00 -0.00000000000E+00 -0.11358895001E+02  0.11358895001E+02  0.00000000000E+00 0. -1.
         23    2    1    2    0    0  0.00000000000E+00  0.00000000000E+00  0.17867413375E+03  0.20139192375E+03  0.92920723639E+02 0.  0.
          2    1    3    3  502    0 -0.29116270073E+02 -0.88464978526E+01  0.13246415478E+02  0.33188631038E+02  0.00000000000E+00 0. -1.
         -2    1    3    3    0  502  0.29116270073E+02  0.88464978526E+01  0.16542771827E+03  0.16820329271E+03  0.00000000000E+00 0.  1.
<mgrwt>
<rscale>  0 0.92920724E+02</rscale>
<asrwt>0</asrwt>
<pdfrwt beam="2">  1        1 0.17475224E-02 0.92920724E+02</pdfrwt>
<pdfrwt beam="1">  1       -1 0.29235848E-01 0.92920724E+02</pdfrwt>
<totfact> 0.67033935E+04</totfact>
</mgrwt>
</event>
<event>
 5    1  0.3957498E+001  0.8990534E+02  0.7546771E-02  0.1303081E+00
          2   -1    0    0  501    0  0.00000000000E+00  0.00000000000E+00  0.18130500813E+04  0.18130500813E+04  0.00000000000E+00 0. -1.
         -2   -1    0    0    0  501 -0.00000000000E+00 -0.00000000000E+00 -0.11145542510E+01  0.11145542510E+01  0.00000000000E+00 0.  1.
         23    2    1    2    0    0  0.00000000000E+00  0.00000000000E+00  0.18119355271E+04  0.18141646356E+04  0.89905343010E+02 0.  0.
          2    1    3    3  502    0  0.40296858929E+02 -0.18711608877E+02  0.76795209249E+03  0.76923622998E+03  0.00000000000E+00 0. -1.
         -2    1    3    3    0  502 -0.40296858929E+02  0.18711608877E+02  0.10439834346E+04  0.10449284056E+04  0.00000000000E+00 0.  1.
<mgrwt>
<rscale>  0 0.89905343E+02</rscale>
<asrwt>0</asrwt>
<pdfrwt beam="1">  1        2 0.27892842E+00 0.89905343E+02</pdfrwt>
<pdfrwt beam="2">  1       -2 0.17147134E-03 0.89905343E+02</pdfrwt>
<totfact> 0.22129956E+05</totfact>
</mgrwt>
</event>
<event>
 5    1  0.3957498E+001  0.8745478E+02  0.7546771E-02  0.1309135E+00
          1   -1    0    0  501    0  0.00000000000E+00  0.00000000000E+00  0.22811934775E+03  0.22811934775E+03  0.00000000000E+00 0. -1.
         -1   -1    0    0    0  501 -0.00000000000E+00 -0.00000000000E+00 -0.83819488609E+01  0.83819488609E+01  0.00000000000E+00 0.  1.
         23    2    1    2    0    0  0.00000000000E+00  0.00000000000E+00  0.21973739889E+03  0.23650129661E+03  0.87454781620E+02 0.  0.
          2    1    3    3  502    0 -0.41863250344E+01 -0.29600657297E+02  0.23570698736E+02  0.38069700138E+02  0.00000000000E+00 0. -1.
         -2    1    3    3    0  502  0.41863250344E+01  0.29600657297E+02  0.19616670016E+03  0.19843159648E+03  0.00000000000E+00 0.  1.
<mgrwt>
<rscale>  0 0.87454782E+02</rscale>
<asrwt>0</asrwt>
<pdfrwt beam="1">  1        1 0.35095280E-01 0.87454782E+02</pdfrwt>
<pdfrwt beam="2">  1       -1 0.12895308E-02 0.87454782E+02</pdfrwt>
<totfact> 0.13576732E+05</totfact>
</mgrwt>
</event>
<event>
 5    1  0.3957498E+001  0.9075807E+02  0.7546771E-02  0.1301026E+00
          2   -1    0    0  501    0  0.00000000000E+00  0.00000000000E+00  0.13049529340E+02  0.13049529340E+02  0.00000000000E+00 0. -1.
         -2   -1    0    0    0  501 -0.00000000000E+00 -0.00000000000E+00 -0.15780313290E+03  0.15780313290E+03  0.00000000000E+00 0.  1.
         23    2    1    2    0    0  0.00000000000E+00  0.00000000000E+00 -0.14475360356E+03  0.17085266224E+03  0.90758065486E+02 0.  0.
          2    1    3    3  502    0  0.12191849966E+02  0.42682843600E+02 -0.54638207249E+02  0.70397443383E+02  0.00000000000E+00 0. -1.
         -2    1    3    3    0  502 -0.12191849966E+02 -0.42682843600E+02 -0.90115396313E+02  0.10045521886E+03  0.00000000000E+00 0.  1.
<mgrwt>
<rscale>  0 0.90758065E+02</rscale>
<asrwt>0</asrwt>
<pdfrwt beam="1">  1        2 0.20076198E-02 0.90758065E+02</pdfrwt>
<pdfrwt beam="2">  1       -2 0.24277406E-01 0.90758065E+02</pdfrwt>
<totfact> 0.69365389E+04</totfact>
</mgrwt>
</event>
<event>
 5    1  0.3957498E+001  0.1261064E+03  0.7546771E-02  0.1233350E+00
         -1   -1    0    0    0  501 -0.00000000000E+00  0.00000000000E+00  0.40707864667E+02  0.40707864667E+02  0.00000000000E+00 0.  1.
          1   -1    0    0  501    0  0.00000000000E+00 -0.00000000000E+00 -0.97664332768E+02  0.97664332768E+02  0.00000000000E+00 0. -1.
         23    2    1    2    0    0  0.00000000000E+00  0.00000000000E+00 -0.56956468101E+02  0.13837219743E+03  0.12610640652E+03 0.  0.
          2    1    3    3  502    0  0.55924824705E+02 -0.76687746985E+01 -0.59305540333E+02  0.81875168628E+02  0.00000000000E+00 0. -1.
         -2    1    3    3    0  502 -0.55924824705E+02  0.76687746985E+01  0.23490722323E+01  0.56497028807E+02  0.00000000000E+00 0.  1.
<mgrwt>
<rscale>  0 0.12610641E+03</rscale>
<asrwt>0</asrwt>
<pdfrwt beam="2">  1        1 0.15025282E-01 0.12610641E+03</pdfrwt>
<pdfrwt beam="1">  1       -1 0.62627485E-02 0.12610641E+03</pdfrwt>
<totfact> 0.42081552E+04</totfact>
</mgrwt>
</event>
<event>
 5    1  0.3957498E+001  0.9058087E+02  0.7546771E-02  0.1301451E+00
         -2   -1    0    0    0  501 -0.00000000000E+00  0.00000000000E+00  0.12419856507E+03  0.12419856507E+03  0.00000000000E+00 0.  1.
          2   -1    0    0  501    0  0.00000000000E+00 -0.00000000000E+00 -0.16515679366E+02  0.16515679366E+02  0.00000000000E+00 0. -1.
         23    2    1    2    0    0  0.00000000000E+00  0.00000000000E+00  0.10768288571E+03  0.14071424444E+03  0.90580873885E+02 0.  0.
          2    1    3    3  502    0  0.41445992139E+02 -0.39553379331E+01  0.81535364466E+02  0.91550153584E+02  0.00000000000E+00 0. -1.
         -2    1    3    3    0  502 -0.41445992139E+02  0.39553379331E+01  0.26147521243E+02  0.49164090856E+02  0.00000000000E+00 0.  1.
<mgrwt>
<rscale>  0 0.90580874E+02</rscale>
<asrwt>0</asrwt>
<pdfrwt beam="2">  1        2 0.25408738E-02 0.90580874E+02</pdfrwt>
<pdfrwt beam="1">  1       -2 0.19107471E-01 0.90580874E+02</pdfrwt>
<totfact> 0.75813184E+04</totfact>
</mgrwt>
</event>
<event>
 5    1  0.3957498E+001  0.8470471E+02  0.7546771E-02  0.1316207E+00
          1   -1    0    0  501    0  0.00000000000E+00  0.00000000000E+00  0.31650643991E+03  0.31650643991E+03  0.00000000000E+00 0. -1.
         -1   -1    0    0    0  501 -0.00000000000E+00 -0.00000000000E+00 -0.56672527621E+01  0.56672527621E+01  0.00000000000E+00 0.  1.
         23    2    1    2    0    0  0.00000000000E+00  0.00000000000E+00  0.31083918715E+03  0.32217369268E+03  0.84704710514E+02 0.  0.
          2    1    3    3  502    0  0.39442513377E+02 -0.11084785115E+02  0.19623190922E+03  0.20046332961E+03  0.00000000000E+00 0. -1.
         -2    1    3    3    0  502 -0.39442513377E+02  0.11084785115E+02  0.11460727793E+03  0.12171036306E+03  0.00000000000E+00 0.  1.
<mgrwt>
<rscale>  0 0.84704711E+02</rscale>
<asrwt>0</asrwt>
<pdfrwt beam="1">  1        1 0.48693285E-01 0.84704711E+02</pdfrwt>
<pdfrwt beam="2">  1       -1 0.87188529E-03 0.84704711E+02</pdfrwt>
<totfact> 0.15732627E+05</totfact>
</mgrwt>
</event>
<event>
 5    1  0.3957498E+001  0.9173255E+02  0.7546771E-02  0.1298710E+00
         -1   -1    0    0    0  501 -0.00000000000E+00  0.00000000000E+00  0.89971444599E+02  0.89971444599E+02  0.00000000000E+00 0.  1.
          1   -1    0    0  501    0  0.00000000000E+00 -0.00000000000E+00 -0.23382031414E+02  0.23382031414E+02  0.00000000000E+00 0. -1.
         23    2    1    2    0    0  0.00000000000E+00  0.00000000000E+00  0.66589413184E+02  0.11335347601E+03  0.91732549163E+02 0.  0.
          2    1    3    3  502    0  0.37416526663E+02 -0.19714423716E+02  0.11361196725E+02  0.43791914334E+02  0.00000000000E+00 0. -1.
         -2    1    3    3    0  502 -0.37416526663E+02  0.19714423716E+02  0.55228216459E+02  0.69561561679E+02  0.00000000000E+00 0.  1.
<mgrwt>
<rscale>  0 0.91732549E+02</rscale>
<asrwt>0</asrwt>
<pdfrwt beam="2">  1        1 0.35972356E-02 0.91732549E+02</pdfrwt>
<pdfrwt beam="1">  1       -1 0.13841761E-01 0.91732549E+02</pdfrwt>
<totfact> 0.81660913E+04</totfact>
</mgrwt>
</event>
<event>
 5    1  0.3957498E+001  0.9098571E+02  0.7546771E-02  0.1300482E+00
          4   -1    0    0  501    0  0.00000000000E+00  0.00000000000E+00  0.15888689616E+03  0.15888689616E+03  0.00000000000E+00 0. -1.
         -4   -1    0    0    0  501 -0.00000000000E+00 -0.00000000000E+00 -0.13025616755E+02  0.13025616755E+02  0.00000000000E+00 0.  1.
         23    2    1    2    0    0  0.00000000000E+00  0.00000000000E+00  0.14586127940E+03  0.17191251291E+03  0.90985709137E+02 0.  0.
          2    1    3    3  502    0  0.43121080070E+02  0.10534306105E+02  0.54111854006E+02  0.69989226996E+02  0.00000000000E+00 0. -1.
         -2    1    3    3    0  502 -0.43121080070E+02 -0.10534306105E+02  0.91749425398E+02  0.10192328592E+03  0.00000000000E+00 0.  1.
<mgrwt>
<rscale>  0 0.90985709E+02</rscale>
<asrwt>0</asrwt>
<pdfrwt beam="1">  1        4 0.24444136E-01 0.90985709E+02</pdfrwt>
<pdfrwt beam="2">  1       -4 0.20039412E-02 0.90985709E+02</pdfrwt>
<totfact> 0.22746939E+04</totfact>
</mgrwt>
</event>
<event>
 5    1  0.3957498E+001  0.9101812E+02  0.7546771E-02  0.1300405E+00
         -1   -1    0    0    0  501 -0.00000000000E+00  0.00000000000E+00  0.14203314304E+04  0.14203314304E+04  0.00000000000E+00 0.  1.
          1   -1    0    0  501    0  0.00000000000E+00 -0.00000000000E+00 -0.14581629909E+01  0.14581629909E+01  0.00000000000E+00 0. -1.
         23    2    1    2    0    0  0.00000000000E+00  0.00000000000E+00  0.14188732674E+04  0.14217895934E+04  0.91018124053E+02 0.  0.
          2    1    3    3  502    0 -0.30193914958E+02  0.33882425139E+02  0.65673243450E+03  0.65829870254E+03  0.00000000000E+00 0. -1.
         -2    1    3    3    0  502  0.30193914958E+02 -0.33882425139E+02  0.76214083289E+03  0.76349089083E+03  0.00000000000E+00 0.  1.
<mgrwt>
<rscale>  0 0.91018124E+02</rscale>
<asrwt>0</asrwt>
<pdfrwt beam="2">  1        1 0.22433390E-03 0.91018124E+02</pdfrwt>
<pdfrwt beam="1">  1       -1 0.21851142E+00 0.91018124E+02</pdfrwt>
<totfact> 0.15340037E+04</totfact>
</mgrwt>
</event>
<event>
 5    1  0.3957498E+001  0.9430244E+02  0.7546771E-02  0.1292755E+00
          4   -1    0    0  501    0  0.00000000000E+00  0.00000000000E+00  0.38308555441E+01  0.38308555441E+01  0.00000000000E+00 0.  1.
         -4   -1    0    0    0  501 -0.00000000000E+00 -0.00000000000E+00 -0.58035015823E+03  0.58035015823E+03  0.00000000000E+00 0. -1.
         23    2    1    2    0    0  0.00000000000E+00  0.00000000000E+00 -0.57651930269E+03  0.58418101377E+03  0.94302441563E+02 0.  0.
          2    1    3    3  502    0 -0.41255674579E+02 -0.22261900288E+02 -0.25690735125E+03  0.26114940172E+03  0.00000000000E+00 0. -1.
         -2    1    3    3    0  502  0.41255674579E+02  0.22261900288E+02 -0.31961195143E+03  0.32303161206E+03  0.00000000000E+00 0.  1.
<mgrwt>
<rscale>  0 0.94302442E+02</rscale>
<asrwt>0</asrwt>
<pdfrwt beam="1">  1        4 0.58936268E-03 0.94302442E+02</pdfrwt>
<pdfrwt beam="2">  1       -4 0.89284595E-01 0.94302442E+02</pdfrwt>
<totfact> 0.10656159E+04</totfact>
</mgrwt>
</event>
<event>
 5    1  0.3957498E+001  0.9138182E+02  0.7546771E-02  0.1299540E+00
         -2   -1    0    0    0  501 -0.00000000000E+00  0.00000000000E+00  0.31959460764E+01  0.31959460764E+01  0.00000000000E+00 0.  1.
          2   -1    0    0  501    0  0.00000000000E+00 -0.00000000000E+00 -0.65322105386E+03  0.65322105386E+03  0.00000000000E+00 0. -1.
         23    2    1    2    0    0  0.00000000000E+00  0.00000000000E+00 -0.65002510779E+03  0.65641699994E+03  0.91381820163E+02 0.  0.
          2    1    3    3  502    0 -0.13917458529E+02 -0.42250804039E+02 -0.39995030502E+03  0.40241654114E+03  0.00000000000E+00 0. -1.
         -2    1    3    3    0  502  0.13917458529E+02  0.42250804039E+02 -0.25007480277E+03  0.25400045880E+03  0.00000000000E+00 0.  1.
<mgrwt>
<rscale>  0 0.91381820E+02</rscale>
<asrwt>0</asrwt>
<pdfrwt beam="2">  1        2 0.10049552E+00 0.91381820E+02</pdfrwt>
<pdfrwt beam="1">  1       -2 0.49168413E-03 0.91381820E+02</pdfrwt>
<totfact> 0.23177396E+05</totfact>
</mgrwt>
</event>
<event>
 5    1  0.3957498E+001  0.9232943E+02  0.7546771E-02  0.1297307E+00
         -2   -1    0    0    0  501 -0.00000000000E+00  0.00000000000E+00  0.74400351121E+01  0.74400351121E+01  0.00000000000E+00 0. -1.
          2   -1    0    0  501    0  0.00000000000E+00 -0.00000000000E+00 -0.28644768795E+03  0.28644768795E+03  0.00000000000E+00 0.  1.
         23    2    1    2    0    0  0.00000000000E+00  0.00000000000E+00 -0.27900765283E+03  0.29388772306E+03  0.92329428810E+02 0.  0.
          2    1    3    3  502    0 -0.23524725418E+02 -0.70208453715E-01 -0.13070312202E+02  0.26911906218E+02  0.00000000000E+00 0. -1.
         -2    1    3    3    0  502  0.23524725418E+02  0.70208453715E-01 -0.26593734063E+03  0.26697581684E+03  0.00000000000E+00 0.  1.
<mgrwt>
<rscale>  0 0.92329429E+02</rscale>
<asrwt>0</asrwt>
<pdfrwt beam="2">  1        2 0.44068877E-01 0.92329429E+02</pdfrwt>
<pdfrwt beam="1">  1       -2 0.11446207E-02 0.92329429E+02</pdfrwt>
<totfact> 0.17075714E+05</totfact>
</mgrwt>
</event>
<event>
 5    1  0.3957498E+001  0.9273435E+02  0.7546771E-02  0.1296362E+00
         -2   -1    0    0    0  501 -0.00000000000E+00  0.00000000000E+00  0.15842249787E+01  0.15842249787E+01  0.00000000000E+00 0.  1.
          2   -1    0    0  501    0  0.00000000000E+00 -0.00000000000E+00 -0.13570766583E+04  0.13570766583E+04  0.00000000000E+00 0. -1.
         23    2    1    2    0    0  0.00000000000E+00  0.00000000000E+00 -0.13554924333E+04  0.13586608832E+04  0.92734346173E+02 0.  0.
          2    1    3    3  502    0 -0.15413859494E+02 -0.33919008836E+02 -0.10821349710E+04  0.10827761457E+04  0.00000000000E+00 0. -1.
         -2    1    3    3    0  502  0.15413859494E+02  0.33919008836E+02 -0.27335746232E+03  0.27588473759E+03  0.00000000000E+00 0.  1.
<mgrwt>
<rscale>  0 0.92734346E+02</rscale>
<asrwt>0</asrwt>
<pdfrwt beam="2">  1        2 0.20878195E+00 0.92734346E+02</pdfrwt>
<pdfrwt beam="1">  1       -2 0.24372584E-03 0.92734346E+02</pdfrwt>
<totfact> 0.23276575E+05</totfact>
</mgrwt>
</event>
<event>
 5    1  0.3957498E+001  0.8847380E+02  0.7546771E-02  0.1306590E+00
         -1   -1    0    0    0  501 -0.00000000000E+00  0.00000000000E+00  0.22365058855E+01  0.22365058855E+01  0.00000000000E+00 0.  1.
          1   -1    0    0  501    0  0.00000000000E+00 -0.00000000000E+00 -0.87498235958E+03  0.87498235958E+03  0.00000000000E+00 0. -1.
         23    2    1    2    0    0  0.00000000000E+00  0.00000000000E+00 -0.87274585369E+03  0.87721886546E+03  0.88473797182E+02 0.  0.
          2    1    3    3  502    0  0.38651696930E+02  0.98833255942E+01 -0.24687697373E+03  0.25007973521E+03  0.00000000000E+00 0. -1.
         -2    1    3    3    0  502 -0.38651696930E+02 -0.98833255942E+01 -0.62586887996E+03  0.62713913026E+03  0.00000000000E+00 0.  1.
<mgrwt>
<rscale>  0 0.88473797E+02</rscale>
<asrwt>0</asrwt>
<pdfrwt beam="2">  1        1 0.13461272E+00 0.88473797E+02</pdfrwt>
<pdfrwt beam="1">  1       -1 0.34407770E-03 0.88473797E+02</pdfrwt>
<totfact> 0.15137173E+05</totfact>
</mgrwt>
</event>
<event>
 5    1  0.3957498E+001  0.8921260E+02  0.7546771E-02  0.1304770E+00
          2   -1    0    0  501    0  0.00000000000E+00  0.00000000000E+00  0.68323014650E+02  0.68323014650E+02  0.00000000000E+00 0. -1.
         -2   -1    0    0    0  501 -0.00000000000E+00 -0.00000000000E+00 -0.29122280274E+02  0.29122280274E+02  0.00000000000E+00 0.  1.
         23    2    1    2    0    0  0.00000000000E+00  0.00000000000E+00  0.39200734376E+02  0.97445294924E+02  0.89212599599E+02 0.  0.
          2    1    3    3  502    0 -0.34948264495E+02 -0.14887772693E+02  0.45139564098E+02  0.58996671211E+02  0.00000000000E+00 0. -1.
         -2    1    3    3    0  502  0.34948264495E+02  0.14887772693E+02 -0.59388297222E+01  0.38448623714E+02  0.00000000000E+00 0.  1.
<mgrwt>
<rscale>  0 0.89212600E+02</rscale>
<asrwt>0</asrwt>
<pdfrwt beam="1">  1        2 0.10511233E-01 0.89212600E+02</pdfrwt>
<pdfrwt beam="2">  1       -2 0.44803508E-02 0.89212600E+02</pdfrwt>
<totfact> 0.11677390E+05</totfact>
</mgrwt>
</event>
<event>
 5    1  0.3957498E+001  0.9145543E+02  0.7546771E-02  0.1299365E+00
          2   -1    0    0  501    0  0.00000000000E+00  0.00000000000E+00  0.13639546520E+04  0.13639546520E+04  0.00000000000E+00 0. -1.
         -2   -1    0    0    0  501 -0.00000000000E+00 -0.00000000000E+00 -0.15330597306E+01  0.15330597306E+01  0.00000000000E+00 0.  1.
         23    2    1    2    0    0  0.00000000000E+00  0.00000000000E+00  0.13624215923E+04  0.13654877118E+04  0.91455430705E+02 0.  0.
          2    1    3    3  502    0 -0.43140142238E+01 -0.44440367698E+02  0.53380757018E+03  0.53567161488E+03  0.00000000000E+00 0. -1.
         -2    1    3    3    0  502  0.43140142238E+01  0.44440367698E+02  0.82861402213E+03  0.82981609690E+03  0.00000000000E+00 0.  1.
<mgrwt>
<rscale>  0 0.91455431E+02</rscale>
<asrwt>0</asrwt>
<pdfrwt beam="1">  1        2 0.20983821E+00 0.91455431E+02</pdfrwt>
<pdfrwt beam="2">  1       -2 0.23585643E-03 0.91455431E+02</pdfrwt>
<totfact> 0.24114146E+05</totfact>
</mgrwt>
</event>
<event>
 5    1  0.3957498E+001  0.9240711E+02  0.7546771E-02  0.1297125E+00
          2   -1    0    0  501    0  0.00000000000E+00  0.00000000000E+00  0.17580817624E+03  0.17580817624E+03  0.00000000000E+00 0. -1.
         -2   -1    0    0    0  501 -0.00000000000E+00 -0.00000000000E+00 -0.12142601781E+02  0.12142601781E+02  0.00000000000E+00 0.  1.
         23    2    1    2    0    0  0.00000000000E+00  0.00000000000E+00  0.16366557446E+03  0.18795077802E+03  0.92407113883E+02 0.  0.
          2    1    3    3  502    0 -0.16248327239E+02 -0.36629295448E+02  0.12861591307E+03  0.13471364637E+03  0.00000000000E+00 0. -1.
         -2    1    3    3    0  502  0.16248327239E+02  0.36629295448E+02  0.35049661387E+02  0.53237131651E+02  0.00000000000E+00 0.  1.
<mgrwt>
<rscale>  0 0.92407114E+02</rscale>
<asrwt>0</asrwt>
<pdfrwt beam="1">  1        2 0.27047410E-01 0.92407114E+02</pdfrwt>
<pdfrwt beam="2">  1       -2 0.18680927E-02 0.92407114E+02</pdfrwt>
<totfact> 0.14244843E+05</totfact>
</mgrwt>
</event>
<event>
 5    1  0.3957498E+001  0.9163669E+02  0.7546771E-02  0.1298936E+00
         -1   -1    0    0    0  501 -0.00000000000E+00  0.00000000000E+00  0.10828510047E+01  0.10828510047E+01  0.00000000000E+00 0.  1.
          1   -1    0    0  501    0  0.00000000000E+00 -0.00000000000E+00 -0.19386977961E+04  0.19386977961E+04  0.00000000000E+00 0. -1.
         23    2    1    2    0    0  0.00000000000E+00  0.00000000000E+00 -0.19376149451E+04  0.19397806471E+04  0.91636692571E+02 0.  0.
          2    1    3    3  502    0 -0.26926026214E+02 -0.49706760680E+01 -0.17464609687E+04  0.17466755949E+04  0.00000000000E+00 0. -1.
         -2    1    3    3    0  502  0.26926026214E+02  0.49706760680E+01 -0.19115397637E+03  0.19310505221E+03  0.00000000000E+00 0.  1.
<mgrwt>
<rscale>  0 0.91636693E+02</rscale>
<asrwt>0</asrwt>
<pdfrwt beam="2">  1        1 0.29826208E+00 0.91636693E+02</pdfrwt>
<pdfrwt beam="1">  1       -1 0.16659197E-03 0.91636693E+02</pdfrwt>
<totfact> 0.82334296E+04</totfact>
</mgrwt>
</event>
<event>
 5    1  0.3957498E+001  0.9110995E+02  0.7546771E-02  0.1300186E+00
          2   -1    0    0  501    0  0.00000000000E+00  0.00000000000E+00  0.11736710679E+04  0.11736710679E+04  0.00000000000E+00 0. -1.
         -2   -1    0    0    0  501 -0.00000000000E+00 -0.00000000000E+00 -0.17681750923E+01  0.17681750923E+01  0.00000000000E+00 0.  1.
         23    2    1    2    0    0  0.00000000000E+00  0.00000000000E+00  0.11719028928E+04  0.11754392430E+04  0.91109954424E+02 0.  0.
          2    1    3    3  502    0  0.15177015749E+02 -0.35739787320E+02  0.89331230843E+03  0.89415577759E+03  0.00000000000E+00 0. -1.
         -2    1    3    3    0  502 -0.15177015749E+02  0.35739787320E+02  0.27859058434E+03  0.28128346536E+03  0.00000000000E+00 0.  1.
<mgrwt>
<rscale>  0 0.91109954E+02</rscale>
<asrwt>0</asrwt>
<pdfrwt beam="1">  1        2 0.18056416E+00 0.91109954E+02</pdfrwt>
<pdfrwt beam="2">  1       -2 0.27202787E-03 0.91109954E+02</pdfrwt>
<totfact> 0.24971446E+05</totfact>
</mgrwt>
</event>
<event>
 5    1  0.3957498E+001  0.9125597E+02  0.7546771E-02  0.1299838E+00
         -2   -1    0    0    0  501 -0.00000000000E+00  0.00000000000E+00  0.13801152263E+01  0.13801152263E+01  0.00000000000E+00 0.  1.
          2   -1    0    0  501    0  0.00000000000E+00 -0.00000000000E+00 -0.15085066699E+04  0.15085066699E+04  0.00000000000E+00 0. -1.
         23    2    1    2    0    0  0.00000000000E+00  0.00000000000E+00 -0.15071265547E+04  0.15098867852E+04  0.91255970196E+02 0.  0.
          2    1    3    3  502    0 -0.25760006674E+02 -0.31993776652E+02 -0.10822899923E+04  0.10830691609E+04  0.00000000000E+00 0. -1.
         -2    1    3    3    0  502  0.25760006674E+02  0.31993776652E+02 -0.42483656238E+03  0.42681762431E+03  0.00000000000E+00 0.  1.
<mgrwt>
<rscale>  0 0.91255970E+02</rscale>
<asrwt>0</asrwt>
<pdfrwt beam="2">  1        2 0.23207803E+00 0.91255970E+02</pdfrwt>
<pdfrwt beam="1">  1       -2 0.21232534E-03 0.91255970E+02</pdfrwt>
<totfact> 0.23491757E+05</totfact>
</mgrwt>
</event>
<event>
 5    1  0.3957498E+001  0.9136580E+02  0.7546771E-02  0.1299578E+00
         -1   -1    0    0    0  501 -0.00000000000E+00  0.00000000000E+00  0.80223016701E+02  0.80223016701E+02  0.00000000000E+00 0.  1.
          1   -1    0    0  501    0  0.00000000000E+00 -0.00000000000E+00 -0.26014069500E+02  0.26014069500E+02  0.00000000000E+00 0. -1.
         23    2    1    2    0    0  0.00000000000E+00  0.00000000000E+00  0.54208947201E+02  0.10623708620E+03  0.91365795175E+02 0.  0.
          2    1    3    3  502    0  0.85984706416E+01 -0.26115726129E+02 -0.15315987674E+02  0.31472914181E+02  0.00000000000E+00 0. -1.
         -2    1    3    3    0  502 -0.85984706416E+01  0.26115726129E+02  0.69524934875E+02  0.74764172021E+02  0.00000000000E+00 0.  1.
<mgrwt>
<rscale>  0 0.91365795E+02</rscale>
<asrwt>0</asrwt>
<pdfrwt beam="2">  1        1 0.40021646E-02 0.91365795E+02</pdfrwt>
<pdfrwt beam="1">  1       -1 0.12342002E-01 0.91365795E+02</pdfrwt>
<totfact> 0.84163025E+04</totfact>
</mgrwt>
</event>
<event>
 5    1  0.3957498E+001  0.9129514E+02  0.7546771E-02  0.1299745E+00
         -1   -1    0    0    0  501 -0.00000000000E+00  0.00000000000E+00  0.11173920310E+02  0.11173920310E+02  0.00000000000E+00 0.  1.
          1   -1    0    0  501    0  0.00000000000E+00 -0.00000000000E+00 -0.18647892974E+03  0.18647892974E+03  0.00000000000E+00 0. -1.
         23    2    1    2    0    0  0.00000000000E+00  0.00000000000E+00 -0.17530500943E+03  0.19765285006E+03  0.91295141174E+02 0.  0.
          2    1    3    3  502    0  0.11681503751E+02  0.36687965087E+02 -0.34566743999E+02  0.51742865236E+02  0.00000000000E+00 0.  1.
         -2    1    3    3    0  502 -0.11681503751E+02 -0.36687965087E+02 -0.14073826544E+03  0.14590998482E+03  0.00000000000E+00 0. -1.
<mgrwt>
<rscale>  0 0.91295141E+02</rscale>
<asrwt>0</asrwt>
<pdfrwt beam="2">  1        1 0.28689065E-01 0.91295141E+02</pdfrwt>
<pdfrwt beam="1">  1       -1 0.17190648E-02 0.91295141E+02</pdfrwt>
<totfact> 0.11640935E+05</totfact>
</mgrwt>
</event>
