<event>
 5    1  0.6079230E+000  0.9035950E+02  0.7546771E-02  0.1301983E+00
          2   -1    0    0  501    0  0.00000000000E+00  0.00000000000E+00  0.37453472865E+02  0.37453472865E+02  0.00000000000E+00 0.  1.
         -2   -1    0    0    0  501 -0.00000000000E+00 -0.00000000000E+00 -0.54499882821E+02  0.54499882821E+02  0.00000000000E+00 0. -1.
         23    2    1    2    0    0  0.00000000000E+00  0.00000000000E+00 -0.17046409956E+02  0.91953355686E+02  0.90359501600E+02 0.  0.
        -13    1    3    3    0    0 -0.27785016654E+02  0.33907175458E+02  0.26015113616E+01  0.43914366207E+02  0.00000000000E+00 0. -1.
         13    1    3    3    0    0  0.27785016654E+02 -0.33907175458E+02 -0.19647921318E+02  0.48038989479E+02  0.00000000000E+00 0.  1.
<mgrwt>
<rscale>  0 0.90359502E+02</rscale>
<asrwt>0</asrwt>
<pdfrwt beam="1">  1        2 0.57620728E-02 0.90359502E+02</pdfrwt>
<pdfrwt beam="2">  1       -2 0.83845972E-02 0.90359502E+02</pdfrwt>
<totfact> 0.96263276E+04</totfact>
</mgrwt>
</event>
<event>
 5    1  0.6079230E+000  0.9158368E+02  0.7546771E-02  0.1299061E+00
         -1   -1    0    0    0  501 -0.00000000000E+00  0.00000000000E+00  0.72429336530E+02  0.72429336530E+02  0.00000000000E+00 0.  1.
          1   -1    0    0  501    0  0.00000000000E+00 -0.00000000000E+00 -0.28950874799E+02  0.28950874799E+02  0.00000000000E+00 0. -1.
         23    2    1    2    0    0  0.00000000000E+00  0.00000000000E+00  0.43478461731E+02  0.10138021133E+03  0.91583680941E+02 0.  0.
        -13    1    3    3    0    0  0.12397555142E+02  0.40470981658E+02  0.41080878475E+02  0.58985068502E+02  0.00000000000E+00 0.  1.
         13    1    3    3    0    0 -0.12397555142E+02 -0.40470981658E+02  0.23975832562E+01  0.42395142827E+02  0.00000000000E+00 0. -1.
<mgrwt>
<rscale>  0 0.91583681E+02</rscale>
<asrwt>0</asrwt>
<pdfrwt beam="2">  1        1 0.44539808E-02 0.91583681E+02</pdfrwt>
<pdfrwt beam="1">  1       -1 0.11142975E-01 0.91583681E+02</pdfrwt>
<totfact> 0.85087185E+04</totfact>
</mgrwt>
</event>
<event>
 5    1  0.6079230E+000  0.9092805E+02  0.7546771E-02  0.1300620E+00
         -4   -1    0    0    0  501 -0.00000000000E+00  0.00000000000E+00  0.14158558658E+03  0.14158558658E+03  0.00000000000E+00 0. -1.
          4   -1    0    0  501    0  0.00000000000E+00 -0.00000000000E+00 -0.14598783890E+02  0.14598783890E+02  0.00000000000E+00 0.  1.
         23    2    1    2    0    0  0.00000000000E+00  0.00000000000E+00  0.12698680269E+03  0.15618437047E+03  0.90928045847E+02 0.  0.
        -13    1    3    3    0    0 -0.37665086650E+02 -0.11755229024E+02  0.24697886820E+02  0.46549218846E+02  0.00000000000E+00 0.  1.
         13    1    3    3    0    0  0.37665086650E+02  0.11755229024E+02  0.10228891587E+03  0.10963515162E+03  0.00000000000E+00 0. -1.
<mgrwt>
<rscale>  0 0.90928046E+02</rscale>
<asrwt>0</asrwt>
<pdfrwt beam="2">  1        4 0.22459669E-02 0.90928046E+02</pdfrwt>
<pdfrwt beam="1">  1       -4 0.21782397E-01 0.90928046E+02</pdfrwt>
<totfact> 0.23538839E+04</totfact>
</mgrwt>
</event>
<event>
 5    1  0.6079230E+000  0.8963462E+02  0.7546771E-02  0.1303739E+00
         -1   -1    0    0    0  501 -0.00000000000E+00  0.00000000000E+00  0.21406095564E+03  0.21406095564E+03  0.00000000000E+00 0.  1.
          1   -1    0    0  501    0  0.00000000000E+00 -0.00000000000E+00 -0.93832676099E+01  0.93832676099E+01  0.00000000000E+00 0. -1.
         23    2    1    2    0    0  0.00000000000E+00  0.00000000000E+00  0.20467768803E+03  0.22344422325E+03  0.89634619018E+02 0.  0.
        -13    1    3    3    0    0  0.34953896651E+02  0.27500928906E+02  0.11610941092E+03  0.12433612221E+03  0.00000000000E+00 0.  1.
         13    1    3    3    0    0 -0.34953896651E+02 -0.27500928906E+02  0.88568277112E+02  0.99108101043E+02  0.00000000000E+00 0. -1.
<mgrwt>
<rscale>  0 0.89634619E+02</rscale>
<asrwt>0</asrwt>
<pdfrwt beam="2">  1        1 0.14435798E-02 0.89634619E+02</pdfrwt>
<pdfrwt beam="1">  1       -1 0.32932451E-01 0.89634619E+02</pdfrwt>
<totfact> 0.71146506E+04</totfact>
</mgrwt>
</event>
<event>
 5    1  0.6079230E+000  0.9172010E+02  0.7546771E-02  0.1298739E+00
         -1   -1    0    0    0  501 -0.00000000000E+00  0.00000000000E+00  0.18481575247E+03  0.18481575247E+03  0.00000000000E+00 0.  1.
          1   -1    0    0  501    0  0.00000000000E+00 -0.00000000000E+00 -0.11379681236E+02  0.11379681236E+02  0.00000000000E+00 0. -1.
         23    2    1    2    0    0  0.00000000000E+00  0.00000000000E+00  0.17343607124E+03  0.19619543371E+03  0.91720103587E+02 0.  0.
        -13    1    3    3    0    0 -0.82527272666E+01 -0.42096876424E+02  0.52035466647E+02  0.67438448241E+02  0.00000000000E+00 0. -1.
         13    1    3    3    0    0  0.82527272666E+01  0.42096876424E+02  0.12140060459E+03  0.12875698547E+03  0.00000000000E+00 0.  1.
<mgrwt>
<rscale>  0 0.91720104E+02</rscale>
<asrwt>0</asrwt>
<pdfrwt beam="2">  1        1 0.17507203E-02 0.91720104E+02</pdfrwt>
<pdfrwt beam="1">  1       -1 0.28433191E-01 0.91720104E+02</pdfrwt>
<totfact> 0.69875730E+04</totfact>
</mgrwt>
</event>
<event>
 5    1  0.6079230E+000  0.8334330E+02  0.7546771E-02  0.1319823E+00
         -2   -1    0    0    0  501 -0.00000000000E+00  0.00000000000E+00  0.29394984286E+03  0.29394984286E+03  0.00000000000E+00 0.  1.
          2   -1    0    0  501    0  0.00000000000E+00 -0.00000000000E+00 -0.59075601735E+01  0.59075601735E+01  0.00000000000E+00 0. -1.
         23    2    1    2    0    0  0.00000000000E+00  0.00000000000E+00  0.28804228269E+03  0.29985740303E+03  0.83343299303E+02 0.  0.
        -13    1    3    3    0    0  0.31352222066E+02 -0.26746000172E+02  0.12177949776E+03  0.12856343349E+03  0.00000000000E+00 0.  1.
         13    1    3    3    0    0 -0.31352222066E+02  0.26746000172E+02  0.16626278492E+03  0.17129396955E+03  0.00000000000E+00 0. -1.
<mgrwt>
<rscale>  0 0.83343299E+02</rscale>
<asrwt>0</asrwt>
<pdfrwt beam="2">  1        2 0.90885564E-03 0.83343299E+02</pdfrwt>
<pdfrwt beam="1">  1       -2 0.45223041E-01 0.83343299E+02</pdfrwt>
<totfact> 0.64965461E+04</totfact>
</mgrwt>
</event>
<event>
 5    1  0.6079230E+000  0.9017857E+02  0.7546771E-02  0.1302420E+00
          2   -1    0    0  501    0  0.00000000000E+00  0.00000000000E+00  0.14548324777E+02  0.14548324777E+02  0.00000000000E+00 0. -1.
         -2   -1    0    0    0  501 -0.00000000000E+00 -0.00000000000E+00 -0.13974418360E+03  0.13974418360E+03  0.00000000000E+00 0.  1.
         23    2    1    2    0    0  0.00000000000E+00  0.00000000000E+00 -0.12519585882E+03  0.15429250838E+03  0.90178573259E+02 0.  0.
        -13    1    3    3    0    0 -0.32879220227E+02  0.15149469095E+01 -0.11532528306E+03  0.11993022596E+03  0.00000000000E+00 0.  1.
         13    1    3    3    0    0  0.32879220227E+02 -0.15149469095E+01 -0.98705757655E+01  0.34362282416E+02  0.00000000000E+00 0. -1.
<mgrwt>
<rscale>  0 0.90178573E+02</rscale>
<asrwt>0</asrwt>
<pdfrwt beam="1">  1        2 0.22382040E-02 0.90178573E+02</pdfrwt>
<pdfrwt beam="2">  1       -2 0.21499104E-01 0.90178573E+02</pdfrwt>
<totfact> 0.73663792E+04</totfact>
</mgrwt>
</event>
<event>
 5    1  0.6079230E+000  0.8981192E+02  0.7546771E-02  0.1303308E+00
          1   -1    0    0  501    0  0.00000000000E+00  0.00000000000E+00  0.16724399355E+02  0.16724399355E+02  0.00000000000E+00 0. -1.
         -1   -1    0    0    0  501 -0.00000000000E+00 -0.00000000000E+00 -0.12057505765E+03  0.12057505765E+03  0.00000000000E+00 0.  1.
         23    2    1    2    0    0  0.00000000000E+00  0.00000000000E+00 -0.10385065830E+03  0.13729945701E+03  0.89811923849E+02 0.  0.
        -13    1    3    3    0    0  0.21530885587E+02  0.37726960711E+02 -0.34518925477E+02  0.55483860850E+02  0.00000000000E+00 0. -1.
         13    1    3    3    0    0 -0.21530885587E+02 -0.37726960711E+02 -0.69331732819E+02  0.81815596156E+02  0.00000000000E+00 0.  1.
<mgrwt>
<rscale>  0 0.89811924E+02</rscale>
<asrwt>0</asrwt>
<pdfrwt beam="1">  1        1 0.25729845E-02 0.89811924E+02</pdfrwt>
<pdfrwt beam="2">  1       -1 0.18550009E-01 0.89811924E+02</pdfrwt>
<totfact> 0.81570213E+04</totfact>
</mgrwt>
</event>
<event>
 5    1  0.6079230E+000  0.9126479E+02  0.7546771E-02  0.1299817E+00
          3   -1    0    0  501    0  0.00000000000E+00  0.00000000000E+00  0.76496531919E+01  0.76496531919E+01  0.00000000000E+00 0. -1.
         -3   -1    0    0    0  501 -0.00000000000E+00 -0.00000000000E+00 -0.27221046313E+03  0.27221046313E+03  0.00000000000E+00 0.  1.
         23    2    1    2    0    0  0.00000000000E+00  0.00000000000E+00 -0.26456080994E+03  0.27986011632E+03  0.91264793609E+02 0.  0.
        -13    1    3    3    0    0 -0.44964137474E+02  0.72846986781E+01 -0.12389647716E+03  0.13200446033E+03  0.00000000000E+00 0.  1.
         13    1    3    3    0    0  0.44964137474E+02 -0.72846986781E+01 -0.14066433277E+03  0.14785565599E+03  0.00000000000E+00 0. -1.
<mgrwt>
<rscale>  0 0.91264794E+02</rscale>
<asrwt>0</asrwt>
<pdfrwt beam="1">  1        3 0.11768700E-02 0.91264794E+02</pdfrwt>
<pdfrwt beam="2">  1       -3 0.41878524E-01 0.91264794E+02</pdfrwt>
<totfact> 0.24761268E+04</totfact>
</mgrwt>
</event>
<event>
 5    1  0.6079230E+000  0.8083622E+02  0.7546771E-02  0.1326695E+00
          2   -1    0    0  501    0  0.00000000000E+00  0.00000000000E+00  0.55978890490E+02  0.55978890490E+02  0.00000000000E+00 0.  1.
         -2   -1    0    0    0  501 -0.00000000000E+00 -0.00000000000E+00 -0.29182853459E+02  0.29182853459E+02  0.00000000000E+00 0. -1.
         23    2    1    2    0    0  0.00000000000E+00  0.00000000000E+00  0.26796037030E+02  0.85161743949E+02  0.80836223513E+02 0.  0.
        -13    1    3    3    0    0 -0.35802686828E+02 -0.12329427540E+02  0.28288571583E+02  0.47266166015E+02  0.00000000000E+00 0.  1.
         13    1    3    3    0    0  0.35802686828E+02  0.12329427540E+02 -0.14925345523E+01  0.37895577934E+02  0.00000000000E+00 0. -1.
<mgrwt>
<rscale>  0 0.80836224E+02</rscale>
<asrwt>0</asrwt>
<pdfrwt beam="1">  1        2 0.86121369E-02 0.80836224E+02</pdfrwt>
<pdfrwt beam="2">  1       -2 0.44896698E-02 0.80836224E+02</pdfrwt>
<totfact> 0.14585345E+05</totfact>
</mgrwt>
</event>
<event>
 5    1  0.6079230E+000  0.9382624E+02  0.7546771E-02  0.1293842E+00
          1   -1    0    0  501    0  0.00000000000E+00  0.00000000000E+00  0.10245939343E+03  0.10245939343E+03  0.00000000000E+00 0.  1.
         -1   -1    0    0    0  501 -0.00000000000E+00 -0.00000000000E+00 -0.21480128850E+02  0.21480128850E+02  0.00000000000E+00 0. -1.
         23    2    1    2    0    0  0.00000000000E+00  0.00000000000E+00  0.80979264585E+02  0.12393952228E+03  0.93826243085E+02 0.  0.
        -13    1    3    3    0    0  0.27199217173E+02  0.37193451270E+02  0.28846492234E+02  0.54362398277E+02  0.00000000000E+00 0.  1.
         13    1    3    3    0    0 -0.27199217173E+02 -0.37193451270E+02  0.52132772351E+02  0.69577124008E+02  0.00000000000E+00 0. -1.
<mgrwt>
<rscale>  0 0.93826243E+02</rscale>
<asrwt>0</asrwt>
<pdfrwt beam="1">  1        1 0.15762983E-01 0.93826243E+02</pdfrwt>
<pdfrwt beam="2">  1       -1 0.33046353E-02 0.93826243E+02</pdfrwt>
<totfact> 0.96982810E+04</totfact>
</mgrwt>
</event>
<event>
 5    1  0.6079230E+000  0.9137131E+02  0.7546771E-02  0.1299564E+00
          2   -1    0    0  501    0  0.00000000000E+00  0.00000000000E+00  0.14191083555E+03  0.14191083555E+03  0.00000000000E+00 0. -1.
         -2   -1    0    0    0  501 -0.00000000000E+00 -0.00000000000E+00 -0.14707677795E+02  0.14707677795E+02  0.00000000000E+00 0.  1.
         23    2    1    2    0    0  0.00000000000E+00  0.00000000000E+00  0.12720315775E+03  0.15661851334E+03  0.91371305012E+02 0.  0.
        -13    1    3    3    0    0 -0.23598111083E+02  0.38186476970E+02  0.49046859458E+02  0.66488136482E+02  0.00000000000E+00 0.  1.
         13    1    3    3    0    0  0.23598111083E+02 -0.38186476970E+02  0.78156298296E+02  0.90130376863E+02  0.00000000000E+00 0. -1.
<mgrwt>
<rscale>  0 0.91371305E+02</rscale>
<asrwt>0</asrwt>
<pdfrwt beam="1">  1        2 0.21832435E-01 0.91371305E+02</pdfrwt>
<pdfrwt beam="2">  1       -2 0.22627198E-02 0.91371305E+02</pdfrwt>
<totfact> 0.13642187E+05</totfact>
</mgrwt>
</event>
<event>
 5    1  0.6079230E+000  0.8723767E+02  0.7546771E-02  0.1309682E+00
          4   -1    0    0  501    0  0.00000000000E+00  0.00000000000E+00  0.66587343494E+02  0.66587343494E+02  0.00000000000E+00 0. -1.
         -4   -1    0    0    0  501 -0.00000000000E+00 -0.00000000000E+00 -0.28573042262E+02  0.28573042262E+02  0.00000000000E+00 0.  1.
         23    2    1    2    0    0  0.00000000000E+00  0.00000000000E+00  0.38014301232E+02  0.95160385757E+02  0.87237674884E+02 0.  0.
        -13    1    3    3    0    0  0.40472708966E+02 -0.12237568250E+02  0.30694930034E+02  0.52249181597E+02  0.00000000000E+00 0.  1.
         13    1    3    3    0    0 -0.40472708966E+02  0.12237568250E+02  0.73193711980E+01  0.42911204160E+02  0.00000000000E+00 0. -1.
<mgrwt>
<rscale>  0 0.87237675E+02</rscale>
<asrwt>0</asrwt>
<pdfrwt beam="1">  1        4 0.10244207E-01 0.87237675E+02</pdfrwt>
<pdfrwt beam="2">  1       -4 0.43958527E-02 0.87237675E+02</pdfrwt>
<totfact> 0.30149942E+04</totfact>
</mgrwt>
</event>
<event>
 5    1  0.6079230E+000  0.9025434E+02  0.7546771E-02  0.1302237E+00
         -2   -1    0    0    0  501 -0.00000000000E+00  0.00000000000E+00  0.21632906773E+02  0.21632906773E+02  0.00000000000E+00 0.  1.
          2   -1    0    0  501    0  0.00000000000E+00 -0.00000000000E+00 -0.94137199404E+02  0.94137199404E+02  0.00000000000E+00 0. -1.
         23    2    1    2    0    0  0.00000000000E+00  0.00000000000E+00 -0.72504292631E+02  0.11577010618E+03  0.90254335265E+02 0.  0.
        -13    1    3    3    0    0 -0.69873470188E+00 -0.19429671286E+02 -0.88489477237E+02  0.90600154184E+02  0.00000000000E+00 0. -1.
         13    1    3    3    0    0  0.69873470188E+00  0.19429671286E+02  0.15985184606E+02  0.25169951993E+02  0.00000000000E+00 0.  1.
<mgrwt>
<rscale>  0 0.90254335E+02</rscale>
<asrwt>0</asrwt>
<pdfrwt beam="2">  1        2 0.14482646E-01 0.90254335E+02</pdfrwt>
<pdfrwt beam="1">  1       -2 0.33281396E-02 0.90254335E+02</pdfrwt>
<totfact> 0.12388203E+05</totfact>
</mgrwt>
</event>
<event>
 5    1  0.6079230E+000  0.8965325E+02  0.7546771E-02  0.1303694E+00
          1   -1    0    0  501    0  0.00000000000E+00  0.00000000000E+00  0.23556624034E+02  0.23556624034E+02  0.00000000000E+00 0. -1.
         -1   -1    0    0    0  501 -0.00000000000E+00 -0.00000000000E+00 -0.85301969166E+02  0.85301969166E+02  0.00000000000E+00 0.  1.
         23    2    1    2    0    0  0.00000000000E+00  0.00000000000E+00 -0.61745345132E+02  0.10885859320E+03  0.89653252412E+02 0.  0.
        -13    1    3    3    0    0  0.27523036150E+02  0.35230516052E+02 -0.26897218821E+02  0.52174391808E+02  0.00000000000E+00 0. -1.
         13    1    3    3    0    0 -0.27523036150E+02 -0.35230516052E+02 -0.34848126311E+02  0.56684201393E+02  0.00000000000E+00 0.  1.
<mgrwt>
<rscale>  0 0.89653252E+02</rscale>
<asrwt>0</asrwt>
<pdfrwt beam="1">  1        1 0.36240961E-02 0.89653252E+02</pdfrwt>
<pdfrwt beam="2">  1       -1 0.13123380E-01 0.89653252E+02</pdfrwt>
<totfact> 0.87419387E+04</totfact>
</mgrwt>
</event>
<event>
 5    1  0.6079230E+000  0.9185740E+02  0.7546771E-02  0.1298415E+00
          3   -1    0    0  501    0  0.00000000000E+00  0.00000000000E+00  0.98937833773E+02  0.98937833773E+02  0.00000000000E+00 0. -1.
         -3   -1    0    0    0  501 -0.00000000000E+00 -0.00000000000E+00 -0.21320916809E+02  0.21320916809E+02  0.00000000000E+00 0.  1.
         23    2    1    2    0    0  0.00000000000E+00  0.00000000000E+00  0.77616916964E+02  0.12025875058E+03  0.91857396504E+02 0.  0.
        -13    1    3    3    0    0 -0.23134551988E+02  0.23639721111E+02 -0.29093453006E+01  0.33204038910E+02  0.00000000000E+00 0.  1.
         13    1    3    3    0    0  0.23134551988E+02 -0.23639721111E+02  0.80526262265E+02  0.87054711672E+02  0.00000000000E+00 0. -1.
<mgrwt>
<rscale>  0 0.91857397E+02</rscale>
<asrwt>0</asrwt>
<pdfrwt beam="1">  1        3 0.15221205E-01 0.91857397E+02</pdfrwt>
<pdfrwt beam="2">  1       -3 0.32801411E-02 0.91857397E+02</pdfrwt>
<totfact> 0.32562879E+04</totfact>
</mgrwt>
</event>
<event>
 5    1  0.6079230E+000  0.8976519E+02  0.7546771E-02  0.1303421E+00
         -3   -1    0    0    0  501 -0.00000000000E+00  0.00000000000E+00  0.67071616321E+02  0.67071616321E+02  0.00000000000E+00 0.  1.
          3   -1    0    0  501    0  0.00000000000E+00 -0.00000000000E+00 -0.30034277618E+02  0.30034277618E+02  0.00000000000E+00 0. -1.
         23    2    1    2    0    0  0.00000000000E+00  0.00000000000E+00  0.37037338703E+02  0.97105893939E+02  0.89765194700E+02 0.  0.
        -13    1    3    3    0    0  0.28829722881E+01 -0.37722551441E+02  0.44641843126E+02  0.58516635020E+02  0.00000000000E+00 0.  1.
         13    1    3    3    0    0 -0.28829722881E+01  0.37722551441E+02 -0.76045044227E+01  0.38589258919E+02  0.00000000000E+00 0. -1.
<mgrwt>
<rscale>  0 0.89765195E+02</rscale>
<asrwt>0</asrwt>
<pdfrwt beam="2">  1        3 0.46206581E-02 0.89765195E+02</pdfrwt>
<pdfrwt beam="1">  1       -3 0.10318710E-01 0.89765195E+02</pdfrwt>
<totfact> 0.36398801E+04</totfact>
</mgrwt>
</event>
<event>
 5    1  0.6079230E+000  0.9314708E+02  0.7546771E-02  0.1295405E+00
         -1   -1    0    0    0  501 -0.00000000000E+00  0.00000000000E+00  0.61073933672E+02  0.61073933672E+02  0.00000000000E+00 0. -1.
          1   -1    0    0  501    0  0.00000000000E+00 -0.00000000000E+00 -0.35515881898E+02  0.35515881898E+02  0.00000000000E+00 0.  1.
         23    2    1    2    0    0  0.00000000000E+00  0.00000000000E+00  0.25558051773E+02  0.96589815570E+02  0.93147079726E+02 0.  0.
        -13    1    3    3    0    0 -0.42016103511E+02 -0.46331919900E+01 -0.74954740449E+01  0.42930193960E+02  0.00000000000E+00 0. -1.
         13    1    3    3    0    0  0.42016103511E+02  0.46331919900E+01  0.33053525818E+02  0.53659621610E+02  0.00000000000E+00 0.  1.
<mgrwt>
<rscale>  0 0.93147080E+02</rscale>
<asrwt>0</asrwt>
<pdfrwt beam="2">  1        1 0.54639819E-02 0.93147080E+02</pdfrwt>
<pdfrwt beam="1">  1       -1 0.93959897E-02 0.93147080E+02</pdfrwt>
<totfact> 0.83761596E+04</totfact>
</mgrwt>
</event>
<event>
 5    1  0.6079230E+000  0.8893974E+02  0.7546771E-02  0.1305440E+00
         -1   -1    0    0    0  501 -0.00000000000E+00  0.00000000000E+00  0.51184198374E+02  0.51184198374E+02  0.00000000000E+00 0.  1.
          1   -1    0    0  501    0  0.00000000000E+00 -0.00000000000E+00 -0.38636328929E+02  0.38636328929E+02  0.00000000000E+00 0. -1.
         23    2    1    2    0    0  0.00000000000E+00  0.00000000000E+00  0.12547869445E+02  0.89820527303E+02  0.88939744195E+02 0.  0.
        -13    1    3    3    0    0 -0.23503810032E+02 -0.32398944268E+02 -0.13294456062E+02  0.42176572143E+02  0.00000000000E+00 0.  1.
         13    1    3    3    0    0  0.23503810032E+02  0.32398944268E+02  0.25842325507E+02  0.47643955161E+02  0.00000000000E+00 0. -1.
<mgrwt>
<rscale>  0 0.88939744E+02</rscale>
<asrwt>0</asrwt>
<pdfrwt beam="2">  1        1 0.59440506E-02 0.88939744E+02</pdfrwt>
<pdfrwt beam="1">  1       -1 0.78744921E-02 0.88939744E+02</pdfrwt>
<totfact> 0.96733452E+04</totfact>
</mgrwt>
</event>
<event>
 5    1  0.6079230E+000  0.9157577E+02  0.7546771E-02  0.1299080E+00
         -2   -1    0    0    0  501 -0.00000000000E+00  0.00000000000E+00  0.52905373800E+02  0.52905373800E+02  0.00000000000E+00 0.  1.
          2   -1    0    0  501    0  0.00000000000E+00 -0.00000000000E+00 -0.39627925423E+02  0.39627925423E+02  0.00000000000E+00 0. -1.
         23    2    1    2    0    0  0.00000000000E+00  0.00000000000E+00  0.13277448377E+02  0.92533299223E+02  0.91575765516E+02 0.  0.
        -13    1    3    3    0    0  0.17655931894E+02  0.22783389661E+02  0.42587617635E+02  0.51424896221E+02  0.00000000000E+00 0.  1.
         13    1    3    3    0    0 -0.17655931894E+02 -0.22783389661E+02 -0.29310169258E+02  0.41108403003E+02  0.00000000000E+00 0. -1.
<mgrwt>
<rscale>  0 0.91575766E+02</rscale>
<asrwt>0</asrwt>
<pdfrwt beam="2">  1        2 0.60966039E-02 0.91575766E+02</pdfrwt>
<pdfrwt beam="1">  1       -2 0.81392883E-02 0.91575766E+02</pdfrwt>
<totfact> 0.93959584E+04</totfact>
</mgrwt>
</event>
<event>
 5    1  0.6079230E+000  0.9109998E+02  0.7546771E-02  0.1300210E+00
          1   -1    0    0  501    0  0.00000000000E+00  0.00000000000E+00  0.62764446518E+02  0.62764446518E+02  0.00000000000E+00 0. -1.
         -1   -1    0    0    0  501 -0.00000000000E+00 -0.00000000000E+00 -0.33056955910E+02  0.33056955910E+02  0.00000000000E+00 0.  1.
         23    2    1    2    0    0  0.00000000000E+00  0.00000000000E+00  0.29707490608E+02  0.95821402429E+02  0.91099978953E+02 0.  0.
        -13    1    3    3    0    0 -0.28907821080E+01 -0.27820786255E+02 -0.22960106286E+02  0.36187280220E+02  0.00000000000E+00 0.  1.
         13    1    3    3    0    0  0.28907821080E+01  0.27820786255E+02  0.52667596894E+02  0.59634122209E+02  0.00000000000E+00 0. -1.
<mgrwt>
<rscale>  0 0.91099979E+02</rscale>
<asrwt>0</asrwt>
<pdfrwt beam="1">  1        1 0.96560686E-02 0.91099979E+02</pdfrwt>
<pdfrwt beam="2">  1       -1 0.50856856E-02 0.91099979E+02</pdfrwt>
<totfact> 0.97259091E+04</totfact>
</mgrwt>
</event>
<event>
 5    1  0.6079230E+000  0.9255139E+02  0.7546771E-02  0.1296788E+00
         -3   -1    0    0    0  501 -0.00000000000E+00  0.00000000000E+00  0.24565347990E+03  0.24565347990E+03  0.00000000000E+00 0.  1.
          3   -1    0    0  501    0  0.00000000000E+00 -0.00000000000E+00 -0.87173195369E+01  0.87173195369E+01  0.00000000000E+00 0. -1.
         23    2    1    2    0    0  0.00000000000E+00  0.00000000000E+00  0.23693616037E+03  0.25437079944E+03  0.92551388530E+02 0.  0.
        -13    1    3    3    0    0 -0.20932860680E+01 -0.46219346614E+02  0.11596409554E+03  0.12485303882E+03  0.00000000000E+00 0.  1.
         13    1    3    3    0    0  0.20932860680E+01  0.46219346614E+02  0.12097206482E+03  0.12951776062E+03  0.00000000000E+00 0. -1.
<mgrwt>
<rscale>  0 0.92551389E+02</rscale>
<asrwt>0</asrwt>
<pdfrwt beam="2">  1        3 0.13411263E-02 0.92551389E+02</pdfrwt>
<pdfrwt beam="1">  1       -3 0.37792838E-01 0.92551389E+02</pdfrwt>
<totfact> 0.24882213E+04</totfact>
</mgrwt>
</event>
<event>
 5    1  0.6079230E+000  0.9109959E+02  0.7546771E-02  0.1300211E+00
         -2   -1    0    0    0  501 -0.00000000000E+00  0.00000000000E+00  0.89003194272E+01  0.89003194272E+01  0.00000000000E+00 0.  1.
          2   -1    0    0  501    0  0.00000000000E+00 -0.00000000000E+00 -0.23311339513E+03  0.23311339513E+03  0.00000000000E+00 0. -1.
         23    2    1    2    0    0  0.00000000000E+00  0.00000000000E+00 -0.22421307570E+03  0.24201371456E+03  0.91099586814E+02 0.  0.
        -13    1    3    3    0    0  0.32701898062E+02 -0.21104210157E+02 -0.17497177355E+03  0.17924821718E+03  0.00000000000E+00 0. -1.
         13    1    3    3    0    0 -0.32701898062E+02  0.21104210157E+02 -0.49241302153E+02  0.62765497376E+02  0.00000000000E+00 0.  1.
<mgrwt>
<rscale>  0 0.91099587E+02</rscale>
<asrwt>0</asrwt>
<pdfrwt beam="2">  1        2 0.35863602E-01 0.91099587E+02</pdfrwt>
<pdfrwt beam="1">  1       -2 0.13692798E-02 0.91099587E+02</pdfrwt>
<totfact> 0.16395451E+05</totfact>
</mgrwt>
</event>
<event>
 5    1  0.6079230E+000  0.8824597E+02  0.7546771E-02  0.1307156E+00
          2   -1    0    0  501    0  0.00000000000E+00  0.00000000000E+00  0.22749505729E+03  0.22749505729E+03  0.00000000000E+00 0. -1.
         -2   -1    0    0    0  501 -0.00000000000E+00 -0.00000000000E+00 -0.85577156287E+01  0.85577156287E+01  0.00000000000E+00 0.  1.
         23    2    1    2    0    0  0.00000000000E+00  0.00000000000E+00  0.21893734166E+03  0.23605277292E+03  0.88245974576E+02 0.  0.
        -13    1    3    3    0    0 -0.29569620632E+02  0.29984427599E+02  0.74243685043E+02  0.85355451680E+02  0.00000000000E+00 0.  1.
         13    1    3    3    0    0  0.29569620632E+02 -0.29984427599E+02  0.14469365662E+03  0.15069732124E+03  0.00000000000E+00 0. -1.
<mgrwt>
<rscale>  0 0.88245975E+02</rscale>
<asrwt>0</asrwt>
<pdfrwt beam="1">  1        2 0.34999235E-01 0.88245975E+02</pdfrwt>
<pdfrwt beam="2">  1       -2 0.13165718E-02 0.88245975E+02</pdfrwt>
<totfact> 0.17693892E+05</totfact>
</mgrwt>
</event>
<event>
 5    1  0.6079230E+000  0.9063375E+02  0.7546771E-02  0.1301324E+00
          1   -1    0    0  501    0  0.00000000000E+00  0.00000000000E+00  0.18224164279E+02  0.18224164279E+02  0.00000000000E+00 0. -1.
         -1   -1    0    0    0  501 -0.00000000000E+00 -0.00000000000E+00 -0.11268659836E+03  0.11268659836E+03  0.00000000000E+00 0.  1.
         23    2    1    2    0    0  0.00000000000E+00  0.00000000000E+00 -0.94462434076E+02  0.13091076263E+03  0.90633748251E+02 0.  0.
        -13    1    3    3    0    0 -0.20324262130E+02  0.23684831722E+02 -0.94689416493E+02  0.99700213042E+02  0.00000000000E+00 0.  1.
         13    1    3    3    0    0  0.20324262130E+02 -0.23684831722E+02  0.22698241639E+00  0.31210549593E+02  0.00000000000E+00 0. -1.
<mgrwt>
<rscale>  0 0.90633748E+02</rscale>
<asrwt>0</asrwt>
<pdfrwt beam="1">  1        1 0.28037175E-02 0.90633748E+02</pdfrwt>
<pdfrwt beam="2">  1       -1 0.17336400E-01 0.90633748E+02</pdfrwt>
<totfact> 0.80765078E+04</totfact>
</mgrwt>
</event>
<event>
 5    1  0.6079230E+000  0.8868494E+02  0.7546771E-02  0.1306068E+00
         -2   -1    0    0    0  501 -0.00000000000E+00  0.00000000000E+00  0.44382354213E+02  0.44382354213E+02  0.00000000000E+00 0.  1.
          2   -1    0    0  501    0  0.00000000000E+00 -0.00000000000E+00 -0.44302618574E+02  0.44302618574E+02  0.00000000000E+00 0. -1.
         23    2    1    2    0    0  0.00000000000E+00  0.00000000000E+00  0.79735638992E-01  0.88684972786E+02  0.88684936941E+02 0.  0.
        -13    1    3    3    0    0  0.65442032214E+01 -0.29186348086E+02 -0.32695218340E+02  0.44313054654E+02  0.00000000000E+00 0. -1.
         13    1    3    3    0    0 -0.65442032214E+01  0.29186348086E+02  0.32774953979E+02  0.44371918133E+02  0.00000000000E+00 0.  1.
<mgrwt>
<rscale>  0 0.88684937E+02</rscale>
<asrwt>0</asrwt>
<pdfrwt beam="2">  1        2 0.68157875E-02 0.88684937E+02</pdfrwt>
<pdfrwt beam="1">  1       -2 0.68280545E-02 0.88684937E+02</pdfrwt>
<totfact> 0.10603773E+05</totfact>
</mgrwt>
</event>
<event>
 5    1  0.6079230E+000  0.9292554E+02  0.7546771E-02  0.1295918E+00
         -2   -1    0    0    0  501 -0.00000000000E+00  0.00000000000E+00  0.67522970097E+02  0.67522970097E+02  0.00000000000E+00 0. -1.
          2   -1    0    0  501    0  0.00000000000E+00 -0.00000000000E+00 -0.31971181126E+02  0.31971181126E+02  0.00000000000E+00 0.  1.
         23    2    1    2    0    0  0.00000000000E+00  0.00000000000E+00  0.35551788972E+02  0.99494151223E+02  0.92925542390E+02 0.  0.
        -13    1    3    3    0    0 -0.32563249089E+02  0.10386572176E+02 -0.15921717162E+02  0.37706062513E+02  0.00000000000E+00 0.  1.
         13    1    3    3    0    0  0.32563249089E+02 -0.10386572176E+02  0.51473506133E+02  0.61788088710E+02  0.00000000000E+00 0. -1.
<mgrwt>
<rscale>  0 0.92925542E+02</rscale>
<asrwt>0</asrwt>
<pdfrwt beam="2">  1        2 0.49186433E-02 0.92925542E+02</pdfrwt>
<pdfrwt beam="1">  1       -2 0.10388149E-01 0.92925542E+02</pdfrwt>
<totfact> 0.85053175E+04</totfact>
</mgrwt>
</event>
<event>
 5    1  0.6079230E+000  0.9265001E+02  0.7546771E-02  0.1296558E+00
          1   -1    0    0  501    0  0.00000000000E+00  0.00000000000E+00  0.46040415185E+02  0.46040415185E+02  0.00000000000E+00 0. -1.
         -1   -1    0    0    0  501 -0.00000000000E+00 -0.00000000000E+00 -0.46611350680E+02  0.46611350680E+02  0.00000000000E+00 0.  1.
         23    2    1    2    0    0  0.00000000000E+00  0.00000000000E+00 -0.57093549552E+00  0.92651765865E+02  0.92650006749E+02 0.  0.
        -13    1    3    3    0    0 -0.46072115708E+02 -0.42218960000E+01 -0.26395910206E+01  0.46340389429E+02  0.00000000000E+00 0.  1.
         13    1    3    3    0    0  0.46072115708E+02  0.42218960000E+01  0.20686555251E+01  0.46311376436E+02  0.00000000000E+00 0. -1.
<mgrwt>
<rscale>  0 0.92650007E+02</rscale>
<asrwt>0</asrwt>
<pdfrwt beam="1">  1        1 0.70831408E-02 0.92650007E+02</pdfrwt>
<pdfrwt beam="2">  1       -1 0.71709770E-02 0.92650007E+02</pdfrwt>
<totfact> 0.88528147E+04</totfact>
</mgrwt>
</event>
<event>
 5    1  0.6079230E+000  0.9172024E+02  0.7546771E-02  0.1298739E+00
          2   -1    0    0  501    0  0.00000000000E+00  0.00000000000E+00  0.61431610835E+02  0.61431610835E+02  0.00000000000E+00 0. -1.
         -2   -1    0    0    0  501 -0.00000000000E+00 -0.00000000000E+00 -0.34235642529E+02  0.34235642529E+02  0.00000000000E+00 0.  1.
         23    2    1    2    0    0  0.00000000000E+00  0.00000000000E+00  0.27195968306E+02  0.95667253363E+02  0.91720241354E+02 0.  0.
        -13    1    3    3    0    0  0.24679701669E+02  0.23192092889E+02  0.45850988471E+02  0.57002403378E+02  0.00000000000E+00 0. -1.
         13    1    3    3    0    0 -0.24679701669E+02 -0.23192092889E+02 -0.18655020165E+02  0.38664849986E+02  0.00000000000E+00 0.  1.
<mgrwt>
<rscale>  0 0.91720241E+02</rscale>
<asrwt>0</asrwt>
<pdfrwt beam="1">  1        2 0.94510170E-02 0.91720241E+02</pdfrwt>
<pdfrwt beam="2">  1       -2 0.52670219E-02 0.91720241E+02</pdfrwt>
<totfact> 0.10496944E+05</totfact>
</mgrwt>
</event>
<event>
 5    1  0.6079230E+000  0.9201299E+02  0.7546771E-02  0.1298049E+00
         -2   -1    0    0    0  501 -0.00000000000E+00  0.00000000000E+00  0.14704739959E+02  0.14704739959E+02  0.00000000000E+00 0. -1.
          2   -1    0    0  501    0  0.00000000000E+00 -0.00000000000E+00 -0.14393980283E+03  0.14393980283E+03  0.00000000000E+00 0.  1.
         23    2    1    2    0    0  0.00000000000E+00  0.00000000000E+00 -0.12923506287E+03  0.15864454279E+03  0.92012985397E+02 0.  0.
        -13    1    3    3    0    0 -0.19961803107E+02  0.29890131551E+02 -0.15103872645E+02  0.38987440494E+02  0.00000000000E+00 0. -1.
         13    1    3    3    0    0  0.19961803107E+02 -0.29890131551E+02 -0.11413119022E+03  0.11965710229E+03  0.00000000000E+00 0.  1.
<mgrwt>
<rscale>  0 0.92012985E+02</rscale>
<asrwt>0</asrwt>
<pdfrwt beam="2">  1        2 0.22144584E-01 0.92012985E+02</pdfrwt>
<pdfrwt beam="1">  1       -2 0.22622678E-02 0.92012985E+02</pdfrwt>
<totfact> 0.13448847E+05</totfact>
</mgrwt>
</event>
<event>
 5    1  0.6079230E+000  0.8500713E+02  0.7546771E-02  0.1315414E+00
          1   -1    0    0  501    0  0.00000000000E+00  0.00000000000E+00  0.37557612572E+02  0.37557612572E+02  0.00000000000E+00 0. -1.
         -1   -1    0    0    0  501 -0.00000000000E+00 -0.00000000000E+00 -0.48100853852E+02  0.48100853852E+02  0.00000000000E+00 0.  1.
         23    2    1    2    0    0  0.00000000000E+00  0.00000000000E+00 -0.10543241280E+02  0.85658466424E+02  0.85007134603E+02 0.  0.
        -13    1    3    3    0    0  0.16391497230E+02 -0.37763820332E+02  0.53813229526E+01  0.41518019512E+02  0.00000000000E+00 0. -1.
         13    1    3    3    0    0 -0.16391497230E+02  0.37763820332E+02 -0.15924564232E+02  0.44140446911E+02  0.00000000000E+00 0.  1.
<mgrwt>
<rscale>  0 0.85007135E+02</rscale>
<asrwt>0</asrwt>
<pdfrwt beam="1">  1        1 0.57780942E-02 0.85007135E+02</pdfrwt>
<pdfrwt beam="2">  1       -1 0.74001314E-02 0.85007135E+02</pdfrwt>
<totfact> 0.10937090E+05</totfact>
</mgrwt>
</event>
<event>
 5    1  0.6079230E+000  0.8988818E+02  0.7546771E-02  0.1303123E+00
         -4   -1    0    0    0  501 -0.00000000000E+00  0.00000000000E+00  0.15350692627E+03  0.15350692627E+03  0.00000000000E+00 0.  1.
          4   -1    0    0  501    0  0.00000000000E+00 -0.00000000000E+00 -0.13158827710E+02  0.13158827710E+02  0.00000000000E+00 0. -1.
         23    2    1    2    0    0  0.00000000000E+00  0.00000000000E+00  0.14034809856E+03  0.16666575398E+03  0.89888179314E+02 0.  0.
        -13    1    3    3    0    0 -0.17266518185E+02  0.41418005700E+02  0.65488029695E+02  0.79386811749E+02  0.00000000000E+00 0.  1.
         13    1    3    3    0    0  0.17266518185E+02 -0.41418005700E+02  0.74860068866E+02  0.87278942232E+02  0.00000000000E+00 0. -1.
<mgrwt>
<rscale>  0 0.89888179E+02</rscale>
<asrwt>0</asrwt>
<pdfrwt beam="2">  1        4 0.20244351E-02 0.89888179E+02</pdfrwt>
<pdfrwt beam="1">  1       -4 0.23616449E-01 0.89888179E+02</pdfrwt>
<totfact> 0.23752192E+04</totfact>
</mgrwt>
</event>
<event>
 5    1  0.6079230E+000  0.8617897E+02  0.7546771E-02  0.1312378E+00
         -4   -1    0    0    0  501 -0.00000000000E+00  0.00000000000E+00  0.19489900800E+03  0.19489900800E+03  0.00000000000E+00 0.  1.
          4   -1    0    0  501    0  0.00000000000E+00 -0.00000000000E+00 -0.95264924181E+01  0.95264924181E+01  0.00000000000E+00 0. -1.
         23    2    1    2    0    0  0.00000000000E+00  0.00000000000E+00  0.18537251558E+03  0.20442550042E+03  0.86178974745E+02 0.  0.
        -13    1    3    3    0    0 -0.33987520796E+02  0.26484043806E+02  0.93598133108E+02  0.10303963639E+03  0.00000000000E+00 0.  1.
         13    1    3    3    0    0  0.33987520796E+02 -0.26484043806E+02  0.91774382474E+02  0.10138586403E+03  0.00000000000E+00 0. -1.
<mgrwt>
<rscale>  0 0.86178975E+02</rscale>
<asrwt>0</asrwt>
<pdfrwt beam="2">  1        4 0.14656144E-02 0.86178975E+02</pdfrwt>
<pdfrwt beam="1">  1       -4 0.29984460E-01 0.86178975E+02</pdfrwt>
<totfact> 0.24635046E+04</totfact>
</mgrwt>
</event>
<event>
 5    1  0.6079230E+000  0.7833966E+02  0.7546771E-02  0.1333830E+00
         -2   -1    0    0    0  501 -0.00000000000E+00  0.00000000000E+00  0.34069325849E+01  0.34069325849E+01  0.00000000000E+00 0.  1.
          2   -1    0    0  501    0  0.00000000000E+00 -0.00000000000E+00 -0.45033930492E+03  0.45033930492E+03  0.00000000000E+00 0. -1.
         23    2    1    2    0    0  0.00000000000E+00  0.00000000000E+00 -0.44693237234E+03  0.45374623751E+03  0.78339661787E+02 0.  0.
        -13    1    3    3    0    0  0.38253899367E+02 -0.81582875253E+01 -0.21137596901E+03  0.21496445926E+03  0.00000000000E+00 0.  1.
         13    1    3    3    0    0 -0.38253899367E+02  0.81582875253E+01 -0.23555640333E+03  0.23878177825E+03  0.00000000000E+00 0. -1.
<mgrwt>
<rscale>  0 0.78339662E+02</rscale>
<asrwt>0</asrwt>
<pdfrwt beam="2">  1        2 0.69282949E-01 0.78339662E+02</pdfrwt>
<pdfrwt beam="1">  1       -2 0.52414363E-03 0.78339662E+02</pdfrwt>
<totfact> 0.31009753E+05</totfact>
</mgrwt>
</event>
<event>
 5    1  0.6079230E+000  0.9101877E+02  0.7546771E-02  0.1300403E+00
         -1   -1    0    0    0  501 -0.00000000000E+00  0.00000000000E+00  0.95004470583E+01  0.95004470583E+01  0.00000000000E+00 0.  1.
          1   -1    0    0  501    0  0.00000000000E+00 -0.00000000000E+00 -0.21800070342E+03  0.21800070342E+03  0.00000000000E+00 0. -1.
         23    2    1    2    0    0  0.00000000000E+00  0.00000000000E+00 -0.20850025636E+03  0.22750115048E+03  0.91018770405E+02 0.  0.
        -13    1    3    3    0    0 -0.31743221279E+02 -0.19229779966E+02 -0.38418499333E+02  0.53417203462E+02  0.00000000000E+00 0.  1.
         13    1    3    3    0    0  0.31743221279E+02  0.19229779966E+02 -0.17008175703E+03  0.17408394701E+03  0.00000000000E+00 0. -1.
<mgrwt>
<rscale>  0 0.91018770E+02</rscale>
<asrwt>0</asrwt>
<pdfrwt beam="2">  1        1 0.33538570E-01 0.91018770E+02</pdfrwt>
<pdfrwt beam="1">  1       -1 0.14616072E-02 0.91018770E+02</pdfrwt>
<totfact> 0.12096967E+05</totfact>
</mgrwt>
</event>
<event>
 5    1  0.6079230E+000  0.8982063E+02  0.7546771E-02  0.1303287E+00
         -2   -1    0    0    0  501 -0.00000000000E+00  0.00000000000E+00  0.22705868545E+02  0.22705868545E+02  0.00000000000E+00 0.  1.
          2   -1    0    0  501    0  0.00000000000E+00 -0.00000000000E+00 -0.88828867944E+02  0.88828867944E+02  0.00000000000E+00 0. -1.
         23    2    1    2    0    0  0.00000000000E+00  0.00000000000E+00 -0.66122999400E+02  0.11153473649E+03  0.89820634567E+02 0.  0.
        -13    1    3    3    0    0  0.30786481982E+02  0.23166305562E+02 -0.44082411736E+01  0.38780378756E+02  0.00000000000E+00 0.  1.
         13    1    3    3    0    0 -0.30786481982E+02 -0.23166305562E+02 -0.61714758226E+02  0.72754357733E+02  0.00000000000E+00 0. -1.
<mgrwt>
<rscale>  0 0.89820635E+02</rscale>
<asrwt>0</asrwt>
<pdfrwt beam="2">  1        2 0.13665980E-01 0.89820635E+02</pdfrwt>
<pdfrwt beam="1">  1       -2 0.34932105E-02 0.89820635E+02</pdfrwt>
<totfact> 0.12340181E+05</totfact>
</mgrwt>
</event>
<event>
 5    1  0.6079230E+000  0.8996938E+02  0.7546771E-02  0.1302926E+00
          1   -1    0    0  501    0  0.00000000000E+00  0.00000000000E+00  0.14108180888E+02  0.14108180888E+02  0.00000000000E+00 0. -1.
         -1   -1    0    0    0  501 -0.00000000000E+00 -0.00000000000E+00 -0.14343608168E+03  0.14343608168E+03  0.00000000000E+00 0.  1.
         23    2    1    2    0    0  0.00000000000E+00  0.00000000000E+00 -0.12932790079E+03  0.15754426257E+03  0.89969376706E+02 0.  0.
        -13    1    3    3    0    0 -0.24905502656E+02  0.27045226226E+02 -0.11005374493E+03  0.11603256050E+03  0.00000000000E+00 0.  1.
         13    1    3    3    0    0  0.24905502656E+02 -0.27045226226E+02 -0.19274155865E+02  0.41511702066E+02  0.00000000000E+00 0. -1.
<mgrwt>
<rscale>  0 0.89969377E+02</rscale>
<asrwt>0</asrwt>
<pdfrwt beam="1">  1        1 0.21704896E-02 0.89969377E+02</pdfrwt>
<pdfrwt beam="2">  1       -1 0.22067087E-01 0.89969377E+02</pdfrwt>
<totfact> 0.78220725E+04</totfact>
</mgrwt>
</event>
<event>
 5    1  0.6079230E+000  0.9888023E+02  0.7546771E-02  0.1282668E+00
         -2   -1    0    0    0  501 -0.00000000000E+00  0.00000000000E+00  0.92960739390E+01  0.92960739390E+01  0.00000000000E+00 0.  1.
          2   -1    0    0  501    0  0.00000000000E+00 -0.00000000000E+00 -0.26294164020E+03  0.26294164020E+03  0.00000000000E+00 0. -1.
         23    2    1    2    0    0  0.00000000000E+00  0.00000000000E+00 -0.25364556626E+03  0.27223771414E+03  0.98880229145E+02 0.  0.
        -13    1    3    3    0    0 -0.40726920747E+01  0.48673796857E+02 -0.10574688069E+03  0.11648230808E+03  0.00000000000E+00 0.  1.
         13    1    3    3    0    0  0.40726920747E+01 -0.48673796857E+02 -0.14789868557E+03  0.15575540605E+03  0.00000000000E+00 0. -1.
<mgrwt>
<rscale>  0 0.98880229E+02</rscale>
<asrwt>0</asrwt>
<pdfrwt beam="2">  1        2 0.40452554E-01 0.98880229E+02</pdfrwt>
<pdfrwt beam="1">  1       -2 0.14301654E-02 0.98880229E+02</pdfrwt>
<totfact> 0.13752227E+05</totfact>
</mgrwt>
</event>
<event>
 5    1  0.6079230E+000  0.8168076E+02  0.7546771E-02  0.1324348E+00
         -1   -1    0    0    0  501 -0.00000000000E+00  0.00000000000E+00  0.17355952085E+03  0.17355952085E+03  0.00000000000E+00 0.  1.
          1   -1    0    0  501    0  0.00000000000E+00 -0.00000000000E+00 -0.96101701450E+01  0.96101701450E+01  0.00000000000E+00 0. -1.
         23    2    1    2    0    0  0.00000000000E+00  0.00000000000E+00  0.16394935071E+03  0.18316969100E+03  0.81680757237E+02 0.  0.
        -13    1    3    3    0    0 -0.15584406861E+02 -0.36303228737E+02  0.10518634486E+03  0.11236087086E+03  0.00000000000E+00 0.  1.
         13    1    3    3    0    0  0.15584406861E+02  0.36303228737E+02  0.58763005846E+02  0.70808820142E+02  0.00000000000E+00 0. -1.
<mgrwt>
<rscale>  0 0.81680757E+02</rscale>
<asrwt>0</asrwt>
<pdfrwt beam="2">  1        1 0.14784878E-02 0.81680757E+02</pdfrwt>
<pdfrwt beam="1">  1       -1 0.26701462E-01 0.81680757E+02</pdfrwt>
<totfact> 0.95946831E+04</totfact>
</mgrwt>
</event>
<event>
 5    1  0.6079230E+000  0.9012455E+02  0.7546771E-02  0.1302550E+00
          1   -1    0    0  501    0  0.00000000000E+00  0.00000000000E+00  0.46749819333E+02  0.46749819333E+02  0.00000000000E+00 0. -1.
         -1   -1    0    0    0  501 -0.00000000000E+00 -0.00000000000E+00 -0.43435647084E+02  0.43435647084E+02  0.00000000000E+00 0.  1.
         23    2    1    2    0    0  0.00000000000E+00  0.00000000000E+00  0.33141722499E+01  0.90185466417E+02  0.90124550568E+02 0.  0.
        -13    1    3    3    0    0  0.26888385709E+02  0.35231116859E+02  0.98107081647E+01  0.45392365832E+02  0.00000000000E+00 0. -1.
         13    1    3    3    0    0 -0.26888385709E+02 -0.35231116859E+02 -0.64965359149E+01  0.44793100585E+02  0.00000000000E+00 0.  1.
<mgrwt>
<rscale>  0 0.90124551E+02</rscale>
<asrwt>0</asrwt>
<pdfrwt beam="1">  1        1 0.71922798E-02 0.90124551E+02</pdfrwt>
<pdfrwt beam="2">  1       -1 0.66824073E-02 0.90124551E+02</pdfrwt>
<totfact> 0.95887992E+04</totfact>
</mgrwt>
</event>
<event>
 5    1  0.6079230E+000  0.9181669E+02  0.7546771E-02  0.1298511E+00
          2   -1    0    0  501    0  0.00000000000E+00  0.00000000000E+00  0.93010393398E+02  0.93010393398E+02  0.00000000000E+00 0. -1.
         -2   -1    0    0    0  501 -0.00000000000E+00 -0.00000000000E+00 -0.22659575093E+02  0.22659575093E+02  0.00000000000E+00 0.  1.
         23    2    1    2    0    0  0.00000000000E+00  0.00000000000E+00  0.70350818305E+02  0.11566996849E+03  0.91816686797E+02 0.  0.
        -13    1    3    3    0    0 -0.28740575988E+02 -0.35774126115E+02  0.33500697068E+02  0.56816419383E+02  0.00000000000E+00 0.  1.
         13    1    3    3    0    0  0.28740575988E+02  0.35774126115E+02  0.36850121237E+02  0.58853549108E+02  0.00000000000E+00 0. -1.
<mgrwt>
<rscale>  0 0.91816687E+02</rscale>
<asrwt>0</asrwt>
<pdfrwt beam="1">  1        2 0.14309291E-01 0.91816687E+02</pdfrwt>
<pdfrwt beam="2">  1       -2 0.34860885E-02 0.91816687E+02</pdfrwt>
<totfact> 0.11772709E+05</totfact>
</mgrwt>
</event>
<event>
 5    1  0.6079230E+000  0.8935443E+02  0.7546771E-02  0.1304423E+00
         -2   -1    0    0    0  501 -0.00000000000E+00  0.00000000000E+00  0.18283669347E+03  0.18283669347E+03  0.00000000000E+00 0.  1.
          2   -1    0    0  501    0  0.00000000000E+00 -0.00000000000E+00 -0.10917138551E+02  0.10917138551E+02  0.00000000000E+00 0. -1.
         23    2    1    2    0    0  0.00000000000E+00  0.00000000000E+00  0.17191955492E+03  0.19375383203E+03  0.89354429433E+02 0.  0.
        -13    1    3    3    0    0 -0.13078058917E+02  0.37340664658E+02  0.13096034035E+03  0.13680632883E+03  0.00000000000E+00 0.  1.
         13    1    3    3    0    0  0.13078058917E+02 -0.37340664658E+02  0.40959214573E+02  0.56947503199E+02  0.00000000000E+00 0. -1.
<mgrwt>
<rscale>  0 0.89354429E+02</rscale>
<asrwt>0</asrwt>
<pdfrwt beam="2">  1        2 0.16795599E-02 0.89354429E+02</pdfrwt>
<pdfrwt beam="1">  1       -2 0.28128720E-01 0.89354429E+02</pdfrwt>
<totfact> 0.68131698E+04</totfact>
</mgrwt>
</event>
<event>
 5    1  0.6079230E+000  0.9134546E+02  0.7546771E-02  0.1299626E+00
         -1   -1    0    0    0  501 -0.00000000000E+00  0.00000000000E+00  0.94161521860E+02  0.94161521860E+02  0.00000000000E+00 0. -1.
          1   -1    0    0  501    0  0.00000000000E+00 -0.00000000000E+00 -0.22153402284E+02  0.22153402284E+02  0.00000000000E+00 0.  1.
         23    2    1    2    0    0  0.00000000000E+00  0.00000000000E+00  0.72008119576E+02  0.11631492414E+03  0.91345455791E+02 0.  0.
        -13    1    3    3    0    0  0.17069045046E+02  0.42360473642E+02  0.35385405297E+02  0.57774466107E+02  0.00000000000E+00 0.  1.
         13    1    3    3    0    0 -0.17069045046E+02 -0.42360473642E+02  0.36622714279E+02  0.58540458037E+02  0.00000000000E+00 0. -1.
<mgrwt>
<rscale>  0 0.91345456E+02</rscale>
<asrwt>0</asrwt>
<pdfrwt beam="2">  1        1 0.34082158E-02 0.91345456E+02</pdfrwt>
<pdfrwt beam="1">  1       -1 0.14486388E-01 0.91345456E+02</pdfrwt>
<totfact> 0.81882928E+04</totfact>
</mgrwt>
</event>
<event>
 5    1  0.6079230E+000  0.9235491E+02  0.7546771E-02  0.1297247E+00
          1   -1    0    0  501    0  0.00000000000E+00  0.00000000000E+00  0.25978195454E+03  0.25978195454E+03  0.00000000000E+00 0. -1.
         -1   -1    0    0    0  501 -0.00000000000E+00 -0.00000000000E+00 -0.82082584305E+01  0.82082584305E+01  0.00000000000E+00 0.  1.
         23    2    1    2    0    0  0.00000000000E+00  0.00000000000E+00  0.25157369611E+03  0.26799021297E+03  0.92354911476E+02 0.  0.
        -13    1    3    3    0    0 -0.17324881703E+02  0.36581871643E+02  0.61294179169E+02  0.73453122867E+02  0.00000000000E+00 0.  1.
         13    1    3    3    0    0  0.17324881703E+02 -0.36581871643E+02  0.19027951694E+03  0.19453709010E+03  0.00000000000E+00 0. -1.
<mgrwt>
<rscale>  0 0.92354911E+02</rscale>
<asrwt>0</asrwt>
<pdfrwt beam="1">  1        1 0.39966448E-01 0.92354911E+02</pdfrwt>
<pdfrwt beam="2">  1       -1 0.12628092E-02 0.92354911E+02</pdfrwt>
<totfact> 0.12039521E+05</totfact>
</mgrwt>
</event>
<event>
 5    1  0.6079230E+000  0.9028758E+02  0.7546771E-02  0.1302157E+00
          2   -1    0    0  501    0  0.00000000000E+00  0.00000000000E+00  0.12383499093E+03  0.12383499093E+03  0.00000000000E+00 0. -1.
         -2   -1    0    0    0  501 -0.00000000000E+00 -0.00000000000E+00 -0.16457076878E+02  0.16457076878E+02  0.00000000000E+00 0.  1.
         23    2    1    2    0    0  0.00000000000E+00  0.00000000000E+00  0.10737791405E+03  0.14029206781E+03  0.90287584217E+02 0.  0.
        -13    1    3    3    0    0  0.38853397627E+02 -0.13748387503E+02  0.25064735696E+02  0.48237388421E+02  0.00000000000E+00 0.  1.
         13    1    3    3    0    0 -0.38853397627E+02  0.13748387503E+02  0.82313178356E+02  0.92054679387E+02  0.00000000000E+00 0. -1.
<mgrwt>
<rscale>  0 0.90287584E+02</rscale>
<asrwt>0</asrwt>
<pdfrwt beam="1">  1        2 0.19051537E-01 0.90287584E+02</pdfrwt>
<pdfrwt beam="2">  1       -2 0.25318581E-02 0.90287584E+02</pdfrwt>
<totfact> 0.13474062E+05</totfact>
</mgrwt>
</event>
<event>
 5    1  0.6079230E+000  0.9172137E+02  0.7546771E-02  0.1298736E+00
         -2   -1    0    0    0  501 -0.00000000000E+00  0.00000000000E+00  0.80519242049E+02  0.80519242049E+02  0.00000000000E+00 0.  1.
          2   -1    0    0  501    0  0.00000000000E+00 -0.00000000000E+00 -0.26120491947E+02  0.26120491947E+02  0.00000000000E+00 0. -1.
         23    2    1    2    0    0  0.00000000000E+00  0.00000000000E+00  0.54398750102E+02  0.10663973400E+03  0.91721365309E+02 0.  0.
        -13    1    3    3    0    0 -0.40826177682E+02 -0.20340061183E+02  0.21659095508E+02  0.50493675756E+02  0.00000000000E+00 0.  1.
         13    1    3    3    0    0  0.40826177682E+02  0.20340061183E+02  0.32739654594E+02  0.56146058241E+02  0.00000000000E+00 0. -1.
<mgrwt>
<rscale>  0 0.91721365E+02</rscale>
<asrwt>0</asrwt>
<pdfrwt beam="2">  1        2 0.40185373E-02 0.91721365E+02</pdfrwt>
<pdfrwt beam="1">  1       -2 0.12387576E-01 0.91721365E+02</pdfrwt>
<totfact> 0.83691626E+04</totfact>
</mgrwt>
</event>
<event>
 5    1  0.6079230E+000  0.9418940E+02  0.7546771E-02  0.1293012E+00
          1   -1    0    0  501    0  0.00000000000E+00  0.00000000000E+00  0.15194368122E+02  0.15194368122E+02  0.00000000000E+00 0. -1.
         -1   -1    0    0    0  501 -0.00000000000E+00 -0.00000000000E+00 -0.14596926560E+03  0.14596926560E+03  0.00000000000E+00 0.  1.
         23    2    1    2    0    0  0.00000000000E+00  0.00000000000E+00 -0.13077489748E+03  0.16116363372E+03  0.94189399742E+02 0.  0.
        -13    1    3    3    0    0 -0.37156958823E+02 -0.14520359916E+01 -0.11483565949E+03  0.12070615845E+03  0.00000000000E+00 0.  1.
         13    1    3    3    0    0  0.37156958823E+02  0.14520359916E+01 -0.15939237986E+02  0.40457475268E+02  0.00000000000E+00 0. -1.
<mgrwt>
<rscale>  0 0.94189400E+02</rscale>
<asrwt>0</asrwt>
<pdfrwt beam="1">  1        1 0.23375952E-02 0.94189400E+02</pdfrwt>
<pdfrwt beam="2">  1       -1 0.22456809E-01 0.94189400E+02</pdfrwt>
<totfact> 0.69166441E+04</totfact>
</mgrwt>
</event>
<event>
 5    1  0.6079230E+000  0.8905262E+02  0.7546771E-02  0.1305162E+00
          4   -1    0    0  501    0  0.00000000000E+00  0.00000000000E+00  0.22645946285E+02  0.22645946285E+02  0.00000000000E+00 0. -1.
         -4   -1    0    0    0  501 -0.00000000000E+00 -0.00000000000E+00 -0.87547340803E+02  0.87547340803E+02  0.00000000000E+00 0.  1.
         23    2    1    2    0    0  0.00000000000E+00  0.00000000000E+00 -0.64901394518E+02  0.11019328709E+03  0.89052622134E+02 0.  0.
        -13    1    3    3    0    0  0.60560969519E+01 -0.40624486517E+02 -0.11177316292E+02  0.42567095444E+02  0.00000000000E+00 0. -1.
         13    1    3    3    0    0 -0.60560969519E+01  0.40624486517E+02 -0.53724078226E+02  0.67626191644E+02  0.00000000000E+00 0.  1.
<mgrwt>
<rscale>  0 0.89052622E+02</rscale>
<asrwt>0</asrwt>
<pdfrwt beam="1">  1        4 0.34839917E-02 0.89052622E+02</pdfrwt>
<pdfrwt beam="2">  1       -4 0.13468822E-01 0.89052622E+02</pdfrwt>
<totfact> 0.27537021E+04</totfact>
</mgrwt>
</event>
<event>
 5    1  0.6079230E+000  0.9266992E+02  0.7546771E-02  0.1296512E+00
         -1   -1    0    0    0  501 -0.00000000000E+00  0.00000000000E+00  0.36581064733E+02  0.36581064733E+02  0.00000000000E+00 0.  1.
          1   -1    0    0  501    0  0.00000000000E+00 -0.00000000000E+00 -0.58689611060E+02  0.58689611060E+02  0.00000000000E+00 0. -1.
         23    2    1    2    0    0  0.00000000000E+00  0.00000000000E+00 -0.22108546327E+02  0.95270675793E+02  0.92669918773E+02 0.  0.
        -13    1    3    3    0    0  0.20856485055E+01 -0.41108104954E+02  0.10819655156E+02  0.42559266445E+02  0.00000000000E+00 0.  1.
         13    1    3    3    0    0 -0.20856485055E+01  0.41108104954E+02 -0.32928201482E+02  0.52711409348E+02  0.00000000000E+00 0. -1.
<mgrwt>
<rscale>  0 0.92669919E+02</rscale>
<asrwt>0</asrwt>
<pdfrwt beam="2">  1        1 0.90291709E-02 0.92669919E+02</pdfrwt>
<pdfrwt beam="1">  1       -1 0.56278561E-02 0.92669919E+02</pdfrwt>
<totfact> 0.91805923E+04</totfact>
</mgrwt>
</event>
<event>
 5    1  0.6079230E+000  0.9353904E+02  0.7546771E-02  0.1294501E+00
          1   -1    0    0  501    0  0.00000000000E+00  0.00000000000E+00  0.10856699773E+02  0.10856699773E+02  0.00000000000E+00 0. -1.
         -1   -1    0    0    0  501 -0.00000000000E+00 -0.00000000000E+00 -0.20147818776E+03  0.20147818776E+03  0.00000000000E+00 0.  1.
         23    2    1    2    0    0  0.00000000000E+00  0.00000000000E+00 -0.19062148798E+03  0.21233488753E+03  0.93539044154E+02 0.  0.
        -13    1    3    3    0    0 -0.39942689409E+02 -0.12208720999E+01 -0.15047156754E+03  0.15568751268E+03  0.00000000000E+00 0. -1.
         13    1    3    3    0    0  0.39942689409E+02  0.12208720999E+01 -0.40149920441E+02  0.56647374850E+02  0.00000000000E+00 0.  1.
<mgrwt>
<rscale>  0 0.93539044E+02</rscale>
<asrwt>0</asrwt>
<pdfrwt beam="1">  1        1 0.16702614E-02 0.93539044E+02</pdfrwt>
<pdfrwt beam="2">  1       -1 0.30996646E-01 0.93539044E+02</pdfrwt>
<totfact> 0.64804784E+04</totfact>
</mgrwt>
</event>
<event>
 5    1  0.6079230E+000  0.8865565E+02  0.7546771E-02  0.1306140E+00
         -1   -1    0    0    0  501 -0.00000000000E+00  0.00000000000E+00  0.37814980304E+02  0.37814980304E+02  0.00000000000E+00 0.  1.
          1   -1    0    0  501    0  0.00000000000E+00 -0.00000000000E+00 -0.51962367628E+02  0.51962367628E+02  0.00000000000E+00 0. -1.
         23    2    1    2    0    0  0.00000000000E+00  0.00000000000E+00 -0.14147387324E+02  0.89777347932E+02  0.88655646372E+02 0.  0.
        -13    1    3    3    0    0 -0.21986932553E+02  0.15658669464E+02  0.28532763651E+02  0.39277700214E+02  0.00000000000E+00 0.  1.
         13    1    3    3    0    0  0.21986932553E+02 -0.15658669464E+02 -0.42680150975E+02  0.50499647719E+02  0.00000000000E+00 0. -1.
<mgrwt>
<rscale>  0 0.88655646E+02</rscale>
<asrwt>0</asrwt>
<pdfrwt beam="2">  1        1 0.79942104E-02 0.88655646E+02</pdfrwt>
<pdfrwt beam="1">  1       -1 0.58176893E-02 0.88655646E+02</pdfrwt>
<totfact> 0.10195799E+05</totfact>
</mgrwt>
</event>
<event>
 5    1  0.6079230E+000  0.1023159E+03  0.7546771E-02  0.1275500E+00
          1   -1    0    0  501    0  0.00000000000E+00  0.00000000000E+00  0.34818403400E+02  0.34818403400E+02  0.00000000000E+00 0. -1.
         -1   -1    0    0    0  501 -0.00000000000E+00 -0.00000000000E+00 -0.75165254064E+02  0.75165254064E+02  0.00000000000E+00 0.  1.
         23    2    1    2    0    0  0.00000000000E+00  0.00000000000E+00 -0.40346850664E+02  0.10998365746E+03  0.10231586656E+03 0.  0.
        -13    1    3    3    0    0 -0.48293000414E+02 -0.15488489668E+02 -0.12960335005E+02  0.52345749442E+02  0.00000000000E+00 0. -1.
         13    1    3    3    0    0  0.48293000414E+02  0.15488489668E+02 -0.27386515659E+02  0.57637908022E+02  0.00000000000E+00 0.  1.
<mgrwt>
<rscale>  0 0.10231587E+03</rscale>
<asrwt>0</asrwt>
<pdfrwt beam="1">  1        1 0.53566775E-02 0.10231587E+03</pdfrwt>
<pdfrwt beam="2">  1       -1 0.11563885E-01 0.10231587E+03</pdfrwt>
<totfact> 0.63691169E+04</totfact>
</mgrwt>
</event>
<event>
 5    1  0.6079230E+000  0.9936015E+02  0.7546771E-02  0.1281647E+00
         -1   -1    0    0    0  501 -0.00000000000E+00  0.00000000000E+00  0.79633921793E+02  0.79633921793E+02  0.00000000000E+00 0.  1.
          1   -1    0    0  501    0  0.00000000000E+00 -0.00000000000E+00 -0.30993197898E+02  0.30993197898E+02  0.00000000000E+00 0. -1.
         23    2    1    2    0    0  0.00000000000E+00  0.00000000000E+00  0.48640723895E+02  0.11062711969E+03  0.99360150916E+02 0.  0.
        -13    1    3    3    0    0 -0.15457303256E+02 -0.22163230780E+02  0.70736698422E+02  0.75721975187E+02  0.00000000000E+00 0.  1.
         13    1    3    3    0    0  0.15457303256E+02  0.22163230780E+02 -0.22095974527E+02  0.34905144504E+02  0.00000000000E+00 0. -1.
<mgrwt>
<rscale>  0 0.99360151E+02</rscale>
<asrwt>0</asrwt>
<pdfrwt beam="2">  1        1 0.47681843E-02 0.99360151E+02</pdfrwt>
<pdfrwt beam="1">  1       -1 0.12251373E-01 0.99360151E+02</pdfrwt>
<totfact> 0.67964478E+04</totfact>
</mgrwt>
</event>
<event>
 5    1  0.6079230E+000  0.9108575E+02  0.7546771E-02  0.1300244E+00
         -3   -1    0    0    0  501 -0.00000000000E+00  0.00000000000E+00  0.14788162656E+03  0.14788162656E+03  0.00000000000E+00 0.  1.
          3   -1    0    0  501    0  0.00000000000E+00 -0.00000000000E+00 -0.14025767267E+02  0.14025767267E+02  0.00000000000E+00 0. -1.
         23    2    1    2    0    0  0.00000000000E+00  0.00000000000E+00  0.13385585929E+03  0.16190739383E+03  0.91085745913E+02 0.  0.
        -13    1    3    3    0    0 -0.29277650644E+02 -0.81728357163E+00  0.12892018250E+03  0.13220537899E+03  0.00000000000E+00 0.  1.
         13    1    3    3    0    0  0.29277650644E+02  0.81728357163E+00  0.49356767944E+01  0.29702014832E+02  0.00000000000E+00 0. -1.
<mgrwt>
<rscale>  0 0.91085746E+02</rscale>
<asrwt>0</asrwt>
<pdfrwt beam="2">  1        3 0.21578105E-02 0.91085746E+02</pdfrwt>
<pdfrwt beam="1">  1       -3 0.22751018E-01 0.91085746E+02</pdfrwt>
<totfact> 0.30677735E+04</totfact>
</mgrwt>
</event>
<event>
 5    1  0.6079230E+000  0.8862150E+02  0.7546771E-02  0.1306225E+00
          2   -1    0    0  501    0  0.00000000000E+00  0.00000000000E+00  0.17277649564E+02  0.17277649564E+02  0.00000000000E+00 0. -1.
         -2   -1    0    0    0  501 -0.00000000000E+00 -0.00000000000E+00 -0.11364060475E+03  0.11364060475E+03  0.00000000000E+00 0.  1.
         23    2    1    2    0    0  0.00000000000E+00  0.00000000000E+00 -0.96362955182E+02  0.13091825431E+03  0.88621499536E+02 0.  0.
        -13    1    3    3    0    0 -0.41283899128E+02  0.42126030825E+01 -0.71130930678E+02  0.82351172736E+02  0.00000000000E+00 0.  1.
         13    1    3    3    0    0  0.41283899128E+02 -0.42126030825E+01 -0.25232024504E+02  0.48567081573E+02  0.00000000000E+00 0. -1.
<mgrwt>
<rscale>  0 0.88621500E+02</rscale>
<asrwt>0</asrwt>
<pdfrwt beam="1">  1        2 0.26580999E-02 0.88621500E+02</pdfrwt>
<pdfrwt beam="2">  1       -2 0.17483170E-01 0.88621500E+02</pdfrwt>
<totfact> 0.82394697E+04</totfact>
</mgrwt>
</event>
<event>
 5    1  0.6079230E+000  0.8909350E+02  0.7546771E-02  0.1305062E+00
         -2   -1    0    0    0  501 -0.00000000000E+00  0.00000000000E+00  0.95940191142E+02  0.95940191142E+02  0.00000000000E+00 0.  1.
          2   -1    0    0  501    0  0.00000000000E+00 -0.00000000000E+00 -0.20683855496E+02  0.20683855496E+02  0.00000000000E+00 0. -1.
         23    2    1    2    0    0  0.00000000000E+00  0.00000000000E+00  0.75256335646E+02  0.11662404664E+03  0.89093502565E+02 0.  0.
        -13    1    3    3    0    0 -0.34385300017E+02  0.84327585515E+01  0.22376649612E+01  0.35474884334E+02  0.00000000000E+00 0. -1.
         13    1    3    3    0    0  0.34385300017E+02 -0.84327585515E+01  0.73018670685E+02  0.81149162304E+02  0.00000000000E+00 0.  1.
<mgrwt>
<rscale>  0 0.89093503E+02</rscale>
<asrwt>0</asrwt>
<pdfrwt beam="2">  1        2 0.31821317E-02 0.89093503E+02</pdfrwt>
<pdfrwt beam="1">  1       -2 0.14760029E-01 0.89093503E+02</pdfrwt>
<totfact> 0.85560608E+04</totfact>
</mgrwt>
</event>
<event>
 4    1  0.6079230E+000  0.1434714E+03  0.7546771E-02  0.1208733E+00
         -2   -1    0    0    0  501 -0.00000000000E+00  0.00000000000E+00  0.16290387119E+02  0.16290387119E+02  0.00000000000E+00 0. -1.
          2   -1    0    0  501    0  0.00000000000E+00 -0.00000000000E+00 -0.31589253883E+03  0.31589253883E+03  0.00000000000E+00 0.  1.
        -13    1    1    2    0    0  0.58942658134E+00  0.67992031642E+02 -0.96864225848E+02  0.11834670270E+03  0.00000000000E+00 0.  1.
         13    1    1    2    0    0 -0.58942658134E+00 -0.67992031642E+02 -0.20273792586E+03  0.21383622325E+03  0.00000000000E+00 0. -1.
<mgrwt>
<rscale>  0 0.14347142E+03</rscale>
<asrwt>0</asrwt>
<pdfrwt beam="2">  1        2 0.48598849E-01 0.14347142E+03</pdfrwt>
<pdfrwt beam="1">  1       -2 0.25062136E-02 0.14347142E+03</pdfrwt>
<totfact> 0.52964039E+04</totfact>
</mgrwt>
</event>
<event>
 5    1  0.6079230E+000  0.8924914E+02  0.7546771E-02  0.1304680E+00
         -1   -1    0    0    0  501 -0.00000000000E+00  0.00000000000E+00  0.11454204763E+02  0.11454204763E+02  0.00000000000E+00 0.  1.
          1   -1    0    0  501    0  0.00000000000E+00 -0.00000000000E+00 -0.17385340011E+03  0.17385340011E+03  0.00000000000E+00 0. -1.
         23    2    1    2    0    0  0.00000000000E+00  0.00000000000E+00 -0.16239919535E+03  0.18530760487E+03  0.89249144393E+02 0.  0.
        -13    1    3    3    0    0  0.24047737275E+02  0.35931191955E+02 -0.58265390694E+02  0.72554806706E+02  0.00000000000E+00 0.  1.
         13    1    3    3    0    0 -0.24047737275E+02 -0.35931191955E+02 -0.10413380465E+03  0.11275279817E+03  0.00000000000E+00 0. -1.
<mgrwt>
<rscale>  0 0.89249144E+02</rscale>
<asrwt>0</asrwt>
<pdfrwt beam="2">  1        1 0.26746678E-01 0.89249144E+02</pdfrwt>
<pdfrwt beam="1">  1       -1 0.17621853E-02 0.89249144E+02</pdfrwt>
<totfact> 0.12206578E+05</totfact>
</mgrwt>
</event>
<event>
 5    1  0.6079230E+000  0.9748113E+02  0.7546771E-02  0.1285684E+00
          2   -1    0    0  501    0  0.00000000000E+00  0.00000000000E+00  0.19178088521E+02  0.19178088521E+02  0.00000000000E+00 0. -1.
         -2   -1    0    0    0  501 -0.00000000000E+00 -0.00000000000E+00 -0.12387275722E+03  0.12387275722E+03  0.00000000000E+00 0.  1.
         23    2    1    2    0    0  0.00000000000E+00  0.00000000000E+00 -0.10469466870E+03  0.14305084574E+03  0.97481130549E+02 0.  0.
        -13    1    3    3    0    0  0.78646761546E+01 -0.42924104413E+02 -0.20488962039E+02  0.48209225633E+02  0.00000000000E+00 0. -1.
         13    1    3    3    0    0 -0.78646761546E+01  0.42924104413E+02 -0.84205706657E+02  0.94841620106E+02  0.00000000000E+00 0.  1.
<mgrwt>
<rscale>  0 0.97481131E+02</rscale>
<asrwt>0</asrwt>
<pdfrwt beam="1">  1        2 0.29504752E-02 0.97481131E+02</pdfrwt>
<pdfrwt beam="2">  1       -2 0.19057347E-01 0.97481131E+02</pdfrwt>
<totfact> 0.63090078E+04</totfact>
</mgrwt>
</event>
<event>
 5    1  0.6079230E+000  0.9800933E+02  0.7546771E-02  0.1284539E+00
          1   -1    0    0  501    0  0.00000000000E+00  0.00000000000E+00  0.49586940178E+02  0.49586940178E+02  0.00000000000E+00 0. -1.
         -1   -1    0    0    0  501 -0.00000000000E+00 -0.00000000000E+00 -0.48429226516E+02  0.48429226516E+02  0.00000000000E+00 0.  1.
         23    2    1    2    0    0  0.00000000000E+00  0.00000000000E+00  0.11577136628E+01  0.98016166694E+02  0.98009329313E+02 0.  0.
        -13    1    3    3    0    0  0.42851974562E+02  0.49324319244E+01 -0.22678658351E+02  0.48733378224E+02  0.00000000000E+00 0.  1.
         13    1    3    3    0    0 -0.42851974562E+02 -0.49324319244E+01  0.23836372014E+02  0.49282788470E+02  0.00000000000E+00 0. -1.
<mgrwt>
<rscale>  0 0.98009329E+02</rscale>
<asrwt>0</asrwt>
<pdfrwt beam="1">  1        1 0.76287601E-02 0.98009329E+02</pdfrwt>
<pdfrwt beam="2">  1       -1 0.74506502E-02 0.98009329E+02</pdfrwt>
<totfact> 0.76411614E+04</totfact>
</mgrwt>
</event>
<event>
 5    1  0.6079230E+000  0.9182053E+02  0.7546771E-02  0.1298502E+00
         -1   -1    0    0    0  501 -0.00000000000E+00  0.00000000000E+00  0.55212695243E+02  0.55212695243E+02  0.00000000000E+00 0.  1.
          1   -1    0    0  501    0  0.00000000000E+00 -0.00000000000E+00 -0.38175144358E+02  0.38175144358E+02  0.00000000000E+00 0. -1.
         23    2    1    2    0    0  0.00000000000E+00  0.00000000000E+00  0.17037550885E+02  0.93387839602E+02  0.91820533898E+02 0.  0.
        -13    1    3    3    0    0  0.42144599838E+02  0.18209250514E+02  0.84249426248E+01  0.46676801069E+02  0.00000000000E+00 0. -1.
         13    1    3    3    0    0 -0.42144599838E+02 -0.18209250514E+02  0.86126082600E+01  0.46711038533E+02  0.00000000000E+00 0.  1.
<mgrwt>
<rscale>  0 0.91820534E+02</rscale>
<asrwt>0</asrwt>
<pdfrwt beam="2">  1        1 0.58730991E-02 0.91820534E+02</pdfrwt>
<pdfrwt beam="1">  1       -1 0.84942609E-02 0.91820534E+02</pdfrwt>
<totfact> 0.88242235E+04</totfact>
</mgrwt>
</event>
<event>
 5    1  0.6079230E+000  0.9065995E+02  0.7546771E-02  0.1301261E+00
          2   -1    0    0  501    0  0.00000000000E+00  0.00000000000E+00  0.22828562647E+02  0.22828562647E+02  0.00000000000E+00 0. -1.
         -2   -1    0    0    0  501 -0.00000000000E+00 -0.00000000000E+00 -0.90010346820E+02  0.90010346820E+02  0.00000000000E+00 0.  1.
         23    2    1    2    0    0  0.00000000000E+00  0.00000000000E+00 -0.67181784173E+02  0.11283890947E+03  0.90659954584E+02 0.  0.
        -13    1    3    3    0    0  0.13597636765E+02  0.51884138404E+01 -0.87023336984E+02  0.88231947409E+02  0.00000000000E+00 0.  1.
         13    1    3    3    0    0 -0.13597636765E+02 -0.51884138404E+01  0.19841552811E+02  0.24606962058E+02  0.00000000000E+00 0. -1.
<mgrwt>
<rscale>  0 0.90659955E+02</rscale>
<asrwt>0</asrwt>
<pdfrwt beam="1">  1        2 0.35120866E-02 0.90659955E+02</pdfrwt>
<pdfrwt beam="2">  1       -2 0.13847746E-01 0.90659955E+02</pdfrwt>
<totfact> 0.83467093E+04</totfact>
</mgrwt>
</event>
<event>
 5    1  0.6079230E+000  0.9233712E+02  0.7546771E-02  0.1297289E+00
          2   -1    0    0  501    0  0.00000000000E+00  0.00000000000E+00  0.23107039931E+03  0.23107039931E+03  0.00000000000E+00 0. -1.
         -2   -1    0    0    0  501 -0.00000000000E+00 -0.00000000000E+00 -0.92246164985E+01  0.92246164985E+01  0.00000000000E+00 0.  1.
         23    2    1    2    0    0  0.00000000000E+00  0.00000000000E+00  0.22184578281E+03  0.24029501581E+03  0.92337117516E+02 0.  0.
        -13    1    3    3    0    0  0.28255037371E+02  0.25240963447E+02  0.42263683265E+02  0.56759777094E+02  0.00000000000E+00 0.  1.
         13    1    3    3    0    0 -0.28255037371E+02 -0.25240963447E+02  0.17958209955E+03  0.18353523872E+03  0.00000000000E+00 0. -1.
<mgrwt>
<rscale>  0 0.92337118E+02</rscale>
<asrwt>0</asrwt>
<pdfrwt beam="1">  1        2 0.35549288E-01 0.92337118E+02</pdfrwt>
<pdfrwt beam="2">  1       -2 0.14191719E-02 0.92337118E+02</pdfrwt>
<totfact> 0.15760578E+05</totfact>
</mgrwt>
</event>
<event>
 5    1  0.6079230E+000  0.9018765E+02  0.7546771E-02  0.1302398E+00
          2   -1    0    0  501    0  0.00000000000E+00  0.00000000000E+00  0.23260289336E+02  0.23260289336E+02  0.00000000000E+00 0. -1.
         -2   -1    0    0    0  501 -0.00000000000E+00 -0.00000000000E+00 -0.87421664876E+02  0.87421664876E+02  0.00000000000E+00 0.  1.
         23    2    1    2    0    0  0.00000000000E+00  0.00000000000E+00 -0.64161375540E+02  0.11068195421E+03  0.90187653683E+02 0.  0.
        -13    1    3    3    0    0 -0.20924810961E+02 -0.36034651220E+01 -0.80902975917E+02  0.83642837032E+02  0.00000000000E+00 0.  1.
         13    1    3    3    0    0  0.20924810961E+02  0.36034651220E+01  0.16741600377E+02  0.27039117179E+02  0.00000000000E+00 0. -1.
<mgrwt>
<rscale>  0 0.90187654E+02</rscale>
<asrwt>0</asrwt>
<pdfrwt beam="1">  1        2 0.35785061E-02 0.90187654E+02</pdfrwt>
<pdfrwt beam="2">  1       -2 0.13449487E-01 0.90187654E+02</pdfrwt>
<totfact> 0.85255798E+04</totfact>
</mgrwt>
</event>
<event>
 5    1  0.6079230E+000  0.9308380E+02  0.7546771E-02  0.1295551E+00
         -1   -1    0    0    0  501 -0.00000000000E+00  0.00000000000E+00  0.30132970110E+02  0.30132970110E+02  0.00000000000E+00 0.  1.
          1   -1    0    0  501    0  0.00000000000E+00 -0.00000000000E+00 -0.71886321065E+02  0.71886321065E+02  0.00000000000E+00 0. -1.
         23    2    1    2    0    0  0.00000000000E+00  0.00000000000E+00 -0.41753350955E+02  0.10201929117E+03  0.93083798031E+02 0.  0.
        -13    1    3    3    0    0 -0.29316744281E+01 -0.20329150262E+02  0.24897045698E+02  0.32275872565E+02  0.00000000000E+00 0.  1.
         13    1    3    3    0    0  0.29316744281E+01  0.20329150262E+02 -0.66650396653E+02  0.69743418610E+02  0.00000000000E+00 0. -1.
<mgrwt>
<rscale>  0 0.93083798E+02</rscale>
<asrwt>0</asrwt>
<pdfrwt beam="2">  1        1 0.11059434E-01 0.93083798E+02</pdfrwt>
<pdfrwt beam="1">  1       -1 0.46358416E-02 0.93083798E+02</pdfrwt>
<totfact> 0.93568455E+04</totfact>
</mgrwt>
</event>
<event>
 5    1  0.6079230E+000  0.8960117E+02  0.7546771E-02  0.1303820E+00
          3   -1    0    0  501    0  0.00000000000E+00  0.00000000000E+00  0.12629547440E+02  0.12629547440E+02  0.00000000000E+00 0. -1.
         -3   -1    0    0    0  501 -0.00000000000E+00 -0.00000000000E+00 -0.15892038642E+03  0.15892038642E+03  0.00000000000E+00 0.  1.
         23    2    1    2    0    0  0.00000000000E+00  0.00000000000E+00 -0.14629083898E+03  0.17154993386E+03  0.89601173195E+02 0.  0.
        -13    1    3    3    0    0  0.30388546643E+02 -0.32348094796E+02 -0.61463323123E+02  0.75812948058E+02  0.00000000000E+00 0. -1.
         13    1    3    3    0    0 -0.30388546643E+02  0.32348094796E+02 -0.84827515861E+02  0.95736985806E+02  0.00000000000E+00 0.  1.
<mgrwt>
<rscale>  0 0.89601173E+02</rscale>
<asrwt>0</asrwt>
<pdfrwt beam="1">  1        3 0.19430074E-02 0.89601173E+02</pdfrwt>
<pdfrwt beam="2">  1       -3 0.24449289E-01 0.89601173E+02</pdfrwt>
<totfact> 0.31484597E+04</totfact>
</mgrwt>
</event>
<event>
 5    1  0.6079230E+000  0.9209898E+02  0.7546771E-02  0.1297847E+00
         -2   -1    0    0    0  501 -0.00000000000E+00  0.00000000000E+00  0.96788712253E+02  0.96788712253E+02  0.00000000000E+00 0. -1.
          2   -1    0    0  501    0  0.00000000000E+00 -0.00000000000E+00 -0.21909122305E+02  0.21909122305E+02  0.00000000000E+00 0.  1.
         23    2    1    2    0    0  0.00000000000E+00  0.00000000000E+00  0.74879589948E+02  0.11869783456E+03  0.92098984456E+02 0.  0.
        -13    1    3    3    0    0  0.11852406321E+02 -0.24012653022E+02  0.85722247197E+02  0.89807520316E+02  0.00000000000E+00 0. -1.
         13    1    3    3    0    0 -0.11852406321E+02  0.24012653022E+02 -0.10842657249E+02  0.28890314242E+02  0.00000000000E+00 0.  1.
<mgrwt>
<rscale>  0 0.92098984E+02</rscale>
<asrwt>0</asrwt>
<pdfrwt beam="2">  1        2 0.33706343E-02 0.92098984E+02</pdfrwt>
<pdfrwt beam="1">  1       -2 0.14890571E-01 0.92098984E+02</pdfrwt>
<totfact> 0.78591146E+04</totfact>
</mgrwt>
</event>
<event>
 5    1  0.6079230E+000  0.9433916E+02  0.7546771E-02  0.1292671E+00
          4   -1    0    0  501    0  0.00000000000E+00  0.00000000000E+00  0.95705068255E+02  0.95705068255E+02  0.00000000000E+00 0. -1.
         -4   -1    0    0    0  501 -0.00000000000E+00 -0.00000000000E+00 -0.23248186833E+02  0.23248186833E+02  0.00000000000E+00 0.  1.
         23    2    1    2    0    0  0.00000000000E+00  0.00000000000E+00  0.72456881421E+02  0.11895325509E+03  0.94339160643E+02 0.  0.
        -13    1    3    3    0    0  0.46685715073E+02  0.25888410769E+01  0.28383263839E+02  0.54697968482E+02  0.00000000000E+00 0.  1.
         13    1    3    3    0    0 -0.46685715073E+02 -0.25888410769E+01  0.44073617583E+02  0.64255286606E+02  0.00000000000E+00 0. -1.
<mgrwt>
<rscale>  0 0.94339161E+02</rscale>
<asrwt>0</asrwt>
<pdfrwt beam="1">  1        4 0.14723856E-01 0.94339161E+02</pdfrwt>
<pdfrwt beam="2">  1       -4 0.35766442E-02 0.94339161E+02</pdfrwt>
<totfact> 0.23093915E+04</totfact>
</mgrwt>
</event>
<event>
 5    1  0.6079230E+000  0.9139017E+02  0.7546771E-02  0.1299520E+00
          1   -1    0    0  501    0  0.00000000000E+00  0.00000000000E+00  0.23292924841E+02  0.23292924841E+02  0.00000000000E+00 0. -1.
         -1   -1    0    0    0  501 -0.00000000000E+00 -0.00000000000E+00 -0.89642710395E+02  0.89642710395E+02  0.00000000000E+00 0.  1.
         23    2    1    2    0    0  0.00000000000E+00  0.00000000000E+00 -0.66349785553E+02  0.11293563524E+03  0.91390172684E+02 0.  0.
        -13    1    3    3    0    0  0.18941538228E+02 -0.20223579732E+02  0.11726746754E+02  0.30088064694E+02  0.00000000000E+00 0. -1.
         13    1    3    3    0    0 -0.18941538228E+02  0.20223579732E+02 -0.78076532307E+02  0.82847570542E+02  0.00000000000E+00 0.  1.
<mgrwt>
<rscale>  0 0.91390173E+02</rscale>
<asrwt>0</asrwt>
<pdfrwt beam="1">  1        1 0.35835269E-02 0.91390173E+02</pdfrwt>
<pdfrwt beam="2">  1       -1 0.13791186E-01 0.91390173E+02</pdfrwt>
<totfact> 0.82503394E+04</totfact>
</mgrwt>
</event>
<event>
 5    1  0.6079230E+000  0.9176502E+02  0.7546771E-02  0.1298633E+00
          1   -1    0    0  501    0  0.00000000000E+00  0.00000000000E+00  0.80646463993E+01  0.80646463993E+01  0.00000000000E+00 0. -1.
         -1   -1    0    0    0  501 -0.00000000000E+00 -0.00000000000E+00 -0.26104117512E+03  0.26104117512E+03  0.00000000000E+00 0.  1.
         23    2    1    2    0    0  0.00000000000E+00  0.00000000000E+00 -0.25297652872E+03  0.26910582152E+03  0.91765021071E+02 0.  0.
        -13    1    3    3    0    0 -0.21069327611E+02  0.36448897660E+02 -0.72992987354E+02  0.84263959730E+02  0.00000000000E+00 0. -1.
         13    1    3    3    0    0  0.21069327611E+02 -0.36448897660E+02 -0.17998354137E+03  0.18484186179E+03  0.00000000000E+00 0.  1.
<mgrwt>
<rscale>  0 0.91765021E+02</rscale>
<asrwt>0</asrwt>
<pdfrwt beam="1">  1        1 0.12407146E-02 0.91765021E+02</pdfrwt>
<pdfrwt beam="2">  1       -1 0.40160187E-01 0.91765021E+02</pdfrwt>
<totfact> 0.62742255E+04</totfact>
</mgrwt>
</event>
<event>
 5    1  0.6079230E+000  0.8975530E+02  0.7546771E-02  0.1303445E+00
          3   -1    0    0  501    0  0.00000000000E+00  0.00000000000E+00  0.16750277654E+03  0.16750277654E+03  0.00000000000E+00 0. -1.
         -3   -1    0    0    0  501 -0.00000000000E+00 -0.00000000000E+00 -0.12023700894E+02  0.12023700894E+02  0.00000000000E+00 0.  1.
         23    2    1    2    0    0  0.00000000000E+00  0.00000000000E+00  0.15547907565E+03  0.17952647743E+03  0.89755295867E+02 0.  0.
        -13    1    3    3    0    0  0.41179621044E+02  0.30618454563E+01  0.42587191350E+02  0.59319515794E+02  0.00000000000E+00 0.  1.
         13    1    3    3    0    0 -0.41179621044E+02 -0.30618454563E+01  0.11289188430E+03  0.12020696164E+03  0.00000000000E+00 0. -1.
<mgrwt>
<rscale>  0 0.89755296E+02</rscale>
<asrwt>0</asrwt>
<pdfrwt beam="1">  1        3 0.25769656E-01 0.89755296E+02</pdfrwt>
<pdfrwt beam="2">  1       -3 0.18498003E-02 0.89755296E+02</pdfrwt>
<totfact> 0.30872582E+04</totfact>
</mgrwt>
</event>
<event>
 5    1  0.6079230E+000  0.9077783E+02  0.7546771E-02  0.1300979E+00
         -1   -1    0    0    0  501 -0.00000000000E+00  0.00000000000E+00  0.36646724937E+02  0.36646724937E+02  0.00000000000E+00 0.  1.
          1   -1    0    0  501    0  0.00000000000E+00 -0.00000000000E+00 -0.56216577034E+02  0.56216577034E+02  0.00000000000E+00 0. -1.
         23    2    1    2    0    0  0.00000000000E+00  0.00000000000E+00 -0.19569852096E+02  0.92863301971E+02  0.90777826268E+02 0.  0.
        -13    1    3    3    0    0  0.72940110173E+01 -0.44540362649E+02 -0.14702325664E+02  0.47467935300E+02  0.00000000000E+00 0. -1.
         13    1    3    3    0    0 -0.72940110173E+01  0.44540362649E+02 -0.48675264318E+01  0.45395366671E+02  0.00000000000E+00 0.  1.
<mgrwt>
<rscale>  0 0.90777826E+02</rscale>
<asrwt>0</asrwt>
<pdfrwt beam="2">  1        1 0.86487041E-02 0.90777826E+02</pdfrwt>
<pdfrwt beam="1">  1       -1 0.56379577E-02 0.90777826E+02</pdfrwt>
<totfact> 0.96599037E+04</totfact>
</mgrwt>
</event>
<event>
 5    1  0.6079230E+000  0.9264319E+02  0.7546771E-02  0.1296574E+00
          4   -1    0    0  501    0  0.00000000000E+00  0.00000000000E+00  0.32698407586E+02  0.32698407586E+02  0.00000000000E+00 0.  1.
         -4   -1    0    0    0  501 -0.00000000000E+00 -0.00000000000E+00 -0.65620638351E+02  0.65620638351E+02  0.00000000000E+00 0. -1.
         23    2    1    2    0    0  0.00000000000E+00  0.00000000000E+00 -0.32922230765E+02  0.98319045938E+02  0.92643194653E+02 0.  0.
        -13    1    3    3    0    0  0.39045712653E+02  0.74251206408E+00  0.99763614205E+01  0.40306907447E+02  0.00000000000E+00 0.  1.
         13    1    3    3    0    0 -0.39045712653E+02 -0.74251206408E+00 -0.42898592186E+02  0.58012138491E+02  0.00000000000E+00 0. -1.
<mgrwt>
<rscale>  0 0.92643195E+02</rscale>
<asrwt>0</asrwt>
<pdfrwt beam="1">  1        4 0.50305243E-02 0.92643195E+02</pdfrwt>
<pdfrwt beam="2">  1       -4 0.10095483E-01 0.92643195E+02</pdfrwt>
<totfact> 0.25434926E+04</totfact>
</mgrwt>
</event>
<event>
 5    1  0.6079230E+000  0.9225734E+02  0.7546771E-02  0.1297475E+00
          1   -1    0    0  501    0  0.00000000000E+00  0.00000000000E+00  0.70036567704E+02  0.70036567704E+02  0.00000000000E+00 0. -1.
         -1   -1    0    0    0  501 -0.00000000000E+00 -0.00000000000E+00 -0.30382046349E+02  0.30382046349E+02  0.00000000000E+00 0.  1.
         23    2    1    2    0    0  0.00000000000E+00  0.00000000000E+00  0.39654521355E+02  0.10041861405E+03  0.92257341088E+02 0.  0.
        -13    1    3    3    0    0 -0.93428671107E+01  0.26255703921E+02  0.59837726200E+02  0.66009125362E+02  0.00000000000E+00 0. -1.
         13    1    3    3    0    0  0.93428671107E+01 -0.26255703921E+02 -0.20183204845E+02  0.34409488692E+02  0.00000000000E+00 0.  1.
<mgrwt>
<rscale>  0 0.92257341E+02</rscale>
<asrwt>0</asrwt>
<pdfrwt beam="1">  1        1 0.10774857E-01 0.92257341E+02</pdfrwt>
<pdfrwt beam="2">  1       -1 0.46741610E-02 0.92257341E+02</pdfrwt>
<totfact> 0.95514880E+04</totfact>
</mgrwt>
</event>
<event>
 5    1  0.6079230E+000  0.9325399E+02  0.7546771E-02  0.1295158E+00
          2   -1    0    0  501    0  0.00000000000E+00  0.00000000000E+00  0.73861974591E+02  0.73861974591E+02  0.00000000000E+00 0. -1.
         -2   -1    0    0    0  501 -0.00000000000E+00 -0.00000000000E+00 -0.29434315277E+02  0.29434315277E+02  0.00000000000E+00 0.  1.
         23    2    1    2    0    0  0.00000000000E+00  0.00000000000E+00  0.44427659315E+02  0.10329628987E+03  0.93253989665E+02 0.  0.
        -13    1    3    3    0    0  0.35516897731E+02 -0.18485771169E+02 -0.42527866555E+01  0.40264872464E+02  0.00000000000E+00 0.  1.
         13    1    3    3    0    0 -0.35516897731E+02  0.18485771169E+02  0.48680445970E+02  0.63031417404E+02  0.00000000000E+00 0. -1.
<mgrwt>
<rscale>  0 0.93253990E+02</rscale>
<asrwt>0</asrwt>
<pdfrwt beam="1">  1        2 0.11363381E-01 0.93253990E+02</pdfrwt>
<pdfrwt beam="2">  1       -2 0.45283562E-02 0.93253990E+02</pdfrwt>
<totfact> 0.10542930E+05</totfact>
</mgrwt>
</event>
<event>
 5    1  0.6079230E+000  0.9237659E+02  0.7546771E-02  0.1297196E+00
          1   -1    0    0  501    0  0.00000000000E+00  0.00000000000E+00  0.20388721754E+03  0.20388721754E+03  0.00000000000E+00 0. -1.
         -1   -1    0    0    0  501 -0.00000000000E+00 -0.00000000000E+00 -0.10463424618E+02  0.10463424618E+02  0.00000000000E+00 0.  1.
         23    2    1    2    0    0  0.00000000000E+00  0.00000000000E+00  0.19342379292E+03  0.21435064216E+03  0.92376588620E+02 0.  0.
        -13    1    3    3    0    0  0.32454600645E+02 -0.32687954531E+02  0.10459956970E+03  0.11429292829E+03  0.00000000000E+00 0.  1.
         13    1    3    3    0    0 -0.32454600645E+02  0.32687954531E+02  0.88824223219E+02  0.10005771387E+03  0.00000000000E+00 0. -1.
<mgrwt>
<rscale>  0 0.92376589E+02</rscale>
<asrwt>0</asrwt>
<pdfrwt beam="1">  1        1 0.31367261E-01 0.92376589E+02</pdfrwt>
<pdfrwt beam="2">  1       -1 0.16097578E-02 0.92376589E+02</pdfrwt>
<totfact> 0.11475019E+05</totfact>
</mgrwt>
</event>
<event>
 5    1  0.6079230E+000  0.9370941E+02  0.7546771E-02  0.1294110E+00
         -1   -1    0    0    0  501 -0.00000000000E+00  0.00000000000E+00  0.97282301977E+01  0.97282301977E+01  0.00000000000E+00 0.  1.
          1   -1    0    0  501    0  0.00000000000E+00 -0.00000000000E+00 -0.22566933248E+03  0.22566933248E+03  0.00000000000E+00 0. -1.
         23    2    1    2    0    0  0.00000000000E+00  0.00000000000E+00 -0.21594110229E+03  0.23539756268E+03  0.93709406464E+02 0.  0.
        -13    1    3    3    0    0 -0.25222798591E+02 -0.34556621675E+02 -0.15596303912E+03  0.16172451651E+03  0.00000000000E+00 0. -1.
         13    1    3    3    0    0  0.25222798591E+02  0.34556621675E+02 -0.59978063166E+02  0.73673046167E+02  0.00000000000E+00 0.  1.
<mgrwt>
<rscale>  0 0.93709406E+02</rscale>
<asrwt>0</asrwt>
<pdfrwt beam="2">  1        1 0.34718355E-01 0.93709406E+02</pdfrwt>
<pdfrwt beam="1">  1       -1 0.14966510E-02 0.93709406E+02</pdfrwt>
<totfact> 0.11263575E+05</totfact>
</mgrwt>
</event>
<event>
 5    1  0.6079230E+000  0.9302237E+02  0.7546771E-02  0.1295693E+00
          2   -1    0    0  501    0  0.00000000000E+00  0.00000000000E+00  0.80400602513E+02  0.80400602513E+02  0.00000000000E+00 0. -1.
         -2   -1    0    0    0  501 -0.00000000000E+00 -0.00000000000E+00 -0.26906395991E+02  0.26906395991E+02  0.00000000000E+00 0.  1.
         23    2    1    2    0    0  0.00000000000E+00  0.00000000000E+00  0.53494206522E+02  0.10730699850E+03  0.93022372559E+02 0.  0.
        -13    1    3    3    0    0  0.34498431834E+02  0.24202527292E+02  0.40425596279E+01  0.42334931376E+02  0.00000000000E+00 0.  1.
         13    1    3    3    0    0 -0.34498431834E+02 -0.24202527292E+02  0.49451646894E+02  0.64972067127E+02  0.00000000000E+00 0. -1.
<mgrwt>
<rscale>  0 0.93022373E+02</rscale>
<asrwt>0</asrwt>
<pdfrwt beam="1">  1        2 0.12369323E-01 0.93022373E+02</pdfrwt>
<pdfrwt beam="2">  1       -2 0.41394456E-02 0.93022373E+02</pdfrwt>
<totfact> 0.10877542E+05</totfact>
</mgrwt>
</event>
<event>
 5    1  0.6079230E+000  0.8806816E+02  0.7546771E-02  0.1307599E+00
          2   -1    0    0  501    0  0.00000000000E+00  0.00000000000E+00  0.14176696488E+03  0.14176696488E+03  0.00000000000E+00 0. -1.
         -2   -1    0    0    0  501 -0.00000000000E+00 -0.00000000000E+00 -0.13677375907E+02  0.13677375907E+02  0.00000000000E+00 0.  1.
         23    2    1    2    0    0  0.00000000000E+00  0.00000000000E+00  0.12808958898E+03  0.15544434079E+03  0.88068157011E+02 0.  0.
        -13    1    3    3    0    0  0.20665840845E+02 -0.38829072166E+02  0.60416241799E+02  0.74732162395E+02  0.00000000000E+00 0. -1.
         13    1    3    3    0    0 -0.20665840845E+02  0.38829072166E+02  0.67673347178E+02  0.80712178396E+02  0.00000000000E+00 0.  1.
<mgrwt>
<rscale>  0 0.88068157E+02</rscale>
<asrwt>0</asrwt>
<pdfrwt beam="1">  1        2 0.21810301E-01 0.88068157E+02</pdfrwt>
<pdfrwt beam="2">  1       -2 0.21042118E-02 0.88068157E+02</pdfrwt>
<totfact> 0.15069322E+05</totfact>
</mgrwt>
</event>
<event>
 5    1  0.6079230E+000  0.9221111E+02  0.7546771E-02  0.1297584E+00
          1   -1    0    0  501    0  0.00000000000E+00  0.00000000000E+00  0.24890564502E+02  0.24890564502E+02  0.00000000000E+00 0. -1.
         -1   -1    0    0    0  501 -0.00000000000E+00 -0.00000000000E+00 -0.85402730963E+02  0.85402730963E+02  0.00000000000E+00 0.  1.
         23    2    1    2    0    0  0.00000000000E+00  0.00000000000E+00 -0.60512166461E+02  0.11029329546E+03  0.92211109605E+02 0.  0.
        -13    1    3    3    0    0  0.17836216758E+02  0.29153998350E+02 -0.67270088509E+02  0.75454297797E+02  0.00000000000E+00 0.  1.
         13    1    3    3    0    0 -0.17836216758E+02 -0.29153998350E+02  0.67579220480E+01  0.34838997667E+02  0.00000000000E+00 0. -1.
<mgrwt>
<rscale>  0 0.92211110E+02</rscale>
<asrwt>0</asrwt>
<pdfrwt beam="1">  1        1 0.38293176E-02 0.92211110E+02</pdfrwt>
<pdfrwt beam="2">  1       -1 0.13138882E-01 0.92211110E+02</pdfrwt>
<totfact> 0.81318997E+04</totfact>
</mgrwt>
</event>
<event>
 5    1  0.6079230E+000  0.9217417E+02  0.7546771E-02  0.1297670E+00
         -2   -1    0    0    0  501 -0.00000000000E+00  0.00000000000E+00  0.24034772565E+03  0.24034772565E+03  0.00000000000E+00 0.  1.
          2   -1    0    0  501    0  0.00000000000E+00 -0.00000000000E+00 -0.88372759447E+01  0.88372759447E+01  0.00000000000E+00 0. -1.
         23    2    1    2    0    0  0.00000000000E+00  0.00000000000E+00  0.23151044971E+03  0.24918500160E+03  0.92174165020E+02 0.  0.
        -13    1    3    3    0    0 -0.15583036743E+02 -0.35278166563E+02  0.18396699844E+03  0.18796605169E+03  0.00000000000E+00 0. -1.
         13    1    3    3    0    0  0.15583036743E+02  0.35278166563E+02  0.47543451268E+02  0.61218949914E+02  0.00000000000E+00 0.  1.
<mgrwt>
<rscale>  0 0.92174165E+02</rscale>
<asrwt>0</asrwt>
<pdfrwt beam="2">  1        2 0.13595811E-02 0.92174165E+02</pdfrwt>
<pdfrwt beam="1">  1       -2 0.36976568E-01 0.92174165E+02</pdfrwt>
<totfact> 0.55700163E+04</totfact>
</mgrwt>
</event>
<event>
 5    1  0.6079230E+000  0.9636346E+02  0.7546771E-02  0.1288134E+00
         -2   -1    0    0    0  501 -0.00000000000E+00  0.00000000000E+00  0.15559231381E+03  0.15559231381E+03  0.00000000000E+00 0.  1.
          2   -1    0    0  501    0  0.00000000000E+00 -0.00000000000E+00 -0.14920270091E+02  0.14920270091E+02  0.00000000000E+00 0. -1.
         23    2    1    2    0    0  0.00000000000E+00  0.00000000000E+00  0.14067204372E+03  0.17051258391E+03  0.96363464991E+02 0.  0.
        -13    1    3    3    0    0 -0.24755661811E+02  0.38799356491E+02  0.45109605734E+02  0.64444622625E+02  0.00000000000E+00 0. -1.
         13    1    3    3    0    0  0.24755661811E+02 -0.38799356491E+02  0.95562437990E+02  0.10606796128E+03  0.00000000000E+00 0.  1.
<mgrwt>
<rscale>  0 0.96363465E+02</rscale>
<asrwt>0</asrwt>
<pdfrwt beam="2">  1        2 0.22954263E-02 0.96363465E+02</pdfrwt>
<pdfrwt beam="1">  1       -2 0.23937278E-01 0.96363465E+02</pdfrwt>
<totfact> 0.59894790E+04</totfact>
</mgrwt>
</event>
<event>
 5    1  0.6079230E+000  0.9494310E+02  0.7546771E-02  0.1291304E+00
          2   -1    0    0  501    0  0.00000000000E+00  0.00000000000E+00  0.85528591790E+02  0.85528591790E+02  0.00000000000E+00 0. -1.
         -2   -1    0    0    0  501 -0.00000000000E+00 -0.00000000000E+00 -0.26348476225E+02  0.26348476225E+02  0.00000000000E+00 0.  1.
         23    2    1    2    0    0  0.00000000000E+00  0.00000000000E+00  0.59180115565E+02  0.11187706801E+03  0.94943100167E+02 0.  0.
        -13    1    3    3    0    0  0.20784118479E+02  0.56953989888E+01 -0.20252317161E+02  0.29573188888E+02  0.00000000000E+00 0.  1.
         13    1    3    3    0    0 -0.20784118479E+02 -0.56953989888E+01  0.79432432726E+02  0.82303879127E+02  0.00000000000E+00 0. -1.
<mgrwt>
<rscale>  0 0.94943100E+02</rscale>
<asrwt>0</asrwt>
<pdfrwt beam="1">  1        2 0.13158245E-01 0.94943100E+02</pdfrwt>
<pdfrwt beam="2">  1       -2 0.40536118E-02 0.94943100E+02</pdfrwt>
<totfact> 0.10462257E+05</totfact>
</mgrwt>
</event>
<event>
 5    1  0.6079230E+000  0.8953007E+02  0.7546771E-02  0.1303994E+00
         -2   -1    0    0    0  501 -0.00000000000E+00  0.00000000000E+00  0.30391325478E+03  0.30391325478E+03  0.00000000000E+00 0.  1.
          2   -1    0    0  501    0  0.00000000000E+00 -0.00000000000E+00 -0.65936858214E+01  0.65936858214E+01  0.00000000000E+00 0. -1.
         23    2    1    2    0    0  0.00000000000E+00  0.00000000000E+00  0.29731956896E+03  0.31050694060E+03  0.89530073584E+02 0.  0.
        -13    1    3    3    0    0 -0.36517829469E+02 -0.13505569242E+02  0.22527108115E+03  0.22861105020E+03  0.00000000000E+00 0.  1.
         13    1    3    3    0    0  0.36517829469E+02  0.13505569242E+02  0.72048487808E+02  0.81895890404E+02  0.00000000000E+00 0. -1.
<mgrwt>
<rscale>  0 0.89530074E+02</rscale>
<asrwt>0</asrwt>
<pdfrwt beam="2">  1        2 0.10144134E-02 0.89530074E+02</pdfrwt>
<pdfrwt beam="1">  1       -2 0.46755875E-01 0.89530074E+02</pdfrwt>
<totfact> 0.53060284E+04</totfact>
</mgrwt>
</event>
<event>
 5    1  0.6079230E+000  0.9154994E+02  0.7546771E-02  0.1299141E+00
         -1   -1    0    0    0  501 -0.00000000000E+00  0.00000000000E+00  0.10166978521E+02  0.10166978521E+02  0.00000000000E+00 0.  1.
          1   -1    0    0  501    0  0.00000000000E+00 -0.00000000000E+00 -0.20609348973E+03  0.20609348973E+03  0.00000000000E+00 0. -1.
         23    2    1    2    0    0  0.00000000000E+00  0.00000000000E+00 -0.19592651120E+03  0.21626046825E+03  0.91549944475E+02 0.  0.
        -13    1    3    3    0    0 -0.19485059533E+02 -0.34580679384E+02 -0.15182260032E+03  0.15692543738E+03  0.00000000000E+00 0. -1.
         13    1    3    3    0    0  0.19485059533E+02  0.34580679384E+02 -0.44103910889E+02  0.59335030862E+02  0.00000000000E+00 0.  1.
<mgrwt>
<rscale>  0 0.91549944E+02</rscale>
<asrwt>0</asrwt>
<pdfrwt beam="2">  1        1 0.31706688E-01 0.91549944E+02</pdfrwt>
<pdfrwt beam="1">  1       -1 0.15641507E-02 0.91549944E+02</pdfrwt>
<totfact> 0.11780032E+05</totfact>
</mgrwt>
</event>
<event>
 5    1  0.6079230E+000  0.9222836E+02  0.7546771E-02  0.1297543E+00
          4   -1    0    0  501    0  0.00000000000E+00  0.00000000000E+00  0.14437860040E+02  0.14437860040E+02  0.00000000000E+00 0. -1.
         -4   -1    0    0    0  501 -0.00000000000E+00 -0.00000000000E+00 -0.14728757858E+03  0.14728757858E+03  0.00000000000E+00 0.  1.
         23    2    1    2    0    0  0.00000000000E+00  0.00000000000E+00 -0.13284971854E+03  0.16172543862E+03  0.92228356707E+02 0.  0.
        -13    1    3    3    0    0  0.25515743012E+02 -0.26944139630E+02 -0.18419114883E+02  0.41428294618E+02  0.00000000000E+00 0. -1.
         13    1    3    3    0    0 -0.25515743012E+02  0.26944139630E+02 -0.11443060366E+03  0.12029714400E+03  0.00000000000E+00 0.  1.
<mgrwt>
<rscale>  0 0.92228357E+02</rscale>
<asrwt>0</asrwt>
<pdfrwt beam="1">  1        4 0.22212094E-02 0.92228357E+02</pdfrwt>
<pdfrwt beam="2">  1       -4 0.22659626E-01 0.92228357E+02</pdfrwt>
<totfact> 0.22395266E+04</totfact>
</mgrwt>
</event>
<event>
 5    1  0.6079230E+000  0.7100144E+02  0.7546771E-02  0.1356720E+00
         -2   -1    0    0    0  501 -0.00000000000E+00  0.00000000000E+00  0.56532298474E+01  0.56532298474E+01  0.00000000000E+00 0.  1.
          2   -1    0    0  501    0  0.00000000000E+00 -0.00000000000E+00 -0.22293467943E+03  0.22293467943E+03  0.00000000000E+00 0. -1.
         23    2    1    2    0    0  0.00000000000E+00  0.00000000000E+00 -0.21728144958E+03  0.22858790927E+03  0.71001436148E+02 0.  0.
        -13    1    3    3    0    0 -0.11534101102E+02  0.33574486515E+02 -0.10908857737E+03  0.11471965544E+03  0.00000000000E+00 0. -1.
         13    1    3    3    0    0  0.11534101102E+02 -0.33574486515E+02 -0.10819287221E+03  0.11386825383E+03  0.00000000000E+00 0.  1.
<mgrwt>
<rscale>  0 0.71001436E+02</rscale>
<asrwt>0</asrwt>
<pdfrwt beam="2">  1        2 0.34297637E-01 0.71001436E+02</pdfrwt>
<pdfrwt beam="1">  1       -2 0.86972781E-03 0.71001436E+02</pdfrwt>
<totfact> 0.31183856E+05</totfact>
</mgrwt>
</event>
<event>
 5    1  0.6079230E+000  0.8775259E+02  0.7546771E-02  0.1308387E+00
          2   -1    0    0  501    0  0.00000000000E+00  0.00000000000E+00  0.11221387942E+03  0.11221387942E+03  0.00000000000E+00 0.  1.
         -2   -1    0    0    0  501 -0.00000000000E+00 -0.00000000000E+00 -0.17155894392E+02  0.17155894392E+02  0.00000000000E+00 0. -1.
         23    2    1    2    0    0  0.00000000000E+00  0.00000000000E+00  0.95057985030E+02  0.12936977381E+03  0.87752594597E+02 0.  0.
        -13    1    3    3    0    0  0.12359413883E+02  0.39667039891E+02  0.68320719845E+02  0.79962178093E+02  0.00000000000E+00 0.  1.
         13    1    3    3    0    0 -0.12359413883E+02 -0.39667039891E+02  0.26737265185E+02  0.49407595720E+02  0.00000000000E+00 0. -1.
<mgrwt>
<rscale>  0 0.87752595E+02</rscale>
<asrwt>0</asrwt>
<pdfrwt beam="1">  1        2 0.17263673E-01 0.87752595E+02</pdfrwt>
<pdfrwt beam="2">  1       -2 0.26393684E-02 0.87752595E+02</pdfrwt>
<totfact> 0.14113957E+05</totfact>
</mgrwt>
</event>
<event>
 5    1  0.6079230E+000  0.9319150E+02  0.7546771E-02  0.1295302E+00
          2   -1    0    0  501    0  0.00000000000E+00  0.00000000000E+00  0.32821227964E+02  0.32821227964E+02  0.00000000000E+00 0.  1.
         -2   -1    0    0    0  501 -0.00000000000E+00 -0.00000000000E+00 -0.66151215632E+02  0.66151215632E+02  0.00000000000E+00 0. -1.
         23    2    1    2    0    0  0.00000000000E+00  0.00000000000E+00 -0.33329987669E+02  0.98972443596E+02  0.93191504513E+02 0.  0.
        -13    1    3    3    0    0 -0.12079154951E+02 -0.32462570361E+02 -0.49766357601E+02  0.60633446279E+02  0.00000000000E+00 0. -1.
         13    1    3    3    0    0  0.12079154951E+02  0.32462570361E+02  0.16436369932E+02  0.38338997317E+02  0.00000000000E+00 0.  1.
<mgrwt>
<rscale>  0 0.93191505E+02</rscale>
<asrwt>0</asrwt>
<pdfrwt beam="1">  1        2 0.50494197E-02 0.93191505E+02</pdfrwt>
<pdfrwt beam="2">  1       -2 0.10177110E-01 0.93191505E+02</pdfrwt>
<totfact> 0.84932946E+04</totfact>
</mgrwt>
</event>
<event>
 5    1  0.6079230E+000  0.9287471E+02  0.7546771E-02  0.1296036E+00
          1   -1    0    0  501    0  0.00000000000E+00  0.00000000000E+00  0.11642206167E+03  0.11642206167E+03  0.00000000000E+00 0. -1.
         -1   -1    0    0    0  501 -0.00000000000E+00 -0.00000000000E+00 -0.18522500906E+02  0.18522500906E+02  0.00000000000E+00 0.  1.
         23    2    1    2    0    0  0.00000000000E+00  0.00000000000E+00  0.97899560762E+02  0.13494456257E+03  0.92874705765E+02 0.  0.
        -13    1    3    3    0    0  0.43679374190E+02  0.47518340944E+01  0.27108715724E+02  0.51627029017E+02  0.00000000000E+00 0. -1.
         13    1    3    3    0    0 -0.43679374190E+02 -0.47518340944E+01  0.70790845038E+02  0.83317533557E+02  0.00000000000E+00 0.  1.
<mgrwt>
<rscale>  0 0.92874706E+02</rscale>
<asrwt>0</asrwt>
<pdfrwt beam="1">  1        1 0.17911086E-01 0.92874706E+02</pdfrwt>
<pdfrwt beam="2">  1       -1 0.28496156E-02 0.92874706E+02</pdfrwt>
<totfact> 0.10193035E+05</totfact>
</mgrwt>
</event>
<event>
 5    1  0.6079230E+000  0.9475477E+02  0.7546771E-02  0.1291729E+00
          2   -1    0    0  501    0  0.00000000000E+00  0.00000000000E+00  0.13885608065E+02  0.13885608065E+02  0.00000000000E+00 0.  1.
         -2   -1    0    0    0  501 -0.00000000000E+00 -0.00000000000E+00 -0.16165057056E+03  0.16165057056E+03  0.00000000000E+00 0. -1.
         23    2    1    2    0    0  0.00000000000E+00  0.00000000000E+00 -0.14776496249E+03  0.17553617862E+03  0.94754766976E+02 0.  0.
        -13    1    3    3    0    0 -0.36949722038E+02 -0.12669693260E+01 -0.12876649555E+03  0.13396901711E+03  0.00000000000E+00 0. -1.
         13    1    3    3    0    0  0.36949722038E+02  0.12669693260E+01 -0.18998466947E+02  0.41567161513E+02  0.00000000000E+00 0.  1.
<mgrwt>
<rscale>  0 0.94754767E+02</rscale>
<asrwt>0</asrwt>
<pdfrwt beam="1">  1        2 0.21362475E-02 0.94754767E+02</pdfrwt>
<pdfrwt beam="2">  1       -2 0.24869318E-01 0.94754767E+02</pdfrwt>
<totfact> 0.61610438E+04</totfact>
</mgrwt>
</event>
<event>
 5    1  0.6079230E+000  0.9027172E+02  0.7546771E-02  0.1302195E+00
          2   -1    0    0  501    0  0.00000000000E+00  0.00000000000E+00  0.11261203924E+03  0.11261203924E+03  0.00000000000E+00 0. -1.
         -2   -1    0    0    0  501 -0.00000000000E+00 -0.00000000000E+00 -0.18090836189E+02  0.18090836189E+02  0.00000000000E+00 0.  1.
         23    2    1    2    0    0  0.00000000000E+00  0.00000000000E+00  0.94521203053E+02  0.13070287543E+03  0.90271722147E+02 0.  0.
        -13    1    3    3    0    0  0.73563132364E+01  0.43582554813E+02  0.34014924579E+02  0.55772479975E+02  0.00000000000E+00 0. -1.
         13    1    3    3    0    0 -0.73563132364E+01 -0.43582554813E+02  0.60506278474E+02  0.74930395456E+02  0.00000000000E+00 0.  1.
<mgrwt>
<rscale>  0 0.90271722E+02</rscale>
<asrwt>0</asrwt>
<pdfrwt beam="1">  1        2 0.17324929E-01 0.90271722E+02</pdfrwt>
<pdfrwt beam="2">  1       -2 0.27832056E-02 0.90271722E+02</pdfrwt>
<totfact> 0.13079367E+05</totfact>
</mgrwt>
</event>
<event>
 5    1  0.6079230E+000  0.9157439E+02  0.7546771E-02  0.1299083E+00
          3   -1    0    0  501    0  0.00000000000E+00  0.00000000000E+00  0.72145178810E+02  0.72145178810E+02  0.00000000000E+00 0. -1.
         -3   -1    0    0    0  501 -0.00000000000E+00 -0.00000000000E+00 -0.29059009542E+02  0.29059009542E+02  0.00000000000E+00 0.  1.
         23    2    1    2    0    0  0.00000000000E+00  0.00000000000E+00  0.43086169269E+02  0.10120418835E+03  0.91574394662E+02 0.  0.
        -13    1    3    3    0    0 -0.40287228114E+02 -0.15292611107E+02  0.38647803184E+02  0.57884172227E+02  0.00000000000E+00 0.  1.
         13    1    3    3    0    0  0.40287228114E+02  0.15292611107E+02  0.44383660850E+01  0.43320016125E+02  0.00000000000E+00 0. -1.
<mgrwt>
<rscale>  0 0.91574395E+02</rscale>
<asrwt>0</asrwt>
<pdfrwt beam="1">  1        3 0.11099258E-01 0.91574395E+02</pdfrwt>
<pdfrwt beam="2">  1       -3 0.44706169E-02 0.91574395E+02</pdfrwt>
<totfact> 0.34174157E+04</totfact>
</mgrwt>
</event>
<event>
 5    1  0.6079230E+000  0.9295296E+02  0.7546771E-02  0.1295854E+00
          1   -1    0    0  501    0  0.00000000000E+00  0.00000000000E+00  0.41936928410E+02  0.41936928410E+02  0.00000000000E+00 0. -1.
         -1   -1    0    0    0  501 -0.00000000000E+00 -0.00000000000E+00 -0.51507424433E+02  0.51507424433E+02  0.00000000000E+00 0.  1.
         23    2    1    2    0    0  0.00000000000E+00  0.00000000000E+00 -0.95704960222E+01  0.93444352843E+02  0.92952959523E+02 0.  0.
        -13    1    3    3    0    0 -0.91898629252E+00 -0.34675840252E+02  0.26310535026E+02  0.43537371146E+02  0.00000000000E+00 0. -1.
         13    1    3    3    0    0  0.91898629252E+00  0.34675840252E+02 -0.35881031048E+02  0.49906981697E+02  0.00000000000E+00 0.  1.
<mgrwt>
<rscale>  0 0.92952960E+02</rscale>
<asrwt>0</asrwt>
<pdfrwt beam="1">  1        1 0.64518351E-02 0.92952960E+02</pdfrwt>
<pdfrwt beam="2">  1       -1 0.79242191E-02 0.92952960E+02</pdfrwt>
<totfact> 0.86471499E+04</totfact>
</mgrwt>
</event>
<event>
 5    1  0.6079230E+000  0.9445140E+02  0.7546771E-02  0.1292416E+00
          2   -1    0    0  501    0  0.00000000000E+00  0.00000000000E+00  0.26439366278E+02  0.26439366278E+02  0.00000000000E+00 0. -1.
         -2   -1    0    0    0  501 -0.00000000000E+00 -0.00000000000E+00 -0.84354015342E+02  0.84354015342E+02  0.00000000000E+00 0.  1.
         23    2    1    2    0    0  0.00000000000E+00  0.00000000000E+00 -0.57914649063E+02  0.11079338162E+03  0.94451399326E+02 0.  0.
        -13    1    3    3    0    0 -0.36629352145E+02 -0.19591000378E+02 -0.55311144470E+02  0.69172533833E+02  0.00000000000E+00 0.  1.
         13    1    3    3    0    0  0.36629352145E+02  0.19591000378E+02 -0.26035045936E+01  0.41620847787E+02  0.00000000000E+00 0. -1.
<mgrwt>
<rscale>  0 0.94451399E+02</rscale>
<asrwt>0</asrwt>
<pdfrwt beam="1">  1        2 0.40675948E-02 0.94451399E+02</pdfrwt>
<pdfrwt beam="2">  1       -2 0.12977541E-01 0.94451399E+02</pdfrwt>
<totfact> 0.76848239E+04</totfact>
</mgrwt>
</event>
<event>
 5    1  0.6079230E+000  0.9482626E+02  0.7546771E-02  0.1291568E+00
         -1   -1    0    0    0  501 -0.00000000000E+00  0.00000000000E+00  0.15719413857E+03  0.15719413857E+03  0.00000000000E+00 0.  1.
          1   -1    0    0  501    0  0.00000000000E+00 -0.00000000000E+00 -0.14300817801E+02  0.14300817801E+02  0.00000000000E+00 0. -1.
         23    2    1    2    0    0  0.00000000000E+00  0.00000000000E+00  0.14289332076E+03  0.17149495637E+03  0.94826256597E+02 0.  0.
        -13    1    3    3    0    0 -0.17585274068E+02  0.27753651433E+02  0.13326775309E+03  0.13725815475E+03  0.00000000000E+00 0.  1.
         13    1    3    3    0    0  0.17585274068E+02 -0.27753651433E+02  0.96255676755E+01  0.34236801617E+02  0.00000000000E+00 0. -1.
<mgrwt>
<rscale>  0 0.94826257E+02</rscale>
<asrwt>0</asrwt>
<pdfrwt beam="2">  1        1 0.22001259E-02 0.94826257E+02</pdfrwt>
<pdfrwt beam="1">  1       -1 0.24183712E-01 0.94826257E+02</pdfrwt>
<totfact> 0.66780483E+04</totfact>
</mgrwt>
</event>
<event>
 5    1  0.6079230E+000  0.9669534E+02  0.7546771E-02  0.1287403E+00
          2   -1    0    0  501    0  0.00000000000E+00  0.00000000000E+00  0.62543230950E+02  0.62543230950E+02  0.00000000000E+00 0. -1.
         -2   -1    0    0    0  501 -0.00000000000E+00 -0.00000000000E+00 -0.37374106770E+02  0.37374106770E+02  0.00000000000E+00 0.  1.
         23    2    1    2    0    0  0.00000000000E+00  0.00000000000E+00  0.25169124180E+02  0.99917337720E+02  0.96695344071E+02 0.  0.
        -13    1    3    3    0    0 -0.44300273852E+02  0.19362006293E+02  0.12904458291E+02  0.50039250543E+02  0.00000000000E+00 0.  1.
         13    1    3    3    0    0  0.44300273852E+02 -0.19362006293E+02  0.12264665889E+02  0.49878087177E+02  0.00000000000E+00 0. -1.
<mgrwt>
<rscale>  0 0.96695344E+02</rscale>
<asrwt>0</asrwt>
<pdfrwt beam="1">  1        2 0.96220355E-02 0.96695344E+02</pdfrwt>
<pdfrwt beam="2">  1       -2 0.57498626E-02 0.96695344E+02</pdfrwt>
<totfact> 0.90821307E+04</totfact>
</mgrwt>
</event>
<event>
 5    1  0.6079230E+000  0.8873557E+02  0.7546771E-02  0.1305943E+00
         -2   -1    0    0    0  501 -0.00000000000E+00  0.00000000000E+00  0.38956079059E+03  0.38956079059E+03  0.00000000000E+00 0.  1.
          2   -1    0    0  501    0  0.00000000000E+00 -0.00000000000E+00 -0.50531280125E+01  0.50531280125E+01  0.00000000000E+00 0. -1.
         23    2    1    2    0    0  0.00000000000E+00  0.00000000000E+00  0.38450766258E+03  0.39461391861E+03  0.88735574457E+02 0.  0.
        -13    1    3    3    0    0  0.34690052710E+02 -0.26701575168E+02  0.22436119335E+03  0.22859203607E+03  0.00000000000E+00 0.  1.
         13    1    3    3    0    0 -0.34690052710E+02  0.26701575168E+02  0.16014646923E+03  0.16602188253E+03  0.00000000000E+00 0. -1.
<mgrwt>
<rscale>  0 0.88735574E+02</rscale>
<asrwt>0</asrwt>
<pdfrwt beam="2">  1        2 0.77740462E-03 0.88735574E+02</pdfrwt>
<pdfrwt beam="1">  1       -2 0.59932405E-01 0.88735574E+02</pdfrwt>
<totfact> 0.46609373E+04</totfact>
</mgrwt>
</event>
<event>
 5    1  0.6079230E+000  0.9053430E+02  0.7546771E-02  0.1301563E+00
          1   -1    0    0  501    0  0.00000000000E+00  0.00000000000E+00  0.22434199813E+02  0.22434199813E+02  0.00000000000E+00 0. -1.
         -1   -1    0    0    0  501 -0.00000000000E+00 -0.00000000000E+00 -0.91338878483E+02  0.91338878483E+02  0.00000000000E+00 0.  1.
         23    2    1    2    0    0  0.00000000000E+00  0.00000000000E+00 -0.68904678670E+02  0.11377307830E+03  0.90534295172E+02 0.  0.
        -13    1    3    3    0    0  0.12929256449E+02  0.43116042934E+02 -0.40473397027E+02  0.60533087626E+02  0.00000000000E+00 0.  1.
         13    1    3    3    0    0 -0.12929256449E+02 -0.43116042934E+02 -0.28431281644E+02  0.53239990670E+02  0.00000000000E+00 0. -1.
<mgrwt>
<rscale>  0 0.90534295E+02</rscale>
<asrwt>0</asrwt>
<pdfrwt beam="1">  1        1 0.34514153E-02 0.90534295E+02</pdfrwt>
<pdfrwt beam="2">  1       -1 0.14052135E-01 0.90534295E+02</pdfrwt>
<totfact> 0.84240286E+04</totfact>
</mgrwt>
</event>
<event>
 5    1  0.6079230E+000  0.9060101E+02  0.7546771E-02  0.1301403E+00
         -1   -1    0    0    0  501 -0.00000000000E+00  0.00000000000E+00  0.84412804905E+01  0.84412804905E+01  0.00000000000E+00 0.  1.
          1   -1    0    0  501    0  0.00000000000E+00 -0.00000000000E+00 -0.24310717307E+03  0.24310717307E+03  0.00000000000E+00 0. -1.
         23    2    1    2    0    0  0.00000000000E+00  0.00000000000E+00 -0.23466589258E+03  0.25154845356E+03  0.90601011851E+02 0.  0.
        -13    1    3    3    0    0  0.43541502285E+02 -0.73295936403E+01 -0.89216693618E+02  0.99544983722E+02  0.00000000000E+00 0.  1.
         13    1    3    3    0    0 -0.43541502285E+02  0.73295936403E+01 -0.14544919896E+03  0.15200346983E+03  0.00000000000E+00 0. -1.
<mgrwt>
<rscale>  0 0.90601012E+02</rscale>
<asrwt>0</asrwt>
<pdfrwt beam="2">  1        1 0.37401108E-01 0.90601012E+02</pdfrwt>
<pdfrwt beam="1">  1       -1 0.12986584E-02 0.90601012E+02</pdfrwt>
<totfact> 0.12509698E+05</totfact>
</mgrwt>
</event>
<event>
 5    1  0.6079230E+000  0.9202935E+02  0.7546771E-02  0.1298010E+00
          2   -1    0    0  501    0  0.00000000000E+00  0.00000000000E+00  0.35132473562E+02  0.35132473562E+02  0.00000000000E+00 0. -1.
         -2   -1    0    0    0  501 -0.00000000000E+00 -0.00000000000E+00 -0.60267612354E+02  0.60267612354E+02  0.00000000000E+00 0.  1.
         23    2    1    2    0    0  0.00000000000E+00  0.00000000000E+00 -0.25135138792E+02  0.95400085916E+02  0.92029349616E+02 0.  0.
        -13    1    3    3    0    0  0.24773091775E+02 -0.21765767976E+02  0.20699841874E+02  0.38935050857E+02  0.00000000000E+00 0. -1.
         13    1    3    3    0    0 -0.24773091775E+02  0.21765767976E+02 -0.45834980666E+02  0.56465035059E+02  0.00000000000E+00 0.  1.
<mgrwt>
<rscale>  0 0.92029350E+02</rscale>
<asrwt>0</asrwt>
<pdfrwt beam="1">  1        2 0.54049960E-02 0.92029350E+02</pdfrwt>
<pdfrwt beam="2">  1       -2 0.92719403E-02 0.92029350E+02</pdfrwt>
<totfact> 0.89745031E+04</totfact>
</mgrwt>
</event>
<event>
 5    1  0.6079230E+000  0.9087692E+02  0.7546771E-02  0.1300742E+00
          1   -1    0    0  501    0  0.00000000000E+00  0.00000000000E+00  0.28641174390E+03  0.28641174390E+03  0.00000000000E+00 0. -1.
         -1   -1    0    0    0  501 -0.00000000000E+00 -0.00000000000E+00 -0.72086903194E+01  0.72086903194E+01  0.00000000000E+00 0.  1.
         23    2    1    2    0    0  0.00000000000E+00  0.00000000000E+00  0.27920305358E+03  0.29362043422E+03  0.90876918205E+02 0.  0.
        -13    1    3    3    0    0 -0.13296876382E+02  0.35785178695E+02  0.59981420761E+02  0.71099625683E+02  0.00000000000E+00 0.  1.
         13    1    3    3    0    0  0.13296876382E+02 -0.35785178695E+02  0.21922163282E+03  0.22252080854E+03  0.00000000000E+00 0. -1.
<mgrwt>
<rscale>  0 0.90876918E+02</rscale>
<asrwt>0</asrwt>
<pdfrwt beam="1">  1        1 0.44063336E-01 0.90876918E+02</pdfrwt>
<pdfrwt beam="2">  1       -1 0.11090295E-02 0.90876918E+02</pdfrwt>
<totfact> 0.12810808E+05</totfact>
</mgrwt>
</event>
<event>
 5    1  0.6079230E+000  0.9397186E+02  0.7546771E-02  0.1293509E+00
         -3   -1    0    0    0  501 -0.00000000000E+00  0.00000000000E+00  0.11787420694E+02  0.11787420694E+02  0.00000000000E+00 0.  1.
          3   -1    0    0  501    0  0.00000000000E+00 -0.00000000000E+00 -0.18729099613E+03  0.18729099613E+03  0.00000000000E+00 0. -1.
         23    2    1    2    0    0  0.00000000000E+00  0.00000000000E+00 -0.17550357544E+03  0.19907841682E+03  0.93971863099E+02 0.  0.
        -13    1    3    3    0    0 -0.35335749950E+02 -0.30634797377E+02 -0.78143151849E+02  0.91068426009E+02  0.00000000000E+00 0.  1.
         13    1    3    3    0    0  0.35335749950E+02  0.30634797377E+02 -0.97360423587E+02  0.10800999082E+03  0.00000000000E+00 0. -1.
<mgrwt>
<rscale>  0 0.93971863E+02</rscale>
<asrwt>0</asrwt>
<pdfrwt beam="2">  1        3 0.28814000E-01 0.93971863E+02</pdfrwt>
<pdfrwt beam="1">  1       -3 0.18134493E-02 0.93971863E+02</pdfrwt>
<totfact> 0.26306193E+04</totfact>
</mgrwt>
</event>
<event>
 5    1  0.6079230E+000  0.9068357E+02  0.7546771E-02  0.1301205E+00
         -3   -1    0    0    0  501 -0.00000000000E+00  0.00000000000E+00  0.41682479923E+02  0.41682479923E+02  0.00000000000E+00 0.  1.
          3   -1    0    0  501    0  0.00000000000E+00 -0.00000000000E+00 -0.49322337505E+02  0.49322337505E+02  0.00000000000E+00 0. -1.
         23    2    1    2    0    0  0.00000000000E+00  0.00000000000E+00 -0.76398575825E+01  0.91004817428E+02  0.90683567262E+02 0.  0.
        -13    1    3    3    0    0  0.16259992038E+02 -0.24285079153E+01 -0.46225893280E+02  0.49062390905E+02  0.00000000000E+00 0. -1.
         13    1    3    3    0    0 -0.16259992038E+02  0.24285079153E+01  0.38586035698E+02  0.41942426523E+02  0.00000000000E+00 0.  1.
<mgrwt>
<rscale>  0 0.90683567E+02</rscale>
<asrwt>0</asrwt>
<pdfrwt beam="2">  1        3 0.75880520E-02 0.90683567E+02</pdfrwt>
<pdfrwt beam="1">  1       -3 0.64126892E-02 0.90683567E+02</pdfrwt>
<totfact> 0.35877815E+04</totfact>
</mgrwt>
</event>
<event>
 5    1  0.6079230E+000  0.8716273E+02  0.7546771E-02  0.1309872E+00
          2   -1    0    0  501    0  0.00000000000E+00  0.00000000000E+00  0.99841278241E+02  0.99841278241E+02  0.00000000000E+00 0.  1.
         -2   -1    0    0    0  501 -0.00000000000E+00 -0.00000000000E+00 -0.19023546392E+02  0.19023546392E+02  0.00000000000E+00 0. -1.
         23    2    1    2    0    0  0.00000000000E+00  0.00000000000E+00  0.80817731849E+02  0.11886482463E+03  0.87162725713E+02 0.  0.
        -13    1    3    3    0    0 -0.16433163016E+02 -0.31134328831E+02  0.75441657693E+02  0.83251660608E+02  0.00000000000E+00 0.  1.
         13    1    3    3    0    0  0.16433163016E+02  0.31134328831E+02  0.53760741556E+01  0.35613164024E+02  0.00000000000E+00 0. -1.
<mgrwt>
<rscale>  0 0.87162726E+02</rscale>
<asrwt>0</asrwt>
<pdfrwt beam="1">  1        2 0.15360196E-01 0.87162726E+02</pdfrwt>
<pdfrwt beam="2">  1       -2 0.29266995E-02 0.87162726E+02</pdfrwt>
<totfact> 0.13872860E+05</totfact>
</mgrwt>
</event>
<event>
 4    1  0.6079230E+000  0.1657502E+03  0.7546771E-02  0.1182354E+00
          2   -1    0    0  501    0  0.00000000000E+00  0.00000000000E+00  0.33347531552E+03  0.33347531552E+03  0.00000000000E+00 0. -1.
         -2   -1    0    0    0  501 -0.00000000000E+00 -0.00000000000E+00 -0.20596081879E+02  0.20596081879E+02  0.00000000000E+00 0.  1.
        -13    1    1    2    0    0 -0.61839756869E+02  0.41385974891E+02  0.23438306808E+03  0.24591131948E+03  0.00000000000E+00 0. -1.
         13    1    1    2    0    0  0.61839756869E+02 -0.41385974891E+02  0.78496165569E+02  0.10816007792E+03  0.00000000000E+00 0.  1.
<mgrwt>
<rscale>  0 0.16575023E+03</rscale>
<asrwt>0</asrwt>
<pdfrwt beam="1">  1        2 0.51303891E-01 0.16575023E+03</pdfrwt>
<pdfrwt beam="2">  1       -2 0.31686282E-02 0.16575023E+03</pdfrwt>
<totfact> 0.35957608E+04</totfact>
</mgrwt>
</event>
<event>
 5    1  0.6079230E+000  0.9431674E+02  0.7546771E-02  0.1292722E+00
          1   -1    0    0  501    0  0.00000000000E+00  0.00000000000E+00  0.16125036013E+03  0.16125036013E+03  0.00000000000E+00 0. -1.
         -1   -1    0    0    0  501 -0.00000000000E+00 -0.00000000000E+00 -0.13791671231E+02  0.13791671231E+02  0.00000000000E+00 0.  1.
         23    2    1    2    0    0  0.00000000000E+00  0.00000000000E+00  0.14745868889E+03  0.17504203136E+03  0.94316741943E+02 0.  0.
        -13    1    3    3    0    0 -0.12700637202E+02 -0.44829450305E+02  0.87231052630E+02  0.98895107780E+02  0.00000000000E+00 0.  1.
         13    1    3    3    0    0  0.12700637202E+02  0.44829450305E+02  0.60227636265E+02  0.76146923576E+02  0.00000000000E+00 0. -1.
<mgrwt>
<rscale>  0 0.94316742E+02</rscale>
<asrwt>0</asrwt>
<pdfrwt beam="1">  1        1 0.24807746E-01 0.94316742E+02</pdfrwt>
<pdfrwt beam="2">  1       -1 0.21217957E-02 0.94316742E+02</pdfrwt>
<totfact> 0.10371366E+05</totfact>
</mgrwt>
</event>
<event>
 5    1  0.6079230E+000  0.9341881E+02  0.7546771E-02  0.1294778E+00
          2   -1    0    0  501    0  0.00000000000E+00  0.00000000000E+00  0.34134313724E+02  0.34134313724E+02  0.00000000000E+00 0.  1.
         -2   -1    0    0    0  501 -0.00000000000E+00 -0.00000000000E+00 -0.63917161942E+02  0.63917161942E+02  0.00000000000E+00 0. -1.
         23    2    1    2    0    0  0.00000000000E+00  0.00000000000E+00 -0.29782848218E+02  0.98051475666E+02  0.93418808772E+02 0.  0.
        -13    1    3    3    0    0  0.29550781870E+02 -0.29465851553E+02  0.71320554614E+01  0.42336170493E+02  0.00000000000E+00 0.  1.
         13    1    3    3    0    0 -0.29550781870E+02  0.29465851553E+02 -0.36914903679E+02  0.55715305173E+02  0.00000000000E+00 0. -1.
<mgrwt>
<rscale>  0 0.93418809E+02</rscale>
<asrwt>0</asrwt>
<pdfrwt beam="1">  1        2 0.52514330E-02 0.93418809E+02</pdfrwt>
<pdfrwt beam="2">  1       -2 0.98334093E-02 0.93418809E+02</pdfrwt>
<totfact> 0.85215653E+04</totfact>
</mgrwt>
</event>
<event>
 5    1  0.6079230E+000  0.9844968E+02  0.7546771E-02  0.1283590E+00
          1   -1    0    0  501    0  0.00000000000E+00  0.00000000000E+00  0.18235165178E+02  0.18235165178E+02  0.00000000000E+00 0. -1.
         -1   -1    0    0    0  501 -0.00000000000E+00 -0.00000000000E+00 -0.13287978297E+03  0.13287978297E+03  0.00000000000E+00 0.  1.
         23    2    1    2    0    0  0.00000000000E+00  0.00000000000E+00 -0.11464461780E+03  0.15111494815E+03  0.98449678342E+02 0.  0.
        -13    1    3    3    0    0  0.28964681831E+02  0.17403068239E+02 -0.23792743016E+01  0.33874481898E+02  0.00000000000E+00 0. -1.
         13    1    3    3    0    0 -0.28964681831E+02 -0.17403068239E+02 -0.11226534349E+03  0.11724046625E+03  0.00000000000E+00 0.  1.
<mgrwt>
<rscale>  0 0.98449678E+02</rscale>
<asrwt>0</asrwt>
<pdfrwt beam="1">  1        1 0.28054099E-02 0.98449678E+02</pdfrwt>
<pdfrwt beam="2">  1       -1 0.20443044E-01 0.98449678E+02</pdfrwt>
<totfact> 0.62975740E+04</totfact>
</mgrwt>
</event>
<event>
 5    1  0.6079230E+000  0.9048119E+02  0.7546771E-02  0.1301691E+00
          3   -1    0    0  501    0  0.00000000000E+00  0.00000000000E+00  0.22911687551E+02  0.22911687551E+02  0.00000000000E+00 0. -1.
         -3   -1    0    0    0  501 -0.00000000000E+00 -0.00000000000E+00 -0.89330461548E+02  0.89330461548E+02  0.00000000000E+00 0.  1.
         23    2    1    2    0    0  0.00000000000E+00  0.00000000000E+00 -0.66418773997E+02  0.11224214910E+03  0.90481194152E+02 0.  0.
        -13    1    3    3    0    0  0.14390529963E+02 -0.11237214436E+02 -0.84557040681E+02  0.86505811768E+02  0.00000000000E+00 0.  1.
         13    1    3    3    0    0 -0.14390529963E+02  0.11237214436E+02  0.18138266685E+02  0.25736337331E+02  0.00000000000E+00 0. -1.
<mgrwt>
<rscale>  0 0.90481194E+02</rscale>
<asrwt>0</asrwt>
<pdfrwt beam="1">  1        3 0.35248750E-02 0.90481194E+02</pdfrwt>
<pdfrwt beam="2">  1       -3 0.13743148E-01 0.90481194E+02</pdfrwt>
<totfact> 0.34496836E+04</totfact>
</mgrwt>
</event>
<event>
 5    1  0.6079230E+000  0.8109039E+02  0.7546771E-02  0.1325985E+00
          1   -1    0    0  501    0  0.00000000000E+00  0.00000000000E+00  0.20515870036E+03  0.20515870036E+03  0.00000000000E+00 0. -1.
         -1   -1    0    0    0  501 -0.00000000000E+00 -0.00000000000E+00 -0.80128829903E+01  0.80128829903E+01  0.00000000000E+00 0.  1.
         23    2    1    2    0    0  0.00000000000E+00  0.00000000000E+00  0.19714581737E+03  0.21317158335E+03  0.81090385630E+02 0.  0.
        -13    1    3    3    0    0 -0.35577492728E+02  0.19379386586E+02  0.10280688941E+03  0.11050147114E+03  0.00000000000E+00 0. -1.
         13    1    3    3    0    0  0.35577492728E+02 -0.19379386586E+02  0.94338927956E+02  0.10267011221E+03  0.00000000000E+00 0.  1.
<mgrwt>
<rscale>  0 0.81090386E+02</rscale>
<asrwt>0</asrwt>
<pdfrwt beam="1">  1        1 0.31562873E-01 0.81090386E+02</pdfrwt>
<pdfrwt beam="2">  1       -1 0.12327514E-02 0.81090386E+02</pdfrwt>
<totfact> 0.16257896E+05</totfact>
</mgrwt>
</event>
<event>
 5    1  0.6079230E+000  0.8700973E+02  0.7546771E-02  0.1310259E+00
         -3   -1    0    0    0  501 -0.00000000000E+00  0.00000000000E+00  0.18594020381E+03  0.18594020381E+03  0.00000000000E+00 0.  1.
          3   -1    0    0  501    0  0.00000000000E+00 -0.00000000000E+00 -0.10178935034E+02  0.10178935034E+02  0.00000000000E+00 0. -1.
         23    2    1    2    0    0  0.00000000000E+00  0.00000000000E+00  0.17576126878E+03  0.19611913884E+03  0.87009729450E+02 0.  0.
        -13    1    3    3    0    0 -0.16986142097E+02 -0.31871912993E+02  0.33209138578E+02  0.49063170977E+02  0.00000000000E+00 0. -1.
         13    1    3    3    0    0  0.16986142097E+02  0.31871912993E+02  0.14255213020E+03  0.14705596787E+03  0.00000000000E+00 0.  1.
<mgrwt>
<rscale>  0 0.87009729E+02</rscale>
<asrwt>0</asrwt>
<pdfrwt beam="2">  1        3 0.15659901E-02 0.87009729E+02</pdfrwt>
<pdfrwt beam="1">  1       -3 0.28606183E-01 0.87009729E+02</pdfrwt>
<totfact> 0.32544431E+04</totfact>
</mgrwt>
</event>
<event>
 5    1  0.6079230E+000  0.9051800E+02  0.7546771E-02  0.1301602E+00
         -2   -1    0    0    0  501 -0.00000000000E+00  0.00000000000E+00  0.68778796584E+02  0.68778796584E+02  0.00000000000E+00 0.  1.
          2   -1    0    0  501    0  0.00000000000E+00 -0.00000000000E+00 -0.29782103204E+02  0.29782103204E+02  0.00000000000E+00 0. -1.
         23    2    1    2    0    0  0.00000000000E+00  0.00000000000E+00  0.38996693380E+02  0.98560899788E+02  0.90518003029E+02 0.  0.
        -13    1    3    3    0    0 -0.38054650677E+02  0.61263519094E+01  0.45327118220E+02  0.59499884638E+02  0.00000000000E+00 0.  1.
         13    1    3    3    0    0  0.38054650677E+02 -0.61263519094E+01 -0.63304248402E+01  0.39061015149E+02  0.00000000000E+00 0. -1.
<mgrwt>
<rscale>  0 0.90518003E+02</rscale>
<asrwt>0</asrwt>
<pdfrwt beam="2">  1        2 0.45818621E-02 0.90518003E+02</pdfrwt>
<pdfrwt beam="1">  1       -2 0.10581353E-01 0.90518003E+02</pdfrwt>
<totfact> 0.90213282E+04</totfact>
</mgrwt>
</event>
<event>
 5    1  0.6079230E+000  0.9467807E+02  0.7546771E-02  0.1291903E+00
          2   -1    0    0  501    0  0.00000000000E+00  0.00000000000E+00  0.91230837026E+02  0.91230837026E+02  0.00000000000E+00 0. -1.
         -2   -1    0    0    0  501 -0.00000000000E+00 -0.00000000000E+00 -0.24563890427E+02  0.24563890427E+02  0.00000000000E+00 0.  1.
         23    2    1    2    0    0  0.00000000000E+00  0.00000000000E+00  0.66666946598E+02  0.11579472745E+03  0.94678071047E+02 0.  0.
        -13    1    3    3    0    0  0.36215130010E+02  0.14014588380E+02  0.22011661012E+00  0.38832882721E+02  0.00000000000E+00 0.  1.
         13    1    3    3    0    0 -0.36215130010E+02 -0.14014588380E+02  0.66446829988E+02  0.76961844732E+02  0.00000000000E+00 0. -1.
<mgrwt>
<rscale>  0 0.94678071E+02</rscale>
<asrwt>0</asrwt>
<pdfrwt beam="1">  1        2 0.14035513E-01 0.94678071E+02</pdfrwt>
<pdfrwt beam="2">  1       -2 0.37790601E-02 0.94678071E+02</pdfrwt>
<totfact> 0.10749492E+05</totfact>
</mgrwt>
</event>
<event>
 5    1  0.6079230E+000  0.9590653E+02  0.7546771E-02  0.1289147E+00
         -1   -1    0    0    0  501 -0.00000000000E+00  0.00000000000E+00  0.34224071605E+02  0.34224071605E+02  0.00000000000E+00 0.  1.
          1   -1    0    0  501    0  0.00000000000E+00 -0.00000000000E+00 -0.67190010707E+02  0.67190010707E+02  0.00000000000E+00 0. -1.
         23    2    1    2    0    0  0.00000000000E+00  0.00000000000E+00 -0.32965939102E+02  0.10141408231E+03  0.95906532365E+02 0.  0.
        -13    1    3    3    0    0  0.15401906188E+02 -0.36933565570E+00  0.31535832394E+02  0.35097917999E+02  0.00000000000E+00 0.  1.
         13    1    3    3    0    0 -0.15401906188E+02  0.36933565570E+00 -0.64501771496E+02  0.66316164313E+02  0.00000000000E+00 0. -1.
<mgrwt>
<rscale>  0 0.95906532E+02</rscale>
<asrwt>0</asrwt>
<pdfrwt beam="2">  1        1 0.10336925E-01 0.95906532E+02</pdfrwt>
<pdfrwt beam="1">  1       -1 0.52652419E-02 0.95906532E+02</pdfrwt>
<totfact> 0.85211133E+04</totfact>
</mgrwt>
</event>
<event>
 5    1  0.6079230E+000  0.9059637E+02  0.7546771E-02  0.1301414E+00
         -1   -1    0    0    0  501 -0.00000000000E+00  0.00000000000E+00  0.21871283865E+03  0.21871283865E+03  0.00000000000E+00 0.  1.
          1   -1    0    0  501    0  0.00000000000E+00 -0.00000000000E+00 -0.93818257650E+01  0.93818257650E+01  0.00000000000E+00 0. -1.
         23    2    1    2    0    0  0.00000000000E+00  0.00000000000E+00  0.20933101289E+03  0.22809466442E+03  0.90596373985E+02 0.  0.
        -13    1    3    3    0    0  0.34854447157E+02 -0.24936591229E+02  0.67726462428E+02  0.80146988600E+02  0.00000000000E+00 0. -1.
         13    1    3    3    0    0 -0.34854447157E+02  0.24936591229E+02  0.14160455046E+03  0.14794767582E+03  0.00000000000E+00 0.  1.
<mgrwt>
<rscale>  0 0.90596374E+02</rscale>
<asrwt>0</asrwt>
<pdfrwt beam="2">  1        1 0.14433580E-02 0.90596374E+02</pdfrwt>
<pdfrwt beam="1">  1       -1 0.33648125E-01 0.90596374E+02</pdfrwt>
<totfact> 0.68747564E+04</totfact>
</mgrwt>
</event>
<event>
 5    1  0.6079230E+000  0.7921233E+02  0.7546771E-02  0.1331302E+00
         -2   -1    0    0    0  501 -0.00000000000E+00  0.00000000000E+00  0.11846056653E+02  0.11846056653E+02  0.00000000000E+00 0. -1.
          2   -1    0    0  501    0  0.00000000000E+00 -0.00000000000E+00 -0.13241944532E+03  0.13241944532E+03  0.00000000000E+00 0.  1.
         23    2    1    2    0    0  0.00000000000E+00  0.00000000000E+00 -0.12057338867E+03  0.14426550198E+03  0.79212328617E+02 0.  0.
        -13    1    3    3    0    0  0.38905045065E+02  0.24976441218E+01 -0.73010380943E+02  0.82766880351E+02  0.00000000000E+00 0.  1.
         13    1    3    3    0    0 -0.38905045065E+02 -0.24976441218E+01 -0.47563007729E+02  0.61498621626E+02  0.00000000000E+00 0. -1.
<mgrwt>
<rscale>  0 0.79212329E+02</rscale>
<asrwt>0</asrwt>
<pdfrwt beam="2">  1        2 0.20372223E-01 0.79212329E+02</pdfrwt>
<pdfrwt beam="1">  1       -2 0.18224702E-02 0.79212329E+02</pdfrwt>
<totfact> 0.19599534E+05</totfact>
</mgrwt>
</event>
<event>
 5    1  0.6079230E+000  0.8524487E+02  0.7546771E-02  0.1314793E+00
          1   -1    0    0  501    0  0.00000000000E+00  0.00000000000E+00  0.18548424422E+02  0.18548424422E+02  0.00000000000E+00 0. -1.
         -1   -1    0    0    0  501 -0.00000000000E+00 -0.00000000000E+00 -0.97942120918E+02  0.97942120918E+02  0.00000000000E+00 0.  1.
         23    2    1    2    0    0  0.00000000000E+00  0.00000000000E+00 -0.79393696496E+02  0.11649054534E+03  0.85244871461E+02 0.  0.
        -13    1    3    3    0    0 -0.19163418453E+02  0.19062383579E+02  0.53380844532E+01  0.27551882334E+02  0.00000000000E+00 0. -1.
         13    1    3    3    0    0  0.19163418453E+02 -0.19062383579E+02 -0.84731780949E+02  0.88938663006E+02  0.00000000000E+00 0.  1.
<mgrwt>
<rscale>  0 0.85244871E+02</rscale>
<asrwt>0</asrwt>
<pdfrwt beam="1">  1        1 0.28536037E-02 0.85244871E+02</pdfrwt>
<pdfrwt beam="2">  1       -1 0.15068019E-01 0.85244871E+02</pdfrwt>
<totfact> 0.97093617E+04</totfact>
</mgrwt>
</event>
<event>
 5    1  0.6079230E+000  0.9138572E+02  0.7546771E-02  0.1299530E+00
         -3   -1    0    0    0  501 -0.00000000000E+00  0.00000000000E+00  0.11497064567E+02  0.11497064567E+02  0.00000000000E+00 0.  1.
          3   -1    0    0  501    0  0.00000000000E+00 -0.00000000000E+00 -0.18159742426E+03  0.18159742426E+03  0.00000000000E+00 0. -1.
         23    2    1    2    0    0  0.00000000000E+00  0.00000000000E+00 -0.17010035969E+03  0.19309448882E+03  0.91385716870E+02 0.  0.
        -13    1    3    3    0    0  0.32054588293E+02 -0.18858228103E+02 -0.28958799190E+02  0.47135352426E+02  0.00000000000E+00 0.  1.
         13    1    3    3    0    0 -0.32054588293E+02  0.18858228103E+02 -0.14114156050E+03  0.14595913640E+03  0.00000000000E+00 0. -1.
<mgrwt>
<rscale>  0 0.91385717E+02</rscale>
<asrwt>0</asrwt>
<pdfrwt beam="2">  1        3 0.27938062E-01 0.91385717E+02</pdfrwt>
<pdfrwt beam="1">  1       -3 0.17687794E-02 0.91385717E+02</pdfrwt>
<totfact> 0.28681572E+04</totfact>
</mgrwt>
</event>
<event>
 5    1  0.6079230E+000  0.6932854E+02  0.7546771E-02  0.1362391E+00
          1   -1    0    0  501    0  0.00000000000E+00  0.00000000000E+00  0.99452158245E+02  0.99452158245E+02  0.00000000000E+00 0. -1.
         -1   -1    0    0    0  501 -0.00000000000E+00 -0.00000000000E+00 -0.12082308640E+02  0.12082308640E+02  0.00000000000E+00 0.  1.
         23    2    1    2    0    0  0.00000000000E+00  0.00000000000E+00  0.87369849605E+02  0.11153446688E+03  0.69328541620E+02 0.  0.
        -13    1    3    3    0    0 -0.11782554726E+02 -0.28952859499E+02  0.19579226665E+02  0.36884180699E+02  0.00000000000E+00 0.  1.
         13    1    3    3    0    0  0.11782554726E+02  0.28952859499E+02  0.67790622940E+02  0.74650286185E+02  0.00000000000E+00 0. -1.
<mgrwt>
<rscale>  0 0.69328542E+02</rscale>
<asrwt>0</asrwt>
<pdfrwt beam="1">  1        1 0.15300331E-01 0.69328542E+02</pdfrwt>
<pdfrwt beam="2">  1       -1 0.18588168E-02 0.69328542E+02</pdfrwt>
<totfact> 0.21729640E+05</totfact>
</mgrwt>
</event>
<event>
 5    1  0.6079230E+000  0.9043900E+02  0.7546771E-02  0.1301792E+00
          2   -1    0    0  501    0  0.00000000000E+00  0.00000000000E+00  0.20270132360E+02  0.20270132360E+02  0.00000000000E+00 0. -1.
         -2   -1    0    0    0  501 -0.00000000000E+00 -0.00000000000E+00 -0.10087763993E+03  0.10087763993E+03  0.00000000000E+00 0.  1.
         23    2    1    2    0    0  0.00000000000E+00  0.00000000000E+00 -0.80607507566E+02  0.12114777229E+03  0.90438998523E+02 0.  0.
        -13    1    3    3    0    0 -0.31916609341E+02  0.20225080039E+02 -0.73579681848E+02  0.82714529529E+02  0.00000000000E+00 0.  1.
         13    1    3    3    0    0  0.31916609341E+02 -0.20225080039E+02 -0.70278257179E+01  0.38433242756E+02  0.00000000000E+00 0. -1.
<mgrwt>
<rscale>  0 0.90438999E+02</rscale>
<asrwt>0</asrwt>
<pdfrwt beam="1">  1        2 0.31184819E-02 0.90438999E+02</pdfrwt>
<pdfrwt beam="2">  1       -2 0.15519637E-01 0.90438999E+02</pdfrwt>
<totfact> 0.81223596E+04</totfact>
</mgrwt>
</event>
<event>
 5    1  0.6079230E+000  0.9075783E+02  0.7546771E-02  0.1301027E+00
          2   -1    0    0  501    0  0.00000000000E+00  0.00000000000E+00  0.62216002652E+02  0.62216002652E+02  0.00000000000E+00 0. -1.
         -2   -1    0    0    0  501 -0.00000000000E+00 -0.00000000000E+00 -0.33098335451E+02  0.33098335451E+02  0.00000000000E+00 0.  1.
         23    2    1    2    0    0  0.00000000000E+00  0.00000000000E+00  0.29117667201E+02  0.95314338103E+02  0.90757834398E+02 0.  0.
        -13    1    3    3    0    0 -0.13414218698E+02 -0.25757336173E+02 -0.22061028145E+02  0.36470132888E+02  0.00000000000E+00 0.  1.
         13    1    3    3    0    0  0.13414218698E+02  0.25757336173E+02  0.51178695347E+02  0.58844205215E+02  0.00000000000E+00 0. -1.
<mgrwt>
<rscale>  0 0.90757834E+02</rscale>
<asrwt>0</asrwt>
<pdfrwt beam="1">  1        2 0.95716927E-02 0.90757834E+02</pdfrwt>
<pdfrwt beam="2">  1       -2 0.50920516E-02 0.90757834E+02</pdfrwt>
<totfact> 0.10850690E+05</totfact>
</mgrwt>
</event>
<event>
 5    1  0.6079230E+000  0.9108265E+02  0.7546771E-02  0.1300251E+00
          1   -1    0    0  501    0  0.00000000000E+00  0.00000000000E+00  0.23242577180E+02  0.23242577180E+02  0.00000000000E+00 0. -1.
         -1   -1    0    0    0  501 -0.00000000000E+00 -0.00000000000E+00 -0.89233314962E+02  0.89233314962E+02  0.00000000000E+00 0.  1.
         23    2    1    2    0    0  0.00000000000E+00  0.00000000000E+00 -0.65990737782E+02  0.11247589214E+03  0.91082648404E+02 0.  0.
        -13    1    3    3    0    0  0.29930132959E+02  0.17295100676E+02 -0.69608570806E+02  0.77719280079E+02  0.00000000000E+00 0.  1.
         13    1    3    3    0    0 -0.29930132959E+02 -0.17295100676E+02  0.36178330238E+01  0.34756612064E+02  0.00000000000E+00 0. -1.
<mgrwt>
<rscale>  0 0.91082648E+02</rscale>
<asrwt>0</asrwt>
<pdfrwt beam="1">  1        1 0.35757810E-02 0.91082648E+02</pdfrwt>
<pdfrwt beam="2">  1       -1 0.13728203E-01 0.91082648E+02</pdfrwt>
<totfact> 0.83288810E+04</totfact>
</mgrwt>
</event>
<event>
 5    1  0.6079230E+000  0.9064971E+02  0.7546771E-02  0.1301286E+00
         -1   -1    0    0    0  501 -0.00000000000E+00  0.00000000000E+00  0.79350747381E+01  0.79350747381E+01  0.00000000000E+00 0.  1.
          1   -1    0    0  501    0  0.00000000000E+00 -0.00000000000E+00 -0.25889389925E+03  0.25889389925E+03  0.00000000000E+00 0. -1.
         23    2    1    2    0    0  0.00000000000E+00  0.00000000000E+00 -0.25095882452E+03  0.26682897399E+03  0.90649709096E+02 0.  0.
        -13    1    3    3    0    0  0.21905522736E+01 -0.45237633262E+02 -0.12029643322E+03  0.12853977527E+03  0.00000000000E+00 0. -1.
         13    1    3    3    0    0 -0.21905522736E+01  0.45237633262E+02 -0.13066239130E+03  0.13828919872E+03  0.00000000000E+00 0.  1.
<mgrwt>
<rscale>  0 0.90649709E+02</rscale>
<asrwt>0</asrwt>
<pdfrwt beam="2">  1        1 0.39829821E-01 0.90649709E+02</pdfrwt>
<pdfrwt beam="1">  1       -1 0.12207810E-02 0.90649709E+02</pdfrwt>
<totfact> 0.12645718E+05</totfact>
</mgrwt>
</event>
<event>
 5    1  0.6079230E+000  0.9147906E+02  0.7546771E-02  0.1299309E+00
          3   -1    0    0  501    0  0.00000000000E+00  0.00000000000E+00  0.57504302173E+02  0.57504302173E+02  0.00000000000E+00 0. -1.
         -3   -1    0    0    0  501 -0.00000000000E+00 -0.00000000000E+00 -0.36381707789E+02  0.36381707789E+02  0.00000000000E+00 0.  1.
         23    2    1    2    0    0  0.00000000000E+00  0.00000000000E+00  0.21122594384E+02  0.93886009961E+02  0.91479062484E+02 0.  0.
        -13    1    3    3    0    0 -0.17699623616E+02 -0.21103546527E+02  0.48038790564E+02  0.55374739286E+02  0.00000000000E+00 0. -1.
         13    1    3    3    0    0  0.17699623616E+02  0.21103546527E+02 -0.26916196181E+02  0.38511270675E+02  0.00000000000E+00 0.  1.
<mgrwt>
<rscale>  0 0.91479062E+02</rscale>
<asrwt>0</asrwt>
<pdfrwt beam="1">  1        3 0.88468158E-02 0.91479062E+02</pdfrwt>
<pdfrwt beam="2">  1       -3 0.55971858E-02 0.91479062E+02</pdfrwt>
<totfact> 0.34815725E+04</totfact>
</mgrwt>
</event>
<event>
 5    1  0.6079230E+000  0.9990071E+02  0.7546771E-02  0.1280505E+00
         -2   -1    0    0    0  501 -0.00000000000E+00  0.00000000000E+00  0.33933282231E+02  0.33933282231E+02  0.00000000000E+00 0.  1.
          2   -1    0    0  501    0  0.00000000000E+00 -0.00000000000E+00 -0.73527757903E+02  0.73527757903E+02  0.00000000000E+00 0. -1.
         23    2    1    2    0    0  0.00000000000E+00  0.00000000000E+00 -0.39594475672E+02  0.10746104013E+03  0.99900713926E+02 0.  0.
        -13    1    3    3    0    0  0.52132619718E+01  0.43226952202E+02 -0.46130290272E+02  0.63433044840E+02  0.00000000000E+00 0. -1.
         13    1    3    3    0    0 -0.52132619718E+01 -0.43226952202E+02  0.65358146008E+01  0.44027995294E+02  0.00000000000E+00 0.  1.
<mgrwt>
<rscale>  0 0.99900714E+02</rscale>
<asrwt>0</asrwt>
<pdfrwt beam="2">  1        2 0.11311963E-01 0.99900714E+02</pdfrwt>
<pdfrwt beam="1">  1       -2 0.52205050E-02 0.99900714E+02</pdfrwt>
<totfact> 0.86715078E+04</totfact>
</mgrwt>
</event>
<event>
 5    1  0.6079230E+000  0.9069085E+02  0.7546771E-02  0.1301187E+00
         -1   -1    0    0    0  501 -0.00000000000E+00  0.00000000000E+00  0.24710138552E+03  0.24710138552E+03  0.00000000000E+00 0.  1.
          1   -1    0    0  501    0  0.00000000000E+00 -0.00000000000E+00 -0.83213119409E+01  0.83213119409E+01  0.00000000000E+00 0. -1.
         23    2    1    2    0    0  0.00000000000E+00  0.00000000000E+00  0.23878007357E+03  0.25542269746E+03  0.90690853120E+02 0.  0.
        -13    1    3    3    0    0 -0.38763794216E+02  0.86038236395E+01  0.18106558692E+03  0.18536829365E+03  0.00000000000E+00 0. -1.
         13    1    3    3    0    0  0.38763794216E+02 -0.86038236395E+01  0.57714486657E+02  0.70054403811E+02  0.00000000000E+00 0.  1.
<mgrwt>
<rscale>  0 0.90690853E+02</rscale>
<asrwt>0</asrwt>
<pdfrwt beam="2">  1        1 0.12802020E-02 0.90690853E+02</pdfrwt>
<pdfrwt beam="1">  1       -1 0.38015592E-01 0.90690853E+02</pdfrwt>
<totfact> 0.65933441E+04</totfact>
</mgrwt>
</event>
<event>
 5    1  0.6079230E+000  0.7772370E+02  0.7546771E-02  0.1335638E+00
          1   -1    0    0  501    0  0.00000000000E+00  0.00000000000E+00  0.13338176963E+02  0.13338176963E+02  0.00000000000E+00 0. -1.
         -1   -1    0    0    0  501 -0.00000000000E+00 -0.00000000000E+00 -0.11322711991E+03  0.11322711991E+03  0.00000000000E+00 0.  1.
         23    2    1    2    0    0  0.00000000000E+00  0.00000000000E+00 -0.99888942949E+02  0.12656529687E+03  0.77723699406E+02 0.  0.
        -13    1    3    3    0    0 -0.11091956921E+02 -0.35746624148E+02 -0.32913029815E+02  0.49840948806E+02  0.00000000000E+00 0. -1.
         13    1    3    3    0    0  0.11091956921E+02  0.35746624148E+02 -0.66975913134E+02  0.76724348068E+02  0.00000000000E+00 0.  1.
<mgrwt>
<rscale>  0 0.77723699E+02</rscale>
<asrwt>0</asrwt>
<pdfrwt beam="1">  1        1 0.20520272E-02 0.77723699E+02</pdfrwt>
<pdfrwt beam="2">  1       -1 0.17419557E-01 0.77723699E+02</pdfrwt>
<totfact> 0.11979459E+05</totfact>
</mgrwt>
</event>
<event>
 5    1  0.6079230E+000  0.9117855E+02  0.7546771E-02  0.1300023E+00
          2   -1    0    0  501    0  0.00000000000E+00  0.00000000000E+00  0.88423611053E+02  0.88423611053E+02  0.00000000000E+00 0. -1.
         -2   -1    0    0    0  501 -0.00000000000E+00 -0.00000000000E+00 -0.23504830706E+02  0.23504830706E+02  0.00000000000E+00 0.  1.
         23    2    1    2    0    0  0.00000000000E+00  0.00000000000E+00  0.64918780347E+02  0.11192844176E+03  0.91178550288E+02 0.  0.
        -13    1    3    3    0    0  0.43242765692E+01  0.45065326801E+02  0.25871654247E+02  0.52143317319E+02  0.00000000000E+00 0. -1.
         13    1    3    3    0    0 -0.43242765692E+01 -0.45065326801E+02  0.39047126100E+02  0.59785124439E+02  0.00000000000E+00 0.  1.
<mgrwt>
<rscale>  0 0.91178550E+02</rscale>
<asrwt>0</asrwt>
<pdfrwt beam="1">  1        2 0.13603632E-01 0.91178550E+02</pdfrwt>
<pdfrwt beam="2">  1       -2 0.36161278E-02 0.91178550E+02</pdfrwt>
<totfact> 0.11823427E+05</totfact>
</mgrwt>
</event>
<event>
 5    1  0.6079230E+000  0.8887758E+02  0.7546771E-02  0.1305593E+00
          1   -1    0    0  501    0  0.00000000000E+00  0.00000000000E+00  0.12776576377E+03  0.12776576377E+03  0.00000000000E+00 0. -1.
         -1   -1    0    0    0  501 -0.00000000000E+00 -0.00000000000E+00 -0.15456458724E+02  0.15456458724E+02  0.00000000000E+00 0.  1.
         23    2    1    2    0    0  0.00000000000E+00  0.00000000000E+00  0.11230930504E+03  0.14322222249E+03  0.88877584442E+02 0.  0.
        -13    1    3    3    0    0  0.37886607902E+02 -0.12356403086E+02  0.24464642423E+02  0.46761035964E+02  0.00000000000E+00 0.  1.
         13    1    3    3    0    0 -0.37886607902E+02  0.12356403086E+02  0.87844662621E+02  0.96461186529E+02  0.00000000000E+00 0. -1.
<mgrwt>
<rscale>  0 0.88877584E+02</rscale>
<asrwt>0</asrwt>
<pdfrwt beam="1">  1        1 0.19656271E-01 0.88877584E+02</pdfrwt>
<pdfrwt beam="2">  1       -1 0.23779168E-02 0.88877584E+02</pdfrwt>
<totfact> 0.11671340E+05</totfact>
</mgrwt>
</event>
<event>
 5    1  0.6079230E+000  0.7912678E+02  0.7546771E-02  0.1331548E+00
          3   -1    0    0  501    0  0.00000000000E+00  0.00000000000E+00  0.10428144390E+03  0.10428144390E+03  0.00000000000E+00 0. -1.
         -3   -1    0    0    0  501 -0.00000000000E+00 -0.00000000000E+00 -0.15009973709E+02  0.15009973709E+02  0.00000000000E+00 0.  1.
         23    2    1    2    0    0  0.00000000000E+00  0.00000000000E+00  0.89271470193E+02  0.11929141761E+03  0.79126777550E+02 0.  0.
        -13    1    3    3    0    0  0.14850965894E+02 -0.24957922609E+02  0.85139739575E+02  0.89956791539E+02  0.00000000000E+00 0. -1.
         13    1    3    3    0    0 -0.14850965894E+02  0.24957922609E+02  0.41317306179E+01  0.29334626073E+02  0.00000000000E+00 0.  1.
<mgrwt>
<rscale>  0 0.79126778E+02</rscale>
<asrwt>0</asrwt>
<pdfrwt beam="1">  1        3 0.16043299E-01 0.79126778E+02</pdfrwt>
<pdfrwt beam="2">  1       -3 0.23092268E-02 0.79126778E+02</pdfrwt>
<totfact> 0.48751655E+04</totfact>
</mgrwt>
</event>
<event>
 5    1  0.6079230E+000  0.9086637E+02  0.7546771E-02  0.1300767E+00
         -1   -1    0    0    0  501 -0.00000000000E+00  0.00000000000E+00  0.79417539866E+01  0.79417539866E+01  0.00000000000E+00 0.  1.
          1   -1    0    0  501    0  0.00000000000E+00 -0.00000000000E+00 -0.25991414316E+03  0.25991414316E+03  0.00000000000E+00 0. -1.
         23    2    1    2    0    0  0.00000000000E+00  0.00000000000E+00 -0.25197238917E+03  0.26785589715E+03  0.90866367433E+02 0.  0.
        -13    1    3    3    0    0 -0.39412648581E+01 -0.39294605952E+02 -0.59770533475E+02  0.71638790453E+02  0.00000000000E+00 0.  1.
         13    1    3    3    0    0  0.39412648581E+01  0.39294605952E+02 -0.19220185570E+03  0.19621710670E+03  0.00000000000E+00 0. -1.
<mgrwt>
<rscale>  0 0.90866367E+02</rscale>
<asrwt>0</asrwt>
<pdfrwt beam="2">  1        1 0.39986793E-01 0.90866367E+02</pdfrwt>
<pdfrwt beam="1">  1       -1 0.12218083E-02 0.90866367E+02</pdfrwt>
<totfact> 0.12575145E+05</totfact>
</mgrwt>
</event>
<event>
 5    1  0.6079230E+000  0.9066464E+02  0.7546771E-02  0.1301250E+00
          1   -1    0    0  501    0  0.00000000000E+00  0.00000000000E+00  0.74034113265E+01  0.74034113265E+01  0.00000000000E+00 0. -1.
         -1   -1    0    0    0  501 -0.00000000000E+00 -0.00000000000E+00 -0.27757735889E+03  0.27757735889E+03  0.00000000000E+00 0.  1.
         23    2    1    2    0    0  0.00000000000E+00  0.00000000000E+00 -0.27017394757E+03  0.28498077022E+03  0.90664642784E+02 0.  0.
        -13    1    3    3    0    0  0.13872018675E+02 -0.41746401733E+02 -0.16949424558E+03  0.17510994902E+03  0.00000000000E+00 0. -1.
         13    1    3    3    0    0 -0.13872018675E+02  0.41746401733E+02 -0.10067970198E+03  0.10987082120E+03  0.00000000000E+00 0.  1.
<mgrwt>
<rscale>  0 0.90664643E+02</rscale>
<asrwt>0</asrwt>
<pdfrwt beam="1">  1        1 0.11389864E-02 0.90664643E+02</pdfrwt>
<pdfrwt beam="2">  1       -1 0.42704207E-01 0.90664643E+02</pdfrwt>
<totfact> 0.63333778E+04</totfact>
</mgrwt>
</event>
<event>
 5    1  0.6079230E+000  0.9229016E+02  0.7546771E-02  0.1297399E+00
         -1   -1    0    0    0  501 -0.00000000000E+00  0.00000000000E+00  0.48044303013E+02  0.48044303013E+02  0.00000000000E+00 0.  1.
          1   -1    0    0  501    0  0.00000000000E+00 -0.00000000000E+00 -0.44320932276E+02  0.44320932276E+02  0.00000000000E+00 0. -1.
         23    2    1    2    0    0  0.00000000000E+00  0.00000000000E+00  0.37233707363E+01  0.92365235289E+02  0.92290157657E+02 0.  0.
        -13    1    3    3    0    0 -0.12415898812E+02 -0.35420422319E+02 -0.25004284525E+02  0.45099613138E+02  0.00000000000E+00 0.  1.
         13    1    3    3    0    0  0.12415898812E+02  0.35420422319E+02  0.28727655261E+02  0.47265622152E+02  0.00000000000E+00 0. -1.
<mgrwt>
<rscale>  0 0.92290158E+02</rscale>
<asrwt>0</asrwt>
<pdfrwt beam="2">  1        1 0.68186050E-02 0.92290158E+02</pdfrwt>
<pdfrwt beam="1">  1       -1 0.73914312E-02 0.92290158E+02</pdfrwt>
<totfact> 0.88986722E+04</totfact>
</mgrwt>
</event>
<event>
 5    1  0.6079230E+000  0.1225859E+03  0.7546771E-02  0.1238891E+00
          1   -1    0    0  501    0  0.00000000000E+00  0.00000000000E+00  0.26331510577E+03  0.26331510577E+03  0.00000000000E+00 0. -1.
         -1   -1    0    0    0  501 -0.00000000000E+00 -0.00000000000E+00 -0.14267405375E+02  0.14267405375E+02  0.00000000000E+00 0.  1.
         23    2    1    2    0    0  0.00000000000E+00  0.00000000000E+00  0.24904770040E+03  0.27758251115E+03  0.12258586143E+03 0.  0.
        -13    1    3    3    0    0  0.34183953968E+02 -0.37421976523E+02  0.20256745650E+03  0.20881216791E+03  0.00000000000E+00 0. -1.
         13    1    3    3    0    0 -0.34183953968E+02  0.37421976523E+02  0.46480243897E+02  0.68770343233E+02  0.00000000000E+00 0.  1.
<mgrwt>
<rscale>  0 0.12258586E+03</rscale>
<asrwt>0</asrwt>
<pdfrwt beam="1">  1        1 0.40510013E-01 0.12258586E+03</pdfrwt>
<pdfrwt beam="2">  1       -1 0.21949856E-02 0.12258586E+03</pdfrwt>
<totfact> 0.55954842E+04</totfact>
</mgrwt>
</event>
<event>
 5    1  0.6079230E+000  0.9226047E+02  0.7546771E-02  0.1297468E+00
         -1   -1    0    0    0  501 -0.00000000000E+00  0.00000000000E+00  0.74797075927E+01  0.74797075927E+01  0.00000000000E+00 0.  1.
          1   -1    0    0  501    0  0.00000000000E+00 -0.00000000000E+00 -0.28450292149E+03  0.28450292149E+03  0.00000000000E+00 0. -1.
         23    2    1    2    0    0  0.00000000000E+00  0.00000000000E+00 -0.27702321390E+03  0.29198262908E+03  0.92260471753E+02 0.  0.
        -13    1    3    3    0    0  0.48781668931E+01  0.45338955671E+02 -0.16057009185E+03  0.16691965675E+03  0.00000000000E+00 0.  1.
         13    1    3    3    0    0 -0.48781668931E+01 -0.45338955671E+02 -0.11645312205E+03  0.12506297233E+03  0.00000000000E+00 0. -1.
<mgrwt>
<rscale>  0 0.92260472E+02</rscale>
<asrwt>0</asrwt>
<pdfrwt beam="2">  1        1 0.43769673E-01 0.92260472E+02</pdfrwt>
<pdfrwt beam="1">  1       -1 0.11507244E-02 0.92260472E+02</pdfrwt>
<totfact> 0.12288596E+05</totfact>
</mgrwt>
</event>
<event>
 5    1  0.6079230E+000  0.9043707E+02  0.7546771E-02  0.1301797E+00
          2   -1    0    0  501    0  0.00000000000E+00  0.00000000000E+00  0.15526742355E+02  0.15526742355E+02  0.00000000000E+00 0. -1.
         -2   -1    0    0    0  501 -0.00000000000E+00 -0.00000000000E+00 -0.13168996161E+03  0.13168996161E+03  0.00000000000E+00 0.  1.
         23    2    1    2    0    0  0.00000000000E+00  0.00000000000E+00 -0.11616321926E+03  0.14721670397E+03  0.90437074361E+02 0.  0.
        -13    1    3    3    0    0  0.29152248652E+02  0.32141192916E+02 -0.78788180987E+02  0.89947136402E+02  0.00000000000E+00 0.  1.
         13    1    3    3    0    0 -0.29152248652E+02 -0.32141192916E+02 -0.37375038268E+02  0.57269567565E+02  0.00000000000E+00 0. -1.
<mgrwt>
<rscale>  0 0.90437074E+02</rscale>
<asrwt>0</asrwt>
<pdfrwt beam="1">  1        2 0.23887295E-02 0.90437074E+02</pdfrwt>
<pdfrwt beam="2">  1       -2 0.20259995E-01 0.90437074E+02</pdfrwt>
<totfact> 0.74642919E+04</totfact>
</mgrwt>
</event>
<event>
 5    1  0.6079230E+000  0.8992706E+02  0.7546771E-02  0.1303028E+00
         -1   -1    0    0    0  501 -0.00000000000E+00  0.00000000000E+00  0.18296175608E+02  0.18296175608E+02  0.00000000000E+00 0.  1.
          1   -1    0    0  501    0  0.00000000000E+00 -0.00000000000E+00 -0.11049954947E+03  0.11049954947E+03  0.00000000000E+00 0. -1.
         23    2    1    2    0    0  0.00000000000E+00  0.00000000000E+00 -0.92203373859E+02  0.12879572507E+03  0.89927062926E+02 0.  0.
        -13    1    3    3    0    0 -0.20200518642E+02  0.34660055279E+02 -0.75184614916E+02  0.85217995197E+02  0.00000000000E+00 0. -1.
         13    1    3    3    0    0  0.20200518642E+02 -0.34660055279E+02 -0.17018758943E+02  0.43577729878E+02  0.00000000000E+00 0.  1.
<mgrwt>
<rscale>  0 0.89927063E+02</rscale>
<asrwt>0</asrwt>
<pdfrwt beam="2">  1        1 0.16999930E-01 0.89927063E+02</pdfrwt>
<pdfrwt beam="1">  1       -1 0.28147963E-02 0.89927063E+02</pdfrwt>
<totfact> 0.11027549E+05</totfact>
</mgrwt>
</event>
<event>
 5    1  0.6079230E+000  0.9121953E+02  0.7546771E-02  0.1299925E+00
          1   -1    0    0  501    0  0.00000000000E+00  0.00000000000E+00  0.65644715826E+02  0.65644715826E+02  0.00000000000E+00 0. -1.
         -1   -1    0    0    0  501 -0.00000000000E+00 -0.00000000000E+00 -0.31689540128E+02  0.31689540128E+02  0.00000000000E+00 0.  1.
         23    2    1    2    0    0  0.00000000000E+00  0.00000000000E+00  0.33955175698E+02  0.97334255954E+02  0.91219534231E+02 0.  0.
        -13    1    3    3    0    0  0.30396203759E+02  0.33869001888E+02  0.20216233396E+02  0.49796933485E+02  0.00000000000E+00 0. -1.
         13    1    3    3    0    0 -0.30396203759E+02 -0.33869001888E+02  0.13738942303E+02  0.47537322468E+02  0.00000000000E+00 0.  1.
<mgrwt>
<rscale>  0 0.91219534E+02</rscale>
<asrwt>0</asrwt>
<pdfrwt beam="1">  1        1 0.10099187E-01 0.91219534E+02</pdfrwt>
<pdfrwt beam="2">  1       -1 0.48753139E-02 0.91219534E+02</pdfrwt>
<totfact> 0.97571660E+04</totfact>
</mgrwt>
</event>
<event>
 5    1  0.6079230E+000  0.8495171E+02  0.7546771E-02  0.1315559E+00
          1   -1    0    0  501    0  0.00000000000E+00  0.00000000000E+00  0.10778681551E+02  0.10778681551E+02  0.00000000000E+00 0. -1.
         -1   -1    0    0    0  501 -0.00000000000E+00 -0.00000000000E+00 -0.16738580724E+03  0.16738580724E+03  0.00000000000E+00 0.  1.
         23    2    1    2    0    0  0.00000000000E+00  0.00000000000E+00 -0.15660712569E+03  0.17816448879E+03  0.84951711282E+02 0.  0.
        -13    1    3    3    0    0 -0.22567855428E+02  0.30838777389E+02 -0.11719373434E+03  0.12326682302E+03  0.00000000000E+00 0.  1.
         13    1    3    3    0    0  0.22567855428E+02 -0.30838777389E+02 -0.39413391357E+02  0.54897665777E+02  0.00000000000E+00 0. -1.
<mgrwt>
<rscale>  0 0.84951711E+02</rscale>
<asrwt>0</asrwt>
<pdfrwt beam="1">  1        1 0.16582588E-02 0.84951711E+02</pdfrwt>
<pdfrwt beam="2">  1       -1 0.25751661E-01 0.84951711E+02</pdfrwt>
<totfact> 0.87478017E+04</totfact>
</mgrwt>
</event>
<event>
 5    1  0.6079230E+000  0.8670309E+02  0.7546771E-02  0.1311038E+00
         -2   -1    0    0    0  501 -0.00000000000E+00  0.00000000000E+00  0.10531889223E+02  0.10531889223E+02  0.00000000000E+00 0.  1.
          2   -1    0    0  501    0  0.00000000000E+00 -0.00000000000E+00 -0.17844437172E+03  0.17844437172E+03  0.00000000000E+00 0. -1.
         23    2    1    2    0    0  0.00000000000E+00  0.00000000000E+00 -0.16791248249E+03  0.18897626094E+03  0.86703087729E+02 0.  0.
        -13    1    3    3    0    0  0.25593607821E+02  0.32118171051E+02 -0.11421604754E+03  0.12137510119E+03  0.00000000000E+00 0.  1.
         13    1    3    3    0    0 -0.25593607821E+02 -0.32118171051E+02 -0.53696434955E+02  0.67601159752E+02  0.00000000000E+00 0. -1.
<mgrwt>
<rscale>  0 0.86703088E+02</rscale>
<asrwt>0</asrwt>
<pdfrwt beam="2">  1        2 0.27452977E-01 0.86703088E+02</pdfrwt>
<pdfrwt beam="1">  1       -2 0.16202908E-02 0.86703088E+02</pdfrwt>
<totfact> 0.17001012E+05</totfact>
</mgrwt>
</event>
<event>
 5    1  0.6079230E+000  0.8495064E+02  0.7546771E-02  0.1315562E+00
         -2   -1    0    0    0  501 -0.00000000000E+00  0.00000000000E+00  0.18127020410E+02  0.18127020410E+02  0.00000000000E+00 0.  1.
          2   -1    0    0  501    0  0.00000000000E+00 -0.00000000000E+00 -0.99528373463E+02  0.99528373463E+02  0.00000000000E+00 0. -1.
         23    2    1    2    0    0  0.00000000000E+00  0.00000000000E+00 -0.81401353054E+02  0.11765539387E+03  0.84950641130E+02 0.  0.
        -13    1    3    3    0    0 -0.96476181251E+01 -0.29612045436E+02 -0.69873437830E+00  0.31151853879E+02  0.00000000000E+00 0.  1.
         13    1    3    3    0    0  0.96476181251E+01  0.29612045436E+02 -0.80702618675E+02  0.86503539994E+02  0.00000000000E+00 0. -1.
<mgrwt>
<rscale>  0 0.84950641E+02</rscale>
<asrwt>0</asrwt>
<pdfrwt beam="2">  1        2 0.15312057E-01 0.84950641E+02</pdfrwt>
<pdfrwt beam="1">  1       -2 0.27887724E-02 0.84950641E+02</pdfrwt>
<totfact> 0.14866800E+05</totfact>
</mgrwt>
</event>
<event>
 5    1  0.6079230E+000  0.9104501E+02  0.7546771E-02  0.1300341E+00
          3   -1    0    0  501    0  0.00000000000E+00  0.00000000000E+00  0.47464472724E+02  0.47464472724E+02  0.00000000000E+00 0. -1.
         -3   -1    0    0    0  501 -0.00000000000E+00 -0.00000000000E+00 -0.43659989282E+02  0.43659989282E+02  0.00000000000E+00 0.  1.
         23    2    1    2    0    0  0.00000000000E+00  0.00000000000E+00  0.38044834420E+01  0.91124462005E+02  0.91045007999E+02 0.  0.
        -13    1    3    3    0    0 -0.36371007778E+02 -0.17416541639E+02 -0.19237559969E+02  0.44679635663E+02  0.00000000000E+00 0. -1.
         13    1    3    3    0    0  0.36371007778E+02  0.17416541639E+02  0.23042043411E+02  0.46444826342E+02  0.00000000000E+00 0.  1.
<mgrwt>
<rscale>  0 0.91045008E+02</rscale>
<asrwt>0</asrwt>
<pdfrwt beam="1">  1        3 0.73022265E-02 0.91045008E+02</pdfrwt>
<pdfrwt beam="2">  1       -3 0.67169215E-02 0.91045008E+02</pdfrwt>
<totfact> 0.35482438E+04</totfact>
</mgrwt>
</event>
<event>
 5    1  0.6079230E+000  0.9383418E+02  0.7546771E-02  0.1293824E+00
          3   -1    0    0  501    0  0.00000000000E+00  0.00000000000E+00  0.52082677678E+02  0.52082677678E+02  0.00000000000E+00 0. -1.
         -3   -1    0    0    0  501 -0.00000000000E+00 -0.00000000000E+00 -0.42263829152E+02  0.42263829152E+02  0.00000000000E+00 0.  1.
         23    2    1    2    0    0  0.00000000000E+00  0.00000000000E+00  0.98188485267E+01  0.94346506830E+02  0.93834181217E+02 0.  0.
        -13    1    3    3    0    0 -0.38984356981E+02  0.24745835533E+02 -0.34472073354E+01  0.46303560380E+02  0.00000000000E+00 0.  1.
         13    1    3    3    0    0  0.38984356981E+02 -0.24745835533E+02  0.13266055862E+02  0.48042946450E+02  0.00000000000E+00 0. -1.
<mgrwt>
<rscale>  0 0.93834181E+02</rscale>
<asrwt>0</asrwt>
<pdfrwt beam="1">  1        3 0.80127196E-02 0.93834181E+02</pdfrwt>
<pdfrwt beam="2">  1       -3 0.65021276E-02 0.93834181E+02</pdfrwt>
<totfact> 0.32446625E+04</totfact>
</mgrwt>
</event>
<event>
 5    1  0.6079230E+000  0.8581698E+02  0.7546771E-02  0.1313310E+00
          2   -1    0    0  501    0  0.00000000000E+00  0.00000000000E+00  0.14905718201E+02  0.14905718201E+02  0.00000000000E+00 0. -1.
         -2   -1    0    0    0  501 -0.00000000000E+00 -0.00000000000E+00 -0.12351893901E+03  0.12351893901E+03  0.00000000000E+00 0.  1.
         23    2    1    2    0    0  0.00000000000E+00  0.00000000000E+00 -0.10861322081E+03  0.13842465721E+03  0.85816979612E+02 0.  0.
        -13    1    3    3    0    0 -0.29816756515E+02 -0.29249510975E+02 -0.70157423111E+02  0.81649475680E+02  0.00000000000E+00 0.  1.
         13    1    3    3    0    0  0.29816756515E+02  0.29249510975E+02 -0.38455797700E+02  0.56775181533E+02  0.00000000000E+00 0. -1.
<mgrwt>
<rscale>  0 0.85816980E+02</rscale>
<asrwt>0</asrwt>
<pdfrwt beam="1">  1        2 0.22931873E-02 0.85816980E+02</pdfrwt>
<pdfrwt beam="2">  1       -2 0.19002914E-01 0.85816980E+02</pdfrwt>
<totfact> 0.86983058E+04</totfact>
</mgrwt>
</event>
<event>
 5    1  0.6079230E+000  0.8770195E+02  0.7546771E-02  0.1308514E+00
          2   -1    0    0  501    0  0.00000000000E+00  0.00000000000E+00  0.21149088291E+02  0.21149088291E+02  0.00000000000E+00 0. -1.
         -2   -1    0    0    0  501 -0.00000000000E+00 -0.00000000000E+00 -0.90921560007E+02  0.90921560007E+02  0.00000000000E+00 0.  1.
         23    2    1    2    0    0  0.00000000000E+00  0.00000000000E+00 -0.69772471716E+02  0.11207064830E+03  0.87701952092E+02 0.  0.
        -13    1    3    3    0    0  0.65095555329E+01 -0.35005674918E+02 -0.21786473206E+01  0.35672371576E+02  0.00000000000E+00 0. -1.
         13    1    3    3    0    0 -0.65095555329E+01  0.35005674918E+02 -0.67593824395E+02  0.76398276722E+02  0.00000000000E+00 0.  1.
<mgrwt>
<rscale>  0 0.87701952E+02</rscale>
<asrwt>0</asrwt>
<pdfrwt beam="1">  1        2 0.32537059E-02 0.87701952E+02</pdfrwt>
<pdfrwt beam="2">  1       -2 0.13987932E-01 0.87701952E+02</pdfrwt>
<totfact> 0.90346627E+04</totfact>
</mgrwt>
</event>
<event>
 5    1  0.6079230E+000  0.6617114E+02  0.7546771E-02  0.1373620E+00
         -1   -1    0    0    0  501 -0.00000000000E+00  0.00000000000E+00  0.31137997608E+01  0.31137997608E+01  0.00000000000E+00 0.  1.
          1   -1    0    0  501    0  0.00000000000E+00 -0.00000000000E+00 -0.35154954895E+03  0.35154954895E+03  0.00000000000E+00 0. -1.
         23    2    1    2    0    0  0.00000000000E+00  0.00000000000E+00 -0.34843574918E+03  0.35466334871E+03  0.66171138766E+02 0.  0.
        -13    1    3    3    0    0  0.33038700338E+01 -0.32866241950E+02 -0.16411999170E+03  0.16741110206E+03  0.00000000000E+00 0. -1.
         13    1    3    3    0    0 -0.33038700338E+01  0.32866241950E+02 -0.18431575748E+03  0.18725224664E+03  0.00000000000E+00 0.  1.
<mgrwt>
<rscale>  0 0.66171139E+02</rscale>
<asrwt>0</asrwt>
<pdfrwt beam="2">  1        1 0.54084578E-01 0.66171139E+02</pdfrwt>
<pdfrwt beam="1">  1       -1 0.47904583E-03 0.66171139E+02</pdfrwt>
<totfact> 0.30507041E+05</totfact>
</mgrwt>
</event>
<event>
 5    1  0.6079230E+000  0.9192414E+02  0.7546771E-02  0.1298258E+00
          3   -1    0    0  501    0  0.00000000000E+00  0.00000000000E+00  0.34014595642E+02  0.34014595642E+02  0.00000000000E+00 0. -1.
         -3   -1    0    0    0  501 -0.00000000000E+00 -0.00000000000E+00 -0.62106042040E+02  0.62106042040E+02  0.00000000000E+00 0.  1.
         23    2    1    2    0    0  0.00000000000E+00  0.00000000000E+00 -0.28091446398E+02  0.96120637682E+02  0.91924140615E+02 0.  0.
        -13    1    3    3    0    0  0.43997077429E+02  0.10240967233E+02 -0.51797509958E+01  0.45469220936E+02  0.00000000000E+00 0.  1.
         13    1    3    3    0    0 -0.43997077429E+02 -0.10240967233E+02 -0.22911695402E+02  0.50651416746E+02  0.00000000000E+00 0. -1.
<mgrwt>
<rscale>  0 0.91924141E+02</rscale>
<asrwt>0</asrwt>
<pdfrwt beam="1">  1        3 0.52330147E-02 0.91924141E+02</pdfrwt>
<pdfrwt beam="2">  1       -3 0.95547756E-02 0.91924141E+02</pdfrwt>
<totfact> 0.34192306E+04</totfact>
</mgrwt>
</event>
<event>
 5    1  0.6079230E+000  0.8860668E+02  0.7546771E-02  0.1306261E+00
          4   -1    0    0  501    0  0.00000000000E+00  0.00000000000E+00  0.37793751949E+02  0.37793751949E+02  0.00000000000E+00 0. -1.
         -4   -1    0    0    0  501 -0.00000000000E+00 -0.00000000000E+00 -0.51934143857E+02  0.51934143857E+02  0.00000000000E+00 0.  1.
         23    2    1    2    0    0  0.00000000000E+00  0.00000000000E+00 -0.14140391909E+02  0.89727895806E+02  0.88606684863E+02 0.  0.
        -13    1    3    3    0    0 -0.26701070905E+02 -0.33588066165E+02 -0.18240679616E+02  0.46624325937E+02  0.00000000000E+00 0. -1.
         13    1    3    3    0    0  0.26701070905E+02  0.33588066165E+02  0.41002877075E+01  0.43103569869E+02  0.00000000000E+00 0.  1.
<mgrwt>
<rscale>  0 0.88606685E+02</rscale>
<asrwt>0</asrwt>
<pdfrwt beam="1">  1        4 0.58144234E-02 0.88606685E+02</pdfrwt>
<pdfrwt beam="2">  1       -4 0.79898683E-02 0.88606685E+02</pdfrwt>
<totfact> 0.29290285E+04</totfact>
</mgrwt>
</event>
<event>
 5    1  0.6079230E+000  0.9051782E+02  0.7546771E-02  0.1301603E+00
         -1   -1    0    0    0  501 -0.00000000000E+00  0.00000000000E+00  0.15812632550E+03  0.15812632550E+03  0.00000000000E+00 0.  1.
          1   -1    0    0  501    0  0.00000000000E+00 -0.00000000000E+00 -0.12954004519E+02  0.12954004519E+02  0.00000000000E+00 0. -1.
         23    2    1    2    0    0  0.00000000000E+00  0.00000000000E+00  0.14517232098E+03  0.17108033001E+03  0.90517824435E+02 0.  0.
        -13    1    3    3    0    0 -0.14164605966E+02 -0.25712912375E+02  0.13769115992E+03  0.14078581408E+03  0.00000000000E+00 0.  1.
         13    1    3    3    0    0  0.14164605966E+02  0.25712912375E+02  0.74811610513E+01  0.30294515934E+02  0.00000000000E+00 0. -1.
<mgrwt>
<rscale>  0 0.90517824E+02</rscale>
<asrwt>0</asrwt>
<pdfrwt beam="2">  1        1 0.19929239E-02 0.90517824E+02</pdfrwt>
<pdfrwt beam="1">  1       -1 0.24327126E-01 0.90517824E+02</pdfrwt>
<totfact> 0.75258368E+04</totfact>
</mgrwt>
</event>
<event>
 5    1  0.6079230E+000  0.9192541E+02  0.7546771E-02  0.1298255E+00
         -2   -1    0    0    0  501 -0.00000000000E+00  0.00000000000E+00  0.33412734765E+02  0.33412734765E+02  0.00000000000E+00 0.  1.
          2   -1    0    0  501    0  0.00000000000E+00 -0.00000000000E+00 -0.63226502404E+02  0.63226502404E+02  0.00000000000E+00 0. -1.
         23    2    1    2    0    0  0.00000000000E+00  0.00000000000E+00 -0.29813767639E+02  0.96639237169E+02  0.91925412263E+02 0.  0.
        -13    1    3    3    0    0 -0.23694582048E+02  0.62007038193E+01  0.25980812879E+02  0.35705525961E+02  0.00000000000E+00 0.  1.
         13    1    3    3    0    0  0.23694582048E+02 -0.62007038193E+01 -0.55794580519E+02  0.60933711208E+02  0.00000000000E+00 0. -1.
<mgrwt>
<rscale>  0 0.91925412E+02</rscale>
<asrwt>0</asrwt>
<pdfrwt beam="2">  1        2 0.97271541E-02 0.91925412E+02</pdfrwt>
<pdfrwt beam="1">  1       -2 0.51404208E-02 0.91925412E+02</pdfrwt>
<totfact> 0.10512818E+05</totfact>
</mgrwt>
</event>
<event>
 5    1  0.6079230E+000  0.9118019E+02  0.7546771E-02  0.1300019E+00
         -2   -1    0    0    0  501 -0.00000000000E+00  0.00000000000E+00  0.32709631207E+02  0.32709631207E+02  0.00000000000E+00 0. -1.
          2   -1    0    0  501    0  0.00000000000E+00 -0.00000000000E+00 -0.63542652764E+02  0.63542652764E+02  0.00000000000E+00 0.  1.
         23    2    1    2    0    0  0.00000000000E+00  0.00000000000E+00 -0.30833021556E+02  0.96252283971E+02  0.91180189468E+02 0.  0.
        -13    1    3    3    0    0  0.25580876715E+02  0.33265314902E+02  0.33930444251E+01  0.42100774097E+02  0.00000000000E+00 0. -1.
         13    1    3    3    0    0 -0.25580876715E+02 -0.33265314902E+02 -0.34226065982E+02  0.54151509874E+02  0.00000000000E+00 0.  1.
<mgrwt>
<rscale>  0 0.91180189E+02</rscale>
<asrwt>0</asrwt>
<pdfrwt beam="2">  1        2 0.97757926E-02 0.91180189E+02</pdfrwt>
<pdfrwt beam="1">  1       -2 0.50322510E-02 0.91180189E+02</pdfrwt>
<totfact> 0.10771246E+05</totfact>
</mgrwt>
</event>
<event>
 5    1  0.6079230E+000  0.9087111E+02  0.7546771E-02  0.1300756E+00
         -1   -1    0    0    0  501 -0.00000000000E+00  0.00000000000E+00  0.13483255180E+03  0.13483255180E+03  0.00000000000E+00 0.  1.
          1   -1    0    0  501    0  0.00000000000E+00 -0.00000000000E+00 -0.15310765204E+02  0.15310765204E+02  0.00000000000E+00 0. -1.
         23    2    1    2    0    0  0.00000000000E+00  0.00000000000E+00  0.11952178659E+03  0.15014331700E+03  0.90871107454E+02 0.  0.
        -13    1    3    3    0    0 -0.14497884981E+02 -0.16979299117E+02  0.12514358415E+03  0.12711963625E+03  0.00000000000E+00 0.  1.
         13    1    3    3    0    0  0.14497884981E+02  0.16979299117E+02 -0.56217975563E+01  0.23023680749E+02  0.00000000000E+00 0. -1.
<mgrwt>
<rscale>  0 0.90871107E+02</rscale>
<asrwt>0</asrwt>
<pdfrwt beam="2">  1        1 0.23555024E-02 0.90871107E+02</pdfrwt>
<pdfrwt beam="1">  1       -1 0.20743469E-01 0.90871107E+02</pdfrwt>
<totfact> 0.77285725E+04</totfact>
</mgrwt>
</event>
<event>
 5    1  0.6079230E+000  0.9087162E+02  0.7546771E-02  0.1300755E+00
         -2   -1    0    0    0  501 -0.00000000000E+00  0.00000000000E+00  0.94165255303E+01  0.94165255303E+01  0.00000000000E+00 0.  1.
          2   -1    0    0  501    0  0.00000000000E+00 -0.00000000000E+00 -0.21923297286E+03  0.21923297286E+03  0.00000000000E+00 0. -1.
         23    2    1    2    0    0  0.00000000000E+00  0.00000000000E+00 -0.20981644733E+03  0.22864949839E+03  0.90871621226E+02 0.  0.
        -13    1    3    3    0    0 -0.24238144484E+02 -0.33706713323E+02 -0.58458754413E+02  0.71701158558E+02  0.00000000000E+00 0.  1.
         13    1    3    3    0    0  0.24238144484E+02  0.33706713323E+02 -0.15135769292E+03  0.15694833984E+03  0.00000000000E+00 0. -1.
<mgrwt>
<rscale>  0 0.90871621E+02</rscale>
<asrwt>0</asrwt>
<pdfrwt beam="2">  1        2 0.33728147E-01 0.90871621E+02</pdfrwt>
<pdfrwt beam="1">  1       -2 0.14486964E-02 0.90871621E+02</pdfrwt>
<totfact> 0.16138242E+05</totfact>
</mgrwt>
</event>
<event>
 5    1  0.6079230E+000  0.9125204E+02  0.7546771E-02  0.1299848E+00
         -1   -1    0    0    0  501 -0.00000000000E+00  0.00000000000E+00  0.39526888981E+02  0.39526888981E+02  0.00000000000E+00 0.  1.
          1   -1    0    0  501    0  0.00000000000E+00 -0.00000000000E+00 -0.52666270196E+02  0.52666270196E+02  0.00000000000E+00 0. -1.
         23    2    1    2    0    0  0.00000000000E+00  0.00000000000E+00 -0.13139381215E+02  0.92193159177E+02  0.91252042499E+02 0.  0.
        -13    1    3    3    0    0  0.36629925365E+01  0.14492609327E+02  0.36982674744E+02  0.39889490730E+02  0.00000000000E+00 0.  1.
         13    1    3    3    0    0 -0.36629925365E+01 -0.14492609327E+02 -0.50122055959E+02  0.52303668447E+02  0.00000000000E+00 0. -1.
<mgrwt>
<rscale>  0 0.91252042E+02</rscale>
<asrwt>0</asrwt>
<pdfrwt beam="2">  1        1 0.81025031E-02 0.91252042E+02</pdfrwt>
<pdfrwt beam="1">  1       -1 0.60810599E-02 0.91252042E+02</pdfrwt>
<totfact> 0.94280680E+04</totfact>
</mgrwt>
</event>
<event>
 5    1  0.6079230E+000  0.9099350E+02  0.7546771E-02  0.1300463E+00
         -2   -1    0    0    0  501 -0.00000000000E+00  0.00000000000E+00  0.50756069568E+02  0.50756069568E+02  0.00000000000E+00 0.  1.
          2   -1    0    0  501    0  0.00000000000E+00 -0.00000000000E+00 -0.40782400246E+02  0.40782400246E+02  0.00000000000E+00 0. -1.
         23    2    1    2    0    0  0.00000000000E+00  0.00000000000E+00  0.99736693216E+01  0.91538469814E+02  0.90993501835E+02 0.  0.
        -13    1    3    3    0    0  0.24456979075E+02 -0.24728105382E+02  0.34493908051E+02  0.48984208822E+02  0.00000000000E+00 0.  1.
         13    1    3    3    0    0 -0.24456979075E+02  0.24728105382E+02 -0.24520238729E+02  0.42554260992E+02  0.00000000000E+00 0. -1.
<mgrwt>
<rscale>  0 0.90993502E+02</rscale>
<asrwt>0</asrwt>
<pdfrwt beam="2">  1        2 0.62742155E-02 0.90993502E+02</pdfrwt>
<pdfrwt beam="1">  1       -2 0.78086260E-02 0.90993502E+02</pdfrwt>
<totfact> 0.96427845E+04</totfact>
</mgrwt>
</event>
<event>
 5    1  0.6079230E+000  0.8344758E+02  0.7546771E-02  0.1319543E+00
          1   -1    0    0  501    0  0.00000000000E+00  0.00000000000E+00  0.17738814047E+03  0.17738814047E+03  0.00000000000E+00 0. -1.
         -1   -1    0    0    0  501 -0.00000000000E+00 -0.00000000000E+00 -0.98139288011E+01  0.98139288011E+01  0.00000000000E+00 0.  1.
         23    2    1    2    0    0  0.00000000000E+00  0.00000000000E+00  0.16757421167E+03  0.18720206927E+03  0.83447578293E+02 0.  0.
        -13    1    3    3    0    0  0.34022707210E+02  0.24114526056E+02  0.86813223584E+02  0.96309868455E+02  0.00000000000E+00 0.  1.
         13    1    3    3    0    0 -0.34022707210E+02 -0.24114526056E+02  0.80760988085E+02  0.90892200817E+02  0.00000000000E+00 0. -1.
<mgrwt>
<rscale>  0 0.83447578E+02</rscale>
<asrwt>0</asrwt>
<pdfrwt beam="1">  1        1 0.27290481E-01 0.83447578E+02</pdfrwt>
<pdfrwt beam="2">  1       -1 0.15098353E-02 0.83447578E+02</pdfrwt>
<totfact> 0.14661504E+05</totfact>
</mgrwt>
</event>
<event>
 5    1  0.6079230E+000  0.9191378E+02  0.7546771E-02  0.1298282E+00
         -1   -1    0    0    0  501 -0.00000000000E+00  0.00000000000E+00  0.97266220979E+02  0.97266220979E+02  0.00000000000E+00 0.  1.
          1   -1    0    0  501    0  0.00000000000E+00 -0.00000000000E+00 -0.21713970660E+02  0.21713970660E+02  0.00000000000E+00 0. -1.
         23    2    1    2    0    0  0.00000000000E+00  0.00000000000E+00  0.75552250320E+02  0.11898019164E+03  0.91913782830E+02 0.  0.
        -13    1    3    3    0    0 -0.14330436702E+02 -0.22549967764E+02  0.86179377322E+02  0.90226091226E+02  0.00000000000E+00 0.  1.
         13    1    3    3    0    0  0.14330436702E+02  0.22549967764E+02 -0.10627127003E+02  0.28754100413E+02  0.00000000000E+00 0. -1.
<mgrwt>
<rscale>  0 0.91913783E+02</rscale>
<asrwt>0</asrwt>
<pdfrwt beam="2">  1        1 0.33406109E-02 0.91913783E+02</pdfrwt>
<pdfrwt beam="1">  1       -1 0.14964034E-01 0.91913783E+02</pdfrwt>
<totfact> 0.80109547E+04</totfact>
</mgrwt>
</event>
<event>
 5    1  0.6079230E+000  0.9183485E+02  0.7546771E-02  0.1298468E+00
         -1   -1    0    0    0  501 -0.00000000000E+00  0.00000000000E+00  0.73787936100E+02  0.73787936100E+02  0.00000000000E+00 0.  1.
          1   -1    0    0  501    0  0.00000000000E+00 -0.00000000000E+00 -0.28573908139E+02  0.28573908139E+02  0.00000000000E+00 0. -1.
         23    2    1    2    0    0  0.00000000000E+00  0.00000000000E+00  0.45214027961E+02  0.10236184424E+03  0.91834845411E+02 0.  0.
        -13    1    3    3    0    0 -0.41595241688E+02  0.92235755765E+01  0.35220529492E+01  0.42750945422E+02  0.00000000000E+00 0.  1.
         13    1    3    3    0    0  0.41595241688E+02 -0.92235755765E+01  0.41691975012E+02  0.59610898818E+02  0.00000000000E+00 0. -1.
<mgrwt>
<rscale>  0 0.91834845E+02</rscale>
<asrwt>0</asrwt>
<pdfrwt beam="2">  1        1 0.43959859E-02 0.91834845E+02</pdfrwt>
<pdfrwt beam="1">  1       -1 0.11351990E-01 0.91834845E+02</pdfrwt>
<totfact> 0.84235972E+04</totfact>
</mgrwt>
</event>
<event>
 5    1  0.6079230E+000  0.9282871E+02  0.7546771E-02  0.1296143E+00
         -1   -1    0    0    0  501 -0.00000000000E+00  0.00000000000E+00  0.19436787650E+02  0.19436787650E+02  0.00000000000E+00 0.  1.
          1   -1    0    0  501    0  0.00000000000E+00 -0.00000000000E+00 -0.11083583305E+03  0.11083583305E+03  0.00000000000E+00 0. -1.
         23    2    1    2    0    0  0.00000000000E+00  0.00000000000E+00 -0.91399045403E+02  0.13027262070E+03  0.92828714329E+02 0.  0.
        -13    1    3    3    0    0 -0.20347176522E+01 -0.24776415558E+02 -0.10070503883E+03  0.10372808534E+03  0.00000000000E+00 0. -1.
         13    1    3    3    0    0  0.20347176522E+01  0.24776415558E+02  0.93059934240E+01  0.26544535359E+02  0.00000000000E+00 0.  1.
<mgrwt>
<rscale>  0 0.92828714E+02</rscale>
<asrwt>0</asrwt>
<pdfrwt beam="2">  1        1 0.17051666E-01 0.92828714E+02</pdfrwt>
<pdfrwt beam="1">  1       -1 0.29902751E-02 0.92828714E+02</pdfrwt>
<totfact> 0.10120436E+05</totfact>
</mgrwt>
</event>
<event>
 5    1  0.6079230E+000  0.9178593E+02  0.7546771E-02  0.1298584E+00
          2   -1    0    0  501    0  0.00000000000E+00  0.00000000000E+00  0.33529320597E+02  0.33529320597E+02  0.00000000000E+00 0. -1.
         -2   -1    0    0    0  501 -0.00000000000E+00 -0.00000000000E+00 -0.62815592567E+02  0.62815592567E+02  0.00000000000E+00 0.  1.
         23    2    1    2    0    0  0.00000000000E+00  0.00000000000E+00 -0.29286271970E+02  0.96344913163E+02  0.91785927933E+02 0.  0.
        -13    1    3    3    0    0 -0.39756200157E+02  0.78192432283E+01 -0.37265117583E+02  0.55048932815E+02  0.00000000000E+00 0.  1.
         13    1    3    3    0    0  0.39756200157E+02 -0.78192432283E+01  0.79788456134E+01  0.41295980348E+02  0.00000000000E+00 0. -1.
<mgrwt>
<rscale>  0 0.91785928E+02</rscale>
<asrwt>0</asrwt>
<pdfrwt beam="1">  1        2 0.51583570E-02 0.91785928E+02</pdfrwt>
<pdfrwt beam="2">  1       -2 0.96639373E-02 0.91785928E+02</pdfrwt>
<totfact> 0.89339549E+04</totfact>
</mgrwt>
</event>
<event>
 5    1  0.6079230E+000  0.9262117E+02  0.7546771E-02  0.1296625E+00
          2   -1    0    0  501    0  0.00000000000E+00  0.00000000000E+00  0.31315212035E+03  0.31315212035E+03  0.00000000000E+00 0. -1.
         -2   -1    0    0    0  501 -0.00000000000E+00 -0.00000000000E+00 -0.68486537846E+01  0.68486537846E+01  0.00000000000E+00 0.  1.
         23    2    1    2    0    0  0.00000000000E+00  0.00000000000E+00  0.30630346657E+03  0.32000077414E+03  0.92621173696E+02 0.  0.
        -13    1    3    3    0    0 -0.13648905102E+02  0.41923032390E+02  0.20211414784E+03  0.20686701528E+03  0.00000000000E+00 0. -1.
         13    1    3    3    0    0  0.13648905102E+02 -0.41923032390E+02  0.10418931873E+03  0.11313375885E+03  0.00000000000E+00 0.  1.
<mgrwt>
<rscale>  0 0.92621174E+02</rscale>
<asrwt>0</asrwt>
<pdfrwt beam="1">  1        2 0.48177238E-01 0.92621174E+02</pdfrwt>
<pdfrwt beam="2">  1       -2 0.10536393E-02 0.92621174E+02</pdfrwt>
<totfact> 0.17504760E+05</totfact>
</mgrwt>
</event>
<event>
 5    1  0.6079230E+000  0.9175894E+02  0.7546771E-02  0.1298647E+00
         -1   -1    0    0    0  501 -0.00000000000E+00  0.00000000000E+00  0.15632286759E+03  0.15632286759E+03  0.00000000000E+00 0.  1.
          1   -1    0    0  501    0  0.00000000000E+00 -0.00000000000E+00 -0.13465245839E+02  0.13465245839E+02  0.00000000000E+00 0. -1.
         23    2    1    2    0    0  0.00000000000E+00  0.00000000000E+00  0.14285762175E+03  0.16978811343E+03  0.91758941633E+02 0.  0.
        -13    1    3    3    0    0 -0.12964356243E+02 -0.32806467655E+02  0.17146756574E+02  0.39221806611E+02  0.00000000000E+00 0. -1.
         13    1    3    3    0    0  0.12964356243E+02  0.32806467655E+02  0.12571086517E+03  0.13056630682E+03  0.00000000000E+00 0.  1.
<mgrwt>
<rscale>  0 0.91758942E+02</rscale>
<asrwt>0</asrwt>
<pdfrwt beam="2">  1        1 0.20715764E-02 0.91758942E+02</pdfrwt>
<pdfrwt beam="1">  1       -1 0.24049671E-01 0.91758942E+02</pdfrwt>
<totfact> 0.72844048E+04</totfact>
</mgrwt>
</event>
<event>
 5    1  0.6079230E+000  0.8967338E+02  0.7546771E-02  0.1303645E+00
          1   -1    0    0  501    0  0.00000000000E+00  0.00000000000E+00  0.74053813528E+02  0.74053813528E+02  0.00000000000E+00 0. -1.
         -1   -1    0    0    0  501 -0.00000000000E+00 -0.00000000000E+00 -0.27146860543E+02  0.27146860543E+02  0.00000000000E+00 0.  1.
         23    2    1    2    0    0  0.00000000000E+00  0.00000000000E+00  0.46906952985E+02  0.10120067407E+03  0.89673375057E+02 0.  0.
        -13    1    3    3    0    0  0.27435643413E+01 -0.32178073903E+02  0.58554264154E+02  0.66869704920E+02  0.00000000000E+00 0. -1.
         13    1    3    3    0    0 -0.27435643413E+01  0.32178073903E+02 -0.11647311169E+02  0.34330969151E+02  0.00000000000E+00 0.  1.
<mgrwt>
<rscale>  0 0.89673375E+02</rscale>
<asrwt>0</asrwt>
<pdfrwt beam="1">  1        1 0.11392894E-01 0.89673375E+02</pdfrwt>
<pdfrwt beam="2">  1       -1 0.41764401E-02 0.89673375E+02</pdfrwt>
<totfact> 0.10418319E+05</totfact>
</mgrwt>
</event>
<event>
 5    1  0.6079230E+000  0.8850363E+02  0.7546771E-02  0.1306516E+00
          2   -1    0    0  501    0  0.00000000000E+00  0.00000000000E+00  0.29119563225E+03  0.29119563225E+03  0.00000000000E+00 0. -1.
         -2   -1    0    0    0  501 -0.00000000000E+00 -0.00000000000E+00 -0.67247680965E+01  0.67247680965E+01  0.00000000000E+00 0.  1.
         23    2    1    2    0    0  0.00000000000E+00  0.00000000000E+00  0.28447086415E+03  0.29792040034E+03  0.88503629249E+02 0.  0.
        -13    1    3    3    0    0 -0.33269252729E+02  0.26150366675E+02  0.98664571146E+02  0.10735633402E+03  0.00000000000E+00 0.  1.
         13    1    3    3    0    0  0.33269252729E+02 -0.26150366675E+02  0.18580629300E+03  0.19056406632E+03  0.00000000000E+00 0. -1.
<mgrwt>
<rscale>  0 0.88503629E+02</rscale>
<asrwt>0</asrwt>
<pdfrwt beam="1">  1        2 0.44799318E-01 0.88503629E+02</pdfrwt>
<pdfrwt beam="2">  1       -2 0.10345799E-02 0.88503629E+02</pdfrwt>
<totfact> 0.19233427E+05</totfact>
</mgrwt>
</event>
<event>
 5    1  0.6079230E+000  0.8954799E+02  0.7546771E-02  0.1303950E+00
         -1   -1    0    0    0  501 -0.00000000000E+00  0.00000000000E+00  0.28953976118E+02  0.28953976118E+02  0.00000000000E+00 0.  1.
          1   -1    0    0  501    0  0.00000000000E+00 -0.00000000000E+00 -0.69237836136E+02  0.69237836136E+02  0.00000000000E+00 0. -1.
         23    2    1    2    0    0  0.00000000000E+00  0.00000000000E+00 -0.40283860018E+02  0.98191812254E+02  0.89547990573E+02 0.  0.
        -13    1    3    3    0    0 -0.86983985832E+01 -0.18243858036E+02  0.23667183590E+02  0.31122918774E+02  0.00000000000E+00 0.  1.
         13    1    3    3    0    0  0.86983985832E+01  0.18243858036E+02 -0.63951043609E+02  0.67068893479E+02  0.00000000000E+00 0. -1.
<mgrwt>
<rscale>  0 0.89547991E+02</rscale>
<asrwt>0</asrwt>
<pdfrwt beam="2">  1        1 0.10651975E-01 0.89547991E+02</pdfrwt>
<pdfrwt beam="1">  1       -1 0.44544579E-02 0.89547991E+02</pdfrwt>
<totfact> 0.10351236E+05</totfact>
</mgrwt>
</event>
<event>
 5    1  0.6079230E+000  0.9137073E+02  0.7546771E-02  0.1299566E+00
          1   -1    0    0  501    0  0.00000000000E+00  0.00000000000E+00  0.25699788839E+03  0.25699788839E+03  0.00000000000E+00 0. -1.
         -1   -1    0    0    0  501 -0.00000000000E+00 -0.00000000000E+00 -0.81212824773E+01  0.81212824773E+01  0.00000000000E+00 0.  1.
         23    2    1    2    0    0  0.00000000000E+00  0.00000000000E+00  0.24887660591E+03  0.26511917087E+03  0.91370727209E+02 0.  0.
        -13    1    3    3    0    0  0.39796167909E+02 -0.10904254163E+02  0.67541150719E+02  0.79148245588E+02  0.00000000000E+00 0.  1.
         13    1    3    3    0    0 -0.39796167909E+02  0.10904254163E+02  0.18133545519E+03  0.18597092528E+03  0.00000000000E+00 0. -1.
<mgrwt>
<rscale>  0 0.91370727E+02</rscale>
<asrwt>0</asrwt>
<pdfrwt beam="1">  1        1 0.39538130E-01 0.91370727E+02</pdfrwt>
<pdfrwt beam="2">  1       -1 0.12494283E-02 0.91370727E+02</pdfrwt>
<totfact> 0.12363259E+05</totfact>
</mgrwt>
</event>
<event>
 5    1  0.6079230E+000  0.9030741E+02  0.7546771E-02  0.1302109E+00
         -1   -1    0    0    0  501 -0.00000000000E+00  0.00000000000E+00  0.11982612366E+02  0.11982612366E+02  0.00000000000E+00 0.  1.
          1   -1    0    0  501    0  0.00000000000E+00 -0.00000000000E+00 -0.17015131286E+03  0.17015131286E+03  0.00000000000E+00 0. -1.
         23    2    1    2    0    0  0.00000000000E+00  0.00000000000E+00 -0.15816870049E+03  0.18213392522E+03  0.90307413328E+02 0.  0.
        -13    1    3    3    0    0 -0.68449024495E+01 -0.40571184538E+02 -0.41570196717E+02  0.58488930230E+02  0.00000000000E+00 0.  1.
         13    1    3    3    0    0  0.68449024495E+01  0.40571184538E+02 -0.11659850377E+03  0.12364499499E+03  0.00000000000E+00 0. -1.
<mgrwt>
<rscale>  0 0.90307413E+02</rscale>
<asrwt>0</asrwt>
<pdfrwt beam="2">  1        1 0.26177125E-01 0.90307413E+02</pdfrwt>
<pdfrwt beam="1">  1       -1 0.18434789E-02 0.90307413E+02</pdfrwt>
<totfact> 0.11778874E+05</totfact>
</mgrwt>
</event>
<event>
 5    1  0.6079230E+000  0.9136674E+02  0.7546771E-02  0.1299575E+00
         -1   -1    0    0    0  501 -0.00000000000E+00  0.00000000000E+00  0.84923827485E+02  0.84923827485E+02  0.00000000000E+00 0.  1.
          1   -1    0    0  501    0  0.00000000000E+00 -0.00000000000E+00 -0.24574616481E+02  0.24574616481E+02  0.00000000000E+00 0. -1.
         23    2    1    2    0    0  0.00000000000E+00  0.00000000000E+00  0.60349211004E+02  0.10949844397E+03  0.91366744290E+02 0.  0.
        -13    1    3    3    0    0 -0.36293892254E+02  0.27213172747E+02  0.36647022022E+02  0.58316443728E+02  0.00000000000E+00 0.  1.
         13    1    3    3    0    0  0.36293892254E+02 -0.27213172747E+02  0.23702188982E+02  0.51182000239E+02  0.00000000000E+00 0. -1.
<mgrwt>
<rscale>  0 0.91366744E+02</rscale>
<asrwt>0</asrwt>
<pdfrwt beam="2">  1        1 0.37807103E-02 0.91366744E+02</pdfrwt>
<pdfrwt beam="1">  1       -1 0.13065204E-01 0.91366744E+02</pdfrwt>
<totfact> 0.83343931E+04</totfact>
</mgrwt>
</event>
<event>
 5    1  0.6079230E+000  0.9051302E+02  0.7546771E-02  0.1301614E+00
          2   -1    0    0  501    0  0.00000000000E+00  0.00000000000E+00  0.87328021454E+02  0.87328021454E+02  0.00000000000E+00 0. -1.
         -2   -1    0    0    0  501 -0.00000000000E+00 -0.00000000000E+00 -0.23453543039E+02  0.23453543039E+02  0.00000000000E+00 0.  1.
         23    2    1    2    0    0  0.00000000000E+00  0.00000000000E+00  0.63874478416E+02  0.11078156449E+03  0.90513015852E+02 0.  0.
        -13    1    3    3    0    0 -0.29977901156E+02  0.28683542505E+02  0.98138399894E+01  0.42634863946E+02  0.00000000000E+00 0.  1.
         13    1    3    3    0    0  0.29977901156E+02 -0.28683542505E+02  0.54060638426E+02  0.68146700547E+02  0.00000000000E+00 0. -1.
<mgrwt>
<rscale>  0 0.90513016E+02</rscale>
<asrwt>0</asrwt>
<pdfrwt beam="1">  1        2 0.13435080E-01 0.90513016E+02</pdfrwt>
<pdfrwt beam="2">  1       -2 0.36082374E-02 0.90513016E+02</pdfrwt>
<totfact> 0.12021292E+05</totfact>
</mgrwt>
</event>
<event>
 5    1  0.6079230E+000  0.9002094E+02  0.7546771E-02  0.1302801E+00
         -1   -1    0    0    0  501 -0.00000000000E+00  0.00000000000E+00  0.53139852990E+02  0.53139852990E+02  0.00000000000E+00 0.  1.
          1   -1    0    0  501    0  0.00000000000E+00 -0.00000000000E+00 -0.38124724713E+02  0.38124724713E+02  0.00000000000E+00 0. -1.
         23    2    1    2    0    0  0.00000000000E+00  0.00000000000E+00  0.15015128277E+02  0.91264577703E+02  0.90020936821E+02 0.  0.
        -13    1    3    3    0    0 -0.44691280032E+02  0.53356451064E+01  0.70986975753E+01  0.45565020870E+02  0.00000000000E+00 0. -1.
         13    1    3    3    0    0  0.44691280032E+02 -0.53356451064E+01  0.79164307019E+01  0.45699556833E+02  0.00000000000E+00 0.  1.
<mgrwt>
<rscale>  0 0.90020937E+02</rscale>
<asrwt>0</asrwt>
<pdfrwt beam="2">  1        1 0.58653423E-02 0.90020937E+02</pdfrwt>
<pdfrwt beam="1">  1       -1 0.81753620E-02 0.90020937E+02</pdfrwt>
<totfact> 0.93307202E+04</totfact>
</mgrwt>
</event>
<event>
 5    1  0.6079230E+000  0.9060816E+02  0.7546771E-02  0.1301386E+00
          3   -1    0    0  501    0  0.00000000000E+00  0.00000000000E+00  0.19497658209E+03  0.19497658209E+03  0.00000000000E+00 0. -1.
         -3   -1    0    0    0  501 -0.00000000000E+00 -0.00000000000E+00 -0.10526699016E+02  0.10526699016E+02  0.00000000000E+00 0.  1.
         23    2    1    2    0    0  0.00000000000E+00  0.00000000000E+00  0.18444988307E+03  0.20550328111E+03  0.90608162873E+02 0.  0.
        -13    1    3    3    0    0 -0.40099847891E+02  0.13578214317E+02  0.12880266542E+03  0.13558205016E+03  0.00000000000E+00 0. -1.
         13    1    3    3    0    0  0.40099847891E+02 -0.13578214317E+02  0.55647217651E+02  0.69921230947E+02  0.00000000000E+00 0.  1.
<mgrwt>
<rscale>  0 0.90608163E+02</rscale>
<asrwt>0</asrwt>
<pdfrwt beam="1">  1        3 0.29996395E-01 0.90608163E+02</pdfrwt>
<pdfrwt beam="2">  1       -3 0.16194923E-02 0.90608163E+02</pdfrwt>
<totfact> 0.28696101E+04</totfact>
</mgrwt>
</event>
<event>
 5    1  0.6079230E+000  0.9042243E+02  0.7546771E-02  0.1301832E+00
         -2   -1    0    0    0  501 -0.00000000000E+00  0.00000000000E+00  0.19741689713E+02  0.19741689713E+02  0.00000000000E+00 0.  1.
          2   -1    0    0  501    0  0.00000000000E+00 -0.00000000000E+00 -0.10353997154E+03  0.10353997154E+03  0.00000000000E+00 0. -1.
         23    2    1    2    0    0  0.00000000000E+00  0.00000000000E+00 -0.83798281830E+02  0.12328166126E+03  0.90422430649E+02 0.  0.
        -13    1    3    3    0    0 -0.75155251634E+01 -0.30092709237E+02  0.29481150894E+01  0.31156791399E+02  0.00000000000E+00 0.  1.
         13    1    3    3    0    0  0.75155251634E+01  0.30092709237E+02 -0.86746396919E+02  0.92124869857E+02  0.00000000000E+00 0. -1.
<mgrwt>
<rscale>  0 0.90422431E+02</rscale>
<asrwt>0</asrwt>
<pdfrwt beam="2">  1        2 0.15929226E-01 0.90422431E+02</pdfrwt>
<pdfrwt beam="1">  1       -2 0.30371830E-02 0.90422431E+02</pdfrwt>
<totfact> 0.12685037E+05</totfact>
</mgrwt>
</event>
<event>
 5    1  0.6079230E+000  0.9308002E+02  0.7546771E-02  0.1295560E+00
         -2   -1    0    0    0  501 -0.00000000000E+00  0.00000000000E+00  0.22618589059E+02  0.22618589059E+02  0.00000000000E+00 0.  1.
          2   -1    0    0  501    0  0.00000000000E+00 -0.00000000000E+00 -0.95760725287E+02  0.95760725287E+02  0.00000000000E+00 0. -1.
         23    2    1    2    0    0  0.00000000000E+00  0.00000000000E+00 -0.73142136228E+02  0.11837931435E+03  0.93080019193E+02 0.  0.
        -13    1    3    3    0    0  0.21377918142E+02  0.35560764493E+02 -0.97608051610E+01  0.42624601732E+02  0.00000000000E+00 0.  1.
         13    1    3    3    0    0 -0.21377918142E+02 -0.35560764493E+02 -0.63381331067E+02  0.75754712614E+02  0.00000000000E+00 0. -1.
<mgrwt>
<rscale>  0 0.93080019E+02</rscale>
<asrwt>0</asrwt>
<pdfrwt beam="2">  1        2 0.14732419E-01 0.93080019E+02</pdfrwt>
<pdfrwt beam="1">  1       -2 0.34797829E-02 0.93080019E+02</pdfrwt>
<totfact> 0.11435717E+05</totfact>
</mgrwt>
</event>
<event>
 5    1  0.6079230E+000  0.9121931E+02  0.7546771E-02  0.1299926E+00
         -2   -1    0    0    0  501 -0.00000000000E+00  0.00000000000E+00  0.78530610659E+01  0.78530610659E+01  0.00000000000E+00 0. -1.
          2   -1    0    0  501    0  0.00000000000E+00 -0.00000000000E+00 -0.26489552947E+03  0.26489552947E+03  0.00000000000E+00 0.  1.
         23    2    1    2    0    0  0.00000000000E+00  0.00000000000E+00 -0.25704246840E+03  0.27274859053E+03  0.91219313064E+02 0.  0.
        -13    1    3    3    0    0  0.31269250202E+02  0.19738150766E+02 -0.48687952307E+02  0.61138182044E+02  0.00000000000E+00 0. -1.
         13    1    3    3    0    0 -0.31269250202E+02 -0.19738150766E+02 -0.20835451609E+03  0.21161040849E+03  0.00000000000E+00 0.  1.
<mgrwt>
<rscale>  0 0.91219313E+02</rscale>
<asrwt>0</asrwt>
<pdfrwt beam="2">  1        2 0.40753163E-01 0.91219313E+02</pdfrwt>
<pdfrwt beam="1">  1       -2 0.12081631E-02 0.91219313E+02</pdfrwt>
<totfact> 0.17129715E+05</totfact>
</mgrwt>
</event>
<event>
 5    1  0.6079230E+000  0.9098546E+02  0.7546771E-02  0.1300483E+00
         -2   -1    0    0    0  501 -0.00000000000E+00  0.00000000000E+00  0.43105380971E+03  0.43105380971E+03  0.00000000000E+00 0.  1.
          2   -1    0    0  501    0  0.00000000000E+00 -0.00000000000E+00 -0.48012304911E+01  0.48012304911E+01  0.00000000000E+00 0. -1.
         23    2    1    2    0    0  0.00000000000E+00  0.00000000000E+00  0.42625257922E+03  0.43585504020E+03  0.90985464652E+02 0.  0.
        -13    1    3    3    0    0  0.24496511848E+01 -0.45246621156E+02  0.23248510619E+03  0.23685983644E+03  0.00000000000E+00 0. -1.
         13    1    3    3    0    0 -0.24496511848E+01  0.45246621156E+02  0.19376747303E+03  0.19899520376E+03  0.00000000000E+00 0.  1.
<mgrwt>
<rscale>  0 0.90985465E+02</rscale>
<asrwt>0</asrwt>
<pdfrwt beam="2">  1        2 0.73865119E-03 0.90985465E+02</pdfrwt>
<pdfrwt beam="1">  1       -2 0.66315940E-01 0.90985465E+02</pdfrwt>
<totfact> 0.40758389E+04</totfact>
</mgrwt>
</event>
<event>
 5    1  0.6079230E+000  0.9077971E+02  0.7546771E-02  0.1300974E+00
         -1   -1    0    0    0  501 -0.00000000000E+00  0.00000000000E+00  0.15806423886E+02  0.15806423886E+02  0.00000000000E+00 0.  1.
          1   -1    0    0  501    0  0.00000000000E+00 -0.00000000000E+00 -0.13034186255E+03  0.13034186255E+03  0.00000000000E+00 0. -1.
         23    2    1    2    0    0  0.00000000000E+00  0.00000000000E+00 -0.11453543866E+03  0.14614828643E+03  0.90779705430E+02 0.  0.
        -13    1    3    3    0    0 -0.21153239524E+02  0.13548316340E+02  0.35954904347E+01  0.25376051101E+02  0.00000000000E+00 0.  1.
         13    1    3    3    0    0  0.21153239524E+02 -0.13548316340E+02 -0.11813092910E+03  0.12077223533E+03  0.00000000000E+00 0. -1.
<mgrwt>
<rscale>  0 0.90779705E+02</rscale>
<asrwt>0</asrwt>
<pdfrwt beam="2">  1        1 0.20052595E-01 0.90779705E+02</pdfrwt>
<pdfrwt beam="1">  1       -1 0.24317574E-02 0.90779705E+02</pdfrwt>
<totfact> 0.11061676E+05</totfact>
</mgrwt>
</event>
<event>
 5    1  0.6079230E+000  0.9328105E+02  0.7546771E-02  0.1295095E+00
         -2   -1    0    0    0  501 -0.00000000000E+00  0.00000000000E+00  0.44526912399E+02  0.44526912399E+02  0.00000000000E+00 0.  1.
          2   -1    0    0  501    0  0.00000000000E+00 -0.00000000000E+00 -0.48854461884E+02  0.48854461884E+02  0.00000000000E+00 0. -1.
         23    2    1    2    0    0  0.00000000000E+00  0.00000000000E+00 -0.43275494850E+01  0.93381374283E+02  0.93281045119E+02 0.  0.
        -13    1    3    3    0    0  0.45493447584E+02  0.98688917461E+01 -0.50460288310E+01  0.46824258716E+02  0.00000000000E+00 0.  1.
         13    1    3    3    0    0 -0.45493447584E+02 -0.98688917461E+01  0.71847934604E+00  0.46557115567E+02  0.00000000000E+00 0. -1.
<mgrwt>
<rscale>  0 0.93281045E+02</rscale>
<asrwt>0</asrwt>
<pdfrwt beam="2">  1        2 0.75160710E-02 0.93281045E+02</pdfrwt>
<pdfrwt beam="1">  1       -2 0.68502942E-02 0.93281045E+02</pdfrwt>
<totfact> 0.94108362E+04</totfact>
</mgrwt>
</event>
<event>
 5    1  0.6079230E+000  0.9226087E+02  0.7546771E-02  0.1297467E+00
         -1   -1    0    0    0  501 -0.00000000000E+00  0.00000000000E+00  0.85080231664E+01  0.85080231664E+01  0.00000000000E+00 0.  1.
          1   -1    0    0  501    0  0.00000000000E+00 -0.00000000000E+00 -0.25011883062E+03  0.25011883062E+03  0.00000000000E+00 0. -1.
         23    2    1    2    0    0  0.00000000000E+00  0.00000000000E+00 -0.24161080746E+03  0.25862685379E+03  0.92260865058E+02 0.  0.
        -13    1    3    3    0    0 -0.30270296187E+02  0.26168552514E+02 -0.56457600586E+02  0.69199310949E+02  0.00000000000E+00 0.  1.
         13    1    3    3    0    0  0.30270296187E+02 -0.26168552514E+02 -0.18515320687E+03  0.18942754284E+03  0.00000000000E+00 0. -1.
<mgrwt>
<rscale>  0 0.92260865E+02</rscale>
<asrwt>0</asrwt>
<pdfrwt beam="2">  1        1 0.38479818E-01 0.92260865E+02</pdfrwt>
<pdfrwt beam="1">  1       -1 0.13089267E-02 0.92260865E+02</pdfrwt>
<totfact> 0.11983226E+05</totfact>
</mgrwt>
</event>
<event>
 5    1  0.6079230E+000  0.8643511E+02  0.7546771E-02  0.1311722E+00
          2   -1    0    0  501    0  0.00000000000E+00  0.00000000000E+00  0.67125167691E+02  0.67125167691E+02  0.00000000000E+00 0. -1.
         -2   -1    0    0    0  501 -0.00000000000E+00 -0.00000000000E+00 -0.27824987696E+02  0.27824987696E+02  0.00000000000E+00 0.  1.
         23    2    1    2    0    0  0.00000000000E+00  0.00000000000E+00  0.39300179995E+02  0.94950155386E+02  0.86435107799E+02 0.  0.
        -13    1    3    3    0    0  0.12877951296E+02 -0.26336545052E+01  0.64876038961E+02  0.66194245950E+02  0.00000000000E+00 0. -1.
         13    1    3    3    0    0 -0.12877951296E+02  0.26336545052E+01 -0.25575858966E+02  0.28755909436E+02  0.00000000000E+00 0.  1.
<mgrwt>
<rscale>  0 0.86435108E+02</rscale>
<asrwt>0</asrwt>
<pdfrwt beam="1">  1        2 0.10326949E-01 0.86435108E+02</pdfrwt>
<pdfrwt beam="2">  1       -2 0.42807674E-02 0.86435108E+02</pdfrwt>
<totfact> 0.12690923E+05</totfact>
</mgrwt>
</event>
<event>
 5    1  0.6079230E+000  0.9732012E+02  0.7546771E-02  0.1286034E+00
         -4   -1    0    0    0  501 -0.00000000000E+00  0.00000000000E+00  0.67123957163E+02  0.67123957163E+02  0.00000000000E+00 0.  1.
          4   -1    0    0  501    0  0.00000000000E+00 -0.00000000000E+00 -0.35275054785E+02  0.35275054785E+02  0.00000000000E+00 0. -1.
         23    2    1    2    0    0  0.00000000000E+00  0.00000000000E+00  0.31848902377E+02  0.10239901195E+03  0.97320116447E+02 0.  0.
        -13    1    3    3    0    0 -0.42912606389E+02  0.10450641603E+02 -0.55642364634E+01  0.44515934500E+02  0.00000000000E+00 0.  1.
         13    1    3    3    0    0  0.42912606389E+02 -0.10450641603E+02  0.37413138841E+02  0.57883077448E+02  0.00000000000E+00 0. -1.
<mgrwt>
<rscale>  0 0.97320116E+02</rscale>
<asrwt>0</asrwt>
<pdfrwt beam="2">  1        4 0.54269315E-02 0.97320116E+02</pdfrwt>
<pdfrwt beam="1">  1       -4 0.10326763E-01 0.97320116E+02</pdfrwt>
<totfact> 0.22026255E+04</totfact>
</mgrwt>
</event>
<event>
 5    1  0.6079230E+000  0.8338869E+02  0.7546771E-02  0.1319701E+00
         -2   -1    0    0    0  501 -0.00000000000E+00  0.00000000000E+00  0.62218444589E+02  0.62218444589E+02  0.00000000000E+00 0.  1.
          2   -1    0    0  501    0  0.00000000000E+00 -0.00000000000E+00 -0.27940564692E+02  0.27940564692E+02  0.00000000000E+00 0. -1.
         23    2    1    2    0    0  0.00000000000E+00  0.00000000000E+00  0.34277879897E+02  0.90159009281E+02  0.83388691705E+02 0.  0.
        -13    1    3    3    0    0 -0.29443982027E+02  0.94354775502E+00  0.49040090190E+02  0.57208118356E+02  0.00000000000E+00 0.  1.
         13    1    3    3    0    0  0.29443982027E+02 -0.94354775502E+00 -0.14762210293E+02  0.32950890925E+02  0.00000000000E+00 0. -1.
<mgrwt>
<rscale>  0 0.83388692E+02</rscale>
<asrwt>0</asrwt>
<pdfrwt beam="2">  1        2 0.42985484E-02 0.83388692E+02</pdfrwt>
<pdfrwt beam="1">  1       -2 0.95720683E-02 0.83388692E+02</pdfrwt>
<totfact> 0.11296591E+05</totfact>
</mgrwt>
</event>
<event>
 5    1  0.6079230E+000  0.9086183E+02  0.7546771E-02  0.1300778E+00
          1   -1    0    0  501    0  0.00000000000E+00  0.00000000000E+00  0.33372566471E+03  0.33372566471E+03  0.00000000000E+00 0. -1.
         -1   -1    0    0    0  501 -0.00000000000E+00 -0.00000000000E+00 -0.61846253414E+01  0.61846253414E+01  0.00000000000E+00 0.  1.
         23    2    1    2    0    0  0.00000000000E+00  0.00000000000E+00  0.32754103937E+03  0.33991029005E+03  0.90861833639E+02 0.  0.
        -13    1    3    3    0    0 -0.42616914117E+02  0.61427581778E+01  0.21798645461E+03  0.22219817560E+03  0.00000000000E+00 0. -1.
         13    1    3    3    0    0  0.42616914117E+02 -0.61427581778E+01  0.10955458476E+03  0.11771211445E+03  0.00000000000E+00 0.  1.
<mgrwt>
<rscale>  0 0.90861834E+02</rscale>
<asrwt>0</asrwt>
<pdfrwt beam="1">  1        1 0.51342396E-01 0.90861834E+02</pdfrwt>
<pdfrwt beam="2">  1       -1 0.95148108E-03 0.90861834E+02</pdfrwt>
<totfact> 0.13191099E+05</totfact>
</mgrwt>
</event>
<event>
 5    1  0.6079230E+000  0.9428950E+02  0.7546771E-02  0.1292784E+00
         -4   -1    0    0    0  501 -0.00000000000E+00  0.00000000000E+00  0.12668718317E+02  0.12668718317E+02  0.00000000000E+00 0.  1.
          4   -1    0    0  501    0  0.00000000000E+00 -0.00000000000E+00 -0.17544217341E+03  0.17544217341E+03  0.00000000000E+00 0. -1.
         23    2    1    2    0    0  0.00000000000E+00  0.00000000000E+00 -0.16277345509E+03  0.18811089173E+03  0.94289500495E+02 0.  0.
        -13    1    3    3    0    0  0.34192229797E+02 -0.28487461209E+02 -0.50352321332E+02  0.67201192610E+02  0.00000000000E+00 0.  1.
         13    1    3    3    0    0 -0.34192229797E+02  0.28487461209E+02 -0.11242113376E+03  0.12090969912E+03  0.00000000000E+00 0. -1.
<mgrwt>
<rscale>  0 0.94289500E+02</rscale>
<asrwt>0</asrwt>
<pdfrwt beam="2">  1        4 0.26991101E-01 0.94289500E+02</pdfrwt>
<pdfrwt beam="1">  1       -4 0.19490338E-02 0.94289500E+02</pdfrwt>
<totfact> 0.20002666E+04</totfact>
</mgrwt>
</event>
<event>
 4    1  0.6079230E+000  0.4397944E+02  0.7546771E-02  0.1480815E+00
         -3   -1    0    0    0  501 -0.00000000000E+00  0.00000000000E+00  0.44716389068E+02  0.44716389068E+02  0.00000000000E+00 0.  1.
          3   -1    0    0  501    0  0.00000000000E+00 -0.00000000000E+00 -0.10813660831E+02  0.10813660831E+02  0.00000000000E+00 0. -1.
        -13    1    1    2    0    0 -0.78038703317E+01 -0.11378829466E+02  0.38570477730E+02  0.40964129485E+02  0.00000000000E+00 0.  1.
         13    1    1    2    0    0  0.78038703317E+01  0.11378829466E+02 -0.46677494930E+01  0.14565920414E+02  0.00000000000E+00 0. -1.
<mgrwt>
<rscale>  0 0.43979444E+02</rscale>
<asrwt>0</asrwt>
<pdfrwt beam="2">  1        3 0.16636401E-02 0.43979444E+02</pdfrwt>
<pdfrwt beam="1">  1       -3 0.68794444E-02 0.43979444E+02</pdfrwt>
<totfact> 0.25673397E+05</totfact>
</mgrwt>
</event>
<event>
 5    1  0.6079230E+000  0.9441773E+02  0.7546771E-02  0.1292493E+00
          3   -1    0    0  501    0  0.00000000000E+00  0.00000000000E+00  0.57805629821E+02  0.57805629821E+02  0.00000000000E+00 0. -1.
         -3   -1    0    0    0  501 -0.00000000000E+00 -0.00000000000E+00 -0.38554668210E+02  0.38554668210E+02  0.00000000000E+00 0.  1.
         23    2    1    2    0    0  0.00000000000E+00  0.00000000000E+00  0.19250961612E+02  0.96360298031E+02  0.94417728810E+02 0.  0.
        -13    1    3    3    0    0  0.42702094087E+01 -0.42869356753E+02 -0.10076107169E+02  0.44244145064E+02  0.00000000000E+00 0.  1.
         13    1    3    3    0    0 -0.42702094087E+01  0.42869356753E+02  0.29327068781E+02  0.52116152967E+02  0.00000000000E+00 0. -1.
<mgrwt>
<rscale>  0 0.94417729E+02</rscale>
<asrwt>0</asrwt>
<pdfrwt beam="1">  1        3 0.88931738E-02 0.94417729E+02</pdfrwt>
<pdfrwt beam="2">  1       -3 0.59314874E-02 0.94417729E+02</pdfrwt>
<totfact> 0.31763429E+04</totfact>
</mgrwt>
</event>
<event>
 5    1  0.6079230E+000  0.9087278E+02  0.7546771E-02  0.1300752E+00
         -1   -1    0    0    0  501 -0.00000000000E+00  0.00000000000E+00  0.36280540956E+02  0.36280540956E+02  0.00000000000E+00 0.  1.
          1   -1    0    0  501    0  0.00000000000E+00 -0.00000000000E+00 -0.56902833531E+02  0.56902833531E+02  0.00000000000E+00 0. -1.
         23    2    1    2    0    0  0.00000000000E+00  0.00000000000E+00 -0.20622292574E+02  0.93183374487E+02  0.90872781017E+02 0.  0.
        -13    1    3    3    0    0  0.98086883373E+00  0.44976285753E+02 -0.37743267497E+01  0.45145032132E+02  0.00000000000E+00 0. -1.
         13    1    3    3    0    0 -0.98086883373E+00 -0.44976285753E+02 -0.16847965825E+02  0.48038342355E+02  0.00000000000E+00 0.  1.
<mgrwt>
<rscale>  0 0.90872781E+02</rscale>
<asrwt>0</asrwt>
<pdfrwt beam="2">  1        1 0.87542820E-02 0.90872781E+02</pdfrwt>
<pdfrwt beam="1">  1       -1 0.55816218E-02 0.90872781E+02</pdfrwt>
<totfact> 0.96494736E+04</totfact>
</mgrwt>
</event>
<event>
 5    1  0.6079230E+000  0.8961125E+02  0.7546771E-02  0.1303796E+00
          2   -1    0    0  501    0  0.00000000000E+00  0.00000000000E+00  0.39199577877E+02  0.39199577877E+02  0.00000000000E+00 0.  1.
         -2   -1    0    0    0  501 -0.00000000000E+00 -0.00000000000E+00 -0.51213410634E+02  0.51213410634E+02  0.00000000000E+00 0. -1.
         23    2    1    2    0    0  0.00000000000E+00  0.00000000000E+00 -0.12013832758E+02  0.90412988511E+02  0.89611251046E+02 0.  0.
        -13    1    3    3    0    0  0.15796199285E+02  0.41900128867E+02 -0.75710663316E+01  0.45414334260E+02  0.00000000000E+00 0.  1.
         13    1    3    3    0    0 -0.15796199285E+02 -0.41900128867E+02 -0.44427664260E+01  0.44998654251E+02  0.00000000000E+00 0. -1.
<mgrwt>
<rscale>  0 0.89611251E+02</rscale>
<asrwt>0</asrwt>
<pdfrwt beam="1">  1        2 0.60307043E-02 0.89611251E+02</pdfrwt>
<pdfrwt beam="2">  1       -2 0.78789862E-02 0.89611251E+02</pdfrwt>
<totfact> 0.99766926E+04</totfact>
</mgrwt>
</event>
<event>
 5    1  0.6079230E+000  0.9562297E+02  0.7546771E-02  0.1289779E+00
          1   -1    0    0  501    0  0.00000000000E+00  0.00000000000E+00  0.42067301454E+03  0.42067301454E+03  0.00000000000E+00 0. -1.
         -1   -1    0    0    0  501 -0.00000000000E+00 -0.00000000000E+00 -0.54340023707E+01  0.54340023707E+01  0.00000000000E+00 0.  1.
         23    2    1    2    0    0  0.00000000000E+00  0.00000000000E+00  0.41523901217E+03  0.42610701691E+03  0.95622971263E+02 0.  0.
        -13    1    3    3    0    0  0.84289673934E+00 -0.46989471959E+02  0.16846213741E+03  0.17489486182E+03  0.00000000000E+00 0.  1.
         13    1    3    3    0    0 -0.84289673934E+00  0.46989471959E+02  0.24677687476E+03  0.25121215509E+03  0.00000000000E+00 0. -1.
<mgrwt>
<rscale>  0 0.95622971E+02</rscale>
<asrwt>0</asrwt>
<pdfrwt beam="1">  1        1 0.64718900E-01 0.95622971E+02</pdfrwt>
<pdfrwt beam="2">  1       -1 0.83600069E-03 0.95622971E+02</pdfrwt>
<totfact> 0.11979808E+05</totfact>
</mgrwt>
</event>
<event>
 5    1  0.6079230E+000  0.9330170E+02  0.7546771E-02  0.1295048E+00
          3   -1    0    0  501    0  0.00000000000E+00  0.00000000000E+00  0.10370088498E+03  0.10370088498E+03  0.00000000000E+00 0. -1.
         -3   -1    0    0    0  501 -0.00000000000E+00 -0.00000000000E+00 -0.20986337162E+02  0.20986337162E+02  0.00000000000E+00 0.  1.
         23    2    1    2    0    0  0.00000000000E+00  0.00000000000E+00  0.82714547819E+02  0.12468722214E+03  0.93301698509E+02 0.  0.
        -13    1    3    3    0    0  0.16944941101E+02 -0.10535671901E+02  0.97710538319E+02  0.99727030990E+02  0.00000000000E+00 0. -1.
         13    1    3    3    0    0 -0.16944941101E+02  0.10535671901E+02 -0.14995990500E+02  0.24960191153E+02  0.00000000000E+00 0.  1.
<mgrwt>
<rscale>  0 0.93301699E+02</rscale>
<asrwt>0</asrwt>
<pdfrwt beam="1">  1        3 0.15953982E-01 0.93301699E+02</pdfrwt>
<pdfrwt beam="2">  1       -3 0.32286673E-02 0.93301699E+02</pdfrwt>
<totfact> 0.30926873E+04</totfact>
</mgrwt>
</event>
<event>
 5    1  0.6079230E+000  0.9648835E+02  0.7546771E-02  0.1287859E+00
          2   -1    0    0  501    0  0.00000000000E+00  0.00000000000E+00  0.18538180343E+03  0.18538180343E+03  0.00000000000E+00 0. -1.
         -2   -1    0    0    0  501 -0.00000000000E+00 -0.00000000000E+00 -0.12555172532E+02  0.12555172532E+02  0.00000000000E+00 0.  1.
         23    2    1    2    0    0  0.00000000000E+00  0.00000000000E+00  0.17282663090E+03  0.19793697597E+03  0.96488352177E+02 0.  0.
        -13    1    3    3    0    0  0.18995739960E+02  0.36434583329E+02  0.13827717451E+03  0.14425288209E+03  0.00000000000E+00 0. -1.
         13    1    3    3    0    0 -0.18995739960E+02 -0.36434583329E+02  0.34549456391E+02  0.53684093881E+02  0.00000000000E+00 0.  1.
<mgrwt>
<rscale>  0 0.96488352E+02</rscale>
<asrwt>0</asrwt>
<pdfrwt beam="1">  1        2 0.28520275E-01 0.96488352E+02</pdfrwt>
<pdfrwt beam="2">  1       -2 0.19315651E-02 0.96488352E+02</pdfrwt>
<totfact> 0.12911473E+05</totfact>
</mgrwt>
</event>
<event>
 5    1  0.6079230E+000  0.9139808E+02  0.7546771E-02  0.1299501E+00
          1   -1    0    0  501    0  0.00000000000E+00  0.00000000000E+00  0.25511028057E+03  0.25511028057E+03  0.00000000000E+00 0. -1.
         -1   -1    0    0    0  501 -0.00000000000E+00 -0.00000000000E+00 -0.81862719877E+01  0.81862719877E+01  0.00000000000E+00 0.  1.
         23    2    1    2    0    0  0.00000000000E+00  0.00000000000E+00  0.24692400858E+03  0.26329655255E+03  0.91398077520E+02 0.  0.
        -13    1    3    3    0    0 -0.13512514455E+02 -0.38813883082E+02  0.65897349392E+02  0.77663158729E+02  0.00000000000E+00 0.  1.
         13    1    3    3    0    0  0.13512514455E+02  0.38813883082E+02  0.18102665919E+03  0.18563339383E+03  0.00000000000E+00 0. -1.
<mgrwt>
<rscale>  0 0.91398078E+02</rscale>
<asrwt>0</asrwt>
<pdfrwt beam="1">  1        1 0.39247729E-01 0.91398078E+02</pdfrwt>
<pdfrwt beam="2">  1       -1 0.12594267E-02 0.91398078E+02</pdfrwt>
<totfact> 0.12335622E+05</totfact>
</mgrwt>
</event>
<event>
 5    1  0.6079230E+000  0.9100755E+02  0.7546771E-02  0.1300430E+00
          3   -1    0    0  501    0  0.00000000000E+00  0.00000000000E+00  0.19812915575E+02  0.19812915575E+02  0.00000000000E+00 0. -1.
         -3   -1    0    0    0  501 -0.00000000000E+00 -0.00000000000E+00 -0.10450725339E+03  0.10450725339E+03  0.00000000000E+00 0.  1.
         23    2    1    2    0    0  0.00000000000E+00  0.00000000000E+00 -0.84694337813E+02  0.12432016896E+03  0.91007546683E+02 0.  0.
        -13    1    3    3    0    0  0.17646717758E+02 -0.17476485075E+02 -0.94431899744E+02  0.97643319625E+02  0.00000000000E+00 0.  1.
         13    1    3    3    0    0 -0.17646717758E+02  0.17476485075E+02  0.97375619313E+01  0.26676849337E+02  0.00000000000E+00 0. -1.
<mgrwt>
<rscale>  0 0.91007547E+02</rscale>
<asrwt>0</asrwt>
<pdfrwt beam="1">  1        3 0.30481409E-02 0.91007547E+02</pdfrwt>
<pdfrwt beam="2">  1       -3 0.16078039E-01 0.91007547E+02</pdfrwt>
<totfact> 0.33121982E+04</totfact>
</mgrwt>
</event>
<event>
 5    1  0.6079230E+000  0.9056654E+02  0.7546771E-02  0.1301486E+00
         -3   -1    0    0    0  501 -0.00000000000E+00  0.00000000000E+00  0.71214298690E+02  0.71214298690E+02  0.00000000000E+00 0.  1.
          3   -1    0    0  501    0  0.00000000000E+00 -0.00000000000E+00 -0.28794421105E+02  0.28794421105E+02  0.00000000000E+00 0. -1.
         23    2    1    2    0    0  0.00000000000E+00  0.00000000000E+00  0.42419877585E+02  0.10000871979E+03  0.90566539189E+02 0.  0.
        -13    1    3    3    0    0 -0.40843425328E+02 -0.62051129650E+01  0.41687448706E+02  0.58690137153E+02  0.00000000000E+00 0.  1.
         13    1    3    3    0    0  0.40843425328E+02  0.62051129650E+01  0.73242887991E+00  0.41318582642E+02  0.00000000000E+00 0. -1.
<mgrwt>
<rscale>  0 0.90566539E+02</rscale>
<asrwt>0</asrwt>
<pdfrwt beam="2">  1        3 0.44299110E-02 0.90566539E+02</pdfrwt>
<pdfrwt beam="1">  1       -3 0.10956046E-01 0.90566539E+02</pdfrwt>
<totfact> 0.35310562E+04</totfact>
</mgrwt>
</event>
<event>
 5    1  0.6079230E+000  0.8817343E+02  0.7546771E-02  0.1307336E+00
         -1   -1    0    0    0  501 -0.00000000000E+00  0.00000000000E+00  0.15956677392E+02  0.15956677392E+02  0.00000000000E+00 0.  1.
          1   -1    0    0  501    0  0.00000000000E+00 -0.00000000000E+00 -0.12180722328E+03  0.12180722328E+03  0.00000000000E+00 0. -1.
         23    2    1    2    0    0  0.00000000000E+00  0.00000000000E+00 -0.10585054589E+03  0.13776390067E+03  0.88173432866E+02 0.  0.
        -13    1    3    3    0    0  0.23300402508E+02 -0.18962455323E+02 -0.10333976503E+03  0.10761779828E+03  0.00000000000E+00 0. -1.
         13    1    3    3    0    0 -0.23300402508E+02  0.18962455323E+02 -0.25107808521E+01  0.30146102392E+02  0.00000000000E+00 0.  1.
<mgrwt>
<rscale>  0 0.88173433E+02</rscale>
<asrwt>0</asrwt>
<pdfrwt beam="2">  1        1 0.18739572E-01 0.88173433E+02</pdfrwt>
<pdfrwt beam="1">  1       -1 0.24548735E-02 0.88173433E+02</pdfrwt>
<totfact> 0.11825744E+05</totfact>
</mgrwt>
</event>
<event>
 5    1  0.6079230E+000  0.9095256E+02  0.7546771E-02  0.1300561E+00
         -2   -1    0    0    0  501 -0.00000000000E+00  0.00000000000E+00  0.12261905927E+02  0.12261905927E+02  0.00000000000E+00 0.  1.
          2   -1    0    0  501    0  0.00000000000E+00 -0.00000000000E+00 -0.16865992021E+03  0.16865992021E+03  0.00000000000E+00 0. -1.
         23    2    1    2    0    0  0.00000000000E+00  0.00000000000E+00 -0.15639801428E+03  0.18092182614E+03  0.90952560718E+02 0.  0.
        -13    1    3    3    0    0 -0.37947943039E+02 -0.15943481288E+02 -0.39737582883E+02  0.57212904749E+02  0.00000000000E+00 0.  1.
         13    1    3    3    0    0  0.37947943039E+02  0.15943481288E+02 -0.11666043140E+03  0.12370892139E+03  0.00000000000E+00 0. -1.
<mgrwt>
<rscale>  0 0.90952561E+02</rscale>
<asrwt>0</asrwt>
<pdfrwt beam="2">  1        2 0.25947680E-01 0.90952561E+02</pdfrwt>
<pdfrwt beam="1">  1       -2 0.18864471E-02 0.90952561E+02</pdfrwt>
<totfact> 0.14654844E+05</totfact>
</mgrwt>
</event>
<event>
 5    1  0.6079230E+000  0.9094779E+02  0.7546771E-02  0.1300573E+00
          4   -1    0    0  501    0  0.00000000000E+00  0.00000000000E+00  0.11040775485E+03  0.11040775485E+03  0.00000000000E+00 0. -1.
         -4   -1    0    0    0  501 -0.00000000000E+00 -0.00000000000E+00 -0.18729436499E+02  0.18729436499E+02  0.00000000000E+00 0.  1.
         23    2    1    2    0    0  0.00000000000E+00  0.00000000000E+00  0.91678318350E+02  0.12913719135E+03  0.90947787955E+02 0.  0.
        -13    1    3    3    0    0 -0.16594062335E+02 -0.22524867674E+02 -0.50628392402E+01  0.28431758822E+02  0.00000000000E+00 0.  1.
         13    1    3    3    0    0  0.16594062335E+02  0.22524867674E+02  0.96741157590E+02  0.10070543253E+03  0.00000000000E+00 0. -1.
<mgrwt>
<rscale>  0 0.90947788E+02</rscale>
<asrwt>0</asrwt>
<pdfrwt beam="1">  1        4 0.16985808E-01 0.90947788E+02</pdfrwt>
<pdfrwt beam="2">  1       -4 0.28814518E-02 0.90947788E+02</pdfrwt>
<totfact> 0.24933504E+04</totfact>
</mgrwt>
</event>
<event>
 5    1  0.6079230E+000  0.9073992E+02  0.7546771E-02  0.1301070E+00
          1   -1    0    0  501    0  0.00000000000E+00  0.00000000000E+00  0.21730997241E+02  0.21730997241E+02  0.00000000000E+00 0. -1.
         -1   -1    0    0    0  501 -0.00000000000E+00 -0.00000000000E+00 -0.94723376813E+02  0.94723376813E+02  0.00000000000E+00 0.  1.
         23    2    1    2    0    0  0.00000000000E+00  0.00000000000E+00 -0.72992379572E+02  0.11645437405E+03  0.90739923743E+02 0.  0.
        -13    1    3    3    0    0 -0.23741419902E+02 -0.69915368248E+01 -0.85296889475E+02  0.88814953472E+02  0.00000000000E+00 0.  1.
         13    1    3    3    0    0  0.23741419902E+02  0.69915368248E+01  0.12304509904E+02  0.27639420582E+02  0.00000000000E+00 0. -1.
<mgrwt>
<rscale>  0 0.90739924E+02</rscale>
<asrwt>0</asrwt>
<pdfrwt beam="1">  1        1 0.33432303E-02 0.90739924E+02</pdfrwt>
<pdfrwt beam="2">  1       -1 0.14572828E-01 0.90739924E+02</pdfrwt>
<totfact> 0.83205778E+04</totfact>
</mgrwt>
</event>
<event>
 5    1  0.6079230E+000  0.9127974E+02  0.7546771E-02  0.1299782E+00
          2   -1    0    0  501    0  0.00000000000E+00  0.00000000000E+00  0.62730597814E+01  0.62730597814E+01  0.00000000000E+00 0. -1.
         -2   -1    0    0    0  501 -0.00000000000E+00 -0.00000000000E+00 -0.33205446531E+03  0.33205446531E+03  0.00000000000E+00 0.  1.
         23    2    1    2    0    0  0.00000000000E+00  0.00000000000E+00 -0.32578140553E+03  0.33832752509E+03  0.91279735134E+02 0.  0.
        -13    1    3    3    0    0 -0.37706994849E+02  0.22162610420E+02 -0.21121725642E+03  0.21569823404E+03  0.00000000000E+00 0. -1.
         13    1    3    3    0    0  0.37706994849E+02 -0.22162610420E+02 -0.11456414911E+03  0.12262929104E+03  0.00000000000E+00 0.  1.
<mgrwt>
<rscale>  0 0.91279735E+02</rscale>
<asrwt>0</asrwt>
<pdfrwt beam="1">  1        2 0.96508609E-03 0.91279735E+02</pdfrwt>
<pdfrwt beam="2">  1       -2 0.51085304E-01 0.91279735E+02</pdfrwt>
<totfact> 0.47938629E+04</totfact>
</mgrwt>
</event>
<event>
 5    1  0.6079230E+000  0.9083891E+02  0.7546771E-02  0.1300833E+00
          4   -1    0    0  501    0  0.00000000000E+00  0.00000000000E+00  0.98096599628E+02  0.98096599628E+02  0.00000000000E+00 0. -1.
         -4   -1    0    0    0  501 -0.00000000000E+00 -0.00000000000E+00 -0.21029546632E+02  0.21029546632E+02  0.00000000000E+00 0.  1.
         23    2    1    2    0    0  0.00000000000E+00  0.00000000000E+00  0.77067052996E+02  0.11912614626E+03  0.90838912725E+02 0.  0.
        -13    1    3    3    0    0 -0.11632143697E+02  0.36807649253E+02  0.69920048426E+02  0.79868160004E+02  0.00000000000E+00 0. -1.
         13    1    3    3    0    0  0.11632143697E+02 -0.36807649253E+02  0.71470045702E+01  0.39257986256E+02  0.00000000000E+00 0.  1.
<mgrwt>
<rscale>  0 0.90838913E+02</rscale>
<asrwt>0</asrwt>
<pdfrwt beam="1">  1        4 0.15091784E-01 0.90838913E+02</pdfrwt>
<pdfrwt beam="2">  1       -4 0.32353149E-02 0.90838913E+02</pdfrwt>
<totfact> 0.25577537E+04</totfact>
</mgrwt>
</event>
<event>
 5    1  0.6079230E+000  0.9097693E+02  0.7546771E-02  0.1300503E+00
          2   -1    0    0  501    0  0.00000000000E+00  0.00000000000E+00  0.28362402559E+02  0.28362402559E+02  0.00000000000E+00 0. -1.
         -2   -1    0    0    0  501 -0.00000000000E+00 -0.00000000000E+00 -0.72955747259E+02  0.72955747259E+02  0.00000000000E+00 0.  1.
         23    2    1    2    0    0  0.00000000000E+00  0.00000000000E+00 -0.44593344700E+02  0.10131814982E+03  0.90976926146E+02 0.  0.
        -13    1    3    3    0    0  0.24376612794E+02  0.36570591299E+02 -0.35359054813E+02  0.56408245465E+02  0.00000000000E+00 0.  1.
         13    1    3    3    0    0 -0.24376612794E+02 -0.36570591299E+02 -0.92342898870E+01  0.44909904352E+02  0.00000000000E+00 0. -1.
<mgrwt>
<rscale>  0 0.90976926E+02</rscale>
<asrwt>0</asrwt>
<pdfrwt beam="1">  1        2 0.43634466E-02 0.90976926E+02</pdfrwt>
<pdfrwt beam="2">  1       -2 0.11223961E-01 0.90976926E+02</pdfrwt>
<totfact> 0.87715255E+04</totfact>
</mgrwt>
</event>
<event>
 5    1  0.6079230E+000  0.9227768E+02  0.7546771E-02  0.1297428E+00
          1   -1    0    0  501    0  0.00000000000E+00  0.00000000000E+00  0.60650947134E+02  0.60650947134E+02  0.00000000000E+00 0.  1.
         -1   -1    0    0    0  501 -0.00000000000E+00 -0.00000000000E+00 -0.35099079464E+02  0.35099079464E+02  0.00000000000E+00 0. -1.
         23    2    1    2    0    0  0.00000000000E+00  0.00000000000E+00  0.25551867670E+02  0.95750026598E+02  0.92277676890E+02 0.  0.
        -13    1    3    3    0    0 -0.28482867454E+02  0.10674558024E+02 -0.23222066463E+02  0.38268581085E+02  0.00000000000E+00 0. -1.
         13    1    3    3    0    0  0.28482867454E+02 -0.10674558024E+02  0.48773934133E+02  0.57481445513E+02  0.00000000000E+00 0.  1.
<mgrwt>
<rscale>  0 0.92277677E+02</rscale>
<asrwt>0</asrwt>
<pdfrwt beam="1">  1        1 0.93309150E-02 0.92277677E+02</pdfrwt>
<pdfrwt beam="2">  1       -1 0.53998584E-02 0.92277677E+02</pdfrwt>
<totfact> 0.93363867E+04</totfact>
</mgrwt>
</event>
<event>
 5    1  0.6079230E+000  0.9666022E+02  0.7546771E-02  0.1287480E+00
          1   -1    0    0  501    0  0.00000000000E+00  0.00000000000E+00  0.97795584444E+02  0.97795584444E+02  0.00000000000E+00 0. -1.
         -1   -1    0    0    0  501 -0.00000000000E+00 -0.00000000000E+00 -0.23884506840E+02  0.23884506840E+02  0.00000000000E+00 0.  1.
         23    2    1    2    0    0  0.00000000000E+00  0.00000000000E+00  0.73911077604E+02  0.12168009128E+03  0.96660215302E+02 0.  0.
        -13    1    3    3    0    0 -0.14291168644E+02 -0.76080438747E+01 -0.20369265793E+02  0.26019739080E+02  0.00000000000E+00 0.  1.
         13    1    3    3    0    0  0.14291168644E+02  0.76080438747E+01  0.94280343397E+02  0.95660352205E+02  0.00000000000E+00 0. -1.
<mgrwt>
<rscale>  0 0.96660215E+02</rscale>
<asrwt>0</asrwt>
<pdfrwt beam="1">  1        1 0.15045474E-01 0.96660215E+02</pdfrwt>
<pdfrwt beam="2">  1       -1 0.36745396E-02 0.96660215E+02</pdfrwt>
<totfact> 0.88675796E+04</totfact>
</mgrwt>
</event>
<event>
 5    1  0.6079230E+000  0.9146405E+02  0.7546771E-02  0.1299345E+00
         -2   -1    0    0    0  501 -0.00000000000E+00  0.00000000000E+00  0.28488271190E+02  0.28488271190E+02  0.00000000000E+00 0.  1.
          2   -1    0    0  501    0  0.00000000000E+00 -0.00000000000E+00 -0.73413305442E+02  0.73413305442E+02  0.00000000000E+00 0. -1.
         23    2    1    2    0    0  0.00000000000E+00  0.00000000000E+00 -0.44925034252E+02  0.10190157663E+03  0.91464050958E+02 0.  0.
        -13    1    3    3    0    0 -0.12945681690E+01 -0.29207866186E+02  0.16716416196E+02  0.33678092646E+02  0.00000000000E+00 0. -1.
         13    1    3    3    0    0  0.12945681690E+01  0.29207866186E+02 -0.61641450448E+02  0.68223483986E+02  0.00000000000E+00 0.  1.
<mgrwt>
<rscale>  0 0.91464051E+02</rscale>
<asrwt>0</asrwt>
<pdfrwt beam="2">  1        2 0.11294355E-01 0.91464051E+02</pdfrwt>
<pdfrwt beam="1">  1       -2 0.43828110E-02 0.91464051E+02</pdfrwt>
<totfact> 0.11111557E+05</totfact>
</mgrwt>
</event>
<event>
 5    1  0.6079230E+000  0.9112463E+02  0.7546771E-02  0.1300151E+00
         -2   -1    0    0    0  501 -0.00000000000E+00  0.00000000000E+00  0.10195611239E+02  0.10195611239E+02  0.00000000000E+00 0.  1.
          2   -1    0    0  501    0  0.00000000000E+00 -0.00000000000E+00 -0.20360963619E+03  0.20360963619E+03  0.00000000000E+00 0. -1.
         23    2    1    2    0    0  0.00000000000E+00  0.00000000000E+00 -0.19341402496E+03  0.21380524743E+03  0.91124633225E+02 0.  0.
        -13    1    3    3    0    0  0.29494472065E+02 -0.24853987491E+02 -0.15361518668E+03  0.15838330137E+03  0.00000000000E+00 0. -1.
         13    1    3    3    0    0 -0.29494472065E+02  0.24853987491E+02 -0.39798838281E+02  0.55421946060E+02  0.00000000000E+00 0.  1.
<mgrwt>
<rscale>  0 0.91124633E+02</rscale>
<asrwt>0</asrwt>
<pdfrwt beam="2">  1        2 0.31324558E-01 0.91124633E+02</pdfrwt>
<pdfrwt beam="1">  1       -2 0.15685556E-02 0.91124633E+02</pdfrwt>
<totfact> 0.15592506E+05</totfact>
</mgrwt>
</event>
<event>
 5    1  0.6079230E+000  0.8867764E+02  0.7546771E-02  0.1306086E+00
         -2   -1    0    0    0  501 -0.00000000000E+00  0.00000000000E+00  0.79311844719E+01  0.79311844719E+01  0.00000000000E+00 0.  1.
          2   -1    0    0  501    0  0.00000000000E+00 -0.00000000000E+00 -0.24787356886E+03  0.24787356886E+03  0.00000000000E+00 0. -1.
         23    2    1    2    0    0  0.00000000000E+00  0.00000000000E+00 -0.23994238439E+03  0.25580475333E+03  0.88677640932E+02 0.  0.
        -13    1    3    3    0    0 -0.33971192611E+02  0.12642726271E+02 -0.46310616242E+02  0.58809468895E+02  0.00000000000E+00 0. -1.
         13    1    3    3    0    0  0.33971192611E+02 -0.12642726271E+02 -0.19363176815E+03  0.19699528444E+03  0.00000000000E+00 0.  1.
<mgrwt>
<rscale>  0 0.88677641E+02</rscale>
<asrwt>0</asrwt>
<pdfrwt beam="2">  1        2 0.38134397E-01 0.88677641E+02</pdfrwt>
<pdfrwt beam="1">  1       -2 0.12201822E-02 0.88677641E+02</pdfrwt>
<totfact> 0.18023370E+05</totfact>
</mgrwt>
</event>
<event>
 5    1  0.6079230E+000  0.9082594E+02  0.7546771E-02  0.1300864E+00
          1   -1    0    0  501    0  0.00000000000E+00  0.00000000000E+00  0.57130883625E+02  0.57130883625E+02  0.00000000000E+00 0. -1.
         -1   -1    0    0    0  501 -0.00000000000E+00 -0.00000000000E+00 -0.36098473604E+02  0.36098473604E+02  0.00000000000E+00 0.  1.
         23    2    1    2    0    0  0.00000000000E+00  0.00000000000E+00  0.21032410022E+02  0.93229357229E+02  0.90825936703E+02 0.  0.
        -13    1    3    3    0    0 -0.13556962680E+02  0.33932190824E+02 -0.17163131124E+02  0.40370259860E+02  0.00000000000E+00 0.  1.
         13    1    3    3    0    0  0.13556962680E+02 -0.33932190824E+02  0.38195541146E+02  0.52859097369E+02  0.00000000000E+00 0. -1.
<mgrwt>
<rscale>  0 0.90825937E+02</rscale>
<asrwt>0</asrwt>
<pdfrwt beam="1">  1        1 0.87893668E-02 0.90825937E+02</pdfrwt>
<pdfrwt beam="2">  1       -1 0.55536113E-02 0.90825937E+02</pdfrwt>
<totfact> 0.96690996E+04</totfact>
</mgrwt>
</event>
<event>
 5    1  0.6079230E+000  0.9028551E+02  0.7546771E-02  0.1302162E+00
          1   -1    0    0  501    0  0.00000000000E+00  0.00000000000E+00  0.54530592410E+02  0.54530592410E+02  0.00000000000E+00 0. -1.
         -1   -1    0    0    0  501 -0.00000000000E+00 -0.00000000000E+00 -0.37371103450E+02  0.37371103450E+02  0.00000000000E+00 0.  1.
         23    2    1    2    0    0  0.00000000000E+00  0.00000000000E+00  0.17159488960E+02  0.91901695860E+02  0.90285511797E+02 0.  0.
        -13    1    3    3    0    0 -0.30755064804E+02 -0.16751420463E+02 -0.20414965182E+02  0.40537080581E+02  0.00000000000E+00 0.  1.
         13    1    3    3    0    0  0.30755064804E+02  0.16751420463E+02  0.37574454143E+02  0.51364615279E+02  0.00000000000E+00 0. -1.
<mgrwt>
<rscale>  0 0.90285512E+02</rscale>
<asrwt>0</asrwt>
<pdfrwt beam="1">  1        1 0.83893219E-02 0.90285512E+02</pdfrwt>
<pdfrwt beam="2">  1       -1 0.57494005E-02 0.90285512E+02</pdfrwt>
<totfact> 0.97623218E+04</totfact>
</mgrwt>
</event>
<event>
 5    1  0.6079230E+000  0.9782395E+02  0.7546771E-02  0.1284940E+00
         -3   -1    0    0    0  501 -0.00000000000E+00  0.00000000000E+00  0.38103467007E+02  0.38103467007E+02  0.00000000000E+00 0.  1.
          3   -1    0    0  501    0  0.00000000000E+00 -0.00000000000E+00 -0.62786445422E+02  0.62786445422E+02  0.00000000000E+00 0. -1.
         23    2    1    2    0    0  0.00000000000E+00  0.00000000000E+00 -0.24682978414E+02  0.10088991243E+03  0.97823949044E+02 0.  0.
        -13    1    3    3    0    0  0.28716244175E+02  0.15310544623E+02 -0.50000937394E+02  0.59658437764E+02  0.00000000000E+00 0. -1.
         13    1    3    3    0    0 -0.28716244175E+02 -0.15310544623E+02  0.25317958979E+02  0.41231474665E+02  0.00000000000E+00 0.  1.
<mgrwt>
<rscale>  0 0.97823949E+02</rscale>
<asrwt>0</asrwt>
<pdfrwt beam="2">  1        3 0.96594531E-02 0.97823949E+02</pdfrwt>
<pdfrwt beam="1">  1       -3 0.58620719E-02 0.97823949E+02</pdfrwt>
<totfact> 0.28544543E+04</totfact>
</mgrwt>
</event>
<event>
 5    1  0.6079230E+000  0.8684037E+02  0.7546771E-02  0.1310689E+00
         -3   -1    0    0    0  501 -0.00000000000E+00  0.00000000000E+00  0.90932954647E+02  0.90932954647E+02  0.00000000000E+00 0.  1.
          3   -1    0    0  501    0  0.00000000000E+00 -0.00000000000E+00 -0.20732994855E+02  0.20732994855E+02  0.00000000000E+00 0. -1.
         23    2    1    2    0    0  0.00000000000E+00  0.00000000000E+00  0.70199959792E+02  0.11166594950E+03  0.86840370354E+02 0.  0.
        -13    1    3    3    0    0  0.29432067347E+02  0.54978077602E+00 -0.59427096942E+01  0.30031061349E+02  0.00000000000E+00 0. -1.
         13    1    3    3    0    0 -0.29432067347E+02 -0.54978077602E+00  0.76142669486E+02  0.81634888153E+02  0.00000000000E+00 0.  1.
<mgrwt>
<rscale>  0 0.86840370E+02</rscale>
<asrwt>0</asrwt>
<pdfrwt beam="2">  1        3 0.31896916E-02 0.86840370E+02</pdfrwt>
<pdfrwt beam="1">  1       -3 0.13989685E-01 0.86840370E+02</pdfrwt>
<totfact> 0.38596692E+04</totfact>
</mgrwt>
</event>
<event>
 5    1  0.6079230E+000  0.9024492E+02  0.7546771E-02  0.1302260E+00
          2   -1    0    0  501    0  0.00000000000E+00  0.00000000000E+00  0.23064544195E+03  0.23064544195E+03  0.00000000000E+00 0.  1.
         -2   -1    0    0    0  501 -0.00000000000E+00 -0.00000000000E+00 -0.88275596090E+01  0.88275596090E+01  0.00000000000E+00 0. -1.
         23    2    1    2    0    0  0.00000000000E+00  0.00000000000E+00  0.22181788234E+03  0.23947300155E+03  0.90244919798E+02 0.  0.
        -13    1    3    3    0    0 -0.11354444307E+01 -0.35570200539E+02  0.18451954161E+03  0.18792016825E+03  0.00000000000E+00 0.  1.
         13    1    3    3    0    0  0.11354444307E+01  0.35570200539E+02  0.37298340727E+02  0.51552833302E+02  0.00000000000E+00 0. -1.
<mgrwt>
<rscale>  0 0.90244920E+02</rscale>
<asrwt>0</asrwt>
<pdfrwt beam="1">  1        2 0.35483909E-01 0.90244920E+02</pdfrwt>
<pdfrwt beam="2">  1       -2 0.13580863E-02 0.90244920E+02</pdfrwt>
<totfact> 0.16749088E+05</totfact>
</mgrwt>
</event>
<event>
 5    1  0.6079230E+000  0.1109372E+03  0.7546771E-02  0.1258844E+00
          2   -1    0    0  501    0  0.00000000000E+00  0.00000000000E+00  0.35416145290E+03  0.35416145290E+03  0.00000000000E+00 0. -1.
         -2   -1    0    0    0  501 -0.00000000000E+00 -0.00000000000E+00 -0.86874706910E+01  0.86874706910E+01  0.00000000000E+00 0.  1.
         23    2    1    2    0    0  0.00000000000E+00  0.00000000000E+00  0.34547398221E+03  0.36284892359E+03  0.11093722985E+03 0.  0.
        -13    1    3    3    0    0  0.38373661472E+02  0.28908479326E+02  0.26341014038E+03  0.26775574714E+03  0.00000000000E+00 0. -1.
         13    1    3    3    0    0 -0.38373661472E+02 -0.28908479326E+02  0.82063841825E+02  0.95093176447E+02  0.00000000000E+00 0.  1.
<mgrwt>
<rscale>  0 0.11093723E+03</rscale>
<asrwt>0</asrwt>
<pdfrwt beam="1">  1        2 0.54486366E-01 0.11093723E+03</pdfrwt>
<pdfrwt beam="2">  1       -2 0.13365342E-02 0.11093723E+03</pdfrwt>
<totfact> 0.11271340E+05</totfact>
</mgrwt>
</event>
<event>
 5    1  0.6079230E+000  0.9036535E+02  0.7546771E-02  0.1301969E+00
          1   -1    0    0  501    0  0.00000000000E+00  0.00000000000E+00  0.25273647542E+03  0.25273647542E+03  0.00000000000E+00 0. -1.
         -1   -1    0    0    0  501 -0.00000000000E+00 -0.00000000000E+00 -0.80774804761E+01  0.80774804761E+01  0.00000000000E+00 0.  1.
         23    2    1    2    0    0  0.00000000000E+00  0.00000000000E+00  0.24465899494E+03  0.26081395590E+03  0.90365346141E+02 0.  0.
        -13    1    3    3    0    0  0.41972894769E+02 -0.16720010601E+02  0.12106714142E+03  0.12922281293E+03  0.00000000000E+00 0.  1.
         13    1    3    3    0    0 -0.41972894769E+02  0.16720010601E+02  0.12359185352E+03  0.13159114296E+03  0.00000000000E+00 0. -1.
<mgrwt>
<rscale>  0 0.90365346E+02</rscale>
<asrwt>0</asrwt>
<pdfrwt beam="1">  1        1 0.38882529E-01 0.90365346E+02</pdfrwt>
<pdfrwt beam="2">  1       -1 0.12426895E-02 0.90365346E+02</pdfrwt>
<totfact> 0.12692454E+05</totfact>
</mgrwt>
</event>
<event>
 5    1  0.6079230E+000  0.8614117E+02  0.7546771E-02  0.1312475E+00
         -2   -1    0    0    0  501 -0.00000000000E+00  0.00000000000E+00  0.11884053085E+02  0.11884053085E+02  0.00000000000E+00 0.  1.
          2   -1    0    0  501    0  0.00000000000E+00 -0.00000000000E+00 -0.15609784651E+03  0.15609784651E+03  0.00000000000E+00 0. -1.
         23    2    1    2    0    0  0.00000000000E+00  0.00000000000E+00 -0.14421379342E+03  0.16798189959E+03  0.86141165405E+02 0.  0.
        -13    1    3    3    0    0 -0.41671275476E+02 -0.10317251485E+02 -0.65313959312E+02  0.78159159150E+02  0.00000000000E+00 0.  1.
         13    1    3    3    0    0  0.41671275476E+02  0.10317251485E+02 -0.78899834109E+02  0.89822740442E+02  0.00000000000E+00 0. -1.
<mgrwt>
<rscale>  0 0.86141165E+02</rscale>
<asrwt>0</asrwt>
<pdfrwt beam="2">  1        2 0.24015053E-01 0.86141165E+02</pdfrwt>
<pdfrwt beam="1">  1       -2 0.18283159E-02 0.86141165E+02</pdfrwt>
<totfact> 0.16521402E+05</totfact>
</mgrwt>
</event>
<event>
 5    1  0.6079230E+000  0.8281774E+02  0.7546771E-02  0.1321240E+00
         -2   -1    0    0    0  501 -0.00000000000E+00  0.00000000000E+00  0.10267524405E+02  0.10267524405E+02  0.00000000000E+00 0.  1.
          2   -1    0    0  501    0  0.00000000000E+00 -0.00000000000E+00 -0.16700172872E+03  0.16700172872E+03  0.00000000000E+00 0. -1.
         23    2    1    2    0    0  0.00000000000E+00  0.00000000000E+00 -0.15673420431E+03  0.17726925312E+03  0.82817735428E+02 0.  0.
        -13    1    3    3    0    0  0.28319656037E+02  0.23512092466E+02 -0.37761622507E+02  0.52732926569E+02  0.00000000000E+00 0.  1.
         13    1    3    3    0    0 -0.28319656037E+02 -0.23512092466E+02 -0.11897258181E+03  0.12453632655E+03  0.00000000000E+00 0. -1.
<mgrwt>
<rscale>  0 0.82817735E+02</rscale>
<asrwt>0</asrwt>
<pdfrwt beam="2">  1        2 0.25692572E-01 0.82817735E+02</pdfrwt>
<pdfrwt beam="1">  1       -2 0.15796193E-02 0.82817735E+02</pdfrwt>
<totfact> 0.18785903E+05</totfact>
</mgrwt>
</event>
<event>
 5    1  0.6079230E+000  0.9269497E+02  0.7546771E-02  0.1296454E+00
          3   -1    0    0  501    0  0.00000000000E+00  0.00000000000E+00  0.86038877570E+01  0.86038877570E+01  0.00000000000E+00 0. -1.
         -3   -1    0    0    0  501 -0.00000000000E+00 -0.00000000000E+00 -0.24966496825E+03  0.24966496825E+03  0.00000000000E+00 0.  1.
         23    2    1    2    0    0  0.00000000000E+00  0.00000000000E+00 -0.24106108049E+03  0.25826885601E+03  0.92694969954E+02 0.  0.
        -13    1    3    3    0    0  0.21734977946E+01  0.43272746756E+02 -0.16638356517E+03  0.17193238631E+03  0.00000000000E+00 0.  1.
         13    1    3    3    0    0 -0.21734977946E+01 -0.43272746756E+02 -0.74677515321E+02  0.86336469693E+02  0.00000000000E+00 0. -1.
<mgrwt>
<rscale>  0 0.92694970E+02</rscale>
<asrwt>0</asrwt>
<pdfrwt beam="1">  1        3 0.13236750E-02 0.92694970E+02</pdfrwt>
<pdfrwt beam="2">  1       -3 0.38409996E-01 0.92694970E+02</pdfrwt>
<totfact> 0.24615733E+04</totfact>
</mgrwt>
</event>
<event>
 5    1  0.6079230E+000  0.9122775E+02  0.7546771E-02  0.1299905E+00
         -4   -1    0    0    0  501 -0.00000000000E+00  0.00000000000E+00  0.40303690095E+02  0.40303690095E+02  0.00000000000E+00 0.  1.
          4   -1    0    0  501    0  0.00000000000E+00 -0.00000000000E+00 -0.51623701988E+02  0.51623701988E+02  0.00000000000E+00 0. -1.
         23    2    1    2    0    0  0.00000000000E+00  0.00000000000E+00 -0.11320011893E+02  0.91927392084E+02  0.91227752061E+02 0.  0.
        -13    1    3    3    0    0 -0.81356047293E+01  0.33310873496E+02  0.24650965878E+02  0.42231178957E+02  0.00000000000E+00 0.  1.
         13    1    3    3    0    0  0.81356047293E+01 -0.33310873496E+02 -0.35970977771E+02  0.49696213127E+02  0.00000000000E+00 0. -1.
<mgrwt>
<rscale>  0 0.91227752E+02</rscale>
<asrwt>0</asrwt>
<pdfrwt beam="2">  1        4 0.79421080E-02 0.91227752E+02</pdfrwt>
<pdfrwt beam="1">  1       -4 0.62005677E-02 0.91227752E+02</pdfrwt>
<totfact> 0.26927347E+04</totfact>
</mgrwt>
</event>
<event>
 5    1  0.6079230E+000  0.9158276E+02  0.7546771E-02  0.1299063E+00
         -1   -1    0    0    0  501 -0.00000000000E+00  0.00000000000E+00  0.17889939151E+03  0.17889939151E+03  0.00000000000E+00 0.  1.
          1   -1    0    0  501    0  0.00000000000E+00 -0.00000000000E+00 -0.11720835601E+02  0.11720835601E+02  0.00000000000E+00 0. -1.
         23    2    1    2    0    0  0.00000000000E+00  0.00000000000E+00  0.16717855590E+03  0.19062022711E+03  0.91582757264E+02 0.  0.
        -13    1    3    3    0    0  0.41557695087E+02  0.69284927813E+01  0.12092729121E+03  0.12805645549E+03  0.00000000000E+00 0.  1.
         13    1    3    3    0    0 -0.41557695087E+02 -0.69284927813E+01  0.46251264693E+02  0.62563771616E+02  0.00000000000E+00 0. -1.
<mgrwt>
<rscale>  0 0.91582757E+02</rscale>
<asrwt>0</asrwt>
<pdfrwt beam="2">  1        1 0.18032056E-02 0.91582757E+02</pdfrwt>
<pdfrwt beam="1">  1       -1 0.27522981E-01 0.91582757E+02</pdfrwt>
<totfact> 0.70762074E+04</totfact>
</mgrwt>
</event>
<event>
 5    1  0.6079230E+000  0.9234192E+02  0.7546771E-02  0.1297277E+00
         -2   -1    0    0    0  501 -0.00000000000E+00  0.00000000000E+00  0.15047899521E+02  0.15047899521E+02  0.00000000000E+00 0.  1.
          2   -1    0    0  501    0  0.00000000000E+00 -0.00000000000E+00 -0.14166478688E+03  0.14166478688E+03  0.00000000000E+00 0. -1.
         23    2    1    2    0    0  0.00000000000E+00  0.00000000000E+00 -0.12661688736E+03  0.15671268640E+03  0.92341918514E+02 0.  0.
        -13    1    3    3    0    0  0.44909672181E+01 -0.40862043707E+02 -0.98982989697E+02  0.10717979125E+03  0.00000000000E+00 0. -1.
         13    1    3    3    0    0 -0.44909672181E+01  0.40862043707E+02 -0.27633897664E+02  0.49532895156E+02  0.00000000000E+00 0.  1.
<mgrwt>
<rscale>  0 0.92341919E+02</rscale>
<asrwt>0</asrwt>
<pdfrwt beam="2">  1        2 0.21794582E-01 0.92341919E+02</pdfrwt>
<pdfrwt beam="1">  1       -2 0.23150615E-02 0.92341919E+02</pdfrwt>
<totfact> 0.13247402E+05</totfact>
</mgrwt>
</event>
<event>
 5    1  0.6079230E+000  0.8970843E+02  0.7546771E-02  0.1303559E+00
          1   -1    0    0  501    0  0.00000000000E+00  0.00000000000E+00  0.24384023005E+03  0.24384023005E+03  0.00000000000E+00 0. -1.
         -1   -1    0    0    0  501 -0.00000000000E+00 -0.00000000000E+00 -0.82508968475E+01  0.82508968475E+01  0.00000000000E+00 0.  1.
         23    2    1    2    0    0  0.00000000000E+00  0.00000000000E+00  0.23558933320E+03  0.25209112690E+03  0.89708429602E+02 0.  0.
        -13    1    3    3    0    0  0.23088329525E+02  0.38058654579E+02  0.10230879964E+03  0.11157339572E+03  0.00000000000E+00 0.  1.
         13    1    3    3    0    0 -0.23088329525E+02 -0.38058654579E+02  0.13328053357E+03  0.14051773118E+03  0.00000000000E+00 0. -1.
<mgrwt>
<rscale>  0 0.89708430E+02</rscale>
<asrwt>0</asrwt>
<pdfrwt beam="1">  1        1 0.37513876E-01 0.89708430E+02</pdfrwt>
<pdfrwt beam="2">  1       -1 0.12693689E-02 0.89708430E+02</pdfrwt>
<totfact> 0.12852006E+05</totfact>
</mgrwt>
</event>
<event>
 5    1  0.6079230E+000  0.8959236E+02  0.7546771E-02  0.1303842E+00
          1   -1    0    0  501    0  0.00000000000E+00  0.00000000000E+00  0.81157134638E+02  0.81157134638E+02  0.00000000000E+00 0. -1.
         -1   -1    0    0    0  501 -0.00000000000E+00 -0.00000000000E+00 -0.24726077441E+02  0.24726077441E+02  0.00000000000E+00 0.  1.
         23    2    1    2    0    0  0.00000000000E+00  0.00000000000E+00  0.56431057198E+02  0.10588321208E+03  0.89592356726E+02 0.  0.
        -13    1    3    3    0    0 -0.20728866277E+02  0.94496069732E+01  0.73799929891E+02  0.77236070725E+02  0.00000000000E+00 0. -1.
         13    1    3    3    0    0  0.20728866277E+02 -0.94496069732E+01 -0.17368872694E+02  0.28647141354E+02  0.00000000000E+00 0.  1.
<mgrwt>
<rscale>  0 0.89592357E+02</rscale>
<asrwt>0</asrwt>
<pdfrwt beam="1">  1        1 0.12485713E-01 0.89592357E+02</pdfrwt>
<pdfrwt beam="2">  1       -1 0.38040119E-02 0.89592357E+02</pdfrwt>
<totfact> 0.10593804E+05</totfact>
</mgrwt>
</event>
<event>
 5    1  0.6079230E+000  0.9123239E+02  0.7546771E-02  0.1299894E+00
          3   -1    0    0  501    0  0.00000000000E+00  0.00000000000E+00  0.57172061509E+02  0.57172061509E+02  0.00000000000E+00 0. -1.
         -3   -1    0    0    0  501 -0.00000000000E+00 -0.00000000000E+00 -0.36396052354E+02  0.36396052354E+02  0.00000000000E+00 0.  1.
         23    2    1    2    0    0  0.00000000000E+00  0.00000000000E+00  0.20776009155E+02  0.93568113863E+02  0.91232392139E+02 0.  0.
        -13    1    3    3    0    0  0.19200563356E+02 -0.32803739150E+02 -0.15478529251E+02  0.41040611633E+02  0.00000000000E+00 0.  1.
         13    1    3    3    0    0 -0.19200563356E+02  0.32803739150E+02  0.36254538406E+02  0.52527502230E+02  0.00000000000E+00 0. -1.
<mgrwt>
<rscale>  0 0.91232392E+02</rscale>
<asrwt>0</asrwt>
<pdfrwt beam="1">  1        3 0.87957018E-02 0.91232392E+02</pdfrwt>
<pdfrwt beam="2">  1       -3 0.55993926E-02 0.91232392E+02</pdfrwt>
<totfact> 0.35097345E+04</totfact>
</mgrwt>
</event>
<event>
 5    1  0.6079230E+000  0.1208824E+03  0.7546771E-02  0.1241648E+00
          3   -1    0    0  501    0  0.00000000000E+00  0.00000000000E+00  0.77319074185E+01  0.77319074185E+01  0.00000000000E+00 0. -1.
         -3   -1    0    0    0  501 -0.00000000000E+00 -0.00000000000E+00 -0.47247563221E+03  0.47247563221E+03  0.00000000000E+00 0.  1.
         23    2    1    2    0    0  0.00000000000E+00  0.00000000000E+00 -0.46474372479E+03  0.48020753962E+03  0.12088238657E+03 0.  0.
        -13    1    3    3    0    0  0.57522058250E+02  0.38185687336E+01 -0.16023271756E+03  0.17028767550E+03  0.00000000000E+00 0. -1.
         13    1    3    3    0    0 -0.57522058250E+02 -0.38185687336E+01 -0.30451100723E+03  0.30991986412E+03  0.00000000000E+00 0.  1.
<mgrwt>
<rscale>  0 0.12088239E+03</rscale>
<asrwt>0</asrwt>
<pdfrwt beam="1">  1        3 0.11895240E-02 0.12088239E+03</pdfrwt>
<pdfrwt beam="2">  1       -3 0.72688572E-01 0.12088239E+03</pdfrwt>
<totfact> 0.85500355E+03</totfact>
</mgrwt>
</event>
<event>
 5    1  0.6079230E+000  0.8992346E+02  0.7546771E-02  0.1303037E+00
         -1   -1    0    0    0  501 -0.00000000000E+00  0.00000000000E+00  0.67779524820E+01  0.67779524820E+01  0.00000000000E+00 0.  1.
          1   -1    0    0  501    0  0.00000000000E+00 -0.00000000000E+00 -0.29825486132E+03  0.29825486132E+03  0.00000000000E+00 0. -1.
         23    2    1    2    0    0  0.00000000000E+00  0.00000000000E+00 -0.29147690884E+03  0.30503281380E+03  0.89923462513E+02 0.  0.
        -13    1    3    3    0    0 -0.22736930231E+02  0.37090805230E+02 -0.18424504297E+03  0.18931173151E+03  0.00000000000E+00 0. -1.
         13    1    3    3    0    0  0.22736930231E+02 -0.37090805230E+02 -0.10723186587E+03  0.11572108229E+03  0.00000000000E+00 0.  1.
<mgrwt>
<rscale>  0 0.89923463E+02</rscale>
<asrwt>0</asrwt>
<pdfrwt beam="2">  1        1 0.45885372E-01 0.89923463E+02</pdfrwt>
<pdfrwt beam="1">  1       -1 0.10427617E-02 0.89923463E+02</pdfrwt>
<totfact> 0.13278218E+05</totfact>
</mgrwt>
</event>
<event>
 5    1  0.6079230E+000  0.9217120E+02  0.7546771E-02  0.1297677E+00
         -1   -1    0    0    0  501 -0.00000000000E+00  0.00000000000E+00  0.63133807729E+02  0.63133807729E+02  0.00000000000E+00 0.  1.
          1   -1    0    0  501    0  0.00000000000E+00 -0.00000000000E+00 -0.33640967064E+02  0.33640967064E+02  0.00000000000E+00 0. -1.
         23    2    1    2    0    0  0.00000000000E+00  0.00000000000E+00  0.29492840665E+02  0.96774774792E+02  0.92171196074E+02 0.  0.
        -13    1    3    3    0    0  0.13931545126E+02 -0.21548893206E+02  0.54939465159E+02  0.60636520184E+02  0.00000000000E+00 0.  1.
         13    1    3    3    0    0 -0.13931545126E+02  0.21548893206E+02 -0.25446624494E+02  0.36138254609E+02  0.00000000000E+00 0. -1.
<mgrwt>
<rscale>  0 0.92171196E+02</rscale>
<asrwt>0</asrwt>
<pdfrwt beam="2">  1        1 0.51755334E-02 0.92171196E+02</pdfrwt>
<pdfrwt beam="1">  1       -1 0.97128935E-02 0.92171196E+02</pdfrwt>
<totfact> 0.85582835E+04</totfact>
</mgrwt>
</event>
<event>
 5    1  0.6079230E+000  0.9204850E+02  0.7546771E-02  0.1297965E+00
         -1   -1    0    0    0  501 -0.00000000000E+00  0.00000000000E+00  0.17311832586E+02  0.17311832586E+02  0.00000000000E+00 0.  1.
          1   -1    0    0  501    0  0.00000000000E+00 -0.00000000000E+00 -0.12235744730E+03  0.12235744730E+03  0.00000000000E+00 0. -1.
         23    2    1    2    0    0  0.00000000000E+00  0.00000000000E+00 -0.10504561471E+03  0.13966927988E+03  0.92048501198E+02 0.  0.
        -13    1    3    3    0    0  0.25643322537E+02  0.38062406290E+02 -0.47287445773E+02  0.65897111401E+02  0.00000000000E+00 0.  1.
         13    1    3    3    0    0 -0.25643322537E+02 -0.38062406290E+02 -0.57758168938E+02  0.73772168481E+02  0.00000000000E+00 0. -1.
<mgrwt>
<rscale>  0 0.92048501E+02</rscale>
<asrwt>0</asrwt>
<pdfrwt beam="2">  1        1 0.18824224E-01 0.92048501E+02</pdfrwt>
<pdfrwt beam="1">  1       -1 0.26633587E-02 0.92048501E+02</pdfrwt>
<totfact> 0.10534809E+05</totfact>
</mgrwt>
</event>
<event>
 5    1  0.6079230E+000  0.9076545E+02  0.7546771E-02  0.1301009E+00
         -1   -1    0    0    0  501 -0.00000000000E+00  0.00000000000E+00  0.55710352855E+01  0.55710352855E+01  0.00000000000E+00 0.  1.
          1   -1    0    0  501    0  0.00000000000E+00 -0.00000000000E+00 -0.36969643463E+03  0.36969643463E+03  0.00000000000E+00 0. -1.
         23    2    1    2    0    0  0.00000000000E+00  0.00000000000E+00 -0.36412539935E+03  0.37526746992E+03  0.90765453389E+02 0.  0.
        -13    1    3    3    0    0  0.13981222193E+02  0.41197086430E+02 -0.12864673023E+03  0.13580373965E+03  0.00000000000E+00 0.  1.
         13    1    3    3    0    0 -0.13981222193E+02 -0.41197086430E+02 -0.23547866912E+03  0.23946373027E+03  0.00000000000E+00 0. -1.
<mgrwt>
<rscale>  0 0.90765453E+02</rscale>
<asrwt>0</asrwt>
<pdfrwt beam="2">  1        1 0.56876374E-01 0.90765453E+02</pdfrwt>
<pdfrwt beam="1">  1       -1 0.85708237E-03 0.90765453E+02</pdfrwt>
<totfact> 0.13471503E+05</totfact>
</mgrwt>
</event>
<event>
 5    1  0.6079230E+000  0.9444554E+02  0.7546771E-02  0.1292430E+00
          1   -1    0    0  501    0  0.00000000000E+00  0.00000000000E+00  0.29385279146E+02  0.29385279146E+02  0.00000000000E+00 0. -1.
         -1   -1    0    0    0  501 -0.00000000000E+00 -0.00000000000E+00 -0.75888005040E+02  0.75888005040E+02  0.00000000000E+00 0.  1.
         23    2    1    2    0    0  0.00000000000E+00  0.00000000000E+00 -0.46502725895E+02  0.10527328419E+03  0.94445544350E+02 0.  0.
        -13    1    3    3    0    0 -0.36959091820E+02  0.24882387736E+02 -0.58085873208E+01  0.44931585486E+02  0.00000000000E+00 0. -1.
         13    1    3    3    0    0  0.36959091820E+02 -0.24882387736E+02 -0.40694138574E+02  0.60341698699E+02  0.00000000000E+00 0.  1.
<mgrwt>
<rscale>  0 0.94445544E+02</rscale>
<asrwt>0</asrwt>
<pdfrwt beam="1">  1        1 0.45208122E-02 0.94445544E+02</pdfrwt>
<pdfrwt beam="2">  1       -1 0.11675078E-01 0.94445544E+02</pdfrwt>
<totfact> 0.78040904E+04</totfact>
</mgrwt>
</event>
<event>
 5    1  0.6079230E+000  0.8763523E+02  0.7546771E-02  0.1308681E+00
          2   -1    0    0  501    0  0.00000000000E+00  0.00000000000E+00  0.38758889026E+02  0.38758889026E+02  0.00000000000E+00 0. -1.
         -2   -1    0    0    0  501 -0.00000000000E+00 -0.00000000000E+00 -0.49536599033E+02  0.49536599033E+02  0.00000000000E+00 0.  1.
         23    2    1    2    0    0  0.00000000000E+00  0.00000000000E+00 -0.10777710007E+02  0.88295488059E+02  0.87635233659E+02 0.  0.
        -13    1    3    3    0    0  0.22447318034E+02 -0.28884021357E+02  0.18913711085E+02  0.41181272973E+02  0.00000000000E+00 0. -1.
         13    1    3    3    0    0 -0.22447318034E+02  0.28884021357E+02 -0.29691421092E+02  0.47114215086E+02  0.00000000000E+00 0.  1.
<mgrwt>
<rscale>  0 0.87635234E+02</rscale>
<asrwt>0</asrwt>
<pdfrwt beam="1">  1        2 0.59629060E-02 0.87635234E+02</pdfrwt>
<pdfrwt beam="2">  1       -2 0.76210152E-02 0.87635234E+02</pdfrwt>
<totfact> 0.10608491E+05</totfact>
</mgrwt>
</event>
<event>
 5    1  0.6079230E+000  0.9038964E+02  0.7546771E-02  0.1301911E+00
         -2   -1    0    0    0  501 -0.00000000000E+00  0.00000000000E+00  0.12345518298E+02  0.12345518298E+02  0.00000000000E+00 0.  1.
          2   -1    0    0  501    0  0.00000000000E+00 -0.00000000000E+00 -0.16545045370E+03  0.16545045370E+03  0.00000000000E+00 0. -1.
         23    2    1    2    0    0  0.00000000000E+00  0.00000000000E+00 -0.15310493540E+03  0.17779597200E+03  0.90389636652E+02 0.  0.
        -13    1    3    3    0    0  0.40664453726E+01 -0.44949880756E+02 -0.71921104518E+02  0.84909793505E+02  0.00000000000E+00 0.  1.
         13    1    3    3    0    0 -0.40664453726E+01  0.44949880756E+02 -0.81183830885E+02  0.92886178494E+02  0.00000000000E+00 0. -1.
<mgrwt>
<rscale>  0 0.90389637E+02</rscale>
<asrwt>0</asrwt>
<pdfrwt beam="2">  1        2 0.25453916E-01 0.90389637E+02</pdfrwt>
<pdfrwt beam="1">  1       -2 0.18993105E-02 0.90389637E+02</pdfrwt>
<totfact> 0.14803386E+05</totfact>
</mgrwt>
</event>
<event>
 5    1  0.6079230E+000  0.9172926E+02  0.7546771E-02  0.1298717E+00
         -2   -1    0    0    0  501 -0.00000000000E+00  0.00000000000E+00  0.14378428033E+02  0.14378428033E+02  0.00000000000E+00 0.  1.
          2   -1    0    0  501    0  0.00000000000E+00 -0.00000000000E+00 -0.14630002636E+03  0.14630002636E+03  0.00000000000E+00 0. -1.
         23    2    1    2    0    0  0.00000000000E+00  0.00000000000E+00 -0.13192159833E+03  0.16067845439E+03  0.91729262513E+02 0.  0.
        -13    1    3    3    0    0  0.23697824842E+01  0.45619069903E+02 -0.73150928657E+02  0.86242528785E+02  0.00000000000E+00 0.  1.
         13    1    3    3    0    0 -0.23697824842E+01 -0.45619069903E+02 -0.58770669670E+02  0.74435925609E+02  0.00000000000E+00 0. -1.
<mgrwt>
<rscale>  0 0.91729263E+02</rscale>
<asrwt>0</asrwt>
<pdfrwt beam="2">  1        2 0.22507697E-01 0.91729263E+02</pdfrwt>
<pdfrwt beam="1">  1       -2 0.22120658E-02 0.91729263E+02</pdfrwt>
<totfact> 0.13637159E+05</totfact>
</mgrwt>
</event>
<event>
 5    1  0.6079230E+000  0.8816716E+02  0.7546771E-02  0.1307352E+00
          2   -1    0    0  501    0  0.00000000000E+00  0.00000000000E+00  0.17377474086E+03  0.17377474086E+03  0.00000000000E+00 0. -1.
         -2   -1    0    0    0  501 -0.00000000000E+00 -0.00000000000E+00 -0.11183226242E+02  0.11183226242E+02  0.00000000000E+00 0.  1.
         23    2    1    2    0    0  0.00000000000E+00  0.00000000000E+00  0.16259151461E+03  0.18495796710E+03  0.88167164913E+02 0.  0.
        -13    1    3    3    0    0 -0.22862615859E+02  0.13402102071E+02  0.15519844434E+03  0.15744482420E+03  0.00000000000E+00 0. -1.
         13    1    3    3    0    0  0.22862615859E+02 -0.13402102071E+02  0.73930702764E+01  0.27513142895E+02  0.00000000000E+00 0.  1.
<mgrwt>
<rscale>  0 0.88167165E+02</rscale>
<asrwt>0</asrwt>
<pdfrwt beam="1">  1        2 0.26734573E-01 0.88167165E+02</pdfrwt>
<pdfrwt beam="2">  1       -2 0.17204965E-02 0.88167165E+02</pdfrwt>
<totfact> 0.16103328E+05</totfact>
</mgrwt>
</event>
<event>
 5    1  0.6079230E+000  0.9347020E+02  0.7546771E-02  0.1294659E+00
          3   -1    0    0  501    0  0.00000000000E+00  0.00000000000E+00  0.21291393325E+02  0.21291393325E+02  0.00000000000E+00 0. -1.
         -3   -1    0    0    0  501 -0.00000000000E+00 -0.00000000000E+00 -0.10258462614E+03  0.10258462614E+03  0.00000000000E+00 0.  1.
         23    2    1    2    0    0  0.00000000000E+00  0.00000000000E+00 -0.81293232820E+02  0.12387601947E+03  0.93470201120E+02 0.  0.
        -13    1    3    3    0    0 -0.62014550521E+01 -0.33308231372E+02 -0.83309599525E+02  0.89935452936E+02  0.00000000000E+00 0.  1.
         13    1    3    3    0    0  0.62014550521E+01  0.33308231372E+02  0.20163667052E+01  0.33940566533E+02  0.00000000000E+00 0. -1.
<mgrwt>
<rscale>  0 0.93470201E+02</rscale>
<asrwt>0</asrwt>
<pdfrwt beam="1">  1        3 0.32755990E-02 0.93470201E+02</pdfrwt>
<pdfrwt beam="2">  1       -3 0.15782250E-01 0.93470201E+02</pdfrwt>
<totfact> 0.30827426E+04</totfact>
</mgrwt>
</event>
<event>
 5    1  0.6079230E+000  0.9202574E+02  0.7546771E-02  0.1298019E+00
          1   -1    0    0  501    0  0.00000000000E+00  0.00000000000E+00  0.89836233620E+02  0.89836233620E+02  0.00000000000E+00 0. -1.
         -1   -1    0    0    0  501 -0.00000000000E+00 -0.00000000000E+00 -0.23567153180E+02  0.23567153180E+02  0.00000000000E+00 0.  1.
         23    2    1    2    0    0  0.00000000000E+00  0.00000000000E+00  0.66269080440E+02  0.11340338680E+03  0.92025741591E+02 0.  0.
        -13    1    3    3    0    0  0.30396610044E+02 -0.16530499531E+02  0.70511522175E+02  0.78543529818E+02  0.00000000000E+00 0. -1.
         13    1    3    3    0    0 -0.30396610044E+02  0.16530499531E+02 -0.42424417346E+01  0.34859856982E+02  0.00000000000E+00 0.  1.
<mgrwt>
<rscale>  0 0.92025742E+02</rscale>
<asrwt>0</asrwt>
<pdfrwt beam="1">  1        1 0.13820959E-01 0.92025742E+02</pdfrwt>
<pdfrwt beam="2">  1       -1 0.36257159E-02 0.92025742E+02</pdfrwt>
<totfact> 0.10005774E+05</totfact>
</mgrwt>
</event>
<event>
 5    1  0.6079230E+000  0.9184583E+02  0.7546771E-02  0.1298442E+00
         -3   -1    0    0    0  501 -0.00000000000E+00  0.00000000000E+00  0.86490230160E+02  0.86490230160E+02  0.00000000000E+00 0.  1.
          3   -1    0    0  501    0  0.00000000000E+00 -0.00000000000E+00 -0.24383264964E+02  0.24383264964E+02  0.00000000000E+00 0. -1.
         23    2    1    2    0    0  0.00000000000E+00  0.00000000000E+00  0.62106965196E+02  0.11087349512E+03  0.91845831670E+02 0.  0.
        -13    1    3    3    0    0  0.34244816981E+02 -0.27373482612E+02  0.47556826891E+02  0.64681271048E+02  0.00000000000E+00 0.  1.
         13    1    3    3    0    0 -0.34244816981E+02  0.27373482612E+02  0.14550138305E+02  0.46192224076E+02  0.00000000000E+00 0. -1.
<mgrwt>
<rscale>  0 0.91845832E+02</rscale>
<asrwt>0</asrwt>
<pdfrwt beam="2">  1        3 0.37512716E-02 0.91845832E+02</pdfrwt>
<pdfrwt beam="1">  1       -3 0.13306189E-01 0.91845832E+02</pdfrwt>
<totfact> 0.33216179E+04</totfact>
</mgrwt>
</event>
<event>
 5    1  0.6079230E+000  0.9297215E+02  0.7546771E-02  0.1295810E+00
          2   -1    0    0  501    0  0.00000000000E+00  0.00000000000E+00  0.68077696746E+02  0.68077696746E+02  0.00000000000E+00 0. -1.
         -2   -1    0    0    0  501 -0.00000000000E+00 -0.00000000000E+00 -0.31742483606E+02  0.31742483606E+02  0.00000000000E+00 0.  1.
         23    2    1    2    0    0  0.00000000000E+00  0.00000000000E+00  0.36335213140E+02  0.99820180352E+02  0.92972150086E+02 0.  0.
        -13    1    3    3    0    0  0.84792133967E+01 -0.35589971061E+02 -0.12622430666E+02  0.38702310731E+02  0.00000000000E+00 0.  1.
         13    1    3    3    0    0 -0.84792133967E+01  0.35589971061E+02  0.48957643806E+02  0.61117869621E+02  0.00000000000E+00 0. -1.
<mgrwt>
<rscale>  0 0.92972150E+02</rscale>
<asrwt>0</asrwt>
<pdfrwt beam="1">  1        2 0.10473492E-01 0.92972150E+02</pdfrwt>
<pdfrwt beam="2">  1       -2 0.48834590E-02 0.92972150E+02</pdfrwt>
<totfact> 0.10392146E+05</totfact>
</mgrwt>
</event>
<event>
 5    1  0.6079230E+000  0.9086766E+02  0.7546771E-02  0.1300764E+00
          1   -1    0    0  501    0  0.00000000000E+00  0.00000000000E+00  0.22956982446E+03  0.22956982446E+03  0.00000000000E+00 0. -1.
         -1   -1    0    0    0  501 -0.00000000000E+00 -0.00000000000E+00 -0.89917424072E+01  0.89917424072E+01  0.00000000000E+00 0.  1.
         23    2    1    2    0    0  0.00000000000E+00  0.00000000000E+00  0.22057808206E+03  0.23856156687E+03  0.90867655985E+02 0.  0.
        -13    1    3    3    0    0 -0.36707477031E+02  0.11475998056E+01  0.40064492983E+02  0.54349971971E+02  0.00000000000E+00 0.  1.
         13    1    3    3    0    0  0.36707477031E+02 -0.11475998056E+01  0.18051358907E+03  0.18421159490E+03  0.00000000000E+00 0. -1.
<mgrwt>
<rscale>  0 0.90867656E+02</rscale>
<asrwt>0</asrwt>
<pdfrwt beam="1">  1        1 0.35318430E-01 0.90867656E+02</pdfrwt>
<pdfrwt beam="2">  1       -1 0.13833452E-02 0.90867656E+02</pdfrwt>
<totfact> 0.12274058E+05</totfact>
</mgrwt>
</event>
<event>
 5    1  0.6079230E+000  0.8340623E+02  0.7546771E-02  0.1319654E+00
         -4   -1    0    0    0  501 -0.00000000000E+00  0.00000000000E+00  0.30830214386E+02  0.30830214386E+02  0.00000000000E+00 0.  1.
          4   -1    0    0  501    0  0.00000000000E+00 -0.00000000000E+00 -0.56410563683E+02  0.56410563683E+02  0.00000000000E+00 0. -1.
         23    2    1    2    0    0  0.00000000000E+00  0.00000000000E+00 -0.25580349297E+02  0.87240778069E+02  0.83406229311E+02 0.  0.
        -13    1    3    3    0    0 -0.95894467537E+01 -0.14091253955E+02 -0.52600855659E+02  0.55293498199E+02  0.00000000000E+00 0. -1.
         13    1    3    3    0    0  0.95894467537E+01  0.14091253955E+02  0.27020506362E+02  0.31947279870E+02  0.00000000000E+00 0.  1.
<mgrwt>
<rscale>  0 0.83406229E+02</rscale>
<asrwt>0</asrwt>
<pdfrwt beam="2">  1        4 0.86785481E-02 0.83406229E+02</pdfrwt>
<pdfrwt beam="1">  1       -4 0.47431100E-02 0.83406229E+02</pdfrwt>
<totfact> 0.34674301E+04</totfact>
</mgrwt>
</event>
<event>
 5    1  0.6079230E+000  0.9182011E+02  0.7546771E-02  0.1298503E+00
          3   -1    0    0  501    0  0.00000000000E+00  0.00000000000E+00  0.12608619337E+03  0.12608619337E+03  0.00000000000E+00 0. -1.
         -3   -1    0    0    0  501 -0.00000000000E+00 -0.00000000000E+00 -0.16716605728E+02  0.16716605728E+02  0.00000000000E+00 0.  1.
         23    2    1    2    0    0  0.00000000000E+00  0.00000000000E+00  0.10936958765E+03  0.14280279910E+03  0.91820110703E+02 0.  0.
        -13    1    3    3    0    0  0.23508877193E+02  0.29871178586E+02  0.94723785833E+02  0.10206640103E+03  0.00000000000E+00 0.  1.
         13    1    3    3    0    0 -0.23508877193E+02 -0.29871178586E+02  0.14645801812E+02  0.40736398070E+02  0.00000000000E+00 0. -1.
<mgrwt>
<rscale>  0 0.91820111E+02</rscale>
<asrwt>0</asrwt>
<pdfrwt beam="1">  1        3 0.19397875E-01 0.91820111E+02</pdfrwt>
<pdfrwt beam="2">  1       -3 0.25717856E-02 0.91820111E+02</pdfrwt>
<totfact> 0.31152822E+04</totfact>
</mgrwt>
</event>
<event>
 5    1  0.6079230E+000  0.9115753E+02  0.7546771E-02  0.1300073E+00
          2   -1    0    0  501    0  0.00000000000E+00  0.00000000000E+00  0.36157369786E+03  0.36157369786E+03  0.00000000000E+00 0. -1.
         -2   -1    0    0    0  501 -0.00000000000E+00 -0.00000000000E+00 -0.57455065183E+01  0.57455065183E+01  0.00000000000E+00 0.  1.
         23    2    1    2    0    0  0.00000000000E+00  0.00000000000E+00  0.35582819134E+03  0.36731920438E+03  0.91157534804E+02 0.  0.
        -13    1    3    3    0    0 -0.38548164244E+02 -0.20148880229E+02  0.12303508469E+03  0.13049739617E+03  0.00000000000E+00 0.  1.
         13    1    3    3    0    0  0.38548164244E+02  0.20148880229E+02  0.23279310665E+03  0.23682180821E+03  0.00000000000E+00 0. -1.
<mgrwt>
<rscale>  0 0.91157535E+02</rscale>
<asrwt>0</asrwt>
<pdfrwt beam="1">  1        2 0.55626705E-01 0.91157535E+02</pdfrwt>
<pdfrwt beam="2">  1       -2 0.88392436E-03 0.91157535E+02</pdfrwt>
<totfact> 0.19257701E+05</totfact>
</mgrwt>
</event>
<event>
 5    1  0.6079230E+000  0.9361896E+02  0.7546771E-02  0.1294317E+00
          1   -1    0    0  501    0  0.00000000000E+00  0.00000000000E+00  0.11056213604E+03  0.11056213604E+03  0.00000000000E+00 0. -1.
         -1   -1    0    0    0  501 -0.00000000000E+00 -0.00000000000E+00 -0.19818062959E+02  0.19818062959E+02  0.00000000000E+00 0.  1.
         23    2    1    2    0    0  0.00000000000E+00  0.00000000000E+00  0.90744073077E+02  0.13038019899E+03  0.93618959038E+02 0.  0.
        -13    1    3    3    0    0  0.18155656267E+02  0.68989337233E+01 -0.13941662434E+02  0.23908013142E+02  0.00000000000E+00 0.  1.
         13    1    3    3    0    0 -0.18155656267E+02 -0.68989337233E+01  0.10468573551E+03  0.10647218585E+03  0.00000000000E+00 0. -1.
<mgrwt>
<rscale>  0 0.93618959E+02</rscale>
<asrwt>0</asrwt>
<pdfrwt beam="1">  1        1 0.17009559E-01 0.93618959E+02</pdfrwt>
<pdfrwt beam="2">  1       -1 0.30489328E-02 0.93618959E+02</pdfrwt>
<totfact> 0.98848618E+04</totfact>
</mgrwt>
</event>
<event>
 5    1  0.6079230E+000  0.9332069E+02  0.7546771E-02  0.1295004E+00
          4   -1    0    0  501    0  0.00000000000E+00  0.00000000000E+00  0.29136650363E+03  0.29136650363E+03  0.00000000000E+00 0. -1.
         -4   -1    0    0    0  501 -0.00000000000E+00 -0.00000000000E+00 -0.74723332977E+01  0.74723332977E+01  0.00000000000E+00 0.  1.
         23    2    1    2    0    0  0.00000000000E+00  0.00000000000E+00  0.28389417034E+03  0.29883883693E+03  0.93320686387E+02 0.  0.
        -13    1    3    3    0    0  0.39988424829E+02  0.23941695879E+02  0.13485224555E+03  0.14267938552E+03  0.00000000000E+00 0. -1.
         13    1    3    3    0    0 -0.39988424829E+02 -0.23941695879E+02  0.14904192479E+03  0.15615945141E+03  0.00000000000E+00 0.  1.
<mgrwt>
<rscale>  0 0.93320686E+02</rscale>
<asrwt>0</asrwt>
<pdfrwt beam="1">  1        4 0.44825607E-01 0.93320686E+02</pdfrwt>
<pdfrwt beam="2">  1       -4 0.11495900E-02 0.93320686E+02</pdfrwt>
<totfact> 0.16782569E+04</totfact>
</mgrwt>
</event>
<event>
 5    1  0.6079230E+000  0.9119858E+02  0.7546771E-02  0.1299975E+00
         -2   -1    0    0    0  501 -0.00000000000E+00  0.00000000000E+00  0.88450518008E+02  0.88450518008E+02  0.00000000000E+00 0.  1.
          2   -1    0    0  501    0  0.00000000000E+00 -0.00000000000E+00 -0.23508003722E+02  0.23508003722E+02  0.00000000000E+00 0. -1.
         23    2    1    2    0    0  0.00000000000E+00  0.00000000000E+00  0.64942514286E+02  0.11195852173E+03  0.91198576888E+02 0.  0.
        -13    1    3    3    0    0  0.44786612320E+02  0.77709827711E+01  0.28033686851E+02  0.53405209622E+02  0.00000000000E+00 0.  1.
         13    1    3    3    0    0 -0.44786612320E+02 -0.77709827711E+01  0.36908827435E+02  0.58553312109E+02  0.00000000000E+00 0. -1.
<mgrwt>
<rscale>  0 0.91198577E+02</rscale>
<asrwt>0</asrwt>
<pdfrwt beam="2">  1        2 0.36166160E-02 0.91198577E+02</pdfrwt>
<pdfrwt beam="1">  1       -2 0.13607772E-01 0.91198577E+02</pdfrwt>
<totfact> 0.82665783E+04</totfact>
</mgrwt>
</event>
<event>
 5    1  0.6079230E+000  0.5756872E+02  0.7546771E-02  0.1408327E+00
         -3   -1    0    0    0  501 -0.00000000000E+00  0.00000000000E+00  0.19586518803E+02  0.19586518803E+02  0.00000000000E+00 0.  1.
          3   -1    0    0  501    0  0.00000000000E+00 -0.00000000000E+00 -0.42301514122E+02  0.42301514122E+02  0.00000000000E+00 0. -1.
         23    2    1    2    0    0  0.00000000000E+00  0.00000000000E+00 -0.22714995319E+02  0.61888032925E+02  0.57568720734E+02 0.  0.
        -13    1    3    3    0    0  0.36923290154E+01  0.17444682802E+02  0.12934089479E+02  0.22028184725E+02  0.00000000000E+00 0.  1.
         13    1    3    3    0    0 -0.36923290154E+01 -0.17444682802E+02 -0.35649084798E+02  0.39859848200E+02  0.00000000000E+00 0. -1.
<mgrwt>
<rscale>  0 0.57568721E+02</rscale>
<asrwt>0</asrwt>
<pdfrwt beam="2">  1        3 0.65079253E-02 0.57568721E+02</pdfrwt>
<pdfrwt beam="1">  1       -3 0.30133106E-02 0.57568721E+02</pdfrwt>
<totfact> 0.12793402E+05</totfact>
</mgrwt>
</event>
<event>
 5    1  0.6079230E+000  0.9246053E+02  0.7546771E-02  0.1297000E+00
         -3   -1    0    0    0  501 -0.00000000000E+00  0.00000000000E+00  0.83420840186E+01  0.83420840186E+01  0.00000000000E+00 0.  1.
          3   -1    0    0  501    0  0.00000000000E+00 -0.00000000000E+00 -0.25619946976E+03  0.25619946976E+03  0.00000000000E+00 0. -1.
         23    2    1    2    0    0  0.00000000000E+00  0.00000000000E+00 -0.24785738574E+03  0.26454155378E+03  0.92460532170E+02 0.  0.
        -13    1    3    3    0    0 -0.19965215784E+02  0.33933201376E+02 -0.54599239151E+02  0.67313809229E+02  0.00000000000E+00 0.  1.
         13    1    3    3    0    0  0.19965215784E+02 -0.33933201376E+02 -0.19325814659E+03  0.19722774455E+03  0.00000000000E+00 0. -1.
<mgrwt>
<rscale>  0 0.92460532E+02</rscale>
<asrwt>0</asrwt>
<pdfrwt beam="2">  1        3 0.39415302E-01 0.92460532E+02</pdfrwt>
<pdfrwt beam="1">  1       -3 0.12833976E-02 0.92460532E+02</pdfrwt>
<totfact> 0.24529769E+04</totfact>
</mgrwt>
</event>
<event>
 5    1  0.6079230E+000  0.9060809E+02  0.7546771E-02  0.1301386E+00
         -3   -1    0    0    0  501 -0.00000000000E+00  0.00000000000E+00  0.55253273243E+02  0.55253273243E+02  0.00000000000E+00 0.  1.
          3   -1    0    0  501    0  0.00000000000E+00 -0.00000000000E+00 -0.37146336575E+02  0.37146336575E+02  0.00000000000E+00 0. -1.
         23    2    1    2    0    0  0.00000000000E+00  0.00000000000E+00  0.18106936668E+02  0.92399609817E+02  0.90608094224E+02 0.  0.
        -13    1    3    3    0    0 -0.10489755214E+02  0.40327878249E+01 -0.35702312082E+02  0.37429312445E+02  0.00000000000E+00 0. -1.
         13    1    3    3    0    0  0.10489755214E+02 -0.40327878249E+01  0.53809248750E+02  0.54970297372E+02  0.00000000000E+00 0.  1.
<mgrwt>
<rscale>  0 0.90608094E+02</rscale>
<asrwt>0</asrwt>
<pdfrwt beam="2">  1        3 0.57148210E-02 0.90608094E+02</pdfrwt>
<pdfrwt beam="1">  1       -3 0.85005036E-02 0.90608094E+02</pdfrwt>
<totfact> 0.35850748E+04</totfact>
</mgrwt>
</event>
<event>
 5    1  0.6079230E+000  0.9078684E+02  0.7546771E-02  0.1300957E+00
         -2   -1    0    0    0  501 -0.00000000000E+00  0.00000000000E+00  0.57152456266E+02  0.57152456266E+02  0.00000000000E+00 0.  1.
          2   -1    0    0  501    0  0.00000000000E+00 -0.00000000000E+00 -0.36053786684E+02  0.36053786684E+02  0.00000000000E+00 0. -1.
         23    2    1    2    0    0  0.00000000000E+00  0.00000000000E+00  0.21098669582E+02  0.93206242950E+02  0.90786837519E+02 0.  0.
        -13    1    3    3    0    0 -0.33699618958E+01  0.42305595807E+02  0.27085796129E+02  0.50346404358E+02  0.00000000000E+00 0.  1.
         13    1    3    3    0    0  0.33699618958E+01 -0.42305595807E+02 -0.59871265471E+01  0.42859838592E+02  0.00000000000E+00 0. -1.
<mgrwt>
<rscale>  0 0.90786838E+02</rscale>
<asrwt>0</asrwt>
<pdfrwt beam="2">  1        2 0.55467364E-02 0.90786838E+02</pdfrwt>
<pdfrwt beam="1">  1       -2 0.87926855E-02 0.90786838E+02</pdfrwt>
<totfact> 0.94022040E+04</totfact>
</mgrwt>
</event>
<event>
 5    1  0.6079230E+000  0.9135928E+02  0.7546771E-02  0.1299593E+00
          3   -1    0    0  501    0  0.00000000000E+00  0.00000000000E+00  0.17199771656E+02  0.17199771656E+02  0.00000000000E+00 0. -1.
         -3   -1    0    0    0  501 -0.00000000000E+00 -0.00000000000E+00 -0.12131727163E+03  0.12131727163E+03  0.00000000000E+00 0.  1.
         23    2    1    2    0    0  0.00000000000E+00  0.00000000000E+00 -0.10411749998E+03  0.13851704329E+03  0.91359276925E+02 0.  0.
        -13    1    3    3    0    0 -0.40861821908E+02 -0.66690626694E+01 -0.81320007929E+02  0.91252992148E+02  0.00000000000E+00 0.  1.
         13    1    3    3    0    0  0.40861821908E+02  0.66690626694E+01 -0.22797492048E+02  0.47264051141E+02  0.00000000000E+00 0. -1.
<mgrwt>
<rscale>  0 0.91359277E+02</rscale>
<asrwt>0</asrwt>
<pdfrwt beam="1">  1        3 0.26461187E-02 0.91359277E+02</pdfrwt>
<pdfrwt beam="2">  1       -3 0.18664195E-01 0.91359277E+02</pdfrwt>
<totfact> 0.31852623E+04</totfact>
</mgrwt>
</event>
<event>
 5    1  0.6079230E+000  0.9145877E+02  0.7546771E-02  0.1299357E+00
          3   -1    0    0  501    0  0.00000000000E+00  0.00000000000E+00  0.11709020382E+03  0.11709020382E+03  0.00000000000E+00 0. -1.
         -3   -1    0    0    0  501 -0.00000000000E+00 -0.00000000000E+00 -0.17859536708E+02  0.17859536708E+02  0.00000000000E+00 0.  1.
         23    2    1    2    0    0  0.00000000000E+00  0.00000000000E+00  0.99230667111E+02  0.13494974053E+03  0.91458773079E+02 0.  0.
        -13    1    3    3    0    0 -0.36150930359E+02  0.69925542543E+01  0.96018925351E+01  0.38052357628E+02  0.00000000000E+00 0.  1.
         13    1    3    3    0    0  0.36150930359E+02 -0.69925542543E+01  0.89628774576E+02  0.96897382900E+02  0.00000000000E+00 0. -1.
<mgrwt>
<rscale>  0 0.91458773E+02</rscale>
<asrwt>0</asrwt>
<pdfrwt beam="1">  1        3 0.18013877E-01 0.91458773E+02</pdfrwt>
<pdfrwt beam="2">  1       -3 0.27476211E-02 0.91458773E+02</pdfrwt>
<totfact> 0.31983883E+04</totfact>
</mgrwt>
</event>
<event>
 5    1  0.6079230E+000  0.7675156E+02  0.7546771E-02  0.1338531E+00
         -3   -1    0    0    0  501 -0.00000000000E+00  0.00000000000E+00  0.26444790307E+02  0.26444790307E+02  0.00000000000E+00 0.  1.
          3   -1    0    0  501    0  0.00000000000E+00 -0.00000000000E+00 -0.55689621416E+02  0.55689621416E+02  0.00000000000E+00 0. -1.
         23    2    1    2    0    0  0.00000000000E+00  0.00000000000E+00 -0.29244831110E+02  0.82134411723E+02  0.76751556613E+02 0.  0.
        -13    1    3    3    0    0  0.25966900976E+02 -0.25004535092E+02 -0.28705699239E+02  0.46081708847E+02  0.00000000000E+00 0.  1.
         13    1    3    3    0    0 -0.25966900976E+02  0.25004535092E+02 -0.53913187057E+00  0.36052702876E+02  0.00000000000E+00 0. -1.
<mgrwt>
<rscale>  0 0.76751557E+02</rscale>
<asrwt>0</asrwt>
<pdfrwt beam="2">  1        3 0.85676341E-02 0.76751557E+02</pdfrwt>
<pdfrwt beam="1">  1       -3 0.40684293E-02 0.76751557E+02</pdfrwt>
<totfact> 0.57365296E+04</totfact>
</mgrwt>
</event>
<event>
 5    1  0.6079230E+000  0.9057370E+02  0.7546771E-02  0.1301468E+00
         -1   -1    0    0    0  501 -0.00000000000E+00  0.00000000000E+00  0.25682761367E+02  0.25682761367E+02  0.00000000000E+00 0.  1.
          1   -1    0    0  501    0  0.00000000000E+00 -0.00000000000E+00 -0.79855069687E+02  0.79855069687E+02  0.00000000000E+00 0. -1.
         23    2    1    2    0    0  0.00000000000E+00  0.00000000000E+00 -0.54172308320E+02  0.10553783105E+03  0.90573698141E+02 0.  0.
        -13    1    3    3    0    0  0.28932041757E+02 -0.26019621935E+02 -0.54083331437E+02  0.66626500022E+02  0.00000000000E+00 0. -1.
         13    1    3    3    0    0 -0.28932041757E+02  0.26019621935E+02 -0.88976883480E-01  0.38911331033E+02  0.00000000000E+00 0.  1.
<mgrwt>
<rscale>  0 0.90573698E+02</rscale>
<asrwt>0</asrwt>
<pdfrwt beam="2">  1        1 0.12285395E-01 0.90573698E+02</pdfrwt>
<pdfrwt beam="1">  1       -1 0.39511940E-02 0.90573698E+02</pdfrwt>
<totfact> 0.10256519E+05</totfact>
</mgrwt>
</event>
<event>
 5    1  0.6079230E+000  0.9125695E+02  0.7546771E-02  0.1299836E+00
          1   -1    0    0  501    0  0.00000000000E+00  0.00000000000E+00  0.18956208453E+03  0.18956208453E+03  0.00000000000E+00 0. -1.
         -1   -1    0    0    0  501 -0.00000000000E+00 -0.00000000000E+00 -0.10982986401E+02  0.10982986401E+02  0.00000000000E+00 0.  1.
         23    2    1    2    0    0  0.00000000000E+00  0.00000000000E+00  0.17857909813E+03  0.20054507093E+03  0.91256951442E+02 0.  0.
        -13    1    3    3    0    0  0.17455832558E+02  0.41629530991E+02  0.10390537744E+03  0.11328747240E+03  0.00000000000E+00 0. -1.
         13    1    3    3    0    0 -0.17455832558E+02 -0.41629530991E+02  0.74673720689E+02  0.87257598536E+02  0.00000000000E+00 0.  1.
<mgrwt>
<rscale>  0 0.91256951E+02</rscale>
<asrwt>0</asrwt>
<pdfrwt beam="1">  1        1 0.29163395E-01 0.91256951E+02</pdfrwt>
<pdfrwt beam="2">  1       -1 0.16896904E-02 0.91256951E+02</pdfrwt>
<totfact> 0.11690894E+05</totfact>
</mgrwt>
</event>
<event>
 5    1  0.6079230E+000  0.9135557E+02  0.7546771E-02  0.1299602E+00
         -1   -1    0    0    0  501 -0.00000000000E+00  0.00000000000E+00  0.97044988843E+01  0.97044988843E+01  0.00000000000E+00 0.  1.
          1   -1    0    0  501    0  0.00000000000E+00 -0.00000000000E+00 -0.21499926241E+03  0.21499926241E+03  0.00000000000E+00 0. -1.
         23    2    1    2    0    0  0.00000000000E+00  0.00000000000E+00 -0.20529476352E+03  0.22470376129E+03  0.91355571306E+02 0.  0.
        -13    1    3    3    0    0 -0.23559639615E+02  0.38846144370E+02 -0.91011194798E+02  0.10172078023E+03  0.00000000000E+00 0.  1.
         13    1    3    3    0    0  0.23559639615E+02 -0.38846144370E+02 -0.11428356872E+03  0.12298298107E+03  0.00000000000E+00 0. -1.
<mgrwt>
<rscale>  0 0.91355571E+02</rscale>
<asrwt>0</asrwt>
<pdfrwt beam="2">  1        1 0.33076809E-01 0.91355571E+02</pdfrwt>
<pdfrwt beam="1">  1       -1 0.14929998E-02 0.91355571E+02</pdfrwt>
<totfact> 0.11945465E+05</totfact>
</mgrwt>
</event>
<event>
 5    1  0.6079230E+000  0.9262604E+02  0.7546771E-02  0.1296614E+00
          1   -1    0    0  501    0  0.00000000000E+00  0.00000000000E+00  0.49218910113E+02  0.49218910113E+02  0.00000000000E+00 0. -1.
         -1   -1    0    0    0  501 -0.00000000000E+00 -0.00000000000E+00 -0.43578691472E+02  0.43578691472E+02  0.00000000000E+00 0.  1.
         23    2    1    2    0    0  0.00000000000E+00  0.00000000000E+00  0.56402186409E+01  0.92797601585E+02  0.92626037341E+02 0.  0.
        -13    1    3    3    0    0  0.28232614389E+02 -0.21634608313E+02 -0.26895559056E+02  0.44592688739E+02  0.00000000000E+00 0.  1.
         13    1    3    3    0    0 -0.28232614389E+02  0.21634608313E+02  0.32535777697E+02  0.48204912845E+02  0.00000000000E+00 0. -1.
<mgrwt>
<rscale>  0 0.92626037E+02</rscale>
<asrwt>0</asrwt>
<pdfrwt beam="1">  1        1 0.75721400E-02 0.92626037E+02</pdfrwt>
<pdfrwt beam="2">  1       -1 0.67044141E-02 0.92626037E+02</pdfrwt>
<totfact> 0.89497323E+04</totfact>
</mgrwt>
</event>
<event>
 5    1  0.6079230E+000  0.9134843E+02  0.7546771E-02  0.1299619E+00
         -1   -1    0    0    0  501 -0.00000000000E+00  0.00000000000E+00  0.53706442790E+01  0.53706442790E+01  0.00000000000E+00 0.  1.
          1   -1    0    0  501    0  0.00000000000E+00 -0.00000000000E+00 -0.38843267997E+03  0.38843267997E+03  0.00000000000E+00 0. -1.
         23    2    1    2    0    0  0.00000000000E+00  0.00000000000E+00 -0.38306203569E+03  0.39380332425E+03  0.91348426378E+02 0.  0.
        -13    1    3    3    0    0 -0.37460241520E+02  0.23175149271E+02 -0.13948085594E+03  0.14627120841E+03  0.00000000000E+00 0.  1.
         13    1    3    3    0    0  0.37460241520E+02 -0.23175149271E+02 -0.24358117975E+03  0.24753211583E+03  0.00000000000E+00 0. -1.
<mgrwt>
<rscale>  0 0.91348426E+02</rscale>
<asrwt>0</asrwt>
<pdfrwt beam="2">  1        1 0.59758912E-01 0.91348426E+02</pdfrwt>
<pdfrwt beam="1">  1       -1 0.82625244E-03 0.91348426E+02</pdfrwt>
<totfact> 0.13356738E+05</totfact>
</mgrwt>
</event>
<event>
 5    1  0.6079230E+000  0.9182656E+02  0.7546771E-02  0.1298488E+00
         -2   -1    0    0    0  501 -0.00000000000E+00  0.00000000000E+00  0.44722265110E+02  0.44722265110E+02  0.00000000000E+00 0.  1.
          2   -1    0    0  501    0  0.00000000000E+00 -0.00000000000E+00 -0.47136017272E+02  0.47136017272E+02  0.00000000000E+00 0. -1.
         23    2    1    2    0    0  0.00000000000E+00  0.00000000000E+00 -0.24137521621E+01  0.91858282382E+02  0.91826563927E+02 0.  0.
        -13    1    3    3    0    0 -0.29294805521E+02 -0.26655189175E+02 -0.24438694396E+02  0.46539601677E+02  0.00000000000E+00 0. -1.
         13    1    3    3    0    0  0.29294805521E+02  0.26655189175E+02  0.22024942234E+02  0.45318680705E+02  0.00000000000E+00 0.  1.
<mgrwt>
<rscale>  0 0.91826564E+02</rscale>
<asrwt>0</asrwt>
<pdfrwt beam="2">  1        2 0.72516949E-02 0.91826564E+02</pdfrwt>
<pdfrwt beam="1">  1       -2 0.68803485E-02 0.91826564E+02</pdfrwt>
<totfact> 0.97527681E+04</totfact>
</mgrwt>
</event>
<event>
 5    1  0.6079230E+000  0.9249491E+02  0.7546771E-02  0.1296920E+00
          2   -1    0    0  501    0  0.00000000000E+00  0.00000000000E+00  0.54213446845E+02  0.54213446845E+02  0.00000000000E+00 0. -1.
         -2   -1    0    0    0  501 -0.00000000000E+00 -0.00000000000E+00 -0.39451970302E+02  0.39451970302E+02  0.00000000000E+00 0.  1.
         23    2    1    2    0    0  0.00000000000E+00  0.00000000000E+00  0.14761476543E+02  0.93665417146E+02  0.92494914344E+02 0.  0.
        -13    1    3    3    0    0  0.13118387283E+02  0.39326131742E+02  0.28138693409E+02  0.50104119486E+02  0.00000000000E+00 0.  1.
         13    1    3    3    0    0 -0.13118387283E+02 -0.39326131742E+02 -0.13377216866E+02  0.43561297660E+02  0.00000000000E+00 0. -1.
<mgrwt>
<rscale>  0 0.92494914E+02</rscale>
<asrwt>0</asrwt>
<pdfrwt beam="1">  1        2 0.83405303E-02 0.92494914E+02</pdfrwt>
<pdfrwt beam="2">  1       -2 0.60695339E-02 0.92494914E+02</pdfrwt>
<totfact> 0.99117749E+04</totfact>
</mgrwt>
</event>
<event>
 5    1  0.6079230E+000  0.9561812E+02  0.7546771E-02  0.1289790E+00
          1   -1    0    0  501    0  0.00000000000E+00  0.00000000000E+00  0.19050167030E+02  0.19050167030E+02  0.00000000000E+00 0. -1.
         -1   -1    0    0    0  501 -0.00000000000E+00 -0.00000000000E+00 -0.11998351454E+03  0.11998351454E+03  0.00000000000E+00 0.  1.
         23    2    1    2    0    0  0.00000000000E+00  0.00000000000E+00 -0.10093334751E+03  0.13903368157E+03  0.95618115289E+02 0.  0.
        -13    1    3    3    0    0  0.59876482253E+01 -0.47162865150E+02 -0.43121451047E+02  0.64184478816E+02  0.00000000000E+00 0.  1.
         13    1    3    3    0    0 -0.59876482253E+01  0.47162865150E+02 -0.57811896464E+02  0.74849202755E+02  0.00000000000E+00 0. -1.
<mgrwt>
<rscale>  0 0.95618115E+02</rscale>
<asrwt>0</asrwt>
<pdfrwt beam="1">  1        1 0.29307949E-02 0.95618115E+02</pdfrwt>
<pdfrwt beam="2">  1       -1 0.18459002E-01 0.95618115E+02</pdfrwt>
<totfact> 0.69432001E+04</totfact>
</mgrwt>
</event>
<event>
 5    1  0.6079230E+000  0.1048835E+03  0.7546771E-02  0.1270349E+00
          3   -1    0    0  501    0  0.00000000000E+00  0.00000000000E+00  0.43242629256E+02  0.43242629256E+02  0.00000000000E+00 0. -1.
         -3   -1    0    0    0  501 -0.00000000000E+00 -0.00000000000E+00 -0.63597855459E+02  0.63597855459E+02  0.00000000000E+00 0.  1.
         23    2    1    2    0    0  0.00000000000E+00  0.00000000000E+00 -0.20355226203E+02  0.10684048471E+03  0.10488352559E+03 0.  0.
        -13    1    3    3    0    0  0.17046479554E+02 -0.18756489536E+01 -0.60660724039E+02  0.63038273811E+02  0.00000000000E+00 0.  1.
         13    1    3    3    0    0 -0.17046479554E+02  0.18756489536E+01  0.40305497836E+02  0.43802210903E+02  0.00000000000E+00 0. -1.
<mgrwt>
<rscale>  0 0.10488353E+03</rscale>
<asrwt>0</asrwt>
<pdfrwt beam="1">  1        3 0.66527122E-02 0.10488353E+03</pdfrwt>
<pdfrwt beam="2">  1       -3 0.97842855E-02 0.10488353E+03</pdfrwt>
<totfact> 0.23266023E+04</totfact>
</mgrwt>
</event>
<event>
 5    1  0.6079230E+000  0.1026404E+03  0.7546771E-02  0.1274839E+00
          1   -1    0    0  501    0  0.00000000000E+00  0.00000000000E+00  0.19359717843E+02  0.19359717843E+02  0.00000000000E+00 0. -1.
         -1   -1    0    0    0  501 -0.00000000000E+00 -0.00000000000E+00 -0.13604352631E+03  0.13604352631E+03  0.00000000000E+00 0.  1.
         23    2    1    2    0    0  0.00000000000E+00  0.00000000000E+00 -0.11668380847E+03  0.15540324416E+03  0.10264042642E+03 0.  0.
        -13    1    3    3    0    0  0.26623069362E+02  0.11780876650E+02 -0.12233087794E+03  0.12574744758E+03  0.00000000000E+00 0.  1.
         13    1    3    3    0    0 -0.26623069362E+02 -0.11780876650E+02  0.56470694651E+01  0.29655796574E+02  0.00000000000E+00 0. -1.
<mgrwt>
<rscale>  0 0.10264043E+03</rscale>
<asrwt>0</asrwt>
<pdfrwt beam="1">  1        1 0.29784181E-02 0.10264043E+03</pdfrwt>
<pdfrwt beam="2">  1       -1 0.20929774E-01 0.10264043E+03</pdfrwt>
<totfact> 0.56206678E+04</totfact>
</mgrwt>
</event>
<event>
 5    1  0.6079230E+000  0.8796649E+02  0.7546771E-02  0.1307852E+00
         -1   -1    0    0    0  501 -0.00000000000E+00  0.00000000000E+00  0.17454258695E+02  0.17454258695E+02  0.00000000000E+00 0.  1.
          1   -1    0    0  501    0  0.00000000000E+00 -0.00000000000E+00 -0.11083403718E+03  0.11083403718E+03  0.00000000000E+00 0. -1.
         23    2    1    2    0    0  0.00000000000E+00  0.00000000000E+00 -0.93379778487E+02  0.12828829588E+03  0.87966492648E+02 0.  0.
        -13    1    3    3    0    0 -0.32527767077E+02  0.12497235121E+02 -0.85830111176E+02  0.92633927376E+02  0.00000000000E+00 0. -1.
         13    1    3    3    0    0  0.32527767077E+02 -0.12497235121E+02 -0.75496673113E+01  0.35654368501E+02  0.00000000000E+00 0.  1.
<mgrwt>
<rscale>  0 0.87966493E+02</rscale>
<asrwt>0</asrwt>
<pdfrwt beam="2">  1        1 0.17051391E-01 0.87966493E+02</pdfrwt>
<pdfrwt beam="1">  1       -1 0.26852705E-02 0.87966493E+02</pdfrwt>
<totfact> 0.11711600E+05</totfact>
</mgrwt>
</event>
<event>
 5    1  0.6079230E+000  0.8981302E+02  0.7546771E-02  0.1303305E+00
         -1   -1    0    0    0  501 -0.00000000000E+00  0.00000000000E+00  0.14304393023E+02  0.14304393023E+02  0.00000000000E+00 0.  1.
          1   -1    0    0  501    0  0.00000000000E+00 -0.00000000000E+00 -0.14097728263E+03  0.14097728263E+03  0.00000000000E+00 0. -1.
         23    2    1    2    0    0  0.00000000000E+00  0.00000000000E+00 -0.12667288961E+03  0.15528167566E+03  0.89813015940E+02 0.  0.
        -13    1    3    3    0    0 -0.34503717206E+02 -0.28277623468E+02 -0.72230675920E+02  0.84896413551E+02  0.00000000000E+00 0. -1.
         13    1    3    3    0    0  0.34503717206E+02  0.28277623468E+02 -0.54442213690E+02  0.70385262104E+02  0.00000000000E+00 0.  1.
<mgrwt>
<rscale>  0 0.89813016E+02</rscale>
<asrwt>0</asrwt>
<pdfrwt beam="2">  1        1 0.21688812E-01 0.89813016E+02</pdfrwt>
<pdfrwt beam="1">  1       -1 0.22006759E-02 0.89813016E+02</pdfrwt>
<totfact> 0.11546947E+05</totfact>
</mgrwt>
</event>
<event>
 5    1  0.6079230E+000  0.9433291E+02  0.7546771E-02  0.1292686E+00
          4   -1    0    0  501    0  0.00000000000E+00  0.00000000000E+00  0.13011257004E+03  0.13011257004E+03  0.00000000000E+00 0. -1.
         -4   -1    0    0    0  501 -0.00000000000E+00 -0.00000000000E+00 -0.17098073170E+02  0.17098073170E+02  0.00000000000E+00 0.  1.
         23    2    1    2    0    0  0.00000000000E+00  0.00000000000E+00  0.11301449687E+03  0.14721064321E+03  0.94332905030E+02 0.  0.
        -13    1    3    3    0    0 -0.33699963541E+02  0.19675266283E+02  0.97850490080E+02  0.10534477707E+03  0.00000000000E+00 0. -1.
         13    1    3    3    0    0  0.33699963541E+02 -0.19675266283E+02  0.15164006786E+02  0.41865866141E+02  0.00000000000E+00 0.  1.
<mgrwt>
<rscale>  0 0.94332905E+02</rscale>
<asrwt>0</asrwt>
<pdfrwt beam="1">  1        4 0.20017318E-01 0.94332905E+02</pdfrwt>
<pdfrwt beam="2">  1       -4 0.26304729E-02 0.94332905E+02</pdfrwt>
<totfact> 0.21721519E+04</totfact>
</mgrwt>
</event>
<event>
 5    1  0.6079230E+000  0.9170845E+02  0.7546771E-02  0.1298766E+00
          1   -1    0    0  501    0  0.00000000000E+00  0.00000000000E+00  0.39976755738E+02  0.39976755738E+02  0.00000000000E+00 0. -1.
         -1   -1    0    0    0  501 -0.00000000000E+00 -0.00000000000E+00 -0.52595812714E+02  0.52595812714E+02  0.00000000000E+00 0.  1.
         23    2    1    2    0    0  0.00000000000E+00  0.00000000000E+00 -0.12619056976E+02  0.92572568452E+02  0.91708450160E+02 0.  0.
        -13    1    3    3    0    0 -0.14445294058E+02  0.40835879779E+02 -0.21497038497E+02  0.48356574133E+02  0.00000000000E+00 0.  1.
         13    1    3    3    0    0  0.14445294058E+02 -0.40835879779E+02  0.88779815206E+01  0.44215994319E+02  0.00000000000E+00 0. -1.
<mgrwt>
<rscale>  0 0.91708450E+02</rscale>
<asrwt>0</asrwt>
<pdfrwt beam="1">  1        1 0.61502702E-02 0.91708450E+02</pdfrwt>
<pdfrwt beam="2">  1       -1 0.80916634E-02 0.91708450E+02</pdfrwt>
<totfact> 0.89176894E+04</totfact>
</mgrwt>
</event>
<event>
 5    1  0.6079230E+000  0.9061787E+02  0.7546771E-02  0.1301362E+00
         -1   -1    0    0    0  501 -0.00000000000E+00  0.00000000000E+00  0.14676717046E+02  0.14676717046E+02  0.00000000000E+00 0.  1.
          1   -1    0    0  501    0  0.00000000000E+00 -0.00000000000E+00 -0.13987456815E+03  0.13987456815E+03  0.00000000000E+00 0. -1.
         23    2    1    2    0    0  0.00000000000E+00  0.00000000000E+00 -0.12519785111E+03  0.15455128520E+03  0.90617867085E+02 0.  0.
        -13    1    3    3    0    0  0.41273935839E+02 -0.18392966760E+02 -0.56926807790E+02  0.72680812124E+02  0.00000000000E+00 0.  1.
         13    1    3    3    0    0 -0.41273935839E+02  0.18392966760E+02 -0.68271043319E+02  0.81870473076E+02  0.00000000000E+00 0. -1.
<mgrwt>
<rscale>  0 0.90617867E+02</rscale>
<asrwt>0</asrwt>
<pdfrwt beam="2">  1        1 0.21519164E-01 0.90617867E+02</pdfrwt>
<pdfrwt beam="1">  1       -1 0.22579565E-02 0.90617867E+02</pdfrwt>
<totfact> 0.11256556E+05</totfact>
</mgrwt>
</event>
<event>
 5    1  0.6079230E+000  0.9068577E+02  0.7546771E-02  0.1301199E+00
         -1   -1    0    0    0  501 -0.00000000000E+00  0.00000000000E+00  0.65209151629E+02  0.65209151629E+02  0.00000000000E+00 0.  1.
          1   -1    0    0  501    0  0.00000000000E+00 -0.00000000000E+00 -0.31528969410E+02  0.31528969410E+02  0.00000000000E+00 0. -1.
         23    2    1    2    0    0  0.00000000000E+00  0.00000000000E+00  0.33680182220E+02  0.96738121039E+02  0.90685772797E+02 0.  0.
        -13    1    3    3    0    0  0.43495036816E+02 -0.12784580039E+02  0.15938943755E+02  0.48055318566E+02  0.00000000000E+00 0.  1.
         13    1    3    3    0    0 -0.43495036816E+02  0.12784580039E+02  0.17741238465E+02  0.48682802474E+02  0.00000000000E+00 0. -1.
<mgrwt>
<rscale>  0 0.90685773E+02</rscale>
<asrwt>0</asrwt>
<pdfrwt beam="2">  1        1 0.48506107E-02 0.90685773E+02</pdfrwt>
<pdfrwt beam="1">  1       -1 0.10032177E-01 0.90685773E+02</pdfrwt>
<totfact> 0.88737481E+04</totfact>
</mgrwt>
</event>
<event>
 5    1  0.6079230E+000  0.8944175E+02  0.7546771E-02  0.1304209E+00
          4   -1    0    0  501    0  0.00000000000E+00  0.00000000000E+00  0.13746887247E+02  0.13746887247E+02  0.00000000000E+00 0. -1.
         -4   -1    0    0    0  501 -0.00000000000E+00 -0.00000000000E+00 -0.14548431852E+03  0.14548431852E+03  0.00000000000E+00 0.  1.
         23    2    1    2    0    0  0.00000000000E+00  0.00000000000E+00 -0.13173743127E+03  0.15923120577E+03  0.89441746919E+02 0.  0.
        -13    1    3    3    0    0  0.15632802948E+02 -0.36522902849E+02 -0.10242514233E+03  0.10985998699E+03  0.00000000000E+00 0.  1.
         13    1    3    3    0    0 -0.15632802948E+02  0.36522902849E+02 -0.29312288947E+02  0.49371218780E+02  0.00000000000E+00 0. -1.
<mgrwt>
<rscale>  0 0.89441747E+02</rscale>
<asrwt>0</asrwt>
<pdfrwt beam="1">  1        4 0.21149058E-02 0.89441747E+02</pdfrwt>
<pdfrwt beam="2">  1       -4 0.22382202E-01 0.89441747E+02</pdfrwt>
<totfact> 0.24445060E+04</totfact>
</mgrwt>
</event>
<event>
 5    1  0.6079230E+000  0.8935846E+02  0.7546771E-02  0.1304413E+00
          2   -1    0    0  501    0  0.00000000000E+00  0.00000000000E+00  0.65940145285E+02  0.65940145285E+02  0.00000000000E+00 0. -1.
         -2   -1    0    0    0  501 -0.00000000000E+00 -0.00000000000E+00 -0.30273419781E+02  0.30273419781E+02  0.00000000000E+00 0.  1.
         23    2    1    2    0    0  0.00000000000E+00  0.00000000000E+00  0.35666725505E+02  0.96213565066E+02  0.89358462355E+02 0.  0.
        -13    1    3    3    0    0 -0.21941620835E+02 -0.30257504147E+02  0.44191601523E+02  0.57877879430E+02  0.00000000000E+00 0. -1.
         13    1    3    3    0    0  0.21941620835E+02  0.30257504147E+02 -0.85248760183E+01  0.38335685636E+02  0.00000000000E+00 0.  1.
<mgrwt>
<rscale>  0 0.89358462E+02</rscale>
<asrwt>0</asrwt>
<pdfrwt beam="1">  1        2 0.10144638E-01 0.89358462E+02</pdfrwt>
<pdfrwt beam="2">  1       -2 0.46574492E-02 0.89358462E+02</pdfrwt>
<totfact> 0.11512788E+05</totfact>
</mgrwt>
</event>
<event>
 5    1  0.6079230E+000  0.9022970E+02  0.7546771E-02  0.1302296E+00
          2   -1    0    0  501    0  0.00000000000E+00  0.00000000000E+00  0.10692923824E+02  0.10692923824E+02  0.00000000000E+00 0. -1.
         -2   -1    0    0    0  501 -0.00000000000E+00 -0.00000000000E+00 -0.19034549658E+03  0.19034549658E+03  0.00000000000E+00 0.  1.
         23    2    1    2    0    0  0.00000000000E+00  0.00000000000E+00 -0.17965257275E+03  0.20103842040E+03  0.90229704535E+02 0.  0.
        -13    1    3    3    0    0 -0.15152664124E+02  0.33176068210E+02 -0.14898972339E+03  0.15338902310E+03  0.00000000000E+00 0.  1.
         13    1    3    3    0    0  0.15152664124E+02 -0.33176068210E+02 -0.30662849361E+02  0.47649397298E+02  0.00000000000E+00 0. -1.
<mgrwt>
<rscale>  0 0.90229705E+02</rscale>
<asrwt>0</asrwt>
<pdfrwt beam="1">  1        2 0.16450653E-02 0.90229705E+02</pdfrwt>
<pdfrwt beam="2">  1       -2 0.29283921E-01 0.90229705E+02</pdfrwt>
<totfact> 0.65364357E+04</totfact>
</mgrwt>
</event>
<event>
 5    1  0.6079230E+000  0.9201941E+02  0.7546771E-02  0.1298034E+00
          2   -1    0    0  501    0  0.00000000000E+00  0.00000000000E+00  0.12611404471E+03  0.12611404471E+03  0.00000000000E+00 0. -1.
         -2   -1    0    0    0  501 -0.00000000000E+00 -0.00000000000E+00 -0.16785544751E+02  0.16785544751E+02  0.00000000000E+00 0.  1.
         23    2    1    2    0    0  0.00000000000E+00  0.00000000000E+00  0.10932849996E+03  0.14289958946E+03  0.92019409717E+02 0.  0.
        -13    1    3    3    0    0 -0.39228832393E+02 -0.15893505446E+02  0.26651716129E+02  0.50018184483E+02  0.00000000000E+00 0.  1.
         13    1    3    3    0    0  0.39228832393E+02  0.15893505446E+02  0.82676783826E+02  0.92881404975E+02  0.00000000000E+00 0. -1.
<mgrwt>
<rscale>  0 0.92019410E+02</rscale>
<asrwt>0</asrwt>
<pdfrwt beam="1">  1        2 0.19402160E-01 0.92019410E+02</pdfrwt>
<pdfrwt beam="2">  1       -2 0.25823916E-02 0.92019410E+02</pdfrwt>
<totfact> 0.12868870E+05</totfact>
</mgrwt>
</event>
<event>
 5    1  0.6079230E+000  0.9194343E+02  0.7546771E-02  0.1298213E+00
         -2   -1    0    0    0  501 -0.00000000000E+00  0.00000000000E+00  0.75859436943E+02  0.75859436943E+02  0.00000000000E+00 0.  1.
          2   -1    0    0  501    0  0.00000000000E+00 -0.00000000000E+00 -0.27859399705E+02  0.27859399705E+02  0.00000000000E+00 0. -1.
         23    2    1    2    0    0  0.00000000000E+00  0.00000000000E+00  0.48000037238E+02  0.10371883665E+03  0.91943425544E+02 0.  0.
        -13    1    3    3    0    0 -0.34337699422E+02 -0.24690907630E+02  0.36734239197E+01  0.42452474185E+02  0.00000000000E+00 0. -1.
         13    1    3    3    0    0  0.34337699422E+02  0.24690907630E+02  0.44326613319E+02  0.61266362463E+02  0.00000000000E+00 0.  1.
<mgrwt>
<rscale>  0 0.91943426E+02</rscale>
<asrwt>0</asrwt>
<pdfrwt beam="2">  1        2 0.42860615E-02 0.91943426E+02</pdfrwt>
<pdfrwt beam="1">  1       -2 0.11670683E-01 0.91943426E+02</pdfrwt>
<totfact> 0.84574435E+04</totfact>
</mgrwt>
</event>
<event>
 5    1  0.6079230E+000  0.9154901E+02  0.7546771E-02  0.1299143E+00
          3   -1    0    0  501    0  0.00000000000E+00  0.00000000000E+00  0.43818359042E+02  0.43818359042E+02  0.00000000000E+00 0. -1.
         -3   -1    0    0    0  501 -0.00000000000E+00 -0.00000000000E+00 -0.47817972981E+02  0.47817972981E+02  0.00000000000E+00 0.  1.
         23    2    1    2    0    0  0.00000000000E+00  0.00000000000E+00 -0.39996139393E+01  0.91636332023E+02  0.91549005647E+02 0.  0.
        -13    1    3    3    0    0 -0.31837840851E+02 -0.27213026457E+02  0.16486924752E+02  0.45011283105E+02  0.00000000000E+00 0. -1.
         13    1    3    3    0    0  0.31837840851E+02  0.27213026457E+02 -0.20486538691E+02  0.46625048917E+02  0.00000000000E+00 0.  1.
<mgrwt>
<rscale>  0 0.91549006E+02</rscale>
<asrwt>0</asrwt>
<pdfrwt beam="1">  1        3 0.67412860E-02 0.91549006E+02</pdfrwt>
<pdfrwt beam="2">  1       -3 0.73566112E-02 0.91549006E+02</pdfrwt>
<totfact> 0.34912948E+04</totfact>
</mgrwt>
</event>
<event>
 5    1  0.6079230E+000  0.8295983E+02  0.7546771E-02  0.1320856E+00
          2   -1    0    0  501    0  0.00000000000E+00  0.00000000000E+00  0.16638253563E+03  0.16638253563E+03  0.00000000000E+00 0. -1.
         -2   -1    0    0    0  501 -0.00000000000E+00 -0.00000000000E+00 -0.10341128472E+02  0.10341128472E+02  0.00000000000E+00 0.  1.
         23    2    1    2    0    0  0.00000000000E+00  0.00000000000E+00  0.15604140716E+03  0.17672366410E+03  0.82959825853E+02 0.  0.
        -13    1    3    3    0    0  0.62091739882E+01  0.40715399637E+02  0.88518568999E+02  0.97631115259E+02  0.00000000000E+00 0. -1.
         13    1    3    3    0    0 -0.62091739882E+01 -0.40715399637E+02  0.67522838161E+02  0.79092548843E+02  0.00000000000E+00 0.  1.
<mgrwt>
<rscale>  0 0.82959826E+02</rscale>
<asrwt>0</asrwt>
<pdfrwt beam="1">  1        2 0.25597311E-01 0.82959826E+02</pdfrwt>
<pdfrwt beam="2">  1       -2 0.15909430E-02 0.82959826E+02</pdfrwt>
<totfact> 0.18676326E+05</totfact>
</mgrwt>
</event>
<event>
 4    1  0.6079230E+000  0.4427696E+02  0.7546771E-02  0.1478907E+00
         -4   -1    0    0    0  501 -0.00000000000E+00  0.00000000000E+00  0.25654893026E+02  0.25654893026E+02  0.00000000000E+00 0.  1.
          4   -1    0    0  501    0  0.00000000000E+00 -0.00000000000E+00 -0.19104050166E+02  0.19104050166E+02  0.00000000000E+00 0. -1.
        -13    1    1    2    0    0  0.68702128782E+01  0.17090803277E+02  0.15689861082E+02  0.24196427886E+02  0.00000000000E+00 0.  1.
         13    1    1    2    0    0 -0.68702128782E+01 -0.17090803277E+02 -0.91390182229E+01  0.20562515306E+02  0.00000000000E+00 0. -1.
<mgrwt>
<rscale>  0 0.44276963E+02</rscale>
<asrwt>0</asrwt>
<pdfrwt beam="2">  1        4 0.29390846E-02 0.44276963E+02</pdfrwt>
<pdfrwt beam="1">  1       -4 0.39469066E-02 0.44276963E+02</pdfrwt>
<totfact> 0.19774684E+05</totfact>
</mgrwt>
</event>
<event>
 5    1  0.6079230E+000  0.9119371E+02  0.7546771E-02  0.1299986E+00
         -2   -1    0    0    0  501 -0.00000000000E+00  0.00000000000E+00  0.83055556152E+01  0.83055556152E+01  0.00000000000E+00 0.  1.
          2   -1    0    0  501    0  0.00000000000E+00 -0.00000000000E+00 -0.25032321369E+03  0.25032321369E+03  0.00000000000E+00 0. -1.
         23    2    1    2    0    0  0.00000000000E+00  0.00000000000E+00 -0.24201765807E+03  0.25862876930E+03  0.91193714105E+02 0.  0.
        -13    1    3    3    0    0 -0.29042225214E+02 -0.30446081195E+02 -0.17083427194E+03  0.17593965777E+03  0.00000000000E+00 0. -1.
         13    1    3    3    0    0  0.29042225214E+02  0.30446081195E+02 -0.71183386133E+02  0.82689111537E+02  0.00000000000E+00 0.  1.
<mgrwt>
<rscale>  0 0.91193714E+02</rscale>
<asrwt>0</asrwt>
<pdfrwt beam="2">  1        2 0.38511259E-01 0.91193714E+02</pdfrwt>
<pdfrwt beam="1">  1       -2 0.12777779E-02 0.91193714E+02</pdfrwt>
<totfact> 0.16785743E+05</totfact>
</mgrwt>
</event>
<event>
 5    1  0.6079230E+000  0.9124957E+02  0.7546771E-02  0.1299854E+00
         -1   -1    0    0    0  501 -0.00000000000E+00  0.00000000000E+00  0.11725269020E+03  0.11725269020E+03  0.00000000000E+00 0.  1.
          1   -1    0    0  501    0  0.00000000000E+00 -0.00000000000E+00 -0.17753289664E+02  0.17753289664E+02  0.00000000000E+00 0. -1.
         23    2    1    2    0    0  0.00000000000E+00  0.00000000000E+00  0.99499400538E+02  0.13500597987E+03  0.91249569271E+02 0.  0.
        -13    1    3    3    0    0 -0.41786025624E+02 -0.15217310991E+02  0.64836678772E+02  0.78622092349E+02  0.00000000000E+00 0. -1.
         13    1    3    3    0    0  0.41786025624E+02  0.15217310991E+02  0.34662721766E+02  0.56383887517E+02  0.00000000000E+00 0.  1.
<mgrwt>
<rscale>  0 0.91249569E+02</rscale>
<asrwt>0</asrwt>
<pdfrwt beam="2">  1        1 0.27312754E-02 0.91249569E+02</pdfrwt>
<pdfrwt beam="1">  1       -1 0.18038875E-01 0.91249569E+02</pdfrwt>
<totfact> 0.78738566E+04</totfact>
</mgrwt>
</event>
<event>
 5    1  0.6079230E+000  0.9086729E+02  0.7546771E-02  0.1300765E+00
          3   -1    0    0  501    0  0.00000000000E+00  0.00000000000E+00  0.10560243730E+02  0.10560243730E+02  0.00000000000E+00 0. -1.
         -3   -1    0    0    0  501 -0.00000000000E+00 -0.00000000000E+00 -0.19547050127E+03  0.19547050127E+03  0.00000000000E+00 0.  1.
         23    2    1    2    0    0  0.00000000000E+00  0.00000000000E+00 -0.18491025754E+03  0.20603074500E+03  0.90867290822E+02 0.  0.
        -13    1    3    3    0    0  0.34994935656E+02 -0.25691024683E+02 -0.62073761235E+02  0.75748439619E+02  0.00000000000E+00 0.  1.
         13    1    3    3    0    0 -0.34994935656E+02  0.25691024683E+02 -0.12283649630E+03  0.13028230538E+03  0.00000000000E+00 0. -1.
<mgrwt>
<rscale>  0 0.90867291E+02</rscale>
<asrwt>0</asrwt>
<pdfrwt beam="1">  1        3 0.16246529E-02 0.90867291E+02</pdfrwt>
<pdfrwt beam="2">  1       -3 0.30072384E-01 0.90867291E+02</pdfrwt>
<totfact> 0.28447788E+04</totfact>
</mgrwt>
</event>
<event>
 5    1  0.6079230E+000  0.8315391E+02  0.7546771E-02  0.1320332E+00
          3   -1    0    0  501    0  0.00000000000E+00  0.00000000000E+00  0.71241130455E+02  0.71241130455E+02  0.00000000000E+00 0. -1.
         -3   -1    0    0    0  501 -0.00000000000E+00 -0.00000000000E+00 -0.24264680547E+02  0.24264680547E+02  0.00000000000E+00 0.  1.
         23    2    1    2    0    0  0.00000000000E+00  0.00000000000E+00  0.46976449908E+02  0.95505811002E+02  0.83153912050E+02 0.  0.
        -13    1    3    3    0    0 -0.53200958295E+01  0.12333486803E+02  0.68680493538E+02  0.69981629796E+02  0.00000000000E+00 0. -1.
         13    1    3    3    0    0  0.53200958295E+01 -0.12333486803E+02 -0.21704043630E+02  0.25524181206E+02  0.00000000000E+00 0.  1.
<mgrwt>
<rscale>  0 0.83153912E+02</rscale>
<asrwt>0</asrwt>
<pdfrwt beam="1">  1        3 0.10960174E-01 0.83153912E+02</pdfrwt>
<pdfrwt beam="2">  1       -3 0.37330278E-02 0.83153912E+02</pdfrwt>
<totfact> 0.44910800E+04</totfact>
</mgrwt>
</event>
<event>
 5    1  0.6079230E+000  0.9306693E+02  0.7546771E-02  0.1295590E+00
          1   -1    0    0  501    0  0.00000000000E+00  0.00000000000E+00  0.52129812291E+02  0.52129812291E+02  0.00000000000E+00 0. -1.
         -1   -1    0    0    0  501 -0.00000000000E+00 -0.00000000000E+00 -0.41537904374E+02  0.41537904374E+02  0.00000000000E+00 0.  1.
         23    2    1    2    0    0  0.00000000000E+00  0.00000000000E+00  0.10591907917E+02  0.93667716665E+02  0.93066925553E+02 0.  0.
        -13    1    3    3    0    0 -0.20235424131E+02 -0.13326095960E+02  0.45280315068E+02  0.51355273886E+02  0.00000000000E+00 0. -1.
         13    1    3    3    0    0  0.20235424131E+02  0.13326095960E+02 -0.34688407150E+02  0.42312442779E+02  0.00000000000E+00 0.  1.
<mgrwt>
<rscale>  0 0.93066926E+02</rscale>
<asrwt>0</asrwt>
<pdfrwt beam="1">  1        1 0.80199711E-02 0.93066926E+02</pdfrwt>
<pdfrwt beam="2">  1       -1 0.63904469E-02 0.93066926E+02</pdfrwt>
<totfact> 0.89089958E+04</totfact>
</mgrwt>
</event>
<event>
 5    1  0.6079230E+000  0.8061762E+02  0.7546771E-02  0.1327308E+00
         -3   -1    0    0    0  501 -0.00000000000E+00  0.00000000000E+00  0.15311328709E+03  0.15311328709E+03  0.00000000000E+00 0.  1.
          3   -1    0    0  501    0  0.00000000000E+00 -0.00000000000E+00 -0.10611752305E+02  0.10611752305E+02  0.00000000000E+00 0. -1.
         23    2    1    2    0    0  0.00000000000E+00  0.00000000000E+00  0.14250153479E+03  0.16372503940E+03  0.80617622820E+02 0.  0.
        -13    1    3    3    0    0 -0.29896744472E+02  0.61503623867E+01  0.12471966529E+03  0.12840030061E+03  0.00000000000E+00 0.  1.
         13    1    3    3    0    0  0.29896744472E+02 -0.61503623867E+01  0.17781869500E+02  0.35324738788E+02  0.00000000000E+00 0. -1.
<mgrwt>
<rscale>  0 0.80617623E+02</rscale>
<asrwt>0</asrwt>
<pdfrwt beam="2">  1        3 0.16325774E-02 0.80617623E+02</pdfrwt>
<pdfrwt beam="1">  1       -3 0.23555889E-01 0.80617623E+02</pdfrwt>
<totfact> 0.42415714E+04</totfact>
</mgrwt>
</event>
<event>
 5    1  0.6079230E+000  0.8972224E+02  0.7546771E-02  0.1303526E+00
          3   -1    0    0  501    0  0.00000000000E+00  0.00000000000E+00  0.98214267739E+01  0.98214267739E+01  0.00000000000E+00 0. -1.
         -3   -1    0    0    0  501 -0.00000000000E+00 -0.00000000000E+00 -0.20491117319E+03  0.20491117319E+03  0.00000000000E+00 0.  1.
         23    2    1    2    0    0  0.00000000000E+00  0.00000000000E+00 -0.19508974642E+03  0.21473259997E+03  0.89722239889E+02 0.  0.
        -13    1    3    3    0    0 -0.21610910176E+02  0.37680722653E+02 -0.12437249689E+03  0.13173984318E+03  0.00000000000E+00 0.  1.
         13    1    3    3    0    0  0.21610910176E+02 -0.37680722653E+02 -0.70717249533E+02  0.82992756791E+02  0.00000000000E+00 0. -1.
<mgrwt>
<rscale>  0 0.89722240E+02</rscale>
<asrwt>0</asrwt>
<pdfrwt beam="1">  1        3 0.15109888E-02 0.89722240E+02</pdfrwt>
<pdfrwt beam="2">  1       -3 0.31524795E-01 0.89722240E+02</pdfrwt>
<totfact> 0.28979094E+04</totfact>
</mgrwt>
</event>
<event>
 5    1  0.6079230E+000  0.8752693E+02  0.7546771E-02  0.1308954E+00
         -2   -1    0    0    0  501 -0.00000000000E+00  0.00000000000E+00  0.97852330352E+02  0.97852330352E+02  0.00000000000E+00 0. -1.
          2   -1    0    0  501    0  0.00000000000E+00 -0.00000000000E+00 -0.19572768559E+02  0.19572768559E+02  0.00000000000E+00 0.  1.
         23    2    1    2    0    0  0.00000000000E+00  0.00000000000E+00  0.78279561792E+02  0.11742509891E+03  0.87526933339E+02 0.  0.
        -13    1    3    3    0    0 -0.30371578032E+02 -0.24019599235E+02  0.66498547356E+02  0.76950833004E+02  0.00000000000E+00 0. -1.
         13    1    3    3    0    0  0.30371578032E+02  0.24019599235E+02  0.11781014436E+02  0.40474265907E+02  0.00000000000E+00 0.  1.
<mgrwt>
<rscale>  0 0.87526933E+02</rscale>
<asrwt>0</asrwt>
<pdfrwt beam="2">  1        2 0.30111952E-02 0.87526933E+02</pdfrwt>
<pdfrwt beam="1">  1       -2 0.15054204E-01 0.87526933E+02</pdfrwt>
<totfact> 0.88903246E+04</totfact>
</mgrwt>
</event>
<event>
 5    1  0.6079230E+000  0.9042630E+02  0.7546771E-02  0.1301823E+00
         -3   -1    0    0    0  501 -0.00000000000E+00  0.00000000000E+00  0.23863465982E+02  0.23863465982E+02  0.00000000000E+00 0.  1.
          3   -1    0    0  501    0  0.00000000000E+00 -0.00000000000E+00 -0.85663539496E+02  0.85663539496E+02  0.00000000000E+00 0. -1.
         23    2    1    2    0    0  0.00000000000E+00  0.00000000000E+00 -0.61800073514E+02  0.10952700548E+03  0.90426300614E+02 0.  0.
        -13    1    3    3    0    0  0.40409554729E+02  0.69188014237E+01 -0.53990628620E+02  0.67792255496E+02  0.00000000000E+00 0. -1.
         13    1    3    3    0    0 -0.40409554729E+02 -0.69188014237E+01 -0.78094448939E+01  0.41734749982E+02  0.00000000000E+00 0.  1.
<mgrwt>
<rscale>  0 0.90426301E+02</rscale>
<asrwt>0</asrwt>
<pdfrwt beam="2">  1        3 0.13179006E-01 0.90426301E+02</pdfrwt>
<pdfrwt beam="1">  1       -3 0.36713024E-02 0.90426301E+02</pdfrwt>
<totfact> 0.34749384E+04</totfact>
</mgrwt>
</event>
<event>
 5    1  0.6079230E+000  0.8689680E+02  0.7546771E-02  0.1310545E+00
          1   -1    0    0  501    0  0.00000000000E+00  0.00000000000E+00  0.14554656067E+03  0.14554656067E+03  0.00000000000E+00 0.  1.
         -1   -1    0    0    0  501 -0.00000000000E+00 -0.00000000000E+00 -0.12970169759E+02  0.12970169759E+02  0.00000000000E+00 0. -1.
         23    2    1    2    0    0  0.00000000000E+00  0.00000000000E+00  0.13257639091E+03  0.15851673042E+03  0.86896803154E+02 0.  0.
        -13    1    3    3    0    0 -0.58838611921E+01  0.22876952366E+02  0.13280978932E+03  0.13489408775E+03  0.00000000000E+00 0.  1.
         13    1    3    3    0    0  0.58838611921E+01 -0.22876952366E+02 -0.23339840830E+00  0.23622642674E+02  0.00000000000E+00 0. -1.
<mgrwt>
<rscale>  0 0.86896803E+02</rscale>
<asrwt>0</asrwt>
<pdfrwt beam="1">  1        1 0.22391777E-01 0.86896803E+02</pdfrwt>
<pdfrwt beam="2">  1       -1 0.19954108E-02 0.86896803E+02</pdfrwt>
<totfact> 0.12691221E+05</totfact>
</mgrwt>
</event>
<event>
 5    1  0.6079230E+000  0.9103655E+02  0.7546771E-02  0.1300361E+00
         -1   -1    0    0    0  501 -0.00000000000E+00  0.00000000000E+00  0.32981396910E+02  0.32981396910E+02  0.00000000000E+00 0.  1.
          1   -1    0    0  501    0  0.00000000000E+00 -0.00000000000E+00 -0.62820666303E+02  0.62820666303E+02  0.00000000000E+00 0. -1.
         23    2    1    2    0    0  0.00000000000E+00  0.00000000000E+00 -0.29839269393E+02  0.95802063213E+02  0.91036549352E+02 0.  0.
        -13    1    3    3    0    0  0.11550297646E+02 -0.38015071398E+02  0.84547557363E+01  0.40620658829E+02  0.00000000000E+00 0.  1.
         13    1    3    3    0    0 -0.11550297646E+02  0.38015071398E+02 -0.38294025129E+02  0.55181404384E+02  0.00000000000E+00 0. -1.
<mgrwt>
<rscale>  0 0.91036549E+02</rscale>
<asrwt>0</asrwt>
<pdfrwt beam="2">  1        1 0.96647177E-02 0.91036549E+02</pdfrwt>
<pdfrwt beam="1">  1       -1 0.50740611E-02 0.91036549E+02</pdfrwt>
<totfact> 0.97460261E+04</totfact>
</mgrwt>
</event>
<event>
 5    1  0.6079230E+000  0.9213627E+02  0.7546771E-02  0.1297759E+00
          1   -1    0    0  501    0  0.00000000000E+00  0.00000000000E+00  0.96127183331E+02  0.96127183331E+02  0.00000000000E+00 0. -1.
         -1   -1    0    0    0  501 -0.00000000000E+00 -0.00000000000E+00 -0.22077762960E+02  0.22077762960E+02  0.00000000000E+00 0.  1.
         23    2    1    2    0    0  0.00000000000E+00  0.00000000000E+00  0.74049420371E+02  0.11820494629E+03  0.92136272283E+02 0.  0.
        -13    1    3    3    0    0  0.30721803153E+02 -0.21366295353E+02  0.71495495232E+02  0.80696676540E+02  0.00000000000E+00 0. -1.
         13    1    3    3    0    0 -0.30721803153E+02  0.21366295353E+02  0.25539251390E+01  0.37508269751E+02  0.00000000000E+00 0.  1.
<mgrwt>
<rscale>  0 0.92136272E+02</rscale>
<asrwt>0</asrwt>
<pdfrwt beam="1">  1        1 0.14788797E-01 0.92136272E+02</pdfrwt>
<pdfrwt beam="2">  1       -1 0.33965790E-02 0.92136272E+02</pdfrwt>
<totfact> 0.10084395E+05</totfact>
</mgrwt>
</event>
<event>
 5    1  0.6079230E+000  0.9257278E+02  0.7546771E-02  0.1296738E+00
          2   -1    0    0  501    0  0.00000000000E+00  0.00000000000E+00  0.44344888277E+02  0.44344888277E+02  0.00000000000E+00 0. -1.
         -2   -1    0    0    0  501 -0.00000000000E+00 -0.00000000000E+00 -0.48312898145E+02  0.48312898145E+02  0.00000000000E+00 0.  1.
         23    2    1    2    0    0  0.00000000000E+00  0.00000000000E+00 -0.39680098682E+01  0.92657786422E+02  0.92572783702E+02 0.  0.
        -13    1    3    3    0    0  0.12484599644E+02  0.29992005398E+02 -0.34984636377E+02  0.47742123942E+02  0.00000000000E+00 0.  1.
         13    1    3    3    0    0 -0.12484599644E+02 -0.29992005398E+02  0.31016626508E+02  0.44915662480E+02  0.00000000000E+00 0. -1.
<mgrwt>
<rscale>  0 0.92572784E+02</rscale>
<asrwt>0</asrwt>
<pdfrwt beam="1">  1        2 0.68222905E-02 0.92572784E+02</pdfrwt>
<pdfrwt beam="2">  1       -2 0.74327535E-02 0.92572784E+02</pdfrwt>
<totfact> 0.93771153E+04</totfact>
</mgrwt>
</event>
<event>
 5    1  0.6079230E+000  0.9087752E+02  0.7546771E-02  0.1300740E+00
         -2   -1    0    0    0  501 -0.00000000000E+00  0.00000000000E+00  0.53857480800E+02  0.53857480800E+02  0.00000000000E+00 0.  1.
          2   -1    0    0  501    0  0.00000000000E+00 -0.00000000000E+00 -0.38336007413E+02  0.38336007413E+02  0.00000000000E+00 0. -1.
         23    2    1    2    0    0  0.00000000000E+00  0.00000000000E+00  0.15521473387E+02  0.92193488213E+02  0.90877517202E+02 0.  0.
        -13    1    3    3    0    0  0.21941367140E+02  0.39507418846E+02  0.12564390958E+02  0.46905475757E+02  0.00000000000E+00 0.  1.
         13    1    3    3    0    0 -0.21941367140E+02 -0.39507418846E+02  0.29570824290E+01  0.45288012457E+02  0.00000000000E+00 0. -1.
<mgrwt>
<rscale>  0 0.90877517E+02</rscale>
<asrwt>0</asrwt>
<pdfrwt beam="2">  1        2 0.58978473E-02 0.90877517E+02</pdfrwt>
<pdfrwt beam="1">  1       -2 0.82857663E-02 0.90877517E+02</pdfrwt>
<totfact> 0.95250036E+04</totfact>
</mgrwt>
</event>
<event>
 5    1  0.6079230E+000  0.9214634E+02  0.7546771E-02  0.1297736E+00
         -1   -1    0    0    0  501 -0.00000000000E+00  0.00000000000E+00  0.16112311655E+02  0.16112311655E+02  0.00000000000E+00 0.  1.
          1   -1    0    0  501    0  0.00000000000E+00 -0.00000000000E+00 -0.13174626658E+03  0.13174626658E+03  0.00000000000E+00 0. -1.
         23    2    1    2    0    0  0.00000000000E+00  0.00000000000E+00 -0.11563395492E+03  0.14785857823E+03  0.92146338103E+02 0.  0.
        -13    1    3    3    0    0  0.29118061968E+02 -0.58413973574E+01 -0.12958012948E+01  0.29726462232E+02  0.00000000000E+00 0.  1.
         13    1    3    3    0    0 -0.29118061968E+02  0.58413973574E+01 -0.11433815363E+03  0.11813211600E+03  0.00000000000E+00 0. -1.
<mgrwt>
<rscale>  0 0.92146338E+02</rscale>
<asrwt>0</asrwt>
<pdfrwt beam="2">  1        1 0.20268656E-01 0.92146338E+02</pdfrwt>
<pdfrwt beam="1">  1       -1 0.24788172E-02 0.92146338E+02</pdfrwt>
<totfact> 0.10643233E+05</totfact>
</mgrwt>
</event>
<event>
 5    1  0.6079230E+000  0.6777714E+02  0.7546771E-02  0.1367819E+00
         -2   -1    0    0    0  501 -0.00000000000E+00  0.00000000000E+00  0.14832803894E+03  0.14832803894E+03  0.00000000000E+00 0.  1.
          2   -1    0    0  501    0  0.00000000000E+00 -0.00000000000E+00 -0.77425364269E+01  0.77425364269E+01  0.00000000000E+00 0. -1.
         23    2    1    2    0    0  0.00000000000E+00  0.00000000000E+00  0.14058550251E+03  0.15607057537E+03  0.67777142006E+02 0.  0.
        -13    1    3    3    0    0  0.24431470075E+02  0.27333729682E+01  0.12400385124E+03  0.12641725824E+03  0.00000000000E+00 0.  1.
         13    1    3    3    0    0 -0.24431470075E+02 -0.27333729682E+01  0.16581651270E+02  0.29653317127E+02  0.00000000000E+00 0. -1.
<mgrwt>
<rscale>  0 0.67777142E+02</rscale>
<asrwt>0</asrwt>
<pdfrwt beam="2">  1        2 0.11911596E-02 0.67777142E+02</pdfrwt>
<pdfrwt beam="1">  1       -2 0.22819696E-01 0.67777142E+02</pdfrwt>
<totfact> 0.14808332E+05</totfact>
</mgrwt>
</event>
<event>
 5    1  0.6079230E+000  0.9033507E+02  0.7546771E-02  0.1302042E+00
         -2   -1    0    0    0  501 -0.00000000000E+00  0.00000000000E+00  0.10969871967E+03  0.10969871967E+03  0.00000000000E+00 0.  1.
          2   -1    0    0  501    0  0.00000000000E+00 -0.00000000000E+00 -0.18597357252E+02  0.18597357252E+02  0.00000000000E+00 0. -1.
         23    2    1    2    0    0  0.00000000000E+00  0.00000000000E+00  0.91101362420E+02  0.12829607692E+03  0.90335071368E+02 0.  0.
        -13    1    3    3    0    0  0.74509008532E-01  0.28130621467E+02  0.95738464665E+02  0.99785725593E+02  0.00000000000E+00 0.  1.
         13    1    3    3    0    0 -0.74509008532E-01 -0.28130621467E+02 -0.46371022452E+01  0.28510351330E+02  0.00000000000E+00 0. -1.
<mgrwt>
<rscale>  0 0.90335071E+02</rscale>
<asrwt>0</asrwt>
<pdfrwt beam="2">  1        2 0.28611320E-02 0.90335071E+02</pdfrwt>
<pdfrwt beam="1">  1       -2 0.16876726E-01 0.90335071E+02</pdfrwt>
<totfact> 0.79409558E+04</totfact>
</mgrwt>
</event>
<event>
 5    1  0.6079230E+000  0.8975293E+02  0.7546771E-02  0.1303451E+00
         -2   -1    0    0    0  501 -0.00000000000E+00  0.00000000000E+00  0.44414436444E+01  0.44414436444E+01  0.00000000000E+00 0. -1.
          2   -1    0    0  501    0  0.00000000000E+00 -0.00000000000E+00 -0.45343304296E+03  0.45343304296E+03  0.00000000000E+00 0.  1.
         23    2    1    2    0    0  0.00000000000E+00  0.00000000000E+00 -0.44899159932E+03  0.45787448661E+03  0.89752934366E+02 0.  0.
        -13    1    3    3    0    0  0.29960030004E+02  0.32807067098E+02 -0.19223501781E+03  0.19730232924E+03  0.00000000000E+00 0.  1.
         13    1    3    3    0    0 -0.29960030004E+02 -0.32807067098E+02 -0.25675658151E+03  0.26057215737E+03  0.00000000000E+00 0. -1.
<mgrwt>
<rscale>  0 0.89752934E+02</rscale>
<asrwt>0</asrwt>
<pdfrwt beam="2">  1        2 0.69758948E-01 0.89752934E+02</pdfrwt>
<pdfrwt beam="1">  1       -2 0.68329884E-03 0.89752934E+02</pdfrwt>
<totfact> 0.21745546E+05</totfact>
</mgrwt>
</event>
<event>
 5    1  0.6079230E+000  0.9182324E+02  0.7546771E-02  0.1298496E+00
          3   -1    0    0  501    0  0.00000000000E+00  0.00000000000E+00  0.22747063070E+03  0.22747063070E+03  0.00000000000E+00 0. -1.
         -3   -1    0    0    0  501 -0.00000000000E+00 -0.00000000000E+00 -0.92665896988E+01  0.92665896988E+01  0.00000000000E+00 0.  1.
         23    2    1    2    0    0  0.00000000000E+00  0.00000000000E+00  0.21820404100E+03  0.23673722040E+03  0.91823243315E+02 0.  0.
        -13    1    3    3    0    0  0.91248918829E+01 -0.42984425288E+02  0.74806112245E+02  0.86757586979E+02  0.00000000000E+00 0.  1.
         13    1    3    3    0    0 -0.91248918829E+01  0.42984425288E+02  0.14339792875E+03  0.14997963342E+03  0.00000000000E+00 0. -1.
<mgrwt>
<rscale>  0 0.91823243E+02</rscale>
<asrwt>0</asrwt>
<pdfrwt beam="1">  1        3 0.34995477E-01 0.91823243E+02</pdfrwt>
<pdfrwt beam="2">  1       -3 0.14256294E-02 0.91823243E+02</pdfrwt>
<totfact> 0.26200343E+04</totfact>
</mgrwt>
</event>
<event>
 5    1  0.6079230E+000  0.8396691E+02  0.7546771E-02  0.1318156E+00
         -2   -1    0    0    0  501 -0.00000000000E+00  0.00000000000E+00  0.27283665821E+02  0.27283665821E+02  0.00000000000E+00 0.  1.
          2   -1    0    0  501    0  0.00000000000E+00 -0.00000000000E+00 -0.64603144162E+02  0.64603144162E+02  0.00000000000E+00 0. -1.
         23    2    1    2    0    0  0.00000000000E+00  0.00000000000E+00 -0.37319478340E+02  0.91886809983E+02  0.83966912443E+02 0.  0.
        -13    1    3    3    0    0 -0.20279111635E+01  0.40272551117E+02 -0.31450660028E+02  0.51138388842E+02  0.00000000000E+00 0. -1.
         13    1    3    3    0    0  0.20279111635E+01 -0.40272551117E+02 -0.58688183124E+01  0.40748421141E+02  0.00000000000E+00 0.  1.
<mgrwt>
<rscale>  0 0.83966912E+02</rscale>
<asrwt>0</asrwt>
<pdfrwt beam="2">  1        2 0.99389452E-02 0.83966912E+02</pdfrwt>
<pdfrwt beam="1">  1       -2 0.41974871E-02 0.83966912E+02</pdfrwt>
<totfact> 0.13614151E+05</totfact>
</mgrwt>
</event>
<event>
 5    1  0.6079230E+000  0.9250000E+02  0.7546771E-02  0.1296908E+00
         -1   -1    0    0    0  501 -0.00000000000E+00  0.00000000000E+00  0.38665894878E+02  0.38665894878E+02  0.00000000000E+00 0.  1.
          1   -1    0    0  501    0  0.00000000000E+00 -0.00000000000E+00 -0.55321688239E+02  0.55321688239E+02  0.00000000000E+00 0. -1.
         23    2    1    2    0    0  0.00000000000E+00  0.00000000000E+00 -0.16655793361E+02  0.93987583118E+02  0.92500001772E+02 0.  0.
        -13    1    3    3    0    0 -0.21025230635E+02 -0.24334883481E+01 -0.50111978954E+02  0.54398461591E+02  0.00000000000E+00 0. -1.
         13    1    3    3    0    0  0.21025230635E+02  0.24334883481E+01  0.33456185593E+02  0.39589121527E+02  0.00000000000E+00 0.  1.
<mgrwt>
<rscale>  0 0.92500002E+02</rscale>
<asrwt>0</asrwt>
<pdfrwt beam="2">  1        1 0.85110289E-02 0.92500002E+02</pdfrwt>
<pdfrwt beam="1">  1       -1 0.59485992E-02 0.92500002E+02</pdfrwt>
<totfact> 0.91449551E+04</totfact>
</mgrwt>
</event>
<event>
 5    1  0.6079230E+000  0.9430740E+02  0.7546771E-02  0.1292744E+00
         -2   -1    0    0    0  501 -0.00000000000E+00  0.00000000000E+00  0.50012324317E+02  0.50012324317E+02  0.00000000000E+00 0. -1.
          2   -1    0    0  501    0  0.00000000000E+00 -0.00000000000E+00 -0.44458471391E+02  0.44458471391E+02  0.00000000000E+00 0.  1.
         23    2    1    2    0    0  0.00000000000E+00  0.00000000000E+00  0.55538529253E+01  0.94470795708E+02  0.94307401403E+02 0.  0.
        -13    1    3    3    0    0  0.17637976743E+02  0.89159085777E+01  0.45663247508E+02  0.49756646011E+02  0.00000000000E+00 0. -1.
         13    1    3    3    0    0 -0.17637976743E+02 -0.89159085777E+01 -0.40109394582E+02  0.44714149697E+02  0.00000000000E+00 0.  1.
<mgrwt>
<rscale>  0 0.94307401E+02</rscale>
<asrwt>0</asrwt>
<pdfrwt beam="2">  1        2 0.68397649E-02 0.94307401E+02</pdfrwt>
<pdfrwt beam="1">  1       -2 0.76942037E-02 0.94307401E+02</pdfrwt>
<totfact> 0.88929475E+04</totfact>
</mgrwt>
</event>
<event>
 5    1  0.6079230E+000  0.1076617E+03  0.7546771E-02  0.1264962E+00
          4   -1    0    0  501    0  0.00000000000E+00  0.00000000000E+00  0.98767269656E+02  0.98767269656E+02  0.00000000000E+00 0. -1.
         -4   -1    0    0    0  501 -0.00000000000E+00 -0.00000000000E+00 -0.29339297053E+02  0.29339297053E+02  0.00000000000E+00 0.  1.
         23    2    1    2    0    0  0.00000000000E+00  0.00000000000E+00  0.69427972603E+02  0.12810656671E+03  0.10766173440E+03 0.  0.
        -13    1    3    3    0    0 -0.19317983646E+02  0.34239878535E+02  0.78469405536E+02  0.87766744154E+02  0.00000000000E+00 0. -1.
         13    1    3    3    0    0  0.19317983646E+02 -0.34239878535E+02 -0.90414329337E+01  0.40339822555E+02  0.00000000000E+00 0.  1.
<mgrwt>
<rscale>  0 0.10766173E+03</rscale>
<asrwt>0</asrwt>
<pdfrwt beam="1">  1        4 0.15194964E-01 0.10766173E+03</pdfrwt>
<pdfrwt beam="2">  1       -4 0.45137381E-02 0.10766173E+03</pdfrwt>
<totfact> 0.15763131E+04</totfact>
</mgrwt>
</event>
<event>
 5    1  0.6079230E+000  0.9025225E+02  0.7546771E-02  0.1302242E+00
          3   -1    0    0  501    0  0.00000000000E+00  0.00000000000E+00  0.24209712769E+02  0.24209712769E+02  0.00000000000E+00 0. -1.
         -3   -1    0    0    0  501 -0.00000000000E+00 -0.00000000000E+00 -0.84113641411E+02  0.84113641411E+02  0.00000000000E+00 0.  1.
         23    2    1    2    0    0  0.00000000000E+00  0.00000000000E+00 -0.59903928642E+02  0.10832335418E+03  0.90252248692E+02 0.  0.
        -13    1    3    3    0    0  0.25344843527E+02 -0.30543749575E+02 -0.55724356873E+02  0.68414075163E+02  0.00000000000E+00 0.  1.
         13    1    3    3    0    0 -0.25344843527E+02  0.30543749575E+02 -0.41795717693E+01  0.39909279017E+02  0.00000000000E+00 0. -1.
<mgrwt>
<rscale>  0 0.90252249E+02</rscale>
<asrwt>0</asrwt>
<pdfrwt beam="1">  1        3 0.37245712E-02 0.90252249E+02</pdfrwt>
<pdfrwt beam="2">  1       -3 0.12940560E-01 0.90252249E+02</pdfrwt>
<totfact> 0.35021883E+04</totfact>
</mgrwt>
</event>
<event>
 4    1  0.6079230E+000  0.3391714E+02  0.7546771E-02  0.1558432E+00
         -1   -1    0    0    0  501 -0.00000000000E+00  0.00000000000E+00  0.24663619890E+01  0.24663619890E+01  0.00000000000E+00 0.  1.
          1   -1    0    0  501    0  0.00000000000E+00 -0.00000000000E+00 -0.11660622843E+03  0.11660622843E+03  0.00000000000E+00 0. -1.
        -13    1    1    2    0    0 -0.16473484937E+02 -0.39430302270E+01 -0.59943505933E+02  0.62290826748E+02  0.00000000000E+00 0. -1.
         13    1    1    2    0    0  0.16473484937E+02  0.39430302270E+01 -0.54196360511E+02  0.56781763675E+02  0.00000000000E+00 0.  1.
<mgrwt>
<rscale>  0 0.33917144E+02</rscale>
<asrwt>0</asrwt>
<pdfrwt beam="2">  1        1 0.17939424E-01 0.33917144E+02</pdfrwt>
<pdfrwt beam="1">  1       -1 0.37944022E-03 0.33917144E+02</pdfrwt>
<totfact> 0.13388227E+06</totfact>
</mgrwt>
</event>
<event>
 5    1  0.6079230E+000  0.9338839E+02  0.7546771E-02  0.1294848E+00
          3   -1    0    0  501    0  0.00000000000E+00  0.00000000000E+00  0.45530538508E+02  0.45530538508E+02  0.00000000000E+00 0. -1.
         -3   -1    0    0    0  501 -0.00000000000E+00 -0.00000000000E+00 -0.47887592420E+02  0.47887592420E+02  0.00000000000E+00 0.  1.
         23    2    1    2    0    0  0.00000000000E+00  0.00000000000E+00 -0.23570539128E+01  0.93418130928E+02  0.93388390515E+02 0.  0.
        -13    1    3    3    0    0  0.18555562240E+02  0.11061344737E+02 -0.42588396381E+02  0.47753887211E+02  0.00000000000E+00 0.  1.
         13    1    3    3    0    0 -0.18555562240E+02 -0.11061344737E+02  0.40231342469E+02  0.45664243717E+02  0.00000000000E+00 0. -1.
<mgrwt>
<rscale>  0 0.93388391E+02</rscale>
<asrwt>0</asrwt>
<pdfrwt beam="1">  1        3 0.70046982E-02 0.93388391E+02</pdfrwt>
<pdfrwt beam="2">  1       -3 0.73673220E-02 0.93388391E+02</pdfrwt>
<totfact> 0.32937863E+04</totfact>
</mgrwt>
</event>
<event>
 5    1  0.6079230E+000  0.9012043E+02  0.7546771E-02  0.1302560E+00
         -1   -1    0    0    0  501 -0.00000000000E+00  0.00000000000E+00  0.23516103419E+03  0.23516103419E+03  0.00000000000E+00 0.  1.
          1   -1    0    0  501    0  0.00000000000E+00 -0.00000000000E+00 -0.86341817181E+01  0.86341817181E+01  0.00000000000E+00 0. -1.
         23    2    1    2    0    0  0.00000000000E+00  0.00000000000E+00  0.22652685247E+03  0.24379521591E+03  0.90120432805E+02 0.  0.
        -13    1    3    3    0    0  0.43405421801E+02 -0.87056387720E+01  0.90532479240E+02  0.10077672641E+03  0.00000000000E+00 0. -1.
         13    1    3    3    0    0 -0.43405421801E+02  0.87056387720E+01  0.13599437323E+03  0.14301848950E+03  0.00000000000E+00 0.  1.
<mgrwt>
<rscale>  0 0.90120433E+02</rscale>
<asrwt>0</asrwt>
<pdfrwt beam="2">  1        1 0.13283358E-02 0.90120433E+02</pdfrwt>
<pdfrwt beam="1">  1       -1 0.36178616E-01 0.90120433E+02</pdfrwt>
<totfact> 0.68128529E+04</totfact>
</mgrwt>
</event>
<event>
 5    1  0.6079230E+000  0.9098300E+02  0.7546771E-02  0.1300489E+00
         -1   -1    0    0    0  501 -0.00000000000E+00  0.00000000000E+00  0.17028016707E+02  0.17028016707E+02  0.00000000000E+00 0.  1.
          1   -1    0    0  501    0  0.00000000000E+00 -0.00000000000E+00 -0.12153361565E+03  0.12153361565E+03  0.00000000000E+00 0. -1.
         23    2    1    2    0    0  0.00000000000E+00  0.00000000000E+00 -0.10450559894E+03  0.13856163236E+03  0.90982997044E+02 0.  0.
        -13    1    3    3    0    0 -0.33848363761E+02 -0.24613924388E+02 -0.25098331945E+02  0.48800443333E+02  0.00000000000E+00 0.  1.
         13    1    3    3    0    0  0.33848363761E+02  0.24613924388E+02 -0.79407266997E+02  0.89761189024E+02  0.00000000000E+00 0. -1.
<mgrwt>
<rscale>  0 0.90982997E+02</rscale>
<asrwt>0</asrwt>
<pdfrwt beam="2">  1        1 0.18697479E-01 0.90982997E+02</pdfrwt>
<pdfrwt beam="1">  1       -1 0.26196949E-02 0.90982997E+02</pdfrwt>
<totfact> 0.10860220E+05</totfact>
</mgrwt>
</event>
<event>
 5    1  0.6079230E+000  0.9118027E+02  0.7546771E-02  0.1300018E+00
         -2   -1    0    0    0  501 -0.00000000000E+00  0.00000000000E+00  0.60478611099E+01  0.60478611099E+01  0.00000000000E+00 0.  1.
          2   -1    0    0  501    0  0.00000000000E+00 -0.00000000000E+00 -0.34366865332E+03  0.34366865332E+03  0.00000000000E+00 0. -1.
         23    2    1    2    0    0  0.00000000000E+00  0.00000000000E+00 -0.33762079221E+03  0.34971651442E+03  0.91180267231E+02 0.  0.
        -13    1    3    3    0    0 -0.32482415969E+02 -0.31460512377E+02 -0.14658167669E+03  0.15339836742E+03  0.00000000000E+00 0.  1.
         13    1    3    3    0    0  0.32482415969E+02  0.31460512377E+02 -0.19103911551E+03  0.19631814700E+03  0.00000000000E+00 0. -1.
<mgrwt>
<rscale>  0 0.91180267E+02</rscale>
<asrwt>0</asrwt>
<pdfrwt beam="2">  1        2 0.52872111E-01 0.91180267E+02</pdfrwt>
<pdfrwt beam="1">  1       -2 0.93043998E-03 0.91180267E+02</pdfrwt>
<totfact> 0.18890959E+05</totfact>
</mgrwt>
</event>
<event>
 5    1  0.6079230E+000  0.8721528E+02  0.7546771E-02  0.1309739E+00
          4   -1    0    0  501    0  0.00000000000E+00  0.00000000000E+00  0.96419334135E+01  0.96419334135E+01  0.00000000000E+00 0. -1.
         -4   -1    0    0    0  501 -0.00000000000E+00 -0.00000000000E+00 -0.19722458533E+03  0.19722458533E+03  0.00000000000E+00 0.  1.
         23    2    1    2    0    0  0.00000000000E+00  0.00000000000E+00 -0.18758265192E+03  0.20686651875E+03  0.87215281213E+02 0.  0.
        -13    1    3    3    0    0  0.23298147175E+02 -0.31019694046E+02 -0.14102749343E+03  0.14626612385E+03  0.00000000000E+00 0.  1.
         13    1    3    3    0    0 -0.23298147175E+02  0.31019694046E+02 -0.46555158484E+02  0.60600394900E+02  0.00000000000E+00 0. -1.
<mgrwt>
<rscale>  0 0.87215281E+02</rscale>
<asrwt>0</asrwt>
<pdfrwt beam="1">  1        4 0.14833745E-02 0.87215281E+02</pdfrwt>
<pdfrwt beam="2">  1       -4 0.30342240E-01 0.87215281E+02</pdfrwt>
<totfact> 0.23752698E+04</totfact>
</mgrwt>
</event>
<event>
 5    1  0.6079230E+000  0.9754490E+02  0.7546771E-02  0.1285545E+00
          3   -1    0    0  501    0  0.00000000000E+00  0.00000000000E+00  0.17656139877E+03  0.17656139877E+03  0.00000000000E+00 0. -1.
         -3   -1    0    0    0  501 -0.00000000000E+00 -0.00000000000E+00 -0.13472662271E+02  0.13472662271E+02  0.00000000000E+00 0.  1.
         23    2    1    2    0    0  0.00000000000E+00  0.00000000000E+00  0.16308873649E+03  0.19003406104E+03  0.97544904442E+02 0.  0.
        -13    1    3    3    0    0 -0.21287013541E+02  0.39865991583E+02  0.11727180265E+03  0.12567859773E+03  0.00000000000E+00 0. -1.
         13    1    3    3    0    0  0.21287013541E+02 -0.39865991583E+02  0.45816933842E+02  0.64355463305E+02  0.00000000000E+00 0.  1.
<mgrwt>
<rscale>  0 0.97544904E+02</rscale>
<asrwt>0</asrwt>
<pdfrwt beam="1">  1        3 0.27163290E-01 0.97544904E+02</pdfrwt>
<pdfrwt beam="2">  1       -3 0.20727174E-02 0.97544904E+02</pdfrwt>
<totfact> 0.24163925E+04</totfact>
</mgrwt>
</event>
<event>
 5    1  0.6079230E+000  0.8784151E+02  0.7546771E-02  0.1308165E+00
          2   -1    0    0  501    0  0.00000000000E+00  0.00000000000E+00  0.20069717558E+03  0.20069717558E+03  0.00000000000E+00 0.  1.
         -2   -1    0    0    0  501 -0.00000000000E+00 -0.00000000000E+00 -0.96116580882E+01  0.96116580882E+01  0.00000000000E+00 0. -1.
         23    2    1    2    0    0  0.00000000000E+00  0.00000000000E+00  0.19108551749E+03  0.21030883367E+03  0.87841507977E+02 0.  0.
        -13    1    3    3    0    0 -0.30013635141E+02  0.94328409741E+01  0.22168274410E+02  0.38486740230E+02  0.00000000000E+00 0. -1.
         13    1    3    3    0    0  0.30013635141E+02 -0.94328409741E+01  0.16891724308E+03  0.17182209344E+03  0.00000000000E+00 0.  1.
<mgrwt>
<rscale>  0 0.87841508E+02</rscale>
<asrwt>0</asrwt>
<pdfrwt beam="1">  1        2 0.30876485E-01 0.87841508E+02</pdfrwt>
<pdfrwt beam="2">  1       -2 0.14787168E-02 0.87841508E+02</pdfrwt>
<totfact> 0.17116923E+05</totfact>
</mgrwt>
</event>
<event>
 5    1  0.6079230E+000  0.9121673E+02  0.7546771E-02  0.1299932E+00
          4   -1    0    0  501    0  0.00000000000E+00  0.00000000000E+00  0.66768707197E+02  0.66768707197E+02  0.00000000000E+00 0. -1.
         -4   -1    0    0    0  501 -0.00000000000E+00 -0.00000000000E+00 -0.31154161799E+02  0.31154161799E+02  0.00000000000E+00 0.  1.
         23    2    1    2    0    0  0.00000000000E+00  0.00000000000E+00  0.35614545398E+02  0.97922868996E+02  0.91216733271E+02 0.  0.
        -13    1    3    3    0    0  0.20261356776E+02  0.40755608706E+02  0.20951947383E+02  0.50105152615E+02  0.00000000000E+00 0.  1.
         13    1    3    3    0    0 -0.20261356776E+02 -0.40755608706E+02  0.14662598015E+02  0.47817716382E+02  0.00000000000E+00 0. -1.
<mgrwt>
<rscale>  0 0.91216733E+02</rscale>
<asrwt>0</asrwt>
<pdfrwt beam="1">  1        4 0.10272109E-01 0.91216733E+02</pdfrwt>
<pdfrwt beam="2">  1       -4 0.47929480E-02 0.91216733E+02</pdfrwt>
<totfact> 0.26555866E+04</totfact>
</mgrwt>
</event>
<event>
 5    1  0.6079230E+000  0.8864452E+02  0.7546771E-02  0.1306168E+00
          1   -1    0    0  501    0  0.00000000000E+00  0.00000000000E+00  0.17231431691E+03  0.17231431691E+03  0.00000000000E+00 0. -1.
         -1   -1    0    0    0  501 -0.00000000000E+00 -0.00000000000E+00 -0.11400460626E+02  0.11400460626E+02  0.00000000000E+00 0.  1.
         23    2    1    2    0    0  0.00000000000E+00  0.00000000000E+00  0.16091385628E+03  0.18371477754E+03  0.88644516701E+02 0.  0.
        -13    1    3    3    0    0  0.31531694873E+02 -0.29433510195E+02  0.59333468747E+02  0.73355571142E+02  0.00000000000E+00 0.  1.
         13    1    3    3    0    0 -0.31531694873E+02  0.29433510195E+02  0.10158038754E+03  0.11035920639E+03  0.00000000000E+00 0. -1.
<mgrwt>
<rscale>  0 0.88644517E+02</rscale>
<asrwt>0</asrwt>
<pdfrwt beam="1">  1        1 0.26509893E-01 0.88644517E+02</pdfrwt>
<pdfrwt beam="2">  1       -1 0.17539171E-02 0.88644517E+02</pdfrwt>
<totfact> 0.12410252E+05</totfact>
</mgrwt>
</event>
<event>
 5    1  0.6079230E+000  0.9184152E+02  0.7546771E-02  0.1298452E+00
          3   -1    0    0  501    0  0.00000000000E+00  0.00000000000E+00  0.55466991583E+02  0.55466991583E+02  0.00000000000E+00 0. -1.
         -3   -1    0    0    0  501 -0.00000000000E+00 -0.00000000000E+00 -0.38017500212E+02  0.38017500212E+02  0.00000000000E+00 0.  1.
         23    2    1    2    0    0  0.00000000000E+00  0.00000000000E+00  0.17449491371E+02  0.93484491795E+02  0.91841523600E+02 0.  0.
        -13    1    3    3    0    0 -0.31439426700E+02 -0.31341648217E+02 -0.32318737040E+01  0.44510464745E+02  0.00000000000E+00 0.  1.
         13    1    3    3    0    0  0.31439426700E+02  0.31341648217E+02  0.20681365075E+02  0.48974027050E+02  0.00000000000E+00 0. -1.
<mgrwt>
<rscale>  0 0.91841524E+02</rscale>
<asrwt>0</asrwt>
<pdfrwt beam="1">  1        3 0.85333833E-02 0.91841524E+02</pdfrwt>
<pdfrwt beam="2">  1       -3 0.58488462E-02 0.91841524E+02</pdfrwt>
<totfact> 0.34471865E+04</totfact>
</mgrwt>
</event>
<event>
 5    1  0.6079230E+000  0.9115458E+02  0.7546771E-02  0.1300080E+00
         -1   -1    0    0    0  501 -0.00000000000E+00  0.00000000000E+00  0.10417934496E+03  0.10417934496E+03  0.00000000000E+00 0.  1.
          1   -1    0    0  501    0  0.00000000000E+00 -0.00000000000E+00 -0.19939549655E+02  0.19939549655E+02  0.00000000000E+00 0. -1.
         23    2    1    2    0    0  0.00000000000E+00  0.00000000000E+00  0.84239795309E+02  0.12411889462E+03  0.91154576888E+02 0.  0.
        -13    1    3    3    0    0 -0.27982790156E+02  0.80665946762E+01  0.89858274017E+02  0.94459599321E+02  0.00000000000E+00 0.  1.
         13    1    3    3    0    0  0.27982790156E+02 -0.80665946762E+01 -0.56184787076E+01  0.29659295298E+02  0.00000000000E+00 0. -1.
<mgrwt>
<rscale>  0 0.91154577E+02</rscale>
<asrwt>0</asrwt>
<pdfrwt beam="2">  1        1 0.30676231E-02 0.91154577E+02</pdfrwt>
<pdfrwt beam="1">  1       -1 0.16027591E-01 0.91154577E+02</pdfrwt>
<totfact> 0.80798155E+04</totfact>
</mgrwt>
</event>
<event>
 5    1  0.6079230E+000  0.9266457E+02  0.7546771E-02  0.1296524E+00
         -1   -1    0    0    0  501 -0.00000000000E+00  0.00000000000E+00  0.44624229229E+02  0.44624229229E+02  0.00000000000E+00 0.  1.
          1   -1    0    0  501    0  0.00000000000E+00 -0.00000000000E+00 -0.48105716113E+02  0.48105716113E+02  0.00000000000E+00 0. -1.
         23    2    1    2    0    0  0.00000000000E+00  0.00000000000E+00 -0.34814868841E+01  0.92729945343E+02  0.92664567189E+02 0.  0.
        -13    1    3    3    0    0 -0.35598124137E+02 -0.25034049569E+02 -0.17650086542E+02  0.46962278850E+02  0.00000000000E+00 0. -1.
         13    1    3    3    0    0  0.35598124137E+02  0.25034049569E+02  0.14168599658E+02  0.45767666492E+02  0.00000000000E+00 0.  1.
<mgrwt>
<rscale>  0 0.92664567E+02</rscale>
<asrwt>0</asrwt>
<pdfrwt beam="2">  1        1 0.74008794E-02 0.92664567E+02</pdfrwt>
<pdfrwt beam="1">  1       -1 0.68652661E-02 0.92664567E+02</pdfrwt>
<totfact> 0.89082304E+04</totfact>
</mgrwt>
</event>
<event>
 5    1  0.6079230E+000  0.9381709E+02  0.7546771E-02  0.1293863E+00
          1   -1    0    0  501    0  0.00000000000E+00  0.00000000000E+00  0.34232474272E+02  0.34232474272E+02  0.00000000000E+00 0. -1.
         -1   -1    0    0    0  501 -0.00000000000E+00 -0.00000000000E+00 -0.64278489326E+02  0.64278489326E+02  0.00000000000E+00 0.  1.
         23    2    1    2    0    0  0.00000000000E+00  0.00000000000E+00 -0.30046015054E+02  0.98510963598E+02  0.93817092943E+02 0.  0.
        -13    1    3    3    0    0  0.23720873498E+02 -0.30301669740E+02 -0.43189338541E+02  0.57846261695E+02  0.00000000000E+00 0.  1.
         13    1    3    3    0    0 -0.23720873498E+02  0.30301669740E+02  0.13143323487E+02  0.40664701902E+02  0.00000000000E+00 0. -1.
<mgrwt>
<rscale>  0 0.93817093E+02</rscale>
<asrwt>0</asrwt>
<pdfrwt beam="1">  1        1 0.52665345E-02 0.93817093E+02</pdfrwt>
<pdfrwt beam="2">  1       -1 0.98889983E-02 0.93817093E+02</pdfrwt>
<totfact> 0.81580764E+04</totfact>
</mgrwt>
</event>
<event>
 5    1  0.6079230E+000  0.9075162E+02  0.7546771E-02  0.1301042E+00
         -2   -1    0    0    0  501 -0.00000000000E+00  0.00000000000E+00  0.20257171217E+02  0.20257171217E+02  0.00000000000E+00 0.  1.
          2   -1    0    0  501    0  0.00000000000E+00 -0.00000000000E+00 -0.10164124170E+03  0.10164124170E+03  0.00000000000E+00 0. -1.
         23    2    1    2    0    0  0.00000000000E+00  0.00000000000E+00 -0.81384070480E+02  0.12189841291E+03  0.90751617854E+02 0.  0.
        -13    1    3    3    0    0  0.29754957675E+02 -0.27553903045E+01 -0.86558537613E+02  0.91571448146E+02  0.00000000000E+00 0. -1.
         13    1    3    3    0    0 -0.29754957675E+02  0.27553903045E+01  0.51744671324E+01  0.30326964768E+02  0.00000000000E+00 0.  1.
<mgrwt>
<rscale>  0 0.90751618E+02</rscale>
<asrwt>0</asrwt>
<pdfrwt beam="2">  1        2 0.15637114E-01 0.90751618E+02</pdfrwt>
<pdfrwt beam="1">  1       -2 0.31164879E-02 0.90751618E+02</pdfrwt>
<totfact> 0.12488200E+05</totfact>
</mgrwt>
</event>
<event>
 5    1  0.6079230E+000  0.9119224E+02  0.7546771E-02  0.1299990E+00
         -4   -1    0    0    0  501 -0.00000000000E+00  0.00000000000E+00  0.30226564378E+03  0.30226564378E+03  0.00000000000E+00 0.  1.
          4   -1    0    0  501    0  0.00000000000E+00 -0.00000000000E+00 -0.68780757691E+01  0.68780757691E+01  0.00000000000E+00 0. -1.
         23    2    1    2    0    0  0.00000000000E+00  0.00000000000E+00  0.29538756802E+03  0.30914371955E+03  0.91192236519E+02 0.  0.
        -13    1    3    3    0    0  0.44622433382E+02 -0.66256968881E+01  0.17016648227E+03  0.17604457705E+03  0.00000000000E+00 0. -1.
         13    1    3    3    0    0 -0.44622433382E+02  0.66256968881E+01  0.12522108575E+03  0.13309914251E+03  0.00000000000E+00 0.  1.
<mgrwt>
<rscale>  0 0.91192237E+02</rscale>
<asrwt>0</asrwt>
<pdfrwt beam="2">  1        4 0.10581657E-02 0.91192237E+02</pdfrwt>
<pdfrwt beam="1">  1       -4 0.46502396E-01 0.91192237E+02</pdfrwt>
<totfact> 0.17536939E+04</totfact>
</mgrwt>
</event>
<event>
 5    1  0.6079230E+000  0.8693886E+02  0.7546771E-02  0.1310439E+00
         -1   -1    0    0    0  501 -0.00000000000E+00  0.00000000000E+00  0.67327434902E+01  0.67327434902E+01  0.00000000000E+00 0.  1.
          1   -1    0    0  501    0  0.00000000000E+00 -0.00000000000E+00 -0.28065699538E+03  0.28065699538E+03  0.00000000000E+00 0. -1.
         23    2    1    2    0    0  0.00000000000E+00  0.00000000000E+00 -0.27392425189E+03  0.28738973887E+03  0.86938864924E+02 0.  0.
        -13    1    3    3    0    0 -0.27743040925E+02 -0.33419689476E+02 -0.14272534452E+03  0.14918805560E+03  0.00000000000E+00 0.  1.
         13    1    3    3    0    0  0.27743040925E+02  0.33419689476E+02 -0.13119890737E+03  0.13820168327E+03  0.00000000000E+00 0. -1.
<mgrwt>
<rscale>  0 0.86938865E+02</rscale>
<asrwt>0</asrwt>
<pdfrwt beam="2">  1        1 0.43177992E-01 0.86938865E+02</pdfrwt>
<pdfrwt beam="1">  1       -1 0.10358069E-02 0.86938865E+02</pdfrwt>
<totfact> 0.14355551E+05</totfact>
</mgrwt>
</event>
<event>
 5    1  0.6079230E+000  0.8929540E+02  0.7546771E-02  0.1304567E+00
          2   -1    0    0  501    0  0.00000000000E+00  0.00000000000E+00  0.29999159337E+03  0.29999159337E+03  0.00000000000E+00 0. -1.
         -2   -1    0    0    0  501 -0.00000000000E+00 -0.00000000000E+00 -0.66449102602E+01  0.66449102602E+01  0.00000000000E+00 0.  1.
         23    2    1    2    0    0  0.00000000000E+00  0.00000000000E+00  0.29334668311E+03  0.30663650363E+03  0.89295402273E+02 0.  0.
        -13    1    3    3    0    0 -0.43157820923E+02 -0.40228537070E+01  0.18344015116E+03  0.18849156458E+03  0.00000000000E+00 0. -1.
         13    1    3    3    0    0  0.43157820923E+02  0.40228537070E+01  0.10990653195E+03  0.11814493905E+03  0.00000000000E+00 0.  1.
<mgrwt>
<rscale>  0 0.89295402E+02</rscale>
<asrwt>0</asrwt>
<pdfrwt beam="1">  1        2 0.46152542E-01 0.89295402E+02</pdfrwt>
<pdfrwt beam="2">  1       -2 0.10222941E-02 0.89295402E+02</pdfrwt>
<totfact> 0.18991874E+05</totfact>
</mgrwt>
</event>
<event>
 5    1  0.6079230E+000  0.9061614E+02  0.7546771E-02  0.1301366E+00
         -1   -1    0    0    0  501 -0.00000000000E+00  0.00000000000E+00  0.15170541869E+03  0.15170541869E+03  0.00000000000E+00 0.  1.
          1   -1    0    0  501    0  0.00000000000E+00 -0.00000000000E+00 -0.13531628876E+02  0.13531628876E+02  0.00000000000E+00 0. -1.
         23    2    1    2    0    0  0.00000000000E+00  0.00000000000E+00  0.13817378982E+03  0.16523704757E+03  0.90616144793E+02 0.  0.
        -13    1    3    3    0    0 -0.39935736906E+02  0.21358492359E+02  0.66658752720E+02  0.80588073511E+02  0.00000000000E+00 0.  1.
         13    1    3    3    0    0  0.39935736906E+02 -0.21358492359E+02  0.71515037096E+02  0.84648974057E+02  0.00000000000E+00 0. -1.
<mgrwt>
<rscale>  0 0.90616145E+02</rscale>
<asrwt>0</asrwt>
<pdfrwt beam="2">  1        1 0.20817892E-02 0.90616145E+02</pdfrwt>
<pdfrwt beam="1">  1       -1 0.23339294E-01 0.90616145E+02</pdfrwt>
<totfact> 0.75793381E+04</totfact>
</mgrwt>
</event>
<event>
 4    1  0.6079230E+000  0.3006762E+03  0.7546771E-02  0.1084903E+00
          3   -1    0    0  501    0  0.00000000000E+00  0.00000000000E+00  0.23402533559E+03  0.23402533559E+03  0.00000000000E+00 0. -1.
         -3   -1    0    0    0  501 -0.00000000000E+00 -0.00000000000E+00 -0.96577313608E+02  0.96577313608E+02  0.00000000000E+00 0.  1.
        -13    1    1    2    0    0 -0.18147505313E+02  0.14231534044E+03  0.11812402900E+03  0.18583937769E+03  0.00000000000E+00 0.  1.
         13    1    1    2    0    0  0.18147505313E+02 -0.14231534044E+03  0.19323992982E+02  0.14476327151E+03  0.00000000000E+00 0. -1.
<mgrwt>
<rscale>  0 0.30067616E+03</rscale>
<asrwt>0</asrwt>
<pdfrwt beam="1">  1        3 0.36003898E-01 0.30067616E+03</pdfrwt>
<pdfrwt beam="2">  1       -3 0.14858048E-01 0.30067616E+03</pdfrwt>
<totfact> 0.73597856E+02</totfact>
</mgrwt>
</event>
<event>
 5    1  0.6079230E+000  0.9072240E+02  0.7546771E-02  0.1301112E+00
         -2   -1    0    0    0  501 -0.00000000000E+00  0.00000000000E+00  0.78032921676E+02  0.78032921676E+02  0.00000000000E+00 0.  1.
          2   -1    0    0  501    0  0.00000000000E+00 -0.00000000000E+00 -0.26368851358E+02  0.26368851358E+02  0.00000000000E+00 0. -1.
         23    2    1    2    0    0  0.00000000000E+00  0.00000000000E+00  0.51664070318E+02  0.10440177303E+03  0.90722401041E+02 0.  0.
        -13    1    3    3    0    0  0.15883974500E+02 -0.28924361147E+02  0.61649289605E+02  0.69925347496E+02  0.00000000000E+00 0.  1.
         13    1    3    3    0    0 -0.15883974500E+02  0.28924361147E+02 -0.99852192866E+01  0.34476425538E+02  0.00000000000E+00 0. -1.
<mgrwt>
<rscale>  0 0.90722401E+02</rscale>
<asrwt>0</asrwt>
<pdfrwt beam="2">  1        2 0.40567464E-02 0.90722401E+02</pdfrwt>
<pdfrwt beam="1">  1       -2 0.12005065E-01 0.90722401E+02</pdfrwt>
<totfact> 0.86719837E+04</totfact>
</mgrwt>
</event>
<event>
 5    1  0.6079230E+000  0.8841386E+02  0.7546771E-02  0.1306739E+00
         -1   -1    0    0    0  501 -0.00000000000E+00  0.00000000000E+00  0.32405366345E+02  0.32405366345E+02  0.00000000000E+00 0.  1.
          1   -1    0    0  501    0  0.00000000000E+00 -0.00000000000E+00 -0.60306446017E+02  0.60306446017E+02  0.00000000000E+00 0. -1.
         23    2    1    2    0    0  0.00000000000E+00  0.00000000000E+00 -0.27901079672E+02  0.92711812361E+02  0.88413855840E+02 0.  0.
        -13    1    3    3    0    0 -0.39801011195E+02  0.22986526177E+01 -0.33980073222E+02  0.52383677535E+02  0.00000000000E+00 0. -1.
         13    1    3    3    0    0  0.39801011195E+02 -0.22986526177E+01  0.60789935496E+01  0.40328134826E+02  0.00000000000E+00 0.  1.
<mgrwt>
<rscale>  0 0.88413856E+02</rscale>
<asrwt>0</asrwt>
<pdfrwt beam="2">  1        1 0.92779148E-02 0.88413856E+02</pdfrwt>
<pdfrwt beam="1">  1       -1 0.49854410E-02 0.88413856E+02</pdfrwt>
<totfact> 0.10500944E+05</totfact>
</mgrwt>
</event>
<event>
 5    1  0.6079230E+000  0.9089469E+02  0.7546771E-02  0.1300699E+00
         -1   -1    0    0    0  501 -0.00000000000E+00  0.00000000000E+00  0.23227986173E+02  0.23227986173E+02  0.00000000000E+00 0.  1.
          1   -1    0    0  501    0  0.00000000000E+00 -0.00000000000E+00 -0.88921230739E+02  0.88921230739E+02  0.00000000000E+00 0. -1.
         23    2    1    2    0    0  0.00000000000E+00  0.00000000000E+00 -0.65693244566E+02  0.11214921691E+03  0.90894688912E+02 0.  0.
        -13    1    3    3    0    0  0.17282938359E+02 -0.41821794188E+02 -0.38037350709E+02  0.59115162829E+02  0.00000000000E+00 0. -1.
         13    1    3    3    0    0 -0.17282938359E+02  0.41821794188E+02 -0.27655893857E+02  0.53034054083E+02  0.00000000000E+00 0.  1.
<mgrwt>
<rscale>  0 0.90894689E+02</rscale>
<asrwt>0</asrwt>
<pdfrwt beam="2">  1        1 0.13680189E-01 0.90894689E+02</pdfrwt>
<pdfrwt beam="1">  1       -1 0.35735364E-02 0.90894689E+02</pdfrwt>
<totfact> 0.10333234E+05</totfact>
</mgrwt>
</event>
<event>
 5    1  0.6079230E+000  0.9215401E+02  0.7546771E-02  0.1297718E+00
         -1   -1    0    0    0  501 -0.00000000000E+00  0.00000000000E+00  0.82672694791E+02  0.82672694791E+02  0.00000000000E+00 0.  1.
          1   -1    0    0  501    0  0.00000000000E+00 -0.00000000000E+00 -0.25680673304E+02  0.25680673304E+02  0.00000000000E+00 0. -1.
         23    2    1    2    0    0  0.00000000000E+00  0.00000000000E+00  0.56992021487E+02  0.10835336810E+03  0.92154011657E+02 0.  0.
        -13    1    3    3    0    0 -0.27286576023E+02 -0.17910833106E+01  0.72100467377E+02  0.77111883692E+02  0.00000000000E+00 0.  1.
         13    1    3    3    0    0  0.27286576023E+02  0.17910833106E+01 -0.15108445890E+02  0.31241484403E+02  0.00000000000E+00 0. -1.
<mgrwt>
<rscale>  0 0.92154012E+02</rscale>
<asrwt>0</asrwt>
<pdfrwt beam="2">  1        1 0.39508728E-02 0.92154012E+02</pdfrwt>
<pdfrwt beam="1">  1       -1 0.12718876E-01 0.92154012E+02</pdfrwt>
<totfact> 0.81907915E+04</totfact>
</mgrwt>
</event>
<event>
 5    1  0.6079230E+000  0.9075627E+02  0.7546771E-02  0.1301031E+00
          2   -1    0    0  501    0  0.00000000000E+00  0.00000000000E+00  0.62965710246E+02  0.62965710246E+02  0.00000000000E+00 0. -1.
         -2   -1    0    0    0  501 -0.00000000000E+00 -0.00000000000E+00 -0.32703118729E+02  0.32703118729E+02  0.00000000000E+00 0.  1.
         23    2    1    2    0    0  0.00000000000E+00  0.00000000000E+00  0.30262591518E+02  0.95668828975E+02  0.90756269161E+02 0.  0.
        -13    1    3    3    0    0  0.46964187118E+01  0.18596000468E+02 -0.28220302460E+02  0.34121152575E+02  0.00000000000E+00 0.  1.
         13    1    3    3    0    0 -0.46964187118E+01 -0.18596000468E+02  0.58482893978E+02  0.61547676400E+02  0.00000000000E+00 0. -1.
<mgrwt>
<rscale>  0 0.90756269E+02</rscale>
<asrwt>0</asrwt>
<pdfrwt beam="1">  1        2 0.96870323E-02 0.90756269E+02</pdfrwt>
<pdfrwt beam="2">  1       -2 0.50312491E-02 0.90756269E+02</pdfrwt>
<totfact> 0.10886336E+05</totfact>
</mgrwt>
</event>
<event>
 5    1  0.6079230E+000  0.9208820E+02  0.7546771E-02  0.1297872E+00
         -2   -1    0    0    0  501 -0.00000000000E+00  0.00000000000E+00  0.97833068322E+01  0.97833068322E+01  0.00000000000E+00 0.  1.
          2   -1    0    0  501    0  0.00000000000E+00 -0.00000000000E+00 -0.21670168960E+03  0.21670168960E+03  0.00000000000E+00 0. -1.
         23    2    1    2    0    0  0.00000000000E+00  0.00000000000E+00 -0.20691838277E+03  0.22648499644E+03  0.92088199471E+02 0.  0.
        -13    1    3    3    0    0  0.37137402457E+02 -0.49207353909E+00 -0.17039156093E+03  0.17439241048E+03  0.00000000000E+00 0. -1.
         13    1    3    3    0    0 -0.37137402457E+02  0.49207353909E+00 -0.36526821844E+02  0.52092585957E+02  0.00000000000E+00 0.  1.
<mgrwt>
<rscale>  0 0.92088199E+02</rscale>
<asrwt>0</asrwt>
<pdfrwt beam="2">  1        2 0.33338721E-01 0.92088199E+02</pdfrwt>
<pdfrwt beam="1">  1       -2 0.15051241E-02 0.92088199E+02</pdfrwt>
<totfact> 0.15505221E+05</totfact>
</mgrwt>
</event>
<event>
 5    1  0.6079230E+000  0.9275184E+02  0.7546771E-02  0.1296321E+00
         -2   -1    0    0    0  501 -0.00000000000E+00  0.00000000000E+00  0.18611889255E+02  0.18611889255E+02  0.00000000000E+00 0.  1.
          2   -1    0    0  501    0  0.00000000000E+00 -0.00000000000E+00 -0.11555656330E+03  0.11555656330E+03  0.00000000000E+00 0. -1.
         23    2    1    2    0    0  0.00000000000E+00  0.00000000000E+00 -0.96944674047E+02  0.13416845256E+03  0.92751840065E+02 0.  0.
        -13    1    3    3    0    0 -0.23826491072E+02  0.30517747454E+02 -0.85399748221E+02  0.93766473660E+02  0.00000000000E+00 0. -1.
         13    1    3    3    0    0  0.23826491072E+02 -0.30517747454E+02 -0.11544925826E+02  0.40401978897E+02  0.00000000000E+00 0.  1.
<mgrwt>
<rscale>  0 0.92751840E+02</rscale>
<asrwt>0</asrwt>
<pdfrwt beam="2">  1        2 0.17777933E-01 0.92751840E+02</pdfrwt>
<pdfrwt beam="1">  1       -2 0.28633676E-02 0.92751840E+02</pdfrwt>
<totfact> 0.12242347E+05</totfact>
</mgrwt>
</event>
<event>
 5    1  0.6079230E+000  0.9192505E+02  0.7546771E-02  0.1298256E+00
         -3   -1    0    0    0  501 -0.00000000000E+00  0.00000000000E+00  0.64155329147E+01  0.64155329147E+01  0.00000000000E+00 0.  1.
          3   -1    0    0  501    0  0.00000000000E+00 -0.00000000000E+00 -0.32928734469E+03  0.32928734469E+03  0.00000000000E+00 0. -1.
         23    2    1    2    0    0  0.00000000000E+00  0.00000000000E+00 -0.32287181178E+03  0.33570287761E+03  0.91925052043E+02 0.  0.
        -13    1    3    3    0    0  0.35833593814E+02 -0.19840375302E+02 -0.23759106610E+03  0.24109583495E+03  0.00000000000E+00 0. -1.
         13    1    3    3    0    0 -0.35833593814E+02  0.19840375302E+02 -0.85280745679E+02  0.94607042662E+02  0.00000000000E+00 0.  1.
<mgrwt>
<rscale>  0 0.91925052E+02</rscale>
<asrwt>0</asrwt>
<pdfrwt beam="2">  1        3 0.50659600E-01 0.91925052E+02</pdfrwt>
<pdfrwt beam="1">  1       -3 0.98700491E-03 0.91925052E+02</pdfrwt>
<totfact> 0.22219601E+04</totfact>
</mgrwt>
</event>
<event>
 5    1  0.6079230E+000  0.9109208E+02  0.7546771E-02  0.1300228E+00
         -1   -1    0    0    0  501 -0.00000000000E+00  0.00000000000E+00  0.13884725896E+02  0.13884725896E+02  0.00000000000E+00 0. -1.
          1   -1    0    0  501    0  0.00000000000E+00 -0.00000000000E+00 -0.14940459447E+03  0.14940459447E+03  0.00000000000E+00 0.  1.
         23    2    1    2    0    0  0.00000000000E+00  0.00000000000E+00 -0.13551986858E+03  0.16328932037E+03  0.91092081804E+02 0.  0.
        -13    1    3    3    0    0 -0.45286246219E+02 -0.29629368055E+01 -0.60859396320E+02  0.75917647563E+02  0.00000000000E+00 0. -1.
         13    1    3    3    0    0  0.45286246219E+02  0.29629368055E+01 -0.74660472255E+02  0.87371672804E+02  0.00000000000E+00 0.  1.
<mgrwt>
<rscale>  0 0.91092082E+02</rscale>
<asrwt>0</asrwt>
<pdfrwt beam="2">  1        1 0.22985321E-01 0.91092082E+02</pdfrwt>
<pdfrwt beam="1">  1       -1 0.21361118E-02 0.91092082E+02</pdfrwt>
<totfact> 0.11233252E+05</totfact>
</mgrwt>
</event>
<event>
 4    1  0.6079230E+000  0.1795352E+03  0.7546771E-02  0.1168254E+00
          1   -1    0    0  501    0  0.00000000000E+00  0.00000000000E+00  0.78829122430E+02  0.78829122430E+02  0.00000000000E+00 0. -1.
         -1   -1    0    0    0  501 -0.00000000000E+00 -0.00000000000E+00 -0.10222395484E+03  0.10222395484E+03  0.00000000000E+00 0.  1.
        -13    1    1    2    0    0 -0.42964622291E+02 -0.51305239020E+02 -0.72036688475E+02  0.98323297372E+02  0.00000000000E+00 0.  1.
         13    1    1    2    0    0  0.42964622291E+02  0.51305239020E+02  0.48641856069E+02  0.82729779895E+02  0.00000000000E+00 0. -1.
<mgrwt>
<rscale>  0 0.17953523E+03</rscale>
<asrwt>0</asrwt>
<pdfrwt beam="1">  1        1 0.12127557E-01 0.17953523E+03</pdfrwt>
<pdfrwt beam="2">  1       -1 0.15726762E-01 0.17953523E+03</pdfrwt>
<totfact> 0.14085572E+04</totfact>
</mgrwt>
</event>
<event>
 5    1  0.6079230E+000  0.9310506E+02  0.7546771E-02  0.1295502E+00
         -2   -1    0    0    0  501 -0.00000000000E+00  0.00000000000E+00  0.62785343067E+02  0.62785343067E+02  0.00000000000E+00 0.  1.
          2   -1    0    0  501    0  0.00000000000E+00 -0.00000000000E+00 -0.34516622098E+02  0.34516622098E+02  0.00000000000E+00 0. -1.
         23    2    1    2    0    0  0.00000000000E+00  0.00000000000E+00  0.28268720969E+02  0.97301965164E+02  0.93105058078E+02 0.  0.
        -13    1    3    3    0    0  0.39672095073E+02 -0.63547526443E+01 -0.10438955040E+02  0.41511803032E+02  0.00000000000E+00 0. -1.
         13    1    3    3    0    0 -0.39672095073E+02  0.63547526443E+01  0.38707676009E+02  0.55790162132E+02  0.00000000000E+00 0.  1.
<mgrwt>
<rscale>  0 0.93105058E+02</rscale>
<asrwt>0</asrwt>
<pdfrwt beam="2">  1        2 0.53102496E-02 0.93105058E+02</pdfrwt>
<pdfrwt beam="1">  1       -2 0.96592835E-02 0.93105058E+02</pdfrwt>
<totfact> 0.86322601E+04</totfact>
</mgrwt>
</event>
<event>
 5    1  0.6079230E+000  0.8975589E+02  0.7546771E-02  0.1303444E+00
         -2   -1    0    0    0  501 -0.00000000000E+00  0.00000000000E+00  0.16016497210E+03  0.16016497210E+03  0.00000000000E+00 0.  1.
          2   -1    0    0  501    0  0.00000000000E+00 -0.00000000000E+00 -0.12574721487E+02  0.12574721487E+02  0.00000000000E+00 0. -1.
         23    2    1    2    0    0  0.00000000000E+00  0.00000000000E+00  0.14759025062E+03  0.17273969359E+03  0.89755889304E+02 0.  0.
        -13    1    3    3    0    0  0.29506661417E+02 -0.14170326753E+01  0.13881469697E+03  0.14192311702E+03  0.00000000000E+00 0.  1.
         13    1    3    3    0    0 -0.29506661417E+02  0.14170326753E+01  0.87755536415E+01  0.30816576567E+02  0.00000000000E+00 0. -1.
<mgrwt>
<rscale>  0 0.89755889E+02</rscale>
<asrwt>0</asrwt>
<pdfrwt beam="2">  1        2 0.19345726E-02 0.89755889E+02</pdfrwt>
<pdfrwt beam="1">  1       -2 0.24640764E-01 0.89755889E+02</pdfrwt>
<totfact> 0.70947517E+04</totfact>
</mgrwt>
</event>
<event>
 5    1  0.6079230E+000  0.9338274E+02  0.7546771E-02  0.1294861E+00
         -3   -1    0    0    0  501 -0.00000000000E+00  0.00000000000E+00  0.17117814455E+02  0.17117814455E+02  0.00000000000E+00 0.  1.
          3   -1    0    0  501    0  0.00000000000E+00 -0.00000000000E+00 -0.12735762774E+03  0.12735762774E+03  0.00000000000E+00 0. -1.
         23    2    1    2    0    0  0.00000000000E+00  0.00000000000E+00 -0.11023981328E+03  0.14447544219E+03  0.93382744466E+02 0.  0.
        -13    1    3    3    0    0 -0.33785006202E+02  0.31965211615E+02 -0.48762936162E+02  0.67387130380E+02  0.00000000000E+00 0.  1.
         13    1    3    3    0    0  0.33785006202E+02 -0.31965211615E+02 -0.61476877122E+02  0.77088311814E+02  0.00000000000E+00 0. -1.
<mgrwt>
<rscale>  0 0.93382744E+02</rscale>
<asrwt>0</asrwt>
<pdfrwt beam="2">  1        3 0.19593482E-01 0.93382744E+02</pdfrwt>
<pdfrwt beam="1">  1       -3 0.26335098E-02 0.93382744E+02</pdfrwt>
<totfact> 0.29658076E+04</totfact>
</mgrwt>
</event>
<event>
 5    1  0.6079230E+000  0.9415755E+02  0.7546771E-02  0.1293085E+00
          3   -1    0    0  501    0  0.00000000000E+00  0.00000000000E+00  0.16157402056E+03  0.16157402056E+03  0.00000000000E+00 0. -1.
         -3   -1    0    0    0  501 -0.00000000000E+00 -0.00000000000E+00 -0.13717621082E+02  0.13717621082E+02  0.00000000000E+00 0.  1.
         23    2    1    2    0    0  0.00000000000E+00  0.00000000000E+00  0.14785639947E+03  0.17529164164E+03  0.94157552872E+02 0.  0.
        -13    1    3    3    0    0 -0.29020486336E+02 -0.14606694475E+01  0.49682100089E+01  0.29478895724E+02  0.00000000000E+00 0.  1.
         13    1    3    3    0    0  0.29020486336E+02  0.14606694475E+01  0.14288818946E+03  0.14581274591E+03  0.00000000000E+00 0. -1.
<mgrwt>
<rscale>  0 0.94157553E+02</rscale>
<asrwt>0</asrwt>
<pdfrwt beam="1">  1        3 0.24857540E-01 0.94157553E+02</pdfrwt>
<pdfrwt beam="2">  1       -3 0.21104034E-02 0.94157553E+02</pdfrwt>
<totfact> 0.27336047E+04</totfact>
</mgrwt>
</event>
<event>
 5    1  0.6079230E+000  0.8526757E+02  0.7546771E-02  0.1314734E+00
         -1   -1    0    0    0  501 -0.00000000000E+00  0.00000000000E+00  0.26587520049E+02  0.26587520049E+02  0.00000000000E+00 0.  1.
          1   -1    0    0  501    0  0.00000000000E+00 -0.00000000000E+00 -0.68364397980E+02  0.68364397980E+02  0.00000000000E+00 0. -1.
         23    2    1    2    0    0  0.00000000000E+00  0.00000000000E+00 -0.41776877930E+02  0.94951918029E+02  0.85267574187E+02 0.  0.
        -13    1    3    3    0    0  0.57726396200E+01  0.30245729073E+02  0.11948124601E+02  0.33028550934E+02  0.00000000000E+00 0.  1.
         13    1    3    3    0    0 -0.57726396200E+01 -0.30245729073E+02 -0.53725002531E+02  0.61923367095E+02  0.00000000000E+00 0. -1.
<mgrwt>
<rscale>  0 0.85267574E+02</rscale>
<asrwt>0</asrwt>
<pdfrwt beam="2">  1        1 0.10517600E-01 0.85267574E+02</pdfrwt>
<pdfrwt beam="1">  1       -1 0.40903877E-02 0.85267574E+02</pdfrwt>
<totfact> 0.11815826E+05</totfact>
</mgrwt>
</event>
<event>
 5    1  0.6079230E+000  0.5673189E+02  0.7546771E-02  0.1412082E+00
          1   -1    0    0  501    0  0.00000000000E+00  0.00000000000E+00  0.91782624878E+02  0.91782624878E+02  0.00000000000E+00 0. -1.
         -1   -1    0    0    0  501 -0.00000000000E+00 -0.00000000000E+00 -0.87666564653E+01  0.87666564653E+01  0.00000000000E+00 0.  1.
         23    2    1    2    0    0  0.00000000000E+00  0.00000000000E+00  0.83015968413E+02  0.10054928134E+03  0.56731886688E+02 0.  0.
        -13    1    3    3    0    0  0.44150121625E+01 -0.24112268887E+02  0.16210209178E+02  0.29388173214E+02  0.00000000000E+00 0.  1.
         13    1    3    3    0    0 -0.44150121625E+01  0.24112268887E+02  0.66805759235E+02  0.71161108129E+02  0.00000000000E+00 0. -1.
<mgrwt>
<rscale>  0 0.56731887E+02</rscale>
<asrwt>0</asrwt>
<pdfrwt beam="1">  1        1 0.14120403E-01 0.56731887E+02</pdfrwt>
<pdfrwt beam="2">  1       -1 0.13487164E-02 0.56731887E+02</pdfrwt>
<totfact> 0.36185551E+05</totfact>
</mgrwt>
</event>
<event>
 5    1  0.6079230E+000  0.8943268E+02  0.7546771E-02  0.1304231E+00
          2   -1    0    0  501    0  0.00000000000E+00  0.00000000000E+00  0.18000635684E+03  0.18000635684E+03  0.00000000000E+00 0. -1.
         -2   -1    0    0    0  501 -0.00000000000E+00 -0.00000000000E+00 -0.11108225509E+02  0.11108225509E+02  0.00000000000E+00 0.  1.
         23    2    1    2    0    0  0.00000000000E+00  0.00000000000E+00  0.16889813133E+03  0.19111458235E+03  0.89432683173E+02 0.  0.
        -13    1    3    3    0    0  0.36639563760E+02  0.23205105424E+02  0.10772303194E+03  0.11612573427E+03  0.00000000000E+00 0.  1.
         13    1    3    3    0    0 -0.36639563760E+02 -0.23205105424E+02  0.61175099391E+02  0.74988848076E+02  0.00000000000E+00 0. -1.
<mgrwt>
<rscale>  0 0.89432683E+02</rscale>
<asrwt>0</asrwt>
<pdfrwt beam="1">  1        2 0.27693284E-01 0.89432683E+02</pdfrwt>
<pdfrwt beam="2">  1       -2 0.17089579E-02 0.89432683E+02</pdfrwt>
<totfact> 0.15690612E+05</totfact>
</mgrwt>
</event>
<event>
 5    1  0.6079230E+000  0.9129718E+02  0.7546771E-02  0.1299740E+00
         -1   -1    0    0    0  501 -0.00000000000E+00  0.00000000000E+00  0.12022625099E+02  0.12022625099E+02  0.00000000000E+00 0.  1.
          1   -1    0    0  501    0  0.00000000000E+00 -0.00000000000E+00 -0.17332271033E+03  0.17332271033E+03  0.00000000000E+00 0. -1.
         23    2    1    2    0    0  0.00000000000E+00  0.00000000000E+00 -0.16130008523E+03  0.18534533543E+03  0.91297184348E+02 0.  0.
        -13    1    3    3    0    0  0.38554749489E+02 -0.24328711785E+02 -0.75915418659E+02  0.88552276738E+02  0.00000000000E+00 0. -1.
         13    1    3    3    0    0 -0.38554749489E+02  0.24328711785E+02 -0.85384666575E+02  0.96793058695E+02  0.00000000000E+00 0.  1.
<mgrwt>
<rscale>  0 0.91297184E+02</rscale>
<asrwt>0</asrwt>
<pdfrwt beam="2">  1        1 0.26665029E-01 0.91297184E+02</pdfrwt>
<pdfrwt beam="1">  1       -1 0.18496349E-02 0.91297184E+02</pdfrwt>
<totfact> 0.11478708E+05</totfact>
</mgrwt>
</event>
<event>
 5    1  0.6079230E+000  0.7348960E+02  0.7546771E-02  0.1348613E+00
         -4   -1    0    0    0  501 -0.00000000000E+00  0.00000000000E+00  0.68910739878E+02  0.68910739878E+02  0.00000000000E+00 0. -1.
          4   -1    0    0  501    0  0.00000000000E+00 -0.00000000000E+00 -0.19593175495E+02  0.19593175495E+02  0.00000000000E+00 0.  1.
         23    2    1    2    0    0  0.00000000000E+00  0.00000000000E+00  0.49317564384E+02  0.88503915373E+02  0.73489597084E+02 0.  0.
        -13    1    3    3    0    0  0.11216728317E+02  0.50511900746E+01 -0.17039596508E+02  0.21016121537E+02  0.00000000000E+00 0.  1.
         13    1    3    3    0    0 -0.11216728317E+02 -0.50511900746E+01  0.66357160891E+02  0.67487793836E+02  0.00000000000E+00 0. -1.
<mgrwt>
<rscale>  0 0.73489597E+02</rscale>
<asrwt>0</asrwt>
<pdfrwt beam="2">  1        4 0.30143347E-02 0.73489597E+02</pdfrwt>
<pdfrwt beam="1">  1       -4 0.10601652E-01 0.73489597E+02</pdfrwt>
<totfact> 0.48374556E+04</totfact>
</mgrwt>
</event>
<event>
 5    1  0.6079230E+000  0.9579259E+02  0.7546771E-02  0.1289401E+00
         -1   -1    0    0    0  501 -0.00000000000E+00  0.00000000000E+00  0.58835221699E+02  0.58835221699E+02  0.00000000000E+00 0.  1.
          1   -1    0    0  501    0  0.00000000000E+00 -0.00000000000E+00 -0.38991189520E+02  0.38991189520E+02  0.00000000000E+00 0. -1.
         23    2    1    2    0    0  0.00000000000E+00  0.00000000000E+00  0.19844032179E+02  0.97826411220E+02  0.95792594280E+02 0.  0.
        -13    1    3    3    0    0  0.47709876162E+02 -0.31181763720E+01  0.70155453332E+01  0.48323629661E+02  0.00000000000E+00 0.  1.
         13    1    3    3    0    0 -0.47709876162E+02  0.31181763720E+01  0.12828486846E+02  0.49502781559E+02  0.00000000000E+00 0. -1.
<mgrwt>
<rscale>  0 0.95792594E+02</rscale>
<asrwt>0</asrwt>
<pdfrwt beam="2">  1        1 0.59986445E-02 0.95792594E+02</pdfrwt>
<pdfrwt beam="1">  1       -1 0.90515726E-02 0.95792594E+02</pdfrwt>
<totfact> 0.78481181E+04</totfact>
</mgrwt>
</event>
<event>
 5    1  0.6079230E+000  0.9747253E+02  0.7546771E-02  0.1285702E+00
         -1   -1    0    0    0  501 -0.00000000000E+00  0.00000000000E+00  0.30997937350E+02  0.30997937350E+02  0.00000000000E+00 0.  1.
          1   -1    0    0  501    0  0.00000000000E+00 -0.00000000000E+00 -0.76625204553E+02  0.76625204553E+02  0.00000000000E+00 0. -1.
         23    2    1    2    0    0  0.00000000000E+00  0.00000000000E+00 -0.45627267204E+02  0.10762314190E+03  0.97472525158E+02 0.  0.
        -13    1    3    3    0    0  0.90156442897E+01  0.41052202135E+02 -0.50053825923E+02  0.65360160890E+02  0.00000000000E+00 0.  1.
         13    1    3    3    0    0 -0.90156442897E+01 -0.41052202135E+02  0.44265587190E+01  0.42262981013E+02  0.00000000000E+00 0. -1.
<mgrwt>
<rscale>  0 0.97472525E+02</rscale>
<asrwt>0</asrwt>
<pdfrwt beam="2">  1        1 0.11788493E-01 0.97472525E+02</pdfrwt>
<pdfrwt beam="1">  1       -1 0.47689135E-02 0.97472525E+02</pdfrwt>
<totfact> 0.83199611E+04</totfact>
</mgrwt>
</event>
<event>
 5    1  0.6079230E+000  0.8371750E+02  0.7546771E-02  0.1318821E+00
          1   -1    0    0  501    0  0.00000000000E+00  0.00000000000E+00  0.90696438002E+01  0.90696438002E+01  0.00000000000E+00 0. -1.
         -1   -1    0    0    0  501 -0.00000000000E+00 -0.00000000000E+00 -0.19318896582E+03  0.19318896582E+03  0.00000000000E+00 0.  1.
         23    2    1    2    0    0  0.00000000000E+00  0.00000000000E+00 -0.18411932202E+03  0.20225860962E+03  0.83717503692E+02 0.  0.
        -13    1    3    3    0    0 -0.39355965745E+02 -0.44580686868E+01 -0.59342393755E+02  0.71346241055E+02  0.00000000000E+00 0. -1.
         13    1    3    3    0    0  0.39355965745E+02  0.44580686868E+01 -0.12477692826E+03  0.13091236856E+03  0.00000000000E+00 0.  1.
<mgrwt>
<rscale>  0 0.83717504E+02</rscale>
<asrwt>0</asrwt>
<pdfrwt beam="1">  1        1 0.13953299E-02 0.83717504E+02</pdfrwt>
<pdfrwt beam="2">  1       -1 0.29721379E-01 0.83717504E+02</pdfrwt>
<totfact> 0.87498783E+04</totfact>
</mgrwt>
</event>
<event>
 5    1  0.6079230E+000  0.9372969E+02  0.7546771E-02  0.1294063E+00
          3   -1    0    0  501    0  0.00000000000E+00  0.00000000000E+00  0.21720988469E+02  0.21720988469E+02  0.00000000000E+00 0. -1.
         -3   -1    0    0    0  501 -0.00000000000E+00 -0.00000000000E+00 -0.10111481156E+03  0.10111481156E+03  0.00000000000E+00 0.  1.
         23    2    1    2    0    0  0.00000000000E+00  0.00000000000E+00 -0.79393823087E+02  0.12283580003E+03  0.93729689126E+02 0.  0.
        -13    1    3    3    0    0 -0.17797919067E+02 -0.24049546646E+01  0.17032100326E+02  0.24751609474E+02  0.00000000000E+00 0. -1.
         13    1    3    3    0    0  0.17797919067E+02  0.24049546646E+01 -0.96425923413E+02  0.98084190551E+02  0.00000000000E+00 0.  1.
<mgrwt>
<rscale>  0 0.93729689E+02</rscale>
<asrwt>0</asrwt>
<pdfrwt beam="1">  1        3 0.33416905E-02 0.93729689E+02</pdfrwt>
<pdfrwt beam="2">  1       -3 0.15556125E-01 0.93729689E+02</pdfrwt>
<totfact> 0.30660116E+04</totfact>
</mgrwt>
</event>
<event>
 5    1  0.6079230E+000  0.9259529E+02  0.7546771E-02  0.1296686E+00
         -1   -1    0    0    0  501 -0.00000000000E+00  0.00000000000E+00  0.12468225190E+02  0.12468225190E+02  0.00000000000E+00 0.  1.
          1   -1    0    0  501    0  0.00000000000E+00 -0.00000000000E+00 -0.17191476423E+03  0.17191476423E+03  0.00000000000E+00 0. -1.
         23    2    1    2    0    0  0.00000000000E+00  0.00000000000E+00 -0.15944653904E+03  0.18438298942E+03  0.92595291327E+02 0.  0.
        -13    1    3    3    0    0 -0.12930248820E+02 -0.42930371134E+02 -0.10271058196E+03  0.11206994132E+03  0.00000000000E+00 0. -1.
         13    1    3    3    0    0  0.12930248820E+02  0.42930371134E+02 -0.56735957080E+02  0.72313048104E+02  0.00000000000E+00 0.  1.
<mgrwt>
<rscale>  0 0.92595291E+02</rscale>
<asrwt>0</asrwt>
<pdfrwt beam="2">  1        1 0.26448423E-01 0.92595291E+02</pdfrwt>
<pdfrwt beam="1">  1       -1 0.19181886E-02 0.92595291E+02</pdfrwt>
<totfact> 0.11033253E+05</totfact>
</mgrwt>
</event>
<event>
 5    1  0.6079230E+000  0.8647578E+02  0.7546771E-02  0.1311618E+00
         -1   -1    0    0    0  501 -0.00000000000E+00  0.00000000000E+00  0.65811370680E+01  0.65811370680E+01  0.00000000000E+00 0.  1.
          1   -1    0    0  501    0  0.00000000000E+00 -0.00000000000E+00 -0.28407172933E+03  0.28407172933E+03  0.00000000000E+00 0. -1.
         23    2    1    2    0    0  0.00000000000E+00  0.00000000000E+00 -0.27749059226E+03  0.29065286640E+03  0.86475776674E+02 0.  0.
        -13    1    3    3    0    0 -0.22802727653E+02 -0.28809612727E+02 -0.62133320563E+02  0.72183846518E+02  0.00000000000E+00 0.  1.
         13    1    3    3    0    0  0.22802727653E+02  0.28809612727E+02 -0.21535727170E+03  0.21846901988E+03  0.00000000000E+00 0. -1.
<mgrwt>
<rscale>  0 0.86475777E+02</rscale>
<asrwt>0</asrwt>
<pdfrwt beam="2">  1        1 0.43703349E-01 0.86475777E+02</pdfrwt>
<pdfrwt beam="1">  1       -1 0.10124825E-02 0.86475777E+02</pdfrwt>
<totfact> 0.14594098E+05</totfact>
</mgrwt>
</event>
<event>
 5    1  0.6079230E+000  0.8941123E+02  0.7546771E-02  0.1304284E+00
         -1   -1    0    0    0  501 -0.00000000000E+00  0.00000000000E+00  0.28578183322E+03  0.28578183322E+03  0.00000000000E+00 0.  1.
          1   -1    0    0  501    0  0.00000000000E+00 -0.00000000000E+00 -0.69934180553E+01  0.69934180553E+01  0.00000000000E+00 0. -1.
         23    2    1    2    0    0  0.00000000000E+00  0.00000000000E+00  0.27878841516E+03  0.29277525127E+03  0.89411225969E+02 0.  0.
        -13    1    3    3    0    0  0.24642037098E+02  0.37288598794E+02  0.14253879932E+03  0.14938198989E+03  0.00000000000E+00 0.  1.
         13    1    3    3    0    0 -0.24642037098E+02 -0.37288598794E+02  0.13624961584E+03  0.14339326138E+03  0.00000000000E+00 0. -1.
<mgrwt>
<rscale>  0 0.89411226E+02</rscale>
<asrwt>0</asrwt>
<pdfrwt beam="2">  1        1 0.10759107E-02 0.89411226E+02</pdfrwt>
<pdfrwt beam="1">  1       -1 0.43966427E-01 0.89411226E+02</pdfrwt>
<totfact> 0.64966228E+04</totfact>
</mgrwt>
</event>
<event>
 5    1  0.6079230E+000  0.8944998E+02  0.7546771E-02  0.1304189E+00
          1   -1    0    0  501    0  0.00000000000E+00  0.00000000000E+00  0.11668819434E+03  0.11668819434E+03  0.00000000000E+00 0. -1.
         -1   -1    0    0    0  501 -0.00000000000E+00 -0.00000000000E+00 -0.17142476515E+02  0.17142476515E+02  0.00000000000E+00 0.  1.
         23    2    1    2    0    0  0.00000000000E+00  0.00000000000E+00  0.99545717821E+02  0.13383067085E+03  0.89449977774E+02 0.  0.
        -13    1    3    3    0    0 -0.25833558575E+02 -0.11671127384E+02 -0.19848110517E+01  0.28417027254E+02  0.00000000000E+00 0.  1.
         13    1    3    3    0    0  0.25833558575E+02  0.11671127384E+02  0.10153052887E+03  0.10541364360E+03  0.00000000000E+00 0. -1.
<mgrwt>
<rscale>  0 0.89449978E+02</rscale>
<asrwt>0</asrwt>
<pdfrwt beam="1">  1        1 0.17952029E-01 0.89449978E+02</pdfrwt>
<pdfrwt beam="2">  1       -1 0.26373041E-02 0.89449978E+02</pdfrwt>
<totfact> 0.11291781E+05</totfact>
</mgrwt>
</event>
<event>
 5    1  0.6079230E+000  0.8935692E+02  0.7546771E-02  0.1304417E+00
         -2   -1    0    0    0  501 -0.00000000000E+00  0.00000000000E+00  0.13349380254E+03  0.13349380254E+03  0.00000000000E+00 0.  1.
          2   -1    0    0  501    0  0.00000000000E+00 -0.00000000000E+00 -0.14953240985E+02  0.14953240985E+02  0.00000000000E+00 0. -1.
         23    2    1    2    0    0  0.00000000000E+00  0.00000000000E+00  0.11854056155E+03  0.14844704352E+03  0.89356924733E+02 0.  0.
        -13    1    3    3    0    0  0.35038794011E+02  0.15704944925E+01  0.10524853401E+03  0.11093889061E+03  0.00000000000E+00 0.  1.
         13    1    3    3    0    0 -0.35038794011E+02 -0.15704944925E+01  0.13292027541E+02  0.37508152912E+02  0.00000000000E+00 0. -1.
<mgrwt>
<rscale>  0 0.89356925E+02</rscale>
<asrwt>0</asrwt>
<pdfrwt beam="2">  1        2 0.23004987E-02 0.89356925E+02</pdfrwt>
<pdfrwt beam="1">  1       -2 0.20537507E-01 0.89356925E+02</pdfrwt>
<totfact> 0.76580881E+04</totfact>
</mgrwt>
</event>
<event>
 5    1  0.6079230E+000  0.9187730E+02  0.7546771E-02  0.1298368E+00
          2   -1    0    0  501    0  0.00000000000E+00  0.00000000000E+00  0.54628219334E+02  0.54628219334E+02  0.00000000000E+00 0. -1.
         -2   -1    0    0    0  501 -0.00000000000E+00 -0.00000000000E+00 -0.38631307349E+02  0.38631307349E+02  0.00000000000E+00 0.  1.
         23    2    1    2    0    0  0.00000000000E+00  0.00000000000E+00  0.15996911984E+02  0.93259526683E+02  0.91877299286E+02 0.  0.
        -13    1    3    3    0    0  0.97871309231E+01  0.23805280501E+02  0.46621927305E+02  0.53254891016E+02  0.00000000000E+00 0. -1.
         13    1    3    3    0    0 -0.97871309231E+01 -0.23805280501E+02 -0.30625015321E+02  0.40004635667E+02  0.00000000000E+00 0.  1.
<mgrwt>
<rscale>  0 0.91877299E+02</rscale>
<asrwt>0</asrwt>
<pdfrwt beam="1">  1        2 0.84043415E-02 0.91877299E+02</pdfrwt>
<pdfrwt beam="2">  1       -2 0.59432780E-02 0.91877299E+02</pdfrwt>
<totfact> 0.10123011E+05</totfact>
</mgrwt>
</event>
<event>
 5    1  0.6079230E+000  0.9060690E+02  0.7546771E-02  0.1301389E+00
          3   -1    0    0  501    0  0.00000000000E+00  0.00000000000E+00  0.33437318205E+02  0.33437318205E+02  0.00000000000E+00 0. -1.
         -3   -1    0    0    0  501 -0.00000000000E+00 -0.00000000000E+00 -0.61380597129E+02  0.61380597129E+02  0.00000000000E+00 0.  1.
         23    2    1    2    0    0  0.00000000000E+00  0.00000000000E+00 -0.27943278925E+02  0.94817915334E+02  0.90606899468E+02 0.  0.
        -13    1    3    3    0    0  0.29489747266E+01 -0.10605625765E+02 -0.59959771977E+02  0.60961873375E+02  0.00000000000E+00 0.  1.
         13    1    3    3    0    0 -0.29489747266E+01  0.10605625765E+02  0.32016493052E+02  0.33856041960E+02  0.00000000000E+00 0. -1.
<mgrwt>
<rscale>  0 0.90606899E+02</rscale>
<asrwt>0</asrwt>
<pdfrwt beam="1">  1        3 0.51442029E-02 0.90606899E+02</pdfrwt>
<pdfrwt beam="2">  1       -3 0.94431687E-02 0.90606899E+02</pdfrwt>
<totfact> 0.35664163E+04</totfact>
</mgrwt>
</event>
<event>
 5    1  0.6079230E+000  0.9119995E+02  0.7546771E-02  0.1299972E+00
          1   -1    0    0  501    0  0.00000000000E+00  0.00000000000E+00  0.19765800151E+02  0.19765800151E+02  0.00000000000E+00 0. -1.
         -1   -1    0    0    0  501 -0.00000000000E+00 -0.00000000000E+00 -0.10519977221E+03  0.10519977221E+03  0.00000000000E+00 0.  1.
         23    2    1    2    0    0  0.00000000000E+00  0.00000000000E+00 -0.85433972059E+02  0.12496557236E+03  0.91199948978E+02 0.  0.
        -13    1    3    3    0    0 -0.11965694643E+02 -0.18310104724E+02 -0.97542231838E+02  0.99964617616E+02  0.00000000000E+00 0.  1.
         13    1    3    3    0    0  0.11965694643E+02  0.18310104724E+02  0.12108259779E+02  0.25000954745E+02  0.00000000000E+00 0. -1.
<mgrwt>
<rscale>  0 0.91199949E+02</rscale>
<asrwt>0</asrwt>
<pdfrwt beam="1">  1        1 0.30408923E-02 0.91199949E+02</pdfrwt>
<pdfrwt beam="2">  1       -1 0.16184580E-01 0.91199949E+02</pdfrwt>
<totfact> 0.80545033E+04</totfact>
</mgrwt>
</event>
<event>
 5    1  0.6079230E+000  0.9330163E+02  0.7546771E-02  0.1295048E+00
         -2   -1    0    0    0  501 -0.00000000000E+00  0.00000000000E+00  0.22809907187E+03  0.22809907187E+03  0.00000000000E+00 0.  1.
          2   -1    0    0  501    0  0.00000000000E+00 -0.00000000000E+00 -0.95410227039E+01  0.95410227039E+01  0.00000000000E+00 0. -1.
         23    2    1    2    0    0  0.00000000000E+00  0.00000000000E+00  0.21855804917E+03  0.23764009457E+03  0.93301627498E+02 0.  0.
        -13    1    3    3    0    0  0.29782147360E+02  0.31579488266E+02  0.65751388448E+02  0.78787597142E+02  0.00000000000E+00 0. -1.
         13    1    3    3    0    0 -0.29782147360E+02 -0.31579488266E+02  0.15280666072E+03  0.15885249743E+03  0.00000000000E+00 0.  1.
<mgrwt>
<rscale>  0 0.93301627E+02</rscale>
<asrwt>0</asrwt>
<pdfrwt beam="2">  1        2 0.14678498E-02 0.93301627E+02</pdfrwt>
<pdfrwt beam="1">  1       -2 0.35092161E-01 0.93301627E+02</pdfrwt>
<totfact> 0.55359616E+04</totfact>
</mgrwt>
</event>
<event>
 5    1  0.6079230E+000  0.9410313E+02  0.7546771E-02  0.1293209E+00
         -1   -1    0    0    0  501 -0.00000000000E+00  0.00000000000E+00  0.49323710045E+02  0.49323710045E+02  0.00000000000E+00 0.  1.
          1   -1    0    0  501    0  0.00000000000E+00 -0.00000000000E+00 -0.44884088882E+02  0.44884088882E+02  0.00000000000E+00 0. -1.
         23    2    1    2    0    0  0.00000000000E+00  0.00000000000E+00  0.44396211633E+01  0.94207798927E+02  0.94103130355E+02 0.  0.
        -13    1    3    3    0    0  0.17811625811E+02  0.29283243330E+02  0.34490543754E+02  0.48624684702E+02  0.00000000000E+00 0.  1.
         13    1    3    3    0    0 -0.17811625811E+02 -0.29283243330E+02 -0.30050922590E+02  0.45583114225E+02  0.00000000000E+00 0. -1.
<mgrwt>
<rscale>  0 0.94103130E+02</rscale>
<asrwt>0</asrwt>
<pdfrwt beam="2">  1        1 0.69052444E-02 0.94103130E+02</pdfrwt>
<pdfrwt beam="1">  1       -1 0.75882631E-02 0.94103130E+02</pdfrwt>
<totfact> 0.84395768E+04</totfact>
</mgrwt>
</event>
<event>
 5    1  0.6079230E+000  0.9616127E+02  0.7546771E-02  0.1288582E+00
          2   -1    0    0  501    0  0.00000000000E+00  0.00000000000E+00  0.69807164595E+01  0.69807164595E+01  0.00000000000E+00 0. -1.
         -2   -1    0    0    0  501 -0.00000000000E+00 -0.00000000000E+00 -0.33116189854E+03  0.33116189854E+03  0.00000000000E+00 0.  1.
         23    2    1    2    0    0  0.00000000000E+00  0.00000000000E+00 -0.32418118208E+03  0.33814261500E+03  0.96161266961E+02 0.  0.
        -13    1    3    3    0    0 -0.24423934167E+02  0.40318400969E+02 -0.12879678154E+03  0.13715215256E+03  0.00000000000E+00 0.  1.
         13    1    3    3    0    0  0.24423934167E+02 -0.40318400969E+02 -0.19538440055E+03  0.20099046245E+03  0.00000000000E+00 0. -1.
<mgrwt>
<rscale>  0 0.96161267E+02</rscale>
<asrwt>0</asrwt>
<pdfrwt beam="1">  1        2 0.10739564E-02 0.96161267E+02</pdfrwt>
<pdfrwt beam="2">  1       -2 0.50947985E-01 0.96161267E+02</pdfrwt>
<totfact> 0.41968449E+04</totfact>
</mgrwt>
</event>
<event>
 5    1  0.6079230E+000  0.8309050E+02  0.7546771E-02  0.1320503E+00
          1   -1    0    0  501    0  0.00000000000E+00  0.00000000000E+00  0.59109178783E+02  0.59109178783E+02  0.00000000000E+00 0. -1.
         -1   -1    0    0    0  501 -0.00000000000E+00 -0.00000000000E+00 -0.29200335529E+02  0.29200335529E+02  0.00000000000E+00 0.  1.
         23    2    1    2    0    0  0.00000000000E+00  0.00000000000E+00  0.29908843254E+02  0.88309514313E+02  0.83090501342E+02 0.  0.
        -13    1    3    3    0    0 -0.18696482805E+02 -0.32295182371E+02 -0.44537613984E+01  0.37581554841E+02  0.00000000000E+00 0.  1.
         13    1    3    3    0    0  0.18696482805E+02  0.32295182371E+02  0.34362604652E+02  0.50727959472E+02  0.00000000000E+00 0. -1.
<mgrwt>
<rscale>  0 0.83090501E+02</rscale>
<asrwt>0</asrwt>
<pdfrwt beam="1">  1        1 0.90937198E-02 0.83090501E+02</pdfrwt>
<pdfrwt beam="2">  1       -1 0.44923593E-02 0.83090501E+02</pdfrwt>
<totfact> 0.12418181E+05</totfact>
</mgrwt>
</event>
<event>
 5    1  0.6079230E+000  0.9080621E+02  0.7546771E-02  0.1300911E+00
         -2   -1    0    0    0  501 -0.00000000000E+00  0.00000000000E+00  0.13256727253E+03  0.13256727253E+03  0.00000000000E+00 0.  1.
          2   -1    0    0  501    0  0.00000000000E+00 -0.00000000000E+00 -0.15550156823E+02  0.15550156823E+02  0.00000000000E+00 0. -1.
         23    2    1    2    0    0  0.00000000000E+00  0.00000000000E+00  0.11701711570E+03  0.14811742935E+03  0.90806208542E+02 0.  0.
        -13    1    3    3    0    0 -0.17716730955E+02 -0.27603787930E+02  0.73004399049E+01  0.33602798791E+02  0.00000000000E+00 0. -1.
         13    1    3    3    0    0  0.17716730955E+02  0.27603787930E+02  0.10971667580E+03  0.11451463056E+03  0.00000000000E+00 0.  1.
<mgrwt>
<rscale>  0 0.90806209E+02</rscale>
<asrwt>0</asrwt>
<pdfrwt beam="2">  1        2 0.23923319E-02 0.90806209E+02</pdfrwt>
<pdfrwt beam="1">  1       -2 0.20394964E-01 0.90806209E+02</pdfrwt>
<totfact> 0.73715171E+04</totfact>
</mgrwt>
</event>
<event>
 5    1  0.6079230E+000  0.5855040E+02  0.7546771E-02  0.1404018E+00
          1   -1    0    0  501    0  0.00000000000E+00  0.00000000000E+00  0.62906419314E+02  0.62906419314E+02  0.00000000000E+00 0. -1.
         -1   -1    0    0    0  501 -0.00000000000E+00 -0.00000000000E+00 -0.13624004356E+02  0.13624004356E+02  0.00000000000E+00 0.  1.
         23    2    1    2    0    0  0.00000000000E+00  0.00000000000E+00  0.49282414958E+02  0.76530423669E+02  0.58550399853E+02 0.  0.
        -13    1    3    3    0    0 -0.99924034187E+01 -0.26550077681E+02  0.34092316149E+02  0.44351333366E+02  0.00000000000E+00 0.  1.
         13    1    3    3    0    0  0.99924034187E+01  0.26550077681E+02  0.15190098809E+02  0.32179090303E+02  0.00000000000E+00 0. -1.
<mgrwt>
<rscale>  0 0.58550400E+02</rscale>
<asrwt>0</asrwt>
<pdfrwt beam="1">  1        1 0.96779105E-02 0.58550400E+02</pdfrwt>
<pdfrwt beam="2">  1       -1 0.20960007E-02 0.58550400E+02</pdfrwt>
<totfact> 0.31820891E+05</totfact>
</mgrwt>
</event>
<event>
 5    1  0.6079230E+000  0.9152288E+02  0.7546771E-02  0.1299205E+00
         -1   -1    0    0    0  501 -0.00000000000E+00  0.00000000000E+00  0.79634398726E+02  0.79634398726E+02  0.00000000000E+00 0.  1.
          1   -1    0    0  501    0  0.00000000000E+00 -0.00000000000E+00 -0.26296540229E+02  0.26296540229E+02  0.00000000000E+00 0. -1.
         23    2    1    2    0    0  0.00000000000E+00  0.00000000000E+00  0.53337858497E+02  0.10593093896E+03  0.91522875168E+02 0.  0.
        -13    1    3    3    0    0  0.43683889655E+02 -0.29715704814E+01  0.11270522756E+02  0.45212134761E+02  0.00000000000E+00 0.  1.
         13    1    3    3    0    0 -0.43683889655E+02  0.29715704814E+01  0.42067335741E+02  0.60718804194E+02  0.00000000000E+00 0. -1.
<mgrwt>
<rscale>  0 0.91522875E+02</rscale>
<asrwt>0</asrwt>
<pdfrwt beam="2">  1        1 0.40456216E-02 0.91522875E+02</pdfrwt>
<pdfrwt beam="1">  1       -1 0.12251446E-01 0.91522875E+02</pdfrwt>
<totfact> 0.83897860E+04</totfact>
</mgrwt>
</event>
<event>
 5    1  0.6079230E+000  0.9257556E+02  0.7546771E-02  0.1296732E+00
          1   -1    0    0  501    0  0.00000000000E+00  0.00000000000E+00  0.92071818921E+01  0.92071818921E+01  0.00000000000E+00 0. -1.
         -1   -1    0    0    0  501 -0.00000000000E+00 -0.00000000000E+00 -0.23270516444E+03  0.23270516444E+03  0.00000000000E+00 0.  1.
         23    2    1    2    0    0  0.00000000000E+00  0.00000000000E+00 -0.22349798255E+03  0.24191234633E+03  0.92575564297E+02 0.  0.
        -13    1    3    3    0    0  0.38907857135E+02  0.17966598719E+02 -0.15745559131E+03  0.16318358756E+03  0.00000000000E+00 0.  1.
         13    1    3    3    0    0 -0.38907857135E+02 -0.17966598719E+02 -0.66042391241E+02  0.78728758769E+02  0.00000000000E+00 0. -1.
<mgrwt>
<rscale>  0 0.92575564E+02</rscale>
<asrwt>0</asrwt>
<pdfrwt beam="1">  1        1 0.14164895E-02 0.92575564E+02</pdfrwt>
<pdfrwt beam="2">  1       -1 0.35800795E-01 0.92575564E+02</pdfrwt>
<totfact> 0.63727165E+04</totfact>
</mgrwt>
</event>
<event>
 5    1  0.6079230E+000  0.9069187E+02  0.7546771E-02  0.1301185E+00
          3   -1    0    0  501    0  0.00000000000E+00  0.00000000000E+00  0.42137312220E+02  0.42137312220E+02  0.00000000000E+00 0. -1.
         -3   -1    0    0    0  501 -0.00000000000E+00 -0.00000000000E+00 -0.48798884978E+02  0.48798884978E+02  0.00000000000E+00 0.  1.
         23    2    1    2    0    0  0.00000000000E+00  0.00000000000E+00 -0.66615727578E+01  0.90936197198E+02  0.90691870690E+02 0.  0.
        -13    1    3    3    0    0 -0.64200841729E+01 -0.29807921810E+02 -0.36984940981E+02  0.47933449102E+02  0.00000000000E+00 0.  1.
         13    1    3    3    0    0  0.64200841729E+01  0.29807921810E+02  0.30323368223E+02  0.43002748096E+02  0.00000000000E+00 0. -1.
<mgrwt>
<rscale>  0 0.90691871E+02</rscale>
<asrwt>0</asrwt>
<pdfrwt beam="1">  1        3 0.64826634E-02 0.90691871E+02</pdfrwt>
<pdfrwt beam="2">  1       -3 0.75075207E-02 0.90691871E+02</pdfrwt>
<totfact> 0.35874464E+04</totfact>
</mgrwt>
</event>
<event>
 5    1  0.6079230E+000  0.9078355E+02  0.7546771E-02  0.1300965E+00
          2   -1    0    0  501    0  0.00000000000E+00  0.00000000000E+00  0.37780857868E+02  0.37780857868E+02  0.00000000000E+00 0. -1.
         -2   -1    0    0    0  501 -0.00000000000E+00 -0.00000000000E+00 -0.54535906518E+02  0.54535906518E+02  0.00000000000E+00 0.  1.
         23    2    1    2    0    0  0.00000000000E+00  0.00000000000E+00 -0.16755048650E+02  0.92316764385E+02  0.90783552097E+02 0.  0.
        -13    1    3    3    0    0  0.30730896177E+02 -0.26622433409E+02 -0.28899319832E+02  0.49882989358E+02  0.00000000000E+00 0.  1.
         13    1    3    3    0    0 -0.30730896177E+02  0.26622433409E+02  0.12144271182E+02  0.42433775027E+02  0.00000000000E+00 0. -1.
<mgrwt>
<rscale>  0 0.90783552E+02</rscale>
<asrwt>0</asrwt>
<pdfrwt beam="1">  1        2 0.58124397E-02 0.90783552E+02</pdfrwt>
<pdfrwt beam="2">  1       -2 0.83901394E-02 0.90783552E+02</pdfrwt>
<totfact> 0.95177050E+04</totfact>
</mgrwt>
</event>
<event>
 5    1  0.6079230E+000  0.8984915E+02  0.7546771E-02  0.1303217E+00
         -2   -1    0    0    0  501 -0.00000000000E+00  0.00000000000E+00  0.19255580449E+02  0.19255580449E+02  0.00000000000E+00 0.  1.
          2   -1    0    0  501    0  0.00000000000E+00 -0.00000000000E+00 -0.10481207000E+03  0.10481207000E+03  0.00000000000E+00 0. -1.
         23    2    1    2    0    0  0.00000000000E+00  0.00000000000E+00 -0.85556489554E+02  0.12406765045E+03  0.89849145706E+02 0.  0.
        -13    1    3    3    0    0 -0.31975318348E+02  0.14939264983E+02 -0.81160109271E+02  0.88501785058E+02  0.00000000000E+00 0. -1.
         13    1    3    3    0    0  0.31975318348E+02 -0.14939264983E+02 -0.43963802833E+01  0.35565865394E+02  0.00000000000E+00 0.  1.
<mgrwt>
<rscale>  0 0.89849146E+02</rscale>
<asrwt>0</asrwt>
<pdfrwt beam="2">  1        2 0.16124934E-01 0.89849146E+02</pdfrwt>
<pdfrwt beam="1">  1       -2 0.29623970E-02 0.89849146E+02</pdfrwt>
<totfact> 0.12956615E+05</totfact>
</mgrwt>
</event>
<event>
 5    1  0.6079230E+000  0.5682592E+02  0.7546771E-02  0.1411656E+00
          2   -1    0    0  501    0  0.00000000000E+00  0.00000000000E+00  0.11898842520E+02  0.11898842520E+02  0.00000000000E+00 0. -1.
         -2   -1    0    0    0  501 -0.00000000000E+00 -0.00000000000E+00 -0.67846619968E+02  0.67846619968E+02  0.00000000000E+00 0.  1.
         23    2    1    2    0    0  0.00000000000E+00  0.00000000000E+00 -0.55947777448E+02  0.79745462488E+02  0.56825918260E+02 0.  0.
        -13    1    3    3    0    0  0.61987151668E+01 -0.27492976429E+02 -0.22912474769E+02  0.36321747242E+02  0.00000000000E+00 0. -1.
         13    1    3    3    0    0 -0.61987151668E+01  0.27492976429E+02 -0.33035302679E+02  0.43423715246E+02  0.00000000000E+00 0.  1.
<mgrwt>
<rscale>  0 0.56825918E+02</rscale>
<asrwt>0</asrwt>
<pdfrwt beam="1">  1        2 0.18305911E-02 0.56825918E+02</pdfrwt>
<pdfrwt beam="2">  1       -2 0.10437942E-01 0.56825918E+02</pdfrwt>
<totfact> 0.28221829E+05</totfact>
</mgrwt>
</event>
<event>
 5    1  0.6079230E+000  0.9086039E+02  0.7546771E-02  0.1300781E+00
          1   -1    0    0  501    0  0.00000000000E+00  0.00000000000E+00  0.30666896299E+03  0.30666896299E+03  0.00000000000E+00 0. -1.
         -1   -1    0    0    0  501 -0.00000000000E+00 -0.00000000000E+00 -0.67300667142E+01  0.67300667142E+01  0.00000000000E+00 0.  1.
         23    2    1    2    0    0  0.00000000000E+00  0.00000000000E+00  0.29993889628E+03  0.31339902970E+03  0.90860389171E+02 0.  0.
        -13    1    3    3    0    0 -0.40468729500E+02  0.30608227647E+01  0.22038931205E+03  0.22409492536E+03  0.00000000000E+00 0.  1.
         13    1    3    3    0    0  0.40468729500E+02 -0.30608227647E+01  0.79549584224E+02  0.89304104349E+02  0.00000000000E+00 0. -1.
<mgrwt>
<rscale>  0 0.90860389E+02</rscale>
<asrwt>0</asrwt>
<pdfrwt beam="1">  1        1 0.47179830E-01 0.90860389E+02</pdfrwt>
<pdfrwt beam="2">  1       -1 0.10353951E-02 0.90860389E+02</pdfrwt>
<totfact> 0.12985503E+05</totfact>
</mgrwt>
</event>
<event>
 5    1  0.6079230E+000  0.9176977E+02  0.7546771E-02  0.1298622E+00
         -1   -1    0    0    0  501 -0.00000000000E+00  0.00000000000E+00  0.11716275768E+03  0.11716275768E+03  0.00000000000E+00 0.  1.
          1   -1    0    0  501    0  0.00000000000E+00 -0.00000000000E+00 -0.17970067720E+02  0.17970067720E+02  0.00000000000E+00 0. -1.
         23    2    1    2    0    0  0.00000000000E+00  0.00000000000E+00  0.99192689961E+02  0.13513282540E+03  0.91769770399E+02 0.  0.
        -13    1    3    3    0    0 -0.37170388455E+02 -0.10823552342E+02  0.85864475345E+02  0.94188614968E+02  0.00000000000E+00 0.  1.
         13    1    3    3    0    0  0.37170388455E+02  0.10823552342E+02  0.13328214616E+02  0.40944210433E+02  0.00000000000E+00 0. -1.
<mgrwt>
<rscale>  0 0.91769770E+02</rscale>
<asrwt>0</asrwt>
<pdfrwt beam="2">  1        1 0.27646259E-02 0.91769770E+02</pdfrwt>
<pdfrwt beam="1">  1       -1 0.18025039E-01 0.91769770E+02</pdfrwt>
<totfact> 0.77601176E+04</totfact>
</mgrwt>
</event>
<event>
 5    1  0.6079230E+000  0.9391853E+02  0.7546771E-02  0.1293631E+00
         -3   -1    0    0    0  501 -0.00000000000E+00  0.00000000000E+00  0.53540343679E+02  0.53540343679E+02  0.00000000000E+00 0.  1.
          3   -1    0    0  501    0  0.00000000000E+00 -0.00000000000E+00 -0.41187117965E+02  0.41187117965E+02  0.00000000000E+00 0. -1.
         23    2    1    2    0    0  0.00000000000E+00  0.00000000000E+00  0.12353225713E+02  0.94727461644E+02  0.93918527480E+02 0.  0.
        -13    1    3    3    0    0 -0.37012925823E+02  0.14678143011E+02 -0.18932950541E+02  0.44089241051E+02  0.00000000000E+00 0. -1.
         13    1    3    3    0    0  0.37012925823E+02 -0.14678143011E+02  0.31286176254E+02  0.50638220593E+02  0.00000000000E+00 0.  1.
<mgrwt>
<rscale>  0 0.93918527E+02</rscale>
<asrwt>0</asrwt>
<pdfrwt beam="2">  1        3 0.63364796E-02 0.93918527E+02</pdfrwt>
<pdfrwt beam="1">  1       -3 0.82369760E-02 0.93918527E+02</pdfrwt>
<totfact> 0.32341003E+04</totfact>
</mgrwt>
</event>
<event>
 5    1  0.6079230E+000  0.9133945E+02  0.7546771E-02  0.1299640E+00
         -1   -1    0    0    0  501 -0.00000000000E+00  0.00000000000E+00  0.11172776559E+02  0.11172776559E+02  0.00000000000E+00 0.  1.
          1   -1    0    0  501    0  0.00000000000E+00 -0.00000000000E+00 -0.18667908450E+03  0.18667908450E+03  0.00000000000E+00 0. -1.
         23    2    1    2    0    0  0.00000000000E+00  0.00000000000E+00 -0.17550630794E+03  0.19785186106E+03  0.91339448200E+02 0.  0.
        -13    1    3    3    0    0  0.12717103190E+02  0.31158400320E+02 -0.15462804430E+03  0.15824791534E+03  0.00000000000E+00 0. -1.
         13    1    3    3    0    0 -0.12717103190E+02 -0.31158400320E+02 -0.20878263637E+02  0.39603945720E+02  0.00000000000E+00 0.  1.
<mgrwt>
<rscale>  0 0.91339448E+02</rscale>
<asrwt>0</asrwt>
<pdfrwt beam="2">  1        1 0.28719858E-01 0.91339448E+02</pdfrwt>
<pdfrwt beam="1">  1       -1 0.17188888E-02 0.91339448E+02</pdfrwt>
<totfact> 0.11628163E+05</totfact>
</mgrwt>
</event>
<event>
 5    1  0.6079230E+000  0.8870699E+02  0.7546771E-02  0.1306013E+00
          2   -1    0    0  501    0  0.00000000000E+00  0.00000000000E+00  0.65145587663E+02  0.65145587663E+02  0.00000000000E+00 0. -1.
         -2   -1    0    0    0  501 -0.00000000000E+00 -0.00000000000E+00 -0.30197482440E+02  0.30197482440E+02  0.00000000000E+00 0.  1.
         23    2    1    2    0    0  0.00000000000E+00  0.00000000000E+00  0.34948105223E+02  0.95343070103E+02  0.88706994977E+02 0.  0.
        -13    1    3    3    0    0  0.81621773874E+01 -0.36800266604E+02  0.42596822743E+02  0.56880313551E+02  0.00000000000E+00 0. -1.
         13    1    3    3    0    0 -0.81621773874E+01  0.36800266604E+02 -0.76487175194E+01  0.38462756552E+02  0.00000000000E+00 0.  1.
<mgrwt>
<rscale>  0 0.88706995E+02</rscale>
<asrwt>0</asrwt>
<pdfrwt beam="1">  1        2 0.10022398E-01 0.88706995E+02</pdfrwt>
<pdfrwt beam="2">  1       -2 0.46457665E-02 0.88706995E+02</pdfrwt>
<totfact> 0.11712174E+05</totfact>
</mgrwt>
</event>
<event>
 5    1  0.6079230E+000  0.9071210E+02  0.7546771E-02  0.1301136E+00
         -1   -1    0    0    0  501 -0.00000000000E+00  0.00000000000E+00  0.33994528961E+02  0.33994528961E+02  0.00000000000E+00 0.  1.
          1   -1    0    0  501    0  0.00000000000E+00 -0.00000000000E+00 -0.60514777166E+02  0.60514777166E+02  0.00000000000E+00 0. -1.
         23    2    1    2    0    0  0.00000000000E+00  0.00000000000E+00 -0.26520248205E+02  0.94509306128E+02  0.90712101618E+02 0.  0.
        -13    1    3    3    0    0  0.32019715785E+02 -0.82363764250E+01  0.19089103207E+02  0.38177139191E+02  0.00000000000E+00 0.  1.
         13    1    3    3    0    0 -0.32019715785E+02  0.82363764250E+01 -0.45609351413E+02  0.56332166937E+02  0.00000000000E+00 0. -1.
<mgrwt>
<rscale>  0 0.90712102E+02</rscale>
<asrwt>0</asrwt>
<pdfrwt beam="2">  1        1 0.93099656E-02 0.90712102E+02</pdfrwt>
<pdfrwt beam="1">  1       -1 0.52299276E-02 0.90712102E+02</pdfrwt>
<totfact> 0.97871988E+04</totfact>
</mgrwt>
</event>
<event>
 4    1  0.6079230E+000  0.3808203E+02  0.7546771E-02  0.1522819E+00
          4   -1    0    0  501    0  0.00000000000E+00  0.00000000000E+00  0.17407122593E+02  0.17407122593E+02  0.00000000000E+00 0.  1.
         -4   -1    0    0    0  501 -0.00000000000E+00 -0.00000000000E+00 -0.20828269136E+02  0.20828269136E+02  0.00000000000E+00 0. -1.
        -13    1    1    2    0    0 -0.13895402054E+02  0.12094874048E+02 -0.65457806564E+01  0.19550330455E+02  0.00000000000E+00 0. -1.
         13    1    1    2    0    0  0.13895402054E+02 -0.12094874048E+02  0.31246341136E+01  0.18685061275E+02  0.00000000000E+00 0.  1.
<mgrwt>
<rscale>  0 0.38082029E+02</rscale>
<asrwt>0</asrwt>
<pdfrwt beam="1">  1        4 0.26780189E-02 0.38082029E+02</pdfrwt>
<pdfrwt beam="2">  1       -4 0.32043491E-02 0.38082029E+02</pdfrwt>
<totfact> 0.29039401E+05</totfact>
</mgrwt>
</event>
<event>
 5    1  0.6079230E+000  0.9186158E+02  0.7546771E-02  0.1298405E+00
         -1   -1    0    0    0  501 -0.00000000000E+00  0.00000000000E+00  0.26463817941E+02  0.26463817941E+02  0.00000000000E+00 0.  1.
          1   -1    0    0  501    0  0.00000000000E+00 -0.00000000000E+00 -0.79717811485E+02  0.79717811485E+02  0.00000000000E+00 0. -1.
         23    2    1    2    0    0  0.00000000000E+00  0.00000000000E+00 -0.53253993544E+02  0.10618162943E+03  0.91861583914E+02 0.  0.
        -13    1    3    3    0    0 -0.31652164691E+02  0.28539308082E+02 -0.68317402970E+01  0.43162765330E+02  0.00000000000E+00 0. -1.
         13    1    3    3    0    0  0.31652164691E+02 -0.28539308082E+02 -0.46422253247E+02  0.63018864097E+02  0.00000000000E+00 0.  1.
<mgrwt>
<rscale>  0 0.91861584E+02</rscale>
<asrwt>0</asrwt>
<pdfrwt beam="2">  1        1 0.12264279E-01 0.91861584E+02</pdfrwt>
<pdfrwt beam="1">  1       -1 0.40713566E-02 0.91861584E+02</pdfrwt>
<totfact> 0.98638075E+04</totfact>
</mgrwt>
</event>
<event>
 5    1  0.6079230E+000  0.9152877E+02  0.7546771E-02  0.1299191E+00
          1   -1    0    0  501    0  0.00000000000E+00  0.00000000000E+00  0.14299169602E+03  0.14299169602E+03  0.00000000000E+00 0. -1.
         -1   -1    0    0    0  501 -0.00000000000E+00 -0.00000000000E+00 -0.14646857943E+02  0.14646857943E+02  0.00000000000E+00 0.  1.
         23    2    1    2    0    0  0.00000000000E+00  0.00000000000E+00  0.12834483807E+03  0.15763855396E+03  0.91528772714E+02 0.  0.
        -13    1    3    3    0    0  0.39384477231E+02  0.18663237400E+02  0.88218218598E+02  0.98396684749E+02  0.00000000000E+00 0.  1.
         13    1    3    3    0    0 -0.39384477231E+02 -0.18663237400E+02  0.40126619475E+02  0.59241869210E+02  0.00000000000E+00 0. -1.
<mgrwt>
<rscale>  0 0.91528773E+02</rscale>
<asrwt>0</asrwt>
<pdfrwt beam="1">  1        1 0.21998722E-01 0.91528773E+02</pdfrwt>
<pdfrwt beam="2">  1       -1 0.22533629E-02 0.91528773E+02</pdfrwt>
<totfact> 0.11000395E+05</totfact>
</mgrwt>
</event>
<event>
 5    1  0.6079230E+000  0.9097342E+02  0.7546771E-02  0.1300511E+00
         -1   -1    0    0    0  501 -0.00000000000E+00  0.00000000000E+00  0.18235024532E+02  0.18235024532E+02  0.00000000000E+00 0. -1.
          1   -1    0    0  501    0  0.00000000000E+00 -0.00000000000E+00 -0.11346520161E+03  0.11346520161E+03  0.00000000000E+00 0.  1.
         23    2    1    2    0    0  0.00000000000E+00  0.00000000000E+00 -0.95230177078E+02  0.13170022614E+03  0.90973418864E+02 0.  0.
        -13    1    3    3    0    0 -0.15716796409E+02 -0.11334287575E+02  0.11960989521E+02  0.22771671755E+02  0.00000000000E+00 0. -1.
         13    1    3    3    0    0  0.15716796409E+02  0.11334287575E+02 -0.10719116660E+03  0.10892855439E+03  0.00000000000E+00 0.  1.
<mgrwt>
<rscale>  0 0.90973419E+02</rscale>
<asrwt>0</asrwt>
<pdfrwt beam="2">  1        1 0.17456185E-01 0.90973419E+02</pdfrwt>
<pdfrwt beam="1">  1       -1 0.28053884E-02 0.90973419E+02</pdfrwt>
<totfact> 0.10735245E+05</totfact>
</mgrwt>
</event>
<event>
 5    1  0.6079230E+000  0.8967624E+02  0.7546771E-02  0.1303638E+00
         -1   -1    0    0    0  501 -0.00000000000E+00  0.00000000000E+00  0.17443310594E+02  0.17443310594E+02  0.00000000000E+00 0.  1.
          1   -1    0    0  501    0  0.00000000000E+00 -0.00000000000E+00 -0.11525663024E+03  0.11525663024E+03  0.00000000000E+00 0. -1.
         23    2    1    2    0    0  0.00000000000E+00  0.00000000000E+00 -0.97813319642E+02  0.13269994083E+03  0.89676244327E+02 0.  0.
        -13    1    3    3    0    0 -0.41171940092E+02  0.26062074236E+01 -0.22914258570E+02  0.47190933599E+02  0.00000000000E+00 0.  1.
         13    1    3    3    0    0  0.41171940092E+02 -0.26062074236E+01 -0.74899061072E+02  0.85509007230E+02  0.00000000000E+00 0. -1.
<mgrwt>
<rscale>  0 0.89676244E+02</rscale>
<asrwt>0</asrwt>
<pdfrwt beam="2">  1        1 0.17731790E-01 0.89676244E+02</pdfrwt>
<pdfrwt beam="1">  1       -1 0.26835861E-02 0.89676244E+02</pdfrwt>
<totfact> 0.11191198E+05</totfact>
</mgrwt>
</event>
<event>
 5    1  0.6079230E+000  0.9254452E+02  0.7546771E-02  0.1296804E+00
          2   -1    0    0  501    0  0.00000000000E+00  0.00000000000E+00  0.17865084840E+03  0.17865084840E+03  0.00000000000E+00 0. -1.
         -2   -1    0    0    0  501 -0.00000000000E+00 -0.00000000000E+00 -0.11984952755E+02  0.11984952755E+02  0.00000000000E+00 0.  1.
         23    2    1    2    0    0  0.00000000000E+00  0.00000000000E+00  0.16666589564E+03  0.19063580115E+03  0.92544518534E+02 0.  0.
        -13    1    3    3    0    0 -0.23080047276E+02  0.19912404243E+02  0.15504504964E+03  0.15801316351E+03  0.00000000000E+00 0. -1.
         13    1    3    3    0    0  0.23080047276E+02 -0.19912404243E+02  0.11620846007E+02  0.32622637645E+02  0.00000000000E+00 0.  1.
<mgrwt>
<rscale>  0 0.92544519E+02</rscale>
<asrwt>0</asrwt>
<pdfrwt beam="1">  1        2 0.27484744E-01 0.92544519E+02</pdfrwt>
<pdfrwt beam="2">  1       -2 0.18438390E-02 0.92544519E+02</pdfrwt>
<totfact> 0.14268580E+05</totfact>
</mgrwt>
</event>
<event>
 5    1  0.6079230E+000  0.9194700E+02  0.7546771E-02  0.1298204E+00
         -1   -1    0    0    0  501 -0.00000000000E+00  0.00000000000E+00  0.82015644166E+02  0.82015644166E+02  0.00000000000E+00 0.  1.
          1   -1    0    0  501    0  0.00000000000E+00 -0.00000000000E+00 -0.25770237764E+02  0.25770237764E+02  0.00000000000E+00 0. -1.
         23    2    1    2    0    0  0.00000000000E+00  0.00000000000E+00  0.56245406402E+02  0.10778588193E+03  0.91946998875E+02 0.  0.
        -13    1    3    3    0    0  0.26343660120E+02 -0.25614364372E+02  0.60513582954E+02  0.70795323381E+02  0.00000000000E+00 0.  1.
         13    1    3    3    0    0 -0.26343660120E+02  0.25614364372E+02 -0.42681765521E+01  0.36990558549E+02  0.00000000000E+00 0. -1.
<mgrwt>
<rscale>  0 0.91946999E+02</rscale>
<asrwt>0</asrwt>
<pdfrwt beam="2">  1        1 0.39646520E-02 0.91946999E+02</pdfrwt>
<pdfrwt beam="1">  1       -1 0.12617791E-01 0.91946999E+02</pdfrwt>
<totfact> 0.82494668E+04</totfact>
</mgrwt>
</event>
<event>
 5    1  0.6079230E+000  0.9196462E+02  0.7546771E-02  0.1298163E+00
          1   -1    0    0  501    0  0.00000000000E+00  0.00000000000E+00  0.10049228087E+02  0.10049228087E+02  0.00000000000E+00 0. -1.
         -1   -1    0    0    0  501 -0.00000000000E+00 -0.00000000000E+00 -0.21040151224E+03  0.21040151224E+03  0.00000000000E+00 0.  1.
         23    2    1    2    0    0  0.00000000000E+00  0.00000000000E+00 -0.20035228415E+03  0.22045074033E+03  0.91964618988E+02 0.  0.
        -13    1    3    3    0    0 -0.27584768330E+02  0.24718107799E+02 -0.16549367895E+03  0.16958791841E+03  0.00000000000E+00 0.  1.
         13    1    3    3    0    0  0.27584768330E+02 -0.24718107799E+02 -0.34858605198E+02  0.50862821917E+02  0.00000000000E+00 0. -1.
<mgrwt>
<rscale>  0 0.91964619E+02</rscale>
<asrwt>0</asrwt>
<pdfrwt beam="1">  1        1 0.15460352E-02 0.91964619E+02</pdfrwt>
<pdfrwt beam="2">  1       -1 0.32369460E-01 0.91964619E+02</pdfrwt>
<totfact> 0.66887566E+04</totfact>
</mgrwt>
</event>
<event>
 5    1  0.6079230E+000  0.9083684E+02  0.7546771E-02  0.1300838E+00
         -2   -1    0    0    0  501 -0.00000000000E+00  0.00000000000E+00  0.74838185472E+01  0.74838185472E+01  0.00000000000E+00 0.  1.
          2   -1    0    0  501    0  0.00000000000E+00 -0.00000000000E+00 -0.27563906966E+03  0.27563906966E+03  0.00000000000E+00 0. -1.
         23    2    1    2    0    0  0.00000000000E+00  0.00000000000E+00 -0.26815525111E+03  0.28312288821E+03  0.90836837943E+02 0.  0.
        -13    1    3    3    0    0  0.28075909285E+02  0.33799686360E+02 -0.98246656535E+02  0.10762472300E+03  0.00000000000E+00 0.  1.
         13    1    3    3    0    0 -0.28075909285E+02 -0.33799686360E+02 -0.16990859458E+03  0.17549816521E+03  0.00000000000E+00 0. -1.
<mgrwt>
<rscale>  0 0.90836838E+02</rscale>
<asrwt>0</asrwt>
<pdfrwt beam="2">  1        2 0.42406008E-01 0.90836838E+02</pdfrwt>
<pdfrwt beam="1">  1       -2 0.11513568E-02 0.90836838E+02</pdfrwt>
<totfact> 0.17582048E+05</totfact>
</mgrwt>
</event>
<event>
 5    1  0.6079230E+000  0.8960974E+02  0.7546771E-02  0.1303800E+00
          3   -1    0    0  501    0  0.00000000000E+00  0.00000000000E+00  0.34343783845E+02  0.34343783845E+02  0.00000000000E+00 0. -1.
         -3   -1    0    0    0  501 -0.00000000000E+00 -0.00000000000E+00 -0.58452398250E+02  0.58452398250E+02  0.00000000000E+00 0.  1.
         23    2    1    2    0    0  0.00000000000E+00  0.00000000000E+00 -0.24108614405E+02  0.92796182095E+02  0.89609743459E+02 0.  0.
        -13    1    3    3    0    0  0.96792412243E+01  0.40393066237E+02 -0.29450128199E+02  0.50917556517E+02  0.00000000000E+00 0. -1.
         13    1    3    3    0    0 -0.96792412243E+01 -0.40393066237E+02  0.53415137944E+01  0.41878625578E+02  0.00000000000E+00 0.  1.
<mgrwt>
<rscale>  0 0.89609743E+02</rscale>
<asrwt>0</asrwt>
<pdfrwt beam="1">  1        3 0.52836590E-02 0.89609743E+02</pdfrwt>
<pdfrwt beam="2">  1       -3 0.89926767E-02 0.89609743E+02</pdfrwt>
<totfact> 0.36914040E+04</totfact>
</mgrwt>
</event>
<event>
 5    1  0.6079230E+000  0.9176829E+02  0.7546771E-02  0.1298625E+00
          1   -1    0    0  501    0  0.00000000000E+00  0.00000000000E+00  0.14007105110E+03  0.14007105110E+03  0.00000000000E+00 0. -1.
         -1   -1    0    0    0  501 -0.00000000000E+00 -0.00000000000E+00 -0.15030620882E+02  0.15030620882E+02  0.00000000000E+00 0.  1.
         23    2    1    2    0    0  0.00000000000E+00  0.00000000000E+00  0.12504043021E+03  0.15510167198E+03  0.91768292249E+02 0.  0.
        -13    1    3    3    0    0 -0.41592642771E+02 -0.30227975240E+01  0.30173939445E+02  0.51473797792E+02  0.00000000000E+00 0.  1.
         13    1    3    3    0    0  0.41592642771E+02  0.30227975240E+01  0.94866490768E+02  0.10362787419E+03  0.00000000000E+00 0. -1.
<mgrwt>
<rscale>  0 0.91768292E+02</rscale>
<asrwt>0</asrwt>
<pdfrwt beam="1">  1        1 0.21549392E-01 0.91768292E+02</pdfrwt>
<pdfrwt beam="2">  1       -1 0.23124033E-02 0.91768292E+02</pdfrwt>
<totfact> 0.10881988E+05</totfact>
</mgrwt>
</event>
<event>
 5    1  0.6079230E+000  0.8898354E+02  0.7546771E-02  0.1305332E+00
         -2   -1    0    0    0  501 -0.00000000000E+00  0.00000000000E+00  0.53860661567E+01  0.53860661567E+01  0.00000000000E+00 0.  1.
          2   -1    0    0  501    0  0.00000000000E+00 -0.00000000000E+00 -0.36752570387E+03  0.36752570387E+03  0.00000000000E+00 0. -1.
         23    2    1    2    0    0  0.00000000000E+00  0.00000000000E+00 -0.36213963771E+03  0.37291177003E+03  0.88983543543E+02 0.  0.
        -13    1    3    3    0    0  0.22772581163E+02  0.35504939852E+02 -0.24038497103E+03  0.24405762742E+03  0.00000000000E+00 0. -1.
         13    1    3    3    0    0 -0.22772581163E+02 -0.35504939852E+02 -0.12175466669E+03  0.12885414261E+03  0.00000000000E+00 0.  1.
<mgrwt>
<rscale>  0 0.88983544E+02</rscale>
<asrwt>0</asrwt>
<pdfrwt beam="2">  1        2 0.56542441E-01 0.88983544E+02</pdfrwt>
<pdfrwt beam="1">  1       -2 0.82862520E-03 0.88983544E+02</pdfrwt>
<totfact> 0.20653691E+05</totfact>
</mgrwt>
</event>
<event>
 5    1  0.6079230E+000  0.9033243E+02  0.7546771E-02  0.1302049E+00
         -3   -1    0    0    0  501 -0.00000000000E+00  0.00000000000E+00  0.41704105318E+02  0.41704105318E+02  0.00000000000E+00 0.  1.
          3   -1    0    0  501    0  0.00000000000E+00 -0.00000000000E+00 -0.48915734292E+02  0.48915734292E+02  0.00000000000E+00 0. -1.
         23    2    1    2    0    0  0.00000000000E+00  0.00000000000E+00 -0.72116289747E+01  0.90619839610E+02  0.90332429052E+02 0.  0.
        -13    1    3    3    0    0 -0.62787016521E+01  0.27909846766E+02 -0.38668490081E+02  0.48100247048E+02  0.00000000000E+00 0. -1.
         13    1    3    3    0    0  0.62787016521E+01 -0.27909846766E+02  0.31456861107E+02  0.42519592562E+02  0.00000000000E+00 0.  1.
<mgrwt>
<rscale>  0 0.90332429E+02</rscale>
<asrwt>0</asrwt>
<pdfrwt beam="2">  1        3 0.75254976E-02 0.90332429E+02</pdfrwt>
<pdfrwt beam="1">  1       -3 0.64160162E-02 0.90332429E+02</pdfrwt>
<totfact> 0.36288557E+04</totfact>
</mgrwt>
</event>
<event>
 5    1  0.6079230E+000  0.9004527E+02  0.7546771E-02  0.1302742E+00
          1   -1    0    0  501    0  0.00000000000E+00  0.00000000000E+00  0.28729007122E+02  0.28729007122E+02  0.00000000000E+00 0. -1.
         -1   -1    0    0    0  501 -0.00000000000E+00 -0.00000000000E+00 -0.70557180678E+02  0.70557180678E+02  0.00000000000E+00 0.  1.
         23    2    1    2    0    0  0.00000000000E+00  0.00000000000E+00 -0.41828173556E+02  0.99286187799E+02  0.90045271862E+02 0.  0.
        -13    1    3    3    0    0  0.13039575499E+02  0.91785106972E+01 -0.67339219982E+02  0.69201489403E+02  0.00000000000E+00 0.  1.
         13    1    3    3    0    0 -0.13039575499E+02 -0.91785106972E+01  0.25511046426E+02  0.30084698396E+02  0.00000000000E+00 0. -1.
<mgrwt>
<rscale>  0 0.90045272E+02</rscale>
<asrwt>0</asrwt>
<pdfrwt beam="1">  1        1 0.44198473E-02 0.90045272E+02</pdfrwt>
<pdfrwt beam="2">  1       -1 0.10854951E-01 0.90045272E+02</pdfrwt>
<totfact> 0.89222301E+04</totfact>
</mgrwt>
</event>
<event>
 5    1  0.6079230E+000  0.8932916E+02  0.7546771E-02  0.1304484E+00
          2   -1    0    0  501    0  0.00000000000E+00  0.00000000000E+00  0.73390153840E+02  0.73390153840E+02  0.00000000000E+00 0. -1.
         -2   -1    0    0    0  501 -0.00000000000E+00 -0.00000000000E+00 -0.27182457512E+02  0.27182457512E+02  0.00000000000E+00 0.  1.
         23    2    1    2    0    0  0.00000000000E+00  0.00000000000E+00  0.46207696327E+02  0.10057261135E+03  0.89329160716E+02 0.  0.
        -13    1    3    3    0    0 -0.94143432227E+01 -0.89738908776E+01 -0.25003211367E+02  0.28183703704E+02  0.00000000000E+00 0.  1.
         13    1    3    3    0    0  0.94143432227E+01  0.89738908776E+01  0.71210907694E+02  0.72388907648E+02  0.00000000000E+00 0. -1.
<mgrwt>
<rscale>  0 0.89329161E+02</rscale>
<asrwt>0</asrwt>
<pdfrwt beam="1">  1        2 0.11290793E-01 0.89329161E+02</pdfrwt>
<pdfrwt beam="2">  1       -2 0.41819166E-02 0.89329161E+02</pdfrwt>
<totfact> 0.11866074E+05</totfact>
</mgrwt>
</event>
<event>
 5    1  0.6079230E+000  0.9278247E+02  0.7546771E-02  0.1296250E+00
          3   -1    0    0  501    0  0.00000000000E+00  0.00000000000E+00  0.18693577978E+02  0.18693577978E+02  0.00000000000E+00 0. -1.
         -3   -1    0    0    0  501 -0.00000000000E+00 -0.00000000000E+00 -0.11512758619E+03  0.11512758619E+03  0.00000000000E+00 0.  1.
         23    2    1    2    0    0  0.00000000000E+00  0.00000000000E+00 -0.96434008216E+02  0.13382116417E+03  0.92782466231E+02 0.  0.
        -13    1    3    3    0    0 -0.21344553386E+02  0.27846712961E+02 -0.44429953501E+01  0.35366221026E+02  0.00000000000E+00 0. -1.
         13    1    3    3    0    0  0.21344553386E+02 -0.27846712961E+02 -0.91991012865E+02  0.98454943146E+02  0.00000000000E+00 0.  1.
<mgrwt>
<rscale>  0 0.92782466E+02</rscale>
<asrwt>0</asrwt>
<pdfrwt beam="1">  1        3 0.28759351E-02 0.92782466E+02</pdfrwt>
<pdfrwt beam="2">  1       -3 0.17711936E-01 0.92782466E+02</pdfrwt>
<totfact> 0.30829282E+04</totfact>
</mgrwt>
</event>
<event>
 5    1  0.6079230E+000  0.8682948E+02  0.7546771E-02  0.1310716E+00
          2   -1    0    0  501    0  0.00000000000E+00  0.00000000000E+00  0.77840394986E+02  0.77840394986E+02  0.00000000000E+00 0. -1.
         -2   -1    0    0    0  501 -0.00000000000E+00 -0.00000000000E+00 -0.24214156206E+02  0.24214156206E+02  0.00000000000E+00 0.  1.
         23    2    1    2    0    0  0.00000000000E+00  0.00000000000E+00  0.53626238779E+02  0.10205455119E+03  0.86829476178E+02 0.  0.
        -13    1    3    3    0    0  0.16420605855E+01 -0.35569726165E+02 -0.23803594965E+01  0.35687083010E+02  0.00000000000E+00 0.  1.
         13    1    3    3    0    0 -0.16420605855E+01  0.35569726165E+02  0.56006598276E+02  0.66367468182E+02  0.00000000000E+00 0. -1.
<mgrwt>
<rscale>  0 0.86829476E+02</rscale>
<asrwt>0</asrwt>
<pdfrwt beam="1">  1        2 0.11975445E-01 0.86829476E+02</pdfrwt>
<pdfrwt beam="2">  1       -2 0.37252549E-02 0.86829476E+02</pdfrwt>
<totfact> 0.13047601E+05</totfact>
</mgrwt>
</event>
<event>
 5    1  0.6079230E+000  0.1009219E+03  0.7546771E-02  0.1278369E+00
         -2   -1    0    0    0  501 -0.00000000000E+00  0.00000000000E+00  0.71747327232E+02  0.71747327232E+02  0.00000000000E+00 0.  1.
          2   -1    0    0  501    0  0.00000000000E+00 -0.00000000000E+00 -0.35489948676E+02  0.35489948676E+02  0.00000000000E+00 0. -1.
         23    2    1    2    0    0  0.00000000000E+00  0.00000000000E+00  0.36257378555E+02  0.10723727591E+03  0.10092192945E+03 0.  0.
        -13    1    3    3    0    0 -0.22192535672E+02 -0.60465043295E+01 -0.29595551215E+02  0.37482869499E+02  0.00000000000E+00 0. -1.
         13    1    3    3    0    0  0.22192535672E+02  0.60465043295E+01  0.65852929770E+02  0.69754406409E+02  0.00000000000E+00 0.  1.
<mgrwt>
<rscale>  0 0.10092193E+03</rscale>
<asrwt>0</asrwt>
<pdfrwt beam="2">  1        2 0.54599921E-02 0.10092193E+03</pdfrwt>
<pdfrwt beam="1">  1       -2 0.11038050E-01 0.10092193E+03</pdfrwt>
<totfact> 0.68450478E+04</totfact>
</mgrwt>
</event>
<event>
 5    1  0.6079230E+000  0.9046093E+02  0.7546771E-02  0.1301739E+00
          1   -1    0    0  501    0  0.00000000000E+00  0.00000000000E+00  0.73272848167E+02  0.73272848167E+02  0.00000000000E+00 0. -1.
         -1   -1    0    0    0  501 -0.00000000000E+00 -0.00000000000E+00 -0.27920231176E+02  0.27920231176E+02  0.00000000000E+00 0.  1.
         23    2    1    2    0    0  0.00000000000E+00  0.00000000000E+00  0.45352616991E+02  0.10119307934E+03  0.90460927692E+02 0.  0.
        -13    1    3    3    0    0 -0.58275441150E+01 -0.34692123064E+02 -0.91271021123E+01  0.36342917688E+02  0.00000000000E+00 0.  1.
         13    1    3    3    0    0  0.58275441150E+01  0.34692123064E+02  0.54479719103E+02  0.64850161655E+02  0.00000000000E+00 0. -1.
<mgrwt>
<rscale>  0 0.90460928E+02</rscale>
<asrwt>0</asrwt>
<pdfrwt beam="1">  1        1 0.11272746E-01 0.90460928E+02</pdfrwt>
<pdfrwt beam="2">  1       -1 0.42954202E-02 0.90460928E+02</pdfrwt>
<totfact> 0.10154569E+05</totfact>
</mgrwt>
</event>
<event>
 5    1  0.6079230E+000  0.9054815E+02  0.7546771E-02  0.1301530E+00
          1   -1    0    0  501    0  0.00000000000E+00  0.00000000000E+00  0.63532895318E+01  0.63532895318E+01  0.00000000000E+00 0. -1.
         -1   -1    0    0    0  501 -0.00000000000E+00 -0.00000000000E+00 -0.32262688574E+03  0.32262688574E+03  0.00000000000E+00 0.  1.
         23    2    1    2    0    0  0.00000000000E+00  0.00000000000E+00 -0.31627359621E+03  0.32898017527E+03  0.90548153285E+02 0.  0.
        -13    1    3    3    0    0 -0.38939968889E+02 -0.23026215430E+02 -0.15162307339E+03  0.15822794999E+03  0.00000000000E+00 0.  1.
         13    1    3    3    0    0  0.38939968889E+02  0.23026215430E+02 -0.16465052282E+03  0.17075222528E+03  0.00000000000E+00 0. -1.
<mgrwt>
<rscale>  0 0.90548153E+02</rscale>
<asrwt>0</asrwt>
<pdfrwt beam="1">  1        1 0.97742906E-03 0.90548153E+02</pdfrwt>
<pdfrwt beam="2">  1       -1 0.49634910E-01 0.90548153E+02</pdfrwt>
<totfact> 0.59898879E+04</totfact>
</mgrwt>
</event>
<event>
 5    1  0.6079230E+000  0.9193891E+02  0.7546771E-02  0.1298223E+00
         -3   -1    0    0    0  501 -0.00000000000E+00  0.00000000000E+00  0.40029784519E+02  0.40029784519E+02  0.00000000000E+00 0.  1.
          3   -1    0    0  501    0  0.00000000000E+00 -0.00000000000E+00 -0.52790456068E+02  0.52790456068E+02  0.00000000000E+00 0. -1.
         23    2    1    2    0    0  0.00000000000E+00  0.00000000000E+00 -0.12760671550E+02  0.92820240587E+02  0.91938905390E+02 0.  0.
        -13    1    3    3    0    0  0.19950519913E+02 -0.33714892275E+02  0.17901697415E+02  0.43071893112E+02  0.00000000000E+00 0.  1.
         13    1    3    3    0    0 -0.19950519913E+02  0.33714892275E+02 -0.30662368965E+02  0.49748347475E+02  0.00000000000E+00 0. -1.
<mgrwt>
<rscale>  0 0.91938905E+02</rscale>
<asrwt>0</asrwt>
<pdfrwt beam="2">  1        3 0.81216086E-02 0.91938905E+02</pdfrwt>
<pdfrwt beam="1">  1       -3 0.61584284E-02 0.91938905E+02</pdfrwt>
<totfact> 0.34421857E+04</totfact>
</mgrwt>
</event>
<event>
 5    1  0.6079230E+000  0.8974679E+02  0.7546771E-02  0.1303466E+00
          1   -1    0    0  501    0  0.00000000000E+00  0.00000000000E+00  0.11944937178E+02  0.11944937178E+02  0.00000000000E+00 0. -1.
         -1   -1    0    0    0  501 -0.00000000000E+00 -0.00000000000E+00 -0.16857530252E+03  0.16857530252E+03  0.00000000000E+00 0.  1.
         23    2    1    2    0    0  0.00000000000E+00  0.00000000000E+00 -0.15663036534E+03  0.18052023969E+03  0.89746785976E+02 0.  0.
        -13    1    3    3    0    0 -0.20641766857E+02 -0.35583845685E+02 -0.42258828310E+02  0.58975428637E+02  0.00000000000E+00 0.  1.
         13    1    3    3    0    0  0.20641766857E+02  0.35583845685E+02 -0.11437153703E+03  0.12154481106E+03  0.00000000000E+00 0. -1.
<mgrwt>
<rscale>  0 0.89746786E+02</rscale>
<asrwt>0</asrwt>
<pdfrwt beam="1">  1        1 0.18376826E-02 0.89746786E+02</pdfrwt>
<pdfrwt beam="2">  1       -1 0.25934663E-01 0.89746786E+02</pdfrwt>
<totfact> 0.75739681E+04</totfact>
</mgrwt>
</event>
<event>
 5    1  0.6079230E+000  0.9395390E+02  0.7546771E-02  0.1293550E+00
          1   -1    0    0  501    0  0.00000000000E+00  0.00000000000E+00  0.12423193619E+02  0.12423193619E+02  0.00000000000E+00 0. -1.
         -1   -1    0    0    0  501 -0.00000000000E+00 -0.00000000000E+00 -0.17763818781E+03  0.17763818781E+03  0.00000000000E+00 0.  1.
         23    2    1    2    0    0  0.00000000000E+00  0.00000000000E+00 -0.16521499419E+03  0.19006138142E+03  0.93953895102E+02 0.  0.
        -13    1    3    3    0    0 -0.18088037860E+02 -0.43291062143E+02 -0.77845921585E+02  0.90891587524E+02  0.00000000000E+00 0.  1.
         13    1    3    3    0    0  0.18088037860E+02  0.43291062143E+02 -0.87369072601E+02  0.99169793900E+02  0.00000000000E+00 0. -1.
<mgrwt>
<rscale>  0 0.93953895E+02</rscale>
<asrwt>0</asrwt>
<pdfrwt beam="1">  1        1 0.19112605E-02 0.93953895E+02</pdfrwt>
<pdfrwt beam="2">  1       -1 0.27328952E-01 0.93953895E+02</pdfrwt>
<totfact> 0.66325557E+04</totfact>
</mgrwt>
</event>
<event>
 5    1  0.6079230E+000  0.9201294E+02  0.7546771E-02  0.1298049E+00
          2   -1    0    0  501    0  0.00000000000E+00  0.00000000000E+00  0.11193778407E+02  0.11193778407E+02  0.00000000000E+00 0. -1.
         -2   -1    0    0    0  501 -0.00000000000E+00 -0.00000000000E+00 -0.18908674693E+03  0.18908674693E+03  0.00000000000E+00 0.  1.
         23    2    1    2    0    0  0.00000000000E+00  0.00000000000E+00 -0.17789296852E+03  0.20028052534E+03  0.92012937021E+02 0.  0.
        -13    1    3    3    0    0 -0.22573870371E+02 -0.29025280551E+02 -0.28760913975E+02  0.46682295437E+02  0.00000000000E+00 0. -1.
         13    1    3    3    0    0  0.22573870371E+02  0.29025280551E+02 -0.14913205455E+03  0.15359822990E+03  0.00000000000E+00 0.  1.
<mgrwt>
<rscale>  0 0.92012937E+02</rscale>
<asrwt>0</asrwt>
<pdfrwt beam="1">  1        2 0.17221198E-02 0.92012937E+02</pdfrwt>
<pdfrwt beam="2">  1       -2 0.29090267E-01 0.92012937E+02</pdfrwt>
<totfact> 0.62355404E+04</totfact>
</mgrwt>
</event>
<event>
 5    1  0.6079230E+000  0.9144971E+02  0.7546771E-02  0.1299379E+00
          1   -1    0    0  501    0  0.00000000000E+00  0.00000000000E+00  0.21307188932E+02  0.21307188932E+02  0.00000000000E+00 0. -1.
         -1   -1    0    0    0  501 -0.00000000000E+00 -0.00000000000E+00 -0.98124737317E+02  0.98124737317E+02  0.00000000000E+00 0.  1.
         23    2    1    2    0    0  0.00000000000E+00  0.00000000000E+00 -0.76817548385E+02  0.11943192625E+03  0.91449708955E+02 0.  0.
        -13    1    3    3    0    0  0.44764779460E+02  0.92980449243E+01 -0.37559183722E+02  0.59169514121E+02  0.00000000000E+00 0.  1.
         13    1    3    3    0    0 -0.44764779460E+02 -0.92980449243E+01 -0.39258364663E+02  0.60262412128E+02  0.00000000000E+00 0. -1.
<mgrwt>
<rscale>  0 0.91449709E+02</rscale>
<asrwt>0</asrwt>
<pdfrwt beam="1">  1        1 0.32780291E-02 0.91449709E+02</pdfrwt>
<pdfrwt beam="2">  1       -1 0.15096113E-01 0.91449709E+02</pdfrwt>
<totfact> 0.81029926E+04</totfact>
</mgrwt>
</event>
<event>
 5    1  0.6079230E+000  0.8902262E+02  0.7546771E-02  0.1305236E+00
          1   -1    0    0  501    0  0.00000000000E+00  0.00000000000E+00  0.67460859151E+02  0.67460859151E+02  0.00000000000E+00 0. -1.
         -1   -1    0    0    0  501 -0.00000000000E+00 -0.00000000000E+00 -0.29368980222E+02  0.29368980222E+02  0.00000000000E+00 0.  1.
         23    2    1    2    0    0  0.00000000000E+00  0.00000000000E+00  0.38091878929E+02  0.96829839373E+02  0.89022618209E+02 0.  0.
        -13    1    3    3    0    0  0.15474355559E+02 -0.50812719221E+01 -0.26011360788E+02  0.30689833730E+02  0.00000000000E+00 0.  1.
         13    1    3    3    0    0 -0.15474355559E+02  0.50812719221E+01  0.64103239717E+02  0.66140005644E+02  0.00000000000E+00 0. -1.
<mgrwt>
<rscale>  0 0.89022618E+02</rscale>
<asrwt>0</asrwt>
<pdfrwt beam="1">  1        1 0.10378594E-01 0.89022618E+02</pdfrwt>
<pdfrwt beam="2">  1       -1 0.45183047E-02 0.89022618E+02</pdfrwt>
<totfact> 0.10478645E+05</totfact>
</mgrwt>
</event>
<event>
 5    1  0.6079230E+000  0.8842597E+02  0.7546771E-02  0.1306709E+00
         -2   -1    0    0    0  501 -0.00000000000E+00  0.00000000000E+00  0.26413990707E+02  0.26413990707E+02  0.00000000000E+00 0.  1.
          2   -1    0    0  501    0  0.00000000000E+00 -0.00000000000E+00 -0.74005779421E+02  0.74005779421E+02  0.00000000000E+00 0. -1.
         23    2    1    2    0    0  0.00000000000E+00  0.00000000000E+00 -0.47591788715E+02  0.10041977013E+03  0.88425968355E+02 0.  0.
        -13    1    3    3    0    0  0.14444346595E+02 -0.87707629441E+01  0.22601812692E+02  0.28220690427E+02  0.00000000000E+00 0.  1.
         13    1    3    3    0    0 -0.14444346595E+02  0.87707629441E+01 -0.70193601407E+02  0.72199079701E+02  0.00000000000E+00 0. -1.
<mgrwt>
<rscale>  0 0.88425968E+02</rscale>
<asrwt>0</asrwt>
<pdfrwt beam="2">  1        2 0.11385504E-01 0.88425968E+02</pdfrwt>
<pdfrwt beam="1">  1       -2 0.40636909E-02 0.88425968E+02</pdfrwt>
<totfact> 0.12233839E+05</totfact>
</mgrwt>
</event>
<event>
 5    1  0.6079230E+000  0.8987867E+02  0.7546771E-02  0.1303146E+00
         -2   -1    0    0    0  501 -0.00000000000E+00  0.00000000000E+00  0.12799841419E+03  0.12799841419E+03  0.00000000000E+00 0.  1.
          2   -1    0    0  501    0  0.00000000000E+00 -0.00000000000E+00 -0.15777881576E+02  0.15777881576E+02  0.00000000000E+00 0. -1.
         23    2    1    2    0    0  0.00000000000E+00  0.00000000000E+00  0.11222053261E+03  0.14377629576E+03  0.89878669794E+02 0.  0.
        -13    1    3    3    0    0  0.12575178692E+02  0.30637550938E+02  0.75174034071E+01  0.33960359253E+02  0.00000000000E+00 0. -1.
         13    1    3    3    0    0 -0.12575178692E+02 -0.30637550938E+02  0.10470312920E+03  0.10981593651E+03  0.00000000000E+00 0.  1.
<mgrwt>
<rscale>  0 0.89878670E+02</rscale>
<asrwt>0</asrwt>
<pdfrwt beam="2">  1        2 0.24273665E-02 0.89878670E+02</pdfrwt>
<pdfrwt beam="1">  1       -2 0.19692063E-01 0.89878670E+02</pdfrwt>
<totfact> 0.76542560E+04</totfact>
</mgrwt>
</event>
<event>
 5    1  0.6079230E+000  0.8955860E+02  0.7546771E-02  0.1303924E+00
         -2   -1    0    0    0  501 -0.00000000000E+00  0.00000000000E+00  0.10001251812E+02  0.10001251812E+02  0.00000000000E+00 0.  1.
          2   -1    0    0  501    0  0.00000000000E+00 -0.00000000000E+00 -0.20049346251E+03  0.20049346251E+03  0.00000000000E+00 0. -1.
         23    2    1    2    0    0  0.00000000000E+00  0.00000000000E+00 -0.19049221070E+03  0.21049471432E+03  0.89558597695E+02 0.  0.
        -13    1    3    3    0    0  0.96550046205E-01  0.44749293530E+02 -0.91400550040E+02  0.10176723019E+03  0.00000000000E+00 0.  1.
         13    1    3    3    0    0 -0.96550046205E-01 -0.44749293530E+02 -0.99091660655E+02  0.10872748413E+03  0.00000000000E+00 0. -1.
<mgrwt>
<rscale>  0 0.89558598E+02</rscale>
<asrwt>0</asrwt>
<pdfrwt beam="2">  1        2 0.30845145E-01 0.89558598E+02</pdfrwt>
<pdfrwt beam="1">  1       -2 0.15386543E-02 0.89558598E+02</pdfrwt>
<totfact> 0.16245098E+05</totfact>
</mgrwt>
</event>
<event>
 5    1  0.6079230E+000  0.9319322E+02  0.7546771E-02  0.1295298E+00
          2   -1    0    0  501    0  0.00000000000E+00  0.00000000000E+00  0.25287597033E+03  0.25287597033E+03  0.00000000000E+00 0. -1.
         -2   -1    0    0    0  501 -0.00000000000E+00 -0.00000000000E+00 -0.85862022861E+01  0.85862022861E+01  0.00000000000E+00 0.  1.
         23    2    1    2    0    0  0.00000000000E+00  0.00000000000E+00  0.24428976804E+03  0.26146217261E+03  0.93193223670E+02 0.  0.
        -13    1    3    3    0    0  0.24578146767E+02  0.38695135408E+02  0.98697546555E+02  0.10882373132E+03  0.00000000000E+00 0.  1.
         13    1    3    3    0    0 -0.24578146767E+02 -0.38695135408E+02  0.14559222148E+03  0.15263844129E+03  0.00000000000E+00 0. -1.
<mgrwt>
<rscale>  0 0.93193224E+02</rscale>
<asrwt>0</asrwt>
<pdfrwt beam="1">  1        2 0.38903990E-01 0.93193224E+02</pdfrwt>
<pdfrwt beam="2">  1       -2 0.13209544E-02 0.93193224E+02</pdfrwt>
<totfact> 0.15896577E+05</totfact>
</mgrwt>
</event>
<event>
 5    1  0.6079230E+000  0.1107100E+03  0.7546771E-02  0.1259261E+00
         -2   -1    0    0    0  501 -0.00000000000E+00  0.00000000000E+00  0.24580546560E+02  0.24580546560E+02  0.00000000000E+00 0.  1.
          2   -1    0    0  501    0  0.00000000000E+00 -0.00000000000E+00 -0.12465849537E+03  0.12465849537E+03  0.00000000000E+00 0. -1.
         23    2    1    2    0    0  0.00000000000E+00  0.00000000000E+00 -0.10007794881E+03  0.14923904193E+03  0.11070996250E+03 0.  0.
        -13    1    3    3    0    0 -0.48585204437E+02 -0.91261515509E+00 -0.14302023682E+02  0.50654741515E+02  0.00000000000E+00 0. -1.
         13    1    3    3    0    0  0.48585204437E+02  0.91261515509E+00 -0.85775925124E+02  0.98584300410E+02  0.00000000000E+00 0.  1.
<mgrwt>
<rscale>  0 0.11070996E+03</rscale>
<asrwt>0</asrwt>
<pdfrwt beam="2">  1        2 0.19178230E-01 0.11070996E+03</pdfrwt>
<pdfrwt beam="1">  1       -2 0.37816225E-02 0.11070996E+03</pdfrwt>
<totfact> 0.76798396E+04</totfact>
</mgrwt>
</event>
<event>
 5    1  0.6079230E+000  0.9328677E+02  0.7546771E-02  0.1295082E+00
         -1   -1    0    0    0  501 -0.00000000000E+00  0.00000000000E+00  0.60522537370E+02  0.60522537370E+02  0.00000000000E+00 0.  1.
          1   -1    0    0  501    0  0.00000000000E+00 -0.00000000000E+00 -0.35947030852E+02  0.35947030852E+02  0.00000000000E+00 0. -1.
         23    2    1    2    0    0  0.00000000000E+00  0.00000000000E+00  0.24575506518E+02  0.96469568221E+02  0.93286773297E+02 0.  0.
        -13    1    3    3    0    0 -0.17737007381E+01  0.32840411672E+02  0.46491394866E+02  0.56948120687E+02  0.00000000000E+00 0.  1.
         13    1    3    3    0    0  0.17737007381E+01 -0.32840411672E+02 -0.21915888349E+02  0.39521447534E+02  0.00000000000E+00 0. -1.
<mgrwt>
<rscale>  0 0.93286773E+02</rscale>
<asrwt>0</asrwt>
<pdfrwt beam="2">  1        1 0.55303124E-02 0.93286773E+02</pdfrwt>
<pdfrwt beam="1">  1       -1 0.93111596E-02 0.93286773E+02</pdfrwt>
<totfact> 0.83563378E+04</totfact>
</mgrwt>
</event>
<event>
 5    1  0.6079230E+000  0.8950981E+02  0.7546771E-02  0.1304043E+00
         -2   -1    0    0    0  501 -0.00000000000E+00  0.00000000000E+00  0.31960896621E+02  0.31960896621E+02  0.00000000000E+00 0.  1.
          2   -1    0    0  501    0  0.00000000000E+00 -0.00000000000E+00 -0.62670374498E+02  0.62670374498E+02  0.00000000000E+00 0. -1.
         23    2    1    2    0    0  0.00000000000E+00  0.00000000000E+00 -0.30709477877E+02  0.94631271120E+02  0.89509806403E+02 0.  0.
        -13    1    3    3    0    0 -0.31369214120E+02 -0.27177463067E+02 -0.33056705420E+02  0.53060228670E+02  0.00000000000E+00 0. -1.
         13    1    3    3    0    0  0.31369214120E+02  0.27177463067E+02  0.23472275430E+01  0.41571042450E+02  0.00000000000E+00 0.  1.
<mgrwt>
<rscale>  0 0.89509806E+02</rscale>
<asrwt>0</asrwt>
<pdfrwt beam="2">  1        2 0.96415960E-02 0.89509806E+02</pdfrwt>
<pdfrwt beam="1">  1       -2 0.49170610E-02 0.89509806E+02</pdfrwt>
<totfact> 0.11302652E+05</totfact>
</mgrwt>
</event>
<event>
 5    1  0.6079230E+000  0.9575801E+02  0.7546771E-02  0.1289478E+00
         -1   -1    0    0    0  501 -0.00000000000E+00  0.00000000000E+00  0.12334720065E+02  0.12334720065E+02  0.00000000000E+00 0. -1.
          1   -1    0    0  501    0  0.00000000000E+00 -0.00000000000E+00 -0.18584931514E+03  0.18584931514E+03  0.00000000000E+00 0.  1.
         23    2    1    2    0    0  0.00000000000E+00  0.00000000000E+00 -0.17351459508E+03  0.19818403521E+03  0.95758013275E+02 0.  0.
        -13    1    3    3    0    0 -0.50338340981E+01  0.37879979369E+02 -0.14646065745E+03  0.15136365648E+03  0.00000000000E+00 0.  1.
         13    1    3    3    0    0  0.50338340981E+01 -0.37879979369E+02 -0.27053937622E+02  0.46820378721E+02  0.00000000000E+00 0. -1.
<mgrwt>
<rscale>  0 0.95758013E+02</rscale>
<asrwt>0</asrwt>
<pdfrwt beam="2">  1        1 0.28592204E-01 0.95758013E+02</pdfrwt>
<pdfrwt beam="1">  1       -1 0.18976491E-02 0.95758013E+02</pdfrwt>
<totfact> 0.10229311E+05</totfact>
</mgrwt>
</event>
<event>
 5    1  0.6079230E+000  0.6698383E+02  0.7546771E-02  0.1370661E+00
          2   -1    0    0  501    0  0.00000000000E+00  0.00000000000E+00  0.22226936007E+02  0.22226936007E+02  0.00000000000E+00 0. -1.
         -2   -1    0    0    0  501 -0.00000000000E+00 -0.00000000000E+00 -0.50466167363E+02  0.50466167363E+02  0.00000000000E+00 0.  1.
         23    2    1    2    0    0  0.00000000000E+00  0.00000000000E+00 -0.28239231355E+02  0.72693103370E+02  0.66983827078E+02 0.  0.
        -13    1    3    3    0    0 -0.18397130245E+02  0.27443207954E+02 -0.81632538064E+01  0.34032672195E+02  0.00000000000E+00 0.  1.
         13    1    3    3    0    0  0.18397130245E+02 -0.27443207954E+02 -0.20075977549E+02  0.38660431174E+02  0.00000000000E+00 0. -1.
<mgrwt>
<rscale>  0 0.66983827E+02</rscale>
<asrwt>0</asrwt>
<pdfrwt beam="1">  1        2 0.34195286E-02 0.66983827E+02</pdfrwt>
<pdfrwt beam="2">  1       -2 0.77640257E-02 0.66983827E+02</pdfrwt>
<totfact> 0.20121813E+05</totfact>
</mgrwt>
</event>
<event>
 5    1  0.6079230E+000  0.9272637E+02  0.7546771E-02  0.1296381E+00
          2   -1    0    0  501    0  0.00000000000E+00  0.00000000000E+00  0.32267147193E+02  0.32267147193E+02  0.00000000000E+00 0. -1.
         -2   -1    0    0    0  501 -0.00000000000E+00 -0.00000000000E+00 -0.66617138937E+02  0.66617138937E+02  0.00000000000E+00 0.  1.
         23    2    1    2    0    0  0.00000000000E+00  0.00000000000E+00 -0.34349991743E+02  0.98884286130E+02  0.92726372250E+02 0.  0.
        -13    1    3    3    0    0  0.27886946579E+02 -0.18790647403E+02  0.16862931885E+02  0.37618196276E+02  0.00000000000E+00 0. -1.
         13    1    3    3    0    0 -0.27886946579E+02  0.18790647403E+02 -0.51212923629E+02  0.61266089853E+02  0.00000000000E+00 0.  1.
<mgrwt>
<rscale>  0 0.92726372E+02</rscale>
<asrwt>0</asrwt>
<pdfrwt beam="1">  1        2 0.49641766E-02 0.92726372E+02</pdfrwt>
<pdfrwt beam="2">  1       -2 0.10248790E-01 0.92726372E+02</pdfrwt>
<totfact> 0.85808178E+04</totfact>
</mgrwt>
</event>
<event>
 5    1  0.6079230E+000  0.9331580E+02  0.7546771E-02  0.1295015E+00
          4   -1    0    0  501    0  0.00000000000E+00  0.00000000000E+00  0.14004499357E+02  0.14004499357E+02  0.00000000000E+00 0. -1.
         -4   -1    0    0    0  501 -0.00000000000E+00 -0.00000000000E+00 -0.15544716924E+03  0.15544716924E+03  0.00000000000E+00 0.  1.
         23    2    1    2    0    0  0.00000000000E+00  0.00000000000E+00 -0.14144266988E+03  0.16945166860E+03  0.93315803197E+02 0.  0.
        -13    1    3    3    0    0 -0.14727465543E+02 -0.31963431853E+02 -0.15094444767E+02  0.38293621923E+02  0.00000000000E+00 0. -1.
         13    1    3    3    0    0  0.14727465543E+02  0.31963431853E+02 -0.12634822512E+03  0.13115804667E+03  0.00000000000E+00 0.  1.
<mgrwt>
<rscale>  0 0.93315803E+02</rscale>
<asrwt>0</asrwt>
<pdfrwt beam="1">  1        4 0.21545385E-02 0.93315803E+02</pdfrwt>
<pdfrwt beam="2">  1       -4 0.23914948E-01 0.93315803E+02</pdfrwt>
<totfact> 0.21356264E+04</totfact>
</mgrwt>
</event>
<event>
 5    1  0.6079230E+000  0.7809398E+02  0.7546771E-02  0.1334549E+00
          1   -1    0    0  501    0  0.00000000000E+00  0.00000000000E+00  0.58961525903E+02  0.58961525903E+02  0.00000000000E+00 0. -1.
         -1   -1    0    0    0  501 -0.00000000000E+00 -0.00000000000E+00 -0.25858682205E+02  0.25858682205E+02  0.00000000000E+00 0.  1.
         23    2    1    2    0    0  0.00000000000E+00  0.00000000000E+00  0.33102843698E+02  0.84820208108E+02  0.78093978273E+02 0.  0.
        -13    1    3    3    0    0  0.13289998453E+02  0.82102434982E+01 -0.22316784920E+02  0.27240981009E+02  0.00000000000E+00 0.  1.
         13    1    3    3    0    0 -0.13289998453E+02 -0.82102434982E+01  0.55419628618E+02  0.57579227099E+02  0.00000000000E+00 0. -1.
<mgrwt>
<rscale>  0 0.78093978E+02</rscale>
<asrwt>0</asrwt>
<pdfrwt beam="1">  1        1 0.90710039E-02 0.78093978E+02</pdfrwt>
<pdfrwt beam="2">  1       -1 0.39782588E-02 0.78093978E+02</pdfrwt>
<totfact> 0.14699190E+05</totfact>
</mgrwt>
</event>
<event>
 5    1  0.6079230E+000  0.1144927E+03  0.7546771E-02  0.1252469E+00
         -2   -1    0    0    0  501 -0.00000000000E+00  0.00000000000E+00  0.18876955309E+02  0.18876955309E+02  0.00000000000E+00 0.  1.
          2   -1    0    0  501    0  0.00000000000E+00 -0.00000000000E+00 -0.17360566652E+03  0.17360566652E+03  0.00000000000E+00 0. -1.
         23    2    1    2    0    0  0.00000000000E+00  0.00000000000E+00 -0.15472871121E+03  0.19248262183E+03  0.11449273179E+03 0.  0.
        -13    1    3    3    0    0  0.26133049063E+02  0.35451493614E+02 -0.15882841784E+02  0.46818899132E+02  0.00000000000E+00 0.  1.
         13    1    3    3    0    0 -0.26133049063E+02 -0.35451493614E+02 -0.13884586943E+03  0.14566372270E+03  0.00000000000E+00 0. -1.
<mgrwt>
<rscale>  0 0.11449273E+03</rscale>
<asrwt>0</asrwt>
<pdfrwt beam="2">  1        2 0.26708565E-01 0.11449273E+03</pdfrwt>
<pdfrwt beam="1">  1       -2 0.29041469E-02 0.11449273E+03</pdfrwt>
<totfact> 0.78732010E+04</totfact>
</mgrwt>
</event>
<event>
 5    1  0.6079230E+000  0.8943343E+02  0.7546771E-02  0.1304230E+00
         -2   -1    0    0    0  501 -0.00000000000E+00  0.00000000000E+00  0.23137059382E+03  0.23137059382E+03  0.00000000000E+00 0.  1.
          2   -1    0    0  501    0  0.00000000000E+00 -0.00000000000E+00 -0.86423451610E+01  0.86423451610E+01  0.00000000000E+00 0. -1.
         23    2    1    2    0    0  0.00000000000E+00  0.00000000000E+00  0.22272824866E+03  0.24001293898E+03  0.89433428468E+02 0.  0.
        -13    1    3    3    0    0 -0.15218527206E+02 -0.41695258362E+02  0.96791237571E+02  0.10648305880E+03  0.00000000000E+00 0. -1.
         13    1    3    3    0    0  0.15218527206E+02  0.41695258362E+02  0.12593701109E+03  0.13352988018E+03  0.00000000000E+00 0.  1.
<mgrwt>
<rscale>  0 0.89433428E+02</rscale>
<asrwt>0</asrwt>
<pdfrwt beam="2">  1        2 0.13295917E-02 0.89433428E+02</pdfrwt>
<pdfrwt beam="1">  1       -2 0.35595471E-01 0.89433428E+02</pdfrwt>
<totfact> 0.61290418E+04</totfact>
</mgrwt>
</event>
<event>
 5    1  0.6079230E+000  0.8894256E+02  0.7546771E-02  0.1305433E+00
          1   -1    0    0  501    0  0.00000000000E+00  0.00000000000E+00  0.10011223644E+02  0.10011223644E+02  0.00000000000E+00 0. -1.
         -1   -1    0    0    0  501 -0.00000000000E+00 -0.00000000000E+00 -0.19754775924E+03  0.19754775924E+03  0.00000000000E+00 0.  1.
         23    2    1    2    0    0  0.00000000000E+00  0.00000000000E+00 -0.18753653559E+03  0.20755898288E+03  0.88942561198E+02 0.  0.
        -13    1    3    3    0    0  0.53080757429E+00 -0.44228909726E+02 -0.10451730715E+03  0.11349161073E+03  0.00000000000E+00 0.  1.
         13    1    3    3    0    0 -0.53080757429E+00  0.44228909726E+02 -0.83019228446E+02  0.94067372154E+02  0.00000000000E+00 0. -1.
<mgrwt>
<rscale>  0 0.88942561E+02</rscale>
<asrwt>0</asrwt>
<pdfrwt beam="1">  1        1 0.15401881E-02 0.88942561E+02</pdfrwt>
<pdfrwt beam="2">  1       -1 0.30391966E-01 0.88942561E+02</pdfrwt>
<totfact> 0.74313580E+04</totfact>
</mgrwt>
</event>
<event>
 5    1  0.6079230E+000  0.8923867E+02  0.7546771E-02  0.1304706E+00
          1   -1    0    0  501    0  0.00000000000E+00  0.00000000000E+00  0.33962121029E+02  0.33962121029E+02  0.00000000000E+00 0. -1.
         -1   -1    0    0    0  501 -0.00000000000E+00 -0.00000000000E+00 -0.58620753495E+02  0.58620753495E+02  0.00000000000E+00 0.  1.
         23    2    1    2    0    0  0.00000000000E+00  0.00000000000E+00 -0.24658632467E+02  0.92582874524E+02  0.89238671550E+02 0.  0.
        -13    1    3    3    0    0 -0.59361951465E+01 -0.27967918437E+02  0.23209947373E+02  0.36825867696E+02  0.00000000000E+00 0. -1.
         13    1    3    3    0    0  0.59361951465E+01  0.27967918437E+02 -0.47868579840E+02  0.55757006828E+02  0.00000000000E+00 0.  1.
<mgrwt>
<rscale>  0 0.89238672E+02</rscale>
<asrwt>0</asrwt>
<pdfrwt beam="1">  1        1 0.52249418E-02 0.89238672E+02</pdfrwt>
<pdfrwt beam="2">  1       -1 0.90185774E-02 0.89238672E+02</pdfrwt>
<totfact> 0.93975047E+04</totfact>
</mgrwt>
</event>
<event>
 5    1  0.6079230E+000  0.9162141E+02  0.7546771E-02  0.1298972E+00
          1   -1    0    0  501    0  0.00000000000E+00  0.00000000000E+00  0.13331428286E+03  0.13331428286E+03  0.00000000000E+00 0. -1.
         -1   -1    0    0    0  501 -0.00000000000E+00 -0.00000000000E+00 -0.15741905244E+02  0.15741905244E+02  0.00000000000E+00 0.  1.
         23    2    1    2    0    0  0.00000000000E+00  0.00000000000E+00  0.11757237761E+03  0.14905618810E+03  0.91621412527E+02 0.  0.
        -13    1    3    3    0    0 -0.42002174095E+02  0.32490507794E+01  0.29507856725E+02  0.51433963177E+02  0.00000000000E+00 0.  1.
         13    1    3    3    0    0  0.42002174095E+02 -0.32490507794E+01  0.88064520888E+02  0.97622224923E+02  0.00000000000E+00 0. -1.
<mgrwt>
<rscale>  0 0.91621413E+02</rscale>
<asrwt>0</asrwt>
<pdfrwt beam="1">  1        1 0.20509889E-01 0.91621413E+02</pdfrwt>
<pdfrwt beam="2">  1       -1 0.24218317E-02 0.91621413E+02</pdfrwt>
<totfact> 0.10832258E+05</totfact>
</mgrwt>
</event>
<event>
 5    1  0.6079230E+000  0.9093952E+02  0.7546771E-02  0.1300592E+00
          3   -1    0    0  501    0  0.00000000000E+00  0.00000000000E+00  0.14591560277E+02  0.14591560277E+02  0.00000000000E+00 0. -1.
         -3   -1    0    0    0  501 -0.00000000000E+00 -0.00000000000E+00 -0.14169142941E+03  0.14169142941E+03  0.00000000000E+00 0.  1.
         23    2    1    2    0    0  0.00000000000E+00  0.00000000000E+00 -0.12709986913E+03  0.15628298968E+03  0.90939519088E+02 0.  0.
        -13    1    3    3    0    0 -0.15236662322E+02  0.16201195958E+02  0.46061603998E+01  0.22712361014E+02  0.00000000000E+00 0. -1.
         13    1    3    3    0    0  0.15236662322E+02 -0.16201195958E+02 -0.13170602953E+03  0.13357062867E+03  0.00000000000E+00 0.  1.
<mgrwt>
<rscale>  0 0.90939519E+02</rscale>
<asrwt>0</asrwt>
<pdfrwt beam="1">  1        3 0.22448554E-02 0.90939519E+02</pdfrwt>
<pdfrwt beam="2">  1       -3 0.21798682E-01 0.90939519E+02</pdfrwt>
<totfact> 0.31146894E+04</totfact>
</mgrwt>
</event>
<event>
 5    1  0.6079230E+000  0.9559661E+02  0.7546771E-02  0.1289838E+00
         -2   -1    0    0    0  501 -0.00000000000E+00  0.00000000000E+00  0.14012978665E+02  0.14012978665E+02  0.00000000000E+00 0.  1.
          2   -1    0    0  501    0  0.00000000000E+00 -0.00000000000E+00 -0.16304012129E+03  0.16304012129E+03  0.00000000000E+00 0. -1.
         23    2    1    2    0    0  0.00000000000E+00  0.00000000000E+00 -0.14902714263E+03  0.17705309996E+03  0.95596605404E+02 0.  0.
        -13    1    3    3    0    0 -0.22803964203E+02 -0.30265494354E+02 -0.20559140639E+02  0.43112633829E+02  0.00000000000E+00 0.  1.
         13    1    3    3    0    0  0.22803964203E+02  0.30265494354E+02 -0.12846800199E+03  0.13394046613E+03  0.00000000000E+00 0. -1.
<mgrwt>
<rscale>  0 0.95596605E+02</rscale>
<asrwt>0</asrwt>
<pdfrwt beam="2">  1        2 0.25083095E-01 0.95596605E+02</pdfrwt>
<pdfrwt beam="1">  1       -2 0.21558429E-02 0.95596605E+02</pdfrwt>
<totfact> 0.12650355E+05</totfact>
</mgrwt>
</event>
<event>
 5    1  0.6079230E+000  0.9494716E+02  0.7546771E-02  0.1291295E+00
          2   -1    0    0  501    0  0.00000000000E+00  0.00000000000E+00  0.88167451513E+02  0.88167451513E+02  0.00000000000E+00 0. -1.
         -2   -1    0    0    0  501 -0.00000000000E+00 -0.00000000000E+00 -0.25562052308E+02  0.25562052308E+02  0.00000000000E+00 0.  1.
         23    2    1    2    0    0  0.00000000000E+00  0.00000000000E+00  0.62605399204E+02  0.11372950382E+03  0.94947164412E+02 0.  0.
        -13    1    3    3    0    0  0.40632848700E+01  0.38171951327E+02  0.64758808543E+02  0.75281547779E+02  0.00000000000E+00 0. -1.
         13    1    3    3    0    0 -0.40632848700E+01 -0.38171951327E+02 -0.21534093392E+01  0.38447956042E+02  0.00000000000E+00 0.  1.
<mgrwt>
<rscale>  0 0.94947164E+02</rscale>
<asrwt>0</asrwt>
<pdfrwt beam="1">  1        2 0.13564223E-01 0.94947164E+02</pdfrwt>
<pdfrwt beam="2">  1       -2 0.39326235E-02 0.94947164E+02</pdfrwt>
<totfact> 0.10556115E+05</totfact>
</mgrwt>
</event>
<event>
 5    1  0.6079230E+000  0.9046336E+02  0.7546771E-02  0.1301733E+00
          2   -1    0    0  501    0  0.00000000000E+00  0.00000000000E+00  0.10752348160E+02  0.10752348160E+02  0.00000000000E+00 0. -1.
         -2   -1    0    0    0  501 -0.00000000000E+00 -0.00000000000E+00 -0.19027516278E+03  0.19027516278E+03  0.00000000000E+00 0.  1.
         23    2    1    2    0    0  0.00000000000E+00  0.00000000000E+00 -0.17952281462E+03  0.20102751094E+03  0.90463358246E+02 0.  0.
        -13    1    3    3    0    0 -0.33727231798E+02 -0.22645001964E+02 -0.13395927673E+03  0.13998360655E+03  0.00000000000E+00 0.  1.
         13    1    3    3    0    0  0.33727231798E+02  0.22645001964E+02 -0.45563537884E+02  0.61043904390E+02  0.00000000000E+00 0. -1.
<mgrwt>
<rscale>  0 0.90463358E+02</rscale>
<asrwt>0</asrwt>
<pdfrwt beam="1">  1        2 0.16542075E-02 0.90463358E+02</pdfrwt>
<pdfrwt beam="2">  1       -2 0.29273100E-01 0.90463358E+02</pdfrwt>
<totfact> 0.64945231E+04</totfact>
</mgrwt>
</event>
<event>
 5    1  0.6079230E+000  0.1005208E+03  0.7546771E-02  0.1279205E+00
         -1   -1    0    0    0  501 -0.00000000000E+00  0.00000000000E+00  0.48948959988E+02  0.48948959988E+02  0.00000000000E+00 0.  1.
          1   -1    0    0  501    0  0.00000000000E+00 -0.00000000000E+00 -0.51606958325E+02  0.51606958325E+02  0.00000000000E+00 0. -1.
         23    2    1    2    0    0  0.00000000000E+00  0.00000000000E+00 -0.26579983371E+01  0.10055591831E+03  0.10052078269E+03 0.  0.
        -13    1    3    3    0    0 -0.40868733667E+02 -0.29055460114E+02 -0.47410247254E+01  0.50368149355E+02  0.00000000000E+00 0.  1.
         13    1    3    3    0    0  0.40868733667E+02  0.29055460114E+02  0.20830263882E+01  0.50187768957E+02  0.00000000000E+00 0. -1.
<mgrwt>
<rscale>  0 0.10052078E+03</rscale>
<asrwt>0</asrwt>
<pdfrwt beam="2">  1        1 0.79395321E-02 0.10052078E+03</pdfrwt>
<pdfrwt beam="1">  1       -1 0.75306092E-02 0.10052078E+03</pdfrwt>
<totfact> 0.71583856E+04</totfact>
</mgrwt>
</event>
<event>
 5    1  0.6079230E+000  0.9014726E+02  0.7546771E-02  0.1302495E+00
          1   -1    0    0  501    0  0.00000000000E+00  0.00000000000E+00  0.16427099148E+02  0.16427099148E+02  0.00000000000E+00 0. -1.
         -1   -1    0    0    0  501 -0.00000000000E+00 -0.00000000000E+00 -0.12367563882E+03  0.12367563882E+03  0.00000000000E+00 0.  1.
         23    2    1    2    0    0  0.00000000000E+00  0.00000000000E+00 -0.10724853968E+03  0.14010273797E+03  0.90147256889E+02 0.  0.
        -13    1    3    3    0    0  0.30242345336E+02  0.27569114530E+02 -0.82988180361E+02  0.92529420225E+02  0.00000000000E+00 0.  1.
         13    1    3    3    0    0 -0.30242345336E+02 -0.27569114530E+02 -0.24260359315E+02  0.47573317748E+02  0.00000000000E+00 0. -1.
<mgrwt>
<rscale>  0 0.90147257E+02</rscale>
<asrwt>0</asrwt>
<pdfrwt beam="1">  1        1 0.25272459E-02 0.90147257E+02</pdfrwt>
<pdfrwt beam="2">  1       -1 0.19027022E-01 0.90147257E+02</pdfrwt>
<totfact> 0.80367471E+04</totfact>
</mgrwt>
</event>
<event>
 5    1  0.6079230E+000  0.8981472E+02  0.7546771E-02  0.1303301E+00
          2   -1    0    0  501    0  0.00000000000E+00  0.00000000000E+00  0.19764320460E+02  0.19764320460E+02  0.00000000000E+00 0. -1.
         -2   -1    0    0    0  501 -0.00000000000E+00 -0.00000000000E+00 -0.10203594904E+03  0.10203594904E+03  0.00000000000E+00 0.  1.
         23    2    1    2    0    0  0.00000000000E+00  0.00000000000E+00 -0.82271628582E+02  0.12180026950E+03  0.89814724746E+02 0.  0.
        -13    1    3    3    0    0  0.24132943967E+02 -0.11873523379E+02  0.76337576079E+01  0.27958072129E+02  0.00000000000E+00 0. -1.
         13    1    3    3    0    0 -0.24132943967E+02  0.11873523379E+02 -0.89905386190E+02  0.93842197373E+02  0.00000000000E+00 0.  1.
<mgrwt>
<rscale>  0 0.89814725E+02</rscale>
<asrwt>0</asrwt>
<pdfrwt beam="1">  1        2 0.30406647E-02 0.89814725E+02</pdfrwt>
<pdfrwt beam="2">  1       -2 0.15697838E-01 0.89814725E+02</pdfrwt>
<totfact> 0.82354266E+04</totfact>
</mgrwt>
</event>
<event>
 5    1  0.6079230E+000  0.9272551E+02  0.7546771E-02  0.1296383E+00
         -1   -1    0    0    0  501 -0.00000000000E+00  0.00000000000E+00  0.18069314941E+03  0.18069314941E+03  0.00000000000E+00 0.  1.
          1   -1    0    0  501    0  0.00000000000E+00 -0.00000000000E+00 -0.11895884731E+02  0.11895884731E+02  0.00000000000E+00 0. -1.
         23    2    1    2    0    0  0.00000000000E+00  0.00000000000E+00  0.16879726468E+03  0.19258903414E+03  0.92725506243E+02 0.  0.
        -13    1    3    3    0    0 -0.41890942750E+02  0.28614104180E+01  0.12522944814E+03  0.13208123801E+03  0.00000000000E+00 0.  1.
         13    1    3    3    0    0  0.41890942750E+02 -0.28614104180E+01  0.43567816543E+02  0.60507796129E+02  0.00000000000E+00 0. -1.
<mgrwt>
<rscale>  0 0.92725506E+02</rscale>
<asrwt>0</asrwt>
<pdfrwt beam="2">  1        1 0.18301362E-02 0.92725506E+02</pdfrwt>
<pdfrwt beam="1">  1       -1 0.27798944E-01 0.92725506E+02</pdfrwt>
<totfact> 0.68330945E+04</totfact>
</mgrwt>
</event>
<event>
 5    1  0.6079230E+000  0.9358825E+02  0.7546771E-02  0.1294388E+00
         -2   -1    0    0    0  501 -0.00000000000E+00  0.00000000000E+00  0.18908352721E+02  0.18908352721E+02  0.00000000000E+00 0.  1.
          2   -1    0    0  501    0  0.00000000000E+00 -0.00000000000E+00 -0.11580544494E+03  0.11580544494E+03  0.00000000000E+00 0. -1.
         23    2    1    2    0    0  0.00000000000E+00  0.00000000000E+00 -0.96897092221E+02  0.13471379766E+03  0.93588251400E+02 0.  0.
        -13    1    3    3    0    0  0.10990614586E+02  0.43769928059E+02 -0.66258555231E+02  0.80167302266E+02  0.00000000000E+00 0.  1.
         13    1    3    3    0    0 -0.10990614586E+02 -0.43769928059E+02 -0.30638536991E+02  0.54546495398E+02  0.00000000000E+00 0. -1.
<mgrwt>
<rscale>  0 0.93588251E+02</rscale>
<asrwt>0</asrwt>
<pdfrwt beam="2">  1        2 0.17816222E-01 0.93588251E+02</pdfrwt>
<pdfrwt beam="1">  1       -2 0.29089774E-02 0.93588251E+02</pdfrwt>
<totfact> 0.11952229E+05</totfact>
</mgrwt>
</event>
<event>
 5    1  0.6079230E+000  0.1009029E+03  0.7546771E-02  0.1278409E+00
         -3   -1    0    0    0  501 -0.00000000000E+00  0.00000000000E+00  0.37182804139E+02  0.37182804139E+02  0.00000000000E+00 0.  1.
          3   -1    0    0  501    0  0.00000000000E+00 -0.00000000000E+00 -0.68454942691E+02  0.68454942691E+02  0.00000000000E+00 0. -1.
         23    2    1    2    0    0  0.00000000000E+00  0.00000000000E+00 -0.31272138552E+02  0.10563774683E+03  0.10090285876E+03 0.  0.
        -13    1    3    3    0    0 -0.56360850918E+01  0.41600084706E+02  0.13659401694E+02  0.44146480690E+02  0.00000000000E+00 0.  1.
         13    1    3    3    0    0  0.56360850918E+01 -0.41600084706E+02 -0.44931540246E+02  0.61491266140E+02  0.00000000000E+00 0. -1.
<mgrwt>
<rscale>  0 0.10090286E+03</rscale>
<asrwt>0</asrwt>
<pdfrwt beam="2">  1        3 0.10531530E-01 0.10090286E+03</pdfrwt>
<pdfrwt beam="1">  1       -3 0.57204314E-02 0.10090286E+03</pdfrwt>
<totfact> 0.25952074E+04</totfact>
</mgrwt>
</event>
<event>
 5    1  0.6079230E+000  0.8968678E+02  0.7546771E-02  0.1303612E+00
          3   -1    0    0  501    0  0.00000000000E+00  0.00000000000E+00  0.14688721862E+03  0.14688721862E+03  0.00000000000E+00 0. -1.
         -3   -1    0    0    0  501 -0.00000000000E+00 -0.00000000000E+00 -0.13690297162E+02  0.13690297162E+02  0.00000000000E+00 0.  1.
         23    2    1    2    0    0  0.00000000000E+00  0.00000000000E+00  0.13319692145E+03  0.16057751578E+03  0.89686781014E+02 0.  0.
        -13    1    3    3    0    0  0.23322371102E+02 -0.62160188878E+01 -0.10682087887E+01  0.24160152207E+02  0.00000000000E+00 0.  1.
         13    1    3    3    0    0 -0.23322371102E+02  0.62160188878E+01  0.13426513024E+03  0.13641736357E+03  0.00000000000E+00 0. -1.
<mgrwt>
<rscale>  0 0.89686781E+02</rscale>
<asrwt>0</asrwt>
<pdfrwt beam="1">  1        3 0.22598033E-01 0.89686781E+02</pdfrwt>
<pdfrwt beam="2">  1       -3 0.21061997E-02 0.89686781E+02</pdfrwt>
<totfact> 0.32067397E+04</totfact>
</mgrwt>
</event>
<event>
 5    1  0.6079230E+000  0.9084170E+02  0.7546771E-02  0.1300826E+00
          4   -1    0    0  501    0  0.00000000000E+00  0.00000000000E+00  0.47137546937E+02  0.47137546937E+02  0.00000000000E+00 0. -1.
         -4   -1    0    0    0  501 -0.00000000000E+00 -0.00000000000E+00 -0.43766675610E+02  0.43766675610E+02  0.00000000000E+00 0.  1.
         23    2    1    2    0    0  0.00000000000E+00  0.00000000000E+00  0.33708713271E+01  0.90904222547E+02  0.90841702446E+02 0.  0.
        -13    1    3    3    0    0  0.51139408960E+01  0.19628454936E+02 -0.38982724776E+02  0.43944072019E+02  0.00000000000E+00 0.  1.
         13    1    3    3    0    0 -0.51139408960E+01 -0.19628454936E+02  0.42353596103E+02  0.46960150527E+02  0.00000000000E+00 0. -1.
<mgrwt>
<rscale>  0 0.90841702E+02</rscale>
<asrwt>0</asrwt>
<pdfrwt beam="1">  1        4 0.72519303E-02 0.90841702E+02</pdfrwt>
<pdfrwt beam="2">  1       -4 0.67333347E-02 0.90841702E+02</pdfrwt>
<totfact> 0.27305284E+04</totfact>
</mgrwt>
</event>
<event>
 5    1  0.6079230E+000  0.9110862E+02  0.7546771E-02  0.1300189E+00
         -2   -1    0    0    0  501 -0.00000000000E+00  0.00000000000E+00  0.15019435541E+02  0.15019435541E+02  0.00000000000E+00 0.  1.
          2   -1    0    0  501    0  0.00000000000E+00 -0.00000000000E+00 -0.13816732406E+03  0.13816732406E+03  0.00000000000E+00 0. -1.
         23    2    1    2    0    0  0.00000000000E+00  0.00000000000E+00 -0.12314788852E+03  0.15318675961E+03  0.91108621274E+02 0.  0.
        -13    1    3    3    0    0 -0.15288932585E+02  0.24910182665E+02 -0.12032376222E+03  0.12382276210E+03  0.00000000000E+00 0. -1.
         13    1    3    3    0    0  0.15288932585E+02 -0.24910182665E+02 -0.28241263045E+01  0.29363997503E+02  0.00000000000E+00 0.  1.
<mgrwt>
<rscale>  0 0.91108621E+02</rscale>
<asrwt>0</asrwt>
<pdfrwt beam="2">  1        2 0.21256511E-01 0.91108621E+02</pdfrwt>
<pdfrwt beam="1">  1       -2 0.23106824E-02 0.91108621E+02</pdfrwt>
<totfact> 0.13627124E+05</totfact>
</mgrwt>
</event>
<event>
 5    1  0.6079230E+000  0.9021823E+02  0.7546771E-02  0.1302324E+00
          4   -1    0    0  501    0  0.00000000000E+00  0.00000000000E+00  0.71437195676E+02  0.71437195676E+02  0.00000000000E+00 0.  1.
         -4   -1    0    0    0  501 -0.00000000000E+00 -0.00000000000E+00 -0.28484212895E+02  0.28484212895E+02  0.00000000000E+00 0. -1.
         23    2    1    2    0    0  0.00000000000E+00  0.00000000000E+00  0.42952982780E+02  0.99921408571E+02  0.90218230758E+02 0.  0.
        -13    1    3    3    0    0  0.42768996335E+01 -0.29549778285E+02  0.58926682124E+02  0.66059330403E+02  0.00000000000E+00 0.  1.
         13    1    3    3    0    0 -0.42768996335E+01  0.29549778285E+02 -0.15973699343E+02  0.33862078169E+02  0.00000000000E+00 0. -1.
<mgrwt>
<rscale>  0 0.90218231E+02</rscale>
<asrwt>0</asrwt>
<pdfrwt beam="1">  1        4 0.10990338E-01 0.90218231E+02</pdfrwt>
<pdfrwt beam="2">  1       -4 0.43821866E-02 0.90218231E+02</pdfrwt>
<totfact> 0.27230465E+04</totfact>
</mgrwt>
</event>
<event>
 5    1  0.6079230E+000  0.9127569E+02  0.7546771E-02  0.1299792E+00
          1   -1    0    0  501    0  0.00000000000E+00  0.00000000000E+00  0.41990887837E+02  0.41990887837E+02  0.00000000000E+00 0.  1.
         -1   -1    0    0    0  501 -0.00000000000E+00 -0.00000000000E+00 -0.49601541661E+02  0.49601541661E+02  0.00000000000E+00 0. -1.
         23    2    1    2    0    0  0.00000000000E+00  0.00000000000E+00 -0.76106538236E+01  0.91592429498E+02  0.91275687287E+02 0.  0.
        -13    1    3    3    0    0 -0.21998619980E+02  0.39433970447E+02 -0.10449138104E+02  0.46348266347E+02  0.00000000000E+00 0. -1.
         13    1    3    3    0    0  0.21998619980E+02 -0.39433970447E+02  0.28384842801E+01  0.45244163151E+02  0.00000000000E+00 0.  1.
<mgrwt>
<rscale>  0 0.91275687E+02</rscale>
<asrwt>0</asrwt>
<pdfrwt beam="1">  1        1 0.64601366E-02 0.91275687E+02</pdfrwt>
<pdfrwt beam="2">  1       -1 0.76310064E-02 0.91275687E+02</pdfrwt>
<totfact> 0.91054869E+04</totfact>
</mgrwt>
</event>
<event>
 5    1  0.6079230E+000  0.9287621E+02  0.7546771E-02  0.1296032E+00
          1   -1    0    0  501    0  0.00000000000E+00  0.00000000000E+00  0.22311591912E+03  0.22311591912E+03  0.00000000000E+00 0. -1.
         -1   -1    0    0    0  501 -0.00000000000E+00 -0.00000000000E+00 -0.96653693614E+01  0.96653693614E+01  0.00000000000E+00 0.  1.
         23    2    1    2    0    0  0.00000000000E+00  0.00000000000E+00  0.21345054976E+03  0.23278128848E+03  0.92876213719E+02 0.  0.
        -13    1    3    3    0    0  0.27883895099E+02  0.36333047137E+02  0.87490553170E+02  0.98753221791E+02  0.00000000000E+00 0.  1.
         13    1    3    3    0    0 -0.27883895099E+02 -0.36333047137E+02  0.12595999659E+03  0.13402806669E+03  0.00000000000E+00 0. -1.
<mgrwt>
<rscale>  0 0.92876214E+02</rscale>
<asrwt>0</asrwt>
<pdfrwt beam="1">  1        1 0.34325522E-01 0.92876214E+02</pdfrwt>
<pdfrwt beam="2">  1       -1 0.14869801E-02 0.92876214E+02</pdfrwt>
<totfact> 0.11511171E+05</totfact>
</mgrwt>
</event>
<event>
 5    1  0.6079230E+000  0.9132533E+02  0.7546771E-02  0.1299674E+00
         -3   -1    0    0    0  501 -0.00000000000E+00  0.00000000000E+00  0.93729214530E+02  0.93729214530E+02  0.00000000000E+00 0.  1.
          3   -1    0    0  501    0  0.00000000000E+00 -0.00000000000E+00 -0.22245772439E+02  0.22245772439E+02  0.00000000000E+00 0. -1.
         23    2    1    2    0    0  0.00000000000E+00  0.00000000000E+00  0.71483442091E+02  0.11597498697E+03  0.91325325672E+02 0.  0.
        -13    1    3    3    0    0  0.28019753005E+02 -0.26848363812E+02  0.66302468787E+02  0.76824205594E+02  0.00000000000E+00 0.  1.
         13    1    3    3    0    0 -0.28019753005E+02  0.26848363812E+02  0.51809733045E+01  0.39150781375E+02  0.00000000000E+00 0. -1.
<mgrwt>
<rscale>  0 0.91325326E+02</rscale>
<asrwt>0</asrwt>
<pdfrwt beam="2">  1        3 0.34224266E-02 0.91325326E+02</pdfrwt>
<pdfrwt beam="1">  1       -3 0.14419879E-01 0.91325326E+02</pdfrwt>
<totfact> 0.33377437E+04</totfact>
</mgrwt>
</event>
<event>
 4    1  0.6079230E+000  0.3910060E+02  0.7546771E-02  0.1514936E+00
         -2   -1    0    0    0  501 -0.00000000000E+00  0.00000000000E+00  0.62649536451E+01  0.62649536451E+01  0.00000000000E+00 0.  1.
          2   -1    0    0  501    0  0.00000000000E+00 -0.00000000000E+00 -0.61008318940E+02  0.61008318940E+02  0.00000000000E+00 0. -1.
        -13    1    1    2    0    0  0.99159991216E+01  0.53740842702E+01  0.10312741038E+00  0.11279115904E+02  0.00000000000E+00 0.  1.
         13    1    1    2    0    0 -0.99159991216E+01 -0.53740842702E+01 -0.54846492705E+02  0.55994156681E+02  0.00000000000E+00 0. -1.
<mgrwt>
<rscale>  0 0.39100603E+02</rscale>
<asrwt>0</asrwt>
<pdfrwt beam="2">  1        2 0.93858951E-02 0.39100603E+02</pdfrwt>
<pdfrwt beam="1">  1       -2 0.96383904E-03 0.39100603E+02</pdfrwt>
<totfact> 0.99037842E+05</totfact>
</mgrwt>
</event>
<event>
 5    1  0.6079230E+000  0.9693796E+02  0.7546771E-02  0.1286870E+00
         -4   -1    0    0    0  501 -0.00000000000E+00  0.00000000000E+00  0.12375624846E+03  0.12375624846E+03  0.00000000000E+00 0.  1.
          4   -1    0    0  501    0  0.00000000000E+00 -0.00000000000E+00 -0.18982817103E+02  0.18982817103E+02  0.00000000000E+00 0. -1.
         23    2    1    2    0    0  0.00000000000E+00  0.00000000000E+00  0.10477343136E+03  0.14273906556E+03  0.96937964283E+02 0.  0.
        -13    1    3    3    0    0 -0.33861445877E+02 -0.16961956974E+02  0.96926128276E+02  0.10406238439E+03  0.00000000000E+00 0.  1.
         13    1    3    3    0    0  0.33861445877E+02  0.16961956974E+02  0.78473030797E+01  0.38676681177E+02  0.00000000000E+00 0. -1.
<mgrwt>
<rscale>  0 0.96937964E+02</rscale>
<asrwt>0</asrwt>
<pdfrwt beam="2">  1        4 0.29204335E-02 0.96937964E+02</pdfrwt>
<pdfrwt beam="1">  1       -4 0.19039422E-01 0.96937964E+02</pdfrwt>
<totfact> 0.20366481E+04</totfact>
</mgrwt>
</event>
<event>
 5    1  0.6079230E+000  0.9142041E+02  0.7546771E-02  0.1299448E+00
          1   -1    0    0  501    0  0.00000000000E+00  0.00000000000E+00  0.32566127629E+02  0.32566127629E+02  0.00000000000E+00 0. -1.
         -1   -1    0    0    0  501 -0.00000000000E+00 -0.00000000000E+00 -0.64159390468E+02  0.64159390468E+02  0.00000000000E+00 0.  1.
         23    2    1    2    0    0  0.00000000000E+00  0.00000000000E+00 -0.31593262839E+02  0.96725518097E+02  0.91420411256E+02 0.  0.
        -13    1    3    3    0    0  0.30012228194E+02  0.32746935135E+00 -0.52273070583E+02  0.60276985538E+02  0.00000000000E+00 0.  1.
         13    1    3    3    0    0 -0.30012228194E+02 -0.32746935135E+00  0.20679807744E+02  0.36448532559E+02  0.00000000000E+00 0. -1.
<mgrwt>
<rscale>  0 0.91420411E+02</rscale>
<asrwt>0</asrwt>
<pdfrwt beam="1">  1        1 0.50101735E-02 0.91420411E+02</pdfrwt>
<pdfrwt beam="2">  1       -1 0.98706755E-02 0.91420411E+02</pdfrwt>
<totfact> 0.87159281E+04</totfact>
</mgrwt>
</event>
<event>
 5    1  0.6079230E+000  0.9130698E+02  0.7546771E-02  0.1299717E+00
         -1   -1    0    0    0  501 -0.00000000000E+00  0.00000000000E+00  0.91803516870E+02  0.91803516870E+02  0.00000000000E+00 0.  1.
          1   -1    0    0  501    0  0.00000000000E+00 -0.00000000000E+00 -0.22703284253E+02  0.22703284253E+02  0.00000000000E+00 0. -1.
         23    2    1    2    0    0  0.00000000000E+00  0.00000000000E+00  0.69100232618E+02  0.11450680112E+03  0.91306984156E+02 0.  0.
        -13    1    3    3    0    0 -0.84762924218E+01  0.26435993984E+02 -0.10901320561E+02  0.29825292976E+02  0.00000000000E+00 0. -1.
         13    1    3    3    0    0  0.84762924218E+01 -0.26435993984E+02  0.80001553178E+02  0.84681508147E+02  0.00000000000E+00 0.  1.
<mgrwt>
<rscale>  0 0.91306984E+02</rscale>
<asrwt>0</asrwt>
<pdfrwt beam="2">  1        1 0.34928130E-02 0.91306984E+02</pdfrwt>
<pdfrwt beam="1">  1       -1 0.14123618E-01 0.91306984E+02</pdfrwt>
<totfact> 0.82346775E+04</totfact>
</mgrwt>
</event>
<event>
 5    1  0.6079230E+000  0.9014696E+02  0.7546771E-02  0.1302496E+00
         -1   -1    0    0    0  501 -0.00000000000E+00  0.00000000000E+00  0.15573343844E+03  0.15573343844E+03  0.00000000000E+00 0.  1.
          1   -1    0    0  501    0  0.00000000000E+00 -0.00000000000E+00 -0.13045487545E+02  0.13045487545E+02  0.00000000000E+00 0. -1.
         23    2    1    2    0    0  0.00000000000E+00  0.00000000000E+00  0.14268795089E+03  0.16877892598E+03  0.90146960713E+02 0.  0.
        -13    1    3    3    0    0  0.34982913788E+02  0.70449628711E+01  0.19790955097E+02  0.40805853288E+02  0.00000000000E+00 0. -1.
         13    1    3    3    0    0 -0.34982913788E+02 -0.70449628711E+01  0.12289699580E+03  0.12797307269E+03  0.00000000000E+00 0.  1.
<mgrwt>
<rscale>  0 0.90146961E+02</rscale>
<asrwt>0</asrwt>
<pdfrwt beam="2">  1        1 0.20069982E-02 0.90146961E+02</pdfrwt>
<pdfrwt beam="1">  1       -1 0.23958989E-01 0.90146961E+02</pdfrwt>
<totfact> 0.76343834E+04</totfact>
</mgrwt>
</event>
<event>
 5    1  0.6079230E+000  0.9132293E+02  0.7546771E-02  0.1299679E+00
         -1   -1    0    0    0  501 -0.00000000000E+00  0.00000000000E+00  0.12940458878E+02  0.12940458878E+02  0.00000000000E+00 0.  1.
          1   -1    0    0  501    0  0.00000000000E+00 -0.00000000000E+00 -0.16112019264E+03  0.16112019264E+03  0.00000000000E+00 0. -1.
         23    2    1    2    0    0  0.00000000000E+00  0.00000000000E+00 -0.14817973376E+03  0.17406065151E+03  0.91322926524E+02 0.  0.
        -13    1    3    3    0    0  0.21021243984E+02 -0.12605233378E+02 -0.14751838232E+03  0.14954082295E+03  0.00000000000E+00 0. -1.
         13    1    3    3    0    0 -0.21021243984E+02  0.12605233378E+02 -0.66135144213E+00  0.24519828565E+02  0.00000000000E+00 0.  1.
<mgrwt>
<rscale>  0 0.91322927E+02</rscale>
<asrwt>0</asrwt>
<pdfrwt beam="2">  1        1 0.24787723E-01 0.91322927E+02</pdfrwt>
<pdfrwt beam="1">  1       -1 0.19908397E-02 0.91322927E+02</pdfrwt>
<totfact> 0.11313834E+05</totfact>
</mgrwt>
</event>
<event>
 5    1  0.6079230E+000  0.8872717E+02  0.7546771E-02  0.1305964E+00
         -2   -1    0    0    0  501 -0.00000000000E+00  0.00000000000E+00  0.62027967110E+02  0.62027967110E+02  0.00000000000E+00 0.  1.
          2   -1    0    0  501    0  0.00000000000E+00 -0.00000000000E+00 -0.31729680816E+02  0.31729680816E+02  0.00000000000E+00 0. -1.
         23    2    1    2    0    0  0.00000000000E+00  0.00000000000E+00  0.30298286294E+02  0.93757647927E+02  0.88727168288E+02 0.  0.
        -13    1    3    3    0    0  0.43762639469E+02 -0.65476678464E+01  0.18505218876E+02  0.47963357818E+02  0.00000000000E+00 0. -1.
         13    1    3    3    0    0 -0.43762639469E+02  0.65476678464E+01  0.11793067418E+02  0.45794290109E+02  0.00000000000E+00 0.  1.
<mgrwt>
<rscale>  0 0.88727168E+02</rscale>
<asrwt>0</asrwt>
<pdfrwt beam="2">  1        2 0.48814894E-02 0.88727168E+02</pdfrwt>
<pdfrwt beam="1">  1       -2 0.95427642E-02 0.88727168E+02</pdfrwt>
<totfact> 0.97280939E+04</totfact>
</mgrwt>
</event>
<event>
 5    1  0.6079230E+000  0.8851591E+02  0.7546771E-02  0.1306486E+00
         -2   -1    0    0    0  501 -0.00000000000E+00  0.00000000000E+00  0.24037806807E+02  0.24037806807E+02  0.00000000000E+00 0.  1.
          2   -1    0    0  501    0  0.00000000000E+00 -0.00000000000E+00 -0.81486912630E+02  0.81486912630E+02  0.00000000000E+00 0. -1.
         23    2    1    2    0    0  0.00000000000E+00  0.00000000000E+00 -0.57449105823E+02  0.10552471944E+03  0.88515911860E+02 0.  0.
        -13    1    3    3    0    0 -0.12402465849E+02  0.34043099091E+02  0.15762025453E+01  0.36266212503E+02  0.00000000000E+00 0.  1.
         13    1    3    3    0    0  0.12402465849E+02 -0.34043099091E+02 -0.59025308368E+02  0.69258506935E+02  0.00000000000E+00 0. -1.
<mgrwt>
<rscale>  0 0.88515912E+02</rscale>
<asrwt>0</asrwt>
<pdfrwt beam="2">  1        2 0.12536448E-01 0.88515912E+02</pdfrwt>
<pdfrwt beam="1">  1       -2 0.36981241E-02 0.88515912E+02</pdfrwt>
<totfact> 0.12532952E+05</totfact>
</mgrwt>
</event>
<event>
 5    1  0.6079230E+000  0.9107891E+02  0.7546771E-02  0.1300260E+00
         -2   -1    0    0    0  501 -0.00000000000E+00  0.00000000000E+00  0.69427445442E+01  0.69427445442E+01  0.00000000000E+00 0. -1.
          2   -1    0    0  501    0  0.00000000000E+00 -0.00000000000E+00 -0.29870636041E+03  0.29870636041E+03  0.00000000000E+00 0.  1.
         23    2    1    2    0    0  0.00000000000E+00  0.00000000000E+00 -0.29176361586E+03  0.30564910495E+03  0.91078909832E+02 0.  0.
        -13    1    3    3    0    0  0.29677151012E+02 -0.26101183235E+02 -0.69959203259E+02  0.80351074536E+02  0.00000000000E+00 0.  1.
         13    1    3    3    0    0 -0.29677151012E+02  0.26101183235E+02 -0.22180441261E+03  0.22529803042E+03  0.00000000000E+00 0. -1.
<mgrwt>
<rscale>  0 0.91078910E+02</rscale>
<asrwt>0</asrwt>
<pdfrwt beam="2">  1        2 0.45954830E-01 0.91078910E+02</pdfrwt>
<pdfrwt beam="1">  1       -2 0.10681144E-02 0.91078910E+02</pdfrwt>
<totfact> 0.17988668E+05</totfact>
</mgrwt>
</event>
<event>
 5    1  0.6079230E+000  0.9317247E+02  0.7546771E-02  0.1295346E+00
          2   -1    0    0  501    0  0.00000000000E+00  0.00000000000E+00  0.99740465887E+02  0.99740465887E+02  0.00000000000E+00 0. -1.
         -2   -1    0    0    0  501 -0.00000000000E+00 -0.00000000000E+00 -0.21759243797E+02  0.21759243797E+02  0.00000000000E+00 0.  1.
         23    2    1    2    0    0  0.00000000000E+00  0.00000000000E+00  0.77981222090E+02  0.12149970968E+03  0.93172466184E+02 0.  0.
        -13    1    3    3    0    0  0.14071765413E+02  0.44253001599E+02  0.43858397253E+02  0.63874108541E+02  0.00000000000E+00 0.  1.
         13    1    3    3    0    0 -0.14071765413E+02 -0.44253001599E+02  0.34122824837E+02  0.57625601144E+02  0.00000000000E+00 0. -1.
<mgrwt>
<rscale>  0 0.93172466E+02</rscale>
<asrwt>0</asrwt>
<pdfrwt beam="1">  1        2 0.15344687E-01 0.93172466E+02</pdfrwt>
<pdfrwt beam="2">  1       -2 0.33475760E-02 0.93172466E+02</pdfrwt>
<totfact> 0.11546842E+05</totfact>
</mgrwt>
</event>
<event>
 5    1  0.6079230E+000  0.9184116E+02  0.7546771E-02  0.1298453E+00
          1   -1    0    0  501    0  0.00000000000E+00  0.00000000000E+00  0.21129572901E+03  0.21129572901E+03  0.00000000000E+00 0. -1.
         -1   -1    0    0    0  501 -0.00000000000E+00 -0.00000000000E+00 -0.99798497398E+01  0.99798497398E+01  0.00000000000E+00 0.  1.
         23    2    1    2    0    0  0.00000000000E+00  0.00000000000E+00  0.20131587927E+03  0.22127557875E+03  0.91841159100E+02 0.  0.
        -13    1    3    3    0    0 -0.31014009205E+02 -0.24959610659E+02  0.45513838461E+02  0.60467846189E+02  0.00000000000E+00 0.  1.
         13    1    3    3    0    0  0.31014009205E+02  0.24959610659E+02  0.15580204081E+03  0.16080773256E+03  0.00000000000E+00 0. -1.
<mgrwt>
<rscale>  0 0.91841159E+02</rscale>
<asrwt>0</asrwt>
<pdfrwt beam="1">  1        1 0.32507032E-01 0.91841159E+02</pdfrwt>
<pdfrwt beam="2">  1       -1 0.15353617E-02 0.91841159E+02</pdfrwt>
<totfact> 0.11736953E+05</totfact>
</mgrwt>
</event>
<event>
 5    1  0.6079230E+000  0.8460825E+02  0.7546771E-02  0.1316460E+00
         -1   -1    0    0    0  501 -0.00000000000E+00  0.00000000000E+00  0.95592907878E+02  0.95592907878E+02  0.00000000000E+00 0.  1.
          1   -1    0    0  501    0  0.00000000000E+00 -0.00000000000E+00 -0.18721460682E+02  0.18721460682E+02  0.00000000000E+00 0. -1.
         23    2    1    2    0    0  0.00000000000E+00  0.00000000000E+00  0.76871447196E+02  0.11431436856E+03  0.84608247028E+02 0.  0.
        -13    1    3    3    0    0  0.81004978039E+00  0.37775229893E+02  0.64142713260E+02  0.74444018151E+02  0.00000000000E+00 0.  1.
         13    1    3    3    0    0 -0.81004978039E+00 -0.37775229893E+02  0.12728733936E+02  0.39870350409E+02  0.00000000000E+00 0. -1.
<mgrwt>
<rscale>  0 0.84608247E+02</rscale>
<asrwt>0</asrwt>
<pdfrwt beam="2">  1        1 0.28802248E-02 0.84608247E+02</pdfrwt>
<pdfrwt beam="1">  1       -1 0.14706601E-01 0.84608247E+02</pdfrwt>
<totfact> 0.99409798E+04</totfact>
</mgrwt>
</event>
<event>
 5    1  0.6079230E+000  0.9100031E+02  0.7546771E-02  0.1300447E+00
         -2   -1    0    0    0  501 -0.00000000000E+00  0.00000000000E+00  0.89691974197E+02  0.89691974197E+02  0.00000000000E+00 0.  1.
          2   -1    0    0  501    0  0.00000000000E+00 -0.00000000000E+00 -0.23081934386E+02  0.23081934386E+02  0.00000000000E+00 0. -1.
         23    2    1    2    0    0  0.00000000000E+00  0.00000000000E+00  0.66610039810E+02  0.11277390858E+03  0.91000313480E+02 0.  0.
        -13    1    3    3    0    0  0.16171818493E+00 -0.34081226475E+02  0.70662532106E+02  0.78452212170E+02  0.00000000000E+00 0.  1.
         13    1    3    3    0    0 -0.16171818493E+00  0.34081226475E+02 -0.40524922953E+01  0.34321696412E+02  0.00000000000E+00 0. -1.
<mgrwt>
<rscale>  0 0.91000313E+02</rscale>
<asrwt>0</asrwt>
<pdfrwt beam="2">  1        2 0.35510669E-02 0.91000313E+02</pdfrwt>
<pdfrwt beam="1">  1       -2 0.13798765E-01 0.91000313E+02</pdfrwt>
<totfact> 0.82781636E+04</totfact>
</mgrwt>
</event>
<event>
 5    1  0.6079230E+000  0.1253445E+03  0.7546771E-02  0.1234532E+00
          2   -1    0    0  501    0  0.00000000000E+00  0.00000000000E+00  0.16116255309E+02  0.16116255309E+02  0.00000000000E+00 0. -1.
         -2   -1    0    0    0  501 -0.00000000000E+00 -0.00000000000E+00 -0.24371730056E+03  0.24371730056E+03  0.00000000000E+00 0.  1.
         23    2    1    2    0    0  0.00000000000E+00  0.00000000000E+00 -0.22760104525E+03  0.25983355587E+03  0.12534448913E+03 0.  0.
        -13    1    3    3    0    0  0.26923185434E+02 -0.50066836748E+02 -0.59101820751E+02  0.82003483292E+02  0.00000000000E+00 0. -1.
         13    1    3    3    0    0 -0.26923185434E+02  0.50066836748E+02 -0.16849922450E+03  0.17783007257E+03  0.00000000000E+00 0.  1.
<mgrwt>
<rscale>  0 0.12534449E+03</rscale>
<asrwt>0</asrwt>
<pdfrwt beam="1">  1        2 0.24794238E-02 0.12534449E+03</pdfrwt>
<pdfrwt beam="2">  1       -2 0.37494970E-01 0.12534449E+03</pdfrwt>
<totfact> 0.25053762E+04</totfact>
</mgrwt>
</event>
<event>
 5    1  0.6079230E+000  0.9122868E+02  0.7546771E-02  0.1299903E+00
          2   -1    0    0  501    0  0.00000000000E+00  0.00000000000E+00  0.14813627589E+03  0.14813627589E+03  0.00000000000E+00 0. -1.
         -2   -1    0    0    0  501 -0.00000000000E+00 -0.00000000000E+00 -0.14045635896E+02  0.14045635896E+02  0.00000000000E+00 0.  1.
         23    2    1    2    0    0  0.00000000000E+00  0.00000000000E+00  0.13409063999E+03  0.16218191179E+03  0.91228683959E+02 0.  0.
        -13    1    3    3    0    0  0.35801905818E+02 -0.26504912728E+02  0.49592425030E+02  0.66661049191E+02  0.00000000000E+00 0.  1.
         13    1    3    3    0    0 -0.35801905818E+02  0.26504912728E+02  0.84498214964E+02  0.95520862596E+02  0.00000000000E+00 0. -1.
<mgrwt>
<rscale>  0 0.91228684E+02</rscale>
<asrwt>0</asrwt>
<pdfrwt beam="1">  1        2 0.22790195E-01 0.91228684E+02</pdfrwt>
<pdfrwt beam="2">  1       -2 0.21608672E-02 0.91228684E+02</pdfrwt>
<totfact> 0.13900231E+05</totfact>
</mgrwt>
</event>
<event>
 5    1  0.6079230E+000  0.9309613E+02  0.7546771E-02  0.1295523E+00
         -2   -1    0    0    0  501 -0.00000000000E+00  0.00000000000E+00  0.13484621331E+02  0.13484621331E+02  0.00000000000E+00 0.  1.
          2   -1    0    0  501    0  0.00000000000E+00 -0.00000000000E+00 -0.16068099660E+03  0.16068099660E+03  0.00000000000E+00 0. -1.
         23    2    1    2    0    0  0.00000000000E+00  0.00000000000E+00 -0.14719637527E+03  0.17416561793E+03  0.93096130837E+02 0.  0.
        -13    1    3    3    0    0 -0.14644374532E+02  0.43037223152E+02 -0.54884230682E+02  0.71266675660E+02  0.00000000000E+00 0. -1.
         13    1    3    3    0    0  0.14644374532E+02 -0.43037223152E+02 -0.92312144584E+02  0.10289894227E+03  0.00000000000E+00 0.  1.
<mgrwt>
<rscale>  0 0.93096131E+02</rscale>
<asrwt>0</asrwt>
<pdfrwt beam="2">  1        2 0.24720152E-01 0.93096131E+02</pdfrwt>
<pdfrwt beam="1">  1       -2 0.20745572E-02 0.93096131E+02</pdfrwt>
<totfact> 0.13527665E+05</totfact>
</mgrwt>
</event>
<event>
 5    1  0.6079230E+000  0.6989225E+02  0.7546771E-02  0.1360460E+00
          1   -1    0    0  501    0  0.00000000000E+00  0.00000000000E+00  0.66738871197E+01  0.66738871197E+01  0.00000000000E+00 0. -1.
         -1   -1    0    0    0  501 -0.00000000000E+00 -0.00000000000E+00 -0.18298653570E+03  0.18298653570E+03  0.00000000000E+00 0.  1.
         23    2    1    2    0    0  0.00000000000E+00  0.00000000000E+00 -0.17631264858E+03  0.18966042282E+03  0.69892245168E+02 0.  0.
        -13    1    3    3    0    0  0.21938215578E+02  0.27139115370E+02 -0.83141941253E+02  0.90168726735E+02  0.00000000000E+00 0.  1.
         13    1    3    3    0    0 -0.21938215578E+02 -0.27139115370E+02 -0.93170707324E+02  0.99491696081E+02  0.00000000000E+00 0. -1.
<mgrwt>
<rscale>  0 0.69892245E+02</rscale>
<asrwt>0</asrwt>
<pdfrwt beam="1">  1        1 0.10267520E-02 0.69892245E+02</pdfrwt>
<pdfrwt beam="2">  1       -1 0.28151772E-01 0.69892245E+02</pdfrwt>
<totfact> 0.14126166E+05</totfact>
</mgrwt>
</event>
<event>
 5    1  0.6079230E+000  0.9237906E+02  0.7546771E-02  0.1297191E+00
          3   -1    0    0  501    0  0.00000000000E+00  0.00000000000E+00  0.27154479370E+02  0.27154479370E+02  0.00000000000E+00 0. -1.
         -3   -1    0    0    0  501 -0.00000000000E+00 -0.00000000000E+00 -0.78567991408E+02  0.78567991408E+02  0.00000000000E+00 0.  1.
         23    2    1    2    0    0  0.00000000000E+00  0.00000000000E+00 -0.51413512038E+02  0.10572247078E+03  0.92379064768E+02 0.  0.
        -13    1    3    3    0    0  0.15619695588E+02  0.20002274286E+02 -0.69874014557E+02  0.74340054999E+02  0.00000000000E+00 0.  1.
         13    1    3    3    0    0 -0.15619695588E+02 -0.20002274286E+02  0.18460502519E+02  0.31382415779E+02  0.00000000000E+00 0. -1.
<mgrwt>
<rscale>  0 0.92379065E+02</rscale>
<asrwt>0</asrwt>
<pdfrwt beam="1">  1        3 0.41776122E-02 0.92379065E+02</pdfrwt>
<pdfrwt beam="2">  1       -3 0.12087383E-01 0.92379065E+02</pdfrwt>
<totfact> 0.33051787E+04</totfact>
</mgrwt>
</event>
<event>
 5    1  0.6079230E+000  0.9093495E+02  0.7546771E-02  0.1300603E+00
          1   -1    0    0  501    0  0.00000000000E+00  0.00000000000E+00  0.35376922037E+03  0.35376922037E+03  0.00000000000E+00 0. -1.
         -1   -1    0    0    0  501 -0.00000000000E+00 -0.00000000000E+00 -0.58436154411E+01  0.58436154411E+01  0.00000000000E+00 0.  1.
         23    2    1    2    0    0  0.00000000000E+00  0.00000000000E+00  0.34792560492E+03  0.35961283581E+03  0.90934949909E+02 0.  0.
        -13    1    3    3    0    0 -0.40879830456E+02 -0.12148313273E+02  0.23630908449E+03  0.24012647806E+03  0.00000000000E+00 0. -1.
         13    1    3    3    0    0  0.40879830456E+02  0.12148313273E+02  0.11161652044E+03  0.11948635775E+03  0.00000000000E+00 0.  1.
<mgrwt>
<rscale>  0 0.90934950E+02</rscale>
<asrwt>0</asrwt>
<pdfrwt beam="1">  1        1 0.54426017E-01 0.90934950E+02</pdfrwt>
<pdfrwt beam="2">  1       -1 0.89901803E-03 0.90934950E+02</pdfrwt>
<totfact> 0.13302035E+05</totfact>
</mgrwt>
</event>
<event>
 5    1  0.6079230E+000  0.9541953E+02  0.7546771E-02  0.1290234E+00
         -3   -1    0    0    0  501 -0.00000000000E+00  0.00000000000E+00  0.17964162287E+03  0.17964162287E+03  0.00000000000E+00 0.  1.
          3   -1    0    0  501    0  0.00000000000E+00 -0.00000000000E+00 -0.12670902527E+02  0.12670902527E+02  0.00000000000E+00 0. -1.
         23    2    1    2    0    0  0.00000000000E+00  0.00000000000E+00  0.16697072034E+03  0.19231252539E+03  0.95419526159E+02 0.  0.
        -13    1    3    3    0    0 -0.24331513458E+02 -0.33252376249E+02  0.13195992248E+03  0.13824313442E+03  0.00000000000E+00 0.  1.
         13    1    3    3    0    0  0.24331513458E+02  0.33252376249E+02  0.35010797859E+02  0.54069390972E+02  0.00000000000E+00 0. -1.
<mgrwt>
<rscale>  0 0.95419526E+02</rscale>
<asrwt>0</asrwt>
<pdfrwt beam="2">  1        3 0.19493698E-02 0.95419526E+02</pdfrwt>
<pdfrwt beam="1">  1       -3 0.27637171E-01 0.95419526E+02</pdfrwt>
<totfact> 0.25548840E+04</totfact>
</mgrwt>
</event>
<event>
 5    1  0.6079230E+000  0.8936931E+02  0.7546771E-02  0.1304386E+00
          2   -1    0    0  501    0  0.00000000000E+00  0.00000000000E+00  0.35512908277E+03  0.35512908277E+03  0.00000000000E+00 0. -1.
         -2   -1    0    0    0  501 -0.00000000000E+00 -0.00000000000E+00 -0.56225144453E+01  0.56225144453E+01  0.00000000000E+00 0.  1.
         23    2    1    2    0    0  0.00000000000E+00  0.00000000000E+00  0.34950656833E+03  0.36075159722E+03  0.89369310120E+02 0.  0.
        -13    1    3    3    0    0  0.20369391316E+02 -0.39371034957E+02  0.15201589827E+03  0.15834716234E+03  0.00000000000E+00 0. -1.
         13    1    3    3    0    0 -0.20369391316E+02  0.39371034957E+02  0.19749067006E+03  0.20240443488E+03  0.00000000000E+00 0.  1.
<mgrwt>
<rscale>  0 0.89369310E+02</rscale>
<asrwt>0</asrwt>
<pdfrwt beam="1">  1        2 0.54635226E-01 0.89369310E+02</pdfrwt>
<pdfrwt beam="2">  1       -2 0.86500250E-03 0.89369310E+02</pdfrwt>
<totfact> 0.20165422E+05</totfact>
</mgrwt>
</event>
<event>
 5    1  0.6079230E+000  0.8854530E+02  0.7546771E-02  0.1306413E+00
          1   -1    0    0  501    0  0.00000000000E+00  0.00000000000E+00  0.27895781146E+02  0.27895781146E+02  0.00000000000E+00 0. -1.
         -1   -1    0    0    0  501 -0.00000000000E+00 -0.00000000000E+00 -0.70263938909E+02  0.70263938909E+02  0.00000000000E+00 0.  1.
         23    2    1    2    0    0  0.00000000000E+00  0.00000000000E+00 -0.42368157762E+02  0.98159720055E+02  0.88545298289E+02 0.  0.
        -13    1    3    3    0    0  0.38169388482E+02 -0.78114321070E+01  0.21263914315E+01  0.39018485737E+02  0.00000000000E+00 0.  1.
         13    1    3    3    0    0 -0.38169388482E+02  0.78114321070E+01 -0.44494549194E+02  0.59141234318E+02  0.00000000000E+00 0. -1.
<mgrwt>
<rscale>  0 0.88545298E+02</rscale>
<asrwt>0</asrwt>
<pdfrwt beam="1">  1        1 0.42916586E-02 0.88545298E+02</pdfrwt>
<pdfrwt beam="2">  1       -1 0.10809837E-01 0.88545298E+02</pdfrwt>
<totfact> 0.93183918E+04</totfact>
</mgrwt>
</event>
<event>
 5    1  0.6079230E+000  0.7688454E+02  0.7546771E-02  0.1338133E+00
          2   -1    0    0  501    0  0.00000000000E+00  0.00000000000E+00  0.42907004632E+02  0.42907004632E+02  0.00000000000E+00 0. -1.
         -2   -1    0    0    0  501 -0.00000000000E+00 -0.00000000000E+00 -0.34442116560E+02  0.34442116560E+02  0.00000000000E+00 0.  1.
         23    2    1    2    0    0  0.00000000000E+00  0.00000000000E+00  0.84648880725E+01  0.77349121192E+02  0.76884538231E+02 0.  0.
        -13    1    3    3    0    0  0.18636429247E+02  0.29904969746E+02  0.19693598773E+02  0.40366589443E+02  0.00000000000E+00 0. -1.
         13    1    3    3    0    0 -0.18636429247E+02 -0.29904969746E+02 -0.11228710700E+02  0.36982531749E+02  0.00000000000E+00 0.  1.
<mgrwt>
<rscale>  0 0.76884538E+02</rscale>
<asrwt>0</asrwt>
<pdfrwt beam="1">  1        2 0.66010776E-02 0.76884538E+02</pdfrwt>
<pdfrwt beam="2">  1       -2 0.52987872E-02 0.76884538E+02</pdfrwt>
<totfact> 0.15741058E+05</totfact>
</mgrwt>
</event>
<event>
 5    1  0.6079230E+000  0.8477220E+02  0.7546771E-02  0.1316029E+00
          1   -1    0    0  501    0  0.00000000000E+00  0.00000000000E+00  0.59606776823E+02  0.59606776823E+02  0.00000000000E+00 0. -1.
         -1   -1    0    0    0  501 -0.00000000000E+00 -0.00000000000E+00 -0.30140555389E+02  0.30140555389E+02  0.00000000000E+00 0.  1.
         23    2    1    2    0    0  0.00000000000E+00  0.00000000000E+00  0.29466221434E+02  0.89747332212E+02  0.84772197291E+02 0.  0.
        -13    1    3    3    0    0  0.90589488421E+01  0.59714690011E+01 -0.28645449851E+02  0.30631434725E+02  0.00000000000E+00 0.  1.
         13    1    3    3    0    0 -0.90589488421E+01 -0.59714690011E+01  0.58111671285E+02  0.59115897487E+02  0.00000000000E+00 0. -1.
<mgrwt>
<rscale>  0 0.84772197E+02</rscale>
<asrwt>0</asrwt>
<pdfrwt beam="1">  1        1 0.91702733E-02 0.84772197E+02</pdfrwt>
<pdfrwt beam="2">  1       -1 0.46370085E-02 0.84772197E+02</pdfrwt>
<totfact> 0.11768887E+05</totfact>
</mgrwt>
</event>
<event>
 5    1  0.6079230E+000  0.9049228E+02  0.7546771E-02  0.1301664E+00
          2   -1    0    0  501    0  0.00000000000E+00  0.00000000000E+00  0.21826288250E+03  0.21826288250E+03  0.00000000000E+00 0.  1.
         -2   -1    0    0    0  501 -0.00000000000E+00 -0.00000000000E+00 -0.93795762103E+01  0.93795762103E+01  0.00000000000E+00 0. -1.
         23    2    1    2    0    0  0.00000000000E+00  0.00000000000E+00  0.20888330629E+03  0.22764245872E+03  0.90492283435E+02 0.  0.
        -13    1    3    3    0    0  0.15701469621E+01 -0.42216640328E+02  0.14519929697E+03  0.15122019019E+03  0.00000000000E+00 0.  1.
         13    1    3    3    0    0 -0.15701469621E+01  0.42216640328E+02  0.63684009325E+02  0.76422268520E+02  0.00000000000E+00 0. -1.
<mgrwt>
<rscale>  0 0.90492283E+02</rscale>
<asrwt>0</asrwt>
<pdfrwt beam="1">  1        2 0.33578901E-01 0.90492283E+02</pdfrwt>
<pdfrwt beam="2">  1       -2 0.14430119E-02 0.90492283E+02</pdfrwt>
<totfact> 0.16293926E+05</totfact>
</mgrwt>
</event>
<event>
 5    1  0.6079230E+000  0.8744737E+02  0.7546771E-02  0.1309154E+00
          3   -1    0    0  501    0  0.00000000000E+00  0.00000000000E+00  0.46040110630E+02  0.46040110630E+02  0.00000000000E+00 0. -1.
         -3   -1    0    0    0  501 -0.00000000000E+00 -0.00000000000E+00 -0.41523807663E+02  0.41523807663E+02  0.00000000000E+00 0.  1.
         23    2    1    2    0    0  0.00000000000E+00  0.00000000000E+00  0.45163029673E+01  0.87563918293E+02  0.87447371569E+02 0.  0.
        -13    1    3    3    0    0 -0.35152704181E+02  0.58537446120E+00  0.28287130263E+02  0.45124461359E+02  0.00000000000E+00 0. -1.
         13    1    3    3    0    0  0.35152704181E+02 -0.58537446120E+00 -0.23770827295E+02  0.42439456933E+02  0.00000000000E+00 0.  1.
<mgrwt>
<rscale>  0 0.87447372E+02</rscale>
<asrwt>0</asrwt>
<pdfrwt beam="1">  1        3 0.70830939E-02 0.87447372E+02</pdfrwt>
<pdfrwt beam="2">  1       -3 0.63882782E-02 0.87447372E+02</pdfrwt>
<totfact> 0.39895976E+04</totfact>
</mgrwt>
</event>
<event>
 5    1  0.6079230E+000  0.9029803E+02  0.7546771E-02  0.1302132E+00
         -1   -1    0    0    0  501 -0.00000000000E+00  0.00000000000E+00  0.15541926318E+03  0.15541926318E+03  0.00000000000E+00 0.  1.
          1   -1    0    0  501    0  0.00000000000E+00 -0.00000000000E+00 -0.13115706190E+02  0.13115706190E+02  0.00000000000E+00 0. -1.
         23    2    1    2    0    0  0.00000000000E+00  0.00000000000E+00  0.14230355699E+03  0.16853496937E+03  0.90298026380E+02 0.  0.
        -13    1    3    3    0    0 -0.39060205728E+02 -0.21956183315E+02  0.60817123931E+02  0.75541354373E+02  0.00000000000E+00 0.  1.
         13    1    3    3    0    0  0.39060205728E+02  0.21956183315E+02  0.81486433055E+02  0.92993614993E+02  0.00000000000E+00 0. -1.
<mgrwt>
<rscale>  0 0.90298026E+02</rscale>
<asrwt>0</asrwt>
<pdfrwt beam="2">  1        1 0.20178011E-02 0.90298026E+02</pdfrwt>
<pdfrwt beam="1">  1       -1 0.23910655E-01 0.90298026E+02</pdfrwt>
<totfact> 0.76049826E+04</totfact>
</mgrwt>
</event>
<event>
 5    1  0.6079230E+000  0.9135532E+02  0.7546771E-02  0.1299602E+00
          3   -1    0    0  501    0  0.00000000000E+00  0.00000000000E+00  0.20494474692E+02  0.20494474692E+02  0.00000000000E+00 0. -1.
         -3   -1    0    0    0  501 -0.00000000000E+00 -0.00000000000E+00 -0.10180542843E+03  0.10180542843E+03  0.00000000000E+00 0.  1.
         23    2    1    2    0    0  0.00000000000E+00  0.00000000000E+00 -0.81310953738E+02  0.12229990312E+03  0.91355323358E+02 0.  0.
        -13    1    3    3    0    0 -0.45189705317E+02 -0.40916182115E+01 -0.33622635445E+02  0.56474174810E+02  0.00000000000E+00 0.  1.
         13    1    3    3    0    0  0.45189705317E+02  0.40916182115E+01 -0.47688318293E+02  0.65825728312E+02  0.00000000000E+00 0. -1.
<mgrwt>
<rscale>  0 0.91355323E+02</rscale>
<asrwt>0</asrwt>
<pdfrwt beam="1">  1        3 0.31529961E-02 0.91355323E+02</pdfrwt>
<pdfrwt beam="2">  1       -3 0.15662374E-01 0.91355323E+02</pdfrwt>
<totfact> 0.32915863E+04</totfact>
</mgrwt>
</event>
<event>
 5    1  0.6079230E+000  0.9249359E+02  0.7546771E-02  0.1296923E+00
         -1   -1    0    0    0  501 -0.00000000000E+00  0.00000000000E+00  0.14164254228E+02  0.14164254228E+02  0.00000000000E+00 0.  1.
          1   -1    0    0  501    0  0.00000000000E+00 -0.00000000000E+00 -0.15099744487E+03  0.15099744487E+03  0.00000000000E+00 0. -1.
         23    2    1    2    0    0  0.00000000000E+00  0.00000000000E+00 -0.13683319064E+03  0.16516169910E+03  0.92493593225E+02 0.  0.
        -13    1    3    3    0    0 -0.43586036427E+02  0.19562369369E+01 -0.41031556537E+02  0.59892888278E+02  0.00000000000E+00 0.  1.
         13    1    3    3    0    0  0.43586036427E+02 -0.19562369369E+01 -0.95801634107E+02  0.10526881082E+03  0.00000000000E+00 0. -1.
<mgrwt>
<rscale>  0 0.92493593E+02</rscale>
<asrwt>0</asrwt>
<pdfrwt beam="2">  1        1 0.23230376E-01 0.92493593E+02</pdfrwt>
<pdfrwt beam="1">  1       -1 0.21791161E-02 0.92493593E+02</pdfrwt>
<totfact> 0.10800321E+05</totfact>
</mgrwt>
</event>
<event>
 5    1  0.6079230E+000  0.9277350E+02  0.7546771E-02  0.1296271E+00
          4   -1    0    0  501    0  0.00000000000E+00  0.00000000000E+00  0.17326093131E+02  0.17326093131E+02  0.00000000000E+00 0. -1.
         -4   -1    0    0    0  501 -0.00000000000E+00 -0.00000000000E+00 -0.12419016755E+03  0.12419016755E+03  0.00000000000E+00 0.  1.
         23    2    1    2    0    0  0.00000000000E+00  0.00000000000E+00 -0.10686407442E+03  0.14151626068E+03  0.92773496409E+02 0.  0.
        -13    1    3    3    0    0 -0.42461713937E+02  0.53406329984E+01 -0.26135945147E+02  0.50145858652E+02  0.00000000000E+00 0. -1.
         13    1    3    3    0    0  0.42461713937E+02 -0.53406329984E+01 -0.80728129272E+02  0.91370402029E+02  0.00000000000E+00 0.  1.
<mgrwt>
<rscale>  0 0.92773496E+02</rscale>
<asrwt>0</asrwt>
<pdfrwt beam="1">  1        4 0.26655529E-02 0.92773496E+02</pdfrwt>
<pdfrwt beam="2">  1       -4 0.19106179E-01 0.92773496E+02</pdfrwt>
<totfact> 0.23001792E+04</totfact>
</mgrwt>
</event>
<event>
 5    1  0.6079230E+000  0.9197804E+02  0.7546771E-02  0.1298131E+00
          4   -1    0    0  501    0  0.00000000000E+00  0.00000000000E+00  0.16245255711E+02  0.16245255711E+02  0.00000000000E+00 0. -1.
         -4   -1    0    0    0  501 -0.00000000000E+00 -0.00000000000E+00 -0.13019123944E+03  0.13019123944E+03  0.00000000000E+00 0.  1.
         23    2    1    2    0    0  0.00000000000E+00  0.00000000000E+00 -0.11394598373E+03  0.14643649515E+03  0.91978040336E+02 0.  0.
        -13    1    3    3    0    0  0.45257797522E+02 -0.41870085021E+00 -0.69960551400E+02  0.83324199961E+02  0.00000000000E+00 0. -1.
         13    1    3    3    0    0 -0.45257797522E+02  0.41870085021E+00 -0.43985432328E+02  0.63112295189E+02  0.00000000000E+00 0.  1.
<mgrwt>
<rscale>  0 0.91978040E+02</rscale>
<asrwt>0</asrwt>
<pdfrwt beam="1">  1        4 0.24992701E-02 0.91978040E+02</pdfrwt>
<pdfrwt beam="2">  1       -4 0.20029421E-01 0.91978040E+02</pdfrwt>
<totfact> 0.23296677E+04</totfact>
</mgrwt>
</event>
<event>
 5    1  0.6079230E+000  0.9321032E+02  0.7546771E-02  0.1295259E+00
         -1   -1    0    0    0  501 -0.00000000000E+00  0.00000000000E+00  0.10119102172E+03  0.10119102172E+03  0.00000000000E+00 0.  1.
          1   -1    0    0  501    0  0.00000000000E+00 -0.00000000000E+00 -0.21464758572E+02  0.21464758572E+02  0.00000000000E+00 0. -1.
         23    2    1    2    0    0  0.00000000000E+00  0.00000000000E+00  0.79726263150E+02  0.12265578029E+03  0.93210318118E+02 0.  0.
        -13    1    3    3    0    0  0.17768554346E+02 -0.18150532100E+01  0.96508532910E+02  0.98147403767E+02  0.00000000000E+00 0.  1.
         13    1    3    3    0    0 -0.17768554346E+02  0.18150532100E+01 -0.16782269760E+02  0.24508376527E+02  0.00000000000E+00 0. -1.
<mgrwt>
<rscale>  0 0.93210318E+02</rscale>
<asrwt>0</asrwt>
<pdfrwt beam="2">  1        1 0.33022706E-02 0.93210318E+02</pdfrwt>
<pdfrwt beam="1">  1       -1 0.15567849E-01 0.93210318E+02</pdfrwt>
<totfact> 0.76700873E+04</totfact>
</mgrwt>
</event>
<event>
 5    1  0.6079230E+000  0.9125792E+02  0.7546771E-02  0.1299834E+00
         -1   -1    0    0    0  501 -0.00000000000E+00  0.00000000000E+00  0.42484937727E+02  0.42484937727E+02  0.00000000000E+00 0.  1.
          1   -1    0    0  501    0  0.00000000000E+00 -0.00000000000E+00 -0.49005650915E+02  0.49005650915E+02  0.00000000000E+00 0. -1.
         23    2    1    2    0    0  0.00000000000E+00  0.00000000000E+00 -0.65207131875E+01  0.91490588641E+02  0.91257920804E+02 0.  0.
        -13    1    3    3    0    0 -0.31664011665E+02 -0.31355367669E+02  0.65745121070E+01  0.45044343994E+02  0.00000000000E+00 0.  1.
         13    1    3    3    0    0  0.31664011665E+02  0.31355367669E+02 -0.13095225295E+02  0.46446244648E+02  0.00000000000E+00 0. -1.
<mgrwt>
<rscale>  0 0.91257921E+02</rscale>
<asrwt>0</asrwt>
<pdfrwt beam="2">  1        1 0.75393308E-02 0.91257921E+02</pdfrwt>
<pdfrwt beam="1">  1       -1 0.65361443E-02 0.91257921E+02</pdfrwt>
<totfact> 0.93249204E+04</totfact>
</mgrwt>
</event>
<event>
 5    1  0.6079230E+000  0.9051986E+02  0.7546771E-02  0.1301598E+00
          2   -1    0    0  501    0  0.00000000000E+00  0.00000000000E+00  0.11277733052E+03  0.11277733052E+03  0.00000000000E+00 0. -1.
         -2   -1    0    0    0  501 -0.00000000000E+00 -0.00000000000E+00 -0.18163767677E+02  0.18163767677E+02  0.00000000000E+00 0.  1.
         23    2    1    2    0    0  0.00000000000E+00  0.00000000000E+00  0.94613562841E+02  0.13094109819E+03  0.90519859274E+02 0.  0.
        -13    1    3    3    0    0 -0.43972647886E+00  0.31175913716E+02  0.94764284774E+02  0.99761719232E+02  0.00000000000E+00 0. -1.
         13    1    3    3    0    0  0.43972647886E+00 -0.31175913716E+02 -0.15072193258E+00  0.31179378963E+02  0.00000000000E+00 0.  1.
<mgrwt>
<rscale>  0 0.90519859E+02</rscale>
<asrwt>0</asrwt>
<pdfrwt beam="1">  1        2 0.17350358E-01 0.90519859E+02</pdfrwt>
<pdfrwt beam="2">  1       -2 0.27944259E-02 0.90519859E+02</pdfrwt>
<totfact> 0.12987543E+05</totfact>
</mgrwt>
</event>
<event>
 5    1  0.6079230E+000  0.9089259E+02  0.7546771E-02  0.1300704E+00
         -2   -1    0    0    0  501 -0.00000000000E+00  0.00000000000E+00  0.57528656997E+01  0.57528656997E+01  0.00000000000E+00 0.  1.
          2   -1    0    0  501    0  0.00000000000E+00 -0.00000000000E+00 -0.35901507919E+03  0.35901507919E+03  0.00000000000E+00 0. -1.
         23    2    1    2    0    0  0.00000000000E+00  0.00000000000E+00 -0.35326221349E+03  0.36476794489E+03  0.90892585721E+02 0.  0.
        -13    1    3    3    0    0 -0.10577240699E+02  0.41400499684E+02 -0.11452584452E+03  0.12223767200E+03  0.00000000000E+00 0.  1.
         13    1    3    3    0    0  0.10577240699E+02 -0.41400499684E+02 -0.23873636898E+03  0.24253027289E+03  0.00000000000E+00 0. -1.
<mgrwt>
<rscale>  0 0.90892586E+02</rscale>
<asrwt>0</asrwt>
<pdfrwt beam="2">  1        2 0.55233104E-01 0.90892586E+02</pdfrwt>
<pdfrwt beam="1">  1       -2 0.88505603E-03 0.90892586E+02</pdfrwt>
<totfact> 0.19357203E+05</totfact>
</mgrwt>
</event>
<event>
 5    1  0.6079230E+000  0.9040438E+02  0.7546771E-02  0.1301875E+00
          2   -1    0    0  501    0  0.00000000000E+00  0.00000000000E+00  0.17481212761E+03  0.17481212761E+03  0.00000000000E+00 0. -1.
         -2   -1    0    0    0  501 -0.00000000000E+00 -0.00000000000E+00 -0.11688192727E+02  0.11688192727E+02  0.00000000000E+00 0.  1.
         23    2    1    2    0    0  0.00000000000E+00  0.00000000000E+00  0.16312393488E+03  0.18650032033E+03  0.90404376852E+02 0.  0.
        -13    1    3    3    0    0  0.35641278521E+02  0.25206708231E+02  0.10575746588E+03  0.11441293836E+03  0.00000000000E+00 0. -1.
         13    1    3    3    0    0 -0.35641278521E+02 -0.25206708231E+02  0.57366468998E+02  0.72087381973E+02  0.00000000000E+00 0.  1.
<mgrwt>
<rscale>  0 0.90404377E+02</rscale>
<asrwt>0</asrwt>
<pdfrwt beam="1">  1        2 0.26894172E-01 0.90404377E+02</pdfrwt>
<pdfrwt beam="2">  1       -2 0.17981836E-02 0.90404377E+02</pdfrwt>
<totfact> 0.15083874E+05</totfact>
</mgrwt>
</event>
<event>
 5    1  0.6079230E+000  0.8753420E+02  0.7546771E-02  0.1308935E+00
          3   -1    0    0  501    0  0.00000000000E+00  0.00000000000E+00  0.31632247567E+02  0.31632247567E+02  0.00000000000E+00 0. -1.
         -3   -1    0    0    0  501 -0.00000000000E+00 -0.00000000000E+00 -0.60557155917E+02  0.60557155917E+02  0.00000000000E+00 0.  1.
         23    2    1    2    0    0  0.00000000000E+00  0.00000000000E+00 -0.28924908350E+02  0.92189403485E+02  0.87534197842E+02 0.  0.
        -13    1    3    3    0    0 -0.11789095542E+02 -0.12292032990E+02 -0.56923857592E+02  0.59417189532E+02  0.00000000000E+00 0.  1.
         13    1    3    3    0    0  0.11789095542E+02  0.12292032990E+02  0.27998949242E+02  0.32772213953E+02  0.00000000000E+00 0. -1.
<mgrwt>
<rscale>  0 0.87534198E+02</rscale>
<asrwt>0</asrwt>
<pdfrwt beam="1">  1        3 0.48664997E-02 0.87534198E+02</pdfrwt>
<pdfrwt beam="2">  1       -3 0.93164854E-02 0.87534198E+02</pdfrwt>
<totfact> 0.39386863E+04</totfact>
</mgrwt>
</event>
<event>
 5    1  0.6079230E+000  0.9048200E+02  0.7546771E-02  0.1301689E+00
          1   -1    0    0  501    0  0.00000000000E+00  0.00000000000E+00  0.71768237609E+01  0.71768237609E+01  0.00000000000E+00 0. -1.
         -1   -1    0    0    0  501 -0.00000000000E+00 -0.00000000000E+00 -0.28518858901E+03  0.28518858901E+03  0.00000000000E+00 0.  1.
         23    2    1    2    0    0  0.00000000000E+00  0.00000000000E+00 -0.27801176525E+03  0.29236541277E+03  0.90482003558E+02 0.  0.
        -13    1    3    3    0    0 -0.43648795189E+02 -0.11720229601E+02 -0.14560191470E+03  0.15245490700E+03  0.00000000000E+00 0.  1.
         13    1    3    3    0    0  0.43648795189E+02  0.11720229601E+02 -0.13240985055E+03  0.13991050577E+03  0.00000000000E+00 0. -1.
<mgrwt>
<rscale>  0 0.90482004E+02</rscale>
<asrwt>0</asrwt>
<pdfrwt beam="1">  1        1 0.11041269E-02 0.90482004E+02</pdfrwt>
<pdfrwt beam="2">  1       -1 0.43875163E-01 0.90482004E+02</pdfrwt>
<totfact> 0.63028101E+04</totfact>
</mgrwt>
</event>
<event>
 5    1  0.6079230E+000  0.9051201E+02  0.7546771E-02  0.1301617E+00
          1   -1    0    0  501    0  0.00000000000E+00  0.00000000000E+00  0.30073614252E+02  0.30073614252E+02  0.00000000000E+00 0. -1.
         -1   -1    0    0    0  501 -0.00000000000E+00 -0.00000000000E+00 -0.68103081541E+02  0.68103081541E+02  0.00000000000E+00 0.  1.
         23    2    1    2    0    0  0.00000000000E+00  0.00000000000E+00 -0.38029467288E+02  0.98176695793E+02  0.90512005914E+02 0.  0.
        -13    1    3    3    0    0  0.10131245166E+02 -0.44010099375E+02 -0.22190985502E+02  0.50318692483E+02  0.00000000000E+00 0.  1.
         13    1    3    3    0    0 -0.10131245166E+02  0.44010099375E+02 -0.15838481786E+02  0.47858003311E+02  0.00000000000E+00 0. -1.
<mgrwt>
<rscale>  0 0.90512006E+02</rscale>
<asrwt>0</asrwt>
<pdfrwt beam="1">  1        1 0.46267099E-02 0.90512006E+02</pdfrwt>
<pdfrwt beam="2">  1       -1 0.10477397E-01 0.90512006E+02</pdfrwt>
<totfact> 0.88557525E+04</totfact>
</mgrwt>
</event>
<event>
 5    1  0.6079230E+000  0.9050608E+02  0.7546771E-02  0.1301631E+00
          3   -1    0    0  501    0  0.00000000000E+00  0.00000000000E+00  0.10868400307E+03  0.10868400307E+03  0.00000000000E+00 0. -1.
         -3   -1    0    0    0  501 -0.00000000000E+00 -0.00000000000E+00 -0.18842126208E+02  0.18842126208E+02  0.00000000000E+00 0.  1.
         23    2    1    2    0    0  0.00000000000E+00  0.00000000000E+00  0.89841876866E+02  0.12752612928E+03  0.90506081623E+02 0.  0.
        -13    1    3    3    0    0  0.38283699012E+02 -0.24012684226E+02  0.41590401869E+02  0.61416708975E+02  0.00000000000E+00 0.  1.
         13    1    3    3    0    0 -0.38283699012E+02  0.24012684226E+02  0.48251474997E+02  0.66109420306E+02  0.00000000000E+00 0. -1.
<mgrwt>
<rscale>  0 0.90506082E+02</rscale>
<asrwt>0</asrwt>
<pdfrwt beam="1">  1        3 0.16720616E-01 0.90506082E+02</pdfrwt>
<pdfrwt beam="2">  1       -3 0.28987887E-02 0.90506082E+02</pdfrwt>
<totfact> 0.33401007E+04</totfact>
</mgrwt>
</event>
<event>
 5    1  0.6079230E+000  0.9668050E+02  0.7546771E-02  0.1287435E+00
         -2   -1    0    0    0  501 -0.00000000000E+00  0.00000000000E+00  0.83297043637E+01  0.83297043637E+01  0.00000000000E+00 0.  1.
          2   -1    0    0  501    0  0.00000000000E+00 -0.00000000000E+00 -0.28053574251E+03  0.28053574251E+03  0.00000000000E+00 0. -1.
         23    2    1    2    0    0  0.00000000000E+00  0.00000000000E+00 -0.27220603814E+03  0.28886544687E+03  0.96680500589E+02 0.  0.
        -13    1    3    3    0    0  0.34089416000E+02 -0.32015650595E+02 -0.17265850544E+03  0.17887998677E+03  0.00000000000E+00 0.  1.
         13    1    3    3    0    0 -0.34089416000E+02  0.32015650595E+02 -0.99547532709E+02  0.10998546011E+03  0.00000000000E+00 0. -1.
<mgrwt>
<rscale>  0 0.96680501E+02</rscale>
<asrwt>0</asrwt>
<pdfrwt beam="2">  1        2 0.43159343E-01 0.96680501E+02</pdfrwt>
<pdfrwt beam="1">  1       -2 0.12814930E-02 0.96680501E+02</pdfrwt>
<totfact> 0.14973451E+05</totfact>
</mgrwt>
</event>
<event>
 5    1  0.6079230E+000  0.9091697E+02  0.7546771E-02  0.1300646E+00
         -3   -1    0    0    0  501 -0.00000000000E+00  0.00000000000E+00  0.10248724428E+02  0.10248724428E+02  0.00000000000E+00 0.  1.
          3   -1    0    0  501    0  0.00000000000E+00 -0.00000000000E+00 -0.20163231371E+03  0.20163231371E+03  0.00000000000E+00 0. -1.
         23    2    1    2    0    0  0.00000000000E+00  0.00000000000E+00 -0.19138358928E+03  0.21188103813E+03  0.90916973530E+02 0.  0.
        -13    1    3    3    0    0  0.26656958835E+02 -0.17384188862E+02 -0.17134015878E+03  0.17427063288E+03  0.00000000000E+00 0. -1.
         13    1    3    3    0    0 -0.26656958835E+02  0.17384188862E+02 -0.20043430501E+02  0.37610405248E+02  0.00000000000E+00 0.  1.
<mgrwt>
<rscale>  0 0.90916974E+02</rscale>
<asrwt>0</asrwt>
<pdfrwt beam="2">  1        3 0.31020358E-01 0.90916974E+02</pdfrwt>
<pdfrwt beam="1">  1       -3 0.15767267E-02 0.90916974E+02</pdfrwt>
<totfact> 0.28111246E+04</totfact>
</mgrwt>
</event>
<event>
 5    1  0.6079230E+000  0.9338279E+02  0.7546771E-02  0.1294861E+00
         -2   -1    0    0    0  501 -0.00000000000E+00  0.00000000000E+00  0.11017199757E+02  0.11017199757E+02  0.00000000000E+00 0.  1.
          2   -1    0    0  501    0  0.00000000000E+00 -0.00000000000E+00 -0.19788026022E+03  0.19788026022E+03  0.00000000000E+00 0. -1.
         23    2    1    2    0    0  0.00000000000E+00  0.00000000000E+00 -0.18686306046E+03  0.20889745998E+03  0.93382789739E+02 0.  0.
        -13    1    3    3    0    0  0.31761844016E+02  0.13530376588E+02 -0.23109911959E+02  0.41544600813E+02  0.00000000000E+00 0.  1.
         13    1    3    3    0    0 -0.31761844016E+02 -0.13530376588E+02 -0.16375314850E+03  0.16735285916E+03  0.00000000000E+00 0. -1.
<mgrwt>
<rscale>  0 0.93382790E+02</rscale>
<asrwt>0</asrwt>
<pdfrwt beam="2">  1        2 0.30443117E-01 0.93382790E+02</pdfrwt>
<pdfrwt beam="1">  1       -2 0.16949538E-02 0.93382790E+02</pdfrwt>
<totfact> 0.14445737E+05</totfact>
</mgrwt>
</event>
<event>
 5    1  0.6079230E+000  0.9075286E+02  0.7546771E-02  0.1301039E+00
          1   -1    0    0  501    0  0.00000000000E+00  0.00000000000E+00  0.30192851020E+03  0.30192851020E+03  0.00000000000E+00 0. -1.
         -1   -1    0    0    0  501 -0.00000000000E+00 -0.00000000000E+00 -0.68195627462E+01  0.68195627462E+01  0.00000000000E+00 0.  1.
         23    2    1    2    0    0  0.00000000000E+00  0.00000000000E+00  0.29510894745E+03  0.30874807294E+03  0.90752860454E+02 0.  0.
        -13    1    3    3    0    0  0.28589809621E+02  0.33663331384E+02  0.18297910155E+03  0.18823376078E+03  0.00000000000E+00 0.  1.
         13    1    3    3    0    0 -0.28589809621E+02 -0.33663331384E+02  0.11212984590E+03  0.12051431216E+03  0.00000000000E+00 0. -1.
<mgrwt>
<rscale>  0 0.90752860E+02</rscale>
<asrwt>0</asrwt>
<pdfrwt beam="1">  1        1 0.46450530E-01 0.90752860E+02</pdfrwt>
<pdfrwt beam="2">  1       -1 0.10491637E-02 0.90752860E+02</pdfrwt>
<totfact> 0.12988053E+05</totfact>
</mgrwt>
</event>
<event>
 5    1  0.6079230E+000  0.9212219E+02  0.7546771E-02  0.1297792E+00
          3   -1    0    0  501    0  0.00000000000E+00  0.00000000000E+00  0.21964869890E+03  0.21964869890E+03  0.00000000000E+00 0. -1.
         -3   -1    0    0    0  501 -0.00000000000E+00 -0.00000000000E+00 -0.96591708914E+01  0.96591708914E+01  0.00000000000E+00 0.  1.
         23    2    1    2    0    0  0.00000000000E+00  0.00000000000E+00  0.20998952800E+03  0.22930786979E+03  0.92122186659E+02 0.  0.
        -13    1    3    3    0    0  0.14182175592E+02  0.33670520404E+02  0.35174239327E+02  0.50715531754E+02  0.00000000000E+00 0.  1.
         13    1    3    3    0    0 -0.14182175592E+02 -0.33670520404E+02  0.17481528868E+03  0.17859233803E+03  0.00000000000E+00 0. -1.
<mgrwt>
<rscale>  0 0.92122187E+02</rscale>
<asrwt>0</asrwt>
<pdfrwt beam="1">  1        3 0.33792104E-01 0.92122187E+02</pdfrwt>
<pdfrwt beam="2">  1       -3 0.14860265E-02 0.92122187E+02</pdfrwt>
<totfact> 0.26308426E+04</totfact>
</mgrwt>
</event>
<event>
 5    1  0.6079230E+000  0.9052484E+02  0.7546771E-02  0.1301586E+00
         -2   -1    0    0    0  501 -0.00000000000E+00  0.00000000000E+00  0.16971796578E+02  0.16971796578E+02  0.00000000000E+00 0.  1.
          2   -1    0    0  501    0  0.00000000000E+00 -0.00000000000E+00 -0.12071124197E+03  0.12071124197E+03  0.00000000000E+00 0. -1.
         23    2    1    2    0    0  0.00000000000E+00  0.00000000000E+00 -0.10373944540E+03  0.13768303855E+03  0.90524839540E+02 0.  0.
        -13    1    3    3    0    0 -0.45181548042E+02 -0.59488203886E+00 -0.55882380529E+02  0.71864919270E+02  0.00000000000E+00 0. -1.
         13    1    3    3    0    0  0.45181548042E+02  0.59488203886E+00 -0.47857064867E+02  0.65818119282E+02  0.00000000000E+00 0.  1.
<mgrwt>
<rscale>  0 0.90524840E+02</rscale>
<asrwt>0</asrwt>
<pdfrwt beam="2">  1        2 0.18570960E-01 0.90524840E+02</pdfrwt>
<pdfrwt beam="1">  1       -2 0.26110457E-02 0.90524840E+02</pdfrwt>
<totfact> 0.13268520E+05</totfact>
</mgrwt>
</event>
<event>
 5    1  0.6079230E+000  0.9219361E+02  0.7546771E-02  0.1297625E+00
         -2   -1    0    0    0  501 -0.00000000000E+00  0.00000000000E+00  0.58032906390E+01  0.58032906390E+01  0.00000000000E+00 0.  1.
          2   -1    0    0  501    0  0.00000000000E+00 -0.00000000000E+00 -0.36615702455E+03  0.36615702455E+03  0.00000000000E+00 0. -1.
         23    2    1    2    0    0  0.00000000000E+00  0.00000000000E+00 -0.36035373392E+03  0.37196031519E+03  0.92193614378E+02 0.  0.
        -13    1    3    3    0    0 -0.75966606916E+01 -0.45305535273E+02 -0.19560072401E+03  0.20092273145E+03  0.00000000000E+00 0. -1.
         13    1    3    3    0    0  0.75966606916E+01  0.45305535273E+02 -0.16475300990E+03  0.17103758374E+03  0.00000000000E+00 0.  1.
<mgrwt>
<rscale>  0 0.92193614E+02</rscale>
<asrwt>0</asrwt>
<pdfrwt beam="2">  1        2 0.56331832E-01 0.92193614E+02</pdfrwt>
<pdfrwt beam="1">  1       -2 0.89281423E-03 0.92193614E+02</pdfrwt>
<totfact> 0.18772786E+05</totfact>
</mgrwt>
</event>
<event>
 5    1  0.6079230E+000  0.9047486E+02  0.7546771E-02  0.1301706E+00
         -3   -1    0    0    0  501 -0.00000000000E+00  0.00000000000E+00  0.53761272002E+02  0.53761272002E+02  0.00000000000E+00 0.  1.
          3   -1    0    0  501    0  0.00000000000E+00 -0.00000000000E+00 -0.38065045276E+02  0.38065045276E+02  0.00000000000E+00 0. -1.
         23    2    1    2    0    0  0.00000000000E+00  0.00000000000E+00  0.15696226726E+02  0.91826317277E+02  0.90474863975E+02 0.  0.
        -13    1    3    3    0    0 -0.27664750664E+02  0.28427984711E+01  0.44060265616E+02  0.52103041549E+02  0.00000000000E+00 0.  1.
         13    1    3    3    0    0  0.27664750664E+02 -0.28427984711E+01 -0.28364038890E+02  0.39723275729E+02  0.00000000000E+00 0. -1.
<mgrwt>
<rscale>  0 0.90474864E+02</rscale>
<asrwt>0</asrwt>
<pdfrwt beam="2">  1        3 0.58561608E-02 0.90474864E+02</pdfrwt>
<pdfrwt beam="1">  1       -3 0.82709650E-02 0.90474864E+02</pdfrwt>
<totfact> 0.36039254E+04</totfact>
</mgrwt>
</event>
<event>
 5    1  0.6079230E+000  0.9283557E+02  0.7546771E-02  0.1296127E+00
          1   -1    0    0  501    0  0.00000000000E+00  0.00000000000E+00  0.17760562442E+03  0.17760562442E+03  0.00000000000E+00 0. -1.
         -1   -1    0    0    0  501 -0.00000000000E+00 -0.00000000000E+00 -0.12131434433E+02  0.12131434433E+02  0.00000000000E+00 0.  1.
         23    2    1    2    0    0  0.00000000000E+00  0.00000000000E+00  0.16547418998E+03  0.18973705885E+03  0.92835574810E+02 0.  0.
        -13    1    3    3    0    0  0.39796630920E+02 -0.12004744896E+02  0.40517709609E+02  0.58048001900E+02  0.00000000000E+00 0.  1.
         13    1    3    3    0    0 -0.39796630920E+02  0.12004744896E+02  0.12495648038E+03  0.13168905695E+03  0.00000000000E+00 0. -1.
<mgrwt>
<rscale>  0 0.92835575E+02</rscale>
<asrwt>0</asrwt>
<pdfrwt beam="1">  1        1 0.27323940E-01 0.92835575E+02</pdfrwt>
<pdfrwt beam="2">  1       -1 0.18663746E-02 0.92835575E+02</pdfrwt>
<totfact> 0.11024553E+05</totfact>
</mgrwt>
</event>
<event>
 5    1  0.6079230E+000  0.8953107E+02  0.7546771E-02  0.1303991E+00
         -3   -1    0    0    0  501 -0.00000000000E+00  0.00000000000E+00  0.31371037485E+03  0.31371037485E+03  0.00000000000E+00 0.  1.
          3   -1    0    0  501    0  0.00000000000E+00 -0.00000000000E+00 -0.63879079762E+01  0.63879079762E+01  0.00000000000E+00 0. -1.
         23    2    1    2    0    0  0.00000000000E+00  0.00000000000E+00  0.30732246688E+03  0.32009828283E+03  0.89531067362E+02 0.  0.
        -13    1    3    3    0    0  0.41065776619E+02 -0.17819257466E+02  0.15427070867E+03  0.16063429117E+03  0.00000000000E+00 0.  1.
         13    1    3    3    0    0 -0.41065776619E+02  0.17819257466E+02  0.15305175820E+03  0.15946399166E+03  0.00000000000E+00 0. -1.
<mgrwt>
<rscale>  0 0.89531067E+02</rscale>
<asrwt>0</asrwt>
<pdfrwt beam="2">  1        3 0.98275531E-03 0.89531067E+02</pdfrwt>
<pdfrwt beam="1">  1       -3 0.48263123E-01 0.89531067E+02</pdfrwt>
<totfact> 0.24426927E+04</totfact>
</mgrwt>
</event>
<event>
 5    1  0.6079230E+000  0.9079559E+02  0.7546771E-02  0.1300936E+00
          2   -1    0    0  501    0  0.00000000000E+00  0.00000000000E+00  0.40124164373E+02  0.40124164373E+02  0.00000000000E+00 0. -1.
         -2   -1    0    0    0  501 -0.00000000000E+00 -0.00000000000E+00 -0.51364549420E+02  0.51364549420E+02  0.00000000000E+00 0.  1.
         23    2    1    2    0    0  0.00000000000E+00  0.00000000000E+00 -0.11240385047E+02  0.91488713793E+02  0.90795586321E+02 0.  0.
        -13    1    3    3    0    0  0.83008096091E+01  0.17501610648E+02 -0.46991509311E+02  0.50827273808E+02  0.00000000000E+00 0.  1.
         13    1    3    3    0    0 -0.83008096091E+01 -0.17501610648E+02  0.35751124264E+02  0.40661439984E+02  0.00000000000E+00 0. -1.
<mgrwt>
<rscale>  0 0.90795586E+02</rscale>
<asrwt>0</asrwt>
<pdfrwt beam="1">  1        2 0.61729484E-02 0.90795586E+02</pdfrwt>
<pdfrwt beam="2">  1       -2 0.79022383E-02 0.90795586E+02</pdfrwt>
<totfact> 0.96629688E+04</totfact>
</mgrwt>
</event>
<event>
 5    1  0.6079230E+000  0.9405474E+02  0.7546771E-02  0.1293319E+00
         -4   -1    0    0    0  501 -0.00000000000E+00  0.00000000000E+00  0.68505953814E+02  0.68505953814E+02  0.00000000000E+00 0. -1.
          4   -1    0    0  501    0  0.00000000000E+00 -0.00000000000E+00 -0.32282939670E+02  0.32282939670E+02  0.00000000000E+00 0.  1.
         23    2    1    2    0    0  0.00000000000E+00  0.00000000000E+00  0.36223014143E+02  0.10078889348E+03  0.94054740955E+02 0.  0.
        -13    1    3    3    0    0 -0.44433348894E+02 -0.14539340856E+02  0.12662280201E+02  0.48436022404E+02  0.00000000000E+00 0.  1.
         13    1    3    3    0    0  0.44433348894E+02  0.14539340856E+02  0.23560733942E+02  0.52352871080E+02  0.00000000000E+00 0. -1.
<mgrwt>
<rscale>  0 0.94054741E+02</rscale>
<asrwt>0</asrwt>
<pdfrwt beam="2">  1        4 0.49666061E-02 0.94054741E+02</pdfrwt>
<pdfrwt beam="1">  1       -4 0.10539378E-01 0.94054741E+02</pdfrwt>
<totfact> 0.24268259E+04</totfact>
</mgrwt>
</event>
<event>
 5    1  0.6079230E+000  0.9787421E+02  0.7546771E-02  0.1284831E+00
          2   -1    0    0  501    0  0.00000000000E+00  0.00000000000E+00  0.76540111287E+02  0.76540111287E+02  0.00000000000E+00 0. -1.
         -2   -1    0    0    0  501 -0.00000000000E+00 -0.00000000000E+00 -0.31288695313E+02  0.31288695313E+02  0.00000000000E+00 0.  1.
         23    2    1    2    0    0  0.00000000000E+00  0.00000000000E+00  0.45251415975E+02  0.10782880660E+03  0.97874209499E+02 0.  0.
        -13    1    3    3    0    0  0.25989192136E+02  0.24369514218E+02 -0.14335389200E+02  0.38403316454E+02  0.00000000000E+00 0.  1.
         13    1    3    3    0    0 -0.25989192136E+02 -0.24369514218E+02  0.59586805175E+02  0.69425490146E+02  0.00000000000E+00 0. -1.
<mgrwt>
<rscale>  0 0.97874209E+02</rscale>
<asrwt>0</asrwt>
<pdfrwt beam="1">  1        2 0.11775402E-01 0.97874209E+02</pdfrwt>
<pdfrwt beam="2">  1       -2 0.48136455E-02 0.97874209E+02</pdfrwt>
<totfact> 0.92977300E+04</totfact>
</mgrwt>
</event>
<event>
 5    1  0.6079230E+000  0.9540966E+02  0.7546771E-02  0.1290256E+00
         -2   -1    0    0    0  501 -0.00000000000E+00  0.00000000000E+00  0.53035124030E+01  0.53035124030E+01  0.00000000000E+00 0.  1.
          2   -1    0    0  501    0  0.00000000000E+00 -0.00000000000E+00 -0.42910258720E+03  0.42910258720E+03  0.00000000000E+00 0. -1.
         23    2    1    2    0    0  0.00000000000E+00  0.00000000000E+00 -0.42379907480E+03  0.43440609961E+03  0.95409661846E+02 0.  0.
        -13    1    3    3    0    0  0.39338708716E+02 -0.26859834394E+02 -0.20005616094E+03  0.20564885664E+03  0.00000000000E+00 0.  1.
         13    1    3    3    0    0 -0.39338708716E+02  0.26859834394E+02 -0.22374291386E+03  0.22875724297E+03  0.00000000000E+00 0. -1.
<mgrwt>
<rscale>  0 0.95409662E+02</rscale>
<asrwt>0</asrwt>
<pdfrwt beam="2">  1        2 0.66015788E-01 0.95409662E+02</pdfrwt>
<pdfrwt beam="1">  1       -2 0.81592492E-03 0.95409662E+02</pdfrwt>
<totfact> 0.18137772E+05</totfact>
</mgrwt>
</event>
<event>
 4    1  0.6079230E+000  0.1616381E+03  0.7546771E-02  0.1186860E+00
          1   -1    0    0  501    0  0.00000000000E+00  0.00000000000E+00  0.22712536917E+03  0.22712536917E+03  0.00000000000E+00 0. -1.
         -1   -1    0    0    0  501 -0.00000000000E+00 -0.00000000000E+00 -0.28758203952E+02  0.28758203952E+02  0.00000000000E+00 0.  1.
        -13    1    1    2    0    0 -0.40284266377E+02  0.15403236833E+02 -0.90178971235E+01  0.44061369599E+02  0.00000000000E+00 0.  1.
         13    1    1    2    0    0  0.40284266377E+02 -0.15403236833E+02  0.20738506234E+03  0.21182220352E+03  0.00000000000E+00 0. -1.
<mgrwt>
<rscale>  0 0.16163809E+03</rscale>
<asrwt>0</asrwt>
<pdfrwt beam="1">  1        1 0.34942363E-01 0.16163809E+03</pdfrwt>
<pdfrwt beam="2">  1       -1 0.44243392E-02 0.16163809E+03</pdfrwt>
<totfact> 0.24905270E+04</totfact>
</mgrwt>
</event>
<event>
 5    1  0.6079230E+000  0.9344210E+02  0.7546771E-02  0.1294724E+00
         -2   -1    0    0    0  501 -0.00000000000E+00  0.00000000000E+00  0.27564928363E+02  0.27564928363E+02  0.00000000000E+00 0.  1.
          2   -1    0    0  501    0  0.00000000000E+00 -0.00000000000E+00 -0.79189627044E+02  0.79189627044E+02  0.00000000000E+00 0. -1.
         23    2    1    2    0    0  0.00000000000E+00  0.00000000000E+00 -0.51624698681E+02  0.10675455541E+03  0.93442097506E+02 0.  0.
        -13    1    3    3    0    0 -0.32551229521E+02 -0.15486398317E+02  0.81449915929E+01  0.36956081559E+02  0.00000000000E+00 0.  1.
         13    1    3    3    0    0  0.32551229521E+02  0.15486398317E+02 -0.59769690274E+02  0.69798473848E+02  0.00000000000E+00 0. -1.
<mgrwt>
<rscale>  0 0.93442098E+02</rscale>
<asrwt>0</asrwt>
<pdfrwt beam="2">  1        2 0.12183020E-01 0.93442098E+02</pdfrwt>
<pdfrwt beam="1">  1       -2 0.42407582E-02 0.93442098E+02</pdfrwt>
<totfact> 0.10694701E+05</totfact>
</mgrwt>
</event>
<event>
 5    1  0.6079230E+000  0.8820238E+02  0.7546771E-02  0.1307264E+00
          1   -1    0    0  501    0  0.00000000000E+00  0.00000000000E+00  0.13195336097E+03  0.13195336097E+03  0.00000000000E+00 0. -1.
         -1   -1    0    0    0  501 -0.00000000000E+00 -0.00000000000E+00 -0.14739412463E+02  0.14739412463E+02  0.00000000000E+00 0.  1.
         23    2    1    2    0    0  0.00000000000E+00  0.00000000000E+00  0.11721394851E+03  0.14669277343E+03  0.88202381220E+02 0.  0.
        -13    1    3    3    0    0  0.10134220374E+02 -0.42812876343E+02  0.63670735179E+02  0.77392553399E+02  0.00000000000E+00 0. -1.
         13    1    3    3    0    0 -0.10134220374E+02  0.42812876343E+02  0.53543213327E+02  0.69300220034E+02  0.00000000000E+00 0.  1.
<mgrwt>
<rscale>  0 0.88202381E+02</rscale>
<asrwt>0</asrwt>
<pdfrwt beam="1">  1        1 0.20300516E-01 0.88202381E+02</pdfrwt>
<pdfrwt beam="2">  1       -1 0.22676020E-02 0.88202381E+02</pdfrwt>
<totfact> 0.11981499E+05</totfact>
</mgrwt>
</event>
<event>
 5    1  0.6079230E+000  0.8996018E+02  0.7546771E-02  0.1302948E+00
         -2   -1    0    0    0  501 -0.00000000000E+00  0.00000000000E+00  0.12094616868E+03  0.12094616868E+03  0.00000000000E+00 0.  1.
          2   -1    0    0  501    0  0.00000000000E+00 -0.00000000000E+00 -0.16728172655E+02  0.16728172655E+02  0.00000000000E+00 0. -1.
         23    2    1    2    0    0  0.00000000000E+00  0.00000000000E+00  0.10421799603E+03  0.13767434134E+03  0.89960177670E+02 0.  0.
        -13    1    3    3    0    0 -0.22969755441E+02  0.34294213424E+02  0.24753666916E+02  0.48129479170E+02  0.00000000000E+00 0. -1.
         13    1    3    3    0    0  0.22969755441E+02 -0.34294213424E+02  0.79464329111E+02  0.89544862167E+02  0.00000000000E+00 0.  1.
<mgrwt>
<rscale>  0 0.89960178E+02</rscale>
<asrwt>0</asrwt>
<pdfrwt beam="2">  1        2 0.25735651E-02 0.89960178E+02</pdfrwt>
<pdfrwt beam="1">  1       -2 0.18607102E-01 0.89960178E+02</pdfrwt>
<totfact> 0.77803262E+04</totfact>
</mgrwt>
</event>
<event>
 5    1  0.6079230E+000  0.9058914E+02  0.7546771E-02  0.1301431E+00
          2   -1    0    0  501    0  0.00000000000E+00  0.00000000000E+00  0.21398253203E+02  0.21398253203E+02  0.00000000000E+00 0. -1.
         -2   -1    0    0    0  501 -0.00000000000E+00 -0.00000000000E+00 -0.95876897662E+02  0.95876897662E+02  0.00000000000E+00 0.  1.
         23    2    1    2    0    0  0.00000000000E+00  0.00000000000E+00 -0.74478644459E+02  0.11727515087E+03  0.90589141348E+02 0.  0.
        -13    1    3    3    0    0  0.34189720066E+02 -0.28152322837E+02 -0.24950471331E+02  0.50833220033E+02  0.00000000000E+00 0.  1.
         13    1    3    3    0    0 -0.34189720066E+02  0.28152322837E+02 -0.49528173128E+02  0.66441930832E+02  0.00000000000E+00 0. -1.
<mgrwt>
<rscale>  0 0.90589141E+02</rscale>
<asrwt>0</asrwt>
<pdfrwt beam="1">  1        2 0.32920390E-02 0.90589141E+02</pdfrwt>
<pdfrwt beam="2">  1       -2 0.14750292E-01 0.90589141E+02</pdfrwt>
<totfact> 0.82114218E+04</totfact>
</mgrwt>
</event>
<event>
 5    1  0.6079230E+000  0.9171522E+02  0.7546771E-02  0.1298750E+00
          1   -1    0    0  501    0  0.00000000000E+00  0.00000000000E+00  0.61379229487E+02  0.61379229487E+02  0.00000000000E+00 0. -1.
         -1   -1    0    0    0  501 -0.00000000000E+00 -0.00000000000E+00 -0.34261109548E+02  0.34261109548E+02  0.00000000000E+00 0.  1.
         23    2    1    2    0    0  0.00000000000E+00  0.00000000000E+00  0.27118119939E+02  0.95640339035E+02  0.91715222410E+02 0.  0.
        -13    1    3    3    0    0 -0.44417895393E+02 -0.25027575253E+01  0.25157439363E+02  0.51108805324E+02  0.00000000000E+00 0. -1.
         13    1    3    3    0    0  0.44417895393E+02  0.25027575253E+01  0.19606805765E+01  0.44531533711E+02  0.00000000000E+00 0.  1.
<mgrwt>
<rscale>  0 0.91715222E+02</rscale>
<asrwt>0</asrwt>
<pdfrwt beam="1">  1        1 0.94429584E-02 0.91715222E+02</pdfrwt>
<pdfrwt beam="2">  1       -1 0.52709399E-02 0.91715222E+02</pdfrwt>
<totfact> 0.95136426E+04</totfact>
</mgrwt>
</event>
<event>
 5    1  0.6079230E+000  0.9214963E+02  0.7546771E-02  0.1297728E+00
         -2   -1    0    0    0  501 -0.00000000000E+00  0.00000000000E+00  0.63083766142E+02  0.63083766142E+02  0.00000000000E+00 0. -1.
          2   -1    0    0  501    0  0.00000000000E+00 -0.00000000000E+00 -0.33651897836E+02  0.33651897836E+02  0.00000000000E+00 0.  1.
         23    2    1    2    0    0  0.00000000000E+00  0.00000000000E+00  0.29431868305E+02  0.96735663978E+02  0.92149627310E+02 0.  0.
        -13    1    3    3    0    0 -0.25743747767E+01 -0.45833552546E+02  0.18855068029E+02  0.49627165291E+02  0.00000000000E+00 0.  1.
         13    1    3    3    0    0  0.25743747767E+01  0.45833552546E+02  0.10576800276E+02  0.47108498687E+02  0.00000000000E+00 0. -1.
<mgrwt>
<rscale>  0 0.92149627E+02</rscale>
<asrwt>0</asrwt>
<pdfrwt beam="2">  1        2 0.51772150E-02 0.92149627E+02</pdfrwt>
<pdfrwt beam="1">  1       -2 0.97051948E-02 0.92149627E+02</pdfrwt>
<totfact> 0.88389695E+04</totfact>
</mgrwt>
</event>
<event>
 5    1  0.6079230E+000  0.9044048E+02  0.7546771E-02  0.1301789E+00
          1   -1    0    0  501    0  0.00000000000E+00  0.00000000000E+00  0.95537041353E+02  0.95537041353E+02  0.00000000000E+00 0. -1.
         -1   -1    0    0    0  501 -0.00000000000E+00 -0.00000000000E+00 -0.21403950511E+02  0.21403950511E+02  0.00000000000E+00 0.  1.
         23    2    1    2    0    0  0.00000000000E+00  0.00000000000E+00  0.74133090842E+02  0.11694099186E+03  0.90440479988E+02 0.  0.
        -13    1    3    3    0    0  0.15361633903E+02 -0.18579409470E+02 -0.12402022229E+02  0.27110595858E+02  0.00000000000E+00 0.  1.
         13    1    3    3    0    0 -0.15361633903E+02  0.18579409470E+02  0.86535113071E+02  0.89830396006E+02  0.00000000000E+00 0. -1.
<mgrwt>
<rscale>  0 0.90440480E+02</rscale>
<asrwt>0</asrwt>
<pdfrwt beam="1">  1        1 0.14698006E-01 0.90440480E+02</pdfrwt>
<pdfrwt beam="2">  1       -1 0.32929155E-02 0.90440480E+02</pdfrwt>
<totfact> 0.10598376E+05</totfact>
</mgrwt>
</event>
<event>
 5    1  0.6079230E+000  0.9141466E+02  0.7546771E-02  0.1299462E+00
         -2   -1    0    0    0  501 -0.00000000000E+00  0.00000000000E+00  0.53439846593E+02  0.53439846593E+02  0.00000000000E+00 0.  1.
          2   -1    0    0  501    0  0.00000000000E+00 -0.00000000000E+00 -0.39093678069E+02  0.39093678069E+02  0.00000000000E+00 0. -1.
         23    2    1    2    0    0  0.00000000000E+00  0.00000000000E+00  0.14346168524E+02  0.92533524662E+02  0.91414663129E+02 0.  0.
        -13    1    3    3    0    0  0.36518618159E+01  0.28091755043E+02 -0.29136232094E+02  0.40637455836E+02  0.00000000000E+00 0. -1.
         13    1    3    3    0    0 -0.36518618159E+01 -0.28091755043E+02  0.43482400618E+02  0.51896068826E+02  0.00000000000E+00 0.  1.
<mgrwt>
<rscale>  0 0.91414663E+02</rscale>
<asrwt>0</asrwt>
<pdfrwt beam="2">  1        2 0.60144120E-02 0.91414663E+02</pdfrwt>
<pdfrwt beam="1">  1       -2 0.82215149E-02 0.91414663E+02</pdfrwt>
<totfact> 0.94109134E+04</totfact>
</mgrwt>
</event>
<event>
 5    1  0.6079230E+000  0.9318808E+02  0.7546771E-02  0.1295310E+00
          3   -1    0    0  501    0  0.00000000000E+00  0.00000000000E+00  0.27385261216E+02  0.27385261216E+02  0.00000000000E+00 0. -1.
         -3   -1    0    0    0  501 -0.00000000000E+00 -0.00000000000E+00 -0.79276392956E+02  0.79276392956E+02  0.00000000000E+00 0.  1.
         23    2    1    2    0    0  0.00000000000E+00  0.00000000000E+00 -0.51891131740E+02  0.10666165417E+03  0.93188083560E+02 0.  0.
        -13    1    3    3    0    0  0.43268310039E+02 -0.16315313408E+02 -0.19403523437E+02  0.50148108907E+02  0.00000000000E+00 0.  1.
         13    1    3    3    0    0 -0.43268310039E+02  0.16315313408E+02 -0.32487608302E+02  0.56513545265E+02  0.00000000000E+00 0. -1.
<mgrwt>
<rscale>  0 0.93188084E+02</rscale>
<asrwt>0</asrwt>
<pdfrwt beam="1">  1        3 0.42131172E-02 0.93188084E+02</pdfrwt>
<pdfrwt beam="2">  1       -3 0.12196368E-01 0.93188084E+02</pdfrwt>
<totfact> 0.32210713E+04</totfact>
</mgrwt>
</event>
<event>
 5    1  0.6079230E+000  0.8922108E+02  0.7546771E-02  0.1304749E+00
         -3   -1    0    0    0  501 -0.00000000000E+00  0.00000000000E+00  0.42185490511E+02  0.42185490511E+02  0.00000000000E+00 0.  1.
          3   -1    0    0  501    0  0.00000000000E+00 -0.00000000000E+00 -0.47174993266E+02  0.47174993266E+02  0.00000000000E+00 0. -1.
         23    2    1    2    0    0  0.00000000000E+00  0.00000000000E+00 -0.49895027548E+01  0.89360483777E+02  0.89221078917E+02 0.  0.
        -13    1    3    3    0    0  0.43291293714E+02 -0.73843451270E+00  0.82653504557E+01  0.44079444361E+02  0.00000000000E+00 0.  1.
         13    1    3    3    0    0 -0.43291293714E+02  0.73843451270E+00 -0.13254853211E+02  0.45281039416E+02  0.00000000000E+00 0. -1.
<mgrwt>
<rscale>  0 0.89221079E+02</rscale>
<asrwt>0</asrwt>
<pdfrwt beam="2">  1        3 0.72576912E-02 0.89221079E+02</pdfrwt>
<pdfrwt beam="1">  1       -3 0.64900755E-02 0.89221079E+02</pdfrwt>
<totfact> 0.37632732E+04</totfact>
</mgrwt>
</event>
<event>
 5    1  0.6079230E+000  0.9020578E+02  0.7546771E-02  0.1302354E+00
          4   -1    0    0  501    0  0.00000000000E+00  0.00000000000E+00  0.17399093518E+03  0.17399093518E+03  0.00000000000E+00 0. -1.
         -4   -1    0    0    0  501 -0.00000000000E+00 -0.00000000000E+00 -0.11691821014E+02  0.11691821014E+02  0.00000000000E+00 0.  1.
         23    2    1    2    0    0  0.00000000000E+00  0.00000000000E+00  0.16229911417E+03  0.18568275620E+03  0.90205784121E+02 0.  0.
        -13    1    3    3    0    0  0.30270813752E+02  0.18397227175E+02  0.13861975172E+03  0.14307416153E+03  0.00000000000E+00 0. -1.
         13    1    3    3    0    0 -0.30270813752E+02 -0.18397227175E+02  0.23679362452E+02  0.42608594662E+02  0.00000000000E+00 0.  1.
<mgrwt>
<rscale>  0 0.90205784E+02</rscale>
<asrwt>0</asrwt>
<pdfrwt beam="1">  1        4 0.26767834E-01 0.90205784E+02</pdfrwt>
<pdfrwt beam="2">  1       -4 0.17987418E-02 0.90205784E+02</pdfrwt>
<totfact> 0.22638516E+04</totfact>
</mgrwt>
</event>
<event>
 5    1  0.6079230E+000  0.8590144E+02  0.7546771E-02  0.1313092E+00
          1   -1    0    0  501    0  0.00000000000E+00  0.00000000000E+00  0.89541419808E+02  0.89541419808E+02  0.00000000000E+00 0. -1.
         -1   -1    0    0    0  501 -0.00000000000E+00 -0.00000000000E+00 -0.20602359085E+02  0.20602359085E+02  0.00000000000E+00 0.  1.
         23    2    1    2    0    0  0.00000000000E+00  0.00000000000E+00  0.68939060723E+02  0.11014377889E+03  0.85901443150E+02 0.  0.
        -13    1    3    3    0    0  0.13899318969E+02  0.74151487919E+01  0.85703272332E+02  0.87139120880E+02  0.00000000000E+00 0. -1.
         13    1    3    3    0    0 -0.13899318969E+02 -0.74151487919E+01 -0.16764211608E+02  0.23004658012E+02  0.00000000000E+00 0.  1.
<mgrwt>
<rscale>  0 0.85901443E+02</rscale>
<asrwt>0</asrwt>
<pdfrwt beam="1">  1        1 0.13775603E-01 0.85901443E+02</pdfrwt>
<pdfrwt beam="2">  1       -1 0.31695937E-02 0.85901443E+02</pdfrwt>
<totfact> 0.12064317E+05</totfact>
</mgrwt>
</event>
<event>
 5    1  0.6079230E+000  0.9381888E+02  0.7546771E-02  0.1293859E+00
          2   -1    0    0  501    0  0.00000000000E+00  0.00000000000E+00  0.21050375582E+02  0.21050375582E+02  0.00000000000E+00 0.  1.
         -2   -1    0    0    0  501 -0.00000000000E+00 -0.00000000000E+00 -0.10453474151E+03  0.10453474151E+03  0.00000000000E+00 0. -1.
         23    2    1    2    0    0  0.00000000000E+00  0.00000000000E+00 -0.83484365926E+02  0.12558511709E+03  0.93818880191E+02 0.  0.
        -13    1    3    3    0    0  0.44212992324E+02  0.15650173418E+02 -0.42923599985E+02  0.63577921120E+02  0.00000000000E+00 0.  1.
         13    1    3    3    0    0 -0.44212992324E+02 -0.15650173418E+02 -0.40560765941E+02  0.62007195969E+02  0.00000000000E+00 0. -1.
<mgrwt>
<rscale>  0 0.93818880E+02</rscale>
<asrwt>0</asrwt>
<pdfrwt beam="1">  1        2 0.32385194E-02 0.93818880E+02</pdfrwt>
<pdfrwt beam="2">  1       -2 0.16082268E-01 0.93818880E+02</pdfrwt>
<totfact> 0.73329480E+04</totfact>
</mgrwt>
</event>
<event>
 5    1  0.6079230E+000  0.9287405E+02  0.7546771E-02  0.1296037E+00
          2   -1    0    0  501    0  0.00000000000E+00  0.00000000000E+00  0.88373221344E+02  0.88373221344E+02  0.00000000000E+00 0. -1.
         -2   -1    0    0    0  501 -0.00000000000E+00 -0.00000000000E+00 -0.24401024833E+02  0.24401024833E+02  0.00000000000E+00 0.  1.
         23    2    1    2    0    0  0.00000000000E+00  0.00000000000E+00  0.63972196512E+02  0.11277424618E+03  0.92874047367E+02 0.  0.
        -13    1    3    3    0    0  0.25045214773E+00  0.42205333878E+02  0.55501738499E+02  0.69726579655E+02  0.00000000000E+00 0. -1.
         13    1    3    3    0    0 -0.25045214773E+00 -0.42205333878E+02  0.84704580130E+01  0.43047666522E+02  0.00000000000E+00 0.  1.
<mgrwt>
<rscale>  0 0.92874047E+02</rscale>
<asrwt>0</asrwt>
<pdfrwt beam="1">  1        2 0.13595880E-01 0.92874047E+02</pdfrwt>
<pdfrwt beam="2">  1       -2 0.37540039E-02 0.92874047E+02</pdfrwt>
<totfact> 0.11232545E+05</totfact>
</mgrwt>
</event>
<event>
 5    1  0.6079230E+000  0.8953158E+02  0.7546771E-02  0.1303990E+00
          1   -1    0    0  501    0  0.00000000000E+00  0.00000000000E+00  0.53583276296E+02  0.53583276296E+02  0.00000000000E+00 0.  1.
         -1   -1    0    0    0  501 -0.00000000000E+00 -0.00000000000E+00 -0.37399277856E+02  0.37399277856E+02  0.00000000000E+00 0. -1.
         23    2    1    2    0    0  0.00000000000E+00  0.00000000000E+00  0.16183998440E+02  0.90982554152E+02  0.89531577416E+02 0.  0.
        -13    1    3    3    0    0 -0.17177748198E+02 -0.20742302772E+02  0.44429833030E+02  0.51955059624E+02  0.00000000000E+00 0.  1.
         13    1    3    3    0    0  0.17177748198E+02  0.20742302772E+02 -0.28245834590E+02  0.39027494528E+02  0.00000000000E+00 0. -1.
<mgrwt>
<rscale>  0 0.89531577E+02</rscale>
<asrwt>0</asrwt>
<pdfrwt beam="1">  1        1 0.82435810E-02 0.89531577E+02</pdfrwt>
<pdfrwt beam="2">  1       -1 0.57537350E-02 0.89531577E+02</pdfrwt>
<totfact> 0.99663208E+04</totfact>
</mgrwt>
</event>
<event>
 5    1  0.6079230E+000  0.9009711E+02  0.7546771E-02  0.1302617E+00
         -2   -1    0    0    0  501 -0.00000000000E+00  0.00000000000E+00  0.19109848912E+03  0.19109848912E+03  0.00000000000E+00 0.  1.
          2   -1    0    0  501    0  0.00000000000E+00 -0.00000000000E+00 -0.10619510173E+02  0.10619510173E+02  0.00000000000E+00 0. -1.
         23    2    1    2    0    0  0.00000000000E+00  0.00000000000E+00  0.18047897895E+03  0.20171799929E+03  0.90097110927E+02 0.  0.
        -13    1    3    3    0    0 -0.24197245189E+02 -0.36854423269E+02  0.11095588509E+03  0.11939415239E+03  0.00000000000E+00 0.  1.
         13    1    3    3    0    0  0.24197245189E+02  0.36854423269E+02  0.69523093856E+02  0.82323846901E+02  0.00000000000E+00 0. -1.
<mgrwt>
<rscale>  0 0.90097111E+02</rscale>
<asrwt>0</asrwt>
<pdfrwt beam="2">  1        2 0.16337709E-02 0.90097111E+02</pdfrwt>
<pdfrwt beam="1">  1       -2 0.29399765E-01 0.90097111E+02</pdfrwt>
<totfact> 0.65501056E+04</totfact>
</mgrwt>
</event>
<event>
 5    1  0.6079230E+000  0.9317524E+02  0.7546771E-02  0.1295340E+00
         -4   -1    0    0    0  501 -0.00000000000E+00  0.00000000000E+00  0.71323141613E+02  0.71323141613E+02  0.00000000000E+00 0.  1.
          4   -1    0    0  501    0  0.00000000000E+00 -0.00000000000E+00 -0.30430604699E+02  0.30430604699E+02  0.00000000000E+00 0. -1.
         23    2    1    2    0    0  0.00000000000E+00  0.00000000000E+00  0.40892536914E+02  0.10175374631E+03  0.93175239808E+02 0.  0.
        -13    1    3    3    0    0  0.12822258149E+02  0.30559974430E+02  0.56203533472E+02  0.65246911927E+02  0.00000000000E+00 0.  1.
         13    1    3    3    0    0 -0.12822258149E+02 -0.30559974430E+02 -0.15310996559E+02  0.36506834385E+02  0.00000000000E+00 0. -1.
<mgrwt>
<rscale>  0 0.93175240E+02</rscale>
<asrwt>0</asrwt>
<pdfrwt beam="2">  1        4 0.46816315E-02 0.93175240E+02</pdfrwt>
<pdfrwt beam="1">  1       -4 0.10972791E-01 0.93175240E+02</pdfrwt>
<totfact> 0.24841702E+04</totfact>
</mgrwt>
</event>
<event>
 5    1  0.6079230E+000  0.9223741E+02  0.7546771E-02  0.1297522E+00
          2   -1    0    0  501    0  0.00000000000E+00  0.00000000000E+00  0.35427124159E+03  0.35427124159E+03  0.00000000000E+00 0. -1.
         -2   -1    0    0    0  501 -0.00000000000E+00 -0.00000000000E+00 -0.60036903687E+01  0.60036903687E+01  0.00000000000E+00 0.  1.
         23    2    1    2    0    0  0.00000000000E+00  0.00000000000E+00  0.34826755122E+03  0.36027493196E+03  0.92237407618E+02 0.  0.
        -13    1    3    3    0    0 -0.54260489906E+01 -0.45463578885E+02  0.19572483675E+03  0.20100893197E+03  0.00000000000E+00 0.  1.
         13    1    3    3    0    0  0.54260489906E+01  0.45463578885E+02  0.15254271447E+03  0.15926599998E+03  0.00000000000E+00 0. -1.
<mgrwt>
<rscale>  0 0.92237408E+02</rscale>
<asrwt>0</asrwt>
<pdfrwt beam="1">  1        2 0.54503252E-01 0.92237408E+02</pdfrwt>
<pdfrwt beam="2">  1       -2 0.92364495E-03 0.92237408E+02</pdfrwt>
<totfact> 0.18524789E+05</totfact>
</mgrwt>
</event>
<event>
 5    1  0.6079230E+000  0.9153418E+02  0.7546771E-02  0.1299178E+00
          2   -1    0    0  501    0  0.00000000000E+00  0.00000000000E+00  0.35908236773E+03  0.35908236773E+03  0.00000000000E+00 0.  1.
         -2   -1    0    0    0  501 -0.00000000000E+00 -0.00000000000E+00 -0.58332759802E+01  0.58332759802E+01  0.00000000000E+00 0. -1.
         23    2    1    2    0    0  0.00000000000E+00  0.00000000000E+00  0.35324909175E+03  0.36491564371E+03  0.91534180514E+02 0.  0.
        -13    1    3    3    0    0  0.25262240330E+02 -0.33951629030E+02  0.24610376420E+03  0.24971575171E+03  0.00000000000E+00 0.  1.
         13    1    3    3    0    0 -0.25262240330E+02  0.33951629030E+02  0.10714532755E+03  0.11519989199E+03  0.00000000000E+00 0. -1.
<mgrwt>
<rscale>  0 0.91534181E+02</rscale>
<asrwt>0</asrwt>
<pdfrwt beam="1">  1        2 0.55243424E-01 0.91534181E+02</pdfrwt>
<pdfrwt beam="2">  1       -2 0.89742735E-03 0.91534181E+02</pdfrwt>
<totfact> 0.18999627E+05</totfact>
</mgrwt>
</event>
<event>
 5    1  0.6079230E+000  0.9027860E+02  0.7546771E-02  0.1302178E+00
         -2   -1    0    0    0  501 -0.00000000000E+00  0.00000000000E+00  0.14904156614E+02  0.14904156614E+02  0.00000000000E+00 0.  1.
          2   -1    0    0  501    0  0.00000000000E+00 -0.00000000000E+00 -0.13671062816E+03  0.13671062816E+03  0.00000000000E+00 0. -1.
         23    2    1    2    0    0  0.00000000000E+00  0.00000000000E+00 -0.12180647155E+03  0.15161478477E+03  0.90278604617E+02 0.  0.
        -13    1    3    3    0    0  0.22456363591E+02  0.27156647953E+02 -0.13527655660E+02  0.37746115846E+02  0.00000000000E+00 0.  1.
         13    1    3    3    0    0 -0.22456363591E+02 -0.27156647953E+02 -0.10827881589E+03  0.11386866893E+03  0.00000000000E+00 0. -1.
<mgrwt>
<rscale>  0 0.90278605E+02</rscale>
<asrwt>0</asrwt>
<pdfrwt beam="2">  1        2 0.21032404E-01 0.90278605E+02</pdfrwt>
<pdfrwt beam="1">  1       -2 0.22929472E-02 0.90278605E+02</pdfrwt>
<totfact> 0.13921174E+05</totfact>
</mgrwt>
</event>
<event>
 5    1  0.6079230E+000  0.9313543E+02  0.7546771E-02  0.1295432E+00
          2   -1    0    0  501    0  0.00000000000E+00  0.00000000000E+00  0.14296214993E+03  0.14296214993E+03  0.00000000000E+00 0. -1.
         -2   -1    0    0    0  501 -0.00000000000E+00 -0.00000000000E+00 -0.15168714185E+02  0.15168714185E+02  0.00000000000E+00 0.  1.
         23    2    1    2    0    0  0.00000000000E+00  0.00000000000E+00  0.12779343574E+03  0.15813086411E+03  0.93135428095E+02 0.  0.
        -13    1    3    3    0    0 -0.36904411291E+02 -0.22995126707E+02  0.35595862822E+02  0.56194100002E+02  0.00000000000E+00 0.  1.
         13    1    3    3    0    0  0.36904411291E+02  0.22995126707E+02  0.92197572921E+02  0.10193676411E+03  0.00000000000E+00 0. -1.
<mgrwt>
<rscale>  0 0.93135428E+02</rscale>
<asrwt>0</asrwt>
<pdfrwt beam="1">  1        2 0.21994176E-01 0.93135428E+02</pdfrwt>
<pdfrwt beam="2">  1       -2 0.23336484E-02 0.93135428E+02</pdfrwt>
<totfact> 0.12981750E+05</totfact>
</mgrwt>
</event>
<event>
 5    1  0.6079230E+000  0.9145762E+02  0.7546771E-02  0.1299360E+00
         -3   -1    0    0    0  501 -0.00000000000E+00  0.00000000000E+00  0.39365670583E+03  0.39365670583E+03  0.00000000000E+00 0.  1.
          3   -1    0    0  501    0  0.00000000000E+00 -0.00000000000E+00 -0.53120503542E+01  0.53120503542E+01  0.00000000000E+00 0. -1.
         23    2    1    2    0    0  0.00000000000E+00  0.00000000000E+00  0.38834465547E+03  0.39896875618E+03  0.91457623927E+02 0.  0.
        -13    1    3    3    0    0  0.43694302391E+02  0.81244262403E+01  0.14720355915E+03  0.15376633633E+03  0.00000000000E+00 0. -1.
         13    1    3    3    0    0 -0.43694302391E+02 -0.81244262403E+01  0.24114109632E+03  0.24520241985E+03  0.00000000000E+00 0.  1.
<mgrwt>
<rscale>  0 0.91457624E+02</rscale>
<asrwt>0</asrwt>
<pdfrwt beam="2">  1        3 0.81723883E-03 0.91457624E+02</pdfrwt>
<pdfrwt beam="1">  1       -3 0.60562547E-01 0.91457624E+02</pdfrwt>
<totfact> 0.20462180E+04</totfact>
</mgrwt>
</event>
<event>
 5    1  0.6079230E+000  0.9285400E+02  0.7546771E-02  0.1296084E+00
         -2   -1    0    0    0  501 -0.00000000000E+00  0.00000000000E+00  0.24618999508E+02  0.24618999508E+02  0.00000000000E+00 0.  1.
          2   -1    0    0  501    0  0.00000000000E+00 -0.00000000000E+00 -0.87552969657E+02  0.87552969657E+02  0.00000000000E+00 0. -1.
         23    2    1    2    0    0  0.00000000000E+00  0.00000000000E+00 -0.62933970149E+02  0.11217196916E+03  0.92854004047E+02 0.  0.
        -13    1    3    3    0    0  0.19438465974E+02  0.36858674125E+02 -0.67373907171E+01  0.42211470613E+02  0.00000000000E+00 0.  1.
         13    1    3    3    0    0 -0.19438465974E+02 -0.36858674125E+02 -0.56196579432E+02  0.69960498551E+02  0.00000000000E+00 0. -1.
<mgrwt>
<rscale>  0 0.92854004E+02</rscale>
<asrwt>0</asrwt>
<pdfrwt beam="2">  1        2 0.13469688E-01 0.92854004E+02</pdfrwt>
<pdfrwt beam="1">  1       -2 0.37875384E-02 0.92854004E+02</pdfrwt>
<totfact> 0.11208295E+05</totfact>
</mgrwt>
</event>
<event>
 5    1  0.6079230E+000  0.9104668E+02  0.7546771E-02  0.1300337E+00
          3   -1    0    0  501    0  0.00000000000E+00  0.00000000000E+00  0.18946652682E+02  0.18946652682E+02  0.00000000000E+00 0. -1.
         -3   -1    0    0    0  501 -0.00000000000E+00 -0.00000000000E+00 -0.10937946348E+03  0.10937946348E+03  0.00000000000E+00 0.  1.
         23    2    1    2    0    0  0.00000000000E+00  0.00000000000E+00 -0.90432810795E+02  0.12832611616E+03  0.91046684838E+02 0.  0.
        -13    1    3    3    0    0 -0.68419199815E+01  0.42980035182E+02 -0.64035620638E+02  0.77425163893E+02  0.00000000000E+00 0.  1.
         13    1    3    3    0    0  0.68419199815E+01 -0.42980035182E+02 -0.26397190156E+02  0.50900952265E+02  0.00000000000E+00 0. -1.
<mgrwt>
<rscale>  0 0.91046685E+02</rscale>
<asrwt>0</asrwt>
<pdfrwt beam="1">  1        3 0.29148697E-02 0.91046685E+02</pdfrwt>
<pdfrwt beam="2">  1       -3 0.16827609E-01 0.91046685E+02</pdfrwt>
<totfact> 0.32815156E+04</totfact>
</mgrwt>
</event>
<event>
 5    1  0.6079230E+000  0.8933230E+02  0.7546771E-02  0.1304477E+00
         -2   -1    0    0    0  501 -0.00000000000E+00  0.00000000000E+00  0.75322319388E+02  0.75322319388E+02  0.00000000000E+00 0.  1.
          2   -1    0    0  501    0  0.00000000000E+00 -0.00000000000E+00 -0.26487037683E+02  0.26487037683E+02  0.00000000000E+00 0. -1.
         23    2    1    2    0    0  0.00000000000E+00  0.00000000000E+00  0.48835281705E+02  0.10180935707E+03  0.89332303497E+02 0.  0.
        -13    1    3    3    0    0  0.31235886850E+01  0.28470589351E+02  0.63479139656E+02  0.69641456301E+02  0.00000000000E+00 0.  1.
         13    1    3    3    0    0 -0.31235886850E+01 -0.28470589351E+02 -0.14643857951E+02  0.32167900770E+02  0.00000000000E+00 0. -1.
<mgrwt>
<rscale>  0 0.89332303E+02</rscale>
<asrwt>0</asrwt>
<pdfrwt beam="2">  1        2 0.40749289E-02 0.89332303E+02</pdfrwt>
<pdfrwt beam="1">  1       -2 0.11588049E-01 0.89332303E+02</pdfrwt>
<totfact> 0.90929374E+04</totfact>
</mgrwt>
</event>
<event>
 5    1  0.6079230E+000  0.9096182E+02  0.7546771E-02  0.1300539E+00
         -1   -1    0    0    0  501 -0.00000000000E+00  0.00000000000E+00  0.11465280687E+03  0.11465280687E+03  0.00000000000E+00 0.  1.
          1   -1    0    0  501    0  0.00000000000E+00 -0.00000000000E+00 -0.18041539447E+02  0.18041539447E+02  0.00000000000E+00 0. -1.
         23    2    1    2    0    0  0.00000000000E+00  0.00000000000E+00  0.96611267427E+02  0.13269434632E+03  0.90961819198E+02 0.  0.
        -13    1    3    3    0    0  0.29308011885E+02 -0.25384846022E+02  0.13625544341E+02  0.41097511200E+02  0.00000000000E+00 0.  1.
         13    1    3    3    0    0 -0.29308011885E+02  0.25384846022E+02  0.82985723086E+02  0.91596835122E+02  0.00000000000E+00 0. -1.
<mgrwt>
<rscale>  0 0.90961819E+02</rscale>
<asrwt>0</asrwt>
<pdfrwt beam="2">  1        1 0.27756215E-02 0.90961819E+02</pdfrwt>
<pdfrwt beam="1">  1       -1 0.17638893E-01 0.90961819E+02</pdfrwt>
<totfact> 0.79741903E+04</totfact>
</mgrwt>
</event>
<event>
 5    1  0.6079230E+000  0.9192365E+02  0.7546771E-02  0.1298259E+00
          2   -1    0    0  501    0  0.00000000000E+00  0.00000000000E+00  0.13252873533E+03  0.13252873533E+03  0.00000000000E+00 0. -1.
         -2   -1    0    0    0  501 -0.00000000000E+00 -0.00000000000E+00 -0.15939859680E+02  0.15939859680E+02  0.00000000000E+00 0.  1.
         23    2    1    2    0    0  0.00000000000E+00  0.00000000000E+00  0.11658887565E+03  0.14846859501E+03  0.91923651902E+02 0.  0.
        -13    1    3    3    0    0  0.19691765802E+02  0.40611293650E+02  0.72323455393E+02  0.85250953146E+02  0.00000000000E+00 0. -1.
         13    1    3    3    0    0 -0.19691765802E+02 -0.40611293650E+02  0.44265420260E+02  0.63217641867E+02  0.00000000000E+00 0.  1.
<mgrwt>
<rscale>  0 0.91923652E+02</rscale>
<asrwt>0</asrwt>
<pdfrwt beam="1">  1        2 0.20389036E-01 0.91923652E+02</pdfrwt>
<pdfrwt beam="2">  1       -2 0.24522862E-02 0.91923652E+02</pdfrwt>
<totfact> 0.13117533E+05</totfact>
</mgrwt>
</event>
<event>
 5    1  0.6079230E+000  0.8673129E+02  0.7546771E-02  0.1310966E+00
         -2   -1    0    0    0  501 -0.00000000000E+00  0.00000000000E+00  0.51757483725E+02  0.51757483725E+02  0.00000000000E+00 0.  1.
          2   -1    0    0  501    0  0.00000000000E+00 -0.00000000000E+00 -0.36334442929E+02  0.36334442929E+02  0.00000000000E+00 0. -1.
         23    2    1    2    0    0  0.00000000000E+00  0.00000000000E+00  0.15423040795E+02  0.88091926654E+02  0.86731293973E+02 0.  0.
        -13    1    3    3    0    0 -0.26558641808E+02 -0.23769860712E+02  0.32801511905E+02  0.48438692346E+02  0.00000000000E+00 0.  1.
         13    1    3    3    0    0  0.26558641808E+02  0.23769860712E+02 -0.17378471110E+02  0.39653234308E+02  0.00000000000E+00 0. -1.
<mgrwt>
<rscale>  0 0.86731294E+02</rscale>
<asrwt>0</asrwt>
<pdfrwt beam="2">  1        2 0.55899143E-02 0.86731294E+02</pdfrwt>
<pdfrwt beam="1">  1       -2 0.79626898E-02 0.86731294E+02</pdfrwt>
<totfact> 0.10755272E+05</totfact>
</mgrwt>
</event>
<event>
 5    1  0.6079230E+000  0.9120654E+02  0.7546771E-02  0.1299956E+00
         -1   -1    0    0    0  501 -0.00000000000E+00  0.00000000000E+00  0.37146301613E+02  0.37146301613E+02  0.00000000000E+00 0.  1.
          1   -1    0    0  501    0  0.00000000000E+00 -0.00000000000E+00 -0.55985607933E+02  0.55985607933E+02  0.00000000000E+00 0. -1.
         23    2    1    2    0    0  0.00000000000E+00  0.00000000000E+00 -0.18839306320E+02  0.93131909545E+02  0.91206540955E+02 0.  0.
        -13    1    3    3    0    0 -0.20484757825E+02  0.17671597497E+02 -0.46906318470E+02  0.54148992360E+02  0.00000000000E+00 0. -1.
         13    1    3    3    0    0  0.20484757825E+02 -0.17671597497E+02  0.28067012149E+02  0.38982917185E+02  0.00000000000E+00 0.  1.
<mgrwt>
<rscale>  0 0.91206541E+02</rscale>
<asrwt>0</asrwt>
<pdfrwt beam="2">  1        1 0.86131704E-02 0.91206541E+02</pdfrwt>
<pdfrwt beam="1">  1       -1 0.57148157E-02 0.91206541E+02</pdfrwt>
<totfact> 0.95283130E+04</totfact>
</mgrwt>
</event>
<event>
 5    1  0.6079230E+000  0.9081462E+02  0.7546771E-02  0.1300891E+00
          3   -1    0    0  501    0  0.00000000000E+00  0.00000000000E+00  0.34019967654E+02  0.34019967654E+02  0.00000000000E+00 0. -1.
         -3   -1    0    0    0  501 -0.00000000000E+00 -0.00000000000E+00 -0.60606285373E+02  0.60606285373E+02  0.00000000000E+00 0.  1.
         23    2    1    2    0    0  0.00000000000E+00  0.00000000000E+00 -0.26586317719E+02  0.94626253028E+02  0.90814621467E+02 0.  0.
        -13    1    3    3    0    0  0.10351040069E+02 -0.27173742385E+00  0.32773369003E+02  0.34370213667E+02  0.00000000000E+00 0. -1.
         13    1    3    3    0    0 -0.10351040069E+02  0.27173742385E+00 -0.59359686722E+02  0.60256039360E+02  0.00000000000E+00 0.  1.
<mgrwt>
<rscale>  0 0.90814621E+02</rscale>
<asrwt>0</asrwt>
<pdfrwt beam="1">  1        3 0.52338412E-02 0.90814621E+02</pdfrwt>
<pdfrwt beam="2">  1       -3 0.93240439E-02 0.90814621E+02</pdfrwt>
<totfact> 0.35457757E+04</totfact>
</mgrwt>
</event>
<event>
 5    1  0.6079230E+000  0.9395631E+02  0.7546771E-02  0.1293544E+00
          1   -1    0    0  501    0  0.00000000000E+00  0.00000000000E+00  0.31913729121E+02  0.31913729121E+02  0.00000000000E+00 0. -1.
         -1   -1    0    0    0  501 -0.00000000000E+00 -0.00000000000E+00 -0.69153529396E+02  0.69153529396E+02  0.00000000000E+00 0.  1.
         23    2    1    2    0    0  0.00000000000E+00  0.00000000000E+00 -0.37239800275E+02  0.10106725852E+03  0.93956309099E+02 0.  0.
        -13    1    3    3    0    0  0.87594072659E+01  0.24599255075E+02 -0.60628014829E+02  0.66012171212E+02  0.00000000000E+00 0.  1.
         13    1    3    3    0    0 -0.87594072659E+01 -0.24599255075E+02  0.23388214554E+02  0.35055087305E+02  0.00000000000E+00 0. -1.
<mgrwt>
<rscale>  0 0.93956309E+02</rscale>
<asrwt>0</asrwt>
<pdfrwt beam="1">  1        1 0.49098045E-02 0.93956309E+02</pdfrwt>
<pdfrwt beam="2">  1       -1 0.10639004E-01 0.93956309E+02</pdfrwt>
<totfact> 0.80314637E+04</totfact>
</mgrwt>
</event>
<event>
 5    1  0.6079230E+000  0.9237772E+02  0.7546771E-02  0.1297194E+00
         -2   -1    0    0    0  501 -0.00000000000E+00  0.00000000000E+00  0.82717579440E+01  0.82717579440E+01  0.00000000000E+00 0.  1.
          2   -1    0    0  501    0  0.00000000000E+00 -0.00000000000E+00 -0.25791502268E+03  0.25791502268E+03  0.00000000000E+00 0. -1.
         23    2    1    2    0    0  0.00000000000E+00  0.00000000000E+00 -0.24964326474E+03  0.26618678062E+03  0.92377716744E+02 0.  0.
        -13    1    3    3    0    0  0.61232007847E+01  0.36820270967E+02 -0.46426461582E+02  0.59570481591E+02  0.00000000000E+00 0.  1.
         13    1    3    3    0    0 -0.61232007847E+01 -0.36820270967E+02 -0.20321680315E+03  0.20661629903E+03  0.00000000000E+00 0. -1.
<mgrwt>
<rscale>  0 0.92377717E+02</rscale>
<asrwt>0</asrwt>
<pdfrwt beam="2">  1        2 0.39679231E-01 0.92377717E+02</pdfrwt>
<pdfrwt beam="1">  1       -2 0.12725782E-02 0.92377717E+02</pdfrwt>
<totfact> 0.16395967E+05</totfact>
</mgrwt>
</event>
<event>
 5    1  0.6079230E+000  0.1001411E+03  0.7546771E-02  0.1280000E+00
          3   -1    0    0  501    0  0.00000000000E+00  0.00000000000E+00  0.24909328491E+03  0.24909328491E+03  0.00000000000E+00 0. -1.
         -3   -1    0    0    0  501 -0.00000000000E+00 -0.00000000000E+00 -0.10064744364E+02  0.10064744364E+02  0.00000000000E+00 0.  1.
         23    2    1    2    0    0  0.00000000000E+00  0.00000000000E+00  0.23902854055E+03  0.25915802928E+03  0.10014110516E+03 0.  0.
        -13    1    3    3    0    0  0.48813209306E+02  0.60308307692E+01  0.95242878292E+02  0.10719284579E+03  0.00000000000E+00 0.  1.
         13    1    3    3    0    0 -0.48813209306E+02 -0.60308307692E+01  0.14378566226E+03  0.15196518349E+03  0.00000000000E+00 0. -1.
<mgrwt>
<rscale>  0 0.10014111E+03</rscale>
<asrwt>0</asrwt>
<pdfrwt beam="1">  1        3 0.38322039E-01 0.10014111E+03</pdfrwt>
<pdfrwt beam="2">  1       -3 0.15484224E-02 0.10014111E+03</pdfrwt>
<totfact> 0.19941265E+04</totfact>
</mgrwt>
</event>
<event>
 5    1  0.6079230E+000  0.7929713E+02  0.7546771E-02  0.1331058E+00
          1   -1    0    0  501    0  0.00000000000E+00  0.00000000000E+00  0.44618748538E+02  0.44618748538E+02  0.00000000000E+00 0. -1.
         -1   -1    0    0    0  501 -0.00000000000E+00 -0.00000000000E+00 -0.35232023822E+02  0.35232023822E+02  0.00000000000E+00 0.  1.
         23    2    1    2    0    0  0.00000000000E+00  0.00000000000E+00  0.93867247160E+01  0.79850772360E+02  0.79297132644E+02 0.  0.
        -13    1    3    3    0    0  0.12858260280E+02 -0.16855277735E+02 -0.29045391925E+02  0.35959283043E+02  0.00000000000E+00 0.  1.
         13    1    3    3    0    0 -0.12858260280E+02  0.16855277735E+02  0.38432116641E+02  0.43891489316E+02  0.00000000000E+00 0. -1.
<mgrwt>
<rscale>  0 0.79297133E+02</rscale>
<asrwt>0</asrwt>
<pdfrwt beam="1">  1        1 0.68644229E-02 0.79297133E+02</pdfrwt>
<pdfrwt beam="2">  1       -1 0.54203113E-02 0.79297133E+02</pdfrwt>
<totfact> 0.13581179E+05</totfact>
</mgrwt>
</event>
<event>
 5    1  0.6079230E+000  0.9079770E+02  0.7546771E-02  0.1300931E+00
          2   -1    0    0  501    0  0.00000000000E+00  0.00000000000E+00  0.45721572595E+02  0.45721572595E+02  0.00000000000E+00 0. -1.
         -2   -1    0    0    0  501 -0.00000000000E+00 -0.00000000000E+00 -0.45078404184E+02  0.45078404184E+02  0.00000000000E+00 0.  1.
         23    2    1    2    0    0  0.00000000000E+00  0.00000000000E+00  0.64316841093E+00  0.90799976779E+02  0.90797698855E+02 0.  0.
        -13    1    3    3    0    0  0.28122355528E+02  0.23943328519E+02  0.26721217471E+02  0.45586986347E+02  0.00000000000E+00 0. -1.
         13    1    3    3    0    0 -0.28122355528E+02 -0.23943328519E+02 -0.26078049060E+02  0.45212990432E+02  0.00000000000E+00 0.  1.
<mgrwt>
<rscale>  0 0.90797699E+02</rscale>
<asrwt>0</asrwt>
<pdfrwt beam="1">  1        2 0.70340881E-02 0.90797699E+02</pdfrwt>
<pdfrwt beam="2">  1       -2 0.69351391E-02 0.90797699E+02</pdfrwt>
<totfact> 0.99936269E+04</totfact>
</mgrwt>
</event>
<event>
 5    1  0.6079230E+000  0.9553218E+02  0.7546771E-02  0.1289982E+00
          2   -1    0    0  501    0  0.00000000000E+00  0.00000000000E+00  0.14030756050E+02  0.14030756050E+02  0.00000000000E+00 0. -1.
         -2   -1    0    0    0  501 -0.00000000000E+00 -0.00000000000E+00 -0.16261413139E+03  0.16261413139E+03  0.00000000000E+00 0.  1.
         23    2    1    2    0    0  0.00000000000E+00  0.00000000000E+00 -0.14858337534E+03  0.17664488744E+03  0.95532176942E+02 0.  0.
        -13    1    3    3    0    0  0.11410874845E+02  0.34129868926E+02 -0.13236939308E+03  0.13717402175E+03  0.00000000000E+00 0.  1.
         13    1    3    3    0    0 -0.11410874845E+02 -0.34129868926E+02 -0.16213982253E+02  0.39470865687E+02  0.00000000000E+00 0. -1.
<mgrwt>
<rscale>  0 0.95532177E+02</rscale>
<asrwt>0</asrwt>
<pdfrwt beam="1">  1        2 0.21585778E-02 0.95532177E+02</pdfrwt>
<pdfrwt beam="2">  1       -2 0.25017559E-01 0.95532177E+02</pdfrwt>
<totfact> 0.60206700E+04</totfact>
</mgrwt>
</event>
<event>
 5    1  0.6079230E+000  0.9078966E+02  0.7546771E-02  0.1300951E+00
         -1   -1    0    0    0  501 -0.00000000000E+00  0.00000000000E+00  0.89060586474E+01  0.89060586474E+01  0.00000000000E+00 0.  1.
          1   -1    0    0  501    0  0.00000000000E+00 -0.00000000000E+00 -0.23138078082E+03  0.23138078082E+03  0.00000000000E+00 0. -1.
         23    2    1    2    0    0  0.00000000000E+00  0.00000000000E+00 -0.22247472217E+03  0.24028683947E+03  0.90789664695E+02 0.  0.
        -13    1    3    3    0    0  0.26703361659E+02 -0.32043347795E+02 -0.63830488396E+02  0.76250750230E+02  0.00000000000E+00 0.  1.
         13    1    3    3    0    0 -0.26703361659E+02  0.32043347795E+02 -0.15864423378E+03  0.16403608924E+03  0.00000000000E+00 0. -1.
<mgrwt>
<rscale>  0 0.90789665E+02</rscale>
<asrwt>0</asrwt>
<pdfrwt beam="2">  1        1 0.35597043E-01 0.90789665E+02</pdfrwt>
<pdfrwt beam="1">  1       -1 0.13701629E-02 0.90789665E+02</pdfrwt>
<totfact> 0.12321117E+05</totfact>
</mgrwt>
</event>
<event>
 5    1  0.6079230E+000  0.8562696E+02  0.7546771E-02  0.1313801E+00
         -4   -1    0    0    0  501 -0.00000000000E+00  0.00000000000E+00  0.39009133417E+03  0.39009133417E+03  0.00000000000E+00 0.  1.
          4   -1    0    0  501    0  0.00000000000E+00 -0.00000000000E+00 -0.46988841416E+01  0.46988841416E+01  0.00000000000E+00 0. -1.
         23    2    1    2    0    0  0.00000000000E+00  0.00000000000E+00  0.38539245003E+03  0.39479021831E+03  0.85626957996E+02 0.  0.
        -13    1    3    3    0    0 -0.37249111009E+02  0.20053699182E+02  0.22305153695E+03  0.22702782926E+03  0.00000000000E+00 0. -1.
         13    1    3    3    0    0  0.37249111009E+02 -0.20053699182E+02  0.16234091308E+03  0.16776238906E+03  0.00000000000E+00 0.  1.
<mgrwt>
<rscale>  0 0.85626958E+02</rscale>
<asrwt>0</asrwt>
<pdfrwt beam="2">  1        4 0.72290556E-03 0.85626958E+02</pdfrwt>
<pdfrwt beam="1">  1       -4 0.60014026E-01 0.85626958E+02</pdfrwt>
<totfact> 0.18016957E+04</totfact>
</mgrwt>
</event>
<event>
 5    1  0.6079230E+000  0.9069590E+02  0.7546771E-02  0.1301175E+00
          2   -1    0    0  501    0  0.00000000000E+00  0.00000000000E+00  0.36028487586E+03  0.36028487586E+03  0.00000000000E+00 0. -1.
         -2   -1    0    0    0  501 -0.00000000000E+00 -0.00000000000E+00 -0.57078076202E+01  0.57078076202E+01  0.00000000000E+00 0.  1.
         23    2    1    2    0    0  0.00000000000E+00  0.00000000000E+00  0.35457706824E+03  0.36599268348E+03  0.90695904204E+02 0.  0.
        -13    1    3    3    0    0 -0.18640794500E+02 -0.39852750540E+02  0.22162558614E+03  0.22595048435E+03  0.00000000000E+00 0. -1.
         13    1    3    3    0    0  0.18640794500E+02  0.39852750540E+02  0.13295148209E+03  0.14004219912E+03  0.00000000000E+00 0.  1.
<mgrwt>
<rscale>  0 0.90695904E+02</rscale>
<asrwt>0</asrwt>
<pdfrwt beam="1">  1        2 0.55428425E-01 0.90695904E+02</pdfrwt>
<pdfrwt beam="2">  1       -2 0.87812453E-03 0.90695904E+02</pdfrwt>
<totfact> 0.19493954E+05</totfact>
</mgrwt>
</event>
<event>
 5    1  0.6079230E+000  0.8762144E+02  0.7546771E-02  0.1308716E+00
         -2   -1    0    0    0  501 -0.00000000000E+00  0.00000000000E+00  0.78840176727E+01  0.78840176727E+01  0.00000000000E+00 0.  1.
          2   -1    0    0  501    0  0.00000000000E+00 -0.00000000000E+00 -0.24345189608E+03  0.24345189608E+03  0.00000000000E+00 0. -1.
         23    2    1    2    0    0  0.00000000000E+00  0.00000000000E+00 -0.23556787841E+03  0.25133591375E+03  0.87621436901E+02 0.  0.
        -13    1    3    3    0    0 -0.21429102245E+02 -0.28069830157E+02 -0.19215636219E+03  0.19537448482E+03  0.00000000000E+00 0.  1.
         13    1    3    3    0    0  0.21429102245E+02  0.28069830157E+02 -0.43411516218E+02  0.55961428934E+02  0.00000000000E+00 0. -1.
<mgrwt>
<rscale>  0 0.87621437E+02</rscale>
<asrwt>0</asrwt>
<pdfrwt beam="2">  1        2 0.37454133E-01 0.87621437E+02</pdfrwt>
<pdfrwt beam="1">  1       -2 0.12129259E-02 0.87621437E+02</pdfrwt>
<totfact> 0.18485903E+05</totfact>
</mgrwt>
</event>
<event>
 5    1  0.6079230E+000  0.9319206E+02  0.7546771E-02  0.1295301E+00
          2   -1    0    0  501    0  0.00000000000E+00  0.00000000000E+00  0.22438619247E+03  0.22438619247E+03  0.00000000000E+00 0. -1.
         -2   -1    0    0    0  501 -0.00000000000E+00 -0.00000000000E+00 -0.96761311700E+01  0.96761311700E+01  0.00000000000E+00 0.  1.
         23    2    1    2    0    0  0.00000000000E+00  0.00000000000E+00  0.21471006130E+03  0.23406232364E+03  0.93192064706E+02 0.  0.
        -13    1    3    3    0    0 -0.44854524506E+02  0.87595438641E+01  0.84537721294E+02  0.96100386570E+02  0.00000000000E+00 0.  1.
         13    1    3    3    0    0  0.44854524506E+02 -0.87595438641E+01  0.13017234000E+03  0.13796193707E+03  0.00000000000E+00 0. -1.
<mgrwt>
<rscale>  0 0.93192065E+02</rscale>
<asrwt>0</asrwt>
<pdfrwt beam="1">  1        2 0.34520949E-01 0.93192065E+02</pdfrwt>
<pdfrwt beam="2">  1       -2 0.14886357E-02 0.93192065E+02</pdfrwt>
<totfact> 0.15209021E+05</totfact>
</mgrwt>
</event>
<event>
 5    1  0.6079230E+000  0.9204186E+02  0.7546771E-02  0.1297981E+00
          2   -1    0    0  501    0  0.00000000000E+00  0.00000000000E+00  0.70147815012E+02  0.70147815012E+02  0.00000000000E+00 0. -1.
         -2   -1    0    0    0  501 -0.00000000000E+00 -0.00000000000E+00 -0.30192327809E+02  0.30192327809E+02  0.00000000000E+00 0.  1.
         23    2    1    2    0    0  0.00000000000E+00  0.00000000000E+00  0.39955487203E+02  0.10034014282E+03  0.92041856259E+02 0.  0.
        -13    1    3    3    0    0  0.82589203415E+01 -0.42695499116E+02  0.35597212127E+01  0.43632407968E+02  0.00000000000E+00 0.  1.
         13    1    3    3    0    0 -0.82589203415E+01  0.42695499116E+02  0.36395765991E+02  0.56707734852E+02  0.00000000000E+00 0. -1.
<mgrwt>
<rscale>  0 0.92041856E+02</rscale>
<asrwt>0</asrwt>
<pdfrwt beam="1">  1        2 0.10791971E-01 0.92041856E+02</pdfrwt>
<pdfrwt beam="2">  1       -2 0.46449735E-02 0.92041856E+02</pdfrwt>
<totfact> 0.10779383E+05</totfact>
</mgrwt>
</event>
<event>
 5    1  0.6079230E+000  0.9162818E+02  0.7546771E-02  0.1298956E+00
         -3   -1    0    0    0  501 -0.00000000000E+00  0.00000000000E+00  0.11447688006E+03  0.11447688006E+03  0.00000000000E+00 0.  1.
          3   -1    0    0  501    0  0.00000000000E+00 -0.00000000000E+00 -0.18334976785E+02  0.18334976785E+02  0.00000000000E+00 0. -1.
         23    2    1    2    0    0  0.00000000000E+00  0.00000000000E+00  0.96141903275E+02  0.13281185684E+03  0.91628182090E+02 0.  0.
        -13    1    3    3    0    0  0.87904295081E+01  0.24471865908E+02  0.10274455940E+03  0.10598390612E+03  0.00000000000E+00 0.  1.
         13    1    3    3    0    0 -0.87904295081E+01 -0.24471865908E+02 -0.66026561208E+01  0.26827950720E+02  0.00000000000E+00 0. -1.
<mgrwt>
<rscale>  0 0.91628182E+02</rscale>
<asrwt>0</asrwt>
<pdfrwt beam="2">  1        3 0.28207658E-02 0.91628182E+02</pdfrwt>
<pdfrwt beam="1">  1       -3 0.17611827E-01 0.91628182E+02</pdfrwt>
<totfact> 0.31961646E+04</totfact>
</mgrwt>
</event>
<event>
 5    1  0.6079230E+000  0.9132403E+02  0.7546771E-02  0.1299677E+00
         -1   -1    0    0    0  501 -0.00000000000E+00  0.00000000000E+00  0.12180697435E+03  0.12180697435E+03  0.00000000000E+00 0.  1.
          1   -1    0    0  501    0  0.00000000000E+00 -0.00000000000E+00 -0.17117406512E+02  0.17117406512E+02  0.00000000000E+00 0. -1.
         23    2    1    2    0    0  0.00000000000E+00  0.00000000000E+00  0.10468956784E+03  0.13892438086E+03  0.91324027419E+02 0.  0.
        -13    1    3    3    0    0 -0.20986954026E+02  0.45884512913E+01 -0.89496938423E+01  0.23272368689E+02  0.00000000000E+00 0. -1.
         13    1    3    3    0    0  0.20986954026E+02 -0.45884512913E+01  0.11363926168E+03  0.11565201218E+03  0.00000000000E+00 0.  1.
<mgrwt>
<rscale>  0 0.91324027E+02</rscale>
<asrwt>0</asrwt>
<pdfrwt beam="2">  1        1 0.26334472E-02 0.91324027E+02</pdfrwt>
<pdfrwt beam="1">  1       -1 0.18739534E-01 0.91324027E+02</pdfrwt>
<totfact> 0.77963829E+04</totfact>
</mgrwt>
</event>
<event>
 5    1  0.6079230E+000  0.9152993E+02  0.7546771E-02  0.1299188E+00
         -2   -1    0    0    0  501 -0.00000000000E+00  0.00000000000E+00  0.32918349128E+03  0.32918349128E+03  0.00000000000E+00 0. -1.
          2   -1    0    0  501    0  0.00000000000E+00 -0.00000000000E+00 -0.63625065396E+01  0.63625065396E+01  0.00000000000E+00 0.  1.
         23    2    1    2    0    0  0.00000000000E+00  0.00000000000E+00  0.32282098474E+03  0.33554599782E+03  0.91529932066E+02 0.  0.
        -13    1    3    3    0    0 -0.45346713135E+02 -0.55285015131E+01  0.15134181687E+03  0.15808616086E+03  0.00000000000E+00 0. -1.
         13    1    3    3    0    0  0.45346713135E+02  0.55285015131E+01  0.17147916787E+03  0.17745983696E+03  0.00000000000E+00 0.  1.
<mgrwt>
<rscale>  0 0.91529932E+02</rscale>
<asrwt>0</asrwt>
<pdfrwt beam="2">  1        2 0.97884741E-03 0.91529932E+02</pdfrwt>
<pdfrwt beam="1">  1       -2 0.50643601E-01 0.91529932E+02</pdfrwt>
<totfact> 0.47849464E+04</totfact>
</mgrwt>
</event>
<event>
 5    1  0.6079230E+000  0.9149318E+02  0.7546771E-02  0.1299276E+00
          2   -1    0    0  501    0  0.00000000000E+00  0.00000000000E+00  0.93674310375E+02  0.93674310375E+02  0.00000000000E+00 0. -1.
         -2   -1    0    0    0  501 -0.00000000000E+00 -0.00000000000E+00 -0.22340707309E+02  0.22340707309E+02  0.00000000000E+00 0.  1.
         23    2    1    2    0    0  0.00000000000E+00  0.00000000000E+00  0.71333603065E+02  0.11601501768E+03  0.91493176805E+02 0.  0.
        -13    1    3    3    0    0  0.38982059685E+02  0.23933677395E+02  0.34940082691E+02  0.57560674678E+02  0.00000000000E+00 0.  1.
         13    1    3    3    0    0 -0.38982059685E+02 -0.23933677395E+02  0.36393520375E+02  0.58454343006E+02  0.00000000000E+00 0. -1.
<mgrwt>
<rscale>  0 0.91493177E+02</rscale>
<asrwt>0</asrwt>
<pdfrwt beam="1">  1        2 0.14411432E-01 0.91493177E+02</pdfrwt>
<pdfrwt beam="2">  1       -2 0.34370319E-02 0.91493177E+02</pdfrwt>
<totfact> 0.11913519E+05</totfact>
</mgrwt>
</event>
<event>
 5    1  0.6079230E+000  0.9191671E+02  0.7546771E-02  0.1298275E+00
          1   -1    0    0  501    0  0.00000000000E+00  0.00000000000E+00  0.11895207103E+03  0.11895207103E+03  0.00000000000E+00 0. -1.
         -1   -1    0    0    0  501 -0.00000000000E+00 -0.00000000000E+00 -0.17756483695E+02  0.17756483695E+02  0.00000000000E+00 0.  1.
         23    2    1    2    0    0  0.00000000000E+00  0.00000000000E+00  0.10119558734E+03  0.13670855473E+03  0.91916712514E+02 0.  0.
        -13    1    3    3    0    0  0.54110316790E+01  0.32556802810E+02  0.30284095568E+01  0.33142056929E+02  0.00000000000E+00 0.  1.
         13    1    3    3    0    0 -0.54110316790E+01 -0.32556802810E+02  0.98167177781E+02  0.10356649780E+03  0.00000000000E+00 0. -1.
<mgrwt>
<rscale>  0 0.91916713E+02</rscale>
<asrwt>0</asrwt>
<pdfrwt beam="1">  1        1 0.18300318E-01 0.91916713E+02</pdfrwt>
<pdfrwt beam="2">  1       -1 0.27317668E-02 0.91916713E+02</pdfrwt>
<totfact> 0.10523880E+05</totfact>
</mgrwt>
</event>
<event>
 5    1  0.6079230E+000  0.9198080E+02  0.7546771E-02  0.1298125E+00
          2   -1    0    0  501    0  0.00000000000E+00  0.00000000000E+00  0.55292772509E+02  0.55292772509E+02  0.00000000000E+00 0. -1.
         -2   -1    0    0    0  501 -0.00000000000E+00 -0.00000000000E+00 -0.38253043164E+02  0.38253043164E+02  0.00000000000E+00 0.  1.
         23    2    1    2    0    0  0.00000000000E+00  0.00000000000E+00  0.17039729345E+02  0.93545815673E+02  0.91980798288E+02 0.  0.
        -13    1    3    3    0    0 -0.13655691516E+02 -0.24429581220E+02 -0.28595379006E+02  0.40012223756E+02  0.00000000000E+00 0.  1.
         13    1    3    3    0    0  0.13655691516E+02  0.24429581220E+02  0.45635108351E+02  0.53533591917E+02  0.00000000000E+00 0. -1.
<mgrwt>
<rscale>  0 0.91980798E+02</rscale>
<asrwt>0</asrwt>
<pdfrwt beam="1">  1        2 0.85065804E-02 0.91980798E+02</pdfrwt>
<pdfrwt beam="2">  1       -2 0.58850836E-02 0.91980798E+02</pdfrwt>
<totfact> 0.10123139E+05</totfact>
</mgrwt>
</event>
<event>
 5    1  0.6079230E+000  0.9573823E+02  0.7546771E-02  0.1289522E+00
          1   -1    0    0  501    0  0.00000000000E+00  0.00000000000E+00  0.30922592741E+02  0.30922592741E+02  0.00000000000E+00 0. -1.
         -1   -1    0    0    0  501 -0.00000000000E+00 -0.00000000000E+00 -0.74102842896E+02  0.74102842896E+02  0.00000000000E+00 0.  1.
         23    2    1    2    0    0  0.00000000000E+00  0.00000000000E+00 -0.43180250155E+02  0.10502543564E+03  0.95738227096E+02 0.  0.
        -13    1    3    3    0    0  0.50083276620E+01  0.41785643107E+02 -0.46613622444E+02  0.62800900576E+02  0.00000000000E+00 0.  1.
         13    1    3    3    0    0 -0.50083276620E+01 -0.41785643107E+02  0.34333722888E+01  0.42224535061E+02  0.00000000000E+00 0. -1.
<mgrwt>
<rscale>  0 0.95738227E+02</rscale>
<asrwt>0</asrwt>
<pdfrwt beam="1">  1        1 0.47573220E-02 0.95738227E+02</pdfrwt>
<pdfrwt beam="2">  1       -1 0.11400437E-01 0.95738227E+02</pdfrwt>
<totfact> 0.75676589E+04</totfact>
</mgrwt>
</event>
<event>
 5    1  0.6079230E+000  0.9358151E+02  0.7546771E-02  0.1294403E+00
          2   -1    0    0  501    0  0.00000000000E+00  0.00000000000E+00  0.18576413760E+03  0.18576413760E+03  0.00000000000E+00 0. -1.
         -2   -1    0    0    0  501 -0.00000000000E+00 -0.00000000000E+00 -0.11785777004E+02  0.11785777004E+02  0.00000000000E+00 0.  1.
         23    2    1    2    0    0  0.00000000000E+00  0.00000000000E+00  0.17397836059E+03  0.19754991460E+03  0.93581508881E+02 0.  0.
        -13    1    3    3    0    0 -0.35378596621E+02  0.30443275045E+02  0.80008012114E+02  0.92626778508E+02  0.00000000000E+00 0. -1.
         13    1    3    3    0    0  0.35378596621E+02 -0.30443275045E+02  0.93970348479E+02  0.10492313609E+03  0.00000000000E+00 0.  1.
<mgrwt>
<rscale>  0 0.93581509E+02</rscale>
<asrwt>0</asrwt>
<pdfrwt beam="1">  1        2 0.28579096E-01 0.93581509E+02</pdfrwt>
<pdfrwt beam="2">  1       -2 0.18131966E-02 0.93581509E+02</pdfrwt>
<totfact> 0.14039061E+05</totfact>
</mgrwt>
</event>
<event>
 5    1  0.6079230E+000  0.9338245E+02  0.7546771E-02  0.1294861E+00
         -2   -1    0    0    0  501 -0.00000000000E+00  0.00000000000E+00  0.16034304774E+03  0.16034304774E+03  0.00000000000E+00 0.  1.
          2   -1    0    0  501    0  0.00000000000E+00 -0.00000000000E+00 -0.13596290520E+02  0.13596290520E+02  0.00000000000E+00 0. -1.
         23    2    1    2    0    0  0.00000000000E+00  0.00000000000E+00  0.14674675722E+03  0.17393933826E+03  0.93382453598E+02 0.  0.
        -13    1    3    3    0    0 -0.45140913733E+02  0.29862316576E+01  0.51855798466E+02  0.68816011993E+02  0.00000000000E+00 0. -1.
         13    1    3    3    0    0  0.45140913733E+02 -0.29862316576E+01  0.94890958752E+02  0.10512332627E+03  0.00000000000E+00 0.  1.
<mgrwt>
<rscale>  0 0.93382454E+02</rscale>
<asrwt>0</asrwt>
<pdfrwt beam="2">  1        2 0.20917371E-02 0.93382454E+02</pdfrwt>
<pdfrwt beam="1">  1       -2 0.24668160E-01 0.93382454E+02</pdfrwt>
<totfact> 0.64135283E+04</totfact>
</mgrwt>
</event>
<event>
 5    1  0.6079230E+000  0.9221154E+02  0.7546771E-02  0.1297583E+00
         -1   -1    0    0    0  501 -0.00000000000E+00  0.00000000000E+00  0.10693271253E+02  0.10693271253E+02  0.00000000000E+00 0. -1.
          1   -1    0    0  501    0  0.00000000000E+00 -0.00000000000E+00 -0.19879248849E+03  0.19879248849E+03  0.00000000000E+00 0.  1.
         23    2    1    2    0    0  0.00000000000E+00  0.00000000000E+00 -0.18809921724E+03  0.20948575974E+03  0.92211539461E+02 0.  0.
        -13    1    3    3    0    0 -0.77799791298E+00  0.39166736814E+02 -0.14928290718E+03  0.15433737373E+03  0.00000000000E+00 0.  1.
         13    1    3    3    0    0  0.77799791298E+00 -0.39166736814E+02 -0.38816310055E+02  0.55148386012E+02  0.00000000000E+00 0. -1.
<mgrwt>
<rscale>  0 0.92211539E+02</rscale>
<asrwt>0</asrwt>
<pdfrwt beam="2">  1        1 0.30583458E-01 0.92211539E+02</pdfrwt>
<pdfrwt beam="1">  1       -1 0.16451187E-02 0.92211539E+02</pdfrwt>
<totfact> 0.11473635E+05</totfact>
</mgrwt>
</event>
<event>
 5    1  0.6079230E+000  0.8933693E+02  0.7546771E-02  0.1304465E+00
         -3   -1    0    0    0  501 -0.00000000000E+00  0.00000000000E+00  0.96590558490E+01  0.96590558490E+01  0.00000000000E+00 0.  1.
          3   -1    0    0  501    0  0.00000000000E+00 -0.00000000000E+00 -0.20657008269E+03  0.20657008269E+03  0.00000000000E+00 0. -1.
         23    2    1    2    0    0  0.00000000000E+00  0.00000000000E+00 -0.19691102684E+03  0.21622913854E+03  0.89336934476E+02 0.  0.
        -13    1    3    3    0    0  0.36932128893E+02 -0.33945966971E+01 -0.38199938718E+02  0.53242283472E+02  0.00000000000E+00 0. -1.
         13    1    3    3    0    0 -0.36932128893E+02  0.33945966971E+01 -0.15871108812E+03  0.16298685506E+03  0.00000000000E+00 0.  1.
<mgrwt>
<rscale>  0 0.89336934E+02</rscale>
<asrwt>0</asrwt>
<pdfrwt beam="2">  1        3 0.31780013E-01 0.89336934E+02</pdfrwt>
<pdfrwt beam="1">  1       -3 0.14860086E-02 0.89336934E+02</pdfrwt>
<totfact> 0.29240232E+04</totfact>
</mgrwt>
</event>
<event>
 5    1  0.6079230E+000  0.9562154E+02  0.7546771E-02  0.1289782E+00
         -2   -1    0    0    0  501 -0.00000000000E+00  0.00000000000E+00  0.12968681757E+02  0.12968681757E+02  0.00000000000E+00 0.  1.
          2   -1    0    0  501    0  0.00000000000E+00 -0.00000000000E+00 -0.17626075506E+03  0.17626075506E+03  0.00000000000E+00 0. -1.
         23    2    1    2    0    0  0.00000000000E+00  0.00000000000E+00 -0.16329207331E+03  0.18922943682E+03  0.95621538131E+02 0.  0.
        -13    1    3    3    0    0 -0.45685991288E+02  0.14088151943E+02 -0.82494477676E+02  0.95346865036E+02  0.00000000000E+00 0.  1.
         13    1    3    3    0    0  0.45685991288E+02 -0.14088151943E+02 -0.80797595629E+02  0.93882571783E+02  0.00000000000E+00 0. -1.
<mgrwt>
<rscale>  0 0.95621538E+02</rscale>
<asrwt>0</asrwt>
<pdfrwt beam="2">  1        2 0.27117040E-01 0.95621538E+02</pdfrwt>
<pdfrwt beam="1">  1       -2 0.19951817E-02 0.95621538E+02</pdfrwt>
<totfact> 0.12994465E+05</totfact>
</mgrwt>
</event>
<event>
 5    1  0.6079230E+000  0.9078321E+02  0.7546771E-02  0.1300966E+00
         -3   -1    0    0    0  501 -0.00000000000E+00  0.00000000000E+00  0.23366142519E+03  0.23366142519E+03  0.00000000000E+00 0.  1.
          3   -1    0    0  501    0  0.00000000000E+00 -0.00000000000E+00 -0.88178777711E+01  0.88178777711E+01  0.00000000000E+00 0. -1.
         23    2    1    2    0    0  0.00000000000E+00  0.00000000000E+00  0.22484354742E+03  0.24247930297E+03  0.90783211822E+02 0.  0.
        -13    1    3    3    0    0 -0.16608047820E+01 -0.44790001845E+02  0.13158872927E+03  0.13901257572E+03  0.00000000000E+00 0.  1.
         13    1    3    3    0    0  0.16608047820E+01  0.44790001845E+02  0.93254818158E+02  0.10346672725E+03  0.00000000000E+00 0. -1.
<mgrwt>
<rscale>  0 0.90783212E+02</rscale>
<asrwt>0</asrwt>
<pdfrwt beam="2">  1        3 0.13565968E-02 0.90783212E+02</pdfrwt>
<pdfrwt beam="1">  1       -3 0.35947907E-01 0.90783212E+02</pdfrwt>
<totfact> 0.26747077E+04</totfact>
</mgrwt>
</event>
<event>
 5    1  0.6079230E+000  0.9191912E+02  0.7546771E-02  0.1298270E+00
         -1   -1    0    0    0  501 -0.00000000000E+00  0.00000000000E+00  0.17040501721E+03  0.17040501721E+03  0.00000000000E+00 0.  1.
          1   -1    0    0  501    0  0.00000000000E+00 -0.00000000000E+00 -0.12395651532E+02  0.12395651532E+02  0.00000000000E+00 0. -1.
         23    2    1    2    0    0  0.00000000000E+00  0.00000000000E+00  0.15800936568E+03  0.18280066874E+03  0.91919121244E+02 0.  0.
        -13    1    3    3    0    0  0.40810868003E+00 -0.43450328060E+02  0.10878119910E+03  0.11713857964E+03  0.00000000000E+00 0.  1.
         13    1    3    3    0    0 -0.40810868003E+00  0.43450328060E+02  0.49228166578E+02  0.65662089107E+02  0.00000000000E+00 0. -1.
<mgrwt>
<rscale>  0 0.91919121E+02</rscale>
<asrwt>0</asrwt>
<pdfrwt beam="2">  1        1 0.19070234E-02 0.91919121E+02</pdfrwt>
<pdfrwt beam="1">  1       -1 0.26216155E-01 0.91919121E+02</pdfrwt>
<totfact> 0.70980409E+04</totfact>
</mgrwt>
</event>
<event>
 5    1  0.6079230E+000  0.8944113E+02  0.7546771E-02  0.1304211E+00
          3   -1    0    0  501    0  0.00000000000E+00  0.00000000000E+00  0.37702236106E+03  0.37702236106E+03  0.00000000000E+00 0. -1.
         -3   -1    0    0    0  501 -0.00000000000E+00 -0.00000000000E+00 -0.53045364032E+01  0.53045364032E+01  0.00000000000E+00 0.  1.
         23    2    1    2    0    0  0.00000000000E+00  0.00000000000E+00  0.37171782465E+03  0.38232689746E+03  0.89441127878E+02 0.  0.
        -13    1    3    3    0    0  0.34749185342E+02  0.28115062575E+02  0.17986496500E+03  0.18533582562E+03  0.00000000000E+00 0.  1.
         13    1    3    3    0    0 -0.34749185342E+02 -0.28115062575E+02  0.19185285965E+03  0.19699107184E+03  0.00000000000E+00 0. -1.
<mgrwt>
<rscale>  0 0.89441128E+02</rscale>
<asrwt>0</asrwt>
<pdfrwt beam="1">  1        3 0.58003419E-01 0.89441128E+02</pdfrwt>
<pdfrwt beam="2">  1       -3 0.81608282E-03 0.89441128E+02</pdfrwt>
<totfact> 0.22273668E+04</totfact>
</mgrwt>
</event>
<event>
 5    1  0.6079230E+000  0.9020878E+02  0.7546771E-02  0.1302347E+00
         -3   -1    0    0    0  501 -0.00000000000E+00  0.00000000000E+00  0.16770534179E+02  0.16770534179E+02  0.00000000000E+00 0.  1.
          3   -1    0    0  501    0  0.00000000000E+00 -0.00000000000E+00 -0.12130834891E+03  0.12130834891E+03  0.00000000000E+00 0. -1.
         23    2    1    2    0    0  0.00000000000E+00  0.00000000000E+00 -0.10453781473E+03  0.13807888309E+03  0.90208775884E+02 0.  0.
        -13    1    3    3    0    0 -0.38458268741E+02 -0.22480869336E+02 -0.41447906333E+02  0.60846995489E+02  0.00000000000E+00 0. -1.
         13    1    3    3    0    0  0.38458268741E+02  0.22480869336E+02 -0.63089908396E+02  0.77231887599E+02  0.00000000000E+00 0.  1.
<mgrwt>
<rscale>  0 0.90208776E+02</rscale>
<asrwt>0</asrwt>
<pdfrwt beam="2">  1        3 0.18662822E-01 0.90208776E+02</pdfrwt>
<pdfrwt beam="1">  1       -3 0.25800822E-02 0.90208776E+02</pdfrwt>
<totfact> 0.32991725E+04</totfact>
</mgrwt>
</event>
<event>
 5    1  0.6079230E+000  0.8994328E+02  0.7546771E-02  0.1302989E+00
         -2   -1    0    0    0  501 -0.00000000000E+00  0.00000000000E+00  0.98356854958E+01  0.98356854958E+01  0.00000000000E+00 0.  1.
          2   -1    0    0  501    0  0.00000000000E+00 -0.00000000000E+00 -0.20562352032E+03  0.20562352032E+03  0.00000000000E+00 0. -1.
         23    2    1    2    0    0  0.00000000000E+00  0.00000000000E+00 -0.19578783483E+03  0.21545920582E+03  0.89943277157E+02 0.  0.
        -13    1    3    3    0    0 -0.18978116996E+02  0.36253328895E+02 -0.14257983482E+03  0.14833570736E+03  0.00000000000E+00 0.  1.
         13    1    3    3    0    0  0.18978116996E+02 -0.36253328895E+02 -0.53208000011E+02  0.67123498463E+02  0.00000000000E+00 0. -1.
<mgrwt>
<rscale>  0 0.89943277E+02</rscale>
<asrwt>0</asrwt>
<pdfrwt beam="2">  1        2 0.31634388E-01 0.89943277E+02</pdfrwt>
<pdfrwt beam="1">  1       -2 0.15131823E-02 0.89943277E+02</pdfrwt>
<totfact> 0.16206568E+05</totfact>
</mgrwt>
</event>
<event>
 5    1  0.6079230E+000  0.9039484E+02  0.7546771E-02  0.1301898E+00
          1   -1    0    0  501    0  0.00000000000E+00  0.00000000000E+00  0.92003190615E+02  0.92003190615E+02  0.00000000000E+00 0. -1.
         -1   -1    0    0    0  501 -0.00000000000E+00 -0.00000000000E+00 -0.22203651389E+02  0.22203651389E+02  0.00000000000E+00 0.  1.
         23    2    1    2    0    0  0.00000000000E+00  0.00000000000E+00  0.69799539226E+02  0.11420684200E+03  0.90394839920E+02 0.  0.
        -13    1    3    3    0    0 -0.44553923219E+02  0.59392889326E+01  0.28909557100E+02  0.53442396268E+02  0.00000000000E+00 0. -1.
         13    1    3    3    0    0  0.44553923219E+02 -0.59392889326E+01  0.40889982126E+02  0.60764445735E+02  0.00000000000E+00 0.  1.
<mgrwt>
<rscale>  0 0.90394840E+02</rscale>
<asrwt>0</asrwt>
<pdfrwt beam="1">  1        1 0.14154337E-01 0.90394840E+02</pdfrwt>
<pdfrwt beam="2">  1       -1 0.34159464E-02 0.90394840E+02</pdfrwt>
<totfact> 0.10547948E+05</totfact>
</mgrwt>
</event>
<event>
 5    1  0.6079230E+000  0.9011045E+02  0.7546771E-02  0.1302584E+00
          2   -1    0    0  501    0  0.00000000000E+00  0.00000000000E+00  0.81448470973E+02  0.81448470973E+02  0.00000000000E+00 0. -1.
         -2   -1    0    0    0  501 -0.00000000000E+00 -0.00000000000E+00 -0.24923404551E+02  0.24923404551E+02  0.00000000000E+00 0.  1.
         23    2    1    2    0    0  0.00000000000E+00  0.00000000000E+00  0.56525066422E+02  0.10637187552E+03  0.90110447611E+02 0.  0.
        -13    1    3    3    0    0 -0.51173670129E+01  0.17343970741E+02 -0.20451655897E+02  0.27299651924E+02  0.00000000000E+00 0.  1.
         13    1    3    3    0    0  0.51173670129E+01 -0.17343970741E+02  0.76976722319E+02  0.79072223601E+02  0.00000000000E+00 0. -1.
<mgrwt>
<rscale>  0 0.90110448E+02</rscale>
<asrwt>0</asrwt>
<pdfrwt beam="1">  1        2 0.12530534E-01 0.90110448E+02</pdfrwt>
<pdfrwt beam="2">  1       -2 0.38343700E-02 0.90110448E+02</pdfrwt>
<totfact> 0.11927579E+05</totfact>
</mgrwt>
</event>
<event>
 5    1  0.6079230E+000  0.9075500E+02  0.7546771E-02  0.1301034E+00
          1   -1    0    0  501    0  0.00000000000E+00  0.00000000000E+00  0.15523574145E+03  0.15523574145E+03  0.00000000000E+00 0. -1.
         -1   -1    0    0    0  501 -0.00000000000E+00 -0.00000000000E+00 -0.13264454634E+02  0.13264454634E+02  0.00000000000E+00 0.  1.
         23    2    1    2    0    0  0.00000000000E+00  0.00000000000E+00  0.14197128681E+03  0.16850019608E+03  0.90754998760E+02 0.  0.
        -13    1    3    3    0    0 -0.33934965364E+02  0.24642932472E+02  0.38813525793E+02  0.57143204142E+02  0.00000000000E+00 0.  1.
         13    1    3    3    0    0  0.33934965364E+02 -0.24642932472E+02  0.10315776102E+03  0.11135699194E+03  0.00000000000E+00 0. -1.
<mgrwt>
<rscale>  0 0.90754999E+02</rscale>
<asrwt>0</asrwt>
<pdfrwt beam="1">  1        1 0.23882420E-01 0.90754999E+02</pdfrwt>
<pdfrwt beam="2">  1       -1 0.20406854E-02 0.90754999E+02</pdfrwt>
<totfact> 0.11426359E+05</totfact>
</mgrwt>
</event>
<event>
 4    1  0.6079230E+000  0.1427996E+03  0.7546771E-02  0.1209611E+00
          1   -1    0    0  501    0  0.00000000000E+00  0.00000000000E+00  0.55973118059E+02  0.55973118059E+02  0.00000000000E+00 0. -1.
         -1   -1    0    0    0  501 -0.00000000000E+00 -0.00000000000E+00 -0.91078210885E+02  0.91078210885E+02  0.00000000000E+00 0.  1.
        -13    1    1    2    0    0  0.60357425908E+02  0.35741255792E+02 -0.38339137554E+01  0.70250659232E+02  0.00000000000E+00 0.  1.
         13    1    1    2    0    0 -0.60357425908E+02 -0.35741255792E+02 -0.31271179071E+02  0.76800669713E+02  0.00000000000E+00 0. -1.
<mgrwt>
<rscale>  0 0.14279960E+03</rscale>
<asrwt>0</asrwt>
<pdfrwt beam="1">  1        1 0.86112491E-02 0.14279960E+03</pdfrwt>
<pdfrwt beam="2">  1       -1 0.14012032E-01 0.14279960E+03</pdfrwt>
<totfact> 0.26060899E+04</totfact>
</mgrwt>
</event>
<event>
 5    1  0.6079230E+000  0.8943937E+02  0.7546771E-02  0.1304215E+00
          1   -1    0    0  501    0  0.00000000000E+00  0.00000000000E+00  0.15209499950E+02  0.15209499950E+02  0.00000000000E+00 0. -1.
         -1   -1    0    0    0  501 -0.00000000000E+00 -0.00000000000E+00 -0.13148692114E+03  0.13148692114E+03  0.00000000000E+00 0.  1.
         23    2    1    2    0    0  0.00000000000E+00  0.00000000000E+00 -0.11627742119E+03  0.14669642108E+03  0.89439372100E+02 0.  0.
        -13    1    3    3    0    0  0.22284086560E+02 -0.11433746110E+02 -0.11890366331E+03  0.12151293023E+03  0.00000000000E+00 0.  1.
         13    1    3    3    0    0 -0.22284086560E+02  0.11433746110E+02  0.26262421273E+01  0.25183490855E+02  0.00000000000E+00 0. -1.
<mgrwt>
<rscale>  0 0.89439372E+02</rscale>
<asrwt>0</asrwt>
<pdfrwt beam="1">  1        1 0.23399231E-02 0.89439372E+02</pdfrwt>
<pdfrwt beam="2">  1       -1 0.20228757E-01 0.89439372E+02</pdfrwt>
<totfact> 0.80966695E+04</totfact>
</mgrwt>
</event>
<event>
 5    1  0.6079230E+000  0.8978012E+02  0.7546771E-02  0.1303385E+00
         -2   -1    0    0    0  501 -0.00000000000E+00  0.00000000000E+00  0.35809260797E+02  0.35809260797E+02  0.00000000000E+00 0.  1.
          2   -1    0    0  501    0  0.00000000000E+00 -0.00000000000E+00 -0.56273642359E+02  0.56273642359E+02  0.00000000000E+00 0. -1.
         23    2    1    2    0    0  0.00000000000E+00  0.00000000000E+00 -0.20464381561E+02  0.92082903156E+02  0.89780121079E+02 0.  0.
        -13    1    3    3    0    0  0.15541538761E+02 -0.62310345854E+01 -0.52950844199E+02  0.55535188128E+02  0.00000000000E+00 0. -1.
         13    1    3    3    0    0 -0.15541538761E+02  0.62310345854E+01  0.32486462638E+02  0.36547715028E+02  0.00000000000E+00 0.  1.
<mgrwt>
<rscale>  0 0.89780121E+02</rscale>
<asrwt>0</asrwt>
<pdfrwt beam="2">  1        2 0.86574834E-02 0.89780121E+02</pdfrwt>
<pdfrwt beam="1">  1       -2 0.55091171E-02 0.89780121E+02</pdfrwt>
<totfact> 0.10891827E+05</totfact>
</mgrwt>
</event>
<event>
 5    1  0.6079230E+000  0.8961219E+02  0.7546771E-02  0.1303794E+00
          4   -1    0    0  501    0  0.00000000000E+00  0.00000000000E+00  0.28585557080E+02  0.28585557080E+02  0.00000000000E+00 0. -1.
         -4   -1    0    0    0  501 -0.00000000000E+00 -0.00000000000E+00 -0.70230789854E+02  0.70230789854E+02  0.00000000000E+00 0.  1.
         23    2    1    2    0    0  0.00000000000E+00  0.00000000000E+00 -0.41645232774E+02  0.98816346934E+02  0.89612192299E+02 0.  0.
        -13    1    3    3    0    0 -0.38265307836E+01  0.38946335009E+02 -0.44884136098E+02  0.59548677749E+02  0.00000000000E+00 0.  1.
         13    1    3    3    0    0  0.38265307836E+01 -0.38946335009E+02  0.32389033241E+01  0.39267669184E+02  0.00000000000E+00 0. -1.
<mgrwt>
<rscale>  0 0.89612192E+02</rscale>
<asrwt>0</asrwt>
<pdfrwt beam="1">  1        4 0.43977781E-02 0.89612192E+02</pdfrwt>
<pdfrwt beam="2">  1       -4 0.10804737E-01 0.89612192E+02</pdfrwt>
<totfact> 0.27802631E+04</totfact>
</mgrwt>
</event>
<event>
 5    1  0.6079230E+000  0.8165758E+02  0.7546771E-02  0.1324412E+00
         -2   -1    0    0    0  501 -0.00000000000E+00  0.00000000000E+00  0.15169960887E+03  0.15169960887E+03  0.00000000000E+00 0.  1.
          2   -1    0    0  501    0  0.00000000000E+00 -0.00000000000E+00 -0.10988757263E+02  0.10988757263E+02  0.00000000000E+00 0. -1.
         23    2    1    2    0    0  0.00000000000E+00  0.00000000000E+00  0.14071085160E+03  0.16268836613E+03  0.81657582101E+02 0.  0.
        -13    1    3    3    0    0  0.18191674012E+02  0.20317304096E+02  0.13089258944E+03  0.13370340242E+03  0.00000000000E+00 0.  1.
         13    1    3    3    0    0 -0.18191674012E+02 -0.20317304096E+02  0.98182621625E+01  0.28984963705E+02  0.00000000000E+00 0. -1.
<mgrwt>
<rscale>  0 0.81657582E+02</rscale>
<asrwt>0</asrwt>
<pdfrwt beam="2">  1        2 0.16905781E-02 0.81657582E+02</pdfrwt>
<pdfrwt beam="1">  1       -2 0.23338400E-01 0.81657582E+02</pdfrwt>
<totfact> 0.91940574E+04</totfact>
</mgrwt>
</event>
<event>
 5    1  0.6079230E+000  0.9070892E+02  0.7546771E-02  0.1301144E+00
         -2   -1    0    0    0  501 -0.00000000000E+00  0.00000000000E+00  0.29669375003E+02  0.29669375003E+02  0.00000000000E+00 0.  1.
          2   -1    0    0  501    0  0.00000000000E+00 -0.00000000000E+00 -0.69331661009E+02  0.69331661009E+02  0.00000000000E+00 0. -1.
         23    2    1    2    0    0  0.00000000000E+00  0.00000000000E+00 -0.39662286006E+02  0.99001036013E+02  0.90708920181E+02 0.  0.
        -13    1    3    3    0    0  0.48224559648E+01  0.37380238581E+02  0.77038583521E+01  0.38469309214E+02  0.00000000000E+00 0.  1.
         13    1    3    3    0    0 -0.48224559648E+01 -0.37380238581E+02 -0.47366144358E+02  0.60531726799E+02  0.00000000000E+00 0. -1.
<mgrwt>
<rscale>  0 0.90708920E+02</rscale>
<asrwt>0</asrwt>
<pdfrwt beam="2">  1        2 0.10666409E-01 0.90708920E+02</pdfrwt>
<pdfrwt beam="1">  1       -2 0.45645192E-02 0.90708920E+02</pdfrwt>
<totfact> 0.11192527E+05</totfact>
</mgrwt>
</event>
<event>
 5    1  0.6079230E+000  0.9373871E+02  0.7546771E-02  0.1294042E+00
          2   -1    0    0  501    0  0.00000000000E+00  0.00000000000E+00  0.44658854690E+03  0.44658854690E+03  0.00000000000E+00 0. -1.
         -2   -1    0    0    0  501 -0.00000000000E+00 -0.00000000000E+00 -0.49189272780E+01  0.49189272780E+01  0.00000000000E+00 0.  1.
         23    2    1    2    0    0  0.00000000000E+00  0.00000000000E+00  0.44166961962E+03  0.45150747418E+03  0.93738713142E+02 0.  0.
        -13    1    3    3    0    0  0.46855625891E+02  0.65281882025E+00  0.22530350530E+03  0.23012506459E+03  0.00000000000E+00 0. -1.
         13    1    3    3    0    0 -0.46855625891E+02 -0.65281882025E+00  0.21636611432E+03  0.22138240959E+03  0.00000000000E+00 0.  1.
<mgrwt>
<rscale>  0 0.93738713E+02</rscale>
<asrwt>0</asrwt>
<pdfrwt beam="1">  1        2 0.68705898E-01 0.93738713E+02</pdfrwt>
<pdfrwt beam="2">  1       -2 0.75675839E-03 0.93738713E+02</pdfrwt>
<totfact> 0.19277577E+05</totfact>
</mgrwt>
</event>
<event>
 5    1  0.6079230E+000  0.9129405E+02  0.7546771E-02  0.1299748E+00
          2   -1    0    0  501    0  0.00000000000E+00  0.00000000000E+00  0.19537271319E+03  0.19537271319E+03  0.00000000000E+00 0. -1.
         -2   -1    0    0    0  501 -0.00000000000E+00 -0.00000000000E+00 -0.10665005264E+02  0.10665005264E+02  0.00000000000E+00 0.  1.
         23    2    1    2    0    0  0.00000000000E+00  0.00000000000E+00  0.18470770793E+03  0.20603771846E+03  0.91294052703E+02 0.  0.
        -13    1    3    3    0    0  0.10118513198E+01 -0.42358501479E+02  0.54028142932E+02  0.68660809196E+02  0.00000000000E+00 0.  1.
         13    1    3    3    0    0 -0.10118513198E+01  0.42358501479E+02  0.13067956500E+03  0.13737690926E+03  0.00000000000E+00 0. -1.
<mgrwt>
<rscale>  0 0.91294053E+02</rscale>
<asrwt>0</asrwt>
<pdfrwt beam="1">  1        2 0.30057338E-01 0.91294053E+02</pdfrwt>
<pdfrwt beam="2">  1       -2 0.16407702E-02 0.91294053E+02</pdfrwt>
<totfact> 0.15284779E+05</totfact>
</mgrwt>
</event>
<event>
 5    1  0.6079230E+000  0.8614054E+02  0.7546771E-02  0.1312477E+00
          2   -1    0    0  501    0  0.00000000000E+00  0.00000000000E+00  0.23974355204E+03  0.23974355204E+03  0.00000000000E+00 0. -1.
         -2   -1    0    0    0  501 -0.00000000000E+00 -0.00000000000E+00 -0.77376353364E+01  0.77376353364E+01  0.00000000000E+00 0.  1.
         23    2    1    2    0    0  0.00000000000E+00  0.00000000000E+00  0.23200591670E+03  0.24748118737E+03  0.86140540512E+02 0.  0.
        -13    1    3    3    0    0  0.12591231177E+02 -0.36818058423E+02  0.62954428237E+02  0.74009246472E+02  0.00000000000E+00 0.  1.
         13    1    3    3    0    0 -0.12591231177E+02  0.36818058423E+02  0.16905148846E+03  0.17347194090E+03  0.00000000000E+00 0. -1.
<mgrwt>
<rscale>  0 0.86140541E+02</rscale>
<asrwt>0</asrwt>
<pdfrwt beam="1">  1        2 0.36883618E-01 0.86140541E+02</pdfrwt>
<pdfrwt beam="2">  1       -2 0.11904056E-02 0.86140541E+02</pdfrwt>
<totfact> 0.19236141E+05</totfact>
</mgrwt>
</event>
<event>
 5    1  0.6079230E+000  0.8347106E+02  0.7546771E-02  0.1319480E+00
          1   -1    0    0  501    0  0.00000000000E+00  0.00000000000E+00  0.13205450600E+02  0.13205450600E+02  0.00000000000E+00 0. -1.
         -1   -1    0    0    0  501 -0.00000000000E+00 -0.00000000000E+00 -0.13190420311E+03  0.13190420311E+03  0.00000000000E+00 0.  1.
         23    2    1    2    0    0  0.00000000000E+00  0.00000000000E+00 -0.11869875251E+03  0.14510965371E+03  0.83471059371E+02 0.  0.
        -13    1    3    3    0    0  0.34274965069E+02  0.16978220901E+02 -0.30320963211E+02  0.48809773873E+02  0.00000000000E+00 0.  1.
         13    1    3    3    0    0 -0.34274965069E+02 -0.16978220901E+02 -0.88377789295E+02  0.96299879834E+02  0.00000000000E+00 0. -1.
<mgrwt>
<rscale>  0 0.83471059E+02</rscale>
<asrwt>0</asrwt>
<pdfrwt beam="1">  1        1 0.20316077E-02 0.83471059E+02</pdfrwt>
<pdfrwt beam="2">  1       -1 0.20292955E-01 0.83471059E+02</pdfrwt>
<totfact> 0.96703219E+04</totfact>
</mgrwt>
</event>
<event>
 5    1  0.6079230E+000  0.7078177E+02  0.7546771E-02  0.1357455E+00
         -2   -1    0    0    0  501 -0.00000000000E+00  0.00000000000E+00  0.44689529681E+01  0.44689529681E+01  0.00000000000E+00 0.  1.
          2   -1    0    0  501    0  0.00000000000E+00 -0.00000000000E+00 -0.28027031077E+03  0.28027031077E+03  0.00000000000E+00 0. -1.
         23    2    1    2    0    0  0.00000000000E+00  0.00000000000E+00 -0.27580135780E+03  0.28473926374E+03  0.70781772715E+02 0.  0.
        -13    1    3    3    0    0  0.15240154110E+02 -0.30857150598E+02 -0.10470636072E+03  0.11021727640E+03  0.00000000000E+00 0. -1.
         13    1    3    3    0    0 -0.15240154110E+02  0.30857150598E+02 -0.17109499708E+03  0.17452198734E+03  0.00000000000E+00 0.  1.
<mgrwt>
<rscale>  0 0.70781773E+02</rscale>
<asrwt>0</asrwt>
<pdfrwt beam="2">  1        2 0.43118525E-01 0.70781773E+02</pdfrwt>
<pdfrwt beam="1">  1       -2 0.68753097E-03 0.70781773E+02</pdfrwt>
<totfact> 0.34118663E+05</totfact>
</mgrwt>
</event>
<event>
 5    1  0.6079230E+000  0.5937792E+02  0.7546771E-02  0.1400461E+00
         -2   -1    0    0    0  501 -0.00000000000E+00  0.00000000000E+00  0.88282201441E+01  0.88282201441E+01  0.00000000000E+00 0.  1.
          2   -1    0    0  501    0  0.00000000000E+00 -0.00000000000E+00 -0.99842806068E+02  0.99842806068E+02  0.00000000000E+00 0. -1.
         23    2    1    2    0    0  0.00000000000E+00  0.00000000000E+00 -0.91014585924E+02  0.10867102621E+03  0.59377917504E+02 0.  0.
        -13    1    3    3    0    0  0.26535913976E+02 -0.42991112888E+01 -0.22444590096E+02  0.35019947359E+02  0.00000000000E+00 0.  1.
         13    1    3    3    0    0 -0.26535913976E+02  0.42991112888E+01 -0.68569995828E+02  0.73651078853E+02  0.00000000000E+00 0. -1.
<mgrwt>
<rscale>  0 0.59377918E+02</rscale>
<asrwt>0</asrwt>
<pdfrwt beam="2">  1        2 0.15360432E-01 0.59377918E+02</pdfrwt>
<pdfrwt beam="1">  1       -2 0.13581877E-02 0.59377918E+02</pdfrwt>
<totfact> 0.38528590E+05</totfact>
</mgrwt>
</event>
<event>
 5    1  0.6079230E+000  0.9374496E+02  0.7546771E-02  0.1294028E+00
          2   -1    0    0  501    0  0.00000000000E+00  0.00000000000E+00  0.97098710563E+02  0.97098710563E+02  0.00000000000E+00 0.  1.
         -2   -1    0    0    0  501 -0.00000000000E+00 -0.00000000000E+00 -0.22626762077E+02  0.22626762077E+02  0.00000000000E+00 0. -1.
         23    2    1    2    0    0  0.00000000000E+00  0.00000000000E+00  0.74471948485E+02  0.11972547264E+03  0.93744960865E+02 0.  0.
        -13    1    3    3    0    0 -0.45875989631E+02  0.80077278855E+01  0.44029987795E+02  0.64088766221E+02  0.00000000000E+00 0.  1.
         13    1    3    3    0    0  0.45875989631E+02 -0.80077278855E+01  0.30441960690E+02  0.55636706419E+02  0.00000000000E+00 0. -1.
<mgrwt>
<rscale>  0 0.93744961E+02</rscale>
<asrwt>0</asrwt>
<pdfrwt beam="1">  1        2 0.14938263E-01 0.93744961E+02</pdfrwt>
<pdfrwt beam="2">  1       -2 0.34810404E-02 0.93744961E+02</pdfrwt>
<totfact> 0.11259923E+05</totfact>
</mgrwt>
</event>
<event>
 5    1  0.6079230E+000  0.9784694E+02  0.7546771E-02  0.1284890E+00
         -1   -1    0    0    0  501 -0.00000000000E+00  0.00000000000E+00  0.10545675878E+02  0.10545675878E+02  0.00000000000E+00 0.  1.
          1   -1    0    0  501    0  0.00000000000E+00 -0.00000000000E+00 -0.22696562895E+03  0.22696562895E+03  0.00000000000E+00 0. -1.
         23    2    1    2    0    0  0.00000000000E+00  0.00000000000E+00 -0.21641995307E+03  0.23751130482E+03  0.97846940847E+02 0.  0.
        -13    1    3    3    0    0  0.19917641627E+02  0.43019386822E+02 -0.13755271110E+03  0.14549270917E+03  0.00000000000E+00 0. -1.
         13    1    3    3    0    0 -0.19917641627E+02 -0.43019386822E+02 -0.78867241970E+02  0.92018595656E+02  0.00000000000E+00 0.  1.
<mgrwt>
<rscale>  0 0.97846941E+02</rscale>
<asrwt>0</asrwt>
<pdfrwt beam="2">  1        1 0.34917792E-01 0.97846941E+02</pdfrwt>
<pdfrwt beam="1">  1       -1 0.16224116E-02 0.97846941E+02</pdfrwt>
<totfact> 0.10038333E+05</totfact>
</mgrwt>
</event>
<event>
 5    1  0.6079230E+000  0.9518828E+02  0.7546771E-02  0.1290753E+00
          1   -1    0    0  501    0  0.00000000000E+00  0.00000000000E+00  0.19858601079E+02  0.19858601079E+02  0.00000000000E+00 0. -1.
         -1   -1    0    0    0  501 -0.00000000000E+00 -0.00000000000E+00 -0.11406655286E+03  0.11406655286E+03  0.00000000000E+00 0.  1.
         23    2    1    2    0    0  0.00000000000E+00  0.00000000000E+00 -0.94207951777E+02  0.13392515394E+03  0.95188280153E+02 0.  0.
        -13    1    3    3    0    0 -0.32503273448E+02  0.34679054029E+02 -0.43628326169E+02  0.64517675233E+02  0.00000000000E+00 0.  1.
         13    1    3    3    0    0  0.32503273448E+02 -0.34679054029E+02 -0.50579625608E+02  0.69407478702E+02  0.00000000000E+00 0. -1.
<mgrwt>
<rscale>  0 0.95188280E+02</rscale>
<asrwt>0</asrwt>
<pdfrwt beam="1">  1        1 0.30551694E-02 0.95188280E+02</pdfrwt>
<pdfrwt beam="2">  1       -1 0.17548700E-01 0.95188280E+02</pdfrwt>
<totfact> 0.70975505E+04</totfact>
</mgrwt>
</event>
<event>
 5    1  0.6079230E+000  0.9223139E+02  0.7546771E-02  0.1297536E+00
         -1   -1    0    0    0  501 -0.00000000000E+00  0.00000000000E+00  0.75871192258E+01  0.75871192258E+01  0.00000000000E+00 0.  1.
          1   -1    0    0  501    0  0.00000000000E+00 -0.00000000000E+00 -0.28029842294E+03  0.28029842294E+03  0.00000000000E+00 0. -1.
         23    2    1    2    0    0  0.00000000000E+00  0.00000000000E+00 -0.27271130371E+03  0.28788554216E+03  0.92231394950E+02 0.  0.
        -13    1    3    3    0    0  0.61965422933E+01 -0.41683685695E+02 -0.77899798029E+02  0.88568082978E+02  0.00000000000E+00 0.  1.
         13    1    3    3    0    0 -0.61965422933E+01  0.41683685695E+02 -0.19481150568E+03  0.19931745918E+03  0.00000000000E+00 0. -1.
<mgrwt>
<rscale>  0 0.92231395E+02</rscale>
<asrwt>0</asrwt>
<pdfrwt beam="2">  1        1 0.43122831E-01 0.92231395E+02</pdfrwt>
<pdfrwt beam="1">  1       -1 0.11672492E-02 0.92231395E+02</pdfrwt>
<totfact> 0.12263490E+05</totfact>
</mgrwt>
</event>
<event>
 5    1  0.6079230E+000  0.9658134E+02  0.7546771E-02  0.1287654E+00
          2   -1    0    0  501    0  0.00000000000E+00  0.00000000000E+00  0.83753567135E+01  0.83753567135E+01  0.00000000000E+00 0. -1.
         -2   -1    0    0    0  501 -0.00000000000E+00 -0.00000000000E+00 -0.27843459232E+03  0.27843459232E+03  0.00000000000E+00 0.  1.
         23    2    1    2    0    0  0.00000000000E+00  0.00000000000E+00 -0.27005923561E+03  0.28680994904E+03  0.96581344619E+02 0.  0.
        -13    1    3    3    0    0  0.44110822854E+02 -0.38777428188E+01 -0.19224299801E+03  0.19727689136E+03  0.00000000000E+00 0.  1.
         13    1    3    3    0    0 -0.44110822854E+02  0.38777428188E+01 -0.77816237605E+02  0.89533057678E+02  0.00000000000E+00 0. -1.
<mgrwt>
<rscale>  0 0.96581345E+02</rscale>
<asrwt>0</asrwt>
<pdfrwt beam="1">  1        2 0.12885166E-02 0.96581345E+02</pdfrwt>
<pdfrwt beam="2">  1       -2 0.42836085E-01 0.96581345E+02</pdfrwt>
<totfact> 0.45806538E+04</totfact>
</mgrwt>
</event>
<event>
 5    1  0.6079230E+000  0.9282909E+02  0.7546771E-02  0.1296142E+00
         -1   -1    0    0    0  501 -0.00000000000E+00  0.00000000000E+00  0.19639711451E+03  0.19639711451E+03  0.00000000000E+00 0.  1.
          1   -1    0    0  501    0  0.00000000000E+00 -0.00000000000E+00 -0.10969153606E+02  0.10969153606E+02  0.00000000000E+00 0. -1.
         23    2    1    2    0    0  0.00000000000E+00  0.00000000000E+00  0.18542796090E+03  0.20736626812E+03  0.92829092784E+02 0.  0.
        -13    1    3    3    0    0 -0.23050378454E+02  0.33448567666E+02  0.42555044351E+02  0.58830760878E+02  0.00000000000E+00 0. -1.
         13    1    3    3    0    0  0.23050378454E+02 -0.33448567666E+02  0.14287291655E+03  0.14853550724E+03  0.00000000000E+00 0.  1.
<mgrwt>
<rscale>  0 0.92829093E+02</rscale>
<asrwt>0</asrwt>
<pdfrwt beam="2">  1        1 0.16875622E-02 0.92829093E+02</pdfrwt>
<pdfrwt beam="1">  1       -1 0.30214938E-01 0.92829093E+02</pdfrwt>
<totfact> 0.66590593E+04</totfact>
</mgrwt>
</event>
<event>
 5    1  0.6079230E+000  0.9271788E+02  0.7546771E-02  0.1296400E+00
         -1   -1    0    0    0  501 -0.00000000000E+00  0.00000000000E+00  0.39473445234E+02  0.39473445234E+02  0.00000000000E+00 0.  1.
          1   -1    0    0  501    0  0.00000000000E+00 -0.00000000000E+00 -0.54445495122E+02  0.54445495122E+02  0.00000000000E+00 0. -1.
         23    2    1    2    0    0  0.00000000000E+00  0.00000000000E+00 -0.14972049888E+02  0.93918940356E+02  0.92717878965E+02 0.  0.
        -13    1    3    3    0    0 -0.56310981407E+01  0.34929000169E+02 -0.37830834098E+02  0.51796875655E+02  0.00000000000E+00 0. -1.
         13    1    3    3    0    0  0.56310981407E+01 -0.34929000169E+02  0.22858784211E+02  0.42122064701E+02  0.00000000000E+00 0.  1.
<mgrwt>
<rscale>  0 0.92717879E+02</rscale>
<asrwt>0</asrwt>
<pdfrwt beam="2">  1        1 0.83762300E-02 0.92717879E+02</pdfrwt>
<pdfrwt beam="1">  1       -1 0.60728377E-02 0.92717879E+02</pdfrwt>
<totfact> 0.90630245E+04</totfact>
</mgrwt>
</event>
<event>
 5    1  0.6079230E+000  0.9121749E+02  0.7546771E-02  0.1299930E+00
          2   -1    0    0  501    0  0.00000000000E+00  0.00000000000E+00  0.73390007079E+02  0.73390007079E+02  0.00000000000E+00 0. -1.
         -2   -1    0    0    0  501 -0.00000000000E+00 -0.00000000000E+00 -0.28343878055E+02  0.28343878055E+02  0.00000000000E+00 0.  1.
         23    2    1    2    0    0  0.00000000000E+00  0.00000000000E+00  0.45046129024E+02  0.10173388513E+03  0.91217485410E+02 0.  0.
        -13    1    3    3    0    0  0.44118633923E+02 -0.11258673005E+02  0.25462403908E+02  0.52168434804E+02  0.00000000000E+00 0.  1.
         13    1    3    3    0    0 -0.44118633923E+02  0.11258673005E+02  0.19583725116E+02  0.49565450331E+02  0.00000000000E+00 0. -1.
<mgrwt>
<rscale>  0 0.91217485E+02</rscale>
<asrwt>0</asrwt>
<pdfrwt beam="1">  1        2 0.11290770E-01 0.91217485E+02</pdfrwt>
<pdfrwt beam="2">  1       -2 0.43605966E-02 0.91217485E+02</pdfrwt>
<totfact> 0.11194701E+05</totfact>
</mgrwt>
</event>
<event>
 5    1  0.6079230E+000  0.8903077E+02  0.7546771E-02  0.1305216E+00
         -2   -1    0    0    0  501 -0.00000000000E+00  0.00000000000E+00  0.68395152783E+02  0.68395152783E+02  0.00000000000E+00 0. -1.
          2   -1    0    0  501    0  0.00000000000E+00 -0.00000000000E+00 -0.28973100499E+02  0.28973100499E+02  0.00000000000E+00 0.  1.
         23    2    1    2    0    0  0.00000000000E+00  0.00000000000E+00  0.39422052285E+02  0.97368253282E+02  0.89030772999E+02 0.  0.
        -13    1    3    3    0    0  0.31311156821E+02  0.29964040109E+02  0.85908663107E+01  0.44181842708E+02  0.00000000000E+00 0.  1.
         13    1    3    3    0    0 -0.31311156821E+02 -0.29964040109E+02  0.30831185974E+02  0.53186410574E+02  0.00000000000E+00 0. -1.
<mgrwt>
<rscale>  0 0.89030773E+02</rscale>
<asrwt>0</asrwt>
<pdfrwt beam="2">  1        2 0.44574001E-02 0.89030773E+02</pdfrwt>
<pdfrwt beam="1">  1       -2 0.10522331E-01 0.89030773E+02</pdfrwt>
<totfact> 0.94060233E+04</totfact>
</mgrwt>
</event>
<event>
 5    1  0.6079230E+000  0.9042392E+02  0.7546771E-02  0.1301828E+00
          3   -1    0    0  501    0  0.00000000000E+00  0.00000000000E+00  0.46005411018E+02  0.46005411018E+02  0.00000000000E+00 0. -1.
         -3   -1    0    0    0  501 -0.00000000000E+00 -0.00000000000E+00 -0.44432197489E+02  0.44432197489E+02  0.00000000000E+00 0.  1.
         23    2    1    2    0    0  0.00000000000E+00  0.00000000000E+00  0.15732135287E+01  0.90437608507E+02  0.90423924001E+02 0.  0.
        -13    1    3    3    0    0  0.46692920544E+01  0.12395199615E+02  0.44021360032E+02  0.45970897325E+02  0.00000000000E+00 0. -1.
         13    1    3    3    0    0 -0.46692920544E+01 -0.12395199615E+02 -0.42448146503E+02  0.44466711182E+02  0.00000000000E+00 0.  1.
<mgrwt>
<rscale>  0 0.90423924E+02</rscale>
<asrwt>0</asrwt>
<pdfrwt beam="1">  1        3 0.70777555E-02 0.90423924E+02</pdfrwt>
<pdfrwt beam="2">  1       -3 0.68357227E-02 0.90423924E+02</pdfrwt>
<totfact> 0.36203139E+04</totfact>
</mgrwt>
</event>
<event>
 5    1  0.6079230E+000  0.8959144E+02  0.7546771E-02  0.1303844E+00
          1   -1    0    0  501    0  0.00000000000E+00  0.00000000000E+00  0.86896573308E+01  0.86896573308E+01  0.00000000000E+00 0. -1.
         -1   -1    0    0    0  501 -0.00000000000E+00 -0.00000000000E+00 -0.23092469448E+03  0.23092469448E+03  0.00000000000E+00 0.  1.
         23    2    1    2    0    0  0.00000000000E+00  0.00000000000E+00 -0.22223503715E+03  0.23961435181E+03  0.89591438524E+02 0.  0.
        -13    1    3    3    0    0 -0.10526159451E+02 -0.42574657359E+02 -0.13552098007E+03  0.14244064561E+03  0.00000000000E+00 0.  1.
         13    1    3    3    0    0  0.10526159451E+02  0.42574657359E+02 -0.86714057074E+02  0.97173706198E+02  0.00000000000E+00 0. -1.
<mgrwt>
<rscale>  0 0.89591439E+02</rscale>
<asrwt>0</asrwt>
<pdfrwt beam="1">  1        1 0.13368703E-02 0.89591439E+02</pdfrwt>
<pdfrwt beam="2">  1       -1 0.35526877E-01 0.89591439E+02</pdfrwt>
<totfact> 0.69585637E+04</totfact>
</mgrwt>
</event>
<event>
 5    1  0.6079230E+000  0.9022647E+02  0.7546771E-02  0.1302304E+00
          1   -1    0    0  501    0  0.00000000000E+00  0.00000000000E+00  0.13177711029E+03  0.13177711029E+03  0.00000000000E+00 0. -1.
         -1   -1    0    0    0  501 -0.00000000000E+00 -0.00000000000E+00 -0.15444290301E+02  0.15444290301E+02  0.00000000000E+00 0.  1.
         23    2    1    2    0    0  0.00000000000E+00  0.00000000000E+00  0.11633281999E+03  0.14722140059E+03  0.90226469428E+02 0.  0.
        -13    1    3    3    0    0  0.69469313720E+01  0.32064619909E+02  0.10869090188E+03  0.11353462844E+03  0.00000000000E+00 0. -1.
         13    1    3    3    0    0 -0.69469313720E+01 -0.32064619909E+02  0.76419181158E+01  0.33686772150E+02  0.00000000000E+00 0.  1.
<mgrwt>
<rscale>  0 0.90226469E+02</rscale>
<asrwt>0</asrwt>
<pdfrwt beam="1">  1        1 0.20273401E-01 0.90226469E+02</pdfrwt>
<pdfrwt beam="2">  1       -1 0.23760447E-02 0.90226469E+02</pdfrwt>
<totfact> 0.11267764E+05</totfact>
</mgrwt>
</event>
<event>
 5    1  0.6079230E+000  0.8945063E+02  0.7546771E-02  0.1304188E+00
          2   -1    0    0  501    0  0.00000000000E+00  0.00000000000E+00  0.78551059823E+01  0.78551059823E+01  0.00000000000E+00 0. -1.
         -2   -1    0    0    0  501 -0.00000000000E+00 -0.00000000000E+00 -0.25465650512E+03  0.25465650512E+03  0.00000000000E+00 0.  1.
         23    2    1    2    0    0  0.00000000000E+00  0.00000000000E+00 -0.24680139913E+03  0.26251161110E+03  0.89450630780E+02 0.  0.
        -13    1    3    3    0    0 -0.36112379321E+02 -0.25352675041E+02 -0.10193680269E+03  0.11107643231E+03  0.00000000000E+00 0. -1.
         13    1    3    3    0    0  0.36112379321E+02  0.25352675041E+02 -0.14486459644E+03  0.15143517879E+03  0.00000000000E+00 0.  1.
<mgrwt>
<rscale>  0 0.89450631E+02</rscale>
<asrwt>0</asrwt>
<pdfrwt beam="1">  1        2 0.12084781E-02 0.89450631E+02</pdfrwt>
<pdfrwt beam="2">  1       -2 0.39177916E-01 0.89450631E+02</pdfrwt>
<totfact> 0.58455536E+04</totfact>
</mgrwt>
</event>
<event>
 5    1  0.6079230E+000  0.9003060E+02  0.7546771E-02  0.1302778E+00
         -3   -1    0    0    0  501 -0.00000000000E+00  0.00000000000E+00  0.47416508047E+02  0.47416508047E+02  0.00000000000E+00 0.  1.
          3   -1    0    0  501    0  0.00000000000E+00 -0.00000000000E+00 -0.42735693961E+02  0.42735693961E+02  0.00000000000E+00 0. -1.
         23    2    1    2    0    0  0.00000000000E+00  0.00000000000E+00  0.46808140855E+01  0.90152202008E+02  0.90030603166E+02 0.  0.
        -13    1    3    3    0    0  0.51716313059E+01 -0.35153183118E+02 -0.25335397967E+02  0.43639138899E+02  0.00000000000E+00 0.  1.
         13    1    3    3    0    0 -0.51716313059E+01  0.35153183118E+02  0.30016212053E+02  0.46513063108E+02  0.00000000000E+00 0. -1.
<mgrwt>
<rscale>  0 0.90030603E+02</rscale>
<asrwt>0</asrwt>
<pdfrwt beam="2">  1        3 0.65747222E-02 0.90030603E+02</pdfrwt>
<pdfrwt beam="1">  1       -3 0.72948474E-02 0.90030603E+02</pdfrwt>
<totfact> 0.36657566E+04</totfact>
</mgrwt>
</event>
<event>
 5    1  0.6079230E+000  0.8859569E+02  0.7546771E-02  0.1306289E+00
         -1   -1    0    0    0  501 -0.00000000000E+00  0.00000000000E+00  0.27613550078E+02  0.27613550078E+02  0.00000000000E+00 0.  1.
          1   -1    0    0  501    0  0.00000000000E+00 -0.00000000000E+00 -0.71062899326E+02  0.71062899326E+02  0.00000000000E+00 0. -1.
         23    2    1    2    0    0  0.00000000000E+00  0.00000000000E+00 -0.43449349249E+02  0.98676449404E+02  0.88595686785E+02 0.  0.
        -13    1    3    3    0    0  0.34180501233E+02 -0.24606772211E+02 -0.37016364808E+02  0.56071482652E+02  0.00000000000E+00 0. -1.
         13    1    3    3    0    0 -0.34180501233E+02  0.24606772211E+02 -0.64329844404E+01  0.42604966752E+02  0.00000000000E+00 0.  1.
<mgrwt>
<rscale>  0 0.88595687E+02</rscale>
<asrwt>0</asrwt>
<pdfrwt beam="2">  1        1 0.10932754E-01 0.88595687E+02</pdfrwt>
<pdfrwt beam="1">  1       -1 0.42482385E-02 0.88595687E+02</pdfrwt>
<totfact> 0.10701922E+05</totfact>
</mgrwt>
</event>
<event>
 5    1  0.6079230E+000  0.9075706E+02  0.7546771E-02  0.1301029E+00
         -1   -1    0    0    0  501 -0.00000000000E+00  0.00000000000E+00  0.75096010646E+01  0.75096010646E+01  0.00000000000E+00 0.  1.
          1   -1    0    0  501    0  0.00000000000E+00 -0.00000000000E+00 -0.27421046110E+03  0.27421046110E+03  0.00000000000E+00 0. -1.
         23    2    1    2    0    0  0.00000000000E+00  0.00000000000E+00 -0.26670086004E+03  0.28172006217E+03  0.90757064091E+02 0.  0.
        -13    1    3    3    0    0  0.16361162302E+02 -0.32969613721E+02 -0.21574270602E+03  0.21885976848E+03  0.00000000000E+00 0. -1.
         13    1    3    3    0    0 -0.16361162302E+02  0.32969613721E+02 -0.50958154019E+02  0.62860293683E+02  0.00000000000E+00 0.  1.
<mgrwt>
<rscale>  0 0.90757064E+02</rscale>
<asrwt>0</asrwt>
<pdfrwt beam="2">  1        1 0.42186225E-01 0.90757064E+02</pdfrwt>
<pdfrwt beam="1">  1       -1 0.11553232E-02 0.90757064E+02</pdfrwt>
<totfact> 0.12748030E+05</totfact>
</mgrwt>
</event>
<event>
 5    1  0.6079230E+000  0.9223713E+02  0.7546771E-02  0.1297523E+00
          2   -1    0    0  501    0  0.00000000000E+00  0.00000000000E+00  0.42568576281E+02  0.42568576281E+02  0.00000000000E+00 0. -1.
         -2   -1    0    0    0  501 -0.00000000000E+00 -0.00000000000E+00 -0.49964605434E+02  0.49964605434E+02  0.00000000000E+00 0.  1.
         23    2    1    2    0    0  0.00000000000E+00  0.00000000000E+00 -0.73960291536E+01  0.92533181715E+02  0.92237131737E+02 0.  0.
        -13    1    3    3    0    0 -0.28328129052E+02  0.25547700463E+01  0.32721568818E+02  0.43355631831E+02  0.00000000000E+00 0. -1.
         13    1    3    3    0    0  0.28328129052E+02 -0.25547700463E+01 -0.40117597971E+02  0.49177549884E+02  0.00000000000E+00 0.  1.
<mgrwt>
<rscale>  0 0.92237132E+02</rscale>
<asrwt>0</asrwt>
<pdfrwt beam="1">  1        2 0.65490118E-02 0.92237132E+02</pdfrwt>
<pdfrwt beam="2">  1       -2 0.76868624E-02 0.92237132E+02</pdfrwt>
<totfact> 0.93752058E+04</totfact>
</mgrwt>
</event>
<event>
 5    1  0.6079230E+000  0.9233383E+02  0.7546771E-02  0.1297296E+00
          2   -1    0    0  501    0  0.00000000000E+00  0.00000000000E+00  0.24427877251E+03  0.24427877251E+03  0.00000000000E+00 0.  1.
         -2   -1    0    0    0  501 -0.00000000000E+00 -0.00000000000E+00 -0.87252115018E+01  0.87252115018E+01  0.00000000000E+00 0. -1.
         23    2    1    2    0    0  0.00000000000E+00  0.00000000000E+00  0.23555356101E+03  0.25300398401E+03  0.92333828157E+02 0.  0.
        -13    1    3    3    0    0  0.31822214989E+02  0.27462419745E+02  0.17009376946E+03  0.17521052558E+03  0.00000000000E+00 0.  1.
         13    1    3    3    0    0 -0.31822214989E+02 -0.27462419745E+02  0.65459791544E+02  0.77793458427E+02  0.00000000000E+00 0. -1.
<mgrwt>
<rscale>  0 0.92333828E+02</rscale>
<asrwt>0</asrwt>
<pdfrwt beam="1">  1        2 0.37581344E-01 0.92333828E+02</pdfrwt>
<pdfrwt beam="2">  1       -2 0.13423404E-02 0.92333828E+02</pdfrwt>
<totfact> 0.16089254E+05</totfact>
</mgrwt>
</event>
<event>
 5    1  0.6079230E+000  0.5500350E+02  0.7546771E-02  0.1420082E+00
         -1   -1    0    0    0  501 -0.00000000000E+00  0.00000000000E+00  0.11598412939E+02  0.11598412939E+02  0.00000000000E+00 0.  1.
          1   -1    0    0  501    0  0.00000000000E+00 -0.00000000000E+00 -0.65211191725E+02  0.65211191725E+02  0.00000000000E+00 0. -1.
         23    2    1    2    0    0  0.00000000000E+00  0.00000000000E+00 -0.53612778786E+02  0.76809604665E+02  0.55003502794E+02 0.  0.
        -13    1    3    3    0    0 -0.10617047808E+02  0.46665351429E+01  0.80167025522E+01  0.14098431622E+02  0.00000000000E+00 0.  1.
         13    1    3    3    0    0  0.10617047808E+02 -0.46665351429E+01 -0.61629481338E+02  0.62711173043E+02  0.00000000000E+00 0. -1.
<mgrwt>
<rscale>  0 0.55003503E+02</rscale>
<asrwt>0</asrwt>
<pdfrwt beam="2">  1        1 0.10032491E-01 0.55003503E+02</pdfrwt>
<pdfrwt beam="1">  1       -1 0.17843712E-02 0.55003503E+02</pdfrwt>
<totfact> 0.37558192E+05</totfact>
</mgrwt>
</event>
<event>
 5    1  0.6079230E+000  0.9047338E+02  0.7546771E-02  0.1301709E+00
          2   -1    0    0  501    0  0.00000000000E+00  0.00000000000E+00  0.19988485968E+03  0.19988485968E+03  0.00000000000E+00 0. -1.
         -2   -1    0    0    0  501 -0.00000000000E+00 -0.00000000000E+00 -0.10237684072E+02  0.10237684072E+02  0.00000000000E+00 0.  1.
         23    2    1    2    0    0  0.00000000000E+00  0.00000000000E+00  0.18964717561E+03  0.21012254376E+03  0.90473378279E+02 0.  0.
        -13    1    3    3    0    0 -0.13397882117E+02 -0.34814364587E+02  0.35392854126E+02  0.51421759499E+02  0.00000000000E+00 0.  1.
         13    1    3    3    0    0  0.13397882117E+02  0.34814364587E+02  0.15425432148E+03  0.15870078426E+03  0.00000000000E+00 0. -1.
<mgrwt>
<rscale>  0 0.90473378E+02</rscale>
<asrwt>0</asrwt>
<pdfrwt beam="1">  1        2 0.30751514E-01 0.90473378E+02</pdfrwt>
<pdfrwt beam="2">  1       -2 0.15750285E-02 0.90473378E+02</pdfrwt>
<totfact> 0.15790312E+05</totfact>
</mgrwt>
</event>
<event>
 5    1  0.6079230E+000  0.8973346E+02  0.7546771E-02  0.1303498E+00
          1   -1    0    0  501    0  0.00000000000E+00  0.00000000000E+00  0.43772415596E+02  0.43772415596E+02  0.00000000000E+00 0. -1.
         -1   -1    0    0    0  501 -0.00000000000E+00 -0.00000000000E+00 -0.45988402458E+02  0.45988402458E+02  0.00000000000E+00 0.  1.
         23    2    1    2    0    0  0.00000000000E+00  0.00000000000E+00 -0.22159868620E+01  0.89760818054E+02  0.89733460091E+02 0.  0.
        -13    1    3    3    0    0 -0.96103727251E+01  0.35658278375E+02 -0.26594210720E+02  0.45509604749E+02  0.00000000000E+00 0.  1.
         13    1    3    3    0    0  0.96103727251E+01 -0.35658278375E+02  0.24378223858E+02  0.44251213306E+02  0.00000000000E+00 0. -1.
<mgrwt>
<rscale>  0 0.89733460E+02</rscale>
<asrwt>0</asrwt>
<pdfrwt beam="1">  1        1 0.67342178E-02 0.89733460E+02</pdfrwt>
<pdfrwt beam="2">  1       -1 0.70751389E-02 0.89733460E+02</pdfrwt>
<totfact> 0.96117496E+04</totfact>
</mgrwt>
</event>
<event>
 5    1  0.6079230E+000  0.9204895E+02  0.7546771E-02  0.1297964E+00
         -1   -1    0    0    0  501 -0.00000000000E+00  0.00000000000E+00  0.13147767583E+02  0.13147767583E+02  0.00000000000E+00 0.  1.
          1   -1    0    0  501    0  0.00000000000E+00 -0.00000000000E+00 -0.16111116187E+03  0.16111116187E+03  0.00000000000E+00 0. -1.
         23    2    1    2    0    0  0.00000000000E+00  0.00000000000E+00 -0.14796339428E+03  0.17425892945E+03  0.92048945922E+02 0.  0.
        -13    1    3    3    0    0  0.30708417275E+02 -0.32908350087E+02 -0.55795434402E+02  0.71687494705E+02  0.00000000000E+00 0.  1.
         13    1    3    3    0    0 -0.30708417275E+02  0.32908350087E+02 -0.92167959881E+02  0.10257143475E+03  0.00000000000E+00 0. -1.
<mgrwt>
<rscale>  0 0.92048946E+02</rscale>
<asrwt>0</asrwt>
<pdfrwt beam="2">  1        1 0.24786332E-01 0.92048946E+02</pdfrwt>
<pdfrwt beam="1">  1       -1 0.20227335E-02 0.92048946E+02</pdfrwt>
<totfact> 0.11074626E+05</totfact>
</mgrwt>
</event>
<event>
 5    1  0.6079230E+000  0.9094062E+02  0.7546771E-02  0.1300590E+00
          1   -1    0    0  501    0  0.00000000000E+00  0.00000000000E+00  0.23790646274E+03  0.23790646274E+03  0.00000000000E+00 0. -1.
         -1   -1    0    0    0  501 -0.00000000000E+00 -0.00000000000E+00 -0.86905957504E+01  0.86905957504E+01  0.00000000000E+00 0.  1.
         23    2    1    2    0    0  0.00000000000E+00  0.00000000000E+00  0.22921586699E+03  0.24659705849E+03  0.90940615657E+02 0.  0.
        -13    1    3    3    0    0 -0.44470683566E+02  0.86727420879E+01  0.12500119528E+03  0.13295923049E+03  0.00000000000E+00 0. -1.
         13    1    3    3    0    0  0.44470683566E+02 -0.86727420879E+01  0.10421467171E+03  0.11363782800E+03  0.00000000000E+00 0.  1.
<mgrwt>
<rscale>  0 0.90940616E+02</rscale>
<asrwt>0</asrwt>
<pdfrwt beam="1">  1        1 0.36600989E-01 0.90940616E+02</pdfrwt>
<pdfrwt beam="2">  1       -1 0.13370149E-02 0.90940616E+02</pdfrwt>
<totfact> 0.12333277E+05</totfact>
</mgrwt>
</event>
<event>
 5    1  0.6079230E+000  0.9665169E+02  0.7546771E-02  0.1287499E+00
         -1   -1    0    0    0  501 -0.00000000000E+00  0.00000000000E+00  0.20345044058E+02  0.20345044058E+02  0.00000000000E+00 0.  1.
          1   -1    0    0  501    0  0.00000000000E+00 -0.00000000000E+00 -0.11478899640E+03  0.11478899640E+03  0.00000000000E+00 0. -1.
         23    2    1    2    0    0  0.00000000000E+00  0.00000000000E+00 -0.94443952340E+02  0.13513404046E+03  0.96651687810E+02 0.  0.
        -13    1    3    3    0    0 -0.80111585686E+01 -0.40112027774E+02 -0.11241991276E+02  0.42420935888E+02  0.00000000000E+00 0.  1.
         13    1    3    3    0    0  0.80111585686E+01  0.40112027774E+02 -0.83201961065E+02  0.92713104569E+02  0.00000000000E+00 0. -1.
<mgrwt>
<rscale>  0 0.96651688E+02</rscale>
<asrwt>0</asrwt>
<pdfrwt beam="2">  1        1 0.17659845E-01 0.96651688E+02</pdfrwt>
<pdfrwt beam="1">  1       -1 0.31300068E-02 0.96651688E+02</pdfrwt>
<totfact> 0.91193806E+04</totfact>
</mgrwt>
</event>
<event>
 5    1  0.6079230E+000  0.9197782E+02  0.7546771E-02  0.1298132E+00
         -1   -1    0    0    0  501 -0.00000000000E+00  0.00000000000E+00  0.93918525275E+02  0.93918525275E+02  0.00000000000E+00 0.  1.
          1   -1    0    0  501    0  0.00000000000E+00 -0.00000000000E+00 -0.22519304324E+02  0.22519304324E+02  0.00000000000E+00 0. -1.
         23    2    1    2    0    0  0.00000000000E+00  0.00000000000E+00  0.71399220950E+02  0.11643782960E+03  0.91977820204E+02 0.  0.
        -13    1    3    3    0    0 -0.23075504010E+02 -0.22772707620E+02  0.76991272461E+02  0.83538800164E+02  0.00000000000E+00 0.  1.
         13    1    3    3    0    0  0.23075504010E+02  0.22772707620E+02 -0.55920515107E+01  0.32899029435E+02  0.00000000000E+00 0. -1.
<mgrwt>
<rscale>  0 0.91977820E+02</rscale>
<asrwt>0</asrwt>
<pdfrwt beam="2">  1        1 0.34645084E-02 0.91977820E+02</pdfrwt>
<pdfrwt beam="1">  1       -1 0.14449004E-01 0.91977820E+02</pdfrwt>
<totfact> 0.80479202E+04</totfact>
</mgrwt>
</event>
<event>
 5    1  0.6079230E+000  0.9217365E+02  0.7546771E-02  0.1297672E+00
          1   -1    0    0  501    0  0.00000000000E+00  0.00000000000E+00  0.11677774612E+03  0.11677774612E+03  0.00000000000E+00 0. -1.
         -1   -1    0    0    0  501 -0.00000000000E+00 -0.00000000000E+00 -0.18188358590E+02  0.18188358590E+02  0.00000000000E+00 0.  1.
         23    2    1    2    0    0  0.00000000000E+00  0.00000000000E+00  0.98589387532E+02  0.13496610471E+03  0.92173651807E+02 0.  0.
        -13    1    3    3    0    0  0.28442850923E+02 -0.94583524653E+01 -0.19656536056E+01  0.30038641682E+02  0.00000000000E+00 0.  1.
         13    1    3    3    0    0 -0.28442850923E+02  0.94583524653E+01  0.10055504114E+03  0.10492746303E+03  0.00000000000E+00 0. -1.
<mgrwt>
<rscale>  0 0.92173652E+02</rscale>
<asrwt>0</asrwt>
<pdfrwt beam="1">  1        1 0.17965807E-01 0.92173652E+02</pdfrwt>
<pdfrwt beam="2">  1       -1 0.27982091E-02 0.92173652E+02</pdfrwt>
<totfact> 0.10410907E+05</totfact>
</mgrwt>
</event>
<event>
 5    1  0.6079230E+000  0.9065483E+02  0.7546771E-02  0.1301274E+00
         -4   -1    0    0    0  501 -0.00000000000E+00  0.00000000000E+00  0.50444781317E+03  0.50444781317E+03  0.00000000000E+00 0.  1.
          4   -1    0    0  501    0  0.00000000000E+00 -0.00000000000E+00 -0.40729183883E+01  0.40729183883E+01  0.00000000000E+00 0. -1.
         23    2    1    2    0    0  0.00000000000E+00  0.00000000000E+00  0.50037489478E+03  0.50852073156E+03  0.90654834933E+02 0.  0.
        -13    1    3    3    0    0  0.44109334841E+02 -0.98711504363E+01  0.23116354873E+03  0.23554120508E+03  0.00000000000E+00 0. -1.
         13    1    3    3    0    0 -0.44109334841E+02  0.98711504363E+01  0.26921134605E+03  0.27297952648E+03  0.00000000000E+00 0.  1.
<mgrwt>
<rscale>  0 0.90654835E+02</rscale>
<asrwt>0</asrwt>
<pdfrwt beam="2">  1        4 0.62660323E-03 0.90654835E+02</pdfrwt>
<pdfrwt beam="1">  1       -4 0.77607306E-01 0.90654835E+02</pdfrwt>
<totfact> 0.13110964E+04</totfact>
</mgrwt>
</event>
<event>
 4    1  0.6079230E+000  0.1428237E+03  0.7546771E-02  0.1209579E+00
         -3   -1    0    0    0  501 -0.00000000000E+00  0.00000000000E+00  0.86854393409E+02  0.86854393409E+02  0.00000000000E+00 0.  1.
          3   -1    0    0  501    0  0.00000000000E+00 -0.00000000000E+00 -0.58714951453E+02  0.58714951453E+02  0.00000000000E+00 0. -1.
        -13    1    1    2    0    0  0.68112409501E+01  0.22807340082E+02  0.82692223734E+02  0.86049820633E+02  0.00000000000E+00 0.  1.
         13    1    1    2    0    0 -0.68112409501E+01 -0.22807340082E+02 -0.54552781777E+02  0.59519524230E+02  0.00000000000E+00 0. -1.
<mgrwt>
<rscale>  0 0.14282369E+03</rscale>
<asrwt>0</asrwt>
<pdfrwt beam="2">  1        3 0.90330695E-02 0.14282369E+03</pdfrwt>
<pdfrwt beam="1">  1       -3 0.13362214E-01 0.14282369E+03</pdfrwt>
<totfact> 0.90433335E+03</totfact>
</mgrwt>
</event>
<event>
 5    1  0.6079230E+000  0.9147737E+02  0.7546771E-02  0.1299313E+00
          1   -1    0    0  501    0  0.00000000000E+00  0.00000000000E+00  0.92702604962E+02  0.92702604962E+02  0.00000000000E+00 0. -1.
         -1   -1    0    0    0  501 -0.00000000000E+00 -0.00000000000E+00 -0.22567084646E+02  0.22567084646E+02  0.00000000000E+00 0.  1.
         23    2    1    2    0    0  0.00000000000E+00  0.00000000000E+00  0.70135520316E+02  0.11526968961E+03  0.91477374975E+02 0.  0.
        -13    1    3    3    0    0 -0.41742919422E+02 -0.12251896933E+02  0.17272045334E+02  0.46807091881E+02  0.00000000000E+00 0.  1.
         13    1    3    3    0    0  0.41742919422E+02  0.12251896933E+02  0.52863474982E+02  0.68462597727E+02  0.00000000000E+00 0. -1.
<mgrwt>
<rscale>  0 0.91477375E+02</rscale>
<asrwt>0</asrwt>
<pdfrwt beam="1">  1        1 0.14261939E-01 0.91477375E+02</pdfrwt>
<pdfrwt beam="2">  1       -1 0.34718592E-02 0.91477375E+02</pdfrwt>
<totfact> 0.10223145E+05</totfact>
</mgrwt>
</event>
<event>
 5    1  0.6079230E+000  0.9118792E+02  0.7546771E-02  0.1300000E+00
          3   -1    0    0  501    0  0.00000000000E+00  0.00000000000E+00  0.24603594377E+03  0.24603594377E+03  0.00000000000E+00 0. -1.
         -3   -1    0    0    0  501 -0.00000000000E+00 -0.00000000000E+00 -0.84492093848E+01  0.84492093848E+01  0.00000000000E+00 0.  1.
         23    2    1    2    0    0  0.00000000000E+00  0.00000000000E+00  0.23758673439E+03  0.25448515316E+03  0.91187920365E+02 0.  0.
        -13    1    3    3    0    0 -0.39879058721E+02  0.28717214392E+01  0.57636298517E+02  0.70146482558E+02  0.00000000000E+00 0.  1.
         13    1    3    3    0    0  0.39879058721E+02 -0.28717214392E+01  0.17995043587E+03  0.18433867060E+03  0.00000000000E+00 0. -1.
<mgrwt>
<rscale>  0 0.91187920E+02</rscale>
<asrwt>0</asrwt>
<pdfrwt beam="1">  1        3 0.37851678E-01 0.91187920E+02</pdfrwt>
<pdfrwt beam="2">  1       -3 0.12998786E-02 0.91187920E+02</pdfrwt>
<totfact> 0.25897417E+04</totfact>
</mgrwt>
</event>
<event>
 5    1  0.6079230E+000  0.9115568E+02  0.7546771E-02  0.1300077E+00
          2   -1    0    0  501    0  0.00000000000E+00  0.00000000000E+00  0.20430607869E+03  0.20430607869E+03  0.00000000000E+00 0.  1.
         -2   -1    0    0    0  501 -0.00000000000E+00 -0.00000000000E+00 -0.10167781877E+02  0.10167781877E+02  0.00000000000E+00 0. -1.
         23    2    1    2    0    0  0.00000000000E+00  0.00000000000E+00  0.19413829681E+03  0.21447386057E+03  0.91155683183E+02 0.  0.
        -13    1    3    3    0    0  0.36234907857E+02 -0.59408862181E+01  0.33539374721E+02  0.49730798638E+02  0.00000000000E+00 0. -1.
         13    1    3    3    0    0 -0.36234907857E+02  0.59408862181E+01  0.16059892209E+03  0.16474306193E+03  0.00000000000E+00 0.  1.
<mgrwt>
<rscale>  0 0.91155683E+02</rscale>
<asrwt>0</asrwt>
<pdfrwt beam="1">  1        2 0.31431701E-01 0.91155683E+02</pdfrwt>
<pdfrwt beam="2">  1       -2 0.15642743E-02 0.91155683E+02</pdfrwt>
<totfact> 0.15597508E+05</totfact>
</mgrwt>
</event>
<event>
 5    1  0.6079230E+000  0.9502031E+02  0.7546771E-02  0.1291130E+00
          2   -1    0    0  501    0  0.00000000000E+00  0.00000000000E+00  0.15324710220E+02  0.15324710220E+02  0.00000000000E+00 0. -1.
         -2   -1    0    0    0  501 -0.00000000000E+00 -0.00000000000E+00 -0.14729249189E+03  0.14729249189E+03  0.00000000000E+00 0.  1.
         23    2    1    2    0    0  0.00000000000E+00  0.00000000000E+00 -0.13196778167E+03  0.16261720211E+03  0.95020308478E+02 0.  0.
        -13    1    3    3    0    0 -0.28882111650E+02  0.21899167398E+02 -0.11855085674E+03  0.12396796175E+03  0.00000000000E+00 0.  1.
         13    1    3    3    0    0  0.28882111650E+02 -0.21899167398E+02 -0.13416924931E+02  0.38649240364E+02  0.00000000000E+00 0. -1.
<mgrwt>
<rscale>  0 0.95020308E+02</rscale>
<asrwt>0</asrwt>
<pdfrwt beam="1">  1        2 0.23576476E-02 0.95020308E+02</pdfrwt>
<pdfrwt beam="2">  1       -2 0.22660385E-01 0.95020308E+02</pdfrwt>
<totfact> 0.63337338E+04</totfact>
</mgrwt>
</event>
<event>
 5    1  0.6079230E+000  0.9358125E+02  0.7546771E-02  0.1294404E+00
         -2   -1    0    0    0  501 -0.00000000000E+00  0.00000000000E+00  0.21918379821E+03  0.21918379821E+03  0.00000000000E+00 0.  1.
          2   -1    0    0  501    0  0.00000000000E+00 -0.00000000000E+00 -0.99887059336E+01  0.99887059336E+01  0.00000000000E+00 0. -1.
         23    2    1    2    0    0  0.00000000000E+00  0.00000000000E+00  0.20919509228E+03  0.22917250414E+03  0.93581248244E+02 0.  0.
        -13    1    3    3    0    0 -0.12914042072E+02 -0.43216638798E+02  0.13507764862E+03  0.14240934488E+03  0.00000000000E+00 0.  1.
         13    1    3    3    0    0  0.12914042072E+02  0.43216638798E+02  0.74117443651E+02  0.86763159262E+02  0.00000000000E+00 0. -1.
<mgrwt>
<rscale>  0 0.93581248E+02</rscale>
<asrwt>0</asrwt>
<pdfrwt beam="2">  1        2 0.15367242E-02 0.93581248E+02</pdfrwt>
<pdfrwt beam="1">  1       -2 0.33720581E-01 0.93581248E+02</pdfrwt>
<totfact> 0.55966451E+04</totfact>
</mgrwt>
</event>
<event>
 5    1  0.6079230E+000  0.9098836E+02  0.7546771E-02  0.1300476E+00
         -4   -1    0    0    0  501 -0.00000000000E+00  0.00000000000E+00  0.13387032120E+03  0.13387032120E+03  0.00000000000E+00 0.  1.
          4   -1    0    0  501    0  0.00000000000E+00 -0.00000000000E+00 -0.15460637175E+02  0.15460637175E+02  0.00000000000E+00 0. -1.
         23    2    1    2    0    0  0.00000000000E+00  0.00000000000E+00  0.11840968402E+03  0.14933095837E+03  0.90988361112E+02 0.  0.
        -13    1    3    3    0    0 -0.59528155428E+01 -0.44859700979E+02  0.51525861742E+02  0.68576550024E+02  0.00000000000E+00 0.  1.
         13    1    3    3    0    0  0.59528155428E+01  0.44859700979E+02  0.66883822278E+02  0.80754408346E+02  0.00000000000E+00 0. -1.
<mgrwt>
<rscale>  0 0.90988361E+02</rscale>
<asrwt>0</asrwt>
<pdfrwt beam="2">  1        4 0.23785596E-02 0.90988361E+02</pdfrwt>
<pdfrwt beam="1">  1       -4 0.20595433E-01 0.90988361E+02</pdfrwt>
<totfact> 0.23839255E+04</totfact>
</mgrwt>
</event>
<event>
 5    1  0.6079230E+000  0.9207681E+02  0.7546771E-02  0.1297899E+00
         -2   -1    0    0    0  501 -0.00000000000E+00  0.00000000000E+00  0.13686893088E+03  0.13686893088E+03  0.00000000000E+00 0.  1.
          2   -1    0    0  501    0  0.00000000000E+00 -0.00000000000E+00 -0.15485870533E+02  0.15485870533E+02  0.00000000000E+00 0. -1.
         23    2    1    2    0    0  0.00000000000E+00  0.00000000000E+00  0.12138306034E+03  0.15235480141E+03  0.92076805843E+02 0.  0.
        -13    1    3    3    0    0  0.17477115679E+02 -0.23671159514E+02  0.11928015565E+03  0.12285572391E+03  0.00000000000E+00 0.  1.
         13    1    3    3    0    0 -0.17477115679E+02  0.23671159514E+02  0.21029046918E+01  0.29499077500E+02  0.00000000000E+00 0. -1.
<mgrwt>
<rscale>  0 0.92076806E+02</rscale>
<asrwt>0</asrwt>
<pdfrwt beam="2">  1        2 0.23824417E-02 0.92076806E+02</pdfrwt>
<pdfrwt beam="1">  1       -2 0.21056758E-01 0.92076806E+02</pdfrwt>
<totfact> 0.70398207E+04</totfact>
</mgrwt>
</event>
<event>
 5    1  0.6079230E+000  0.9549239E+02  0.7546771E-02  0.1290071E+00
         -2   -1    0    0    0  501 -0.00000000000E+00  0.00000000000E+00  0.26880045827E+02  0.26880045827E+02  0.00000000000E+00 0.  1.
          2   -1    0    0  501    0  0.00000000000E+00 -0.00000000000E+00 -0.84810086899E+02  0.84810086899E+02  0.00000000000E+00 0. -1.
         23    2    1    2    0    0  0.00000000000E+00  0.00000000000E+00 -0.57930041072E+02  0.11169013273E+03  0.95492387601E+02 0.  0.
        -13    1    3    3    0    0  0.34056848970E+02  0.29134160953E+02 -0.97094975265E+01  0.45857852528E+02  0.00000000000E+00 0.  1.
         13    1    3    3    0    0 -0.34056848970E+02 -0.29134160953E+02 -0.48220543546E+02  0.65832280198E+02  0.00000000000E+00 0. -1.
<mgrwt>
<rscale>  0 0.95492388E+02</rscale>
<asrwt>0</asrwt>
<pdfrwt beam="2">  1        2 0.13047705E-01 0.95492388E+02</pdfrwt>
<pdfrwt beam="1">  1       -2 0.41353917E-02 0.95492388E+02</pdfrwt>
<totfact> 0.10269333E+05</totfact>
</mgrwt>
</event>
<event>
 5    1  0.6079230E+000  0.9020885E+02  0.7546771E-02  0.1302347E+00
         -2   -1    0    0    0  501 -0.00000000000E+00  0.00000000000E+00  0.10417299794E+03  0.10417299794E+03  0.00000000000E+00 0.  1.
          2   -1    0    0  501    0  0.00000000000E+00 -0.00000000000E+00 -0.19529140944E+02  0.19529140944E+02  0.00000000000E+00 0. -1.
         23    2    1    2    0    0  0.00000000000E+00  0.00000000000E+00  0.84643856999E+02  0.12370213889E+03  0.90208850106E+02 0.  0.
        -13    1    3    3    0    0 -0.12145045656E+02  0.42407663897E+02  0.29421845526E+02  0.53024117959E+02  0.00000000000E+00 0. -1.
         13    1    3    3    0    0  0.12145045656E+02 -0.42407663897E+02  0.55222011473E+02  0.70678020928E+02  0.00000000000E+00 0.  1.
<mgrwt>
<rscale>  0 0.90208850E+02</rscale>
<asrwt>0</asrwt>
<pdfrwt beam="2">  1        2 0.30044833E-02 0.90208850E+02</pdfrwt>
<pdfrwt beam="1">  1       -2 0.16026615E-01 0.90208850E+02</pdfrwt>
<totfact> 0.80955435E+04</totfact>
</mgrwt>
</event>
<event>
 5    1  0.6079230E+000  0.8615432E+02  0.7546771E-02  0.1312441E+00
         -3   -1    0    0    0  501 -0.00000000000E+00  0.00000000000E+00  0.70102654807E+01  0.70102654807E+01  0.00000000000E+00 0.  1.
          3   -1    0    0  501    0  0.00000000000E+00 -0.00000000000E+00 -0.26470349244E+03  0.26470349244E+03  0.00000000000E+00 0. -1.
         23    2    1    2    0    0  0.00000000000E+00  0.00000000000E+00 -0.25769322695E+03  0.27171375792E+03  0.86154320974E+02 0.  0.
        -13    1    3    3    0    0  0.38546512616E+02  0.29999029998E+01 -0.68940234824E+02  0.79041691723E+02  0.00000000000E+00 0.  1.
         13    1    3    3    0    0 -0.38546512616E+02 -0.29999029998E+01 -0.18875299213E+03  0.19267206619E+03  0.00000000000E+00 0. -1.
<mgrwt>
<rscale>  0 0.86154321E+02</rscale>
<asrwt>0</asrwt>
<pdfrwt beam="2">  1        3 0.40723613E-01 0.86154321E+02</pdfrwt>
<pdfrwt beam="1">  1       -3 0.10785024E-02 0.86154321E+02</pdfrwt>
<totfact> 0.29287782E+04</totfact>
</mgrwt>
</event>
<event>
 5    1  0.6079230E+000  0.8963533E+02  0.7546771E-02  0.1303737E+00
         -2   -1    0    0    0  501 -0.00000000000E+00  0.00000000000E+00  0.13257650409E+02  0.13257650409E+02  0.00000000000E+00 0. -1.
          2   -1    0    0  501    0  0.00000000000E+00 -0.00000000000E+00 -0.15150673031E+03  0.15150673031E+03  0.00000000000E+00 0.  1.
         23    2    1    2    0    0  0.00000000000E+00  0.00000000000E+00 -0.13824907991E+03  0.16476438072E+03  0.89635333774E+02 0.  0.
        -13    1    3    3    0    0 -0.14693580939E+02 -0.33724826306E+02 -0.11618144983E+03  0.12186629770E+03  0.00000000000E+00 0.  1.
         13    1    3    3    0    0  0.14693580939E+02  0.33724826306E+02 -0.22067630078E+02  0.42898083028E+02  0.00000000000E+00 0. -1.
<mgrwt>
<rscale>  0 0.89635334E+02</rscale>
<asrwt>0</asrwt>
<pdfrwt beam="2">  1        2 0.23308726E-01 0.89635334E+02</pdfrwt>
<pdfrwt beam="1">  1       -2 0.20396387E-02 0.89635334E+02</pdfrwt>
<totfact> 0.14691723E+05</totfact>
</mgrwt>
</event>
<event>
 5    1  0.6079230E+000  0.9073574E+02  0.7546771E-02  0.1301080E+00
          2   -1    0    0  501    0  0.00000000000E+00  0.00000000000E+00  0.98483659600E+01  0.98483659600E+01  0.00000000000E+00 0.  1.
         -2   -1    0    0    0  501 -0.00000000000E+00 -0.00000000000E+00 -0.20899339827E+03  0.20899339827E+03  0.00000000000E+00 0. -1.
         23    2    1    2    0    0  0.00000000000E+00  0.00000000000E+00 -0.19914503231E+03  0.21884176423E+03  0.90735736497E+02 0.  0.
        -13    1    3    3    0    0  0.44790975304E+02  0.69129455487E+01 -0.10452897920E+03  0.11393124144E+03  0.00000000000E+00 0. -1.
         13    1    3    3    0    0 -0.44790975304E+02 -0.69129455487E+01 -0.94616053115E+02  0.10491052279E+03  0.00000000000E+00 0.  1.
<mgrwt>
<rscale>  0 0.90735736E+02</rscale>
<asrwt>0</asrwt>
<pdfrwt beam="1">  1        2 0.15151333E-02 0.90735736E+02</pdfrwt>
<pdfrwt beam="2">  1       -2 0.32152830E-01 0.90735736E+02</pdfrwt>
<totfact> 0.61889749E+04</totfact>
</mgrwt>
</event>
<event>
 5    1  0.6079230E+000  0.1035609E+03  0.7546771E-02  0.1272981E+00
          1   -1    0    0  501    0  0.00000000000E+00  0.00000000000E+00  0.12967929747E+03  0.12967929747E+03  0.00000000000E+00 0. -1.
         -1   -1    0    0    0  501 -0.00000000000E+00 -0.00000000000E+00 -0.20675736975E+02  0.20675736975E+02  0.00000000000E+00 0.  1.
         23    2    1    2    0    0  0.00000000000E+00  0.00000000000E+00  0.10900356050E+03  0.15035503445E+03  0.10356090084E+03 0.  0.
        -13    1    3    3    0    0 -0.86563995668E+01 -0.51050963759E+02  0.54914707553E+02  0.75476878975E+02  0.00000000000E+00 0. -1.
         13    1    3    3    0    0  0.86563995668E+01  0.51050963759E+02  0.54088852943E+02  0.74878155471E+02  0.00000000000E+00 0.  1.
<mgrwt>
<rscale>  0 0.10356090E+03</rscale>
<asrwt>0</asrwt>
<pdfrwt beam="1">  1        1 0.19950661E-01 0.10356090E+03</pdfrwt>
<pdfrwt beam="2">  1       -1 0.31808827E-02 0.10356090E+03</pdfrwt>
<totfact> 0.77146313E+04</totfact>
</mgrwt>
</event>
<event>
 5    1  0.6079230E+000  0.9988983E+02  0.7546771E-02  0.1280528E+00
          4   -1    0    0  501    0  0.00000000000E+00  0.00000000000E+00  0.12594621340E+02  0.12594621340E+02  0.00000000000E+00 0. -1.
         -4   -1    0    0    0  501 -0.00000000000E+00 -0.00000000000E+00 -0.19806031336E+03  0.19806031336E+03  0.00000000000E+00 0.  1.
         23    2    1    2    0    0  0.00000000000E+00  0.00000000000E+00 -0.18546569202E+03  0.21065493470E+03  0.99889832298E+02 0.  0.
        -13    1    3    3    0    0  0.49523344376E+02 -0.46220383590E+01 -0.83168283801E+02  0.96906595788E+02  0.00000000000E+00 0. -1.
         13    1    3    3    0    0 -0.49523344376E+02  0.46220383590E+01 -0.10229740822E+03  0.11374833891E+03  0.00000000000E+00 0.  1.
<mgrwt>
<rscale>  0 0.99889832E+02</rscale>
<asrwt>0</asrwt>
<pdfrwt beam="1">  1        4 0.19376342E-02 0.99889832E+02</pdfrwt>
<pdfrwt beam="2">  1       -4 0.30470815E-01 0.99889832E+02</pdfrwt>
<totfact> 0.16382030E+04</totfact>
</mgrwt>
</event>
<event>
 4    1  0.6079230E+000  0.1296882E+03  0.7546771E-02  0.1227919E+00
         -1   -1    0    0    0  501 -0.00000000000E+00  0.00000000000E+00  0.21881029727E+02  0.21881029727E+02  0.00000000000E+00 0.  1.
          1   -1    0    0  501    0  0.00000000000E+00 -0.00000000000E+00 -0.19216462348E+03  0.19216462348E+03  0.00000000000E+00 0. -1.
        -13    1    1    2    0    0  0.16930782593E+02  0.56546154261E+02 -0.12944807467E+03  0.14227059779E+03  0.00000000000E+00 0. -1.
         13    1    1    2    0    0 -0.16930782593E+02 -0.56546154261E+02 -0.40835519087E+02  0.71775055416E+02  0.00000000000E+00 0.  1.
<mgrwt>
<rscale>  0 0.12968824E+03</rscale>
<asrwt>0</asrwt>
<pdfrwt beam="2">  1        1 0.29563787E-01 0.12968824E+03</pdfrwt>
<pdfrwt beam="1">  1       -1 0.33663124E-02 0.12968824E+03</pdfrwt>
<totfact> 0.44740068E+04</totfact>
</mgrwt>
</event>
<event>
 5    1  0.6079230E+000  0.9442724E+02  0.7546771E-02  0.1292471E+00
          1   -1    0    0  501    0  0.00000000000E+00  0.00000000000E+00  0.44284649174E+02  0.44284649174E+02  0.00000000000E+00 0. -1.
         -1   -1    0    0    0  501 -0.00000000000E+00 -0.00000000000E+00 -0.50336312245E+02  0.50336312245E+02  0.00000000000E+00 0.  1.
         23    2    1    2    0    0  0.00000000000E+00  0.00000000000E+00 -0.60516630709E+01  0.94620961419E+02  0.94427240317E+02 0.  0.
        -13    1    3    3    0    0 -0.20302404790E+02  0.36925818312E+02  0.18311566729E+02  0.45945806929E+02  0.00000000000E+00 0. -1.
         13    1    3    3    0    0  0.20302404790E+02 -0.36925818312E+02 -0.24363229800E+02  0.48675154490E+02  0.00000000000E+00 0.  1.
<mgrwt>
<rscale>  0 0.94427240E+02</rscale>
<asrwt>0</asrwt>
<pdfrwt beam="1">  1        1 0.68130230E-02 0.94427240E+02</pdfrwt>
<pdfrwt beam="2">  1       -1 0.77440480E-02 0.94427240E+02</pdfrwt>
<totfact> 0.83405158E+04</totfact>
</mgrwt>
</event>
<event>
 5    1  0.6079230E+000  0.1072033E+03  0.7546771E-02  0.1265838E+00
         -1   -1    0    0    0  501 -0.00000000000E+00  0.00000000000E+00  0.24818700889E+03  0.24818700889E+03  0.00000000000E+00 0.  1.
          1   -1    0    0  501    0  0.00000000000E+00 -0.00000000000E+00 -0.11576505708E+02  0.11576505708E+02  0.00000000000E+00 0. -1.
         23    2    1    2    0    0  0.00000000000E+00  0.00000000000E+00  0.23661050318E+03  0.25976351460E+03  0.10720332691E+03 0.  0.
        -13    1    3    3    0    0 -0.22626957098E+02 -0.29806883860E+02  0.21129355652E+03  0.21458191103E+03  0.00000000000E+00 0.  1.
         13    1    3    3    0    0  0.22626957098E+02  0.29806883860E+02  0.25316946661E+02  0.45181603570E+02  0.00000000000E+00 0. -1.
<mgrwt>
<rscale>  0 0.10720333E+03</rscale>
<asrwt>0</asrwt>
<pdfrwt beam="2">  1        1 0.17810011E-02 0.10720333E+03</pdfrwt>
<pdfrwt beam="1">  1       -1 0.38182613E-01 0.10720333E+03</pdfrwt>
<totfact> 0.42445315E+04</totfact>
</mgrwt>
</event>
<event>
 5    1  0.6079230E+000  0.8817185E+02  0.7546771E-02  0.1307340E+00
         -1   -1    0    0    0  501 -0.00000000000E+00  0.00000000000E+00  0.50433502580E+01  0.50433502580E+01  0.00000000000E+00 0.  1.
          1   -1    0    0  501    0  0.00000000000E+00 -0.00000000000E+00 -0.38537258731E+03  0.38537258731E+03  0.00000000000E+00 0. -1.
         23    2    1    2    0    0  0.00000000000E+00  0.00000000000E+00 -0.38032923705E+03  0.39041593757E+03  0.88171853505E+02 0.  0.
        -13    1    3    3    0    0 -0.43226070023E+02 -0.34229725844E+01 -0.15491925832E+03  0.16087319998E+03  0.00000000000E+00 0.  1.
         13    1    3    3    0    0  0.43226070023E+02  0.34229725844E+01 -0.22540997873E+03  0.22954273759E+03  0.00000000000E+00 0. -1.
<mgrwt>
<rscale>  0 0.88171854E+02</rscale>
<asrwt>0</asrwt>
<pdfrwt beam="2">  1        1 0.59288098E-01 0.88171854E+02</pdfrwt>
<pdfrwt beam="1">  1       -1 0.77589994E-03 0.88171854E+02</pdfrwt>
<totfact> 0.14651151E+05</totfact>
</mgrwt>
</event>
<event>
 5    1  0.6079230E+000  0.9138229E+02  0.7546771E-02  0.1299538E+00
          1   -1    0    0  501    0  0.00000000000E+00  0.00000000000E+00  0.68246300895E+02  0.68246300895E+02  0.00000000000E+00 0. -1.
         -1   -1    0    0    0  501 -0.00000000000E+00 -0.00000000000E+00 -0.30590384587E+02  0.30590384587E+02  0.00000000000E+00 0.  1.
         23    2    1    2    0    0  0.00000000000E+00  0.00000000000E+00  0.37655916308E+02  0.98836685482E+02  0.91382286927E+02 0.  0.
        -13    1    3    3    0    0 -0.13847264214E+02 -0.17511628014E+02 -0.24289774478E+02  0.32990862161E+02  0.00000000000E+00 0.  1.
         13    1    3    3    0    0  0.13847264214E+02  0.17511628014E+02  0.61945690786E+02  0.65845823321E+02  0.00000000000E+00 0. -1.
<mgrwt>
<rscale>  0 0.91382287E+02</rscale>
<asrwt>0</asrwt>
<pdfrwt beam="1">  1        1 0.10499431E-01 0.91382287E+02</pdfrwt>
<pdfrwt beam="2">  1       -1 0.47062130E-02 0.91382287E+02</pdfrwt>
<totfact> 0.97672646E+04</totfact>
</mgrwt>
</event>
<event>
 5    1  0.6079230E+000  0.9324673E+02  0.7546771E-02  0.1295174E+00
          3   -1    0    0  501    0  0.00000000000E+00  0.00000000000E+00  0.97796310710E+01  0.97796310710E+01  0.00000000000E+00 0. -1.
         -3   -1    0    0    0  501 -0.00000000000E+00 -0.00000000000E+00 -0.22227201820E+03  0.22227201820E+03  0.00000000000E+00 0.  1.
         23    2    1    2    0    0  0.00000000000E+00  0.00000000000E+00 -0.21249238713E+03  0.23205164927E+03  0.93246733678E+02 0.  0.
        -13    1    3    3    0    0 -0.35040938506E+02 -0.30715609210E+02 -0.11011936150E+03  0.11957252944E+03  0.00000000000E+00 0.  1.
         13    1    3    3    0    0  0.35040938506E+02  0.30715609210E+02 -0.10237302563E+03  0.11247911983E+03  0.00000000000E+00 0. -1.
<mgrwt>
<rscale>  0 0.93246734E+02</rscale>
<asrwt>0</asrwt>
<pdfrwt beam="1">  1        3 0.15045586E-02 0.93246734E+02</pdfrwt>
<pdfrwt beam="2">  1       -3 0.34195697E-01 0.93246734E+02</pdfrwt>
<totfact> 0.25335756E+04</totfact>
</mgrwt>
</event>
<event>
 5    1  0.6079230E+000  0.8925273E+02  0.7546771E-02  0.1304671E+00
          2   -1    0    0  501    0  0.00000000000E+00  0.00000000000E+00  0.77851940227E+01  0.77851940227E+01  0.00000000000E+00 0. -1.
         -2   -1    0    0    0  501 -0.00000000000E+00 -0.00000000000E+00 -0.25580767099E+03  0.25580767099E+03  0.00000000000E+00 0.  1.
         23    2    1    2    0    0  0.00000000000E+00  0.00000000000E+00 -0.24802247696E+03  0.26359286501E+03  0.89252727715E+02 0.  0.
        -13    1    3    3    0    0 -0.19802435245E+02  0.35225979857E+02 -0.17993038316E+03  0.18441244232E+03  0.00000000000E+00 0.  1.
         13    1    3    3    0    0  0.19802435245E+02 -0.35225979857E+02 -0.68092093803E+02  0.79180422688E+02  0.00000000000E+00 0. -1.
<mgrwt>
<rscale>  0 0.89252728E+02</rscale>
<asrwt>0</asrwt>
<pdfrwt beam="1">  1        2 0.11977223E-02 0.89252728E+02</pdfrwt>
<pdfrwt beam="2">  1       -2 0.39355021E-01 0.89252728E+02</pdfrwt>
<totfact> 0.58654709E+04</totfact>
</mgrwt>
</event>
<event>
 5    1  0.6079230E+000  0.9134050E+02  0.7546771E-02  0.1299638E+00
          1   -1    0    0  501    0  0.00000000000E+00  0.00000000000E+00  0.81378524036E+01  0.81378524036E+01  0.00000000000E+00 0. -1.
         -1   -1    0    0    0  501 -0.00000000000E+00 -0.00000000000E+00 -0.25630493914E+03  0.25630493914E+03  0.00000000000E+00 0.  1.
         23    2    1    2    0    0  0.00000000000E+00  0.00000000000E+00 -0.24816708674E+03  0.26444279154E+03  0.91340500656E+02 0.  0.
        -13    1    3    3    0    0  0.87694262573E+01 -0.39639762794E+02 -0.18464359350E+03  0.18905414635E+03  0.00000000000E+00 0.  1.
         13    1    3    3    0    0 -0.87694262573E+01  0.39639762794E+02 -0.63523493235E+02  0.75388645193E+02  0.00000000000E+00 0. -1.
<mgrwt>
<rscale>  0 0.91340501E+02</rscale>
<asrwt>0</asrwt>
<pdfrwt beam="1">  1        1 0.12519773E-02 0.91340501E+02</pdfrwt>
<pdfrwt beam="2">  1       -1 0.39431528E-01 0.91340501E+02</pdfrwt>
<totfact> 0.63915019E+04</totfact>
</mgrwt>
</event>
<event>
 5    1  0.6079230E+000  0.8786272E+02  0.7546771E-02  0.1308112E+00
         -1   -1    0    0    0  501 -0.00000000000E+00  0.00000000000E+00  0.95637686309E+02  0.95637686309E+02  0.00000000000E+00 0.  1.
          1   -1    0    0  501    0  0.00000000000E+00 -0.00000000000E+00 -0.20179957641E+02  0.20179957641E+02  0.00000000000E+00 0. -1.
         23    2    1    2    0    0  0.00000000000E+00  0.00000000000E+00  0.75457728668E+02  0.11581764395E+03  0.87862721528E+02 0.  0.
        -13    1    3    3    0    0 -0.14057095206E+02  0.24166596983E+02 -0.69400056647E+01  0.28806075991E+02  0.00000000000E+00 0.  1.
         13    1    3    3    0    0  0.14057095206E+02 -0.24166596983E+02  0.82397734333E+02  0.87011567958E+02  0.00000000000E+00 0. -1.
<mgrwt>
<rscale>  0 0.87862722E+02</rscale>
<asrwt>0</asrwt>
<pdfrwt beam="2">  1        1 0.31046089E-02 0.87862722E+02</pdfrwt>
<pdfrwt beam="1">  1       -1 0.14713490E-01 0.87862722E+02</pdfrwt>
<totfact> 0.90226757E+04</totfact>
</mgrwt>
</event>
<event>
 5    1  0.6079230E+000  0.9179240E+02  0.7546771E-02  0.1298568E+00
          2   -1    0    0  501    0  0.00000000000E+00  0.00000000000E+00  0.44898393030E+03  0.44898393030E+03  0.00000000000E+00 0.  1.
         -2   -1    0    0    0  501 -0.00000000000E+00 -0.00000000000E+00 -0.46916177654E+01  0.46916177654E+01  0.00000000000E+00 0. -1.
         23    2    1    2    0    0  0.00000000000E+00  0.00000000000E+00  0.44429231254E+03  0.45367554807E+03  0.91792395846E+02 0.  0.
        -13    1    3    3    0    0 -0.44995601135E+02  0.88015373024E+01  0.23250142092E+03  0.23697886385E+03  0.00000000000E+00 0. -1.
         13    1    3    3    0    0  0.44995601135E+02 -0.88015373024E+01  0.21179089161E+03  0.21669668421E+03  0.00000000000E+00 0.  1.
<mgrwt>
<rscale>  0 0.91792396E+02</rscale>
<asrwt>0</asrwt>
<pdfrwt beam="1">  1        2 0.69074417E-01 0.91792396E+02</pdfrwt>
<pdfrwt beam="2">  1       -2 0.72178770E-03 0.91792396E+02</pdfrwt>
<totfact> 0.20420140E+05</totfact>
</mgrwt>
</event>
<event>
 5    1  0.6079230E+000  0.9103918E+02  0.7546771E-02  0.1300355E+00
         -2   -1    0    0    0  501 -0.00000000000E+00  0.00000000000E+00  0.54046426589E+02  0.54046426589E+02  0.00000000000E+00 0.  1.
          2   -1    0    0  501    0  0.00000000000E+00 -0.00000000000E+00 -0.38338022766E+02  0.38338022766E+02  0.00000000000E+00 0. -1.
         23    2    1    2    0    0  0.00000000000E+00  0.00000000000E+00  0.15708403823E+02  0.92384449355E+02  0.91039181301E+02 0.  0.
        -13    1    3    3    0    0  0.36166412841E+02 -0.27088485566E+02  0.22740675508E+01  0.45243417768E+02  0.00000000000E+00 0. -1.
         13    1    3    3    0    0 -0.36166412841E+02  0.27088485566E+02  0.13434336272E+02  0.47141031588E+02  0.00000000000E+00 0.  1.
<mgrwt>
<rscale>  0 0.91039181E+02</rscale>
<asrwt>0</asrwt>
<pdfrwt beam="2">  1        2 0.58981574E-02 0.91039181E+02</pdfrwt>
<pdfrwt beam="1">  1       -2 0.83148348E-02 0.91039181E+02</pdfrwt>
<totfact> 0.94761321E+04</totfact>
</mgrwt>
</event>
<event>
 5    1  0.6079230E+000  0.9074741E+02  0.7546771E-02  0.1301052E+00
         -2   -1    0    0    0  501 -0.00000000000E+00  0.00000000000E+00  0.93437422291E+02  0.93437422291E+02  0.00000000000E+00 0.  1.
          2   -1    0    0  501    0  0.00000000000E+00 -0.00000000000E+00 -0.22033710516E+02  0.22033710516E+02  0.00000000000E+00 0. -1.
         23    2    1    2    0    0  0.00000000000E+00  0.00000000000E+00  0.71403711775E+02  0.11547113281E+03  0.90747410192E+02 0.  0.
        -13    1    3    3    0    0 -0.31082538649E+02  0.32350964607E+02  0.44338002042E+02  0.63075887191E+02  0.00000000000E+00 0.  1.
         13    1    3    3    0    0  0.31082538649E+02 -0.32350964607E+02  0.27065709734E+02  0.52395245617E+02  0.00000000000E+00 0. -1.
<mgrwt>
<rscale>  0 0.90747410E+02</rscale>
<asrwt>0</asrwt>
<pdfrwt beam="2">  1        2 0.33898017E-02 0.90747410E+02</pdfrwt>
<pdfrwt beam="1">  1       -2 0.14374988E-01 0.90747410E+02</pdfrwt>
<totfact> 0.82376199E+04</totfact>
</mgrwt>
</event>
<event>
 5    1  0.6079230E+000  0.8296346E+02  0.7546771E-02  0.1320846E+00
         -3   -1    0    0    0  501 -0.00000000000E+00  0.00000000000E+00  0.61152856759E+02  0.61152856759E+02  0.00000000000E+00 0.  1.
          3   -1    0    0  501    0  0.00000000000E+00 -0.00000000000E+00 -0.28138240215E+02  0.28138240215E+02  0.00000000000E+00 0. -1.
         23    2    1    2    0    0  0.00000000000E+00  0.00000000000E+00  0.33014616544E+02  0.89291096974E+02  0.82963456372E+02 0.  0.
        -13    1    3    3    0    0 -0.30320957474E+02  0.27249913717E+02  0.24761361555E+02  0.47697413828E+02  0.00000000000E+00 0.  1.
         13    1    3    3    0    0  0.30320957474E+02 -0.27249913717E+02  0.82532549885E+01  0.41593683146E+02  0.00000000000E+00 0. -1.
<mgrwt>
<rscale>  0 0.82963456E+02</rscale>
<asrwt>0</asrwt>
<pdfrwt beam="2">  1        3 0.43289600E-02 0.82963456E+02</pdfrwt>
<pdfrwt beam="1">  1       -3 0.94081318E-02 0.82963456E+02</pdfrwt>
<totfact> 0.45815466E+04</totfact>
</mgrwt>
</event>
<event>
 5    1  0.6079230E+000  0.8658595E+02  0.7546771E-02  0.1311336E+00
         -1   -1    0    0    0  501 -0.00000000000E+00  0.00000000000E+00  0.19064018189E+02  0.19064018189E+02  0.00000000000E+00 0.  1.
          1   -1    0    0  501    0  0.00000000000E+00 -0.00000000000E+00 -0.98315139946E+02  0.98315139946E+02  0.00000000000E+00 0. -1.
         23    2    1    2    0    0  0.00000000000E+00  0.00000000000E+00 -0.79251121757E+02  0.11737915814E+03  0.86585948426E+02 0.  0.
        -13    1    3    3    0    0 -0.10227853613E+02 -0.31150532696E+02 -0.12987149951E+01  0.32812365618E+02  0.00000000000E+00 0.  1.
         13    1    3    3    0    0  0.10227853613E+02  0.31150532696E+02 -0.77952406762E+02  0.84566792518E+02  0.00000000000E+00 0. -1.
<mgrwt>
<rscale>  0 0.86585948E+02</rscale>
<asrwt>0</asrwt>
<pdfrwt beam="2">  1        1 0.15125406E-01 0.86585948E+02</pdfrwt>
<pdfrwt beam="1">  1       -1 0.29329259E-02 0.86585948E+02</pdfrwt>
<totfact> 0.11984891E+05</totfact>
</mgrwt>
</event>
<event>
 5    1  0.6079230E+000  0.8070166E+02  0.7546771E-02  0.1327072E+00
          1   -1    0    0  501    0  0.00000000000E+00  0.00000000000E+00  0.26009664241E+02  0.26009664241E+02  0.00000000000E+00 0. -1.
         -1   -1    0    0    0  501 -0.00000000000E+00 -0.00000000000E+00 -0.62599406213E+02  0.62599406213E+02  0.00000000000E+00 0.  1.
         23    2    1    2    0    0  0.00000000000E+00  0.00000000000E+00 -0.36589741972E+02  0.88609070453E+02  0.80701661377E+02 0.  0.
        -13    1    3    3    0    0  0.15277667896E+02 -0.34487217839E+02 -0.34031472346E+02  0.50802720800E+02  0.00000000000E+00 0.  1.
         13    1    3    3    0    0 -0.15277667896E+02  0.34487217839E+02 -0.25582696258E+01  0.37806349653E+02  0.00000000000E+00 0. -1.
<mgrwt>
<rscale>  0 0.80701661E+02</rscale>
<asrwt>0</asrwt>
<pdfrwt beam="1">  1        1 0.40014868E-02 0.80701661E+02</pdfrwt>
<pdfrwt beam="2">  1       -1 0.96306779E-02 0.80701661E+02</pdfrwt>
<totfact> 0.12004582E+05</totfact>
</mgrwt>
</event>
<event>
 5    1  0.6079230E+000  0.8143826E+02  0.7546771E-02  0.1325019E+00
         -1   -1    0    0    0  501 -0.00000000000E+00  0.00000000000E+00  0.17028918328E+03  0.17028918328E+03  0.00000000000E+00 0.  1.
          1   -1    0    0  501    0  0.00000000000E+00 -0.00000000000E+00 -0.97366588124E+01  0.97366588124E+01  0.00000000000E+00 0. -1.
         23    2    1    2    0    0  0.00000000000E+00  0.00000000000E+00  0.16055252446E+03  0.18002584209E+03  0.81438263169E+02 0.  0.
        -13    1    3    3    0    0 -0.40341429928E+02 -0.94488758419E+00  0.92328264743E+02  0.10076126365E+03  0.00000000000E+00 0.  1.
         13    1    3    3    0    0  0.40341429928E+02  0.94488758419E+00  0.68224259721E+02  0.79264578443E+02  0.00000000000E+00 0. -1.
<mgrwt>
<rscale>  0 0.81438263E+02</rscale>
<asrwt>0</asrwt>
<pdfrwt beam="2">  1        1 0.14979476E-02 0.81438263E+02</pdfrwt>
<pdfrwt beam="1">  1       -1 0.26198334E-01 0.81438263E+02</pdfrwt>
<totfact> 0.97152821E+04</totfact>
</mgrwt>
</event>
<event>
 5    1  0.6079230E+000  0.9005378E+02  0.7546771E-02  0.1302722E+00
         -3   -1    0    0    0  501 -0.00000000000E+00  0.00000000000E+00  0.70433269155E+01  0.70433269155E+01  0.00000000000E+00 0.  1.
          3   -1    0    0  501    0  0.00000000000E+00 -0.00000000000E+00 -0.28784990333E+03  0.28784990333E+03  0.00000000000E+00 0. -1.
         23    2    1    2    0    0  0.00000000000E+00  0.00000000000E+00 -0.28080657642E+03  0.29489323025E+03  0.90053783303E+02 0.  0.
        -13    1    3    3    0    0  0.31412147751E+02  0.29722685454E+02 -0.18146829112E+03  0.18654999796E+03  0.00000000000E+00 0.  1.
         13    1    3    3    0    0 -0.31412147751E+02 -0.29722685454E+02 -0.99338285300E+02  0.10834323229E+03  0.00000000000E+00 0. -1.
<mgrwt>
<rscale>  0 0.90053783E+02</rscale>
<asrwt>0</asrwt>
<pdfrwt beam="2">  1        3 0.44284601E-01 0.90053783E+02</pdfrwt>
<pdfrwt beam="1">  1       -3 0.10835888E-02 0.90053783E+02</pdfrwt>
<totfact> 0.25048362E+04</totfact>
</mgrwt>
</event>
<event>
 5    1  0.6079230E+000  0.8861738E+02  0.7546771E-02  0.1306235E+00
         -1   -1    0    0    0  501 -0.00000000000E+00  0.00000000000E+00  0.79109579322E+01  0.79109579322E+01  0.00000000000E+00 0.  1.
          1   -1    0    0  501    0  0.00000000000E+00 -0.00000000000E+00 -0.24816967609E+03  0.24816967609E+03  0.00000000000E+00 0. -1.
         23    2    1    2    0    0  0.00000000000E+00  0.00000000000E+00 -0.24025871816E+03  0.25608063403E+03  0.88617376798E+02 0.  0.
        -13    1    3    3    0    0 -0.28645548345E+00 -0.34203229256E+02 -0.38737455722E+02  0.51677204105E+02  0.00000000000E+00 0. -1.
         13    1    3    3    0    0  0.28645548345E+00  0.34203229256E+02 -0.20152126244E+03  0.20440342992E+03  0.00000000000E+00 0.  1.
<mgrwt>
<rscale>  0 0.88617377E+02</rscale>
<asrwt>0</asrwt>
<pdfrwt beam="2">  1        1 0.38179956E-01 0.88617377E+02</pdfrwt>
<pdfrwt beam="1">  1       -1 0.12170703E-02 0.88617377E+02</pdfrwt>
<totfact> 0.13323302E+05</totfact>
</mgrwt>
</event>
<event>
 5    1  0.6079230E+000  0.1007986E+03  0.7546771E-02  0.1278626E+00
          1   -1    0    0  501    0  0.00000000000E+00  0.00000000000E+00  0.24712653823E+03  0.24712653823E+03  0.00000000000E+00 0. -1.
         -1   -1    0    0    0  501 -0.00000000000E+00 -0.00000000000E+00 -0.10278495403E+02  0.10278495403E+02  0.00000000000E+00 0.  1.
         23    2    1    2    0    0  0.00000000000E+00  0.00000000000E+00  0.23684804283E+03  0.25740503363E+03  0.10079859100E+03 0.  0.
        -13    1    3    3    0    0  0.43569152733E+02  0.11868338502E+02  0.61267696314E+02  0.76110834579E+02  0.00000000000E+00 0.  1.
         13    1    3    3    0    0 -0.43569152733E+02 -0.11868338502E+02  0.17558034651E+03  0.18129419905E+03  0.00000000000E+00 0. -1.
<mgrwt>
<rscale>  0 0.10079859E+03</rscale>
<asrwt>0</asrwt>
<pdfrwt beam="1">  1        1 0.38019463E-01 0.10079859E+03</pdfrwt>
<pdfrwt beam="2">  1       -1 0.15813072E-02 0.10079859E+03</pdfrwt>
<totfact> 0.94228066E+04</totfact>
</mgrwt>
</event>
<event>
 5    1  0.6079230E+000  0.9178139E+02  0.7546771E-02  0.1298594E+00
          2   -1    0    0  501    0  0.00000000000E+00  0.00000000000E+00  0.46823447863E+02  0.46823447863E+02  0.00000000000E+00 0. -1.
         -2   -1    0    0    0  501 -0.00000000000E+00 -0.00000000000E+00 -0.44976527313E+02  0.44976527313E+02  0.00000000000E+00 0.  1.
         23    2    1    2    0    0  0.00000000000E+00  0.00000000000E+00  0.18469205498E+01  0.91799975176E+02  0.91781394230E+02 0.  0.
        -13    1    3    3    0    0  0.21586503624E+02  0.40145939888E+02 -0.43957413685E+01  0.45792970753E+02  0.00000000000E+00 0.  1.
         13    1    3    3    0    0 -0.21586503624E+02 -0.40145939888E+02  0.62426619183E+01  0.46007004423E+02  0.00000000000E+00 0. -1.
<mgrwt>
<rscale>  0 0.91781394E+02</rscale>
<asrwt>0</asrwt>
<pdfrwt beam="1">  1        2 0.72036073E-02 0.91781394E+02</pdfrwt>
<pdfrwt beam="2">  1       -2 0.69194658E-02 0.91781394E+02</pdfrwt>
<totfact> 0.97495825E+04</totfact>
</mgrwt>
</event>
<event>
 5    1  0.6079230E+000  0.9014129E+02  0.7546771E-02  0.1302510E+00
         -4   -1    0    0    0  501 -0.00000000000E+00  0.00000000000E+00  0.13612520076E+03  0.13612520076E+03  0.00000000000E+00 0. -1.
          4   -1    0    0  501    0  0.00000000000E+00 -0.00000000000E+00 -0.14922755050E+02  0.14922755050E+02  0.00000000000E+00 0.  1.
         23    2    1    2    0    0  0.00000000000E+00  0.00000000000E+00  0.12120244571E+03  0.15104795581E+03  0.90141289697E+02 0.  0.
        -13    1    3    3    0    0 -0.15620556133E+01 -0.36035282292E+02  0.10588743001E+03  0.11186210003E+03  0.00000000000E+00 0. -1.
         13    1    3    3    0    0  0.15620556133E+01  0.36035282292E+02  0.15315015694E+02  0.39185855781E+02  0.00000000000E+00 0.  1.
<mgrwt>
<rscale>  0 0.90141290E+02</rscale>
<asrwt>0</asrwt>
<pdfrwt beam="2">  1        4 0.22958086E-02 0.90141290E+02</pdfrwt>
<pdfrwt beam="1">  1       -4 0.20942338E-01 0.90141290E+02</pdfrwt>
<totfact> 0.24356127E+04</totfact>
</mgrwt>
</event>
<event>
 5    1  0.6079230E+000  0.8592863E+02  0.7546771E-02  0.1313022E+00
         -1   -1    0    0    0  501 -0.00000000000E+00  0.00000000000E+00  0.36846069267E+02  0.36846069267E+02  0.00000000000E+00 0.  1.
          1   -1    0    0  501    0  0.00000000000E+00 -0.00000000000E+00 -0.50098486518E+02  0.50098486518E+02  0.00000000000E+00 0. -1.
         23    2    1    2    0    0  0.00000000000E+00  0.00000000000E+00 -0.13252417251E+02  0.86944555785E+02  0.85928628626E+02 0.  0.
        -13    1    3    3    0    0 -0.24177354605E+02  0.30371190232E+02  0.12002839896E+02  0.40632768026E+02  0.00000000000E+00 0.  1.
         13    1    3    3    0    0  0.24177354605E+02 -0.30371190232E+02 -0.25255257148E+02  0.46311787759E+02  0.00000000000E+00 0. -1.
<mgrwt>
<rscale>  0 0.85928629E+02</rscale>
<asrwt>0</asrwt>
<pdfrwt beam="2">  1        1 0.77074594E-02 0.85928629E+02</pdfrwt>
<pdfrwt beam="1">  1       -1 0.56686261E-02 0.85928629E+02</pdfrwt>
<totfact> 0.11059235E+05</totfact>
</mgrwt>
</event>
<event>
 5    1  0.6079230E+000  0.9302261E+02  0.7546771E-02  0.1295693E+00
         -1   -1    0    0    0  501 -0.00000000000E+00  0.00000000000E+00  0.11023313000E+02  0.11023313000E+02  0.00000000000E+00 0. -1.
          1   -1    0    0  501    0  0.00000000000E+00 -0.00000000000E+00 -0.19624785280E+03  0.19624785280E+03  0.00000000000E+00 0.  1.
         23    2    1    2    0    0  0.00000000000E+00  0.00000000000E+00 -0.18522453980E+03  0.20727116580E+03  0.93022610304E+02 0.  0.
        -13    1    3    3    0    0  0.16488304009E+02 -0.30721625694E+02 -0.16120328972E+03  0.16493084329E+03  0.00000000000E+00 0.  1.
         13    1    3    3    0    0 -0.16488304009E+02  0.30721625694E+02 -0.24021250087E+02  0.42340322508E+02  0.00000000000E+00 0. -1.
<mgrwt>
<rscale>  0 0.93022610E+02</rscale>
<asrwt>0</asrwt>
<pdfrwt beam="2">  1        1 0.30191974E-01 0.93022610E+02</pdfrwt>
<pdfrwt beam="1">  1       -1 0.16958945E-02 0.93022610E+02</pdfrwt>
<totfact> 0.11178559E+05</totfact>
</mgrwt>
</event>
<event>
 5    1  0.6079230E+000  0.9480680E+02  0.7546771E-02  0.1291612E+00
          1   -1    0    0  501    0  0.00000000000E+00  0.00000000000E+00  0.88197312550E+01  0.88197312550E+01  0.00000000000E+00 0. -1.
         -1   -1    0    0    0  501 -0.00000000000E+00 -0.00000000000E+00 -0.25477901809E+03  0.25477901809E+03  0.00000000000E+00 0.  1.
         23    2    1    2    0    0  0.00000000000E+00  0.00000000000E+00 -0.24595928684E+03  0.26359874935E+03  0.94806802899E+02 0.  0.
        -13    1    3    3    0    0 -0.18209766343E+02  0.38264778362E+02 -0.18204508278E+03  0.18691228161E+03  0.00000000000E+00 0.  1.
         13    1    3    3    0    0  0.18209766343E+02 -0.38264778362E+02 -0.63914204059E+02  0.76686467736E+02  0.00000000000E+00 0. -1.
<mgrwt>
<rscale>  0 0.94806803E+02</rscale>
<asrwt>0</asrwt>
<pdfrwt beam="1">  1        1 0.13568819E-02 0.94806803E+02</pdfrwt>
<pdfrwt beam="2">  1       -1 0.39196768E-01 0.94806803E+02</pdfrwt>
<totfact> 0.58098945E+04</totfact>
</mgrwt>
</event>
<event>
 5    1  0.6079230E+000  0.9287783E+02  0.7546771E-02  0.1296029E+00
         -3   -1    0    0    0  501 -0.00000000000E+00  0.00000000000E+00  0.17634096694E+03  0.17634096694E+03  0.00000000000E+00 0.  1.
          3   -1    0    0  501    0  0.00000000000E+00 -0.00000000000E+00 -0.12229561378E+02  0.12229561378E+02  0.00000000000E+00 0. -1.
         23    2    1    2    0    0  0.00000000000E+00  0.00000000000E+00  0.16411140556E+03  0.18857052832E+03  0.92877826820E+02 0.  0.
        -13    1    3    3    0    0  0.37135087645E+02 -0.24491714997E+02  0.54989807367E+02  0.70730034300E+02  0.00000000000E+00 0. -1.
         13    1    3    3    0    0 -0.37135087645E+02  0.24491714997E+02  0.10912159819E+03  0.11784049402E+03  0.00000000000E+00 0.  1.
<mgrwt>
<rscale>  0 0.92877827E+02</rscale>
<asrwt>0</asrwt>
<pdfrwt beam="2">  1        3 0.18814711E-02 0.92877827E+02</pdfrwt>
<pdfrwt beam="1">  1       -3 0.27129378E-01 0.92877827E+02</pdfrwt>
<totfact> 0.27679767E+04</totfact>
</mgrwt>
</event>
<event>
 5    1  0.6079230E+000  0.9147242E+02  0.7546771E-02  0.1299325E+00
          2   -1    0    0  501    0  0.00000000000E+00  0.00000000000E+00  0.16872767709E+03  0.16872767709E+03  0.00000000000E+00 0. -1.
         -2   -1    0    0    0  501 -0.00000000000E+00 -0.00000000000E+00 -0.12397497359E+02  0.12397497359E+02  0.00000000000E+00 0.  1.
         23    2    1    2    0    0  0.00000000000E+00  0.00000000000E+00  0.15633017973E+03  0.18112517445E+03  0.91472420567E+02 0.  0.
        -13    1    3    3    0    0  0.39045169404E+02  0.23592402107E+01  0.12509444565E+03  0.13106758410E+03  0.00000000000E+00 0. -1.
         13    1    3    3    0    0 -0.39045169404E+02 -0.23592402107E+01  0.31235734073E+02  0.50057590346E+02  0.00000000000E+00 0.  1.
<mgrwt>
<rscale>  0 0.91472421E+02</rscale>
<asrwt>0</asrwt>
<pdfrwt beam="1">  1        2 0.25958102E-01 0.91472421E+02</pdfrwt>
<pdfrwt beam="2">  1       -2 0.19073074E-02 0.91472421E+02</pdfrwt>
<totfact> 0.14432563E+05</totfact>
</mgrwt>
</event>
<event>
 5    1  0.6079230E+000  0.9158274E+02  0.7546771E-02  0.1299064E+00
          2   -1    0    0  501    0  0.00000000000E+00  0.00000000000E+00  0.31281280632E+03  0.31281280632E+03  0.00000000000E+00 0. -1.
         -2   -1    0    0    0  501 -0.00000000000E+00 -0.00000000000E+00 -0.67032084547E+01  0.67032084547E+01  0.00000000000E+00 0.  1.
         23    2    1    2    0    0  0.00000000000E+00  0.00000000000E+00  0.30610959787E+03  0.31951601478E+03  0.91582737415E+02 0.  0.
        -13    1    3    3    0    0 -0.36178502287E+02  0.21594853855E+02  0.21562329812E+03  0.21970122537E+03  0.00000000000E+00 0. -1.
         13    1    3    3    0    0  0.36178502287E+02 -0.21594853855E+02  0.90486299754E+02  0.99814789405E+02  0.00000000000E+00 0.  1.
<mgrwt>
<rscale>  0 0.91582737E+02</rscale>
<asrwt>0</asrwt>
<pdfrwt beam="1">  1        2 0.48125036E-01 0.91582737E+02</pdfrwt>
<pdfrwt beam="2">  1       -2 0.10312631E-02 0.91582737E+02</pdfrwt>
<totfact> 0.18032599E+05</totfact>
</mgrwt>
</event>
<event>
 5    1  0.6079230E+000  0.9041993E+02  0.7546771E-02  0.1301838E+00
          4   -1    0    0  501    0  0.00000000000E+00  0.00000000000E+00  0.17325419748E+02  0.17325419748E+02  0.00000000000E+00 0. -1.
         -4   -1    0    0    0  501 -0.00000000000E+00 -0.00000000000E+00 -0.11797352751E+03  0.11797352751E+03  0.00000000000E+00 0.  1.
         23    2    1    2    0    0  0.00000000000E+00  0.00000000000E+00 -0.10064810776E+03  0.13529894726E+03  0.90419928847E+02 0.  0.
        -13    1    3    3    0    0 -0.93056956190E+01  0.37379045336E+02 -0.85738720364E+02  0.93994240094E+02  0.00000000000E+00 0.  1.
         13    1    3    3    0    0  0.93056956190E+01 -0.37379045336E+02 -0.14909387397E+02  0.41304707162E+02  0.00000000000E+00 0. -1.
<mgrwt>
<rscale>  0 0.90419929E+02</rscale>
<asrwt>0</asrwt>
<pdfrwt beam="1">  1        4 0.26654493E-02 0.90419929E+02</pdfrwt>
<pdfrwt beam="2">  1       -4 0.18149773E-01 0.90419929E+02</pdfrwt>
<totfact> 0.24987132E+04</totfact>
</mgrwt>
</event>
<event>
 5    1  0.6079230E+000  0.9276948E+02  0.7546771E-02  0.1296280E+00
          1   -1    0    0  501    0  0.00000000000E+00  0.00000000000E+00  0.15515608973E+02  0.15515608973E+02  0.00000000000E+00 0. -1.
         -1   -1    0    0    0  501 -0.00000000000E+00 -0.00000000000E+00 -0.13866964410E+03  0.13866964410E+03  0.00000000000E+00 0.  1.
         23    2    1    2    0    0  0.00000000000E+00  0.00000000000E+00 -0.12315403512E+03  0.15418525307E+03  0.92769477185E+02 0.  0.
        -13    1    3    3    0    0 -0.33260582918E+02 -0.19953056005E+02 -0.19296405556E+02  0.43321381411E+02  0.00000000000E+00 0. -1.
         13    1    3    3    0    0  0.33260582918E+02  0.19953056005E+02 -0.10385762957E+03  0.11086387166E+03  0.00000000000E+00 0.  1.
<mgrwt>
<rscale>  0 0.92769477E+02</rscale>
<asrwt>0</asrwt>
<pdfrwt beam="1">  1        1 0.23870168E-02 0.92769477E+02</pdfrwt>
<pdfrwt beam="2">  1       -1 0.21333791E-01 0.92769477E+02</pdfrwt>
<totfact> 0.72795878E+04</totfact>
</mgrwt>
</event>
<event>
 5    1  0.6079230E+000  0.9167690E+02  0.7546771E-02  0.1298841E+00
          3   -1    0    0  501    0  0.00000000000E+00  0.00000000000E+00  0.13088225683E+03  0.13088225683E+03  0.00000000000E+00 0. -1.
         -3   -1    0    0    0  501 -0.00000000000E+00 -0.00000000000E+00 -0.16053845941E+02  0.16053845941E+02  0.00000000000E+00 0.  1.
         23    2    1    2    0    0  0.00000000000E+00  0.00000000000E+00  0.11482841089E+03  0.14693610277E+03  0.91676901945E+02 0.  0.
        -13    1    3    3    0    0  0.39351979241E+02 -0.23271205792E+02  0.62738723503E+02  0.77629084214E+02  0.00000000000E+00 0. -1.
         13    1    3    3    0    0 -0.39351979241E+02  0.23271205792E+02  0.52089687386E+02  0.69307018557E+02  0.00000000000E+00 0.  1.
<mgrwt>
<rscale>  0 0.91676902E+02</rscale>
<asrwt>0</asrwt>
<pdfrwt beam="1">  1        3 0.20135731E-01 0.91676902E+02</pdfrwt>
<pdfrwt beam="2">  1       -3 0.24698225E-02 0.91676902E+02</pdfrwt>
<totfact> 0.31031429E+04</totfact>
</mgrwt>
</event>
<event>
 5    1  0.6079230E+000  0.8399769E+02  0.7546771E-02  0.1318075E+00
         -1   -1    0    0    0  501 -0.00000000000E+00  0.00000000000E+00  0.18927562034E+02  0.18927562034E+02  0.00000000000E+00 0.  1.
          1   -1    0    0  501    0  0.00000000000E+00 -0.00000000000E+00 -0.93192292720E+02  0.93192292720E+02  0.00000000000E+00 0. -1.
         23    2    1    2    0    0  0.00000000000E+00  0.00000000000E+00 -0.74264730687E+02  0.11211985475E+03  0.83997688100E+02 0.  0.
        -13    1    3    3    0    0 -0.11307165266E+02 -0.40290666402E+02 -0.32373085962E+02  0.52907527632E+02  0.00000000000E+00 0. -1.
         13    1    3    3    0    0  0.11307165266E+02  0.40290666402E+02 -0.41891644725E+02  0.59212327122E+02  0.00000000000E+00 0.  1.
<mgrwt>
<rscale>  0 0.83997688E+02</rscale>
<asrwt>0</asrwt>
<pdfrwt beam="2">  1        1 0.14337276E-01 0.83997688E+02</pdfrwt>
<pdfrwt beam="1">  1       -1 0.29119326E-02 0.83997688E+02</pdfrwt>
<totfact> 0.12899518E+05</totfact>
</mgrwt>
</event>
<event>
 5    1  0.6079230E+000  0.9199009E+02  0.7546771E-02  0.1298103E+00
          1   -1    0    0  501    0  0.00000000000E+00  0.00000000000E+00  0.15951753075E+02  0.15951753075E+02  0.00000000000E+00 0. -1.
         -1   -1    0    0    0  501 -0.00000000000E+00 -0.00000000000E+00 -0.13262142394E+03  0.13262142394E+03  0.00000000000E+00 0.  1.
         23    2    1    2    0    0  0.00000000000E+00  0.00000000000E+00 -0.11666967086E+03  0.14857317701E+03  0.91990090927E+02 0.  0.
        -13    1    3    3    0    0 -0.18284485061E+02  0.41877205068E+02 -0.66807801805E+02  0.80940132692E+02  0.00000000000E+00 0. -1.
         13    1    3    3    0    0  0.18284485061E+02 -0.41877205068E+02 -0.49861869059E+02  0.67633044322E+02  0.00000000000E+00 0.  1.
<mgrwt>
<rscale>  0 0.91990091E+02</rscale>
<asrwt>0</asrwt>
<pdfrwt beam="1">  1        1 0.24541158E-02 0.91990091E+02</pdfrwt>
<pdfrwt beam="2">  1       -1 0.20403296E-01 0.91990091E+02</pdfrwt>
<totfact> 0.75142578E+04</totfact>
</mgrwt>
</event>
<event>
 5    1  0.6079230E+000  0.9130699E+02  0.7546771E-02  0.1299717E+00
         -1   -1    0    0    0  501 -0.00000000000E+00  0.00000000000E+00  0.90300313361E+01  0.90300313361E+01  0.00000000000E+00 0. -1.
          1   -1    0    0  501    0  0.00000000000E+00 -0.00000000000E+00 -0.23081224469E+03  0.23081224469E+03  0.00000000000E+00 0.  1.
         23    2    1    2    0    0  0.00000000000E+00  0.00000000000E+00 -0.22178221336E+03  0.23984227603E+03  0.91306994307E+02 0.  0.
        -13    1    3    3    0    0  0.31332993899E+02  0.16977204039E+02 -0.35935659826E+02  0.50609817336E+02  0.00000000000E+00 0. -1.
         13    1    3    3    0    0 -0.31332993899E+02 -0.16977204039E+02 -0.18584655353E+03  0.18923245869E+03  0.00000000000E+00 0.  1.
<mgrwt>
<rscale>  0 0.91306994E+02</rscale>
<asrwt>0</asrwt>
<pdfrwt beam="2">  1        1 0.35509574E-01 0.91306994E+02</pdfrwt>
<pdfrwt beam="1">  1       -1 0.13892357E-02 0.91306994E+02</pdfrwt>
<totfact> 0.12129462E+05</totfact>
</mgrwt>
</event>
<event>
 5    1  0.6079230E+000  0.9896116E+02  0.7546771E-02  0.1282496E+00
          1   -1    0    0  501    0  0.00000000000E+00  0.00000000000E+00  0.10400605574E+03  0.10400605574E+03  0.00000000000E+00 0. -1.
         -1   -1    0    0    0  501 -0.00000000000E+00 -0.00000000000E+00 -0.23540244537E+02  0.23540244537E+02  0.00000000000E+00 0.  1.
         23    2    1    2    0    0  0.00000000000E+00  0.00000000000E+00  0.80465811208E+02  0.12754630028E+03  0.98961163807E+02 0.  0.
        -13    1    3    3    0    0  0.18123436629E+01 -0.38715068549E+02  0.58762203325E+00  0.38761919740E+02  0.00000000000E+00 0.  1.
         13    1    3    3    0    0 -0.18123436629E+01  0.38715068549E+02  0.79878189174E+02  0.88784380541E+02  0.00000000000E+00 0. -1.
<mgrwt>
<rscale>  0 0.98961164E+02</rscale>
<asrwt>0</asrwt>
<pdfrwt beam="1">  1        1 0.16000931E-01 0.98961164E+02</pdfrwt>
<pdfrwt beam="2">  1       -1 0.36215762E-02 0.98961164E+02</pdfrwt>
<totfact> 0.84003503E+04</totfact>
</mgrwt>
</event>
<event>
 5    1  0.6079230E+000  0.9415870E+02  0.7546771E-02  0.1293082E+00
         -1   -1    0    0    0  501 -0.00000000000E+00  0.00000000000E+00  0.59388352300E+02  0.59388352300E+02  0.00000000000E+00 0.  1.
          1   -1    0    0  501    0  0.00000000000E+00 -0.00000000000E+00 -0.37321548084E+02  0.37321548084E+02  0.00000000000E+00 0. -1.
         23    2    1    2    0    0  0.00000000000E+00  0.00000000000E+00  0.22066804217E+02  0.96709900384E+02  0.94158701053E+02 0.  0.
        -13    1    3    3    0    0  0.45758008084E+01  0.12008260228E+02  0.57552162674E+02  0.58969379302E+02  0.00000000000E+00 0.  1.
         13    1    3    3    0    0 -0.45758008084E+01 -0.12008260228E+02 -0.35485358457E+02  0.37740521083E+02  0.00000000000E+00 0. -1.
<mgrwt>
<rscale>  0 0.94158701E+02</rscale>
<asrwt>0</asrwt>
<pdfrwt beam="2">  1        1 0.57417766E-02 0.94158701E+02</pdfrwt>
<pdfrwt beam="1">  1       -1 0.91366696E-02 0.94158701E+02</pdfrwt>
<totfact> 0.81858649E+04</totfact>
</mgrwt>
</event>
<event>
 5    1  0.6079230E+000  0.9072658E+02  0.7546771E-02  0.1301102E+00
          3   -1    0    0  501    0  0.00000000000E+00  0.00000000000E+00  0.87931453782E+02  0.87931453782E+02  0.00000000000E+00 0. -1.
         -3   -1    0    0    0  501 -0.00000000000E+00 -0.00000000000E+00 -0.23402638068E+02  0.23402638068E+02  0.00000000000E+00 0.  1.
         23    2    1    2    0    0  0.00000000000E+00  0.00000000000E+00  0.64528815713E+02  0.11133409185E+03  0.90726577973E+02 0.  0.
        -13    1    3    3    0    0 -0.17305443384E+02  0.23171387796E+02 -0.10622928152E+02  0.30809709275E+02  0.00000000000E+00 0.  1.
         13    1    3    3    0    0  0.17305443384E+02 -0.23171387796E+02  0.75151743865E+02  0.80524382575E+02  0.00000000000E+00 0. -1.
<mgrwt>
<rscale>  0 0.90726578E+02</rscale>
<asrwt>0</asrwt>
<pdfrwt beam="1">  1        3 0.13527916E-01 0.90726578E+02</pdfrwt>
<pdfrwt beam="2">  1       -3 0.36004059E-02 0.90726578E+02</pdfrwt>
<totfact> 0.34307919E+04</totfact>
</mgrwt>
</event>
<event>
 5    1  0.6079230E+000  0.9210439E+02  0.7546771E-02  0.1297834E+00
          1   -1    0    0  501    0  0.00000000000E+00  0.00000000000E+00  0.52249776879E+02  0.52249776879E+02  0.00000000000E+00 0. -1.
         -1   -1    0    0    0  501 -0.00000000000E+00 -0.00000000000E+00 -0.40589736794E+02  0.40589736794E+02  0.00000000000E+00 0.  1.
         23    2    1    2    0    0  0.00000000000E+00  0.00000000000E+00  0.11660040085E+02  0.92839513674E+02  0.92104390581E+02 0.  0.
        -13    1    3    3    0    0 -0.23772637762E+02 -0.33846217029E+02 -0.14582536291E+02  0.43856072306E+02  0.00000000000E+00 0.  1.
         13    1    3    3    0    0  0.23772637762E+02  0.33846217029E+02  0.26242576376E+02  0.48983441368E+02  0.00000000000E+00 0. -1.
<mgrwt>
<rscale>  0 0.92104391E+02</rscale>
<asrwt>0</asrwt>
<pdfrwt beam="1">  1        1 0.80384272E-02 0.92104391E+02</pdfrwt>
<pdfrwt beam="2">  1       -1 0.62445749E-02 0.92104391E+02</pdfrwt>
<totfact> 0.91752851E+04</totfact>
</mgrwt>
</event>
<event>
 5    1  0.6079230E+000  0.9062144E+02  0.7546771E-02  0.1301354E+00
         -1   -1    0    0    0  501 -0.00000000000E+00  0.00000000000E+00  0.47640288626E+02  0.47640288626E+02  0.00000000000E+00 0.  1.
          1   -1    0    0  501    0  0.00000000000E+00 -0.00000000000E+00 -0.43095069689E+02  0.43095069689E+02  0.00000000000E+00 0. -1.
         23    2    1    2    0    0  0.00000000000E+00  0.00000000000E+00  0.45452189377E+01  0.90735358315E+02  0.90621444666E+02 0.  0.
        -13    1    3    3    0    0 -0.28824433140E+02  0.77495577746E+01  0.36405900143E+02  0.47077522840E+02  0.00000000000E+00 0.  1.
         13    1    3    3    0    0  0.28824433140E+02 -0.77495577746E+01 -0.31860681205E+02  0.43657835475E+02  0.00000000000E+00 0. -1.
<mgrwt>
<rscale>  0 0.90621445E+02</rscale>
<asrwt>0</asrwt>
<pdfrwt beam="2">  1        1 0.66300108E-02 0.90621445E+02</pdfrwt>
<pdfrwt beam="1">  1       -1 0.73292751E-02 0.90621445E+02</pdfrwt>
<totfact> 0.93281122E+04</totfact>
</mgrwt>
</event>
<event>
 5    1  0.6079230E+000  0.9174387E+02  0.7546771E-02  0.1298683E+00
          2   -1    0    0  501    0  0.00000000000E+00  0.00000000000E+00  0.10836270472E+03  0.10836270472E+03  0.00000000000E+00 0. -1.
         -2   -1    0    0    0  501 -0.00000000000E+00 -0.00000000000E+00 -0.19418436597E+02  0.19418436597E+02  0.00000000000E+00 0.  1.
         23    2    1    2    0    0  0.00000000000E+00  0.00000000000E+00  0.88944268122E+02  0.12778114132E+03  0.91743867611E+02 0.  0.
        -13    1    3    3    0    0  0.40088657601E+02  0.21911198883E+02  0.50220414154E+02  0.67891760196E+02  0.00000000000E+00 0.  1.
         13    1    3    3    0    0 -0.40088657601E+02 -0.21911198883E+02  0.38723853968E+02  0.59889381120E+02  0.00000000000E+00 0. -1.
<mgrwt>
<rscale>  0 0.91743868E+02</rscale>
<asrwt>0</asrwt>
<pdfrwt beam="1">  1        2 0.16671185E-01 0.91743868E+02</pdfrwt>
<pdfrwt beam="2">  1       -2 0.29874519E-02 0.91743868E+02</pdfrwt>
<totfact> 0.12362381E+05</totfact>
</mgrwt>
</event>
<event>
 5    1  0.6079230E+000  0.9130680E+02  0.7546771E-02  0.1299718E+00
          1   -1    0    0  501    0  0.00000000000E+00  0.00000000000E+00  0.28997105139E+02  0.28997105139E+02  0.00000000000E+00 0. -1.
         -1   -1    0    0    0  501 -0.00000000000E+00 -0.00000000000E+00 -0.71877283321E+02  0.71877283321E+02  0.00000000000E+00 0.  1.
         23    2    1    2    0    0  0.00000000000E+00  0.00000000000E+00 -0.42880178182E+02  0.10087438846E+03  0.91306804600E+02 0.  0.
        -13    1    3    3    0    0 -0.20157535915E+02  0.22167367035E+02  0.16615139664E+02  0.34260491553E+02  0.00000000000E+00 0. -1.
         13    1    3    3    0    0  0.20157535915E+02 -0.22167367035E+02 -0.59495317846E+02  0.66613896906E+02  0.00000000000E+00 0.  1.
<mgrwt>
<rscale>  0 0.91306805E+02</rscale>
<asrwt>0</asrwt>
<pdfrwt beam="1">  1        1 0.44610931E-02 0.91306805E+02</pdfrwt>
<pdfrwt beam="2">  1       -1 0.11058044E-01 0.91306805E+02</pdfrwt>
<totfact> 0.85855221E+04</totfact>
</mgrwt>
</event>
<event>
 5    1  0.6079230E+000  0.8823831E+02  0.7546771E-02  0.1307175E+00
          1   -1    0    0  501    0  0.00000000000E+00  0.00000000000E+00  0.11835453129E+02  0.11835453129E+02  0.00000000000E+00 0. -1.
         -1   -1    0    0    0  501 -0.00000000000E+00 -0.00000000000E+00 -0.16446349800E+03  0.16446349800E+03  0.00000000000E+00 0.  1.
         23    2    1    2    0    0  0.00000000000E+00  0.00000000000E+00 -0.15262804487E+03  0.17629895113E+03  0.88238314174E+02 0.  0.
        -13    1    3    3    0    0 -0.27110365374E+02  0.30783589798E+02 -0.10877123057E+03  0.11624879316E+03  0.00000000000E+00 0. -1.
         13    1    3    3    0    0  0.27110365374E+02 -0.30783589798E+02 -0.43856814301E+02  0.60050157969E+02  0.00000000000E+00 0.  1.
<mgrwt>
<rscale>  0 0.88238314E+02</rscale>
<asrwt>0</asrwt>
<pdfrwt beam="1">  1        1 0.18208391E-02 0.88238314E+02</pdfrwt>
<pdfrwt beam="2">  1       -1 0.25302075E-01 0.88238314E+02</pdfrwt>
<totfact> 0.79634253E+04</totfact>
</mgrwt>
</event>
<event>
 5    1  0.6079230E+000  0.9098790E+02  0.7546771E-02  0.1300477E+00
         -2   -1    0    0    0  501 -0.00000000000E+00  0.00000000000E+00  0.51581663966E+02  0.51581663966E+02  0.00000000000E+00 0.  1.
          2   -1    0    0  501    0  0.00000000000E+00 -0.00000000000E+00 -0.40124710176E+02  0.40124710176E+02  0.00000000000E+00 0. -1.
         23    2    1    2    0    0  0.00000000000E+00  0.00000000000E+00  0.11456953790E+02  0.91706374142E+02  0.90987896272E+02 0.  0.
        -13    1    3    3    0    0  0.42551555384E+01  0.45051838810E+02  0.10091115167E+01  0.45263592819E+02  0.00000000000E+00 0. -1.
         13    1    3    3    0    0 -0.42551555384E+01 -0.45051838810E+02  0.10447842273E+02  0.46442781323E+02  0.00000000000E+00 0.  1.
<mgrwt>
<rscale>  0 0.90987896E+02</rscale>
<asrwt>0</asrwt>
<pdfrwt beam="2">  1        2 0.61730324E-02 0.90987896E+02</pdfrwt>
<pdfrwt beam="1">  1       -2 0.79356406E-02 0.90987896E+02</pdfrwt>
<totfact> 0.96040738E+04</totfact>
</mgrwt>
</event>
<event>
 5    1  0.6079230E+000  0.8927338E+02  0.7546771E-02  0.1304621E+00
         -1   -1    0    0    0  501 -0.00000000000E+00  0.00000000000E+00  0.60198840732E+01  0.60198840732E+01  0.00000000000E+00 0.  1.
          1   -1    0    0  501    0  0.00000000000E+00 -0.00000000000E+00 -0.33097548658E+03  0.33097548658E+03  0.00000000000E+00 0. -1.
         23    2    1    2    0    0  0.00000000000E+00  0.00000000000E+00 -0.32495560251E+03  0.33699537066E+03  0.89273379241E+02 0.  0.
        -13    1    3    3    0    0 -0.32079082500E+02 -0.28325581652E+02 -0.21037968508E+03  0.21468818785E+03  0.00000000000E+00 0.  1.
         13    1    3    3    0    0  0.32079082500E+02  0.28325581652E+02 -0.11457591743E+03  0.12230718280E+03  0.00000000000E+00 0. -1.
<mgrwt>
<rscale>  0 0.89273379E+02</rscale>
<asrwt>0</asrwt>
<pdfrwt beam="2">  1        1 0.50919308E-01 0.89273379E+02</pdfrwt>
<pdfrwt beam="1">  1       -1 0.92613597E-03 0.89273379E+02</pdfrwt>
<totfact> 0.13802786E+05</totfact>
</mgrwt>
</event>
<event>
 5    1  0.6079230E+000  0.9179563E+02  0.7546771E-02  0.1298561E+00
          3   -1    0    0  501    0  0.00000000000E+00  0.00000000000E+00  0.55766290594E+01  0.55766290594E+01  0.00000000000E+00 0. -1.
         -3   -1    0    0    0  501 -0.00000000000E+00 -0.00000000000E+00 -0.37775681707E+03  0.37775681707E+03  0.00000000000E+00 0.  1.
         23    2    1    2    0    0  0.00000000000E+00  0.00000000000E+00 -0.37218018801E+03  0.38333344613E+03  0.91795634830E+02 0.  0.
        -13    1    3    3    0    0  0.31860042930E+02 -0.30039530287E+02 -0.24352624449E+03  0.24743174305E+03  0.00000000000E+00 0.  1.
         13    1    3    3    0    0 -0.31860042930E+02  0.30039530287E+02 -0.12865394352E+03  0.13590170308E+03  0.00000000000E+00 0. -1.
<mgrwt>
<rscale>  0 0.91795635E+02</rscale>
<asrwt>0</asrwt>
<pdfrwt beam="1">  1        3 0.85794303E-03 0.91795635E+02</pdfrwt>
<pdfrwt beam="2">  1       -3 0.58116427E-01 0.91795635E+02</pdfrwt>
<totfact> 0.20735005E+04</totfact>
</mgrwt>
</event>
<event>
 5    1  0.6079230E+000  0.1039426E+03  0.7546771E-02  0.1272217E+00
         -2   -1    0    0    0  501 -0.00000000000E+00  0.00000000000E+00  0.10186557776E+03  0.10186557776E+03  0.00000000000E+00 0.  1.
          2   -1    0    0  501    0  0.00000000000E+00 -0.00000000000E+00 -0.26515491418E+02  0.26515491418E+02  0.00000000000E+00 0. -1.
         23    2    1    2    0    0  0.00000000000E+00  0.00000000000E+00  0.75350086345E+02  0.12838106918E+03  0.10394259672E+03 0.  0.
        -13    1    3    3    0    0  0.30720015889E+02  0.39528076088E+02  0.20435222155E+02  0.54072048972E+02  0.00000000000E+00 0. -1.
         13    1    3    3    0    0 -0.30720015889E+02 -0.39528076088E+02  0.54914864190E+02  0.74309020210E+02  0.00000000000E+00 0.  1.
<mgrwt>
<rscale>  0 0.10394260E+03</rscale>
<asrwt>0</asrwt>
<pdfrwt beam="2">  1        2 0.40793064E-02 0.10394260E+03</pdfrwt>
<pdfrwt beam="1">  1       -2 0.15671627E-01 0.10394260E+03</pdfrwt>
<totfact> 0.57290827E+04</totfact>
</mgrwt>
</event>
<event>
 5    1  0.6079230E+000  0.9186536E+02  0.7546771E-02  0.1298396E+00
          2   -1    0    0  501    0  0.00000000000E+00  0.00000000000E+00  0.13675533552E+03  0.13675533552E+03  0.00000000000E+00 0. -1.
         -2   -1    0    0    0  501 -0.00000000000E+00 -0.00000000000E+00 -0.15427634091E+02  0.15427634091E+02  0.00000000000E+00 0.  1.
         23    2    1    2    0    0  0.00000000000E+00  0.00000000000E+00  0.12132770143E+03  0.15218296961E+03  0.91865364014E+02 0.  0.
        -13    1    3    3    0    0  0.20021166190E+02 -0.19095696155E+02 -0.74829783428E-01  0.27667640065E+02  0.00000000000E+00 0.  1.
         13    1    3    3    0    0 -0.20021166190E+02  0.19095696155E+02  0.12140253121E+03  0.12451532954E+03  0.00000000000E+00 0. -1.
<mgrwt>
<rscale>  0 0.91865364E+02</rscale>
<asrwt>0</asrwt>
<pdfrwt beam="1">  1        2 0.21039282E-01 0.91865364E+02</pdfrwt>
<pdfrwt beam="2">  1       -2 0.23734823E-02 0.91865364E+02</pdfrwt>
<totfact> 0.13277858E+05</totfact>
</mgrwt>
</event>
<event>
 5    1  0.6079230E+000  0.9107304E+02  0.7546771E-02  0.1300274E+00
         -4   -1    0    0    0  501 -0.00000000000E+00  0.00000000000E+00  0.81229282106E+01  0.81229282106E+01  0.00000000000E+00 0.  1.
          4   -1    0    0  501    0  0.00000000000E+00 -0.00000000000E+00 -0.25527429488E+03  0.25527429488E+03  0.00000000000E+00 0. -1.
         23    2    1    2    0    0  0.00000000000E+00  0.00000000000E+00 -0.24715136667E+03  0.26339722309E+03  0.91073042584E+02 0.  0.
        -13    1    3    3    0    0  0.12139715181E+02  0.32807476546E+02 -0.39262012729E+02  0.52585253118E+02  0.00000000000E+00 0.  1.
         13    1    3    3    0    0 -0.12139715181E+02 -0.32807476546E+02 -0.20788935394E+03  0.21081196998E+03  0.00000000000E+00 0. -1.
<mgrwt>
<rscale>  0 0.91073043E+02</rscale>
<asrwt>0</asrwt>
<pdfrwt beam="2">  1        4 0.39272967E-01 0.91073043E+02</pdfrwt>
<pdfrwt beam="1">  1       -4 0.12496813E-02 0.91073043E+02</pdfrwt>
<totfact> 0.19056681E+04</totfact>
</mgrwt>
</event>
<event>
 5    1  0.6079230E+000  0.8971243E+02  0.7546771E-02  0.1303550E+00
         -2   -1    0    0    0  501 -0.00000000000E+00  0.00000000000E+00  0.18155611504E+02  0.18155611504E+02  0.00000000000E+00 0.  1.
          2   -1    0    0  501    0  0.00000000000E+00 -0.00000000000E+00 -0.11082414294E+03  0.11082414294E+03  0.00000000000E+00 0. -1.
         23    2    1    2    0    0  0.00000000000E+00  0.00000000000E+00 -0.92668531432E+02  0.12897975444E+03  0.89712431343E+02 0.  0.
        -13    1    3    3    0    0 -0.44104647351E+02  0.27569773796E+01 -0.35266831086E+02  0.56538219083E+02  0.00000000000E+00 0.  1.
         13    1    3    3    0    0  0.44104647351E+02 -0.27569773796E+01 -0.57401700346E+02  0.72441535357E+02  0.00000000000E+00 0. -1.
<mgrwt>
<rscale>  0 0.89712431E+02</rscale>
<asrwt>0</asrwt>
<pdfrwt beam="2">  1        2 0.17049868E-01 0.89712431E+02</pdfrwt>
<pdfrwt beam="1">  1       -2 0.27931710E-02 0.89712431E+02</pdfrwt>
<totfact> 0.13237073E+05</totfact>
</mgrwt>
</event>
<event>
 5    1  0.6079230E+000  0.9028301E+02  0.7546771E-02  0.1302168E+00
         -1   -1    0    0    0  501 -0.00000000000E+00  0.00000000000E+00  0.53580505010E+02  0.53580505010E+02  0.00000000000E+00 0.  1.
          1   -1    0    0  501    0  0.00000000000E+00 -0.00000000000E+00 -0.38031655952E+02  0.38031655952E+02  0.00000000000E+00 0. -1.
         23    2    1    2    0    0  0.00000000000E+00  0.00000000000E+00  0.15548849058E+02  0.91612160962E+02  0.90283006868E+02 0.  0.
        -13    1    3    3    0    0  0.13089167753E+02 -0.39820259389E+02 -0.92286349727E+01  0.42920240840E+02  0.00000000000E+00 0. -1.
         13    1    3    3    0    0 -0.13089167753E+02  0.39820259389E+02  0.24777484031E+02  0.48691920122E+02  0.00000000000E+00 0.  1.
<mgrwt>
<rscale>  0 0.90283007E+02</rscale>
<asrwt>0</asrwt>
<pdfrwt beam="2">  1        1 0.58510240E-02 0.90283007E+02</pdfrwt>
<pdfrwt beam="1">  1       -1 0.82431546E-02 0.90283007E+02</pdfrwt>
<totfact> 0.92510242E+04</totfact>
</mgrwt>
</event>
<event>
 5    1  0.6079230E+000  0.9177629E+02  0.7546771E-02  0.1298606E+00
         -1   -1    0    0    0  501 -0.00000000000E+00  0.00000000000E+00  0.17593029314E+03  0.17593029314E+03  0.00000000000E+00 0.  1.
          1   -1    0    0  501    0  0.00000000000E+00 -0.00000000000E+00 -0.11969068463E+02  0.11969068463E+02  0.00000000000E+00 0. -1.
         23    2    1    2    0    0  0.00000000000E+00  0.00000000000E+00  0.16396122468E+03  0.18789936160E+03  0.91776287206E+02 0.  0.
        -13    1    3    3    0    0 -0.80393010267E+01 -0.42254638423E+02  0.49246046415E+02  0.65385456462E+02  0.00000000000E+00 0. -1.
         13    1    3    3    0    0  0.80393010267E+01  0.42254638423E+02  0.11471517826E+03  0.12251390514E+03  0.00000000000E+00 0.  1.
<mgrwt>
<rscale>  0 0.91776287E+02</rscale>
<asrwt>0</asrwt>
<pdfrwt beam="2">  1        1 0.18413953E-02 0.91776287E+02</pdfrwt>
<pdfrwt beam="1">  1       -1 0.27066197E-01 0.91776287E+02</pdfrwt>
<totfact> 0.70684162E+04</totfact>
</mgrwt>
</event>
<event>
 5    1  0.6079230E+000  0.9178236E+02  0.7546771E-02  0.1298592E+00
         -2   -1    0    0    0  501 -0.00000000000E+00  0.00000000000E+00  0.17435995226E+02  0.17435995226E+02  0.00000000000E+00 0.  1.
          2   -1    0    0  501    0  0.00000000000E+00 -0.00000000000E+00 -0.12078462798E+03  0.12078462798E+03  0.00000000000E+00 0. -1.
         23    2    1    2    0    0  0.00000000000E+00  0.00000000000E+00 -0.10334863276E+03  0.13822062321E+03  0.91782355536E+02 0.  0.
        -13    1    3    3    0    0  0.49460068186E+01  0.35171514132E+02 -0.95438006982E+02  0.10183276274E+03  0.00000000000E+00 0. -1.
         13    1    3    3    0    0 -0.49460068186E+01 -0.35171514132E+02 -0.79106257763E+01  0.36387860475E+02  0.00000000000E+00 0.  1.
<mgrwt>
<rscale>  0 0.91782356E+02</rscale>
<asrwt>0</asrwt>
<pdfrwt beam="2">  1        2 0.18582251E-01 0.91782356E+02</pdfrwt>
<pdfrwt beam="1">  1       -2 0.26824608E-02 0.91782356E+02</pdfrwt>
<totfact> 0.12779926E+05</totfact>
</mgrwt>
</event>
<event>
 5    1  0.6079230E+000  0.8994393E+02  0.7546771E-02  0.1302988E+00
          1   -1    0    0  501    0  0.00000000000E+00  0.00000000000E+00  0.71258390590E+01  0.71258390590E+01  0.00000000000E+00 0. -1.
         -1   -1    0    0    0  501 -0.00000000000E+00 -0.00000000000E+00 -0.28382309074E+03  0.28382309074E+03  0.00000000000E+00 0.  1.
         23    2    1    2    0    0  0.00000000000E+00  0.00000000000E+00 -0.27669725168E+03  0.29094892980E+03  0.89943930664E+02 0.  0.
        -13    1    3    3    0    0  0.38153573947E+02 -0.13889036799E+02 -0.75801213931E+02  0.85990840103E+02  0.00000000000E+00 0.  1.
         13    1    3    3    0    0 -0.38153573947E+02  0.13889036799E+02 -0.20089603775E+03  0.20495808969E+03  0.00000000000E+00 0. -1.
<mgrwt>
<rscale>  0 0.89943931E+02</rscale>
<asrwt>0</asrwt>
<pdfrwt beam="1">  1        1 0.10962831E-02 0.89943931E+02</pdfrwt>
<pdfrwt beam="2">  1       -1 0.43665083E-01 0.89943931E+02</pdfrwt>
<totfact> 0.64132997E+04</totfact>
</mgrwt>
</event>
<event>
 5    1  0.6079230E+000  0.9088091E+02  0.7546771E-02  0.1300732E+00
          4   -1    0    0  501    0  0.00000000000E+00  0.00000000000E+00  0.40111238563E+02  0.40111238563E+02  0.00000000000E+00 0.  1.
         -4   -1    0    0    0  501 -0.00000000000E+00 -0.00000000000E+00 -0.51477718677E+02  0.51477718677E+02  0.00000000000E+00 0. -1.
         23    2    1    2    0    0  0.00000000000E+00  0.00000000000E+00 -0.11366480114E+02  0.91588957241E+02  0.90880912288E+02 0.  0.
        -13    1    3    3    0    0  0.31228853061E+02  0.43190716410E+01 -0.38663409845E+02  0.49887422304E+02  0.00000000000E+00 0. -1.
         13    1    3    3    0    0 -0.31228853061E+02 -0.43190716410E+01  0.27296929731E+02  0.41701534937E+02  0.00000000000E+00 0.  1.
<mgrwt>
<rscale>  0 0.90880912E+02</rscale>
<asrwt>0</asrwt>
<pdfrwt beam="1">  1        4 0.61709598E-02 0.90880912E+02</pdfrwt>
<pdfrwt beam="2">  1       -4 0.79196490E-02 0.90880912E+02</pdfrwt>
<totfact> 0.27229195E+04</totfact>
</mgrwt>
</event>
<event>
 5    1  0.6079230E+000  0.9081311E+02  0.7546771E-02  0.1300894E+00
         -3   -1    0    0    0  501 -0.00000000000E+00  0.00000000000E+00  0.12423129162E+03  0.12423129162E+03  0.00000000000E+00 0.  1.
          3   -1    0    0  501    0  0.00000000000E+00 -0.00000000000E+00 -0.16596101963E+02  0.16596101963E+02  0.00000000000E+00 0. -1.
         23    2    1    2    0    0  0.00000000000E+00  0.00000000000E+00  0.10763518966E+03  0.14082739359E+03  0.90813108806E+02 0.  0.
        -13    1    3    3    0    0 -0.41551339625E+02 -0.98273877889E+01  0.77774564370E+02  0.88724146873E+02  0.00000000000E+00 0.  1.
         13    1    3    3    0    0  0.41551339625E+02  0.98273877889E+01  0.29860625290E+02  0.52103246713E+02  0.00000000000E+00 0. -1.
<mgrwt>
<rscale>  0 0.90813109E+02</rscale>
<asrwt>0</asrwt>
<pdfrwt beam="2">  1        3 0.25532465E-02 0.90813109E+02</pdfrwt>
<pdfrwt beam="1">  1       -3 0.19112506E-01 0.90813109E+02</pdfrwt>
<totfact> 0.32226134E+04</totfact>
</mgrwt>
</event>
<event>
 5    1  0.6079230E+000  0.9226329E+02  0.7546771E-02  0.1297462E+00
         -2   -1    0    0    0  501 -0.00000000000E+00  0.00000000000E+00  0.75910834890E+01  0.75910834890E+01  0.00000000000E+00 0.  1.
          2   -1    0    0  501    0  0.00000000000E+00 -0.00000000000E+00 -0.28034583287E+03  0.28034583287E+03  0.00000000000E+00 0. -1.
         23    2    1    2    0    0  0.00000000000E+00  0.00000000000E+00 -0.27275474938E+03  0.28793691635E+03  0.92263288974E+02 0.  0.
        -13    1    3    3    0    0 -0.44465182074E+02 -0.16833970429E+01 -0.17436202012E+03  0.17995027175E+03  0.00000000000E+00 0. -1.
         13    1    3    3    0    0  0.44465182074E+02  0.16833970429E+01 -0.98392729257E+02  0.10798664461E+03  0.00000000000E+00 0.  1.
<mgrwt>
<rscale>  0 0.92263289E+02</rscale>
<asrwt>0</asrwt>
<pdfrwt beam="2">  1        2 0.43130134E-01 0.92263289E+02</pdfrwt>
<pdfrwt beam="1">  1       -2 0.11678588E-02 0.92263289E+02</pdfrwt>
<totfact> 0.16971349E+05</totfact>
</mgrwt>
</event>
<event>
 5    1  0.6079230E+000  0.9144621E+02  0.7546771E-02  0.1299387E+00
         -2   -1    0    0    0  501 -0.00000000000E+00  0.00000000000E+00  0.17478972960E+03  0.17478972960E+03  0.00000000000E+00 0.  1.
          2   -1    0    0  501    0  0.00000000000E+00 -0.00000000000E+00 -0.11960669078E+02  0.11960669078E+02  0.00000000000E+00 0. -1.
         23    2    1    2    0    0  0.00000000000E+00  0.00000000000E+00  0.16282906053E+03  0.18675039868E+03  0.91446205259E+02 0.  0.
        -13    1    3    3    0    0 -0.23580258718E+01 -0.43803476583E+02  0.10774983849E+03  0.11633715031E+03  0.00000000000E+00 0. -1.
         13    1    3    3    0    0  0.23580258718E+01  0.43803476583E+02  0.55079222037E+02  0.70413248376E+02  0.00000000000E+00 0.  1.
<mgrwt>
<rscale>  0 0.91446205E+02</rscale>
<asrwt>0</asrwt>
<pdfrwt beam="2">  1        2 0.18401031E-02 0.91446205E+02</pdfrwt>
<pdfrwt beam="1">  1       -2 0.26890726E-01 0.91446205E+02</pdfrwt>
<totfact> 0.65413910E+04</totfact>
</mgrwt>
</event>
<event>
 5    1  0.6079230E+000  0.9434486E+02  0.7546771E-02  0.1292658E+00
         -4   -1    0    0    0  501 -0.00000000000E+00  0.00000000000E+00  0.25350293422E+02  0.25350293422E+02  0.00000000000E+00 0.  1.
          4   -1    0    0  501    0  0.00000000000E+00 -0.00000000000E+00 -0.87779576179E+02  0.87779576179E+02  0.00000000000E+00 0. -1.
         23    2    1    2    0    0  0.00000000000E+00  0.00000000000E+00 -0.62429282757E+02  0.11312986960E+03  0.94344857042E+02 0.  0.
        -13    1    3    3    0    0 -0.21343499741E+02  0.38141632849E+01  0.19021419709E+02  0.28842802057E+02  0.00000000000E+00 0.  1.
         13    1    3    3    0    0  0.21343499741E+02 -0.38141632849E+01 -0.81450702466E+02  0.84287067543E+02  0.00000000000E+00 0. -1.
<mgrwt>
<rscale>  0 0.94344857E+02</rscale>
<asrwt>0</asrwt>
<pdfrwt beam="2">  1        4 0.13504550E-01 0.94344857E+02</pdfrwt>
<pdfrwt beam="1">  1       -4 0.39000451E-02 0.94344857E+02</pdfrwt>
<totfact> 0.23394841E+04</totfact>
</mgrwt>
</event>
<event>
 5    1  0.6079230E+000  0.9321708E+02  0.7546771E-02  0.1295243E+00
         -1   -1    0    0    0  501 -0.00000000000E+00  0.00000000000E+00  0.18549535379E+02  0.18549535379E+02  0.00000000000E+00 0.  1.
          1   -1    0    0  501    0  0.00000000000E+00 -0.00000000000E+00 -0.11711106299E+03  0.11711106299E+03  0.00000000000E+00 0. -1.
         23    2    1    2    0    0  0.00000000000E+00  0.00000000000E+00 -0.98561527615E+02  0.13566059837E+03  0.93217075824E+02 0.  0.
        -13    1    3    3    0    0 -0.35824195581E+02  0.17866251873E+02 -0.14542204703E+02  0.42591685370E+02  0.00000000000E+00 0.  1.
         13    1    3    3    0    0  0.35824195581E+02 -0.17866251873E+02 -0.84019322912E+02  0.93068913003E+02  0.00000000000E+00 0. -1.
<mgrwt>
<rscale>  0 0.93217076E+02</rscale>
<asrwt>0</asrwt>
<pdfrwt beam="2">  1        1 0.18017086E-01 0.93217076E+02</pdfrwt>
<pdfrwt beam="1">  1       -1 0.28537747E-02 0.93217076E+02</pdfrwt>
<totfact> 0.10101778E+05</totfact>
</mgrwt>
</event>
<event>
 5    1  0.6079230E+000  0.8908751E+02  0.7546771E-02  0.1305077E+00
          1   -1    0    0  501    0  0.00000000000E+00  0.00000000000E+00  0.68859840850E+02  0.68859840850E+02  0.00000000000E+00 0. -1.
         -1   -1    0    0    0  501 -0.00000000000E+00 -0.00000000000E+00 -0.28814272783E+02  0.28814272783E+02  0.00000000000E+00 0.  1.
         23    2    1    2    0    0  0.00000000000E+00  0.00000000000E+00  0.40045568066E+02  0.97674113633E+02  0.89087512886E+02 0.  0.
        -13    1    3    3    0    0  0.27419475234E+01  0.14600081680E+02  0.66063931353E+02  0.67713541386E+02  0.00000000000E+00 0. -1.
         13    1    3    3    0    0 -0.27419475234E+01 -0.14600081680E+02 -0.26018363286E+02  0.29960572247E+02  0.00000000000E+00 0.  1.
<mgrwt>
<rscale>  0 0.89087513E+02</rscale>
<asrwt>0</asrwt>
<pdfrwt beam="1">  1        1 0.10593822E-01 0.89087513E+02</pdfrwt>
<pdfrwt beam="2">  1       -1 0.44329651E-02 0.89087513E+02</pdfrwt>
<totfact> 0.10490227E+05</totfact>
</mgrwt>
</event>
<event>
 5    1  0.6079230E+000  0.8845211E+02  0.7546771E-02  0.1306644E+00
          3   -1    0    0  501    0  0.00000000000E+00  0.00000000000E+00  0.44629703847E+03  0.44629703847E+03  0.00000000000E+00 0. -1.
         -3   -1    0    0    0  501 -0.00000000000E+00 -0.00000000000E+00 -0.43826060817E+01  0.43826060817E+01  0.00000000000E+00 0.  1.
         23    2    1    2    0    0  0.00000000000E+00  0.00000000000E+00  0.44191443238E+03  0.45067964455E+03  0.88452113938E+02 0.  0.
        -13    1    3    3    0    0 -0.40599977013E+02  0.17535675477E+02  0.22245199970E+03  0.22680553392E+03  0.00000000000E+00 0. -1.
         13    1    3    3    0    0  0.40599977013E+02 -0.17535675477E+02  0.21946243269E+03  0.22387411063E+03  0.00000000000E+00 0.  1.
<mgrwt>
<rscale>  0 0.88452114E+02</rscale>
<asrwt>0</asrwt>
<pdfrwt beam="1">  1        3 0.68661047E-01 0.88452114E+02</pdfrwt>
<pdfrwt beam="2">  1       -3 0.67424744E-03 0.88452114E+02</pdfrwt>
<totfact> 0.20784014E+04</totfact>
</mgrwt>
</event>
<event>
 5    1  0.6079230E+000  0.9057654E+02  0.7546771E-02  0.1301461E+00
         -3   -1    0    0    0  501 -0.00000000000E+00  0.00000000000E+00  0.20235507733E+03  0.20235507733E+03  0.00000000000E+00 0.  1.
          3   -1    0    0  501    0  0.00000000000E+00 -0.00000000000E+00 -0.10135784227E+02  0.10135784227E+02  0.00000000000E+00 0. -1.
         23    2    1    2    0    0  0.00000000000E+00  0.00000000000E+00  0.19221929310E+03  0.21249086156E+03  0.90576540034E+02 0.  0.
        -13    1    3    3    0    0  0.13270894695E+02  0.41555677865E+02  0.12465324853E+03  0.13206598115E+03  0.00000000000E+00 0.  1.
         13    1    3    3    0    0 -0.13270894695E+02 -0.41555677865E+02  0.67566044572E+02  0.80424880403E+02  0.00000000000E+00 0. -1.
<mgrwt>
<rscale>  0 0.90576540E+02</rscale>
<asrwt>0</asrwt>
<pdfrwt beam="2">  1        3 0.15593516E-02 0.90576540E+02</pdfrwt>
<pdfrwt beam="1">  1       -3 0.31131547E-01 0.90576540E+02</pdfrwt>
<totfact> 0.28363485E+04</totfact>
</mgrwt>
</event>
<event>
 5    1  0.6079230E+000  0.8320966E+02  0.7546771E-02  0.1320182E+00
          3   -1    0    0  501    0  0.00000000000E+00  0.00000000000E+00  0.31632160017E+02  0.31632160017E+02  0.00000000000E+00 0.  1.
         -3   -1    0    0    0  501 -0.00000000000E+00 -0.00000000000E+00 -0.54721578661E+02  0.54721578661E+02  0.00000000000E+00 0. -1.
         23    2    1    2    0    0  0.00000000000E+00  0.00000000000E+00 -0.23089418644E+02  0.86353738678E+02  0.83209656473E+02 0.  0.
        -13    1    3    3    0    0  0.36045418833E+02  0.11226584827E+02  0.65988281246E+01  0.38325617521E+02  0.00000000000E+00 0. -1.
         13    1    3    3    0    0 -0.36045418833E+02 -0.11226584827E+02 -0.29688246769E+02  0.48028121158E+02  0.00000000000E+00 0.  1.
<mgrwt>
<rscale>  0 0.83209656E+02</rscale>
<asrwt>0</asrwt>
<pdfrwt beam="1">  1        3 0.48664862E-02 0.83209656E+02</pdfrwt>
<pdfrwt beam="2">  1       -3 0.84187043E-02 0.83209656E+02</pdfrwt>
<totfact> 0.45748789E+04</totfact>
</mgrwt>
</event>
<event>
 5    1  0.6079230E+000  0.9229498E+02  0.7546771E-02  0.1297387E+00
          2   -1    0    0  501    0  0.00000000000E+00  0.00000000000E+00  0.56954953167E+02  0.56954953167E+02  0.00000000000E+00 0. -1.
         -2   -1    0    0    0  501 -0.00000000000E+00 -0.00000000000E+00 -0.37390794118E+02  0.37390794118E+02  0.00000000000E+00 0.  1.
         23    2    1    2    0    0  0.00000000000E+00  0.00000000000E+00  0.19564159049E+02  0.94345747286E+02  0.92294982050E+02 0.  0.
        -13    1    3    3    0    0 -0.34420374275E+02 -0.16427128382E+02  0.36339697378E+02  0.52680037183E+02  0.00000000000E+00 0. -1.
         13    1    3    3    0    0  0.34420374275E+02  0.16427128382E+02 -0.16775538329E+02  0.41665710102E+02  0.00000000000E+00 0.  1.
<mgrwt>
<rscale>  0 0.92294982E+02</rscale>
<asrwt>0</asrwt>
<pdfrwt beam="1">  1        2 0.87623005E-02 0.92294982E+02</pdfrwt>
<pdfrwt beam="2">  1       -2 0.57524298E-02 0.92294982E+02</pdfrwt>
<totfact> 0.10105150E+05</totfact>
</mgrwt>
</event>
<event>
 5    1  0.6079230E+000  0.9507549E+02  0.7546771E-02  0.1291006E+00
         -2   -1    0    0    0  501 -0.00000000000E+00  0.00000000000E+00  0.29111598528E+03  0.29111598528E+03  0.00000000000E+00 0.  1.
          2   -1    0    0  501    0  0.00000000000E+00 -0.00000000000E+00 -0.77626692525E+01  0.77626692525E+01  0.00000000000E+00 0. -1.
         23    2    1    2    0    0  0.00000000000E+00  0.00000000000E+00  0.28335331603E+03  0.29887865453E+03  0.95075488068E+02 0.  0.
        -13    1    3    3    0    0 -0.15696070953E+02 -0.43679566982E+02  0.10937772704E+03  0.11881817365E+03  0.00000000000E+00 0.  1.
         13    1    3    3    0    0  0.15696070953E+02  0.43679566982E+02  0.17397558898E+03  0.18006048089E+03  0.00000000000E+00 0. -1.
<mgrwt>
<rscale>  0 0.95075488E+02</rscale>
<asrwt>0</asrwt>
<pdfrwt beam="2">  1        2 0.11942570E-02 0.95075488E+02</pdfrwt>
<pdfrwt beam="1">  1       -2 0.44787066E-01 0.95075488E+02</pdfrwt>
<totfact> 0.46555816E+04</totfact>
</mgrwt>
</event>
<event>
 5    1  0.6079230E+000  0.9253488E+02  0.7546771E-02  0.1296827E+00
         -1   -1    0    0    0  501 -0.00000000000E+00  0.00000000000E+00  0.11268329490E+03  0.11268329490E+03  0.00000000000E+00 0.  1.
          1   -1    0    0  501    0  0.00000000000E+00 -0.00000000000E+00 -0.18997277158E+02  0.18997277158E+02  0.00000000000E+00 0. -1.
         23    2    1    2    0    0  0.00000000000E+00  0.00000000000E+00  0.93686017745E+02  0.13168057206E+03  0.92534875249E+02 0.  0.
        -13    1    3    3    0    0  0.28908313275E+02 -0.17597286534E+02  0.91737988840E+02  0.97781458704E+02  0.00000000000E+00 0.  1.
         13    1    3    3    0    0 -0.28908313275E+02  0.17597286534E+02  0.19480289045E+01  0.33899113357E+02  0.00000000000E+00 0. -1.
<mgrwt>
<rscale>  0 0.92534875E+02</rscale>
<asrwt>0</asrwt>
<pdfrwt beam="2">  1        1 0.29226581E-02 0.92534875E+02</pdfrwt>
<pdfrwt beam="1">  1       -1 0.17335891E-01 0.92534875E+02</pdfrwt>
<totfact> 0.76547848E+04</totfact>
</mgrwt>
</event>
<event>
 5    1  0.6079230E+000  0.9166551E+02  0.7546771E-02  0.1298868E+00
          1   -1    0    0  501    0  0.00000000000E+00  0.00000000000E+00  0.13701703477E+03  0.13701703477E+03  0.00000000000E+00 0. -1.
         -1   -1    0    0    0  501 -0.00000000000E+00 -0.00000000000E+00 -0.15331243292E+02  0.15331243292E+02  0.00000000000E+00 0.  1.
         23    2    1    2    0    0  0.00000000000E+00  0.00000000000E+00  0.12168579148E+03  0.15234827806E+03  0.91665511404E+02 0.  0.
        -13    1    3    3    0    0 -0.70405590628E+01  0.43406195263E+02  0.39366751271E+02  0.59020406342E+02  0.00000000000E+00 0.  1.
         13    1    3    3    0    0  0.70405590628E+01 -0.43406195263E+02  0.82319040209E+02  0.93327871721E+02  0.00000000000E+00 0. -1.
<mgrwt>
<rscale>  0 0.91665511E+02</rscale>
<asrwt>0</asrwt>
<pdfrwt beam="1">  1        1 0.21079543E-01 0.91665511E+02</pdfrwt>
<pdfrwt beam="2">  1       -1 0.23586529E-02 0.91665511E+02</pdfrwt>
<totfact> 0.10871591E+05</totfact>
</mgrwt>
</event>
<event>
 5    1  0.6079230E+000  0.9086366E+02  0.7546771E-02  0.1300774E+00
         -1   -1    0    0    0  501 -0.00000000000E+00  0.00000000000E+00  0.14050002836E+02  0.14050002836E+02  0.00000000000E+00 0.  1.
          1   -1    0    0  501    0  0.00000000000E+00 -0.00000000000E+00 -0.14690754196E+03  0.14690754196E+03  0.00000000000E+00 0. -1.
         23    2    1    2    0    0  0.00000000000E+00  0.00000000000E+00 -0.13285753913E+03  0.16095754480E+03  0.90863664491E+02 0.  0.
        -13    1    3    3    0    0  0.26106144540E+02 -0.35269895828E+02 -0.87280027740E+02  0.97689813065E+02  0.00000000000E+00 0.  1.
         13    1    3    3    0    0 -0.26106144540E+02  0.35269895828E+02 -0.45577511389E+02  0.63267731735E+02  0.00000000000E+00 0. -1.
<mgrwt>
<rscale>  0 0.90863664E+02</rscale>
<asrwt>0</asrwt>
<pdfrwt beam="2">  1        1 0.22601160E-01 0.90863664E+02</pdfrwt>
<pdfrwt beam="1">  1       -1 0.21615389E-02 0.90863664E+02</pdfrwt>
<totfact> 0.11274695E+05</totfact>
</mgrwt>
</event>
<event>
 5    1  0.6079230E+000  0.9745442E+02  0.7546771E-02  0.1285742E+00
         -1   -1    0    0    0  501 -0.00000000000E+00  0.00000000000E+00  0.16006914531E+02  0.16006914531E+02  0.00000000000E+00 0.  1.
          1   -1    0    0  501    0  0.00000000000E+00 -0.00000000000E+00 -0.14833222413E+03  0.14833222413E+03  0.00000000000E+00 0. -1.
         23    2    1    2    0    0  0.00000000000E+00  0.00000000000E+00 -0.13232530960E+03  0.16433913867E+03  0.97454424917E+02 0.  0.
        -13    1    3    3    0    0 -0.33812751162E+02  0.95743568955E+01 -0.12308358421E+03  0.12800210605E+03  0.00000000000E+00 0. -1.
         13    1    3    3    0    0  0.33812751162E+02 -0.95743568955E+01 -0.92417253934E+01  0.36337032617E+02  0.00000000000E+00 0.  1.
<mgrwt>
<rscale>  0 0.97454425E+02</rscale>
<asrwt>0</asrwt>
<pdfrwt beam="2">  1        1 0.22820342E-01 0.97454425E+02</pdfrwt>
<pdfrwt beam="1">  1       -1 0.24626022E-02 0.97454425E+02</pdfrwt>
<totfact> 0.93421846E+04</totfact>
</mgrwt>
</event>
<event>
 4    1  0.6079230E+000  0.2353690E+03  0.7546771E-02  0.1122917E+00
          1   -1    0    0  501    0  0.00000000000E+00  0.00000000000E+00  0.39780638099E+03  0.39780638099E+03  0.00000000000E+00 0. -1.
         -1   -1    0    0    0  501 -0.00000000000E+00 -0.00000000000E+00 -0.34815022706E+02  0.34815022706E+02  0.00000000000E+00 0.  1.
        -13    1    1    2    0    0 -0.21459643546E+02 -0.11246391024E+03  0.13146168259E+03  0.17432963430E+03  0.00000000000E+00 0.  1.
         13    1    1    2    0    0  0.21459643546E+02  0.11246391024E+03  0.23152967569E+03  0.25829176939E+03  0.00000000000E+00 0. -1.
<mgrwt>
<rscale>  0 0.23536897E+03</rscale>
<asrwt>0</asrwt>
<pdfrwt beam="1">  1        1 0.61200978E-01 0.23536897E+03</pdfrwt>
<pdfrwt beam="2">  1       -1 0.53561576E-02 0.23536897E+03</pdfrwt>
<totfact> 0.95340498E+03</totfact>
</mgrwt>
</event>
<event>
 5    1  0.6079230E+000  0.8732410E+02  0.7546771E-02  0.1309464E+00
          2   -1    0    0  501    0  0.00000000000E+00  0.00000000000E+00  0.25189563696E+03  0.25189563696E+03  0.00000000000E+00 0. -1.
         -2   -1    0    0    0  501 -0.00000000000E+00 -0.00000000000E+00 -0.75681121755E+01  0.75681121755E+01  0.00000000000E+00 0.  1.
         23    2    1    2    0    0  0.00000000000E+00  0.00000000000E+00  0.24432752478E+03  0.25946374913E+03  0.87324096034E+02 0.  0.
        -13    1    3    3    0    0 -0.35428493450E+02 -0.52584463579E+00  0.46357283654E+02  0.58347685546E+02  0.00000000000E+00 0.  1.
         13    1    3    3    0    0  0.35428493450E+02  0.52584463579E+00  0.19797024113E+03  0.20111606359E+03  0.00000000000E+00 0. -1.
<mgrwt>
<rscale>  0 0.87324096E+02</rscale>
<asrwt>0</asrwt>
<pdfrwt beam="1">  1        2 0.38753168E-01 0.87324096E+02</pdfrwt>
<pdfrwt beam="2">  1       -2 0.11643251E-02 0.87324096E+02</pdfrwt>
<totfact> 0.18889318E+05</totfact>
</mgrwt>
</event>
<event>
 5    1  0.6079230E+000  0.8916727E+02  0.7546771E-02  0.1304881E+00
          2   -1    0    0  501    0  0.00000000000E+00  0.00000000000E+00  0.71310981133E+02  0.71310981133E+02  0.00000000000E+00 0. -1.
         -2   -1    0    0    0  501 -0.00000000000E+00 -0.00000000000E+00 -0.27873693903E+02  0.27873693903E+02  0.00000000000E+00 0.  1.
         23    2    1    2    0    0  0.00000000000E+00  0.00000000000E+00  0.43437287230E+02  0.99184675036E+02  0.89167268884E+02 0.  0.
        -13    1    3    3    0    0  0.34869087273E+02 -0.58440165681E+01 -0.84932145145E+01  0.36361249562E+02  0.00000000000E+00 0.  1.
         13    1    3    3    0    0 -0.34869087273E+02  0.58440165681E+01  0.51930501744E+02  0.62823425474E+02  0.00000000000E+00 0. -1.
<mgrwt>
<rscale>  0 0.89167269E+02</rscale>
<asrwt>0</asrwt>
<pdfrwt beam="1">  1        2 0.10970920E-01 0.89167269E+02</pdfrwt>
<pdfrwt beam="2">  1       -2 0.42882606E-02 0.89167269E+02</pdfrwt>
<totfact> 0.11831789E+05</totfact>
</mgrwt>
</event>
<event>
 5    1  0.6079230E+000  0.9034544E+02  0.7546771E-02  0.1302017E+00
          2   -1    0    0  501    0  0.00000000000E+00  0.00000000000E+00  0.19235977084E+03  0.19235977084E+03  0.00000000000E+00 0. -1.
         -2   -1    0    0    0  501 -0.00000000000E+00 -0.00000000000E+00 -0.10608115215E+02  0.10608115215E+02  0.00000000000E+00 0.  1.
         23    2    1    2    0    0  0.00000000000E+00  0.00000000000E+00  0.18175165563E+03  0.20296788606E+03  0.90345439548E+02 0.  0.
        -13    1    3    3    0    0 -0.42916314625E+02  0.72153256519E+01  0.63665014784E+02  0.77117475922E+02  0.00000000000E+00 0.  1.
         13    1    3    3    0    0  0.42916314625E+02 -0.72153256519E+01  0.11808664084E+03  0.12585041013E+03  0.00000000000E+00 0. -1.
<mgrwt>
<rscale>  0 0.90345440E+02</rscale>
<asrwt>0</asrwt>
<pdfrwt beam="1">  1        2 0.29593808E-01 0.90345440E+02</pdfrwt>
<pdfrwt beam="2">  1       -2 0.16320179E-02 0.90345440E+02</pdfrwt>
<totfact> 0.15633090E+05</totfact>
</mgrwt>
</event>
<event>
 5    1  0.6079230E+000  0.8424380E+02  0.7546771E-02  0.1317422E+00
         -4   -1    0    0    0  501 -0.00000000000E+00  0.00000000000E+00  0.66087000414E+01  0.66087000414E+01  0.00000000000E+00 0.  1.
          4   -1    0    0  501    0  0.00000000000E+00 -0.00000000000E+00 -0.26847251597E+03  0.26847251597E+03  0.00000000000E+00 0. -1.
         23    2    1    2    0    0  0.00000000000E+00  0.00000000000E+00 -0.26186381593E+03  0.27508121601E+03  0.84243796861E+02 0.  0.
        -13    1    3    3    0    0 -0.32076752133E+02 -0.26976045968E+02 -0.14464198347E+03  0.15059192696E+03  0.00000000000E+00 0.  1.
         13    1    3    3    0    0  0.32076752133E+02  0.26976045968E+02 -0.11722183246E+03  0.12448928905E+03  0.00000000000E+00 0. -1.
<mgrwt>
<rscale>  0 0.84243797E+02</rscale>
<asrwt>0</asrwt>
<pdfrwt beam="2">  1        4 0.41303463E-01 0.84243797E+02</pdfrwt>
<pdfrwt beam="1">  1       -4 0.10167231E-02 0.84243797E+02</pdfrwt>
<totfact> 0.22936588E+04</totfact>
</mgrwt>
</event>
<event>
 5    1  0.6079230E+000  0.8710233E+02  0.7546771E-02  0.1310024E+00
         -3   -1    0    0    0  501 -0.00000000000E+00  0.00000000000E+00  0.10710917456E+03  0.10710917456E+03  0.00000000000E+00 0.  1.
          3   -1    0    0  501    0  0.00000000000E+00 -0.00000000000E+00 -0.17708138264E+02  0.17708138264E+02  0.00000000000E+00 0. -1.
         23    2    1    2    0    0  0.00000000000E+00  0.00000000000E+00  0.89401036291E+02  0.12481731282E+03  0.87102332286E+02 0.  0.
        -13    1    3    3    0    0 -0.26295885821E+02 -0.11848334257E+02  0.91462051036E+02  0.95901842608E+02  0.00000000000E+00 0.  1.
         13    1    3    3    0    0  0.26295885821E+02  0.11848334257E+02 -0.20610147453E+01  0.28915470212E+02  0.00000000000E+00 0. -1.
<mgrwt>
<rscale>  0 0.87102332E+02</rscale>
<asrwt>0</asrwt>
<pdfrwt beam="2">  1        3 0.27243290E-02 0.87102332E+02</pdfrwt>
<pdfrwt beam="1">  1       -3 0.16478334E-01 0.87102332E+02</pdfrwt>
<totfact> 0.37252262E+04</totfact>
</mgrwt>
</event>
<event>
 5    1  0.6079230E+000  0.9026754E+02  0.7546771E-02  0.1302205E+00
          2   -1    0    0  501    0  0.00000000000E+00  0.00000000000E+00  0.51378133896E+02  0.51378133896E+02  0.00000000000E+00 0. -1.
         -2   -1    0    0    0  501 -0.00000000000E+00 -0.00000000000E+00 -0.39648326672E+02  0.39648326672E+02  0.00000000000E+00 0.  1.
         23    2    1    2    0    0  0.00000000000E+00  0.00000000000E+00  0.11729807224E+02  0.91026460567E+02  0.90267536501E+02 0.  0.
        -13    1    3    3    0    0  0.21342159675E+02 -0.35402655486E+02 -0.12404291239E+02  0.43159034236E+02  0.00000000000E+00 0.  1.
         13    1    3    3    0    0 -0.21342159675E+02  0.35402655486E+02  0.24134098462E+02  0.47867426332E+02  0.00000000000E+00 0. -1.
<mgrwt>
<rscale>  0 0.90267537E+02</rscale>
<asrwt>0</asrwt>
<pdfrwt beam="1">  1        2 0.79043283E-02 0.90267537E+02</pdfrwt>
<pdfrwt beam="2">  1       -2 0.60997426E-02 0.90267537E+02</pdfrwt>
<totfact> 0.10474139E+05</totfact>
</mgrwt>
</event>
<event>
 5    1  0.6079230E+000  0.9233686E+02  0.7546771E-02  0.1297289E+00
         -2   -1    0    0    0  501 -0.00000000000E+00  0.00000000000E+00  0.24757458619E+02  0.24757458619E+02  0.00000000000E+00 0.  1.
          2   -1    0    0  501    0  0.00000000000E+00 -0.00000000000E+00 -0.86096229763E+02  0.86096229763E+02  0.00000000000E+00 0. -1.
         23    2    1    2    0    0  0.00000000000E+00  0.00000000000E+00 -0.61338771144E+02  0.11085368838E+03  0.92336858200E+02 0.  0.
        -13    1    3    3    0    0  0.29469164767E+02 -0.16150003204E+02  0.73379413780E+01  0.34396215769E+02  0.00000000000E+00 0.  1.
         13    1    3    3    0    0 -0.29469164767E+02  0.16150003204E+02 -0.68676712522E+02  0.76457472613E+02  0.00000000000E+00 0. -1.
<mgrwt>
<rscale>  0 0.92336858E+02</rscale>
<asrwt>0</asrwt>
<pdfrwt beam="2">  1        2 0.13245574E-01 0.92336858E+02</pdfrwt>
<pdfrwt beam="1">  1       -2 0.38088398E-02 0.92336858E+02</pdfrwt>
<totfact> 0.11327418E+05</totfact>
</mgrwt>
</event>
<event>
 5    1  0.6079230E+000  0.8548116E+02  0.7546771E-02  0.1314179E+00
          1   -1    0    0  501    0  0.00000000000E+00  0.00000000000E+00  0.14486705773E+03  0.14486705773E+03  0.00000000000E+00 0. -1.
         -1   -1    0    0    0  501 -0.00000000000E+00 -0.00000000000E+00 -0.12609885599E+02  0.12609885599E+02  0.00000000000E+00 0.  1.
         23    2    1    2    0    0  0.00000000000E+00  0.00000000000E+00  0.13225717213E+03  0.15747694333E+03  0.85481156403E+02 0.  0.
        -13    1    3    3    0    0 -0.19600775902E+02  0.30826164136E+02  0.10700452813E+03  0.11306817347E+03  0.00000000000E+00 0. -1.
         13    1    3    3    0    0  0.19600775902E+02 -0.30826164136E+02  0.25252643997E+02  0.44408769856E+02  0.00000000000E+00 0.  1.
<mgrwt>
<rscale>  0 0.85481156E+02</rscale>
<asrwt>0</asrwt>
<pdfrwt beam="1">  1        1 0.22287238E-01 0.85481156E+02</pdfrwt>
<pdfrwt beam="2">  1       -1 0.19399825E-02 0.85481156E+02</pdfrwt>
<totfact> 0.13251263E+05</totfact>
</mgrwt>
</event>
<event>
 5    1  0.6079230E+000  0.8991264E+02  0.7546771E-02  0.1303063E+00
         -1   -1    0    0    0  501 -0.00000000000E+00  0.00000000000E+00  0.26931982414E+03  0.26931982414E+03  0.00000000000E+00 0.  1.
          1   -1    0    0  501    0  0.00000000000E+00 -0.00000000000E+00 -0.75043523942E+01  0.75043523942E+01  0.00000000000E+00 0. -1.
         23    2    1    2    0    0  0.00000000000E+00  0.00000000000E+00  0.26181547175E+03  0.27682417654E+03  0.89912643541E+02 0.  0.
        -13    1    3    3    0    0 -0.26089304387E+02  0.25589751402E+02  0.21152229583E+03  0.21465593124E+03  0.00000000000E+00 0.  1.
         13    1    3    3    0    0  0.26089304387E+02 -0.25589751402E+02  0.50293175918E+02  0.62168245303E+02  0.00000000000E+00 0. -1.
<mgrwt>
<rscale>  0 0.89912644E+02</rscale>
<asrwt>0</asrwt>
<pdfrwt beam="2">  1        1 0.11545160E-02 0.89912644E+02</pdfrwt>
<pdfrwt beam="1">  1       -1 0.41433812E-01 0.89912644E+02</pdfrwt>
<totfact> 0.65442595E+04</totfact>
</mgrwt>
</event>
<event>
 5    1  0.6079230E+000  0.8967606E+02  0.7546771E-02  0.1303638E+00
         -1   -1    0    0    0  501 -0.00000000000E+00  0.00000000000E+00  0.47384752128E+02  0.47384752128E+02  0.00000000000E+00 0.  1.
          1   -1    0    0  501    0  0.00000000000E+00 -0.00000000000E+00 -0.42428183098E+02  0.42428183098E+02  0.00000000000E+00 0. -1.
         23    2    1    2    0    0  0.00000000000E+00  0.00000000000E+00  0.49565690297E+01  0.89812935226E+02  0.89676060113E+02 0.  0.
        -13    1    3    3    0    0  0.38283546037E+02  0.97710627852E+01  0.23708407412E+02  0.46078109197E+02  0.00000000000E+00 0.  1.
         13    1    3    3    0    0 -0.38283546037E+02 -0.97710627852E+01 -0.18751838382E+02  0.43734826030E+02  0.00000000000E+00 0. -1.
<mgrwt>
<rscale>  0 0.89676060E+02</rscale>
<asrwt>0</asrwt>
<pdfrwt beam="2">  1        1 0.65274127E-02 0.89676060E+02</pdfrwt>
<pdfrwt beam="1">  1       -1 0.72899619E-02 0.89676060E+02</pdfrwt>
<totfact> 0.95844573E+04</totfact>
</mgrwt>
</event>
<event>
 5    1  0.6079230E+000  0.9079124E+02  0.7546771E-02  0.1300947E+00
          1   -1    0    0  501    0  0.00000000000E+00  0.00000000000E+00  0.57378169193E+02  0.57378169193E+02  0.00000000000E+00 0. -1.
         -1   -1    0    0    0  501 -0.00000000000E+00 -0.00000000000E+00 -0.35915442575E+02  0.35915442575E+02  0.00000000000E+00 0.  1.
         23    2    1    2    0    0  0.00000000000E+00  0.00000000000E+00  0.21462726617E+02  0.93293611768E+02  0.90791240562E+02 0.  0.
        -13    1    3    3    0    0  0.35567353416E+02 -0.19946327807E+02  0.31227801623E+02  0.51362128228E+02  0.00000000000E+00 0. -1.
         13    1    3    3    0    0 -0.35567353416E+02  0.19946327807E+02 -0.97650750053E+01  0.41931483539E+02  0.00000000000E+00 0.  1.
<mgrwt>
<rscale>  0 0.90791241E+02</rscale>
<asrwt>0</asrwt>
<pdfrwt beam="1">  1        1 0.88274106E-02 0.90791241E+02</pdfrwt>
<pdfrwt beam="2">  1       -1 0.55254527E-02 0.90791241E+02</pdfrwt>
<totfact> 0.96856379E+04</totfact>
</mgrwt>
</event>
<event>
 5    1  0.6079230E+000  0.9372161E+02  0.7546771E-02  0.1294082E+00
         -1   -1    0    0    0  501 -0.00000000000E+00  0.00000000000E+00  0.66980774154E+01  0.66980774154E+01  0.00000000000E+00 0.  1.
          1   -1    0    0  501    0  0.00000000000E+00 -0.00000000000E+00 -0.32784556915E+03  0.32784556915E+03  0.00000000000E+00 0. -1.
         23    2    1    2    0    0  0.00000000000E+00  0.00000000000E+00 -0.32114749174E+03  0.33454364657E+03  0.93721609087E+02 0.  0.
        -13    1    3    3    0    0 -0.17959868806E+02 -0.39196594824E+02 -0.95045088926E+02  0.10436713497E+03  0.00000000000E+00 0. -1.
         13    1    3    3    0    0  0.17959868806E+02  0.39196594824E+02 -0.22610240281E+03  0.23017651160E+03  0.00000000000E+00 0.  1.
<mgrwt>
<rscale>  0 0.93721609E+02</rscale>
<asrwt>0</asrwt>
<pdfrwt beam="2">  1        1 0.50437779E-01 0.93721609E+02</pdfrwt>
<pdfrwt beam="1">  1       -1 0.10304735E-02 0.93721609E+02</pdfrwt>
<totfact> 0.12105481E+05</totfact>
</mgrwt>
</event>
<event>
 5    1  0.6079230E+000  0.9024608E+02  0.7546771E-02  0.1302257E+00
         -2   -1    0    0    0  501 -0.00000000000E+00  0.00000000000E+00  0.74260020228E+02  0.74260020228E+02  0.00000000000E+00 0.  1.
          2   -1    0    0  501    0  0.00000000000E+00 -0.00000000000E+00 -0.27418369885E+02  0.27418369885E+02  0.00000000000E+00 0. -1.
         23    2    1    2    0    0  0.00000000000E+00  0.00000000000E+00  0.46841650343E+02  0.10167839011E+03  0.90246079190E+02 0.  0.
        -13    1    3    3    0    0 -0.35937811704E+02 -0.22175221359E+02  0.41335449562E+02  0.59092183433E+02  0.00000000000E+00 0.  1.
         13    1    3    3    0    0  0.35937811704E+02  0.22175221359E+02  0.55062007817E+01  0.42586206680E+02  0.00000000000E+00 0. -1.
<mgrwt>
<rscale>  0 0.90246079E+02</rscale>
<asrwt>0</asrwt>
<pdfrwt beam="2">  1        2 0.42182108E-02 0.90246079E+02</pdfrwt>
<pdfrwt beam="1">  1       -2 0.11424618E-01 0.90246079E+02</pdfrwt>
<totfact> 0.89033962E+04</totfact>
</mgrwt>
</event>
<event>
 5    1  0.6079230E+000  0.9153369E+02  0.7546771E-02  0.1299180E+00
         -1   -1    0    0    0  501 -0.00000000000E+00  0.00000000000E+00  0.34015866563E+03  0.34015866563E+03  0.00000000000E+00 0.  1.
          1   -1    0    0  501    0  0.00000000000E+00 -0.00000000000E+00 -0.61577261267E+01  0.61577261267E+01  0.00000000000E+00 0. -1.
         23    2    1    2    0    0  0.00000000000E+00  0.00000000000E+00  0.33400093951E+03  0.34631639176E+03  0.91533685659E+02 0.  0.
        -13    1    3    3    0    0  0.40290184795E+02  0.20801536795E+02  0.19050714764E+03  0.19582894634E+03  0.00000000000E+00 0. -1.
         13    1    3    3    0    0 -0.40290184795E+02 -0.20801536795E+02  0.14349379187E+03  0.15048744542E+03  0.00000000000E+00 0.  1.
<mgrwt>
<rscale>  0 0.91533686E+02</rscale>
<asrwt>0</asrwt>
<pdfrwt beam="2">  1        1 0.94734275E-03 0.91533686E+02</pdfrwt>
<pdfrwt beam="1">  1       -1 0.52332088E-01 0.91533686E+02</pdfrwt>
<totfact> 0.56923207E+04</totfact>
</mgrwt>
</event>
<event>
 5    1  0.6079230E+000  0.8953066E+02  0.7546771E-02  0.1303992E+00
         -1   -1    0    0    0  501 -0.00000000000E+00  0.00000000000E+00  0.18663136852E+03  0.18663136852E+03  0.00000000000E+00 0.  1.
          1   -1    0    0  501    0  0.00000000000E+00 -0.00000000000E+00 -0.10737396406E+02  0.10737396406E+02  0.00000000000E+00 0. -1.
         23    2    1    2    0    0  0.00000000000E+00  0.00000000000E+00  0.17589397211E+03  0.19736876492E+03  0.89530664815E+02 0.  0.
        -13    1    3    3    0    0 -0.23759603841E+01  0.34160929340E+02  0.15150801404E+03  0.15532962563E+03  0.00000000000E+00 0.  1.
         13    1    3    3    0    0  0.23759603841E+01 -0.34160929340E+02  0.24385958070E+02  0.42039139288E+02  0.00000000000E+00 0. -1.
<mgrwt>
<rscale>  0 0.89530665E+02</rscale>
<asrwt>0</asrwt>
<pdfrwt beam="2">  1        1 0.16519073E-02 0.89530665E+02</pdfrwt>
<pdfrwt beam="1">  1       -1 0.28712516E-01 0.89530665E+02</pdfrwt>
<totfact> 0.74211436E+04</totfact>
</mgrwt>
</event>
<event>
 5    1  0.6079230E+000  0.9043193E+02  0.7546771E-02  0.1301809E+00
         -3   -1    0    0    0  501 -0.00000000000E+00  0.00000000000E+00  0.10833160977E+03  0.10833160977E+03  0.00000000000E+00 0.  1.
          3   -1    0    0  501    0  0.00000000000E+00 -0.00000000000E+00 -0.18872457311E+02  0.18872457311E+02  0.00000000000E+00 0. -1.
         23    2    1    2    0    0  0.00000000000E+00  0.00000000000E+00  0.89459152459E+02  0.12720406708E+03  0.90431934200E+02 0.  0.
        -13    1    3    3    0    0 -0.36448126186E+02 -0.12733176373E+02  0.77834194653E+02  0.86883609158E+02  0.00000000000E+00 0.  1.
         13    1    3    3    0    0  0.36448126186E+02  0.12733176373E+02  0.11624957805E+02  0.40320457922E+02  0.00000000000E+00 0. -1.
<mgrwt>
<rscale>  0 0.90431934E+02</rscale>
<asrwt>0</asrwt>
<pdfrwt beam="2">  1        3 0.29034550E-02 0.90431934E+02</pdfrwt>
<pdfrwt beam="1">  1       -3 0.16666401E-01 0.90431934E+02</pdfrwt>
<totfact> 0.33498824E+04</totfact>
</mgrwt>
</event>
<event>
 5    1  0.6079230E+000  0.9282024E+02  0.7546771E-02  0.1296162E+00
          1   -1    0    0  501    0  0.00000000000E+00  0.00000000000E+00  0.48430958641E+02  0.48430958641E+02  0.00000000000E+00 0. -1.
         -1   -1    0    0    0  501 -0.00000000000E+00 -0.00000000000E+00 -0.44473601118E+02  0.44473601118E+02  0.00000000000E+00 0.  1.
         23    2    1    2    0    0  0.00000000000E+00  0.00000000000E+00  0.39573575225E+01  0.92904559759E+02  0.92820237801E+02 0.  0.
        -13    1    3    3    0    0 -0.34917951133E+02  0.26753397592E+02 -0.12829745336E+02  0.45821501060E+02  0.00000000000E+00 0.  1.
         13    1    3    3    0    0  0.34917951133E+02 -0.26753397592E+02  0.16787102859E+02  0.47083058699E+02  0.00000000000E+00 0. -1.
<mgrwt>
<rscale>  0 0.92820238E+02</rscale>
<asrwt>0</asrwt>
<pdfrwt beam="1">  1        1 0.74509168E-02 0.92820238E+02</pdfrwt>
<pdfrwt beam="2">  1       -1 0.68420924E-02 0.92820238E+02</pdfrwt>
<totfact> 0.88754168E+04</totfact>
</mgrwt>
</event>
<event>
 5    1  0.6079230E+000  0.8924080E+02  0.7546771E-02  0.1304701E+00
          2   -1    0    0  501    0  0.00000000000E+00  0.00000000000E+00  0.72626748916E+02  0.72626748916E+02  0.00000000000E+00 0. -1.
         -2   -1    0    0    0  501 -0.00000000000E+00 -0.00000000000E+00 -0.27413866165E+02  0.27413866165E+02  0.00000000000E+00 0.  1.
         23    2    1    2    0    0  0.00000000000E+00  0.00000000000E+00  0.45212882751E+02  0.10004061508E+03  0.89240797280E+02 0.  0.
        -13    1    3    3    0    0  0.69923144532E+01 -0.23335045035E+02  0.64514605665E+02  0.68960504148E+02  0.00000000000E+00 0. -1.
         13    1    3    3    0    0 -0.69923144532E+01  0.23335045035E+02 -0.19301722914E+02  0.31080110934E+02  0.00000000000E+00 0.  1.
<mgrwt>
<rscale>  0 0.89240797E+02</rscale>
<asrwt>0</asrwt>
<pdfrwt beam="1">  1        2 0.11173346E-01 0.89240797E+02</pdfrwt>
<pdfrwt beam="2">  1       -2 0.42175179E-02 0.89240797E+02</pdfrwt>
<totfact> 0.11864376E+05</totfact>
</mgrwt>
</event>
<event>
 5    1  0.6079230E+000  0.9358612E+02  0.7546771E-02  0.1294393E+00
         -1   -1    0    0    0  501 -0.00000000000E+00  0.00000000000E+00  0.11237889706E+03  0.11237889706E+03  0.00000000000E+00 0.  1.
          1   -1    0    0  501    0  0.00000000000E+00 -0.00000000000E+00 -0.19484001455E+02  0.19484001455E+02  0.00000000000E+00 0. -1.
         23    2    1    2    0    0  0.00000000000E+00  0.00000000000E+00  0.92894895601E+02  0.13186289851E+03  0.93586122769E+02 0.  0.
        -13    1    3    3    0    0 -0.41313291183E+02 -0.16602294493E+02  0.66727581065E+02  0.80218416125E+02  0.00000000000E+00 0.  1.
         13    1    3    3    0    0  0.41313291183E+02  0.16602294493E+02  0.26167314535E+02  0.51644482385E+02  0.00000000000E+00 0. -1.
<mgrwt>
<rscale>  0 0.93586123E+02</rscale>
<asrwt>0</asrwt>
<pdfrwt beam="2">  1        1 0.29975387E-02 0.93586123E+02</pdfrwt>
<pdfrwt beam="1">  1       -1 0.17289061E-01 0.93586123E+02</pdfrwt>
<totfact> 0.74383763E+04</totfact>
</mgrwt>
</event>
<event>
 5    1  0.6079230E+000  0.8027002E+02  0.7546771E-02  0.1328287E+00
         -2   -1    0    0    0  501 -0.00000000000E+00  0.00000000000E+00  0.16730316718E+03  0.16730316718E+03  0.00000000000E+00 0.  1.
          2   -1    0    0  501    0  0.00000000000E+00 -0.00000000000E+00 -0.96281440582E+01  0.96281440582E+01  0.00000000000E+00 0. -1.
         23    2    1    2    0    0  0.00000000000E+00  0.00000000000E+00  0.15767502313E+03  0.17693131124E+03  0.80270019186E+02 0.  0.
        -13    1    3    3    0    0 -0.21160061382E+02  0.24244145984E+02  0.13170583834E+03  0.13558006736E+03  0.00000000000E+00 0.  1.
         13    1    3    3    0    0  0.21160061382E+02 -0.24244145984E+02  0.25969184784E+02  0.41351243881E+02  0.00000000000E+00 0. -1.
<mgrwt>
<rscale>  0 0.80270019E+02</rscale>
<asrwt>0</asrwt>
<pdfrwt beam="2">  1        2 0.14812531E-02 0.80270019E+02</pdfrwt>
<pdfrwt beam="1">  1       -2 0.25738947E-01 0.80270019E+02</pdfrwt>
<totfact> 0.92616273E+04</totfact>
</mgrwt>
</event>
<event>
 5    1  0.6079230E+000  0.8683894E+02  0.7546771E-02  0.1310692E+00
          2   -1    0    0  501    0  0.00000000000E+00  0.00000000000E+00  0.64910470158E+02  0.64910470158E+02  0.00000000000E+00 0. -1.
         -2   -1    0    0    0  501 -0.00000000000E+00 -0.00000000000E+00 -0.29043854792E+02  0.29043854792E+02  0.00000000000E+00 0.  1.
         23    2    1    2    0    0  0.00000000000E+00  0.00000000000E+00  0.35866615366E+02  0.93954324951E+02  0.86838937575E+02 0.  0.
        -13    1    3    3    0    0  0.99975115385E+01  0.37583294510E+02 -0.29566663845E+01  0.39002514525E+02  0.00000000000E+00 0.  1.
         13    1    3    3    0    0 -0.99975115385E+01 -0.37583294510E+02  0.38823281751E+02  0.54951810426E+02  0.00000000000E+00 0. -1.
<mgrwt>
<rscale>  0 0.86838938E+02</rscale>
<asrwt>0</asrwt>
<pdfrwt beam="1">  1        2 0.99862261E-02 0.86838938E+02</pdfrwt>
<pdfrwt beam="2">  1       -2 0.44682854E-02 0.86838938E+02</pdfrwt>
<totfact> 0.12416143E+05</totfact>
</mgrwt>
</event>
<event>
 5    1  0.6079230E+000  0.9337165E+02  0.7546771E-02  0.1294886E+00
          2   -1    0    0  501    0  0.00000000000E+00  0.00000000000E+00  0.52113635699E+02  0.52113635699E+02  0.00000000000E+00 0. -1.
         -2   -1    0    0    0  501 -0.00000000000E+00 -0.00000000000E+00 -0.41823340429E+02  0.41823340429E+02  0.00000000000E+00 0.  1.
         23    2    1    2    0    0  0.00000000000E+00  0.00000000000E+00  0.10290295270E+02  0.93936976128E+02  0.93371651519E+02 0.  0.
        -13    1    3    3    0    0  0.37004839602E+01  0.12865994817E+02 -0.39850792286E+02  0.42039422570E+02  0.00000000000E+00 0.  1.
         13    1    3    3    0    0 -0.37004839602E+01 -0.12865994817E+02  0.50141087555E+02  0.51897553559E+02  0.00000000000E+00 0. -1.
<mgrwt>
<rscale>  0 0.93371652E+02</rscale>
<asrwt>0</asrwt>
<pdfrwt beam="1">  1        2 0.80174824E-02 0.93371652E+02</pdfrwt>
<pdfrwt beam="2">  1       -2 0.64343600E-02 0.93371652E+02</pdfrwt>
<totfact> 0.95473352E+04</totfact>
</mgrwt>
</event>
<event>
 5    1  0.6079230E+000  0.9110904E+02  0.7546771E-02  0.1300188E+00
         -2   -1    0    0    0  501 -0.00000000000E+00  0.00000000000E+00  0.19566123915E+02  0.19566123915E+02  0.00000000000E+00 0.  1.
          2   -1    0    0  501    0  0.00000000000E+00 -0.00000000000E+00 -0.10606159469E+03  0.10606159469E+03  0.00000000000E+00 0. -1.
         23    2    1    2    0    0  0.00000000000E+00  0.00000000000E+00 -0.86495470779E+02  0.12562771861E+03  0.91109040263E+02 0.  0.
        -13    1    3    3    0    0  0.25968710375E+02  0.28600619656E+02 -0.76536717588E+02  0.85733531960E+02  0.00000000000E+00 0. -1.
         13    1    3    3    0    0 -0.25968710375E+02 -0.28600619656E+02 -0.99587531911E+01  0.39894186649E+02  0.00000000000E+00 0.  1.
<mgrwt>
<rscale>  0 0.91109040E+02</rscale>
<asrwt>0</asrwt>
<pdfrwt beam="2">  1        2 0.16317169E-01 0.91109040E+02</pdfrwt>
<pdfrwt beam="1">  1       -2 0.30101728E-02 0.91109040E+02</pdfrwt>
<totfact> 0.12516864E+05</totfact>
</mgrwt>
</event>
<event>
 5    1  0.6079230E+000  0.1020856E+03  0.7546771E-02  0.1275970E+00
         -2   -1    0    0    0  501 -0.00000000000E+00  0.00000000000E+00  0.13829744752E+02  0.13829744752E+02  0.00000000000E+00 0. -1.
          2   -1    0    0  501    0  0.00000000000E+00 -0.00000000000E+00 -0.18838882358E+03  0.18838882358E+03  0.00000000000E+00 0.  1.
         23    2    1    2    0    0  0.00000000000E+00  0.00000000000E+00 -0.17455907883E+03  0.20221856834E+03  0.10208563747E+03 0.  0.
        -13    1    3    3    0    0  0.42485770574E+02 -0.25409758316E+02 -0.11191515369E+03  0.12237523501E+03  0.00000000000E+00 0.  1.
         13    1    3    3    0    0 -0.42485770574E+02  0.25409758316E+02 -0.62643925140E+02  0.79843333322E+02  0.00000000000E+00 0. -1.
<mgrwt>
<rscale>  0 0.10208564E+03</rscale>
<asrwt>0</asrwt>
<pdfrwt beam="2">  1        2 0.28982893E-01 0.10208564E+03</pdfrwt>
<pdfrwt beam="1">  1       -2 0.21276532E-02 0.10208564E+03</pdfrwt>
<totfact> 0.11136436E+05</totfact>
</mgrwt>
</event>
<event>
 5    1  0.6079230E+000  0.9085110E+02  0.7546771E-02  0.1300804E+00
          2   -1    0    0  501    0  0.00000000000E+00  0.00000000000E+00  0.20453772042E+03  0.20453772042E+03  0.00000000000E+00 0. -1.
         -2   -1    0    0    0  501 -0.00000000000E+00 -0.00000000000E+00 -0.10088508440E+02  0.10088508440E+02  0.00000000000E+00 0.  1.
         23    2    1    2    0    0  0.00000000000E+00  0.00000000000E+00  0.19444921198E+03  0.21462622886E+03  0.90851098371E+02 0.  0.
        -13    1    3    3    0    0  0.24482766958E+02 -0.35017681165E+02  0.13365735980E+03  0.14032082419E+03  0.00000000000E+00 0. -1.
         13    1    3    3    0    0 -0.24482766958E+02  0.35017681165E+02  0.60791852184E+02  0.74305404676E+02  0.00000000000E+00 0.  1.
<mgrwt>
<rscale>  0 0.90851098E+02</rscale>
<asrwt>0</asrwt>
<pdfrwt beam="1">  1        2 0.31467339E-01 0.90851098E+02</pdfrwt>
<pdfrwt beam="2">  1       -2 0.15520784E-02 0.90851098E+02</pdfrwt>
<totfact> 0.15745035E+05</totfact>
</mgrwt>
</event>
<event>
 5    1  0.6079230E+000  0.9352788E+02  0.7546771E-02  0.1294527E+00
         -2   -1    0    0    0  501 -0.00000000000E+00  0.00000000000E+00  0.16112661030E+02  0.16112661030E+02  0.00000000000E+00 0.  1.
          2   -1    0    0  501    0  0.00000000000E+00 -0.00000000000E+00 -0.13572346789E+03  0.13572346789E+03  0.00000000000E+00 0. -1.
         23    2    1    2    0    0  0.00000000000E+00  0.00000000000E+00 -0.11961080686E+03  0.15183612892E+03  0.93527883155E+02 0.  0.
        -13    1    3    3    0    0  0.39834521896E+02  0.24159822123E+02 -0.53234997709E+02  0.70742145294E+02  0.00000000000E+00 0.  1.
         13    1    3    3    0    0 -0.39834521896E+02 -0.24159822123E+02 -0.66375809147E+02  0.81093983622E+02  0.00000000000E+00 0. -1.
<mgrwt>
<rscale>  0 0.93527883E+02</rscale>
<asrwt>0</asrwt>
<pdfrwt beam="2">  1        2 0.20880533E-01 0.93527883E+02</pdfrwt>
<pdfrwt beam="1">  1       -2 0.24788709E-02 0.93527883E+02</pdfrwt>
<totfact> 0.12611356E+05</totfact>
</mgrwt>
</event>
<event>
 5    1  0.6079230E+000  0.8826469E+02  0.7546771E-02  0.1307109E+00
          2   -1    0    0  501    0  0.00000000000E+00  0.00000000000E+00  0.47827624423E+02  0.47827624423E+02  0.00000000000E+00 0. -1.
         -2   -1    0    0    0  501 -0.00000000000E+00 -0.00000000000E+00 -0.40722575412E+02  0.40722575412E+02  0.00000000000E+00 0.  1.
         23    2    1    2    0    0  0.00000000000E+00  0.00000000000E+00  0.71050490113E+01  0.88550199835E+02  0.88264693788E+02 0.  0.
        -13    1    3    3    0    0 -0.11131492675E+02  0.12466977152E+02 -0.37424771541E+02  0.40987183038E+02  0.00000000000E+00 0.  1.
         13    1    3    3    0    0  0.11131492675E+02 -0.12466977152E+02  0.44529820552E+02  0.47563016798E+02  0.00000000000E+00 0. -1.
<mgrwt>
<rscale>  0 0.88264694E+02</rscale>
<asrwt>0</asrwt>
<pdfrwt beam="1">  1        2 0.73580961E-02 0.88264694E+02</pdfrwt>
<pdfrwt beam="2">  1       -2 0.62650116E-02 0.88264694E+02</pdfrwt>
<totfact> 0.10959295E+05</totfact>
</mgrwt>
</event>
<event>
 5    1  0.6079230E+000  0.8489205E+02  0.7546771E-02  0.1315715E+00
         -4   -1    0    0    0  501 -0.00000000000E+00  0.00000000000E+00  0.37670571592E+02  0.37670571592E+02  0.00000000000E+00 0.  1.
          4   -1    0    0  501    0  0.00000000000E+00 -0.00000000000E+00 -0.47826862342E+02  0.47826862342E+02  0.00000000000E+00 0. -1.
         23    2    1    2    0    0  0.00000000000E+00  0.00000000000E+00 -0.10156290750E+02  0.85497433934E+02  0.84892054796E+02 0.  0.
        -13    1    3    3    0    0 -0.23589718392E+02  0.34222781822E+02  0.35850346423E+01  0.41719612688E+02  0.00000000000E+00 0.  1.
         13    1    3    3    0    0  0.23589718392E+02 -0.34222781822E+02 -0.13741325393E+02  0.43777821246E+02  0.00000000000E+00 0. -1.
<mgrwt>
<rscale>  0 0.84892055E+02</rscale>
<asrwt>0</asrwt>
<pdfrwt beam="2">  1        4 0.73579788E-02 0.84892055E+02</pdfrwt>
<pdfrwt beam="1">  1       -4 0.57954726E-02 0.84892055E+02</pdfrwt>
<totfact> 0.33211401E+04</totfact>
</mgrwt>
</event>
<event>
 5    1  0.6079230E+000  0.7220605E+02  0.7546771E-02  0.1352748E+00
          2   -1    0    0  501    0  0.00000000000E+00  0.00000000000E+00  0.73226246617E+01  0.73226246617E+01  0.00000000000E+00 0.  1.
         -2   -1    0    0    0  501 -0.00000000000E+00 -0.00000000000E+00 -0.17800015663E+03  0.17800015663E+03  0.00000000000E+00 0. -1.
         23    2    1    2    0    0  0.00000000000E+00  0.00000000000E+00 -0.17067753197E+03  0.18532278129E+03  0.72206047855E+02 0.  0.
        -13    1    3    3    0    0  0.31933691829E+02  0.16124198475E+02 -0.97827738247E+02  0.10416341402E+03  0.00000000000E+00 0. -1.
         13    1    3    3    0    0 -0.31933691829E+02 -0.16124198475E+02 -0.72849793718E+02  0.81159367266E+02  0.00000000000E+00 0.  1.
<mgrwt>
<rscale>  0 0.72206048E+02</rscale>
<asrwt>0</asrwt>
<pdfrwt beam="1">  1        2 0.11265577E-02 0.72206048E+02</pdfrwt>
<pdfrwt beam="2">  1       -2 0.27384638E-01 0.72206048E+02</pdfrwt>
<totfact> 0.11818314E+05</totfact>
</mgrwt>
</event>
<event>
 5    1  0.6079230E+000  0.9344120E+02  0.7546771E-02  0.1294726E+00
          1   -1    0    0  501    0  0.00000000000E+00  0.00000000000E+00  0.25216407346E+03  0.25216407346E+03  0.00000000000E+00 0. -1.
         -1   -1    0    0    0  501 -0.00000000000E+00 -0.00000000000E+00 -0.86563266213E+01  0.86563266213E+01  0.00000000000E+00 0.  1.
         23    2    1    2    0    0  0.00000000000E+00  0.00000000000E+00  0.24350774684E+03  0.26082040008E+03  0.93441202519E+02 0.  0.
        -13    1    3    3    0    0 -0.45124786858E+02  0.11191309763E+02  0.13464304601E+03  0.14244381925E+03  0.00000000000E+00 0. -1.
         13    1    3    3    0    0  0.45124786858E+02 -0.11191309763E+02  0.10886470083E+03  0.11837658083E+03  0.00000000000E+00 0.  1.
<mgrwt>
<rscale>  0 0.93441203E+02</rscale>
<asrwt>0</asrwt>
<pdfrwt beam="1">  1        1 0.38794467E-01 0.93441203E+02</pdfrwt>
<pdfrwt beam="2">  1       -1 0.13317427E-02 0.93441203E+02</pdfrwt>
<totfact> 0.11600568E+05</totfact>
</mgrwt>
</event>
<event>
 5    1  0.6079230E+000  0.9325168E+02  0.7546771E-02  0.1295163E+00
         -2   -1    0    0    0  501 -0.00000000000E+00  0.00000000000E+00  0.72050861815E+01  0.72050861815E+01  0.00000000000E+00 0.  1.
          2   -1    0    0  501    0  0.00000000000E+00 -0.00000000000E+00 -0.30172697784E+03  0.30172697784E+03  0.00000000000E+00 0. -1.
         23    2    1    2    0    0  0.00000000000E+00  0.00000000000E+00 -0.29452189166E+03  0.30893206402E+03  0.93251678347E+02 0.  0.
        -13    1    3    3    0    0  0.22413406410E+02  0.34104282842E+02 -0.22196675305E+03  0.22568717809E+03  0.00000000000E+00 0. -1.
         13    1    3    3    0    0 -0.22413406410E+02 -0.34104282842E+02 -0.72555138608E+02  0.83244885930E+02  0.00000000000E+00 0.  1.
<mgrwt>
<rscale>  0 0.93251678E+02</rscale>
<asrwt>0</asrwt>
<pdfrwt beam="2">  1        2 0.46419530E-01 0.93251678E+02</pdfrwt>
<pdfrwt beam="1">  1       -2 0.11084749E-02 0.93251678E+02</pdfrwt>
<totfact> 0.16953542E+05</totfact>
</mgrwt>
</event>
<event>
 5    1  0.6079230E+000  0.9270528E+02  0.7546771E-02  0.1296430E+00
          2   -1    0    0  501    0  0.00000000000E+00  0.00000000000E+00  0.93858561544E+02  0.93858561544E+02  0.00000000000E+00 0. -1.
         -2   -1    0    0    0  501 -0.00000000000E+00 -0.00000000000E+00 -0.22891540376E+02  0.22891540376E+02  0.00000000000E+00 0.  1.
         23    2    1    2    0    0  0.00000000000E+00  0.00000000000E+00  0.70967021168E+02  0.11675010192E+03  0.92705276037E+02 0.  0.
        -13    1    3    3    0    0 -0.21970898287E+02  0.11203521041E+02 -0.13942936502E+02  0.28330985397E+02  0.00000000000E+00 0.  1.
         13    1    3    3    0    0  0.21970898287E+02 -0.11203521041E+02  0.84909957670E+02  0.88419116524E+02  0.00000000000E+00 0. -1.
<mgrwt>
<rscale>  0 0.92705276E+02</rscale>
<asrwt>0</asrwt>
<pdfrwt beam="1">  1        2 0.14439778E-01 0.92705276E+02</pdfrwt>
<pdfrwt beam="2">  1       -2 0.35217755E-02 0.92705276E+02</pdfrwt>
<totfact> 0.11494286E+05</totfact>
</mgrwt>
</event>
<event>
 5    1  0.6079230E+000  0.9130547E+02  0.7546771E-02  0.1299721E+00
          1   -1    0    0  501    0  0.00000000000E+00  0.00000000000E+00  0.20470348252E+02  0.20470348252E+02  0.00000000000E+00 0. -1.
         -1   -1    0    0    0  501 -0.00000000000E+00 -0.00000000000E+00 -0.10181420257E+03  0.10181420257E+03  0.00000000000E+00 0.  1.
         23    2    1    2    0    0  0.00000000000E+00  0.00000000000E+00 -0.81343854317E+02  0.12228455082E+03  0.91305469356E+02 0.  0.
        -13    1    3    3    0    0 -0.16967041215E+02  0.64368349535E+00 -0.97428104622E+02  0.98896564078E+02  0.00000000000E+00 0.  1.
         13    1    3    3    0    0  0.16967041215E+02 -0.64368349535E+00  0.16084250305E+02  0.23387986744E+02  0.00000000000E+00 0. -1.
<mgrwt>
<rscale>  0 0.91305469E+02</rscale>
<asrwt>0</asrwt>
<pdfrwt beam="1">  1        1 0.31492843E-02 0.91305469E+02</pdfrwt>
<pdfrwt beam="2">  1       -1 0.15663724E-01 0.91305469E+02</pdfrwt>
<totfact> 0.80803473E+04</totfact>
</mgrwt>
</event>
<event>
 5    1  0.6079230E+000  0.9119712E+02  0.7546771E-02  0.1299978E+00
          2   -1    0    0  501    0  0.00000000000E+00  0.00000000000E+00  0.92899970558E+02  0.92899970558E+02  0.00000000000E+00 0. -1.
         -2   -1    0    0    0  501 -0.00000000000E+00 -0.00000000000E+00 -0.22381373050E+02  0.22381373050E+02  0.00000000000E+00 0.  1.
         23    2    1    2    0    0  0.00000000000E+00  0.00000000000E+00  0.70518597508E+02  0.11528134361E+03  0.91197124898E+02 0.  0.
        -13    1    3    3    0    0 -0.18102372178E+02  0.40905337049E+02  0.46443915289E+02  0.64482398722E+02  0.00000000000E+00 0.  1.
         13    1    3    3    0    0  0.18102372178E+02 -0.40905337049E+02  0.24074682219E+02  0.50798944886E+02  0.00000000000E+00 0. -1.
<mgrwt>
<rscale>  0 0.91197125E+02</rscale>
<asrwt>0</asrwt>
<pdfrwt beam="1">  1        2 0.14292303E-01 0.91197125E+02</pdfrwt>
<pdfrwt beam="2">  1       -2 0.34432882E-02 0.91197125E+02</pdfrwt>
<totfact> 0.11990943E+05</totfact>
</mgrwt>
</event>
<event>
 5    1  0.6079230E+000  0.8918118E+02  0.7546771E-02  0.1304847E+00
         -2   -1    0    0    0  501 -0.00000000000E+00  0.00000000000E+00  0.53852467715E+01  0.53852467715E+01  0.00000000000E+00 0.  1.
          2   -1    0    0  501    0  0.00000000000E+00 -0.00000000000E+00 -0.36921626924E+03  0.36921626924E+03  0.00000000000E+00 0. -1.
         23    2    1    2    0    0  0.00000000000E+00  0.00000000000E+00 -0.36383102247E+03  0.37460151602E+03  0.89181180121E+02 0.  0.
        -13    1    3    3    0    0 -0.54234434164E+00 -0.43970196436E+02 -0.21296718972E+03  0.21745964272E+03  0.00000000000E+00 0. -1.
         13    1    3    3    0    0  0.54234434164E+00  0.43970196436E+02 -0.15086383275E+03  0.15714187330E+03  0.00000000000E+00 0.  1.
<mgrwt>
<rscale>  0 0.89181180E+02</rscale>
<asrwt>0</asrwt>
<pdfrwt beam="2">  1        2 0.56802509E-01 0.89181180E+02</pdfrwt>
<pdfrwt beam="1">  1       -2 0.82849942E-03 0.89181180E+02</pdfrwt>
<totfact> 0.20566702E+05</totfact>
</mgrwt>
</event>
<event>
 5    1  0.6079230E+000  0.9159121E+02  0.7546771E-02  0.1299043E+00
         -2   -1    0    0    0  501 -0.00000000000E+00  0.00000000000E+00  0.82317631870E+01  0.82317631870E+01  0.00000000000E+00 0.  1.
          2   -1    0    0  501    0  0.00000000000E+00 -0.00000000000E+00 -0.25477376108E+03  0.25477376108E+03  0.00000000000E+00 0. -1.
         23    2    1    2    0    0  0.00000000000E+00  0.00000000000E+00 -0.24654199789E+03  0.26300552426E+03  0.91591206290E+02 0.  0.
        -13    1    3    3    0    0 -0.24087500185E+01 -0.38897329019E+02 -0.54209242841E+02  0.66764109302E+02  0.00000000000E+00 0.  1.
         13    1    3    3    0    0  0.24087500185E+01  0.38897329019E+02 -0.19233275505E+03  0.19624141496E+03  0.00000000000E+00 0. -1.
<mgrwt>
<rscale>  0 0.91591206E+02</rscale>
<asrwt>0</asrwt>
<pdfrwt beam="2">  1        2 0.39195967E-01 0.91591206E+02</pdfrwt>
<pdfrwt beam="1">  1       -2 0.12664250E-02 0.91591206E+02</pdfrwt>
<totfact> 0.16699876E+05</totfact>
</mgrwt>
</event>
<event>
 5    1  0.6079230E+000  0.8859572E+02  0.7546771E-02  0.1306288E+00
         -2   -1    0    0    0  501 -0.00000000000E+00  0.00000000000E+00  0.13033514853E+03  0.13033514853E+03  0.00000000000E+00 0.  1.
          2   -1    0    0  501    0  0.00000000000E+00 -0.00000000000E+00 -0.15055802508E+02  0.15055802508E+02  0.00000000000E+00 0. -1.
         23    2    1    2    0    0  0.00000000000E+00  0.00000000000E+00  0.11527934603E+03  0.14539095104E+03  0.88595716740E+02 0.  0.
        -13    1    3    3    0    0  0.33740648356E+02  0.70221038733E+00  0.10550213894E+02  0.35358612304E+02  0.00000000000E+00 0. -1.
         13    1    3    3    0    0 -0.33740648356E+02 -0.70221038733E+00  0.10472913213E+03  0.11003233874E+03  0.00000000000E+00 0.  1.
<mgrwt>
<rscale>  0 0.88595717E+02</rscale>
<asrwt>0</asrwt>
<pdfrwt beam="2">  1        2 0.23162774E-02 0.88595717E+02</pdfrwt>
<pdfrwt beam="1">  1       -2 0.20051561E-01 0.88595717E+02</pdfrwt>
<totfact> 0.78882656E+04</totfact>
</mgrwt>
</event>
<event>
 5    1  0.6079230E+000  0.9229052E+02  0.7546771E-02  0.1297398E+00
          1   -1    0    0  501    0  0.00000000000E+00  0.00000000000E+00  0.39793437401E+02  0.39793437401E+02  0.00000000000E+00 0. -1.
         -1   -1    0    0    0  501 -0.00000000000E+00 -0.00000000000E+00 -0.53510957480E+02  0.53510957480E+02  0.00000000000E+00 0.  1.
         23    2    1    2    0    0  0.00000000000E+00  0.00000000000E+00 -0.13717520080E+02  0.93304394881E+02  0.92290518186E+02 0.  0.
        -13    1    3    3    0    0  0.28687034705E+02  0.36057533268E+02 -0.43225615527E+01  0.46279328041E+02  0.00000000000E+00 0.  1.
         13    1    3    3    0    0 -0.28687034705E+02 -0.36057533268E+02 -0.93949585268E+01  0.47025066840E+02  0.00000000000E+00 0. -1.
<mgrwt>
<rscale>  0 0.92290518E+02</rscale>
<asrwt>0</asrwt>
<pdfrwt beam="1">  1        1 0.61220673E-02 0.92290518E+02</pdfrwt>
<pdfrwt beam="2">  1       -1 0.82324550E-02 0.92290518E+02</pdfrwt>
<totfact> 0.87531426E+04</totfact>
</mgrwt>
</event>
<event>
 5    1  0.6079230E+000  0.9479937E+02  0.7546771E-02  0.1291629E+00
         -3   -1    0    0    0  501 -0.00000000000E+00  0.00000000000E+00  0.47725046092E+02  0.47725046092E+02  0.00000000000E+00 0.  1.
          3   -1    0    0  501    0  0.00000000000E+00 -0.00000000000E+00 -0.47076539061E+02  0.47076539061E+02  0.00000000000E+00 0. -1.
         23    2    1    2    0    0  0.00000000000E+00  0.00000000000E+00  0.64850703120E+00  0.94801585153E+02  0.94799367013E+02 0.  0.
        -13    1    3    3    0    0 -0.25892997262E+02  0.15713407402E+02 -0.36137147003E+02  0.47151371909E+02  0.00000000000E+00 0. -1.
         13    1    3    3    0    0  0.25892997262E+02 -0.15713407402E+02  0.36785654035E+02  0.47650213243E+02  0.00000000000E+00 0.  1.
<mgrwt>
<rscale>  0 0.94799367E+02</rscale>
<asrwt>0</asrwt>
<pdfrwt beam="2">  1        3 0.72425445E-02 0.94799367E+02</pdfrwt>
<pdfrwt beam="1">  1       -3 0.73423147E-02 0.94799367E+02</pdfrwt>
<totfact> 0.31518864E+04</totfact>
</mgrwt>
</event>
<event>
 5    1  0.6079230E+000  0.8962747E+02  0.7546771E-02  0.1303756E+00
         -2   -1    0    0    0  501 -0.00000000000E+00  0.00000000000E+00  0.56423115783E+01  0.56423115783E+01  0.00000000000E+00 0.  1.
          2   -1    0    0  501    0  0.00000000000E+00 -0.00000000000E+00 -0.35593051482E+03  0.35593051482E+03  0.00000000000E+00 0. -1.
         23    2    1    2    0    0  0.00000000000E+00  0.00000000000E+00 -0.35028820325E+03  0.36157282640E+03  0.89627470451E+02 0.  0.
        -13    1    3    3    0    0 -0.29969310436E+02 -0.33223578504E+02 -0.18527391879E+03  0.19060008058E+03  0.00000000000E+00 0.  1.
         13    1    3    3    0    0  0.29969310436E+02  0.33223578504E+02 -0.16501428446E+03  0.17097274582E+03  0.00000000000E+00 0. -1.
<mgrwt>
<rscale>  0 0.89627470E+02</rscale>
<asrwt>0</asrwt>
<pdfrwt beam="2">  1        2 0.54758534E-01 0.89627470E+02</pdfrwt>
<pdfrwt beam="1">  1       -2 0.86804804E-03 0.89627470E+02</pdfrwt>
<totfact> 0.20028126E+05</totfact>
</mgrwt>
</event>
<event>
 5    1  0.6079230E+000  0.9784989E+02  0.7546771E-02  0.1284883E+00
         -2   -1    0    0    0  501 -0.00000000000E+00  0.00000000000E+00  0.49000156534E+02  0.49000156534E+02  0.00000000000E+00 0.  1.
          2   -1    0    0  501    0  0.00000000000E+00 -0.00000000000E+00 -0.48849849373E+02  0.48849849373E+02  0.00000000000E+00 0. -1.
         23    2    1    2    0    0  0.00000000000E+00  0.00000000000E+00  0.15030716128E+00  0.97850005907E+02  0.97849890464E+02 0.  0.
        -13    1    3    3    0    0  0.10996821954E+02  0.33407944559E+02  0.34084448521E+02  0.48977244551E+02  0.00000000000E+00 0.  1.
         13    1    3    3    0    0 -0.10996821954E+02 -0.33407944559E+02 -0.33934141360E+02  0.48872761357E+02  0.00000000000E+00 0. -1.
<mgrwt>
<rscale>  0 0.97849890E+02</rscale>
<asrwt>0</asrwt>
<pdfrwt beam="2">  1        2 0.75153614E-02 0.97849890E+02</pdfrwt>
<pdfrwt beam="1">  1       -2 0.75384857E-02 0.97849890E+02</pdfrwt>
<totfact> 0.81977139E+04</totfact>
</mgrwt>
</event>
<event>
 5    1  0.6079230E+000  0.9496534E+02  0.7546771E-02  0.1291254E+00
          2   -1    0    0  501    0  0.00000000000E+00  0.00000000000E+00  0.91816044890E+02  0.91816044890E+02  0.00000000000E+00 0. -1.
         -2   -1    0    0    0  501 -0.00000000000E+00 -0.00000000000E+00 -0.24555662726E+02  0.24555662726E+02  0.00000000000E+00 0.  1.
         23    2    1    2    0    0  0.00000000000E+00  0.00000000000E+00  0.67260382163E+02  0.11637170762E+03  0.94965337491E+02 0.  0.
        -13    1    3    3    0    0 -0.18988570560E+01 -0.22814706768E+02 -0.17345896801E+02  0.28722754723E+02  0.00000000000E+00 0.  1.
         13    1    3    3    0    0  0.18988570560E+01  0.22814706768E+02  0.84606278965E+02  0.87648952893E+02  0.00000000000E+00 0. -1.
<mgrwt>
<rscale>  0 0.94965337E+02</rscale>
<asrwt>0</asrwt>
<pdfrwt beam="1">  1        2 0.14125545E-01 0.94965337E+02</pdfrwt>
<pdfrwt beam="2">  1       -2 0.37777943E-02 0.94965337E+02</pdfrwt>
<totfact> 0.10679875E+05</totfact>
</mgrwt>
</event>
<event>
 5    1  0.6079230E+000  0.9152638E+02  0.7546771E-02  0.1299197E+00
         -3   -1    0    0    0  501 -0.00000000000E+00  0.00000000000E+00  0.14421567627E+02  0.14421567627E+02  0.00000000000E+00 0.  1.
          3   -1    0    0  501    0  0.00000000000E+00 -0.00000000000E+00 -0.14521788721E+03  0.14521788721E+03  0.00000000000E+00 0. -1.
         23    2    1    2    0    0  0.00000000000E+00  0.00000000000E+00 -0.13079631958E+03  0.15963945483E+03  0.91526380481E+02 0.  0.
        -13    1    3    3    0    0  0.18951115842E+02  0.27634710884E+02 -0.11976118610E+03  0.12436061970E+03  0.00000000000E+00 0. -1.
         13    1    3    3    0    0 -0.18951115842E+02 -0.27634710884E+02 -0.11035133483E+02  0.35278835132E+02  0.00000000000E+00 0.  1.
<mgrwt>
<rscale>  0 0.91526380E+02</rscale>
<asrwt>0</asrwt>
<pdfrwt beam="2">  1        3 0.22341214E-01 0.91526380E+02</pdfrwt>
<pdfrwt beam="1">  1       -3 0.22187027E-02 0.91526380E+02</pdfrwt>
<totfact> 0.30410460E+04</totfact>
</mgrwt>
</event>
<event>
 5    1  0.6079230E+000  0.9301040E+02  0.7546771E-02  0.1295721E+00
          1   -1    0    0  501    0  0.00000000000E+00  0.00000000000E+00  0.16864926811E+03  0.16864926811E+03  0.00000000000E+00 0. -1.
         -1   -1    0    0    0  501 -0.00000000000E+00 -0.00000000000E+00 -0.12823853592E+02  0.12823853592E+02  0.00000000000E+00 0.  1.
         23    2    1    2    0    0  0.00000000000E+00  0.00000000000E+00  0.15582541452E+03  0.18147312171E+03  0.93010397754E+02 0.  0.
        -13    1    3    3    0    0 -0.28562771192E+02 -0.29979499372E+02  0.36609533966E+02  0.55270790279E+02  0.00000000000E+00 0.  1.
         13    1    3    3    0    0  0.28562771192E+02  0.29979499372E+02  0.11921588056E+03  0.12620233143E+03  0.00000000000E+00 0. -1.
<mgrwt>
<rscale>  0 0.93010398E+02</rscale>
<asrwt>0</asrwt>
<pdfrwt beam="1">  1        1 0.25946040E-01 0.93010398E+02</pdfrwt>
<pdfrwt beam="2">  1       -1 0.19729007E-02 0.93010398E+02</pdfrwt>
<totfact> 0.10861413E+05</totfact>
</mgrwt>
</event>
<event>
 5    1  0.6079230E+000  0.9279339E+02  0.7546771E-02  0.1296225E+00
          2   -1    0    0  501    0  0.00000000000E+00  0.00000000000E+00  0.26534634490E+02  0.26534634490E+02  0.00000000000E+00 0.  1.
         -2   -1    0    0    0  501 -0.00000000000E+00 -0.00000000000E+00 -0.81126178041E+02  0.81126178041E+02  0.00000000000E+00 0. -1.
         23    2    1    2    0    0  0.00000000000E+00  0.00000000000E+00 -0.54591543551E+02  0.10766081253E+03  0.92793393772E+02 0.  0.
        -13    1    3    3    0    0  0.40177813005E+02 -0.10753802155E+02 -0.34405356711E+01  0.41734137158E+02  0.00000000000E+00 0.  1.
         13    1    3    3    0    0 -0.40177813005E+02  0.10753802155E+02 -0.51151007880E+02  0.65926675373E+02  0.00000000000E+00 0. -1.
<mgrwt>
<rscale>  0 0.92793394E+02</rscale>
<asrwt>0</asrwt>
<pdfrwt beam="1">  1        2 0.40822515E-02 0.92793394E+02</pdfrwt>
<pdfrwt beam="2">  1       -2 0.12480950E-01 0.92793394E+02</pdfrwt>
<totfact> 0.81163325E+04</totfact>
</mgrwt>
</event>
<event>
 5    1  0.6079230E+000  0.7687977E+02  0.7546771E-02  0.1338147E+00
         -3   -1    0    0    0  501 -0.00000000000E+00  0.00000000000E+00  0.74534235163E+02  0.74534235163E+02  0.00000000000E+00 0.  1.
          3   -1    0    0  501    0  0.00000000000E+00 -0.00000000000E+00 -0.19824779917E+02  0.19824779917E+02  0.00000000000E+00 0. -1.
         23    2    1    2    0    0  0.00000000000E+00  0.00000000000E+00  0.54709455246E+02  0.94359015080E+02  0.76879771289E+02 0.  0.
        -13    1    3    3    0    0  0.11594611886E+02  0.32930854639E+02  0.47097599070E+02  0.58626444973E+02  0.00000000000E+00 0.  1.
         13    1    3    3    0    0 -0.11594611886E+02 -0.32930854639E+02  0.76118561768E+01  0.35732570107E+02  0.00000000000E+00 0. -1.
<mgrwt>
<rscale>  0 0.76879771E+02</rscale>
<asrwt>0</asrwt>
<pdfrwt beam="2">  1        3 0.30499662E-02 0.76879771E+02</pdfrwt>
<pdfrwt beam="1">  1       -3 0.11466805E-01 0.76879771E+02</pdfrwt>
<totfact> 0.55561435E+04</totfact>
</mgrwt>
</event>
<event>
 5    1  0.6079230E+000  0.8917282E+02  0.7546771E-02  0.1304867E+00
          2   -1    0    0  501    0  0.00000000000E+00  0.00000000000E+00  0.13503584737E+02  0.13503584737E+02  0.00000000000E+00 0. -1.
         -2   -1    0    0    0  501 -0.00000000000E+00 -0.00000000000E+00 -0.14721629879E+03  0.14721629879E+03  0.00000000000E+00 0.  1.
         23    2    1    2    0    0  0.00000000000E+00  0.00000000000E+00 -0.13371271405E+03  0.16071988353E+03  0.89172815708E+02 0.  0.
        -13    1    3    3    0    0  0.80710425820E+01  0.43797630530E+02 -0.70710839489E+02  0.83566721783E+02  0.00000000000E+00 0.  1.
         13    1    3    3    0    0 -0.80710425820E+01 -0.43797630530E+02 -0.63001874563E+02  0.77153161742E+02  0.00000000000E+00 0. -1.
<mgrwt>
<rscale>  0 0.89172816E+02</rscale>
<asrwt>0</asrwt>
<pdfrwt beam="1">  1        2 0.20774747E-02 0.89172816E+02</pdfrwt>
<pdfrwt beam="2">  1       -2 0.22648659E-01 0.89172816E+02</pdfrwt>
<totfact> 0.74396119E+04</totfact>
</mgrwt>
</event>
<event>
 5    1  0.6079230E+000  0.8525595E+02  0.7546771E-02  0.1314765E+00
          2   -1    0    0  501    0  0.00000000000E+00  0.00000000000E+00  0.28209837315E+03  0.28209837315E+03  0.00000000000E+00 0. -1.
         -2   -1    0    0    0  501 -0.00000000000E+00 -0.00000000000E+00 -0.64415271244E+01  0.64415271244E+01  0.00000000000E+00 0.  1.
         23    2    1    2    0    0  0.00000000000E+00  0.00000000000E+00  0.27565684602E+03  0.28853990027E+03  0.85255951637E+02 0.  0.
        -13    1    3    3    0    0 -0.28023921514E+02  0.32055736965E+02  0.14479228382E+03  0.15092288065E+03  0.00000000000E+00 0.  1.
         13    1    3    3    0    0  0.28023921514E+02 -0.32055736965E+02  0.13086456220E+03  0.13761701962E+03  0.00000000000E+00 0. -1.
<mgrwt>
<rscale>  0 0.85255952E+02</rscale>
<asrwt>0</asrwt>
<pdfrwt beam="1">  1        2 0.43399740E-01 0.85255952E+02</pdfrwt>
<pdfrwt beam="2">  1       -2 0.99100439E-03 0.85255952E+02</pdfrwt>
<totfact> 0.20992059E+05</totfact>
</mgrwt>
</event>
<event>
 5    1  0.6079230E+000  0.1133803E+03  0.7546771E-02  0.1254435E+00
          2   -1    0    0  501    0  0.00000000000E+00  0.00000000000E+00  0.65396530463E+02  0.65396530463E+02  0.00000000000E+00 0. -1.
         -2   -1    0    0    0  501 -0.00000000000E+00 -0.00000000000E+00 -0.49142883552E+02  0.49142883552E+02  0.00000000000E+00 0.  1.
         23    2    1    2    0    0  0.00000000000E+00  0.00000000000E+00  0.16253646911E+02  0.11453941402E+03  0.11338031719E+03 0.  0.
        -13    1    3    3    0    0 -0.18838797944E+02  0.39527184126E+02  0.44501525489E+02  0.62431437303E+02  0.00000000000E+00 0. -1.
         13    1    3    3    0    0  0.18838797944E+02 -0.39527184126E+02 -0.28247878578E+02  0.52107976712E+02  0.00000000000E+00 0.  1.
<mgrwt>
<rscale>  0 0.11338032E+03</rscale>
<asrwt>0</asrwt>
<pdfrwt beam="1">  1        2 0.10061005E-01 0.11338032E+03</pdfrwt>
<pdfrwt beam="2">  1       -2 0.75604436E-02 0.11338032E+03</pdfrwt>
<totfact> 0.58132652E+04</totfact>
</mgrwt>
</event>
<event>
 5    1  0.6079230E+000  0.9434306E+02  0.7546771E-02  0.1292663E+00
         -2   -1    0    0    0  501 -0.00000000000E+00  0.00000000000E+00  0.79985465987E+01  0.79985465987E+01  0.00000000000E+00 0.  1.
          2   -1    0    0  501    0  0.00000000000E+00 -0.00000000000E+00 -0.27819471938E+03  0.27819471938E+03  0.00000000000E+00 0. -1.
         23    2    1    2    0    0  0.00000000000E+00  0.00000000000E+00 -0.27019617278E+03  0.28619326598E+03  0.94343063899E+02 0.  0.
        -13    1    3    3    0    0  0.40405602212E+02 -0.14022856589E+02 -0.74739048149E+02  0.86111430804E+02  0.00000000000E+00 0.  1.
         13    1    3    3    0    0 -0.40405602212E+02  0.14022856589E+02 -0.19545712463E+03  0.20008183517E+03  0.00000000000E+00 0. -1.
<mgrwt>
<rscale>  0 0.94343064E+02</rscale>
<asrwt>0</asrwt>
<pdfrwt beam="2">  1        2 0.42799189E-01 0.94343064E+02</pdfrwt>
<pdfrwt beam="1">  1       -2 0.12305456E-02 0.94343064E+02</pdfrwt>
<totfact> 0.15940978E+05</totfact>
</mgrwt>
</event>
<event>
 5    1  0.6079230E+000  0.9445205E+02  0.7546771E-02  0.1292415E+00
          1   -1    0    0  501    0  0.00000000000E+00  0.00000000000E+00  0.13353894295E+02  0.13353894295E+02  0.00000000000E+00 0. -1.
         -1   -1    0    0    0  501 -0.00000000000E+00 -0.00000000000E+00 -0.16701474854E+03  0.16701474854E+03  0.00000000000E+00 0.  1.
         23    2    1    2    0    0  0.00000000000E+00  0.00000000000E+00 -0.15366085425E+03  0.18036864284E+03  0.94452047046E+02 0.  0.
        -13    1    3    3    0    0  0.28011989106E+02 -0.21978764860E+02 -0.17583819132E+02  0.39710556955E+02  0.00000000000E+00 0.  1.
         13    1    3    3    0    0 -0.28011989106E+02  0.21978764860E+02 -0.13607703511E+03  0.14065808588E+03  0.00000000000E+00 0. -1.
<mgrwt>
<rscale>  0 0.94452047E+02</rscale>
<asrwt>0</asrwt>
<pdfrwt beam="1">  1        1 0.20544453E-02 0.94452047E+02</pdfrwt>
<pdfrwt beam="2">  1       -1 0.25694577E-01 0.94452047E+02</pdfrwt>
<totfact> 0.66466663E+04</totfact>
</mgrwt>
</event>
<event>
 5    1  0.6079230E+000  0.8769181E+02  0.7546771E-02  0.1308540E+00
          2   -1    0    0  501    0  0.00000000000E+00  0.00000000000E+00  0.30836447028E+03  0.30836447028E+03  0.00000000000E+00 0. -1.
         -2   -1    0    0    0  501 -0.00000000000E+00 -0.00000000000E+00 -0.62343874774E+01  0.62343874774E+01  0.00000000000E+00 0.  1.
         23    2    1    2    0    0  0.00000000000E+00  0.00000000000E+00  0.30213008280E+03  0.31459885775E+03  0.87691814714E+02 0.  0.
        -13    1    3    3    0    0  0.35123815981E+02  0.24539531718E+02  0.18444903496E+03  0.18936028508E+03  0.00000000000E+00 0. -1.
         13    1    3    3    0    0 -0.35123815981E+02 -0.24539531718E+02  0.11768104783E+03  0.12523857267E+03  0.00000000000E+00 0.  1.
<mgrwt>
<rscale>  0 0.87691815E+02</rscale>
<asrwt>0</asrwt>
<pdfrwt beam="1">  1        2 0.47440676E-01 0.87691815E+02</pdfrwt>
<pdfrwt beam="2">  1       -2 0.95913678E-03 0.87691815E+02</pdfrwt>
<totfact> 0.20133127E+05</totfact>
</mgrwt>
</event>
<event>
 5    1  0.6079230E+000  0.9164884E+02  0.7546771E-02  0.1298907E+00
         -1   -1    0    0    0  501 -0.00000000000E+00  0.00000000000E+00  0.86252605740E+02  0.86252605740E+02  0.00000000000E+00 0.  1.
          1   -1    0    0  501    0  0.00000000000E+00 -0.00000000000E+00 -0.24345672364E+02  0.24345672364E+02  0.00000000000E+00 0. -1.
         23    2    1    2    0    0  0.00000000000E+00  0.00000000000E+00  0.61906933376E+02  0.11059827810E+03  0.91648844618E+02 0.  0.
        -13    1    3    3    0    0 -0.28591889804E+02 -0.21226230907E+02  0.65758199605E+02  0.74780945811E+02  0.00000000000E+00 0.  1.
         13    1    3    3    0    0  0.28591889804E+02  0.21226230907E+02 -0.38512662290E+01  0.35817332294E+02  0.00000000000E+00 0. -1.
<mgrwt>
<rscale>  0 0.91648845E+02</rscale>
<asrwt>0</asrwt>
<pdfrwt beam="2">  1        1 0.37454881E-02 0.91648845E+02</pdfrwt>
<pdfrwt beam="1">  1       -1 0.13269632E-01 0.91648845E+02</pdfrwt>
<totfact> 0.82463739E+04</totfact>
</mgrwt>
</event>
<event>
 5    1  0.6079230E+000  0.9192201E+02  0.7546771E-02  0.1298263E+00
          1   -1    0    0  501    0  0.00000000000E+00  0.00000000000E+00  0.15198683520E+02  0.15198683520E+02  0.00000000000E+00 0. -1.
         -1   -1    0    0    0  501 -0.00000000000E+00 -0.00000000000E+00 -0.13898665183E+03  0.13898665183E+03  0.00000000000E+00 0.  1.
         23    2    1    2    0    0  0.00000000000E+00  0.00000000000E+00 -0.12378796831E+03  0.15418533535E+03  0.91922013352E+02 0.  0.
        -13    1    3    3    0    0 -0.17729511345E+02 -0.19206821201E+02  0.15172910931E+01  0.26182813551E+02  0.00000000000E+00 0. -1.
         13    1    3    3    0    0  0.17729511345E+02  0.19206821201E+02 -0.12530525940E+03  0.12800252180E+03  0.00000000000E+00 0.  1.
<mgrwt>
<rscale>  0 0.91922013E+02</rscale>
<asrwt>0</asrwt>
<pdfrwt beam="1">  1        1 0.23382591E-02 0.91922013E+02</pdfrwt>
<pdfrwt beam="2">  1       -1 0.21382561E-01 0.91922013E+02</pdfrwt>
<totfact> 0.74512923E+04</totfact>
</mgrwt>
</event>
<event>
 5    1  0.6079230E+000  0.9089744E+02  0.7546771E-02  0.1300693E+00
         -2   -1    0    0    0  501 -0.00000000000E+00  0.00000000000E+00  0.12565071998E+02  0.12565071998E+02  0.00000000000E+00 0.  1.
          2   -1    0    0  501    0  0.00000000000E+00 -0.00000000000E+00 -0.16439111292E+03  0.16439111292E+03  0.00000000000E+00 0. -1.
         23    2    1    2    0    0  0.00000000000E+00  0.00000000000E+00 -0.15182604092E+03  0.17695618492E+03  0.90897440439E+02 0.  0.
        -13    1    3    3    0    0  0.26420949288E+02  0.18610664304E+02 -0.13702822778E+02  0.35102574538E+02  0.00000000000E+00 0.  1.
         13    1    3    3    0    0 -0.26420949288E+02 -0.18610664304E+02 -0.13812321814E+03  0.14185361038E+03  0.00000000000E+00 0. -1.
<mgrwt>
<rscale>  0 0.90897440E+02</rscale>
<asrwt>0</asrwt>
<pdfrwt beam="2">  1        2 0.25290939E-01 0.90897440E+02</pdfrwt>
<pdfrwt beam="1">  1       -2 0.19330881E-02 0.90897440E+02</pdfrwt>
<totfact> 0.14548538E+05</totfact>
</mgrwt>
</event>
<event>
 5    1  0.6079230E+000  0.9099456E+02  0.7546771E-02  0.1300461E+00
         -2   -1    0    0    0  501 -0.00000000000E+00  0.00000000000E+00  0.37256206109E+02  0.37256206109E+02  0.00000000000E+00 0. -1.
          2   -1    0    0  501    0  0.00000000000E+00 -0.00000000000E+00 -0.55561279134E+02  0.55561279134E+02  0.00000000000E+00 0.  1.
         23    2    1    2    0    0  0.00000000000E+00  0.00000000000E+00 -0.18305073025E+02  0.92817485243E+02  0.90994559553E+02 0.  0.
        -13    1    3    3    0    0 -0.16940846713E+02 -0.31380155176E+00  0.33917901553E+02  0.37914572456E+02  0.00000000000E+00 0. -1.
         13    1    3    3    0    0  0.16940846713E+02  0.31380155176E+00 -0.52222974577E+02  0.54902912787E+02  0.00000000000E+00 0.  1.
<mgrwt>
<rscale>  0 0.90994560E+02</rscale>
<asrwt>0</asrwt>
<pdfrwt beam="2">  1        2 0.85478890E-02 0.90994560E+02</pdfrwt>
<pdfrwt beam="1">  1       -2 0.57317241E-02 0.90994560E+02</pdfrwt>
<totfact> 0.10451041E+05</totfact>
</mgrwt>
</event>
<event>
 5    1  0.6079230E+000  0.9013463E+02  0.7546771E-02  0.1302526E+00
         -3   -1    0    0    0  501 -0.00000000000E+00  0.00000000000E+00  0.55336542045E+02  0.55336542045E+02  0.00000000000E+00 0.  1.
          3   -1    0    0  501    0  0.00000000000E+00 -0.00000000000E+00 -0.36703825384E+02  0.36703825384E+02  0.00000000000E+00 0. -1.
         23    2    1    2    0    0  0.00000000000E+00  0.00000000000E+00  0.18632716661E+02  0.92040367429E+02  0.90134627676E+02 0.  0.
        -13    1    3    3    0    0  0.24253701522E+02 -0.19025846835E+02  0.42887565288E+02  0.52816362442E+02  0.00000000000E+00 0.  1.
         13    1    3    3    0    0 -0.24253701522E+02  0.19025846835E+02 -0.24254848627E+02  0.39224004987E+02  0.00000000000E+00 0. -1.
<mgrwt>
<rscale>  0 0.90134628E+02</rscale>
<asrwt>0</asrwt>
<pdfrwt beam="2">  1        3 0.56467423E-02 0.90134628E+02</pdfrwt>
<pdfrwt beam="1">  1       -3 0.85133142E-02 0.90134628E+02</pdfrwt>
<totfact> 0.36393060E+04</totfact>
</mgrwt>
</event>
<event>
 5    1  0.6079230E+000  0.8925661E+02  0.7546771E-02  0.1304662E+00
          1   -1    0    0  501    0  0.00000000000E+00  0.00000000000E+00  0.38116776171E+02  0.38116776171E+02  0.00000000000E+00 0. -1.
         -1   -1    0    0    0  501 -0.00000000000E+00 -0.00000000000E+00 -0.52252206280E+02  0.52252206280E+02  0.00000000000E+00 0.  1.
         23    2    1    2    0    0  0.00000000000E+00  0.00000000000E+00 -0.14135430109E+02  0.90368982450E+02  0.89256610986E+02 0.  0.
        -13    1    3    3    0    0 -0.33712404382E+01 -0.38920068629E+02 -0.28913192135E+02  0.48601539930E+02  0.00000000000E+00 0.  1.
         13    1    3    3    0    0  0.33712404382E+01  0.38920068629E+02  0.14777762027E+02  0.41767442520E+02  0.00000000000E+00 0. -1.
<mgrwt>
<rscale>  0 0.89256611E+02</rscale>
<asrwt>0</asrwt>
<pdfrwt beam="1">  1        1 0.58641194E-02 0.89256611E+02</pdfrwt>
<pdfrwt beam="2">  1       -1 0.80388010E-02 0.89256611E+02</pdfrwt>
<totfact> 0.95575571E+04</totfact>
</mgrwt>
</event>
<event>
 5    1  0.6079230E+000  0.9346298E+02  0.7546771E-02  0.1294676E+00
          1   -1    0    0  501    0  0.00000000000E+00  0.00000000000E+00  0.63500834274E+02  0.63500834274E+02  0.00000000000E+00 0. -1.
         -1   -1    0    0    0  501 -0.00000000000E+00 -0.00000000000E+00 -0.34390608030E+02  0.34390608030E+02  0.00000000000E+00 0.  1.
         23    2    1    2    0    0  0.00000000000E+00  0.00000000000E+00  0.29110226245E+02  0.97891442304E+02  0.93462983070E+02 0.  0.
        -13    1    3    3    0    0 -0.37194270449E+02 -0.13203152730E+02 -0.11652369860E+02  0.41152335530E+02  0.00000000000E+00 0.  1.
         13    1    3    3    0    0  0.37194270449E+02  0.13203152730E+02  0.40762596105E+02  0.56739106774E+02  0.00000000000E+00 0. -1.
<mgrwt>
<rscale>  0 0.93462983E+02</rscale>
<asrwt>0</asrwt>
<pdfrwt beam="1">  1        1 0.97693591E-02 0.93462983E+02</pdfrwt>
<pdfrwt beam="2">  1       -1 0.52908628E-02 0.93462983E+02</pdfrwt>
<totfact> 0.90747820E+04</totfact>
</mgrwt>
</event>
<event>
 5    1  0.6079230E+000  0.9241759E+02  0.7546771E-02  0.1297101E+00
          2   -1    0    0  501    0  0.00000000000E+00  0.00000000000E+00  0.34208843587E+03  0.34208843587E+03  0.00000000000E+00 0. -1.
         -2   -1    0    0    0  501 -0.00000000000E+00 -0.00000000000E+00 -0.62418154272E+01  0.62418154272E+01  0.00000000000E+00 0.  1.
         23    2    1    2    0    0  0.00000000000E+00  0.00000000000E+00  0.33584662045E+03  0.34833025130E+03  0.92417593054E+02 0.  0.
        -13    1    3    3    0    0 -0.23870697124E+02  0.38865819967E+02  0.19584785212E+03  0.20108889409E+03  0.00000000000E+00 0. -1.
         13    1    3    3    0    0  0.23870697124E+02 -0.38865819967E+02  0.13999876832E+03  0.14724135722E+03  0.00000000000E+00 0.  1.
<mgrwt>
<rscale>  0 0.92417593E+02</rscale>
<asrwt>0</asrwt>
<pdfrwt beam="1">  1        2 0.52628975E-01 0.92417593E+02</pdfrwt>
<pdfrwt beam="2">  1       -2 0.96027957E-03 0.92417593E+02</pdfrwt>
<totfact> 0.18193560E+05</totfact>
</mgrwt>
</event>
<event>
 5    1  0.6079230E+000  0.1072938E+03  0.7546771E-02  0.1265665E+00
          2   -1    0    0  501    0  0.00000000000E+00  0.00000000000E+00  0.38259565196E+02  0.38259565196E+02  0.00000000000E+00 0. -1.
         -2   -1    0    0    0  501 -0.00000000000E+00 -0.00000000000E+00 -0.75222698949E+02  0.75222698949E+02  0.00000000000E+00 0.  1.
         23    2    1    2    0    0  0.00000000000E+00  0.00000000000E+00 -0.36963133753E+02  0.11348226414E+03  0.10729376039E+03 0.  0.
        -13    1    3    3    0    0  0.17251256517E+02  0.45645027424E+02 -0.42058855967E+02  0.64420662409E+02  0.00000000000E+00 0.  1.
         13    1    3    3    0    0 -0.17251256517E+02 -0.45645027424E+02  0.50957222133E+01  0.49061601735E+02  0.00000000000E+00 0. -1.
<mgrwt>
<rscale>  0 0.10729376E+03</rscale>
<asrwt>0</asrwt>
<pdfrwt beam="1">  1        2 0.58860870E-02 0.10729376E+03</pdfrwt>
<pdfrwt beam="2">  1       -2 0.11572723E-01 0.10729376E+03</pdfrwt>
<totfact> 0.58203179E+04</totfact>
</mgrwt>
</event>
<event>
 5    1  0.6079230E+000  0.9218033E+02  0.7546771E-02  0.1297656E+00
         -1   -1    0    0    0  501 -0.00000000000E+00  0.00000000000E+00  0.12662889542E+02  0.12662889542E+02  0.00000000000E+00 0.  1.
          1   -1    0    0  501    0  0.00000000000E+00 -0.00000000000E+00 -0.16775817487E+03  0.16775817487E+03  0.00000000000E+00 0. -1.
         23    2    1    2    0    0  0.00000000000E+00  0.00000000000E+00 -0.15509528533E+03  0.18042106441E+03  0.92180328448E+02 0.  0.
        -13    1    3    3    0    0  0.27357176369E+02  0.33027315244E+02 -0.44500352137E+02  0.61802103455E+02  0.00000000000E+00 0.  1.
         13    1    3    3    0    0 -0.27357176369E+02 -0.33027315244E+02 -0.11059493319E+03  0.11861896096E+03  0.00000000000E+00 0. -1.
<mgrwt>
<rscale>  0 0.92180328E+02</rscale>
<asrwt>0</asrwt>
<pdfrwt beam="2">  1        1 0.25808953E-01 0.92180328E+02</pdfrwt>
<pdfrwt beam="1">  1       -1 0.19481366E-02 0.92180328E+02</pdfrwt>
<totfact> 0.11116151E+05</totfact>
</mgrwt>
</event>
<event>
 5    1  0.6079230E+000  0.9164606E+02  0.7546771E-02  0.1298914E+00
          1   -1    0    0  501    0  0.00000000000E+00  0.00000000000E+00  0.70795942414E+02  0.70795942414E+02  0.00000000000E+00 0. -1.
         -1   -1    0    0    0  501 -0.00000000000E+00 -0.00000000000E+00 -0.29659187961E+02  0.29659187961E+02  0.00000000000E+00 0.  1.
         23    2    1    2    0    0  0.00000000000E+00  0.00000000000E+00  0.41136754453E+02  0.10045513037E+03  0.91646061845E+02 0.  0.
        -13    1    3    3    0    0 -0.20075448999E+02  0.29387719942E+02  0.52206001558E+02  0.63183291577E+02  0.00000000000E+00 0. -1.
         13    1    3    3    0    0  0.20075448999E+02 -0.29387719942E+02 -0.11069247105E+02  0.37271838797E+02  0.00000000000E+00 0.  1.
<mgrwt>
<rscale>  0 0.91646062E+02</rscale>
<asrwt>0</asrwt>
<pdfrwt beam="1">  1        1 0.10891683E-01 0.91646062E+02</pdfrwt>
<pdfrwt beam="2">  1       -1 0.45629520E-02 0.91646062E+02</pdfrwt>
<totfact> 0.97448777E+04</totfact>
</mgrwt>
</event>
<event>
 5    1  0.6079230E+000  0.9015756E+02  0.7546771E-02  0.1302471E+00
          1   -1    0    0  501    0  0.00000000000E+00  0.00000000000E+00  0.14877422055E+02  0.14877422055E+02  0.00000000000E+00 0. -1.
         -1   -1    0    0    0  501 -0.00000000000E+00 -0.00000000000E+00 -0.13658928870E+03  0.13658928870E+03  0.00000000000E+00 0.  1.
         23    2    1    2    0    0  0.00000000000E+00  0.00000000000E+00 -0.12171186664E+03  0.15146671075E+03  0.90157561994E+02 0.  0.
        -13    1    3    3    0    0 -0.36820546730E+02 -0.93951871924E+00 -0.17192767698E+02  0.40647590557E+02  0.00000000000E+00 0. -1.
         13    1    3    3    0    0  0.36820546730E+02  0.93951871924E+00 -0.10451909894E+03  0.11081912020E+03  0.00000000000E+00 0.  1.
<mgrwt>
<rscale>  0 0.90157562E+02</rscale>
<asrwt>0</asrwt>
<pdfrwt beam="1">  1        1 0.22888342E-02 0.90157562E+02</pdfrwt>
<pdfrwt beam="2">  1       -1 0.21013737E-01 0.90157562E+02</pdfrwt>
<totfact> 0.78654561E+04</totfact>
</mgrwt>
</event>
<event>
 5    1  0.6079230E+000  0.9103947E+02  0.7546771E-02  0.1300354E+00
          1   -1    0    0  501    0  0.00000000000E+00  0.00000000000E+00  0.15518136311E+02  0.15518136311E+02  0.00000000000E+00 0. -1.
         -1   -1    0    0    0  501 -0.00000000000E+00 -0.00000000000E+00 -0.13352418034E+03  0.13352418034E+03  0.00000000000E+00 0.  1.
         23    2    1    2    0    0  0.00000000000E+00  0.00000000000E+00 -0.11800604402E+03  0.14904231665E+03  0.91039473443E+02 0.  0.
        -13    1    3    3    0    0 -0.30582080047E+02 -0.33137942709E+02 -0.69182097435E+02  0.82580563528E+02  0.00000000000E+00 0.  1.
         13    1    3    3    0    0  0.30582080047E+02  0.33137942709E+02 -0.48823946590E+02  0.66461753119E+02  0.00000000000E+00 0. -1.
<mgrwt>
<rscale>  0 0.91039473E+02</rscale>
<asrwt>0</asrwt>
<pdfrwt beam="1">  1        1 0.23874056E-02 0.91039473E+02</pdfrwt>
<pdfrwt beam="2">  1       -1 0.20542182E-01 0.91039473E+02</pdfrwt>
<totfact> 0.77080342E+04</totfact>
</mgrwt>
</event>
<event>
 5    1  0.6079230E+000  0.9335346E+02  0.7546771E-02  0.1294928E+00
          4   -1    0    0  501    0  0.00000000000E+00  0.00000000000E+00  0.33492937957E+02  0.33492937957E+02  0.00000000000E+00 0. -1.
         -4   -1    0    0    0  501 -0.00000000000E+00 -0.00000000000E+00 -0.65050041672E+02  0.65050041672E+02  0.00000000000E+00 0.  1.
         23    2    1    2    0    0  0.00000000000E+00  0.00000000000E+00 -0.31557103715E+02  0.98542979629E+02  0.93353457565E+02 0.  0.
        -13    1    3    3    0    0  0.89862796300E+01  0.34161935277E+02 -0.47985743263E+02  0.59585422713E+02  0.00000000000E+00 0.  1.
         13    1    3    3    0    0 -0.89862796300E+01 -0.34161935277E+02  0.16428639548E+02  0.38957556916E+02  0.00000000000E+00 0. -1.
<mgrwt>
<rscale>  0 0.93353458E+02</rscale>
<asrwt>0</asrwt>
<pdfrwt beam="1">  1        4 0.51527597E-02 0.93353458E+02</pdfrwt>
<pdfrwt beam="2">  1       -4 0.10007699E-01 0.93353458E+02</pdfrwt>
<totfact> 0.24898365E+04</totfact>
</mgrwt>
</event>
<event>
 5    1  0.6079230E+000  0.9082576E+02  0.7546771E-02  0.1300864E+00
          4   -1    0    0  501    0  0.00000000000E+00  0.00000000000E+00  0.12112277391E+02  0.12112277391E+02  0.00000000000E+00 0. -1.
         -4   -1    0    0    0  501 -0.00000000000E+00 -0.00000000000E+00 -0.17026771615E+03  0.17026771615E+03  0.00000000000E+00 0.  1.
         23    2    1    2    0    0  0.00000000000E+00  0.00000000000E+00 -0.15815543876E+03  0.18237999354E+03  0.90825763056E+02 0.  0.
        -13    1    3    3    0    0 -0.30614151543E+02 -0.29438127240E+02 -0.11136255513E+03  0.11918661122E+03  0.00000000000E+00 0.  1.
         13    1    3    3    0    0  0.30614151543E+02  0.29438127240E+02 -0.46792883625E+02  0.63193382312E+02  0.00000000000E+00 0. -1.
<mgrwt>
<rscale>  0 0.90825763E+02</rscale>
<asrwt>0</asrwt>
<pdfrwt beam="1">  1        4 0.18634274E-02 0.90825763E+02</pdfrwt>
<pdfrwt beam="2">  1       -4 0.26195032E-01 0.90825763E+02</pdfrwt>
<totfact> 0.22375285E+04</totfact>
</mgrwt>
</event>
<event>
 5    1  0.6079230E+000  0.8939925E+02  0.7546771E-02  0.1304313E+00
          1   -1    0    0  501    0  0.00000000000E+00  0.00000000000E+00  0.94908201555E+02  0.94908201555E+02  0.00000000000E+00 0. -1.
         -1   -1    0    0    0  501 -0.00000000000E+00 -0.00000000000E+00 -0.21052518222E+02  0.21052518222E+02  0.00000000000E+00 0.  1.
         23    2    1    2    0    0  0.00000000000E+00  0.00000000000E+00  0.73855683333E+02  0.11596071978E+03  0.89399253748E+02 0.  0.
        -13    1    3    3    0    0 -0.23952129219E+02 -0.33861591047E+02  0.58545068385E+02  0.71748427680E+02  0.00000000000E+00 0. -1.
         13    1    3    3    0    0  0.23952129219E+02  0.33861591047E+02  0.15310614948E+02  0.44212292097E+02  0.00000000000E+00 0.  1.
<mgrwt>
<rscale>  0 0.89399254E+02</rscale>
<asrwt>0</asrwt>
<pdfrwt beam="1">  1        1 0.14601262E-01 0.89399254E+02</pdfrwt>
<pdfrwt beam="2">  1       -1 0.32388490E-02 0.89399254E+02</pdfrwt>
<totfact> 0.10926030E+05</totfact>
</mgrwt>
</event>
<event>
 5    1  0.6079230E+000  0.9231663E+02  0.7546771E-02  0.1297337E+00
         -2   -1    0    0    0  501 -0.00000000000E+00  0.00000000000E+00  0.13211774973E+03  0.13211774973E+03  0.00000000000E+00 0.  1.
          2   -1    0    0  501    0  0.00000000000E+00 -0.00000000000E+00 -0.16126448957E+02  0.16126448957E+02  0.00000000000E+00 0. -1.
         23    2    1    2    0    0  0.00000000000E+00  0.00000000000E+00  0.11599130077E+03  0.14824419868E+03  0.92316632245E+02 0.  0.
        -13    1    3    3    0    0  0.29643953759E+02 -0.83814359451E+01  0.27969447308E+01  0.30932755499E+02  0.00000000000E+00 0. -1.
         13    1    3    3    0    0 -0.29643953759E+02  0.83814359451E+01  0.11319435604E+03  0.11731144318E+03  0.00000000000E+00 0.  1.
<mgrwt>
<rscale>  0 0.92316632E+02</rscale>
<asrwt>0</asrwt>
<pdfrwt beam="2">  1        2 0.24809922E-02 0.92316632E+02</pdfrwt>
<pdfrwt beam="1">  1       -2 0.20325807E-01 0.92316632E+02</pdfrwt>
<totfact> 0.70793657E+04</totfact>
</mgrwt>
</event>
<event>
 5    1  0.6079230E+000  0.9048842E+02  0.7546771E-02  0.1301673E+00
         -1   -1    0    0    0  501 -0.00000000000E+00  0.00000000000E+00  0.28573617735E+03  0.28573617735E+03  0.00000000000E+00 0.  1.
          1   -1    0    0  501    0  0.00000000000E+00 -0.00000000000E+00 -0.71640852385E+01  0.71640852385E+01  0.00000000000E+00 0. -1.
         23    2    1    2    0    0  0.00000000000E+00  0.00000000000E+00  0.27857209211E+03  0.29290026259E+03  0.90488415397E+02 0.  0.
        -13    1    3    3    0    0  0.29360795019E+02 -0.34367010980E+02  0.14567066823E+03  0.15252242888E+03  0.00000000000E+00 0.  1.
         13    1    3    3    0    0 -0.29360795019E+02  0.34367010980E+02  0.13290142388E+03  0.14037783371E+03  0.00000000000E+00 0. -1.
<mgrwt>
<rscale>  0 0.90488415E+02</rscale>
<asrwt>0</asrwt>
<pdfrwt beam="2">  1        1 0.11021672E-02 0.90488415E+02</pdfrwt>
<pdfrwt beam="1">  1       -1 0.43959403E-01 0.90488415E+02</pdfrwt>
<totfact> 0.62970782E+04</totfact>
</mgrwt>
</event>
<event>
 5    1  0.6079230E+000  0.9087992E+02  0.7546771E-02  0.1300735E+00
          2   -1    0    0  501    0  0.00000000000E+00  0.00000000000E+00  0.19593504295E+03  0.19593504295E+03  0.00000000000E+00 0. -1.
         -2   -1    0    0    0  501 -0.00000000000E+00 -0.00000000000E+00 -0.10538134821E+02  0.10538134821E+02  0.00000000000E+00 0.  1.
         23    2    1    2    0    0  0.00000000000E+00  0.00000000000E+00  0.18539690812E+03  0.20647317777E+03  0.90879918547E+02 0.  0.
        -13    1    3    3    0    0 -0.36435863082E+02 -0.70666725197E+01  0.15225953083E+03  0.15671781873E+03  0.00000000000E+00 0. -1.
         13    1    3    3    0    0  0.36435863082E+02  0.70666725197E+01  0.33137377297E+02  0.49755359040E+02  0.00000000000E+00 0.  1.
<mgrwt>
<rscale>  0 0.90879919E+02</rscale>
<asrwt>0</asrwt>
<pdfrwt beam="1">  1        2 0.30143850E-01 0.90879919E+02</pdfrwt>
<pdfrwt beam="2">  1       -2 0.16212517E-02 0.90879919E+02</pdfrwt>
<totfact> 0.15489186E+05</totfact>
</mgrwt>
</event>
<event>
 5    1  0.6079230E+000  0.9163785E+02  0.7546771E-02  0.1298933E+00
         -1   -1    0    0    0  501 -0.00000000000E+00  0.00000000000E+00  0.82648392518E+01  0.82648392518E+01  0.00000000000E+00 0.  1.
          1   -1    0    0  501    0  0.00000000000E+00 -0.00000000000E+00 -0.25401265750E+03  0.25401265750E+03  0.00000000000E+00 0. -1.
         23    2    1    2    0    0  0.00000000000E+00  0.00000000000E+00 -0.24574781825E+03  0.26227749675E+03  0.91637847686E+02 0.  0.
        -13    1    3    3    0    0  0.30282661035E+02 -0.31868496539E+02 -0.15983094476E+03  0.16576661767E+03  0.00000000000E+00 0. -1.
         13    1    3    3    0    0 -0.30282661035E+02  0.31868496539E+02 -0.85916873484E+02  0.96510879077E+02  0.00000000000E+00 0.  1.
<mgrwt>
<rscale>  0 0.91637848E+02</rscale>
<asrwt>0</asrwt>
<pdfrwt beam="2">  1        1 0.39078867E-01 0.91637848E+02</pdfrwt>
<pdfrwt beam="1">  1       -1 0.12715138E-02 0.91637848E+02</pdfrwt>
<totfact> 0.12239240E+05</totfact>
</mgrwt>
</event>
<event>
 5    1  0.6079230E+000  0.8772324E+02  0.7546771E-02  0.1308461E+00
         -2   -1    0    0    0  501 -0.00000000000E+00  0.00000000000E+00  0.28770766196E+02  0.28770766196E+02  0.00000000000E+00 0.  1.
          2   -1    0    0  501    0  0.00000000000E+00 -0.00000000000E+00 -0.66867931924E+02  0.66867931924E+02  0.00000000000E+00 0. -1.
         23    2    1    2    0    0  0.00000000000E+00  0.00000000000E+00 -0.38097165728E+02  0.95638698121E+02  0.87723238322E+02 0.  0.
        -13    1    3    3    0    0 -0.43395630214E+02 -0.33053521239E+01 -0.13103511543E+02  0.45451161581E+02  0.00000000000E+00 0.  1.
         13    1    3    3    0    0  0.43395630214E+02  0.33053521239E+01 -0.24993654185E+02  0.50187536539E+02  0.00000000000E+00 0. -1.
<mgrwt>
<rscale>  0 0.87723238E+02</rscale>
<asrwt>0</asrwt>
<pdfrwt beam="2">  1        2 0.10287374E-01 0.87723238E+02</pdfrwt>
<pdfrwt beam="1">  1       -2 0.44262718E-02 0.87723238E+02</pdfrwt>
<totfact> 0.12167065E+05</totfact>
</mgrwt>
</event>
<event>
 5    1  0.6079230E+000  0.9160315E+02  0.7546771E-02  0.1299015E+00
         -1   -1    0    0    0  501 -0.00000000000E+00  0.00000000000E+00  0.57270186713E+01  0.57270186713E+01  0.00000000000E+00 0.  1.
          1   -1    0    0  501    0  0.00000000000E+00 -0.00000000000E+00 -0.36629606865E+03  0.36629606865E+03  0.00000000000E+00 0. -1.
         23    2    1    2    0    0  0.00000000000E+00  0.00000000000E+00 -0.36056904998E+03  0.37202308732E+03  0.91603153316E+02 0.  0.
        -13    1    3    3    0    0  0.67031071057E+01 -0.45307330106E+02 -0.17900914986E+03  0.18477543544E+03  0.00000000000E+00 0. -1.
         13    1    3    3    0    0 -0.67031071057E+01  0.45307330106E+02 -0.18155990012E+03  0.18724765188E+03  0.00000000000E+00 0.  1.
<mgrwt>
<rscale>  0 0.91603153E+02</rscale>
<asrwt>0</asrwt>
<pdfrwt beam="2">  1        1 0.56353250E-01 0.91603153E+02</pdfrwt>
<pdfrwt beam="1">  1       -1 0.88107965E-03 0.91603153E+02</pdfrwt>
<totfact> 0.13125493E+05</totfact>
</mgrwt>
</event>
<event>
 5    1  0.6079230E+000  0.9431198E+02  0.7546771E-02  0.1292733E+00
         -4   -1    0    0    0  501 -0.00000000000E+00  0.00000000000E+00  0.60241502237E+01  0.60241502237E+01  0.00000000000E+00 0.  1.
          4   -1    0    0  501    0  0.00000000000E+00 -0.00000000000E+00 -0.36912880250E+03  0.36912880250E+03  0.00000000000E+00 0. -1.
         23    2    1    2    0    0  0.00000000000E+00  0.00000000000E+00 -0.36310465228E+03  0.37515295273E+03  0.94311979264E+02 0.  0.
        -13    1    3    3    0    0 -0.14938450048E+02 -0.44685790449E+02 -0.17389036078E+03  0.18016058040E+03  0.00000000000E+00 0. -1.
         13    1    3    3    0    0  0.14938450048E+02  0.44685790449E+02 -0.18921429150E+03  0.19499237233E+03  0.00000000000E+00 0.  1.
<mgrwt>
<rscale>  0 0.94311979E+02</rscale>
<asrwt>0</asrwt>
<pdfrwt beam="2">  1        4 0.56789055E-01 0.94311979E+02</pdfrwt>
<pdfrwt beam="1">  1       -4 0.92679220E-03 0.94311979E+02</pdfrwt>
<totfact> 0.14395932E+04</totfact>
</mgrwt>
</event>
<event>
 5    1  0.6079230E+000  0.9156255E+02  0.7546771E-02  0.1299111E+00
         -1   -1    0    0    0  501 -0.00000000000E+00  0.00000000000E+00  0.34923324425E+02  0.34923324425E+02  0.00000000000E+00 0.  1.
          1   -1    0    0  501    0  0.00000000000E+00 -0.00000000000E+00 -0.60015045993E+02  0.60015045993E+02  0.00000000000E+00 0. -1.
         23    2    1    2    0    0  0.00000000000E+00  0.00000000000E+00 -0.25091721568E+02  0.94938370417E+02  0.91562545215E+02 0.  0.
        -13    1    3    3    0    0 -0.22969521279E+02 -0.28611597383E+02 -0.40936057291E+02  0.54972567697E+02  0.00000000000E+00 0. -1.
         13    1    3    3    0    0  0.22969521279E+02  0.28611597383E+02  0.15844335723E+02  0.39965802721E+02  0.00000000000E+00 0.  1.
<mgrwt>
<rscale>  0 0.91562545E+02</rscale>
<asrwt>0</asrwt>
<pdfrwt beam="2">  1        1 0.92330839E-02 0.91562545E+02</pdfrwt>
<pdfrwt beam="1">  1       -1 0.53728192E-02 0.91562545E+02</pdfrwt>
<totfact> 0.95251562E+04</totfact>
</mgrwt>
</event>
<event>
 5    1  0.6079230E+000  0.9063989E+02  0.7546771E-02  0.1301309E+00
          1   -1    0    0  501    0  0.00000000000E+00  0.00000000000E+00  0.91155340914E+02  0.91155340914E+02  0.00000000000E+00 0. -1.
         -1   -1    0    0    0  501 -0.00000000000E+00 -0.00000000000E+00 -0.22531837253E+02  0.22531837253E+02  0.00000000000E+00 0.  1.
         23    2    1    2    0    0  0.00000000000E+00  0.00000000000E+00  0.68623503661E+02  0.11368717817E+03  0.90639887604E+02 0.  0.
        -13    1    3    3    0    0  0.27040128918E+02  0.16723512965E+02 -0.61966664137E+01  0.32392022667E+02  0.00000000000E+00 0.  1.
         13    1    3    3    0    0 -0.27040128918E+02 -0.16723512965E+02  0.74820170074E+02  0.81295155500E+02  0.00000000000E+00 0. -1.
<mgrwt>
<rscale>  0 0.90639888E+02</rscale>
<asrwt>0</asrwt>
<pdfrwt beam="1">  1        1 0.14023898E-01 0.90639888E+02</pdfrwt>
<pdfrwt beam="2">  1       -1 0.34664366E-02 0.90639888E+02</pdfrwt>
<totfact> 0.10454627E+05</totfact>
</mgrwt>
</event>
<event>
 5    1  0.6079230E+000  0.9275333E+02  0.7546771E-02  0.1296318E+00
         -1   -1    0    0    0  501 -0.00000000000E+00  0.00000000000E+00  0.42331525980E+02  0.42331525980E+02  0.00000000000E+00 0.  1.
          1   -1    0    0  501    0  0.00000000000E+00 -0.00000000000E+00 -0.50808346904E+02  0.50808346904E+02  0.00000000000E+00 0. -1.
         23    2    1    2    0    0  0.00000000000E+00  0.00000000000E+00 -0.84768209244E+01  0.93139872883E+02  0.92753325697E+02 0.  0.
        -13    1    3    3    0    0  0.24244632505E+02  0.22371237690E+02 -0.36970579413E+02  0.49548947751E+02  0.00000000000E+00 0.  1.
         13    1    3    3    0    0 -0.24244632505E+02 -0.22371237690E+02  0.28493758489E+02  0.43590925132E+02  0.00000000000E+00 0. -1.
<mgrwt>
<rscale>  0 0.92753326E+02</rscale>
<asrwt>0</asrwt>
<pdfrwt beam="2">  1        1 0.78166687E-02 0.92753326E+02</pdfrwt>
<pdfrwt beam="1">  1       -1 0.65125425E-02 0.92753326E+02</pdfrwt>
<totfact> 0.89585355E+04</totfact>
</mgrwt>
</event>
<event>
 5    1  0.6079230E+000  0.9172391E+02  0.7546771E-02  0.1298730E+00
          1   -1    0    0  501    0  0.00000000000E+00  0.00000000000E+00  0.13346592948E+03  0.13346592948E+03  0.00000000000E+00 0. -1.
         -1   -1    0    0    0  501 -0.00000000000E+00 -0.00000000000E+00 -0.15759221016E+02  0.15759221016E+02  0.00000000000E+00 0.  1.
         23    2    1    2    0    0  0.00000000000E+00  0.00000000000E+00  0.11770670847E+03  0.14922515050E+03  0.91723913585E+02 0.  0.
        -13    1    3    3    0    0  0.34668644914E+02 -0.20887414331E+02  0.23766697679E+02  0.46936712030E+02  0.00000000000E+00 0.  1.
         13    1    3    3    0    0 -0.34668644914E+02  0.20887414331E+02  0.93940010787E+02  0.10228843847E+03  0.00000000000E+00 0. -1.
<mgrwt>
<rscale>  0 0.91723914E+02</rscale>
<asrwt>0</asrwt>
<pdfrwt beam="1">  1        1 0.20533219E-01 0.91723914E+02</pdfrwt>
<pdfrwt beam="2">  1       -1 0.24244956E-02 0.91723914E+02</pdfrwt>
<totfact> 0.10801696E+05</totfact>
</mgrwt>
</event>
<event>
 5    1  0.6079230E+000  0.9230949E+02  0.7546771E-02  0.1297353E+00
          1   -1    0    0  501    0  0.00000000000E+00  0.00000000000E+00  0.15883925147E+02  0.15883925147E+02  0.00000000000E+00 0. -1.
         -1   -1    0    0    0  501 -0.00000000000E+00 -0.00000000000E+00 -0.13411424199E+03  0.13411424199E+03  0.00000000000E+00 0.  1.
         23    2    1    2    0    0  0.00000000000E+00  0.00000000000E+00 -0.11823031685E+03  0.14999816714E+03  0.92309492056E+02 0.  0.
        -13    1    3    3    0    0 -0.18275902097E+02 -0.21426097662E+02  0.30497262517E+00  0.28163438476E+02  0.00000000000E+00 0. -1.
         13    1    3    3    0    0  0.18275902097E+02  0.21426097662E+02 -0.11853528947E+03  0.12183472866E+03  0.00000000000E+00 0.  1.
<mgrwt>
<rscale>  0 0.92309492E+02</rscale>
<asrwt>0</asrwt>
<pdfrwt beam="1">  1        1 0.24436808E-02 0.92309492E+02</pdfrwt>
<pdfrwt beam="2">  1       -1 0.20632960E-01 0.92309492E+02</pdfrwt>
<totfact> 0.74288327E+04</totfact>
</mgrwt>
</event>
<event>
 5    1  0.6079230E+000  0.7009273E+02  0.7546771E-02  0.1359778E+00
          2   -1    0    0  501    0  0.00000000000E+00  0.00000000000E+00  0.21276645492E+02  0.21276645492E+02  0.00000000000E+00 0. -1.
         -2   -1    0    0    0  501 -0.00000000000E+00 -0.00000000000E+00 -0.57727512929E+02  0.57727512929E+02  0.00000000000E+00 0.  1.
         23    2    1    2    0    0  0.00000000000E+00  0.00000000000E+00 -0.36450867438E+02  0.79004158421E+02  0.70092733652E+02 0.  0.
        -13    1    3    3    0    0 -0.34838202271E+02  0.34566799819E+01 -0.20042487888E+02  0.40340430026E+02  0.00000000000E+00 0.  1.
         13    1    3    3    0    0  0.34838202271E+02 -0.34566799819E+01 -0.16408379550E+02  0.38663728395E+02  0.00000000000E+00 0. -1.
<mgrwt>
<rscale>  0 0.70092734E+02</rscale>
<asrwt>0</asrwt>
<pdfrwt beam="1">  1        2 0.32733301E-02 0.70092734E+02</pdfrwt>
<pdfrwt beam="2">  1       -2 0.88811557E-02 0.70092734E+02</pdfrwt>
<totfact> 0.17524386E+05</totfact>
</mgrwt>
</event>
<event>
 5    1  0.6079230E+000  0.9148716E+02  0.7546771E-02  0.1299290E+00
          1   -1    0    0  501    0  0.00000000000E+00  0.00000000000E+00  0.10529428598E+02  0.10529428598E+02  0.00000000000E+00 0. -1.
         -1   -1    0    0    0  501 -0.00000000000E+00 -0.00000000000E+00 -0.19872636525E+03  0.19872636525E+03  0.00000000000E+00 0.  1.
         23    2    1    2    0    0  0.00000000000E+00  0.00000000000E+00 -0.18819693665E+03  0.20925579385E+03  0.91487159173E+02 0.  0.
        -13    1    3    3    0    0  0.33131011025E+02 -0.25991300912E+02 -0.13496727495E+03  0.14138379299E+03  0.00000000000E+00 0. -1.
         13    1    3    3    0    0 -0.33131011025E+02  0.25991300912E+02 -0.53229661707E+02  0.67872000855E+02  0.00000000000E+00 0.  1.
<mgrwt>
<rscale>  0 0.91487159E+02</rscale>
<asrwt>0</asrwt>
<pdfrwt beam="1">  1        1 0.16199121E-02 0.91487159E+02</pdfrwt>
<pdfrwt beam="2">  1       -1 0.30573287E-01 0.91487159E+02</pdfrwt>
<totfact> 0.68937752E+04</totfact>
</mgrwt>
</event>
<event>
 5    1  0.6079230E+000  0.9180257E+02  0.7546771E-02  0.1298544E+00
         -1   -1    0    0    0  501 -0.00000000000E+00  0.00000000000E+00  0.12861418274E+02  0.12861418274E+02  0.00000000000E+00 0.  1.
          1   -1    0    0  501    0  0.00000000000E+00 -0.00000000000E+00 -0.16381770557E+03  0.16381770557E+03  0.00000000000E+00 0. -1.
         23    2    1    2    0    0  0.00000000000E+00  0.00000000000E+00 -0.15095628730E+03  0.17667912385E+03  0.91802571469E+02 0.  0.
        -13    1    3    3    0    0  0.40340002360E+02 -0.19189270387E+02 -0.55166639975E+02  0.70985224199E+02  0.00000000000E+00 0.  1.
         13    1    3    3    0    0 -0.40340002360E+02  0.19189270387E+02 -0.95789647323E+02  0.10569389965E+03  0.00000000000E+00 0. -1.
<mgrwt>
<rscale>  0 0.91802571E+02</rscale>
<asrwt>0</asrwt>
<pdfrwt beam="2">  1        1 0.25202722E-01 0.91802571E+02</pdfrwt>
<pdfrwt beam="1">  1       -1 0.19786799E-02 0.91802571E+02</pdfrwt>
<totfact> 0.11189832E+05</totfact>
</mgrwt>
</event>
<event>
 5    1  0.6079230E+000  0.8625349E+02  0.7546771E-02  0.1312187E+00
          3   -1    0    0  501    0  0.00000000000E+00  0.00000000000E+00  0.19776629313E+02  0.19776629313E+02  0.00000000000E+00 0. -1.
         -3   -1    0    0    0  501 -0.00000000000E+00 -0.00000000000E+00 -0.94046173520E+02  0.94046173520E+02  0.00000000000E+00 0.  1.
         23    2    1    2    0    0  0.00000000000E+00  0.00000000000E+00 -0.74269544207E+02  0.11382280283E+03  0.86253494120E+02 0.  0.
        -13    1    3    3    0    0  0.22570357013E+02 -0.30654922402E+02 -0.10389163723E+02  0.39459853092E+02  0.00000000000E+00 0. -1.
         13    1    3    3    0    0 -0.22570357013E+02  0.30654922402E+02 -0.63880380484E+02  0.74362949740E+02  0.00000000000E+00 0.  1.
<mgrwt>
<rscale>  0 0.86253494E+02</rscale>
<asrwt>0</asrwt>
<pdfrwt beam="1">  1        3 0.30425584E-02 0.86253494E+02</pdfrwt>
<pdfrwt beam="2">  1       -3 0.14468642E-01 0.86253494E+02</pdfrwt>
<totfact> 0.39131503E+04</totfact>
</mgrwt>
</event>
<event>
 5    1  0.6079230E+000  0.5714174E+02  0.7546771E-02  0.1410234E+00
          3   -1    0    0  501    0  0.00000000000E+00  0.00000000000E+00  0.45540696404E+02  0.45540696404E+02  0.00000000000E+00 0. -1.
         -3   -1    0    0    0  501 -0.00000000000E+00 -0.00000000000E+00 -0.17924510584E+02  0.17924510584E+02  0.00000000000E+00 0.  1.
         23    2    1    2    0    0  0.00000000000E+00  0.00000000000E+00  0.27616185819E+02  0.63465206988E+02  0.57141742876E+02 0.  0.
        -13    1    3    3    0    0 -0.10747148798E+01 -0.25846551888E+02  0.27278534103E+02  0.37594117617E+02  0.00000000000E+00 0. -1.
         13    1    3    3    0    0  0.10747148798E+01  0.25846551888E+02  0.33765171611E+00  0.25871089371E+02  0.00000000000E+00 0.  1.
<mgrwt>
<rscale>  0 0.57141743E+02</rscale>
<asrwt>0</asrwt>
<pdfrwt beam="1">  1        3 0.70062609E-02 0.57141743E+02</pdfrwt>
<pdfrwt beam="2">  1       -3 0.27576170E-02 0.57141743E+02</pdfrwt>
<totfact> 0.12988689E+05</totfact>
</mgrwt>
</event>
<event>
 5    1  0.6079230E+000  0.9366155E+02  0.7546771E-02  0.1294219E+00
         -1   -1    0    0    0  501 -0.00000000000E+00  0.00000000000E+00  0.26375820992E+02  0.26375820992E+02  0.00000000000E+00 0.  1.
          1   -1    0    0  501    0  0.00000000000E+00 -0.00000000000E+00 -0.83148936960E+02  0.83148936960E+02  0.00000000000E+00 0. -1.
         23    2    1    2    0    0  0.00000000000E+00  0.00000000000E+00 -0.56773115969E+02  0.10952475795E+03  0.93661549782E+02 0.  0.
        -13    1    3    3    0    0 -0.13817763096E+01  0.39415821175E+02 -0.57914072507E+02  0.70068224317E+02  0.00000000000E+00 0. -1.
         13    1    3    3    0    0  0.13817763096E+01 -0.39415821175E+02  0.11409565383E+01  0.39456533635E+02  0.00000000000E+00 0.  1.
<mgrwt>
<rscale>  0 0.93661550E+02</rscale>
<asrwt>0</asrwt>
<pdfrwt beam="2">  1        1 0.12792144E-01 0.93661550E+02</pdfrwt>
<pdfrwt beam="1">  1       -1 0.40578187E-02 0.93661550E+02</pdfrwt>
<totfact> 0.94141064E+04</totfact>
</mgrwt>
</event>
<event>
 5    1  0.6079230E+000  0.9189587E+02  0.7546771E-02  0.1298324E+00
          1   -1    0    0  501    0  0.00000000000E+00  0.00000000000E+00  0.72446882823E+02  0.72446882823E+02  0.00000000000E+00 0. -1.
         -1   -1    0    0    0  501 -0.00000000000E+00 -0.00000000000E+00 -0.29141528296E+02  0.29141528296E+02  0.00000000000E+00 0.  1.
         23    2    1    2    0    0  0.00000000000E+00  0.00000000000E+00  0.43305354526E+02  0.10158841112E+03  0.91895873373E+02 0.  0.
        -13    1    3    3    0    0  0.25545888742E+02 -0.33139032896E+02  0.66542496763E+00  0.41847708698E+02  0.00000000000E+00 0.  1.
         13    1    3    3    0    0 -0.25545888742E+02  0.33139032896E+02  0.42639929559E+02  0.59740702421E+02  0.00000000000E+00 0. -1.
<mgrwt>
<rscale>  0 0.91895873E+02</rscale>
<asrwt>0</asrwt>
<pdfrwt beam="1">  1        1 0.11145674E-01 0.91895873E+02</pdfrwt>
<pdfrwt beam="2">  1       -1 0.44833121E-02 0.91895873E+02</pdfrwt>
<totfact> 0.97066587E+04</totfact>
</mgrwt>
</event>
<event>
 5    1  0.6079230E+000  0.9244528E+02  0.7546771E-02  0.1297036E+00
          3   -1    0    0  501    0  0.00000000000E+00  0.00000000000E+00  0.84048730455E+02  0.84048730455E+02  0.00000000000E+00 0. -1.
         -3   -1    0    0    0  501 -0.00000000000E+00 -0.00000000000E+00 -0.25420160567E+02  0.25420160567E+02  0.00000000000E+00 0.  1.
         23    2    1    2    0    0  0.00000000000E+00  0.00000000000E+00  0.58628569888E+02  0.10946889102E+03  0.92445275134E+02 0.  0.
        -13    1    3    3    0    0 -0.25957099425E+02  0.36145873326E+02  0.14513047674E+02  0.46807304151E+02  0.00000000000E+00 0.  1.
         13    1    3    3    0    0  0.25957099425E+02 -0.36145873326E+02  0.44115522214E+02  0.62661586872E+02  0.00000000000E+00 0. -1.
<mgrwt>
<rscale>  0 0.92445275E+02</rscale>
<asrwt>0</asrwt>
<pdfrwt beam="1">  1        3 0.12930574E-01 0.92445275E+02</pdfrwt>
<pdfrwt beam="2">  1       -3 0.39107940E-02 0.92445275E+02</pdfrwt>
<totfact> 0.32727109E+04</totfact>
</mgrwt>
</event>
<event>
 5    1  0.6079230E+000  0.9141528E+02  0.7546771E-02  0.1299460E+00
          1   -1    0    0  501    0  0.00000000000E+00  0.00000000000E+00  0.49256614926E+02  0.49256614926E+02  0.00000000000E+00 0. -1.
         -1   -1    0    0    0  501 -0.00000000000E+00 -0.00000000000E+00 -0.42414367370E+02  0.42414367370E+02  0.00000000000E+00 0.  1.
         23    2    1    2    0    0  0.00000000000E+00  0.00000000000E+00  0.68422475559E+01  0.91670982296E+02  0.91415275767E+02 0.  0.
        -13    1    3    3    0    0 -0.32376055908E+02  0.34396669622E+01 -0.28748945647E+02  0.43434343333E+02  0.00000000000E+00 0.  1.
         13    1    3    3    0    0  0.32376055908E+02 -0.34396669622E+01  0.35591193202E+02  0.48236638964E+02  0.00000000000E+00 0. -1.
<mgrwt>
<rscale>  0 0.91415276E+02</rscale>
<asrwt>0</asrwt>
<pdfrwt beam="1">  1        1 0.75779408E-02 0.91415276E+02</pdfrwt>
<pdfrwt beam="2">  1       -1 0.65252873E-02 0.91415276E+02</pdfrwt>
<totfact> 0.92871584E+04</totfact>
</mgrwt>
</event>
<event>
 5    1  0.6079230E+000  0.8750194E+02  0.7546771E-02  0.1309016E+00
          3   -1    0    0  501    0  0.00000000000E+00  0.00000000000E+00  0.50689114486E+02  0.50689114486E+02  0.00000000000E+00 0. -1.
         -3   -1    0    0    0  501 -0.00000000000E+00 -0.00000000000E+00 -0.37762494071E+02  0.37762494071E+02  0.00000000000E+00 0.  1.
         23    2    1    2    0    0  0.00000000000E+00  0.00000000000E+00  0.12926620415E+02  0.88451608556E+02  0.87501940212E+02 0.  0.
        -13    1    3    3    0    0  0.43127279096E+02  0.23587059559E+00 -0.97381773324E+00  0.43138916980E+02  0.00000000000E+00 0.  1.
         13    1    3    3    0    0 -0.43127279096E+02 -0.23587059559E+00  0.13900438148E+02  0.45312691576E+02  0.00000000000E+00 0. -1.
<mgrwt>
<rscale>  0 0.87501940E+02</rscale>
<asrwt>0</asrwt>
<pdfrwt beam="1">  1        3 0.77983253E-02 0.87501940E+02</pdfrwt>
<pdfrwt beam="2">  1       -3 0.58096145E-02 0.87501940E+02</pdfrwt>
<totfact> 0.39750314E+04</totfact>
</mgrwt>
</event>
<event>
 5    1  0.6079230E+000  0.1002121E+03  0.7546771E-02  0.1279851E+00
          1   -1    0    0  501    0  0.00000000000E+00  0.00000000000E+00  0.28846081395E+02  0.28846081395E+02  0.00000000000E+00 0. -1.
         -1   -1    0    0    0  501 -0.00000000000E+00 -0.00000000000E+00 -0.87034962244E+02  0.87034962244E+02  0.00000000000E+00 0.  1.
         23    2    1    2    0    0  0.00000000000E+00  0.00000000000E+00 -0.58188880849E+02  0.11588104364E+03  0.10021212711E+03 0.  0.
        -13    1    3    3    0    0  0.13577560161E+02  0.42329046286E+02 -0.55829048084E+02  0.71365123901E+02  0.00000000000E+00 0. -1.
         13    1    3    3    0    0 -0.13577560161E+02 -0.42329046286E+02 -0.23598327646E+01  0.44515919737E+02  0.00000000000E+00 0.  1.
<mgrwt>
<rscale>  0 0.10021213E+03</rscale>
<asrwt>0</asrwt>
<pdfrwt beam="1">  1        1 0.44378587E-02 0.10021213E+03</pdfrwt>
<pdfrwt beam="2">  1       -1 0.13389994E-01 0.10021213E+03</pdfrwt>
<totfact> 0.65442503E+04</totfact>
</mgrwt>
</event>
<event>
 5    1  0.6079230E+000  0.8987470E+02  0.7546771E-02  0.1303155E+00
          3   -1    0    0  501    0  0.00000000000E+00  0.00000000000E+00  0.15225957614E+02  0.15225957614E+02  0.00000000000E+00 0. -1.
         -3   -1    0    0    0  501 -0.00000000000E+00 -0.00000000000E+00 -0.13262651009E+03  0.13262651009E+03  0.00000000000E+00 0.  1.
         23    2    1    2    0    0  0.00000000000E+00  0.00000000000E+00 -0.11740055248E+03  0.14785246770E+03  0.89874704364E+02 0.  0.
        -13    1    3    3    0    0  0.89388067808E+01 -0.44008841354E+02 -0.61396043707E+02  0.76066777024E+02  0.00000000000E+00 0. -1.
         13    1    3    3    0    0 -0.89388067808E+01  0.44008841354E+02 -0.56004508769E+02  0.71785690680E+02  0.00000000000E+00 0.  1.
<mgrwt>
<rscale>  0 0.89874704E+02</rscale>
<asrwt>0</asrwt>
<pdfrwt beam="1">  1        3 0.23424551E-02 0.89874704E+02</pdfrwt>
<pdfrwt beam="2">  1       -3 0.20404078E-01 0.89874704E+02</pdfrwt>
<totfact> 0.32686433E+04</totfact>
</mgrwt>
</event>
<event>
 5    1  0.6079230E+000  0.9223042E+02  0.7546771E-02  0.1297539E+00
         -2   -1    0    0    0  501 -0.00000000000E+00  0.00000000000E+00  0.43013073149E+01  0.43013073149E+01  0.00000000000E+00 0.  1.
          2   -1    0    0  501    0  0.00000000000E+00 -0.00000000000E+00 -0.49441071982E+03  0.49441071982E+03  0.00000000000E+00 0. -1.
         23    2    1    2    0    0  0.00000000000E+00  0.00000000000E+00 -0.49010941251E+03  0.49871202714E+03  0.92230416799E+02 0.  0.
        -13    1    3    3    0    0 -0.14254969375E+02  0.43584497510E+02 -0.27143398816E+03  0.27528026174E+03  0.00000000000E+00 0. -1.
         13    1    3    3    0    0  0.14254969375E+02 -0.43584497510E+02 -0.21867542434E+03  0.22343176539E+03  0.00000000000E+00 0.  1.
<mgrwt>
<rscale>  0 0.92230417E+02</rscale>
<asrwt>0</asrwt>
<pdfrwt beam="2">  1        2 0.76063137E-01 0.92230417E+02</pdfrwt>
<pdfrwt beam="1">  1       -2 0.66174003E-03 0.92230417E+02</pdfrwt>
<totfact> 0.20827068E+05</totfact>
</mgrwt>
</event>
<event>
 5    1  0.6079230E+000  0.9124451E+02  0.7546771E-02  0.1299866E+00
         -2   -1    0    0    0  501 -0.00000000000E+00  0.00000000000E+00  0.37450070701E+02  0.37450070701E+02  0.00000000000E+00 0.  1.
          2   -1    0    0  501    0  0.00000000000E+00 -0.00000000000E+00 -0.55577740253E+02  0.55577740253E+02  0.00000000000E+00 0. -1.
         23    2    1    2    0    0  0.00000000000E+00  0.00000000000E+00 -0.18127669552E+02  0.93027810954E+02  0.91244513301E+02 0.  0.
        -13    1    3    3    0    0 -0.46111631028E+00  0.15829457591E+02 -0.52685624204E+02  0.55014174116E+02  0.00000000000E+00 0. -1.
         13    1    3    3    0    0  0.46111631028E+00 -0.15829457591E+02  0.34557954652E+02  0.38013636838E+02  0.00000000000E+00 0.  1.
<mgrwt>
<rscale>  0 0.91244513E+02</rscale>
<asrwt>0</asrwt>
<pdfrwt beam="2">  1        2 0.85504215E-02 0.91244513E+02</pdfrwt>
<pdfrwt beam="1">  1       -2 0.57615494E-02 0.91244513E+02</pdfrwt>
<totfact> 0.10370898E+05</totfact>
</mgrwt>
</event>
<event>
 5    1  0.6079230E+000  0.9215116E+02  0.7546771E-02  0.1297724E+00
          2   -1    0    0  501    0  0.00000000000E+00  0.00000000000E+00  0.10853848850E+03  0.10853848850E+03  0.00000000000E+00 0. -1.
         -2   -1    0    0    0  501 -0.00000000000E+00 -0.00000000000E+00 -0.19559504022E+02  0.19559504022E+02  0.00000000000E+00 0.  1.
         23    2    1    2    0    0  0.00000000000E+00  0.00000000000E+00  0.88978984479E+02  0.12809799252E+03  0.92151158481E+02 0.  0.
        -13    1    3    3    0    0 -0.29352205707E+02 -0.33195066878E+02  0.62045042980E+02  0.76243372192E+02  0.00000000000E+00 0. -1.
         13    1    3    3    0    0  0.29352205707E+02  0.33195066878E+02  0.26933941499E+02  0.51854620330E+02  0.00000000000E+00 0.  1.
<mgrwt>
<rscale>  0 0.92151158E+02</rscale>
<asrwt>0</asrwt>
<pdfrwt beam="1">  1        2 0.16698229E-01 0.92151158E+02</pdfrwt>
<pdfrwt beam="2">  1       -2 0.30091545E-02 0.92151158E+02</pdfrwt>
<totfact> 0.12218881E+05</totfact>
</mgrwt>
</event>
<event>
 5    1  0.6079230E+000  0.9131868E+02  0.7546771E-02  0.1299689E+00
         -2   -1    0    0    0  501 -0.00000000000E+00  0.00000000000E+00  0.26752400670E+02  0.26752400670E+02  0.00000000000E+00 0.  1.
          2   -1    0    0  501    0  0.00000000000E+00 -0.00000000000E+00 -0.77928535315E+02  0.77928535315E+02  0.00000000000E+00 0. -1.
         23    2    1    2    0    0  0.00000000000E+00  0.00000000000E+00 -0.51176134645E+02  0.10468093598E+03  0.91318681557E+02 0.  0.
        -13    1    3    3    0    0 -0.25997087685E+01  0.20387867327E+02 -0.72325992717E+02  0.75189579347E+02  0.00000000000E+00 0. -1.
         13    1    3    3    0    0  0.25997087685E+01 -0.20387867327E+02  0.21149858072E+02  0.29491356637E+02  0.00000000000E+00 0.  1.
<mgrwt>
<rscale>  0 0.91318682E+02</rscale>
<asrwt>0</asrwt>
<pdfrwt beam="2">  1        2 0.11989005E-01 0.91318682E+02</pdfrwt>
<pdfrwt beam="1">  1       -2 0.41157540E-02 0.91318682E+02</pdfrwt>
<totfact> 0.11350736E+05</totfact>
</mgrwt>
</event>
<event>
 5    1  0.6079230E+000  0.9542035E+02  0.7546771E-02  0.1290232E+00
         -1   -1    0    0    0  501 -0.00000000000E+00  0.00000000000E+00  0.60303937561E+02  0.60303937561E+02  0.00000000000E+00 0.  1.
          1   -1    0    0  501    0  0.00000000000E+00 -0.00000000000E+00 -0.37746473548E+02  0.37746473548E+02  0.00000000000E+00 0. -1.
         23    2    1    2    0    0  0.00000000000E+00  0.00000000000E+00  0.22557464013E+02  0.98050411109E+02  0.95420353887E+02 0.  0.
        -13    1    3    3    0    0 -0.23076210493E+02  0.29405631972E+02  0.41744858145E+02  0.56034238318E+02  0.00000000000E+00 0.  1.
         13    1    3    3    0    0  0.23076210493E+02 -0.29405631972E+02 -0.19187394132E+02  0.42016172790E+02  0.00000000000E+00 0. -1.
<mgrwt>
<rscale>  0 0.95420354E+02</rscale>
<asrwt>0</asrwt>
<pdfrwt beam="2">  1        1 0.58071498E-02 0.95420354E+02</pdfrwt>
<pdfrwt beam="1">  1       -1 0.92775289E-02 0.95420354E+02</pdfrwt>
<totfact> 0.78947422E+04</totfact>
</mgrwt>
</event>
<event>
 5    1  0.6079230E+000  0.6278751E+02  0.7546771E-02  0.1386493E+00
          1   -1    0    0  501    0  0.00000000000E+00  0.00000000000E+00  0.26279133710E+02  0.26279133710E+02  0.00000000000E+00 0. -1.
         -1   -1    0    0    0  501 -0.00000000000E+00 -0.00000000000E+00 -0.37503820483E+02  0.37503820483E+02  0.00000000000E+00 0.  1.
         23    2    1    2    0    0  0.00000000000E+00  0.00000000000E+00 -0.11224686773E+02  0.63782954193E+02  0.62787511915E+02 0.  0.
        -13    1    3    3    0    0 -0.30585622757E+02  0.66358203272E+01 -0.81117331927E+01  0.32331326082E+02  0.00000000000E+00 0.  1.
         13    1    3    3    0    0  0.30585622757E+02 -0.66358203272E+01 -0.31129535798E+01  0.31451628111E+02  0.00000000000E+00 0. -1.
<mgrwt>
<rscale>  0 0.62787512E+02</rscale>
<asrwt>0</asrwt>
<pdfrwt beam="1">  1        1 0.40429437E-02 0.62787512E+02</pdfrwt>
<pdfrwt beam="2">  1       -1 0.57698185E-02 0.62787512E+02</pdfrwt>
<totfact> 0.24042415E+05</totfact>
</mgrwt>
</event>
<event>
 5    1  0.6079230E+000  0.9152383E+02  0.7546771E-02  0.1299203E+00
         -1   -1    0    0    0  501 -0.00000000000E+00  0.00000000000E+00  0.31965972866E+02  0.31965972866E+02  0.00000000000E+00 0.  1.
          1   -1    0    0  501    0  0.00000000000E+00 -0.00000000000E+00 -0.65511935043E+02  0.65511935043E+02  0.00000000000E+00 0. -1.
         23    2    1    2    0    0  0.00000000000E+00  0.00000000000E+00 -0.33545962177E+02  0.97477907909E+02  0.91523827236E+02 0.  0.
        -13    1    3    3    0    0  0.38523137914E+02 -0.16911865645E+02  0.24012443630E+01  0.42140352738E+02  0.00000000000E+00 0.  1.
         13    1    3    3    0    0 -0.38523137914E+02  0.16911865645E+02 -0.35947206540E+02  0.55337555172E+02  0.00000000000E+00 0. -1.
<mgrwt>
<rscale>  0 0.91523827E+02</rscale>
<asrwt>0</asrwt>
<pdfrwt beam="2">  1        1 0.10078759E-01 0.91523827E+02</pdfrwt>
<pdfrwt beam="1">  1       -1 0.49178420E-02 0.91523827E+02</pdfrwt>
<totfact> 0.96646370E+04</totfact>
</mgrwt>
</event>
<event>
 5    1  0.6079230E+000  0.9305731E+02  0.7546771E-02  0.1295612E+00
         -2   -1    0    0    0  501 -0.00000000000E+00  0.00000000000E+00  0.77720718516E+02  0.77720718516E+02  0.00000000000E+00 0. -1.
          2   -1    0    0  501    0  0.00000000000E+00 -0.00000000000E+00 -0.27855067278E+02  0.27855067278E+02  0.00000000000E+00 0.  1.
         23    2    1    2    0    0  0.00000000000E+00  0.00000000000E+00  0.49865651238E+02  0.10557578579E+03  0.93057312300E+02 0.  0.
        -13    1    3    3    0    0  0.10233385096E+02 -0.17745351040E+02 -0.22463905244E+02  0.30401425836E+02  0.00000000000E+00 0.  1.
         13    1    3    3    0    0 -0.10233385096E+02  0.17745351040E+02  0.72329556482E+02  0.75174359957E+02  0.00000000000E+00 0. -1.
<mgrwt>
<rscale>  0 0.93057312E+02</rscale>
<asrwt>0</asrwt>
<pdfrwt beam="2">  1        2 0.42853950E-02 0.93057312E+02</pdfrwt>
<pdfrwt beam="1">  1       -2 0.11957034E-01 0.93057312E+02</pdfrwt>
<totfact> 0.81567854E+04</totfact>
</mgrwt>
</event>
<event>
 5    1  0.6079230E+000  0.8927748E+02  0.7546771E-02  0.1304611E+00
          2   -1    0    0  501    0  0.00000000000E+00  0.00000000000E+00  0.86557182977E+01  0.86557182977E+01  0.00000000000E+00 0. -1.
         -2   -1    0    0    0  501 -0.00000000000E+00 -0.00000000000E+00 -0.23020819281E+03  0.23020819281E+03  0.00000000000E+00 0.  1.
         23    2    1    2    0    0  0.00000000000E+00  0.00000000000E+00 -0.22155247451E+03  0.23886391110E+03  0.89277483539E+02 0.  0.
        -13    1    3    3    0    0  0.27213743237E+02  0.26512944458E+02 -0.17347105441E+03  0.17758302499E+03  0.00000000000E+00 0. -1.
         13    1    3    3    0    0 -0.27213743237E+02 -0.26512944458E+02 -0.48081420097E+02  0.61280886117E+02  0.00000000000E+00 0.  1.
<mgrwt>
<rscale>  0 0.89277484E+02</rscale>
<asrwt>0</asrwt>
<pdfrwt beam="1">  1        2 0.13316490E-02 0.89277484E+02</pdfrwt>
<pdfrwt beam="2">  1       -2 0.35416645E-01 0.89277484E+02</pdfrwt>
<totfact> 0.61711491E+04</totfact>
</mgrwt>
</event>
<event>
 5    1  0.6079230E+000  0.9121022E+02  0.7546771E-02  0.1299947E+00
         -3   -1    0    0    0  501 -0.00000000000E+00  0.00000000000E+00  0.10307636824E+03  0.10307636824E+03  0.00000000000E+00 0.  1.
          3   -1    0    0  501    0  0.00000000000E+00 -0.00000000000E+00 -0.20177526437E+02  0.20177526437E+02  0.00000000000E+00 0. -1.
         23    2    1    2    0    0  0.00000000000E+00  0.00000000000E+00  0.82898841801E+02  0.12325389467E+03  0.91210221908E+02 0.  0.
        -13    1    3    3    0    0 -0.24869723748E+02 -0.38163513906E+02  0.38467572256E+02  0.59621397738E+02  0.00000000000E+00 0.  1.
         13    1    3    3    0    0  0.24869723748E+02  0.38163513906E+02  0.44431269545E+02  0.63632496937E+02  0.00000000000E+00 0. -1.
<mgrwt>
<rscale>  0 0.91210222E+02</rscale>
<asrwt>0</asrwt>
<pdfrwt beam="2">  1        3 0.31042349E-02 0.91210222E+02</pdfrwt>
<pdfrwt beam="1">  1       -3 0.15857903E-01 0.91210222E+02</pdfrwt>
<totfact> 0.32994053E+04</totfact>
</mgrwt>
</event>
<event>
 5    1  0.6079230E+000  0.9127249E+02  0.7546771E-02  0.1299799E+00
          2   -1    0    0  501    0  0.00000000000E+00  0.00000000000E+00  0.93496500734E+02  0.93496500734E+02  0.00000000000E+00 0. -1.
         -2   -1    0    0    0  501 -0.00000000000E+00 -0.00000000000E+00 -0.22275344818E+02  0.22275344818E+02  0.00000000000E+00 0.  1.
         23    2    1    2    0    0  0.00000000000E+00  0.00000000000E+00  0.71221155916E+02  0.11577184555E+03  0.91272488586E+02 0.  0.
        -13    1    3    3    0    0 -0.11645881703E+02 -0.32783199817E+02 -0.18519007618E+01  0.34839550619E+02  0.00000000000E+00 0.  1.
         13    1    3    3    0    0  0.11645881703E+02  0.32783199817E+02  0.73073056678E+02  0.80932294933E+02  0.00000000000E+00 0. -1.
<mgrwt>
<rscale>  0 0.91272489E+02</rscale>
<asrwt>0</asrwt>
<pdfrwt beam="1">  1        2 0.14384077E-01 0.91272489E+02</pdfrwt>
<pdfrwt beam="2">  1       -2 0.34269762E-02 0.91272489E+02</pdfrwt>
<totfact> 0.11986490E+05</totfact>
</mgrwt>
</event>
<event>
 5    1  0.6079230E+000  0.9199892E+02  0.7546771E-02  0.1298082E+00
         -1   -1    0    0    0  501 -0.00000000000E+00  0.00000000000E+00  0.88902754949E+01  0.88902754949E+01  0.00000000000E+00 0.  1.
          1   -1    0    0  501    0  0.00000000000E+00 -0.00000000000E+00 -0.23800727228E+03  0.23800727228E+03  0.00000000000E+00 0. -1.
         23    2    1    2    0    0  0.00000000000E+00  0.00000000000E+00 -0.22911699678E+03  0.24689754777E+03  0.91998917827E+02 0.  0.
        -13    1    3    3    0    0 -0.31352088108E+02  0.29732410842E+02 -0.15690492393E+03  0.16274558316E+03  0.00000000000E+00 0. -1.
         13    1    3    3    0    0  0.31352088108E+02 -0.29732410842E+02 -0.72212072852E+02  0.84151964616E+02  0.00000000000E+00 0.  1.
<mgrwt>
<rscale>  0 0.91998918E+02</rscale>
<asrwt>0</asrwt>
<pdfrwt beam="2">  1        1 0.36616503E-01 0.91998918E+02</pdfrwt>
<pdfrwt beam="1">  1       -1 0.13677347E-02 0.91998918E+02</pdfrwt>
<totfact> 0.11958248E+05</totfact>
</mgrwt>
</event>
<event>
 5    1  0.6079230E+000  0.9247660E+02  0.7546771E-02  0.1296963E+00
          1   -1    0    0  501    0  0.00000000000E+00  0.00000000000E+00  0.11136585980E+02  0.11136585980E+02  0.00000000000E+00 0. -1.
         -1   -1    0    0    0  501 -0.00000000000E+00 -0.00000000000E+00 -0.19197809036E+03  0.19197809036E+03  0.00000000000E+00 0.  1.
         23    2    1    2    0    0  0.00000000000E+00  0.00000000000E+00 -0.18084150438E+03  0.20311467634E+03  0.92476602651E+02 0.  0.
        -13    1    3    3    0    0 -0.28450424190E+02  0.27826866102E+02 -0.38713638158E+02  0.55520328648E+02  0.00000000000E+00 0. -1.
         13    1    3    3    0    0  0.28450424190E+02 -0.27826866102E+02 -0.14212786622E+03  0.14759434769E+03  0.00000000000E+00 0.  1.
<mgrwt>
<rscale>  0 0.92476603E+02</rscale>
<asrwt>0</asrwt>
<pdfrwt beam="1">  1        1 0.17133210E-02 0.92476603E+02</pdfrwt>
<pdfrwt beam="2">  1       -1 0.29535090E-01 0.92476603E+02</pdfrwt>
<totfact> 0.67685549E+04</totfact>
</mgrwt>
</event>
<event>
 5    1  0.6079230E+000  0.9777773E+02  0.7546771E-02  0.1285040E+00
          1   -1    0    0  501    0  0.00000000000E+00  0.00000000000E+00  0.18772448133E+03  0.18772448133E+03  0.00000000000E+00 0. -1.
         -1   -1    0    0    0  501 -0.00000000000E+00 -0.00000000000E+00 -0.12732068472E+02  0.12732068472E+02  0.00000000000E+00 0.  1.
         23    2    1    2    0    0  0.00000000000E+00  0.00000000000E+00  0.17499241286E+03  0.20045654980E+03  0.97777726504E+02 0.  0.
        -13    1    3    3    0    0 -0.31822289673E+02  0.26450558931E+02  0.34120829677E+02  0.53633209914E+02  0.00000000000E+00 0.  1.
         13    1    3    3    0    0  0.31822289673E+02 -0.26450558931E+02  0.14087158318E+03  0.14682333989E+03  0.00000000000E+00 0. -1.
<mgrwt>
<rscale>  0 0.97777727E+02</rscale>
<asrwt>0</asrwt>
<pdfrwt beam="1">  1        1 0.28880687E-01 0.97777727E+02</pdfrwt>
<pdfrwt beam="2">  1       -1 0.19587799E-02 0.97777727E+02</pdfrwt>
<totfact> 0.96868559E+04</totfact>
</mgrwt>
</event>
<event>
 5    1  0.6079230E+000  0.9485001E+02  0.7546771E-02  0.1291514E+00
         -4   -1    0    0    0  501 -0.00000000000E+00  0.00000000000E+00  0.25029808657E+02  0.25029808657E+02  0.00000000000E+00 0. -1.
          4   -1    0    0  501    0  0.00000000000E+00 -0.00000000000E+00 -0.89858109474E+02  0.89858109474E+02  0.00000000000E+00 0.  1.
         23    2    1    2    0    0  0.00000000000E+00  0.00000000000E+00 -0.64828300817E+02  0.11488791813E+03  0.94850013947E+02 0.  0.
        -13    1    3    3    0    0  0.16105334863E+02  0.26812879805E+01 -0.86346600355E+02  0.87876655086E+02  0.00000000000E+00 0.  1.
         13    1    3    3    0    0 -0.16105334863E+02 -0.26812879805E+01  0.21518299538E+02  0.27011263045E+02  0.00000000000E+00 0. -1.
<mgrwt>
<rscale>  0 0.94850014E+02</rscale>
<asrwt>0</asrwt>
<pdfrwt beam="2">  1        4 0.13824324E-01 0.94850014E+02</pdfrwt>
<pdfrwt beam="1">  1       -4 0.38507398E-02 0.94850014E+02</pdfrwt>
<totfact> 0.22965840E+04</totfact>
</mgrwt>
</event>
<event>
 5    1  0.6079230E+000  0.8508957E+02  0.7546771E-02  0.1315198E+00
          1   -1    0    0  501    0  0.00000000000E+00  0.00000000000E+00  0.21112050058E+02  0.21112050058E+02  0.00000000000E+00 0. -1.
         -1   -1    0    0    0  501 -0.00000000000E+00 -0.00000000000E+00 -0.85735814586E+02  0.85735814586E+02  0.00000000000E+00 0.  1.
         23    2    1    2    0    0  0.00000000000E+00  0.00000000000E+00 -0.64623764528E+02  0.10684786464E+03  0.85089571848E+02 0.  0.
        -13    1    3    3    0    0  0.10762786516E+02  0.30510698657E+02 -0.67004926017E+02  0.74406991719E+02  0.00000000000E+00 0.  1.
         13    1    3    3    0    0 -0.10762786516E+02 -0.30510698657E+02  0.23811614890E+01  0.32440872925E+02  0.00000000000E+00 0. -1.
<mgrwt>
<rscale>  0 0.85089572E+02</rscale>
<asrwt>0</asrwt>
<pdfrwt beam="1">  1        1 0.32480077E-02 0.85089572E+02</pdfrwt>
<pdfrwt beam="2">  1       -1 0.13190125E-01 0.85089572E+02</pdfrwt>
<totfact> 0.99841349E+04</totfact>
</mgrwt>
</event>
<event>
 5    1  0.6079230E+000  0.9123829E+02  0.7546771E-02  0.1299880E+00
         -2   -1    0    0    0  501 -0.00000000000E+00  0.00000000000E+00  0.24487790742E+03  0.24487790742E+03  0.00000000000E+00 0.  1.
          2   -1    0    0  501    0  0.00000000000E+00 -0.00000000000E+00 -0.84985461688E+01  0.84985461688E+01  0.00000000000E+00 0. -1.
         23    2    1    2    0    0  0.00000000000E+00  0.00000000000E+00  0.23637936125E+03  0.25337645359E+03  0.91238285865E+02 0.  0.
        -13    1    3    3    0    0  0.34092487925E+02 -0.62056859466E+01  0.20058527223E+03  0.20355652705E+03  0.00000000000E+00 0.  1.
         13    1    3    3    0    0 -0.34092487925E+02  0.62056859466E+01  0.35794089021E+02  0.49819926533E+02  0.00000000000E+00 0. -1.
<mgrwt>
<rscale>  0 0.91238286E+02</rscale>
<asrwt>0</asrwt>
<pdfrwt beam="2">  1        2 0.13074688E-02 0.91238286E+02</pdfrwt>
<pdfrwt beam="1">  1       -2 0.37673519E-01 0.91238286E+02</pdfrwt>
<totfact> 0.56658391E+04</totfact>
</mgrwt>
</event>
<event>
 5    1  0.6079230E+000  0.9142344E+02  0.7546771E-02  0.1299441E+00
          1   -1    0    0  501    0  0.00000000000E+00  0.00000000000E+00  0.11163655156E+03  0.11163655156E+03  0.00000000000E+00 0. -1.
         -1   -1    0    0    0  501 -0.00000000000E+00 -0.00000000000E+00 -0.18717537763E+02  0.18717537763E+02  0.00000000000E+00 0.  1.
         23    2    1    2    0    0  0.00000000000E+00  0.00000000000E+00  0.92919013792E+02  0.13035408932E+03  0.91423440529E+02 0.  0.
        -13    1    3    3    0    0  0.29859354599E+02 -0.72035868595E+01 -0.18103714729E+01  0.30769305575E+02  0.00000000000E+00 0.  1.
         13    1    3    3    0    0 -0.29859354599E+02  0.72035868595E+01  0.94729385265E+02  0.99584783745E+02  0.00000000000E+00 0. -1.
<mgrwt>
<rscale>  0 0.91423441E+02</rscale>
<asrwt>0</asrwt>
<pdfrwt beam="1">  1        1 0.17174854E-01 0.91423441E+02</pdfrwt>
<pdfrwt beam="2">  1       -1 0.28796213E-02 0.91423441E+02</pdfrwt>
<totfact> 0.10562808E+05</totfact>
</mgrwt>
</event>
<event>
 5    1  0.6079230E+000  0.9262178E+02  0.7546771E-02  0.1296624E+00
         -2   -1    0    0    0  501 -0.00000000000E+00  0.00000000000E+00  0.12353296889E+02  0.12353296889E+02  0.00000000000E+00 0. -1.
          2   -1    0    0  501    0  0.00000000000E+00 -0.00000000000E+00 -0.17361347190E+03  0.17361347190E+03  0.00000000000E+00 0.  1.
         23    2    1    2    0    0  0.00000000000E+00  0.00000000000E+00 -0.16126017501E+03  0.18596676879E+03  0.92621784959E+02 0.  0.
        -13    1    3    3    0    0  0.26647264130E+02 -0.22040837321E+02 -0.18783615513E+02  0.39353518358E+02  0.00000000000E+00 0. -1.
         13    1    3    3    0    0 -0.26647264130E+02  0.22040837321E+02 -0.14247655950E+03  0.14661325043E+03  0.00000000000E+00 0.  1.
<mgrwt>
<rscale>  0 0.92621785E+02</rscale>
<asrwt>0</asrwt>
<pdfrwt beam="2">  1        2 0.26709765E-01 0.92621785E+02</pdfrwt>
<pdfrwt beam="1">  1       -2 0.19005072E-02 0.92621785E+02</pdfrwt>
<totfact> 0.14093002E+05</totfact>
</mgrwt>
</event>
<event>
 5    1  0.6079230E+000  0.9270883E+02  0.7546771E-02  0.1296421E+00
          1   -1    0    0  501    0  0.00000000000E+00  0.00000000000E+00  0.10046225372E+02  0.10046225372E+02  0.00000000000E+00 0. -1.
         -1   -1    0    0    0  501 -0.00000000000E+00 -0.00000000000E+00 -0.21388447278E+03  0.21388447278E+03  0.00000000000E+00 0.  1.
         23    2    1    2    0    0  0.00000000000E+00  0.00000000000E+00 -0.20383824741E+03  0.22393069815E+03  0.92708826272E+02 0.  0.
        -13    1    3    3    0    0 -0.25288711784E+02 -0.18470358995E+02 -0.18447060121E+03  0.18710979615E+03  0.00000000000E+00 0.  1.
         13    1    3    3    0    0  0.25288711784E+02  0.18470358995E+02 -0.19367646203E+02  0.36820902006E+02  0.00000000000E+00 0. -1.
<mgrwt>
<rscale>  0 0.92708826E+02</rscale>
<asrwt>0</asrwt>
<pdfrwt beam="1">  1        1 0.15455732E-02 0.92708826E+02</pdfrwt>
<pdfrwt beam="2">  1       -1 0.32905302E-01 0.92708826E+02</pdfrwt>
<totfact> 0.65173787E+04</totfact>
</mgrwt>
</event>
<event>
 5    1  0.6079230E+000  0.9190499E+02  0.7546771E-02  0.1298303E+00
         -1   -1    0    0    0  501 -0.00000000000E+00  0.00000000000E+00  0.20593223503E+02  0.20593223503E+02  0.00000000000E+00 0.  1.
          1   -1    0    0  501    0  0.00000000000E+00 -0.00000000000E+00 -0.10254013649E+03  0.10254013649E+03  0.00000000000E+00 0. -1.
         23    2    1    2    0    0  0.00000000000E+00  0.00000000000E+00 -0.81946912986E+02  0.12313335999E+03  0.91904993308E+02 0.  0.
        -13    1    3    3    0    0  0.32431484258E+02 -0.26107869270E+02 -0.14917735698E+02  0.44226246137E+02  0.00000000000E+00 0.  1.
         13    1    3    3    0    0 -0.32431484258E+02  0.26107869270E+02 -0.67029177287E+02  0.78907113854E+02  0.00000000000E+00 0. -1.
<mgrwt>
<rscale>  0 0.91904993E+02</rscale>
<asrwt>0</asrwt>
<pdfrwt beam="2">  1        1 0.15775406E-01 0.91904993E+02</pdfrwt>
<pdfrwt beam="1">  1       -1 0.31681882E-02 0.91904993E+02</pdfrwt>
<totfact> 0.10263798E+05</totfact>
</mgrwt>
</event>
<event>
 5    1  0.6079230E+000  0.9068047E+02  0.7546771E-02  0.1301212E+00
          1   -1    0    0  501    0  0.00000000000E+00  0.00000000000E+00  0.15104516387E+03  0.15104516387E+03  0.00000000000E+00 0. -1.
         -1   -1    0    0    0  501 -0.00000000000E+00 -0.00000000000E+00 -0.13610079859E+02  0.13610079859E+02  0.00000000000E+00 0.  1.
         23    2    1    2    0    0  0.00000000000E+00  0.00000000000E+00  0.13743508401E+03  0.16465524373E+03  0.90680466310E+02 0.  0.
        -13    1    3    3    0    0 -0.41547397431E+02 -0.10929690881E+02  0.42398689037E+02  0.60359698542E+02  0.00000000000E+00 0. -1.
         13    1    3    3    0    0  0.41547397431E+02  0.10929690881E+02  0.95036394977E+02  0.10429554519E+03  0.00000000000E+00 0.  1.
<mgrwt>
<rscale>  0 0.90680466E+02</rscale>
<asrwt>0</asrwt>
<pdfrwt beam="1">  1        1 0.23237716E-01 0.90680466E+02</pdfrwt>
<pdfrwt beam="2">  1       -1 0.20938585E-02 0.90680466E+02</pdfrwt>
<totfact> 0.11394036E+05</totfact>
</mgrwt>
</event>
<event>
 5    1  0.6079230E+000  0.9247119E+02  0.7546771E-02  0.1296975E+00
          2   -1    0    0  501    0  0.00000000000E+00  0.00000000000E+00  0.13956517157E+03  0.13956517157E+03  0.00000000000E+00 0. -1.
         -2   -1    0    0    0  501 -0.00000000000E+00 -0.00000000000E+00 -0.15317075330E+02  0.15317075330E+02  0.00000000000E+00 0.  1.
         23    2    1    2    0    0  0.00000000000E+00  0.00000000000E+00  0.12424809624E+03  0.15488224690E+03  0.92471190031E+02 0.  0.
        -13    1    3    3    0    0 -0.22918161868E+02 -0.37898207277E+02  0.84357934602E+02  0.95277370810E+02  0.00000000000E+00 0. -1.
         13    1    3    3    0    0  0.22918161868E+02  0.37898207277E+02  0.39890161639E+02  0.59604876091E+02  0.00000000000E+00 0.  1.
<mgrwt>
<rscale>  0 0.92471190E+02</rscale>
<asrwt>0</asrwt>
<pdfrwt beam="1">  1        2 0.21471564E-01 0.92471190E+02</pdfrwt>
<pdfrwt beam="2">  1       -2 0.23564732E-02 0.92471190E+02</pdfrwt>
<totfact> 0.13130923E+05</totfact>
</mgrwt>
</event>
<event>
 5    1  0.6079230E+000  0.9133865E+02  0.7546771E-02  0.1299642E+00
         -1   -1    0    0    0  501 -0.00000000000E+00  0.00000000000E+00  0.12706856388E+03  0.12706856388E+03  0.00000000000E+00 0.  1.
          1   -1    0    0  501    0  0.00000000000E+00 -0.00000000000E+00 -0.16413872346E+02  0.16413872346E+02  0.00000000000E+00 0. -1.
         23    2    1    2    0    0  0.00000000000E+00  0.00000000000E+00  0.11065469153E+03  0.14348243622E+03  0.91338648702E+02 0.  0.
        -13    1    3    3    0    0  0.13884216172E+02 -0.28740989972E+02  0.10663712669E+03  0.11131169190E+03  0.00000000000E+00 0.  1.
         13    1    3    3    0    0 -0.13884216172E+02  0.28740989972E+02  0.40175648365E+01  0.32170744326E+02  0.00000000000E+00 0. -1.
<mgrwt>
<rscale>  0 0.91338649E+02</rscale>
<asrwt>0</asrwt>
<pdfrwt beam="2">  1        1 0.25252112E-02 0.91338649E+02</pdfrwt>
<pdfrwt beam="1">  1       -1 0.19549009E-01 0.91338649E+02</pdfrwt>
<totfact> 0.77245268E+04</totfact>
</mgrwt>
</event>
<event>
 5    1  0.6079230E+000  0.8984471E+02  0.7546771E-02  0.1303228E+00
         -3   -1    0    0    0  501 -0.00000000000E+00  0.00000000000E+00  0.47301886179E+02  0.47301886179E+02  0.00000000000E+00 0.  1.
          3   -1    0    0  501    0  0.00000000000E+00 -0.00000000000E+00 -0.42662524466E+02  0.42662524466E+02  0.00000000000E+00 0. -1.
         23    2    1    2    0    0  0.00000000000E+00  0.00000000000E+00  0.46393617128E+01  0.89964410646E+02  0.89844707722E+02 0.  0.
        -13    1    3    3    0    0  0.33623424025E+02 -0.28753082320E+02  0.10123875825E+02  0.45384658727E+02  0.00000000000E+00 0.  1.
         13    1    3    3    0    0 -0.33623424025E+02  0.28753082320E+02 -0.54845141124E+01  0.44579751918E+02  0.00000000000E+00 0. -1.
<mgrwt>
<rscale>  0 0.89844708E+02</rscale>
<asrwt>0</asrwt>
<pdfrwt beam="2">  1        3 0.65634653E-02 0.89844708E+02</pdfrwt>
<pdfrwt beam="1">  1       -3 0.72772133E-02 0.89844708E+02</pdfrwt>
<totfact> 0.36879093E+04</totfact>
</mgrwt>
</event>
<event>
 5    1  0.6079230E+000  0.9269629E+02  0.7546771E-02  0.1296451E+00
         -3   -1    0    0    0  501 -0.00000000000E+00  0.00000000000E+00  0.15053105122E+02  0.15053105122E+02  0.00000000000E+00 0.  1.
          3   -1    0    0  501    0  0.00000000000E+00 -0.00000000000E+00 -0.14270481281E+03  0.14270481281E+03  0.00000000000E+00 0. -1.
         23    2    1    2    0    0  0.00000000000E+00  0.00000000000E+00 -0.12765170769E+03  0.15775791793E+03  0.92696290081E+02 0.  0.
        -13    1    3    3    0    0 -0.42673504865E+02  0.12505235306E+02 -0.41587711122E+02  0.60884699588E+02  0.00000000000E+00 0.  1.
         13    1    3    3    0    0  0.42673504865E+02 -0.12505235306E+02 -0.86063996567E+02  0.96873218345E+02  0.00000000000E+00 0. -1.
<mgrwt>
<rscale>  0 0.92696290E+02</rscale>
<asrwt>0</asrwt>
<pdfrwt beam="2">  1        3 0.21954586E-01 0.92696290E+02</pdfrwt>
<pdfrwt beam="1">  1       -3 0.23158624E-02 0.92696290E+02</pdfrwt>
<totfact> 0.29486746E+04</totfact>
</mgrwt>
</event>
<event>
 5    1  0.6079230E+000  0.8948127E+02  0.7546771E-02  0.1304113E+00
          1   -1    0    0  501    0  0.00000000000E+00  0.00000000000E+00  0.80905746923E+02  0.80905746923E+02  0.00000000000E+00 0. -1.
         -1   -1    0    0    0  501 -0.00000000000E+00 -0.00000000000E+00 -0.24741434357E+02  0.24741434357E+02  0.00000000000E+00 0.  1.
         23    2    1    2    0    0  0.00000000000E+00  0.00000000000E+00  0.56164312567E+02  0.10564718128E+03  0.89481265673E+02 0.  0.
        -13    1    3    3    0    0 -0.13408946158E+02 -0.33789665145E+02 -0.27098975071E+01  0.36453872938E+02  0.00000000000E+00 0. -1.
         13    1    3    3    0    0  0.13408946158E+02  0.33789665145E+02  0.58874210074E+02  0.69193308343E+02  0.00000000000E+00 0.  1.
<mgrwt>
<rscale>  0 0.89481266E+02</rscale>
<asrwt>0</asrwt>
<pdfrwt beam="1">  1        1 0.12447038E-01 0.89481266E+02</pdfrwt>
<pdfrwt beam="2">  1       -1 0.38063745E-02 0.89481266E+02</pdfrwt>
<totfact> 0.10624640E+05</totfact>
</mgrwt>
</event>
<event>
 5    1  0.6079230E+000  0.9157034E+02  0.7546771E-02  0.1299093E+00
          3   -1    0    0  501    0  0.00000000000E+00  0.00000000000E+00  0.46728790350E+02  0.46728790350E+02  0.00000000000E+00 0. -1.
         -3   -1    0    0    0  501 -0.00000000000E+00 -0.00000000000E+00 -0.44860608420E+02  0.44860608420E+02  0.00000000000E+00 0.  1.
         23    2    1    2    0    0  0.00000000000E+00  0.00000000000E+00  0.18681819307E+01  0.91589398770E+02  0.91570343798E+02 0.  0.
        -13    1    3    3    0    0 -0.27891370640E+02 -0.16167974608E+02  0.33451623717E+02  0.46457971204E+02  0.00000000000E+00 0. -1.
         13    1    3    3    0    0  0.27891370640E+02  0.16167974608E+02 -0.31583441786E+02  0.45131427566E+02  0.00000000000E+00 0.  1.
<mgrwt>
<rscale>  0 0.91570344E+02</rscale>
<asrwt>0</asrwt>
<pdfrwt beam="1">  1        3 0.71890447E-02 0.91570344E+02</pdfrwt>
<pdfrwt beam="2">  1       -3 0.69016320E-02 0.91570344E+02</pdfrwt>
<totfact> 0.34894128E+04</totfact>
</mgrwt>
</event>
<event>
 5    1  0.6079230E+000  0.9572923E+02  0.7546771E-02  0.1289542E+00
         -2   -1    0    0    0  501 -0.00000000000E+00  0.00000000000E+00  0.74244115970E+02  0.74244115970E+02  0.00000000000E+00 0.  1.
          2   -1    0    0  501    0  0.00000000000E+00 -0.00000000000E+00 -0.30857950341E+02  0.30857950341E+02  0.00000000000E+00 0. -1.
         23    2    1    2    0    0  0.00000000000E+00  0.00000000000E+00  0.43386165629E+02  0.10510206631E+03  0.95729227381E+02 0.  0.
        -13    1    3    3    0    0  0.27905734719E+02 -0.35736332827E+02  0.48550772364E+01  0.45600299221E+02  0.00000000000E+00 0.  1.
         13    1    3    3    0    0 -0.27905734719E+02  0.35736332827E+02  0.38531088393E+02  0.59501767090E+02  0.00000000000E+00 0. -1.
<mgrwt>
<rscale>  0 0.95729227E+02</rscale>
<asrwt>0</asrwt>
<pdfrwt beam="2">  1        2 0.47473770E-02 0.95729227E+02</pdfrwt>
<pdfrwt beam="1">  1       -2 0.11422172E-01 0.95729227E+02</pdfrwt>
<totfact> 0.77084674E+04</totfact>
</mgrwt>
</event>
<event>
 5    1  0.6079230E+000  0.1055054E+03  0.7546771E-02  0.1269127E+00
         -2   -1    0    0    0  501 -0.00000000000E+00  0.00000000000E+00  0.23600936886E+02  0.23600936886E+02  0.00000000000E+00 0.  1.
          2   -1    0    0  501    0  0.00000000000E+00 -0.00000000000E+00 -0.11791257031E+03  0.11791257031E+03  0.00000000000E+00 0. -1.
         23    2    1    2    0    0  0.00000000000E+00  0.00000000000E+00 -0.94311633427E+02  0.14151350720E+03  0.10550539569E+03 0.  0.
        -13    1    3    3    0    0 -0.88292489922E+01  0.21027019055E+02  0.16647327719E+02  0.28235167580E+02  0.00000000000E+00 0.  1.
         13    1    3    3    0    0  0.88292489922E+01 -0.21027019055E+02 -0.11095896115E+03  0.11327833962E+03  0.00000000000E+00 0. -1.
<mgrwt>
<rscale>  0 0.10550540E+03</rscale>
<asrwt>0</asrwt>
<pdfrwt beam="2">  1        2 0.18140396E-01 0.10550540E+03</pdfrwt>
<pdfrwt beam="1">  1       -2 0.36309133E-02 0.10550540E+03</pdfrwt>
<totfact> 0.86242733E+04</totfact>
</mgrwt>
</event>
<event>
 5    1  0.6079230E+000  0.9061233E+02  0.7546771E-02  0.1301376E+00
          2   -1    0    0  501    0  0.00000000000E+00  0.00000000000E+00  0.34285395559E+02  0.34285395559E+02  0.00000000000E+00 0. -1.
         -2   -1    0    0    0  501 -0.00000000000E+00 -0.00000000000E+00 -0.59869472694E+02  0.59869472694E+02  0.00000000000E+00 0.  1.
         23    2    1    2    0    0  0.00000000000E+00  0.00000000000E+00 -0.25584077136E+02  0.94154868253E+02  0.90612329254E+02 0.  0.
        -13    1    3    3    0    0 -0.14788771192E+01  0.34173457704E+02 -0.43662730877E+02  0.55465722357E+02  0.00000000000E+00 0.  1.
         13    1    3    3    0    0  0.14788771192E+01 -0.34173457704E+02  0.18078653741E+02  0.38689145895E+02  0.00000000000E+00 0. -1.
<mgrwt>
<rscale>  0 0.90612329E+02</rscale>
<asrwt>0</asrwt>
<pdfrwt beam="1">  1        2 0.52746763E-02 0.90612329E+02</pdfrwt>
<pdfrwt beam="2">  1       -2 0.92106880E-02 0.90612329E+02</pdfrwt>
<totfact> 0.93324694E+04</totfact>
</mgrwt>
</event>
<event>
 5    1  0.6079230E+000  0.8749170E+02  0.7546771E-02  0.1309042E+00
          2   -1    0    0  501    0  0.00000000000E+00  0.00000000000E+00  0.97253784742E+02  0.97253784742E+02  0.00000000000E+00 0. -1.
         -2   -1    0    0    0  501 -0.00000000000E+00 -0.00000000000E+00 -0.19677379120E+02  0.19677379120E+02  0.00000000000E+00 0.  1.
         23    2    1    2    0    0  0.00000000000E+00  0.00000000000E+00  0.77576405622E+02  0.11693116386E+03  0.87491704595E+02 0.  0.
        -13    1    3    3    0    0  0.40020052619E+02  0.60528873770E+01  0.60969693217E+02  0.73181592960E+02  0.00000000000E+00 0.  1.
         13    1    3    3    0    0 -0.40020052619E+02 -0.60528873770E+01  0.16606712405E+02  0.43749570902E+02  0.00000000000E+00 0. -1.
<mgrwt>
<rscale>  0 0.87491705E+02</rscale>
<asrwt>0</asrwt>
<pdfrwt beam="1">  1        2 0.14962120E-01 0.87491705E+02</pdfrwt>
<pdfrwt beam="2">  1       -2 0.30272891E-02 0.87491705E+02</pdfrwt>
<totfact> 0.13623383E+05</totfact>
</mgrwt>
</event>
<event>
 5    1  0.6079230E+000  0.8939853E+02  0.7546771E-02  0.1304315E+00
          1   -1    0    0  501    0  0.00000000000E+00  0.00000000000E+00  0.63589230024E+02  0.63589230024E+02  0.00000000000E+00 0. -1.
         -1   -1    0    0    0  501 -0.00000000000E+00 -0.00000000000E+00 -0.31420799947E+02  0.31420799947E+02  0.00000000000E+00 0.  1.
         23    2    1    2    0    0  0.00000000000E+00  0.00000000000E+00  0.32168430077E+02  0.95010029971E+02  0.89398534113E+02 0.  0.
        -13    1    3    3    0    0  0.21139648059E+02 -0.16011528169E+02 -0.22157335469E+02  0.34557217328E+02  0.00000000000E+00 0.  1.
         13    1    3    3    0    0 -0.21139648059E+02  0.16011528169E+02  0.54325765546E+02  0.60452812643E+02  0.00000000000E+00 0. -1.
<mgrwt>
<rscale>  0 0.89398534E+02</rscale>
<asrwt>0</asrwt>
<pdfrwt beam="1">  1        1 0.97829584E-02 0.89398534E+02</pdfrwt>
<pdfrwt beam="2">  1       -1 0.48339692E-02 0.89398534E+02</pdfrwt>
<totfact> 0.10265942E+05</totfact>
</mgrwt>
</event>
<event>
 5    1  0.6079230E+000  0.9194879E+02  0.7546771E-02  0.1298200E+00
         -1   -1    0    0    0  501 -0.00000000000E+00  0.00000000000E+00  0.14229264275E+02  0.14229264275E+02  0.00000000000E+00 0.  1.
          1   -1    0    0  501    0  0.00000000000E+00 -0.00000000000E+00 -0.14854212327E+03  0.14854212327E+03  0.00000000000E+00 0. -1.
         23    2    1    2    0    0  0.00000000000E+00  0.00000000000E+00 -0.13431285899E+03  0.16277138754E+03  0.91948792877E+02 0.  0.
        -13    1    3    3    0    0  0.30798312129E+02  0.25076997240E+02 -0.26162738289E+02  0.47559233545E+02  0.00000000000E+00 0.  1.
         13    1    3    3    0    0 -0.30798312129E+02 -0.25076997240E+02 -0.10815012070E+03  0.11521215400E+03  0.00000000000E+00 0. -1.
<mgrwt>
<rscale>  0 0.91948793E+02</rscale>
<asrwt>0</asrwt>
<pdfrwt beam="2">  1        1 0.22852634E-01 0.91948793E+02</pdfrwt>
<pdfrwt beam="1">  1       -1 0.21891177E-02 0.91948793E+02</pdfrwt>
<totfact> 0.10941070E+05</totfact>
</mgrwt>
</event>
<event>
 5    1  0.6079230E+000  0.9240760E+02  0.7546771E-02  0.1297124E+00
          2   -1    0    0  501    0  0.00000000000E+00  0.00000000000E+00  0.35252640830E+02  0.35252640830E+02  0.00000000000E+00 0. -1.
         -2   -1    0    0    0  501 -0.00000000000E+00 -0.00000000000E+00 -0.60556919117E+02  0.60556919117E+02  0.00000000000E+00 0.  1.
         23    2    1    2    0    0  0.00000000000E+00  0.00000000000E+00 -0.25304278288E+02  0.95809559947E+02  0.92407604003E+02 0.  0.
        -13    1    3    3    0    0  0.14353664071E+02  0.30329729623E-01 -0.58186635583E+02  0.59930903152E+02  0.00000000000E+00 0.  1.
         13    1    3    3    0    0 -0.14353664071E+02 -0.30329729623E-01  0.32882357295E+02  0.35878656795E+02  0.00000000000E+00 0. -1.
<mgrwt>
<rscale>  0 0.92407604E+02</rscale>
<asrwt>0</asrwt>
<pdfrwt beam="1">  1        2 0.54234832E-02 0.92407604E+02</pdfrwt>
<pdfrwt beam="2">  1       -2 0.93164491E-02 0.92407604E+02</pdfrwt>
<totfact> 0.88750221E+04</totfact>
</mgrwt>
</event>
<event>
 5    1  0.6079230E+000  0.9098698E+02  0.7546771E-02  0.1300479E+00
          1   -1    0    0  501    0  0.00000000000E+00  0.00000000000E+00  0.57695171982E+02  0.57695171982E+02  0.00000000000E+00 0. -1.
         -1   -1    0    0    0  501 -0.00000000000E+00 -0.00000000000E+00 -0.35872288451E+02  0.35872288451E+02  0.00000000000E+00 0.  1.
         23    2    1    2    0    0  0.00000000000E+00  0.00000000000E+00  0.21822883531E+02  0.93567460433E+02  0.90986984818E+02 0.  0.
        -13    1    3    3    0    0  0.35040575893E+02 -0.26979608958E+02  0.21887314508E+02  0.49343649994E+02  0.00000000000E+00 0. -1.
         13    1    3    3    0    0 -0.35040575893E+02  0.26979608958E+02 -0.64430976462E-01  0.44223810439E+02  0.00000000000E+00 0.  1.
<mgrwt>
<rscale>  0 0.90986985E+02</rscale>
<asrwt>0</asrwt>
<pdfrwt beam="1">  1        1 0.88761803E-02 0.90986985E+02</pdfrwt>
<pdfrwt beam="2">  1       -1 0.55188136E-02 0.90986985E+02</pdfrwt>
<totfact> 0.96359243E+04</totfact>
</mgrwt>
</event>
<event>
 5    1  0.6079230E+000  0.9148608E+02  0.7546771E-02  0.1299292E+00
          2   -1    0    0  501    0  0.00000000000E+00  0.00000000000E+00  0.16933119815E+02  0.16933119815E+02  0.00000000000E+00 0. -1.
         -2   -1    0    0    0  501 -0.00000000000E+00 -0.00000000000E+00 -0.12356999660E+03  0.12356999660E+03  0.00000000000E+00 0.  1.
         23    2    1    2    0    0  0.00000000000E+00  0.00000000000E+00 -0.10663687679E+03  0.14050311642E+03  0.91486076710E+02 0.  0.
        -13    1    3    3    0    0  0.26997051360E+02 -0.32169699011E+02 -0.25474692490E+02  0.49119143662E+02  0.00000000000E+00 0. -1.
         13    1    3    3    0    0 -0.26997051360E+02  0.32169699011E+02 -0.81162184296E+02  0.91383972754E+02  0.00000000000E+00 0.  1.
<mgrwt>
<rscale>  0 0.91486077E+02</rscale>
<asrwt>0</asrwt>
<pdfrwt beam="1">  1        2 0.26050955E-02 0.91486077E+02</pdfrwt>
<pdfrwt beam="2">  1       -2 0.19010768E-01 0.91486077E+02</pdfrwt>
<totfact> 0.74065789E+04</totfact>
</mgrwt>
</event>
<event>
 5    1  0.6079230E+000  0.9249941E+02  0.7546771E-02  0.1296909E+00
          1   -1    0    0  501    0  0.00000000000E+00  0.00000000000E+00  0.71739099366E+02  0.71739099366E+02  0.00000000000E+00 0.  1.
         -1   -1    0    0    0  501 -0.00000000000E+00 -0.00000000000E+00 -0.29816867175E+02  0.29816867175E+02  0.00000000000E+00 0. -1.
         23    2    1    2    0    0  0.00000000000E+00  0.00000000000E+00  0.41922232191E+02  0.10155596654E+03  0.92499409664E+02 0.  0.
        -13    1    3    3    0    0 -0.17776102931E+02  0.16393466553E+02  0.64245760363E+02  0.68645854249E+02  0.00000000000E+00 0.  1.
         13    1    3    3    0    0  0.17776102931E+02 -0.16393466553E+02 -0.22323528172E+02  0.32910112292E+02  0.00000000000E+00 0. -1.
<mgrwt>
<rscale>  0 0.92499410E+02</rscale>
<asrwt>0</asrwt>
<pdfrwt beam="1">  1        1 0.11036784E-01 0.92499410E+02</pdfrwt>
<pdfrwt beam="2">  1       -1 0.45872104E-02 0.92499410E+02</pdfrwt>
<totfact> 0.95181345E+04</totfact>
</mgrwt>
</event>
<event>
 5    1  0.6079230E+000  0.9184937E+02  0.7546771E-02  0.1298434E+00
         -1   -1    0    0    0  501 -0.00000000000E+00  0.00000000000E+00  0.18010849766E+02  0.18010849766E+02  0.00000000000E+00 0.  1.
          1   -1    0    0  501    0  0.00000000000E+00 -0.00000000000E+00 -0.11710035161E+03  0.11710035161E+03  0.00000000000E+00 0. -1.
         23    2    1    2    0    0  0.00000000000E+00  0.00000000000E+00 -0.99089501841E+02  0.13511120137E+03  0.91849373223E+02 0.  0.
        -13    1    3    3    0    0 -0.39648606604E+02 -0.21728686255E+02 -0.37691578263E+02  0.58862576260E+02  0.00000000000E+00 0.  1.
         13    1    3    3    0    0  0.39648606604E+02  0.21728686255E+02 -0.61397923578E+02  0.76248625113E+02  0.00000000000E+00 0. -1.
<mgrwt>
<rscale>  0 0.91849373E+02</rscale>
<asrwt>0</asrwt>
<pdfrwt beam="2">  1        1 0.18015440E-01 0.91849373E+02</pdfrwt>
<pdfrwt beam="1">  1       -1 0.27708998E-02 0.91849373E+02</pdfrwt>
<totfact> 0.10516191E+05</totfact>
</mgrwt>
</event>
<event>
 5    1  0.6079230E+000  0.9157096E+02  0.7546771E-02  0.1299091E+00
         -2   -1    0    0    0  501 -0.00000000000E+00  0.00000000000E+00  0.16658185099E+02  0.16658185099E+02  0.00000000000E+00 0. -1.
          2   -1    0    0  501    0  0.00000000000E+00 -0.00000000000E+00 -0.12584266040E+03  0.12584266040E+03  0.00000000000E+00 0.  1.
         23    2    1    2    0    0  0.00000000000E+00  0.00000000000E+00 -0.10918447530E+03  0.14250084550E+03  0.91570963308E+02 0.  0.
        -13    1    3    3    0    0 -0.36109446445E+02 -0.27330307517E+02 -0.65086068712E+02  0.79290820225E+02  0.00000000000E+00 0.  1.
         13    1    3    3    0    0  0.36109446445E+02  0.27330307517E+02 -0.44098406589E+02  0.63210025275E+02  0.00000000000E+00 0. -1.
<mgrwt>
<rscale>  0 0.91570963E+02</rscale>
<asrwt>0</asrwt>
<pdfrwt beam="2">  1        2 0.19360410E-01 0.91570963E+02</pdfrwt>
<pdfrwt beam="1">  1       -2 0.25627977E-02 0.91570963E+02</pdfrwt>
<totfact> 0.13032768E+05</totfact>
</mgrwt>
</event>
<event>
 5    1  0.6079230E+000  0.9076268E+02  0.7546771E-02  0.1301015E+00
         -3   -1    0    0    0  501 -0.00000000000E+00  0.00000000000E+00  0.14669780723E+02  0.14669780723E+02  0.00000000000E+00 0.  1.
          3   -1    0    0  501    0  0.00000000000E+00 -0.00000000000E+00 -0.14038833258E+03  0.14038833258E+03  0.00000000000E+00 0. -1.
         23    2    1    2    0    0  0.00000000000E+00  0.00000000000E+00 -0.12571855186E+03  0.15505811330E+03  0.90762680767E+02 0.  0.
        -13    1    3    3    0    0  0.20893195829E+02 -0.40069894921E+02 -0.69974049986E+02  0.83297597699E+02  0.00000000000E+00 0. -1.
         13    1    3    3    0    0 -0.20893195829E+02  0.40069894921E+02 -0.55744501873E+02  0.71760515606E+02  0.00000000000E+00 0.  1.
<mgrwt>
<rscale>  0 0.90762681E+02</rscale>
<asrwt>0</asrwt>
<pdfrwt beam="2">  1        3 0.21598206E-01 0.90762681E+02</pdfrwt>
<pdfrwt beam="1">  1       -3 0.22568892E-02 0.90762681E+02</pdfrwt>
<totfact> 0.31384524E+04</totfact>
</mgrwt>
</event>
<event>
 5    1  0.6079230E+000  0.1004238E+03  0.7546771E-02  0.1279407E+00
          4   -1    0    0  501    0  0.00000000000E+00  0.00000000000E+00  0.70856290240E+02  0.70856290240E+02  0.00000000000E+00 0. -1.
         -4   -1    0    0    0  501 -0.00000000000E+00 -0.00000000000E+00 -0.35582373963E+02  0.35582373963E+02  0.00000000000E+00 0.  1.
         23    2    1    2    0    0  0.00000000000E+00  0.00000000000E+00  0.35273916278E+02  0.10643866420E+03  0.10042380230E+03 0.  0.
        -13    1    3    3    0    0  0.44457541937E+02 -0.16342694043E+02 -0.24792617336E-01  0.47366204179E+02  0.00000000000E+00 0.  1.
         13    1    3    3    0    0 -0.44457541937E+02  0.16342694043E+02  0.35298708895E+02  0.59072460024E+02  0.00000000000E+00 0. -1.
<mgrwt>
<rscale>  0 0.10042380E+03</rscale>
<asrwt>0</asrwt>
<pdfrwt beam="1">  1        4 0.10900968E-01 0.10042380E+03</pdfrwt>
<pdfrwt beam="2">  1       -4 0.54742114E-02 0.10042380E+03</pdfrwt>
<totfact> 0.20024616E+04</totfact>
</mgrwt>
</event>
<event>
 5    1  0.6079230E+000  0.9056681E+02  0.7546771E-02  0.1301485E+00
         -1   -1    0    0    0  501 -0.00000000000E+00  0.00000000000E+00  0.95444475128E+01  0.95444475128E+01  0.00000000000E+00 0. -1.
          1   -1    0    0  501    0  0.00000000000E+00 -0.00000000000E+00 -0.21484602223E+03  0.21484602223E+03  0.00000000000E+00 0.  1.
         23    2    1    2    0    0  0.00000000000E+00  0.00000000000E+00 -0.20530157472E+03  0.22439046974E+03  0.90566805895E+02 0.  0.
        -13    1    3    3    0    0 -0.11665172774E+02 -0.35896251823E+02 -0.16463940037E+03  0.16891047720E+03  0.00000000000E+00 0.  1.
         13    1    3    3    0    0  0.11665172774E+02  0.35896251823E+02 -0.40662174344E+02  0.55479992549E+02  0.00000000000E+00 0. -1.
<mgrwt>
<rscale>  0 0.90566806E+02</rscale>
<asrwt>0</asrwt>
<pdfrwt beam="2">  1        1 0.33053232E-01 0.90566806E+02</pdfrwt>
<pdfrwt beam="1">  1       -1 0.14683767E-02 0.90566806E+02</pdfrwt>
<totfact> 0.12224345E+05</totfact>
</mgrwt>
</event>
<event>
 5    1  0.6079230E+000  0.9058311E+02  0.7546771E-02  0.1301446E+00
          2   -1    0    0  501    0  0.00000000000E+00  0.00000000000E+00  0.89845938909E+02  0.89845938909E+02  0.00000000000E+00 0. -1.
         -2   -1    0    0    0  501 -0.00000000000E+00 -0.00000000000E+00 -0.22831583730E+02  0.22831583730E+02  0.00000000000E+00 0.  1.
         23    2    1    2    0    0  0.00000000000E+00  0.00000000000E+00  0.67014355179E+02  0.11267752264E+03  0.90583112708E+02 0.  0.
        -13    1    3    3    0    0  0.18745930509E+01 -0.26201823733E+02 -0.12387576748E+02  0.29043101138E+02  0.00000000000E+00 0.  1.
         13    1    3    3    0    0 -0.18745930509E+01  0.26201823733E+02  0.79401931927E+02  0.83634421501E+02  0.00000000000E+00 0. -1.
<mgrwt>
<rscale>  0 0.90583113E+02</rscale>
<asrwt>0</asrwt>
<pdfrwt beam="1">  1        2 0.13822452E-01 0.90583113E+02</pdfrwt>
<pdfrwt beam="2">  1       -2 0.35125514E-02 0.90583113E+02</pdfrwt>
<totfact> 0.12096152E+05</totfact>
</mgrwt>
</event>
<event>
 5    1  0.6079230E+000  0.8880243E+02  0.7546771E-02  0.1305778E+00
          1   -1    0    0  501    0  0.00000000000E+00  0.00000000000E+00  0.20799472399E+03  0.20799472399E+03  0.00000000000E+00 0. -1.
         -1   -1    0    0    0  501 -0.00000000000E+00 -0.00000000000E+00 -0.94784507858E+01  0.94784507858E+01  0.00000000000E+00 0.  1.
         23    2    1    2    0    0  0.00000000000E+00  0.00000000000E+00  0.19851627321E+03  0.21747317478E+03  0.88802426883E+02 0.  0.
        -13    1    3    3    0    0 -0.33713623860E+02  0.27655684895E+02  0.78765426324E+02  0.90030204513E+02  0.00000000000E+00 0. -1.
         13    1    3    3    0    0  0.33713623860E+02 -0.27655684895E+02  0.11975084688E+03  0.12744297026E+03  0.00000000000E+00 0.  1.
<mgrwt>
<rscale>  0 0.88802427E+02</rscale>
<asrwt>0</asrwt>
<pdfrwt beam="1">  1        1 0.31999185E-01 0.88802427E+02</pdfrwt>
<pdfrwt beam="2">  1       -1 0.14582233E-02 0.88802427E+02</pdfrwt>
<totfact> 0.12803493E+05</totfact>
</mgrwt>
</event>
<event>
 5    1  0.6079230E+000  0.9904050E+02  0.7546771E-02  0.1282327E+00
         -2   -1    0    0    0  501 -0.00000000000E+00  0.00000000000E+00  0.43985124486E+03  0.43985124486E+03  0.00000000000E+00 0.  1.
          2   -1    0    0  501    0  0.00000000000E+00 -0.00000000000E+00 -0.55751918382E+01  0.55751918382E+01  0.00000000000E+00 0. -1.
         23    2    1    2    0    0  0.00000000000E+00  0.00000000000E+00  0.43427605303E+03  0.44542643670E+03  0.99040498189E+02 0.  0.
        -13    1    3    3    0    0 -0.12706393645E+02  0.45590895779E+02  0.15161251775E+03  0.15882801313E+03  0.00000000000E+00 0. -1.
         13    1    3    3    0    0  0.12706393645E+02 -0.45590895779E+02  0.28266353528E+03  0.28659842357E+03  0.00000000000E+00 0.  1.
<mgrwt>
<rscale>  0 0.99040498E+02</rscale>
<asrwt>0</asrwt>
<pdfrwt beam="2">  1        2 0.85772217E-03 0.99040498E+02</pdfrwt>
<pdfrwt beam="1">  1       -2 0.67669395E-01 0.99040498E+02</pdfrwt>
<totfact> 0.32237969E+04</totfact>
</mgrwt>
</event>
<event>
 5    1  0.6079230E+000  0.9020698E+02  0.7546771E-02  0.1302351E+00
          1   -1    0    0  501    0  0.00000000000E+00  0.00000000000E+00  0.37212328702E+03  0.37212328702E+03  0.00000000000E+00 0. -1.
         -1   -1    0    0    0  501 -0.00000000000E+00 -0.00000000000E+00 -0.54668031909E+01  0.54668031909E+01  0.00000000000E+00 0.  1.
         23    2    1    2    0    0  0.00000000000E+00  0.00000000000E+00  0.36665648383E+03  0.37759009021E+03  0.90206979173E+02 0.  0.
        -13    1    3    3    0    0  0.29783309935E+02  0.33021659555E+02  0.21488865746E+03  0.21944158826E+03  0.00000000000E+00 0.  1.
         13    1    3    3    0    0 -0.29783309935E+02 -0.33021659555E+02  0.15176782636E+03  0.15814850195E+03  0.00000000000E+00 0. -1.
<mgrwt>
<rscale>  0 0.90206979E+02</rscale>
<asrwt>0</asrwt>
<pdfrwt beam="1">  1        1 0.57249717E-01 0.90206979E+02</pdfrwt>
<pdfrwt beam="2">  1       -1 0.84104694E-03 0.90206979E+02</pdfrwt>
<totfact> 0.13709408E+05</totfact>
</mgrwt>
</event>
<event>
 5    1  0.6079230E+000  0.8729315E+02  0.7546771E-02  0.1309542E+00
         -2   -1    0    0    0  501 -0.00000000000E+00  0.00000000000E+00  0.57916078535E+01  0.57916078535E+01  0.00000000000E+00 0.  1.
          2   -1    0    0  501    0  0.00000000000E+00 -0.00000000000E+00 -0.32892823457E+03  0.32892823457E+03  0.00000000000E+00 0. -1.
         23    2    1    2    0    0  0.00000000000E+00  0.00000000000E+00 -0.32313662671E+03  0.33471984242E+03  0.87293146273E+02 0.  0.
        -13    1    3    3    0    0 -0.20966331490E+02  0.38280890220E+02 -0.16118999682E+03  0.16699469659E+03  0.00000000000E+00 0.  1.
         13    1    3    3    0    0  0.20966331490E+02 -0.38280890220E+02 -0.16194662989E+03  0.16772514583E+03  0.00000000000E+00 0. -1.
<mgrwt>
<rscale>  0 0.87293146E+02</rscale>
<asrwt>0</asrwt>
<pdfrwt beam="2">  1        2 0.50604344E-01 0.87293146E+02</pdfrwt>
<pdfrwt beam="1">  1       -2 0.89101659E-03 0.87293146E+02</pdfrwt>
<totfact> 0.20868580E+05</totfact>
</mgrwt>
</event>
<event>
 5    1  0.6079230E+000  0.8835417E+02  0.7546771E-02  0.1306887E+00
          2   -1    0    0  501    0  0.00000000000E+00  0.00000000000E+00  0.49258281912E+02  0.49258281912E+02  0.00000000000E+00 0. -1.
         -2   -1    0    0    0  501 -0.00000000000E+00 -0.00000000000E+00 -0.39620038830E+02  0.39620038830E+02  0.00000000000E+00 0.  1.
         23    2    1    2    0    0  0.00000000000E+00  0.00000000000E+00  0.96382430813E+01  0.88878320742E+02  0.88354174594E+02 0.  0.
        -13    1    3    3    0    0  0.93737290697E+01  0.92725115784E+01  0.47232845284E+02  0.49038637229E+02  0.00000000000E+00 0. -1.
         13    1    3    3    0    0 -0.93737290697E+01 -0.92725115784E+01 -0.37594602203E+02  0.39839683513E+02  0.00000000000E+00 0.  1.
<mgrwt>
<rscale>  0 0.88354175E+02</rscale>
<asrwt>0</asrwt>
<pdfrwt beam="1">  1        2 0.75781972E-02 0.88354175E+02</pdfrwt>
<pdfrwt beam="2">  1       -2 0.60953906E-02 0.88354175E+02</pdfrwt>
<totfact> 0.11010227E+05</totfact>
</mgrwt>
</event>
<event>
 5    1  0.6079230E+000  0.9029324E+02  0.7546771E-02  0.1302143E+00
         -2   -1    0    0    0  501 -0.00000000000E+00  0.00000000000E+00  0.55774469956E+02  0.55774469956E+02  0.00000000000E+00 0.  1.
          2   -1    0    0  501    0  0.00000000000E+00 -0.00000000000E+00 -0.36543908565E+02  0.36543908565E+02  0.00000000000E+00 0. -1.
         23    2    1    2    0    0  0.00000000000E+00  0.00000000000E+00  0.19230561391E+02  0.92318378521E+02  0.90293236299E+02 0.  0.
        -13    1    3    3    0    0  0.34134394502E+02 -0.28670771858E+02  0.23103110584E+01  0.44637513194E+02  0.00000000000E+00 0. -1.
         13    1    3    3    0    0 -0.34134394502E+02  0.28670771858E+02  0.16920250333E+02  0.47680865327E+02  0.00000000000E+00 0.  1.
<mgrwt>
<rscale>  0 0.90293236E+02</rscale>
<asrwt>0</asrwt>
<pdfrwt beam="2">  1        2 0.56221397E-02 0.90293236E+02</pdfrwt>
<pdfrwt beam="1">  1       -2 0.85806877E-02 0.90293236E+02</pdfrwt>
<totfact> 0.95859919E+04</totfact>
</mgrwt>
</event>
<event>
 5    1  0.6079230E+000  0.9326317E+02  0.7546771E-02  0.1295136E+00
          3   -1    0    0  501    0  0.00000000000E+00  0.00000000000E+00  0.20834071290E+02  0.20834071290E+02  0.00000000000E+00 0. -1.
         -3   -1    0    0    0  501 -0.00000000000E+00 -0.00000000000E+00 -0.10437253319E+03  0.10437253319E+03  0.00000000000E+00 0.  1.
         23    2    1    2    0    0  0.00000000000E+00  0.00000000000E+00 -0.83538461897E+02  0.12520660448E+03  0.93263171661E+02 0.  0.
        -13    1    3    3    0    0  0.27440068182E+02  0.36430124222E+02 -0.28725912060E+02  0.53900735768E+02  0.00000000000E+00 0.  1.
         13    1    3    3    0    0 -0.27440068182E+02 -0.36430124222E+02 -0.54812549836E+02  0.71305868708E+02  0.00000000000E+00 0. -1.
<mgrwt>
<rscale>  0 0.93263172E+02</rscale>
<asrwt>0</asrwt>
<pdfrwt beam="1">  1        3 0.32052417E-02 0.93263172E+02</pdfrwt>
<pdfrwt beam="2">  1       -3 0.16057313E-01 0.93263172E+02</pdfrwt>
<totfact> 0.30930579E+04</totfact>
</mgrwt>
</event>
<event>
 5    1  0.6079230E+000  0.9182648E+02  0.7546771E-02  0.1298488E+00
          1   -1    0    0  501    0  0.00000000000E+00  0.00000000000E+00  0.87898648115E+01  0.87898648115E+01  0.00000000000E+00 0. -1.
         -1   -1    0    0    0  501 -0.00000000000E+00 -0.00000000000E+00 -0.23982457898E+03  0.23982457898E+03  0.00000000000E+00 0.  1.
         23    2    1    2    0    0  0.00000000000E+00  0.00000000000E+00 -0.23103471417E+03  0.24861444379E+03  0.91826480445E+02 0.  0.
        -13    1    3    3    0    0  0.39601775138E+02 -0.19647636729E+02 -0.14908252767E+03  0.15549897196E+03  0.00000000000E+00 0.  1.
         13    1    3    3    0    0 -0.39601775138E+02  0.19647636729E+02 -0.81952186500E+02  0.93115471836E+02  0.00000000000E+00 0. -1.
<mgrwt>
<rscale>  0 0.91826480E+02</rscale>
<asrwt>0</asrwt>
<pdfrwt beam="1">  1        1 0.13522868E-02 0.91826480E+02</pdfrwt>
<pdfrwt beam="2">  1       -1 0.36896091E-01 0.91826480E+02</pdfrwt>
<totfact> 0.64461517E+04</totfact>
</mgrwt>
</event>
<event>
 5    1  0.6079230E+000  0.9120473E+02  0.7546771E-02  0.1299960E+00
         -1   -1    0    0    0  501 -0.00000000000E+00  0.00000000000E+00  0.14600214813E+02  0.14600214813E+02  0.00000000000E+00 0.  1.
          1   -1    0    0  501    0  0.00000000000E+00 -0.00000000000E+00 -0.14243458292E+03  0.14243458292E+03  0.00000000000E+00 0. -1.
         23    2    1    2    0    0  0.00000000000E+00  0.00000000000E+00 -0.12783436810E+03  0.15703479773E+03  0.91204725917E+02 0.  0.
        -13    1    3    3    0    0 -0.40266944098E+02 -0.10090141352E+02 -0.31415229064E+02  0.52059142873E+02  0.00000000000E+00 0.  1.
         13    1    3    3    0    0  0.40266944098E+02  0.10090141352E+02 -0.96419139040E+02  0.10497565486E+03  0.00000000000E+00 0. -1.
<mgrwt>
<rscale>  0 0.91204726E+02</rscale>
<asrwt>0</asrwt>
<pdfrwt beam="2">  1        1 0.21913013E-01 0.91204726E+02</pdfrwt>
<pdfrwt beam="1">  1       -1 0.22461868E-02 0.91204726E+02</pdfrwt>
<totfact> 0.11098506E+05</totfact>
</mgrwt>
</event>
<event>
 5    1  0.6079230E+000  0.9189256E+02  0.7546771E-02  0.1298332E+00
         -3   -1    0    0    0  501 -0.00000000000E+00  0.00000000000E+00  0.25670401497E+02  0.25670401497E+02  0.00000000000E+00 0.  1.
          3   -1    0    0  501    0  0.00000000000E+00 -0.00000000000E+00 -0.82237157849E+02  0.82237157849E+02  0.00000000000E+00 0. -1.
         23    2    1    2    0    0  0.00000000000E+00  0.00000000000E+00 -0.56566756352E+02  0.10790755935E+03  0.91892564660E+02 0.  0.
        -13    1    3    3    0    0 -0.16419596933E+02 -0.13089870608E+02 -0.76272679093E+02  0.79110488887E+02  0.00000000000E+00 0. -1.
         13    1    3    3    0    0  0.16419596933E+02  0.13089870608E+02  0.19705922740E+02  0.28797070459E+02  0.00000000000E+00 0.  1.
<mgrwt>
<rscale>  0 0.91892565E+02</rscale>
<asrwt>0</asrwt>
<pdfrwt beam="2">  1        3 0.12651871E-01 0.91892565E+02</pdfrwt>
<pdfrwt beam="1">  1       -3 0.39492925E-02 0.91892565E+02</pdfrwt>
<totfact> 0.33375737E+04</totfact>
</mgrwt>
</event>
<event>
 5    1  0.6079230E+000  0.8494705E+02  0.7546771E-02  0.1315571E+00
         -1   -1    0    0    0  501 -0.00000000000E+00  0.00000000000E+00  0.43391452596E+02  0.43391452596E+02  0.00000000000E+00 0.  1.
          1   -1    0    0  501    0  0.00000000000E+00 -0.00000000000E+00 -0.41575013792E+02  0.41575013792E+02  0.00000000000E+00 0. -1.
         23    2    1    2    0    0  0.00000000000E+00  0.00000000000E+00  0.18164388040E+01  0.84966466387E+02  0.84947047980E+02 0.  0.
        -13    1    3    3    0    0  0.13208969184E+02  0.10981348480E+01  0.41269859683E+02  0.43346096541E+02  0.00000000000E+00 0.  1.
         13    1    3    3    0    0 -0.13208969184E+02 -0.10981348480E+01 -0.39453420879E+02  0.41620369846E+02  0.00000000000E+00 0. -1.
<mgrwt>
<rscale>  0 0.84947048E+02</rscale>
<asrwt>0</asrwt>
<pdfrwt beam="2">  1        1 0.63961559E-02 0.84947048E+02</pdfrwt>
<pdfrwt beam="1">  1       -1 0.66756081E-02 0.84947048E+02</pdfrwt>
<totfact> 0.11118673E+05</totfact>
</mgrwt>
</event>
<event>
 5    1  0.6079230E+000  0.8984699E+02  0.7546771E-02  0.1303223E+00
         -2   -1    0    0    0  501 -0.00000000000E+00  0.00000000000E+00  0.50253582980E+01  0.50253582980E+01  0.00000000000E+00 0.  1.
          2   -1    0    0  501    0  0.00000000000E+00 -0.00000000000E+00 -0.40158738217E+03  0.40158738217E+03  0.00000000000E+00 0. -1.
         23    2    1    2    0    0  0.00000000000E+00  0.00000000000E+00 -0.39656202387E+03  0.40661274047E+03  0.89846991789E+02 0.  0.
        -13    1    3    3    0    0  0.35574911445E+02  0.26642059558E+02 -0.22786994842E+03  0.23216392281E+03  0.00000000000E+00 0.  1.
         13    1    3    3    0    0 -0.35574911445E+02 -0.26642059558E+02 -0.16869207545E+03  0.17444881765E+03  0.00000000000E+00 0. -1.
<mgrwt>
<rscale>  0 0.89846992E+02</rscale>
<asrwt>0</asrwt>
<pdfrwt beam="2">  1        2 0.61782685E-01 0.89846992E+02</pdfrwt>
<pdfrwt beam="1">  1       -2 0.77313191E-03 0.89846992E+02</pdfrwt>
<totfact> 0.20784930E+05</totfact>
</mgrwt>
</event>
<event>
 5    1  0.6079230E+000  0.9151354E+02  0.7546771E-02  0.1299227E+00
          1   -1    0    0  501    0  0.00000000000E+00  0.00000000000E+00  0.24236245681E+02  0.24236245681E+02  0.00000000000E+00 0. -1.
         -1   -1    0    0    0  501 -0.00000000000E+00 -0.00000000000E+00 -0.86386399849E+02  0.86386399849E+02  0.00000000000E+00 0.  1.
         23    2    1    2    0    0  0.00000000000E+00  0.00000000000E+00 -0.62150154168E+02  0.11062264553E+03  0.91513540205E+02 0.  0.
        -13    1    3    3    0    0  0.39101673794E+02  0.80235258477E+01 -0.40353828173E+01  0.40119847644E+02  0.00000000000E+00 0. -1.
         13    1    3    3    0    0 -0.39101673794E+02 -0.80235258477E+01 -0.58114771351E+02  0.70502797886E+02  0.00000000000E+00 0.  1.
<mgrwt>
<rscale>  0 0.91513540E+02</rscale>
<asrwt>0</asrwt>
<pdfrwt beam="1">  1        1 0.37286532E-02 0.91513540E+02</pdfrwt>
<pdfrwt beam="2">  1       -1 0.13290215E-01 0.91513540E+02</pdfrwt>
<totfact> 0.82754843E+04</totfact>
</mgrwt>
</event>
<event>
 5    1  0.6079230E+000  0.8743882E+02  0.7546771E-02  0.1309175E+00
          3   -1    0    0  501    0  0.00000000000E+00  0.00000000000E+00  0.22126467937E+02  0.22126467937E+02  0.00000000000E+00 0. -1.
         -3   -1    0    0    0  501 -0.00000000000E+00 -0.00000000000E+00 -0.86384623440E+02  0.86384623440E+02  0.00000000000E+00 0.  1.
         23    2    1    2    0    0  0.00000000000E+00  0.00000000000E+00 -0.64258155502E+02  0.10851109138E+03  0.87438815198E+02 0.  0.
        -13    1    3    3    0    0 -0.58795474828E+01 -0.41400589693E+02 -0.47963734929E+02  0.63632521354E+02  0.00000000000E+00 0.  1.
         13    1    3    3    0    0  0.58795474828E+01  0.41400589693E+02 -0.16294420574E+02  0.44878570023E+02  0.00000000000E+00 0. -1.
<mgrwt>
<rscale>  0 0.87438815E+02</rscale>
<asrwt>0</asrwt>
<pdfrwt beam="1">  1        3 0.34040721E-02 0.87438815E+02</pdfrwt>
<pdfrwt beam="2">  1       -3 0.13289942E-01 0.87438815E+02</pdfrwt>
<totfact> 0.38140747E+04</totfact>
</mgrwt>
</event>
<event>
 5    1  0.6079230E+000  0.1036248E+03  0.7546771E-02  0.1272853E+00
         -1   -1    0    0    0  501 -0.00000000000E+00  0.00000000000E+00  0.41300214592E+02  0.41300214592E+02  0.00000000000E+00 0.  1.
          1   -1    0    0  501    0  0.00000000000E+00 -0.00000000000E+00 -0.65000297639E+02  0.65000297639E+02  0.00000000000E+00 0. -1.
         23    2    1    2    0    0  0.00000000000E+00  0.00000000000E+00 -0.23700083047E+02  0.10630051223E+03  0.10362482793E+03 0.  0.
        -13    1    3    3    0    0 -0.60753736116E+00 -0.15828952905E+02  0.38755287999E+02  0.41867615165E+02  0.00000000000E+00 0. -1.
         13    1    3    3    0    0  0.60753736116E+00  0.15828952905E+02 -0.62455371046E+02  0.64432897065E+02  0.00000000000E+00 0.  1.
<mgrwt>
<rscale>  0 0.10362483E+03</rscale>
<asrwt>0</asrwt>
<pdfrwt beam="2">  1        1 0.10000046E-01 0.10362483E+03</pdfrwt>
<pdfrwt beam="1">  1       -1 0.63538792E-02 0.10362483E+03</pdfrwt>
<totfact> 0.68229518E+04</totfact>
</mgrwt>
</event>
<event>
 5    1  0.6079230E+000  0.9637226E+02  0.7546771E-02  0.1288115E+00
          3   -1    0    0  501    0  0.00000000000E+00  0.00000000000E+00  0.16908728600E+02  0.16908728600E+02  0.00000000000E+00 0. -1.
         -3   -1    0    0    0  501 -0.00000000000E+00 -0.00000000000E+00 -0.13731979385E+03  0.13731979385E+03  0.00000000000E+00 0.  1.
         23    2    1    2    0    0  0.00000000000E+00  0.00000000000E+00 -0.12041106525E+03  0.15422852245E+03  0.96372260025E+02 0.  0.
        -13    1    3    3    0    0 -0.27740849711E+02  0.53935177661E+01 -0.12266516702E+03  0.12587846510E+03  0.00000000000E+00 0.  1.
         13    1    3    3    0    0  0.27740849711E+02 -0.53935177661E+01  0.22541017738E+01  0.28350057343E+02  0.00000000000E+00 0. -1.
<mgrwt>
<rscale>  0 0.96372260E+02</rscale>
<asrwt>0</asrwt>
<pdfrwt beam="1">  1        3 0.26013430E-02 0.96372260E+02</pdfrwt>
<pdfrwt beam="2">  1       -3 0.21126121E-01 0.96372260E+02</pdfrwt>
<totfact> 0.26707049E+04</totfact>
</mgrwt>
</event>
<event>
 5    1  0.6079230E+000  0.9172588E+02  0.7546771E-02  0.1298725E+00
          1   -1    0    0  501    0  0.00000000000E+00  0.00000000000E+00  0.15895671400E+03  0.15895671400E+03  0.00000000000E+00 0. -1.
         -1   -1    0    0    0  501 -0.00000000000E+00 -0.00000000000E+00 -0.13232590961E+02  0.13232590961E+02  0.00000000000E+00 0.  1.
         23    2    1    2    0    0  0.00000000000E+00  0.00000000000E+00  0.14572412304E+03  0.17218930496E+03  0.91725878068E+02 0.  0.
        -13    1    3    3    0    0  0.34632017940E+02 -0.29040739770E+02  0.87483629016E+02  0.98468911738E+02  0.00000000000E+00 0. -1.
         13    1    3    3    0    0 -0.34632017940E+02  0.29040739770E+02  0.58240494027E+02  0.73720393227E+02  0.00000000000E+00 0.  1.
<mgrwt>
<rscale>  0 0.91725878E+02</rscale>
<asrwt>0</asrwt>
<pdfrwt beam="1">  1        1 0.24454878E-01 0.91725878E+02</pdfrwt>
<pdfrwt beam="2">  1       -1 0.20357833E-02 0.91725878E+02</pdfrwt>
<totfact> 0.11152126E+05</totfact>
</mgrwt>
</event>
<event>
 5    1  0.6079230E+000  0.9064005E+02  0.7546771E-02  0.1301309E+00
         -1   -1    0    0    0  501 -0.00000000000E+00  0.00000000000E+00  0.17459741865E+02  0.17459741865E+02  0.00000000000E+00 0.  1.
          1   -1    0    0  501    0  0.00000000000E+00 -0.00000000000E+00 -0.11763661246E+03  0.11763661246E+03  0.00000000000E+00 0. -1.
         23    2    1    2    0    0  0.00000000000E+00  0.00000000000E+00 -0.10017687060E+03  0.13509635433E+03  0.90640054886E+02 0.  0.
        -13    1    3    3    0    0 -0.22792025417E+02 -0.37420649443E+02 -0.32827042159E+02  0.54748480566E+02  0.00000000000E+00 0.  1.
         13    1    3    3    0    0  0.22792025417E+02  0.37420649443E+02 -0.67349828438E+02  0.80347873761E+02  0.00000000000E+00 0. -1.
<mgrwt>
<rscale>  0 0.90640055E+02</rscale>
<asrwt>0</asrwt>
<pdfrwt beam="2">  1        1 0.18097941E-01 0.90640055E+02</pdfrwt>
<pdfrwt beam="1">  1       -1 0.26861141E-02 0.90640055E+02</pdfrwt>
<totfact> 0.10910074E+05</totfact>
</mgrwt>
</event>
<event>
 5    1  0.6079230E+000  0.8859542E+02  0.7546771E-02  0.1306289E+00
          2   -1    0    0  501    0  0.00000000000E+00  0.00000000000E+00  0.19629285511E+02  0.19629285511E+02  0.00000000000E+00 0. -1.
         -2   -1    0    0    0  501 -0.00000000000E+00 -0.00000000000E+00 -0.99967332788E+02  0.99967332788E+02  0.00000000000E+00 0.  1.
         23    2    1    2    0    0  0.00000000000E+00  0.00000000000E+00 -0.80338047277E+02  0.11959661830E+03  0.88595424647E+02 0.  0.
        -13    1    3    3    0    0 -0.19656120566E+02 -0.34131256962E+02 -0.67535492481E+02  0.78181510104E+02  0.00000000000E+00 0.  1.
         13    1    3    3    0    0  0.19656120566E+02  0.34131256962E+02 -0.12802554796E+02  0.41415108195E+02  0.00000000000E+00 0. -1.
<mgrwt>
<rscale>  0 0.88595425E+02</rscale>
<asrwt>0</asrwt>
<pdfrwt beam="1">  1        2 0.30198901E-02 0.88595425E+02</pdfrwt>
<pdfrwt beam="2">  1       -2 0.15379589E-01 0.88595425E+02</pdfrwt>
<totfact> 0.85722893E+04</totfact>
</mgrwt>
</event>
<event>
 5    1  0.6079230E+000  0.9066134E+02  0.7546771E-02  0.1301258E+00
          2   -1    0    0  501    0  0.00000000000E+00  0.00000000000E+00  0.13009159690E+03  0.13009159690E+03  0.00000000000E+00 0. -1.
         -2   -1    0    0    0  501 -0.00000000000E+00 -0.00000000000E+00 -0.15795561179E+02  0.15795561179E+02  0.00000000000E+00 0.  1.
         23    2    1    2    0    0  0.00000000000E+00  0.00000000000E+00  0.11429603572E+03  0.14588715808E+03  0.90661342982E+02 0.  0.
        -13    1    3    3    0    0 -0.97380486592E+01 -0.23536114223E+02 -0.31914824958E+01  0.25670290706E+02  0.00000000000E+00 0.  1.
         13    1    3    3    0    0  0.97380486592E+01  0.23536114223E+02  0.11748751822E+03  0.12021686738E+03  0.00000000000E+00 0. -1.
<mgrwt>
<rscale>  0 0.90661343E+02</rscale>
<asrwt>0</asrwt>
<pdfrwt beam="1">  1        2 0.20014091E-01 0.90661343E+02</pdfrwt>
<pdfrwt beam="2">  1       -2 0.24300864E-02 0.90661343E+02</pdfrwt>
<totfact> 0.13538661E+05</totfact>
</mgrwt>
</event>
<event>
 5    1  0.6079230E+000  0.8991211E+02  0.7546771E-02  0.1303065E+00
          4   -1    0    0  501    0  0.00000000000E+00  0.00000000000E+00  0.40884145395E+02  0.40884145395E+02  0.00000000000E+00 0. -1.
         -4   -1    0    0    0  501 -0.00000000000E+00 -0.00000000000E+00 -0.49433510020E+02  0.49433510020E+02  0.00000000000E+00 0.  1.
         23    2    1    2    0    0  0.00000000000E+00  0.00000000000E+00 -0.85493646248E+01  0.90317655414E+02  0.89912108440E+02 0.  0.
        -13    1    3    3    0    0 -0.23370827038E+01  0.40993345543E+02  0.14114458365E+02  0.43418132955E+02  0.00000000000E+00 0. -1.
         13    1    3    3    0    0  0.23370827038E+01 -0.40993345543E+02 -0.22663822990E+02  0.46899522459E+02  0.00000000000E+00 0.  1.
<mgrwt>
<rscale>  0 0.89912108E+02</rscale>
<asrwt>0</asrwt>
<pdfrwt beam="1">  1        4 0.62898685E-02 0.89912108E+02</pdfrwt>
<pdfrwt beam="2">  1       -4 0.76051554E-02 0.89912108E+02</pdfrwt>
<totfact> 0.28115627E+04</totfact>
</mgrwt>
</event>
<event>
 5    1  0.6079230E+000  0.8514512E+02  0.7546771E-02  0.1315053E+00
          2   -1    0    0  501    0  0.00000000000E+00  0.00000000000E+00  0.18202478506E+03  0.18202478506E+03  0.00000000000E+00 0. -1.
         -2   -1    0    0    0  501 -0.00000000000E+00 -0.00000000000E+00 -0.99570118367E+01  0.99570118367E+01  0.00000000000E+00 0.  1.
         23    2    1    2    0    0  0.00000000000E+00  0.00000000000E+00  0.17206777323E+03  0.19198179690E+03  0.85145121750E+02 0.  0.
        -13    1    3    3    0    0 -0.27075984377E+02  0.25702662553E+02  0.39897338708E+02  0.54640035032E+02  0.00000000000E+00 0.  1.
         13    1    3    3    0    0  0.27075984377E+02 -0.25702662553E+02  0.13217043452E+03  0.13734176187E+03  0.00000000000E+00 0. -1.
<mgrwt>
<rscale>  0 0.85145122E+02</rscale>
<asrwt>0</asrwt>
<pdfrwt beam="1">  1        2 0.28003811E-01 0.85145122E+02</pdfrwt>
<pdfrwt beam="2">  1       -2 0.15318481E-02 0.85145122E+02</pdfrwt>
<totfact> 0.17972086E+05</totfact>
</mgrwt>
</event>
<event>
 5    1  0.6079230E+000  0.9080496E+02  0.7546771E-02  0.1300914E+00
          3   -1    0    0  501    0  0.00000000000E+00  0.00000000000E+00  0.54960542462E+02  0.54960542462E+02  0.00000000000E+00 0.  1.
         -3   -1    0    0    0  501 -0.00000000000E+00 -0.00000000000E+00 -0.37506635864E+02  0.37506635864E+02  0.00000000000E+00 0. -1.
         23    2    1    2    0    0  0.00000000000E+00  0.00000000000E+00  0.17453906598E+02  0.92467178325E+02  0.90804956979E+02 0.  0.
        -13    1    3    3    0    0  0.52655303063E+00  0.11379588167E+02 -0.36027688123E+02  0.37785798872E+02  0.00000000000E+00 0. -1.
         13    1    3    3    0    0 -0.52655303063E+00 -0.11379588167E+02  0.53481594721E+02  0.54681379453E+02  0.00000000000E+00 0.  1.
<mgrwt>
<rscale>  0 0.90804957E+02</rscale>
<asrwt>0</asrwt>
<pdfrwt beam="1">  1        3 0.84554681E-02 0.90804957E+02</pdfrwt>
<pdfrwt beam="2">  1       -3 0.57702516E-02 0.90804957E+02</pdfrwt>
<totfact> 0.35634031E+04</totfact>
</mgrwt>
</event>
<event>
 5    1  0.6079230E+000  0.9119992E+02  0.7546771E-02  0.1299972E+00
          1   -1    0    0  501    0  0.00000000000E+00  0.00000000000E+00  0.15196166177E+02  0.15196166177E+02  0.00000000000E+00 0. -1.
         -1   -1    0    0    0  501 -0.00000000000E+00 -0.00000000000E+00 -0.13683428322E+03  0.13683428322E+03  0.00000000000E+00 0.  1.
         23    2    1    2    0    0  0.00000000000E+00  0.00000000000E+00 -0.12163811705E+03  0.15203044940E+03  0.91199923390E+02 0.  0.
        -13    1    3    3    0    0 -0.35937195834E+02 -0.24083273540E+02 -0.84853411183E+02  0.95244881743E+02  0.00000000000E+00 0.  1.
         13    1    3    3    0    0  0.35937195834E+02  0.24083273540E+02 -0.36784705864E+02  0.56785567659E+02  0.00000000000E+00 0. -1.
<mgrwt>
<rscale>  0 0.91199923E+02</rscale>
<asrwt>0</asrwt>
<pdfrwt beam="1">  1        1 0.23378717E-02 0.91199923E+02</pdfrwt>
<pdfrwt beam="2">  1       -1 0.21051429E-01 0.91199923E+02</pdfrwt>
<totfact> 0.76317886E+04</totfact>
</mgrwt>
</event>
<event>
 5    1  0.6079230E+000  0.9308370E+02  0.7546771E-02  0.1295551E+00
          2   -1    0    0  501    0  0.00000000000E+00  0.00000000000E+00  0.30719910850E+02  0.30719910850E+02  0.00000000000E+00 0. -1.
         -2   -1    0    0    0  501 -0.00000000000E+00 -0.00000000000E+00 -0.70512697049E+02  0.70512697049E+02  0.00000000000E+00 0.  1.
         23    2    1    2    0    0  0.00000000000E+00  0.00000000000E+00 -0.39792786199E+02  0.10123260790E+03  0.93083699263E+02 0.  0.
        -13    1    3    3    0    0 -0.40920096614E+01 -0.23772700160E+02 -0.63183617390E+02  0.67631762675E+02  0.00000000000E+00 0.  1.
         13    1    3    3    0    0  0.40920096614E+01  0.23772700160E+02  0.23390831191E+02  0.33600845224E+02  0.00000000000E+00 0. -1.
<mgrwt>
<rscale>  0 0.93083699E+02</rscale>
<asrwt>0</asrwt>
<pdfrwt beam="1">  1        2 0.47261402E-02 0.93083699E+02</pdfrwt>
<pdfrwt beam="2">  1       -2 0.10848107E-01 0.93083699E+02</pdfrwt>
<totfact> 0.83715961E+04</totfact>
</mgrwt>
</event>
<event>
 5    1  0.6079230E+000  0.9392343E+02  0.7546771E-02  0.1293619E+00
          1   -1    0    0  501    0  0.00000000000E+00  0.00000000000E+00  0.15416443394E+03  0.15416443394E+03  0.00000000000E+00 0. -1.
         -1   -1    0    0    0  501 -0.00000000000E+00 -0.00000000000E+00 -0.14305523052E+02  0.14305523052E+02  0.00000000000E+00 0.  1.
         23    2    1    2    0    0  0.00000000000E+00  0.00000000000E+00  0.13985891089E+03  0.16846995699E+03  0.93923434000E+02 0.  0.
        -13    1    3    3    0    0  0.71425455708E+01  0.46415203435E+02  0.70154894206E+02  0.84422131270E+02  0.00000000000E+00 0.  1.
         13    1    3    3    0    0 -0.71425455708E+01 -0.46415203435E+02  0.69704016685E+02  0.84047825725E+02  0.00000000000E+00 0. -1.
<mgrwt>
<rscale>  0 0.93923434E+02</rscale>
<asrwt>0</asrwt>
<pdfrwt beam="1">  1        1 0.23717604E-01 0.93923434E+02</pdfrwt>
<pdfrwt beam="2">  1       -1 0.22008498E-02 0.93923434E+02</pdfrwt>
<totfact> 0.10401249E+05</totfact>
</mgrwt>
</event>
<event>
 5    1  0.6079230E+000  0.9263139E+02  0.7546771E-02  0.1296602E+00
          1   -1    0    0  501    0  0.00000000000E+00  0.00000000000E+00  0.10741152758E+03  0.10741152758E+03  0.00000000000E+00 0.  1.
         -1   -1    0    0    0  501 -0.00000000000E+00 -0.00000000000E+00 -0.19971261226E+02  0.19971261226E+02  0.00000000000E+00 0. -1.
         23    2    1    2    0    0  0.00000000000E+00  0.00000000000E+00  0.87440266355E+02  0.12738278881E+03  0.92631391570E+02 0.  0.
        -13    1    3    3    0    0 -0.96492523423E+01  0.45194544623E+02  0.39484124187E+02  0.60783640869E+02  0.00000000000E+00 0.  1.
         13    1    3    3    0    0  0.96492523423E+01 -0.45194544623E+02  0.47956142168E+02  0.66599147939E+02  0.00000000000E+00 0. -1.
<mgrwt>
<rscale>  0 0.92631392E+02</rscale>
<asrwt>0</asrwt>
<pdfrwt beam="1">  1        1 0.16524850E-01 0.92631392E+02</pdfrwt>
<pdfrwt beam="2">  1       -1 0.30725018E-02 0.92631392E+02</pdfrwt>
<totfact> 0.10124821E+05</totfact>
</mgrwt>
</event>
<event>
 5    1  0.6079230E+000  0.9089537E+02  0.7546771E-02  0.1300698E+00
          2   -1    0    0  501    0  0.00000000000E+00  0.00000000000E+00  0.68910307341E+01  0.68910307341E+01  0.00000000000E+00 0. -1.
         -2   -1    0    0    0  501 -0.00000000000E+00 -0.00000000000E+00 -0.29973633466E+03  0.29973633466E+03  0.00000000000E+00 0.  1.
         23    2    1    2    0    0  0.00000000000E+00  0.00000000000E+00 -0.29284530392E+03  0.30662736539E+03  0.90895374894E+02 0.  0.
        -13    1    3    3    0    0 -0.26606106606E+02  0.34547215696E+02 -0.10320911556E+03  0.11204247657E+03  0.00000000000E+00 0. -1.
         13    1    3    3    0    0  0.26606106606E+02 -0.34547215696E+02 -0.18963618837E+03  0.19458488882E+03  0.00000000000E+00 0.  1.
<mgrwt>
<rscale>  0 0.90895375E+02</rscale>
<asrwt>0</asrwt>
<pdfrwt beam="1">  1        2 0.10601587E-02 0.90895375E+02</pdfrwt>
<pdfrwt beam="2">  1       -2 0.46113276E-01 0.90895375E+02</pdfrwt>
<totfact> 0.51434384E+04</totfact>
</mgrwt>
</event>
<event>
 5    1  0.6079230E+000  0.9010731E+02  0.7546771E-02  0.1302592E+00
         -1   -1    0    0    0  501 -0.00000000000E+00  0.00000000000E+00  0.45397602683E+02  0.45397602683E+02  0.00000000000E+00 0.  1.
          1   -1    0    0  501    0  0.00000000000E+00 -0.00000000000E+00 -0.44712308767E+02  0.44712308767E+02  0.00000000000E+00 0. -1.
         23    2    1    2    0    0  0.00000000000E+00  0.00000000000E+00  0.68529391654E+00  0.90109911450E+02  0.90107305552E+02 0.  0.
        -13    1    3    3    0    0  0.19574735821E+02 -0.28111283971E+01  0.40825404895E+02  0.45362830711E+02  0.00000000000E+00 0.  1.
         13    1    3    3    0    0 -0.19574735821E+02  0.28111283971E+01 -0.40140110978E+02  0.44747080739E+02  0.00000000000E+00 0. -1.
<mgrwt>
<rscale>  0 0.90107306E+02</rscale>
<asrwt>0</asrwt>
<pdfrwt beam="2">  1        1 0.68788167E-02 0.90107306E+02</pdfrwt>
<pdfrwt beam="1">  1       -1 0.69842466E-02 0.90107306E+02</pdfrwt>
<totfact> 0.95305151E+04</totfact>
</mgrwt>
</event>
<event>
 5    1  0.6079230E+000  0.8947359E+02  0.7546771E-02  0.1304131E+00
          2   -1    0    0  501    0  0.00000000000E+00  0.00000000000E+00  0.21122442372E+02  0.21122442372E+02  0.00000000000E+00 0. -1.
         -2   -1    0    0    0  501 -0.00000000000E+00 -0.00000000000E+00 -0.94751395613E+02  0.94751395613E+02  0.00000000000E+00 0.  1.
         23    2    1    2    0    0  0.00000000000E+00  0.00000000000E+00 -0.73628953241E+02  0.11587383798E+03  0.89473591488E+02 0.  0.
        -13    1    3    3    0    0 -0.23396444497E-01  0.19776873604E+02 -0.88782707527E+02  0.90958751271E+02  0.00000000000E+00 0.  1.
         13    1    3    3    0    0  0.23396444497E-01 -0.19776873604E+02  0.15153754286E+02  0.24915086713E+02  0.00000000000E+00 0. -1.
<mgrwt>
<rscale>  0 0.89473591E+02</rscale>
<asrwt>0</asrwt>
<pdfrwt beam="1">  1        2 0.32496066E-02 0.89473591E+02</pdfrwt>
<pdfrwt beam="2">  1       -2 0.14577138E-01 0.89473591E+02</pdfrwt>
<totfact> 0.84968664E+04</totfact>
</mgrwt>
</event>
<event>
 5    1  0.6079230E+000  0.9256438E+02  0.7546771E-02  0.1296758E+00
          2   -1    0    0  501    0  0.00000000000E+00  0.00000000000E+00  0.67540118410E+01  0.67540118410E+01  0.00000000000E+00 0.  1.
         -2   -1    0    0    0  501 -0.00000000000E+00 -0.00000000000E+00 -0.31715092429E+03  0.31715092429E+03  0.00000000000E+00 0. -1.
         23    2    1    2    0    0  0.00000000000E+00  0.00000000000E+00 -0.31039691245E+03  0.32390493613E+03  0.92564379716E+02 0.  0.
        -13    1    3    3    0    0  0.31347827389E+02 -0.28242277159E+02 -0.88645846033E+02  0.98175345785E+02  0.00000000000E+00 0.  1.
         13    1    3    3    0    0 -0.31347827389E+02  0.28242277159E+02 -0.22175106641E+03  0.22572959034E+03  0.00000000000E+00 0. -1.
<mgrwt>
<rscale>  0 0.92564380E+02</rscale>
<asrwt>0</asrwt>
<pdfrwt beam="1">  1        2 0.10390787E-02 0.92564380E+02</pdfrwt>
<pdfrwt beam="2">  1       -2 0.48792453E-01 0.92564380E+02</pdfrwt>
<totfact> 0.47514969E+04</totfact>
</mgrwt>
</event>
<event>
 5    1  0.6079230E+000  0.9000423E+02  0.7546771E-02  0.1302841E+00
          3   -1    0    0  501    0  0.00000000000E+00  0.00000000000E+00  0.41169339435E+02  0.41169339435E+02  0.00000000000E+00 0. -1.
         -3   -1    0    0    0  501 -0.00000000000E+00 -0.00000000000E+00 -0.49191709780E+02  0.49191709780E+02  0.00000000000E+00 0.  1.
         23    2    1    2    0    0  0.00000000000E+00  0.00000000000E+00 -0.80223703447E+01  0.90361049215E+02  0.90004226507E+02 0.  0.
        -13    1    3    3    0    0 -0.41351233336E+02  0.39089493190E+01 -0.21399949445E+02  0.46724321498E+02  0.00000000000E+00 0.  1.
         13    1    3    3    0    0  0.41351233336E+02 -0.39089493190E+01  0.13377579100E+02  0.43636727716E+02  0.00000000000E+00 0. -1.
<mgrwt>
<rscale>  0 0.90004227E+02</rscale>
<asrwt>0</asrwt>
<pdfrwt beam="1">  1        3 0.63337446E-02 0.90004227E+02</pdfrwt>
<pdfrwt beam="2">  1       -3 0.75679553E-02 0.90004227E+02</pdfrwt>
<totfact> 0.36670277E+04</totfact>
</mgrwt>
</event>
<event>
 5    1  0.6079230E+000  0.8709400E+02  0.7546771E-02  0.1310046E+00
          2   -1    0    0  501    0  0.00000000000E+00  0.00000000000E+00  0.11568333516E+03  0.11568333516E+03  0.00000000000E+00 0. -1.
         -2   -1    0    0    0  501 -0.00000000000E+00 -0.00000000000E+00 -0.16392518770E+02  0.16392518770E+02  0.00000000000E+00 0.  1.
         23    2    1    2    0    0  0.00000000000E+00  0.00000000000E+00  0.99290816390E+02  0.13207585393E+03  0.87094000779E+02 0.  0.
        -13    1    3    3    0    0  0.70189508326E+01  0.24719875628E+02 -0.36690506308E+01  0.25957655024E+02  0.00000000000E+00 0.  1.
         13    1    3    3    0    0 -0.70189508326E+01 -0.24719875628E+02  0.10295986702E+03  0.10611819890E+03  0.00000000000E+00 0. -1.
<mgrwt>
<rscale>  0 0.87094001E+02</rscale>
<asrwt>0</asrwt>
<pdfrwt beam="1">  1        2 0.17797436E-01 0.87094001E+02</pdfrwt>
<pdfrwt beam="2">  1       -2 0.25219260E-02 0.87094001E+02</pdfrwt>
<totfact> 0.14543608E+05</totfact>
</mgrwt>
</event>
<event>
 5    1  0.6079230E+000  0.8770069E+02  0.7546771E-02  0.1308517E+00
          2   -1    0    0  501    0  0.00000000000E+00  0.00000000000E+00  0.16241334359E+03  0.16241334359E+03  0.00000000000E+00 0. -1.
         -2   -1    0    0    0  501 -0.00000000000E+00 -0.00000000000E+00 -0.11839254557E+02  0.11839254557E+02  0.00000000000E+00 0.  1.
         23    2    1    2    0    0  0.00000000000E+00  0.00000000000E+00  0.15057408903E+03  0.17425259815E+03  0.87700693685E+02 0.  0.
        -13    1    3    3    0    0  0.40317680771E+01 -0.37185433439E+02  0.12076240006E+03  0.12642218509E+03  0.00000000000E+00 0. -1.
         13    1    3    3    0    0 -0.40317680771E+01  0.37185433439E+02  0.29811688967E+02  0.47830413054E+02  0.00000000000E+00 0.  1.
<mgrwt>
<rscale>  0 0.87700694E+02</rscale>
<asrwt>0</asrwt>
<pdfrwt beam="1">  1        2 0.24986667E-01 0.87700694E+02</pdfrwt>
<pdfrwt beam="2">  1       -2 0.18214239E-02 0.87700694E+02</pdfrwt>
<totfact> 0.15957032E+05</totfact>
</mgrwt>
</event>
<event>
 5    1  0.6079230E+000  0.8788176E+02  0.7546771E-02  0.1308064E+00
         -2   -1    0    0    0  501 -0.00000000000E+00  0.00000000000E+00  0.11533060367E+02  0.11533060367E+02  0.00000000000E+00 0.  1.
          2   -1    0    0  501    0  0.00000000000E+00 -0.00000000000E+00 -0.16741444394E+03  0.16741444394E+03  0.00000000000E+00 0. -1.
         23    2    1    2    0    0  0.00000000000E+00  0.00000000000E+00 -0.15588138357E+03  0.17894750430E+03  0.87881758930E+02 0.  0.
        -13    1    3    3    0    0 -0.12503895111E+02  0.36483764106E+02 -0.12081716881E+03  0.12682350222E+03  0.00000000000E+00 0. -1.
         13    1    3    3    0    0  0.12503895111E+02 -0.36483764106E+02 -0.35064214759E+02  0.52124002081E+02  0.00000000000E+00 0.  1.
<mgrwt>
<rscale>  0 0.87881759E+02</rscale>
<asrwt>0</asrwt>
<pdfrwt beam="2">  1        2 0.25756067E-01 0.87881759E+02</pdfrwt>
<pdfrwt beam="1">  1       -2 0.17743171E-02 0.87881759E+02</pdfrwt>
<totfact> 0.16035381E+05</totfact>
</mgrwt>
</event>
<event>
 5    1  0.6079230E+000  0.8741375E+02  0.7546771E-02  0.1309238E+00
          2   -1    0    0  501    0  0.00000000000E+00  0.00000000000E+00  0.31968311163E+02  0.31968311163E+02  0.00000000000E+00 0. -1.
         -2   -1    0    0    0  501 -0.00000000000E+00 -0.00000000000E+00 -0.59755767930E+02  0.59755767930E+02  0.00000000000E+00 0.  1.
         23    2    1    2    0    0  0.00000000000E+00  0.00000000000E+00 -0.27787456767E+02  0.91724079092E+02  0.87413751388E+02 0.  0.
        -13    1    3    3    0    0  0.98643186965E+01 -0.97125503267E+01  0.29607111992E+02  0.32683627364E+02  0.00000000000E+00 0. -1.
         13    1    3    3    0    0 -0.98643186965E+01  0.97125503267E+01 -0.57394568759E+02  0.59040451728E+02  0.00000000000E+00 0.  1.
<mgrwt>
<rscale>  0 0.87413751E+02</rscale>
<asrwt>0</asrwt>
<pdfrwt beam="1">  1        2 0.49182018E-02 0.87413751E+02</pdfrwt>
<pdfrwt beam="2">  1       -2 0.91931949E-02 0.87413751E+02</pdfrwt>
<totfact> 0.10181332E+05</totfact>
</mgrwt>
</event>
<event>
 5    1  0.6079230E+000  0.8945749E+02  0.7546771E-02  0.1304171E+00
         -1   -1    0    0    0  501 -0.00000000000E+00  0.00000000000E+00  0.83119349890E+01  0.83119349890E+01  0.00000000000E+00 0.  1.
          1   -1    0    0  501    0  0.00000000000E+00 -0.00000000000E+00 -0.24069733464E+03  0.24069733464E+03  0.00000000000E+00 0. -1.
         23    2    1    2    0    0  0.00000000000E+00  0.00000000000E+00 -0.23238539965E+03  0.24900926963E+03  0.89457489291E+02 0.  0.
        -13    1    3    3    0    0 -0.11905332778E+02 -0.40079632917E+02 -0.71957332684E+02  0.83222422762E+02  0.00000000000E+00 0.  1.
         13    1    3    3    0    0  0.11905332778E+02  0.40079632917E+02 -0.16042806697E+03  0.16578684687E+03  0.00000000000E+00 0. -1.
<mgrwt>
<rscale>  0 0.89457489E+02</rscale>
<asrwt>0</asrwt>
<pdfrwt beam="2">  1        1 0.37030353E-01 0.89457489E+02</pdfrwt>
<pdfrwt beam="1">  1       -1 0.12787595E-02 0.89457489E+02</pdfrwt>
<totfact> 0.12915748E+05</totfact>
</mgrwt>
</event>
<event>
 5    1  0.6079230E+000  0.6988063E+02  0.7546771E-02  0.1360499E+00
         -2   -1    0    0    0  501 -0.00000000000E+00  0.00000000000E+00  0.22053592096E+02  0.22053592096E+02  0.00000000000E+00 0.  1.
          2   -1    0    0  501    0  0.00000000000E+00 -0.00000000000E+00 -0.55357220642E+02  0.55357220642E+02  0.00000000000E+00 0. -1.
         23    2    1    2    0    0  0.00000000000E+00  0.00000000000E+00 -0.33303628546E+02  0.77410812738E+02  0.69880628606E+02 0.  0.
        -13    1    3    3    0    0 -0.10619379494E+02  0.22166912217E+02 -0.44160863592E+02  0.50540331333E+02  0.00000000000E+00 0. -1.
         13    1    3    3    0    0  0.10619379494E+02 -0.22166912217E+02  0.10857235046E+02  0.26870481404E+02  0.00000000000E+00 0.  1.
<mgrwt>
<rscale>  0 0.69880629E+02</rscale>
<asrwt>0</asrwt>
<pdfrwt beam="2">  1        2 0.85164953E-02 0.69880629E+02</pdfrwt>
<pdfrwt beam="1">  1       -2 0.33928604E-02 0.69880629E+02</pdfrwt>
<totfact> 0.21668660E+05</totfact>
</mgrwt>
</event>
<event>
 5    1  0.6079230E+000  0.9094429E+02  0.7546771E-02  0.1300581E+00
          1   -1    0    0  501    0  0.00000000000E+00  0.00000000000E+00  0.28723835716E+02  0.28723835716E+02  0.00000000000E+00 0. -1.
         -1   -1    0    0    0  501 -0.00000000000E+00 -0.00000000000E+00 -0.71986069244E+02  0.71986069244E+02  0.00000000000E+00 0.  1.
         23    2    1    2    0    0  0.00000000000E+00  0.00000000000E+00 -0.43262233528E+02  0.10070990496E+03  0.90944291229E+02 0.  0.
        -13    1    3    3    0    0 -0.25993608901E+02 -0.30891624785E+02  0.15381728568E+01  0.40402056400E+02  0.00000000000E+00 0. -1.
         13    1    3    3    0    0  0.25993608901E+02  0.30891624785E+02 -0.44800406385E+02  0.60307848560E+02  0.00000000000E+00 0.  1.
<mgrwt>
<rscale>  0 0.90944291E+02</rscale>
<asrwt>0</asrwt>
<pdfrwt beam="1">  1        1 0.44190517E-02 0.90944291E+02</pdfrwt>
<pdfrwt beam="2">  1       -1 0.11074780E-01 0.90944291E+02</pdfrwt>
<totfact> 0.86710280E+04</totfact>
</mgrwt>
</event>
<event>
 5    1  0.6079230E+000  0.9065098E+02  0.7546771E-02  0.1301283E+00
          2   -1    0    0  501    0  0.00000000000E+00  0.00000000000E+00  0.38446821657E+02  0.38446821657E+02  0.00000000000E+00 0. -1.
         -2   -1    0    0    0  501 -0.00000000000E+00 -0.00000000000E+00 -0.53434850695E+02  0.53434850695E+02  0.00000000000E+00 0.  1.
         23    2    1    2    0    0  0.00000000000E+00  0.00000000000E+00 -0.14988029038E+02  0.91881672352E+02  0.90650982895E+02 0.  0.
        -13    1    3    3    0    0  0.14355432208E+02  0.69758899652E+01 -0.50492330716E+02  0.52954857528E+02  0.00000000000E+00 0.  1.
         13    1    3    3    0    0 -0.14355432208E+02 -0.69758899652E+01  0.35504301678E+02  0.38926814824E+02  0.00000000000E+00 0. -1.
<mgrwt>
<rscale>  0 0.90650983E+02</rscale>
<asrwt>0</asrwt>
<pdfrwt beam="1">  1        2 0.59148956E-02 0.90650983E+02</pdfrwt>
<pdfrwt beam="2">  1       -2 0.82207463E-02 0.90650983E+02</pdfrwt>
<totfact> 0.96013444E+04</totfact>
</mgrwt>
</event>
<event>
 5    1  0.6079230E+000  0.9071848E+02  0.7546771E-02  0.1301121E+00
          4   -1    0    0  501    0  0.00000000000E+00  0.00000000000E+00  0.36583847301E+02  0.36583847301E+02  0.00000000000E+00 0. -1.
         -4   -1    0    0    0  501 -0.00000000000E+00 -0.00000000000E+00 -0.56239592226E+02  0.56239592226E+02  0.00000000000E+00 0.  1.
         23    2    1    2    0    0  0.00000000000E+00  0.00000000000E+00 -0.19655744925E+02  0.92823439527E+02  0.90718480019E+02 0.  0.
        -13    1    3    3    0    0  0.69784392180E+01  0.40792561959E+02 -0.28825560731E+02  0.50434558355E+02  0.00000000000E+00 0.  1.
         13    1    3    3    0    0 -0.69784392180E+01 -0.40792561959E+02  0.91698158052E+01  0.42388881172E+02  0.00000000000E+00 0. -1.
<mgrwt>
<rscale>  0 0.90718480E+02</rscale>
<asrwt>0</asrwt>
<pdfrwt beam="1">  1        4 0.56282842E-02 0.90718480E+02</pdfrwt>
<pdfrwt beam="2">  1       -4 0.86522449E-02 0.90718480E+02</pdfrwt>
<totfact> 0.27280866E+04</totfact>
</mgrwt>
</event>
<event>
 5    1  0.6079230E+000  0.9230582E+02  0.7546771E-02  0.1297362E+00
         -1   -1    0    0    0  501 -0.00000000000E+00  0.00000000000E+00  0.94162756361E+02  0.94162756361E+02  0.00000000000E+00 0.  1.
          1   -1    0    0  501    0  0.00000000000E+00 -0.00000000000E+00 -0.22621377657E+02  0.22621377657E+02  0.00000000000E+00 0. -1.
         23    2    1    2    0    0  0.00000000000E+00  0.00000000000E+00  0.71541378704E+02  0.11678413402E+03  0.92305823715E+02 0.  0.
        -13    1    3    3    0    0 -0.35443657738E+02  0.22929755405E+02  0.12166736269E+02  0.43932402941E+02  0.00000000000E+00 0. -1.
         13    1    3    3    0    0  0.35443657738E+02 -0.22929755405E+02  0.59374642435E+02  0.72851731078E+02  0.00000000000E+00 0.  1.
<mgrwt>
<rscale>  0 0.92305824E+02</rscale>
<asrwt>0</asrwt>
<pdfrwt beam="2">  1        1 0.34802120E-02 0.92305824E+02</pdfrwt>
<pdfrwt beam="1">  1       -1 0.14486578E-01 0.92305824E+02</pdfrwt>
<totfact> 0.79707417E+04</totfact>
</mgrwt>
</event>
<event>
 5    1  0.6079230E+000  0.9148282E+02  0.7546771E-02  0.1299300E+00
         -1   -1    0    0    0  501 -0.00000000000E+00  0.00000000000E+00  0.32673842451E+02  0.32673842451E+02  0.00000000000E+00 0.  1.
          1   -1    0    0  501    0  0.00000000000E+00 -0.00000000000E+00 -0.64035210567E+02  0.64035210567E+02  0.00000000000E+00 0. -1.
         23    2    1    2    0    0  0.00000000000E+00  0.00000000000E+00 -0.31361368115E+02  0.96709053018E+02  0.91482815466E+02 0.  0.
        -13    1    3    3    0    0 -0.31011673230E+02  0.33197036680E+02 -0.10036247642E+02  0.46524116194E+02  0.00000000000E+00 0.  1.
         13    1    3    3    0    0  0.31011673230E+02 -0.33197036680E+02 -0.21325120474E+02  0.50184936825E+02  0.00000000000E+00 0. -1.
<mgrwt>
<rscale>  0 0.91482815E+02</rscale>
<asrwt>0</asrwt>
<pdfrwt beam="2">  1        1 0.98515708E-02 0.91482815E+02</pdfrwt>
<pdfrwt beam="1">  1       -1 0.50267450E-02 0.91482815E+02</pdfrwt>
<totfact> 0.96429423E+04</totfact>
</mgrwt>
</event>
<event>
 5    1  0.6079230E+000  0.9047387E+02  0.7546771E-02  0.1301708E+00
         -2   -1    0    0    0  501 -0.00000000000E+00  0.00000000000E+00  0.81184508139E+01  0.81184508139E+01  0.00000000000E+00 0.  1.
          2   -1    0    0  501    0  0.00000000000E+00 -0.00000000000E+00 -0.25206534175E+03  0.25206534175E+03  0.00000000000E+00 0. -1.
         23    2    1    2    0    0  0.00000000000E+00  0.00000000000E+00 -0.24394689093E+03  0.26018379256E+03  0.90473865372E+02 0.  0.
        -13    1    3    3    0    0  0.19437186501E+02  0.37648771224E+02 -0.76399132755E+02  0.87361671684E+02  0.00000000000E+00 0.  1.
         13    1    3    3    0    0 -0.19437186501E+02 -0.37648771224E+02 -0.16754775818E+03  0.17282212088E+03  0.00000000000E+00 0. -1.
<mgrwt>
<rscale>  0 0.90473865E+02</rscale>
<asrwt>0</asrwt>
<pdfrwt beam="2">  1        2 0.38779274E-01 0.90473865E+02</pdfrwt>
<pdfrwt beam="1">  1       -2 0.12489927E-02 0.90473865E+02</pdfrwt>
<totfact> 0.17189505E+05</totfact>
</mgrwt>
</event>
<event>
 5    1  0.6079230E+000  0.9705620E+02  0.7546771E-02  0.1286611E+00
          3   -1    0    0  501    0  0.00000000000E+00  0.00000000000E+00  0.76354453270E+01  0.76354453270E+01  0.00000000000E+00 0.  1.
         -3   -1    0    0    0  501 -0.00000000000E+00 -0.00000000000E+00 -0.30842685167E+03  0.30842685167E+03  0.00000000000E+00 0. -1.
         23    2    1    2    0    0  0.00000000000E+00  0.00000000000E+00 -0.30079140635E+03  0.31606229700E+03  0.97056197398E+02 0.  0.
        -13    1    3    3    0    0  0.13976463737E+02 -0.37599386935E+02 -0.23933543505E+03  0.24267366134E+03  0.00000000000E+00 0. -1.
         13    1    3    3    0    0 -0.13976463737E+02  0.37599386935E+02 -0.61455971296E+02  0.73388635662E+02  0.00000000000E+00 0.  1.
<mgrwt>
<rscale>  0 0.97056197E+02</rscale>
<asrwt>0</asrwt>
<pdfrwt beam="1">  1        3 0.11746837E-02 0.97056197E+02</pdfrwt>
<pdfrwt beam="2">  1       -3 0.47450294E-01 0.97056197E+02</pdfrwt>
<totfact> 0.19785173E+04</totfact>
</mgrwt>
</event>
<event>
 5    1  0.6079230E+000  0.9125580E+02  0.7546771E-02  0.1299839E+00
          1   -1    0    0  501    0  0.00000000000E+00  0.00000000000E+00  0.25174938559E+02  0.25174938559E+02  0.00000000000E+00 0. -1.
         -1   -1    0    0    0  501 -0.00000000000E+00 -0.00000000000E+00 -0.82697527503E+02  0.82697527503E+02  0.00000000000E+00 0.  1.
         23    2    1    2    0    0  0.00000000000E+00  0.00000000000E+00 -0.57522588944E+02  0.10787246606E+03  0.91255798146E+02 0.  0.
        -13    1    3    3    0    0  0.18141062328E+02 -0.61238101801E+00  0.20723381334E+02  0.27548714794E+02  0.00000000000E+00 0. -1.
         13    1    3    3    0    0 -0.18141062328E+02  0.61238101801E+00 -0.78245970278E+02  0.80323751267E+02  0.00000000000E+00 0.  1.
<mgrwt>
<rscale>  0 0.91255798E+02</rscale>
<asrwt>0</asrwt>
<pdfrwt beam="1">  1        1 0.38730675E-02 0.91255798E+02</pdfrwt>
<pdfrwt beam="2">  1       -1 0.12722697E-01 0.91255798E+02</pdfrwt>
<totfact> 0.83987686E+04</totfact>
</mgrwt>
</event>
<event>
 5    1  0.6079230E+000  0.9078113E+02  0.7546771E-02  0.1300971E+00
          2   -1    0    0  501    0  0.00000000000E+00  0.00000000000E+00  0.29048719051E+03  0.29048719051E+03  0.00000000000E+00 0. -1.
         -2   -1    0    0    0  501 -0.00000000000E+00 -0.00000000000E+00 -0.70925788361E+01  0.70925788361E+01  0.00000000000E+00 0.  1.
         23    2    1    2    0    0  0.00000000000E+00  0.00000000000E+00  0.28339461167E+03  0.29757976934E+03  0.90781127985E+02 0.  0.
        -13    1    3    3    0    0 -0.39746593950E+02 -0.21505480060E+02  0.12777996502E+03  0.13553596152E+03  0.00000000000E+00 0. -1.
         13    1    3    3    0    0  0.39746593950E+02  0.21505480060E+02  0.15561464665E+03  0.16204380783E+03  0.00000000000E+00 0.  1.
<mgrwt>
<rscale>  0 0.90781128E+02</rscale>
<asrwt>0</asrwt>
<pdfrwt beam="1">  1        2 0.44690328E-01 0.90781128E+02</pdfrwt>
<pdfrwt beam="2">  1       -2 0.10911662E-02 0.90781128E+02</pdfrwt>
<totfact> 0.17958814E+05</totfact>
</mgrwt>
</event>
<event>
 5    1  0.6079230E+000  0.9072630E+02  0.7546771E-02  0.1301102E+00
         -1   -1    0    0    0  501 -0.00000000000E+00  0.00000000000E+00  0.18728990127E+02  0.18728990127E+02  0.00000000000E+00 0.  1.
          1   -1    0    0  501    0  0.00000000000E+00 -0.00000000000E+00 -0.10987326409E+03  0.10987326409E+03  0.00000000000E+00 0. -1.
         23    2    1    2    0    0  0.00000000000E+00  0.00000000000E+00 -0.91144273964E+02  0.12860225422E+03  0.90726297806E+02 0.  0.
        -13    1    3    3    0    0 -0.12702065120E+02 -0.28462409306E+02  0.11478905407E+01  0.31189242609E+02  0.00000000000E+00 0.  1.
         13    1    3    3    0    0  0.12702065120E+02  0.28462409306E+02 -0.92292164504E+02  0.97413011609E+02  0.00000000000E+00 0. -1.
<mgrwt>
<rscale>  0 0.90726298E+02</rscale>
<asrwt>0</asrwt>
<pdfrwt beam="2">  1        1 0.16903579E-01 0.90726298E+02</pdfrwt>
<pdfrwt beam="1">  1       -1 0.28813831E-02 0.90726298E+02</pdfrwt>
<totfact> 0.10755671E+05</totfact>
</mgrwt>
</event>
<event>
 5    1  0.6079230E+000  0.8803332E+02  0.7546771E-02  0.1307685E+00
         -1   -1    0    0    0  501 -0.00000000000E+00  0.00000000000E+00  0.12602297199E+03  0.12602297199E+03  0.00000000000E+00 0.  1.
          1   -1    0    0  501    0  0.00000000000E+00 -0.00000000000E+00 -0.15373915546E+02  0.15373915546E+02  0.00000000000E+00 0. -1.
         23    2    1    2    0    0  0.00000000000E+00  0.00000000000E+00  0.11064905644E+03  0.14139688754E+03  0.88033323879E+02 0.  0.
        -13    1    3    3    0    0 -0.10407209970E+01  0.21397739776E+02 -0.64353420835E+01  0.22368728069E+02  0.00000000000E+00 0. -1.
         13    1    3    3    0    0  0.10407209970E+01 -0.21397739776E+02  0.11708439853E+03  0.11902815947E+03  0.00000000000E+00 0.  1.
<mgrwt>
<rscale>  0 0.88033324E+02</rscale>
<asrwt>0</asrwt>
<pdfrwt beam="2">  1        1 0.23652179E-02 0.88033324E+02</pdfrwt>
<pdfrwt beam="1">  1       -1 0.19388149E-01 0.88033324E+02</pdfrwt>
<totfact> 0.85112014E+04</totfact>
</mgrwt>
</event>
<event>
 5    1  0.6079230E+000  0.9107036E+02  0.7546771E-02  0.1300280E+00
          1   -1    0    0  501    0  0.00000000000E+00  0.00000000000E+00  0.19708111093E+03  0.19708111093E+03  0.00000000000E+00 0. -1.
         -1   -1    0    0    0  501 -0.00000000000E+00 -0.00000000000E+00 -0.10520807364E+02  0.10520807364E+02  0.00000000000E+00 0.  1.
         23    2    1    2    0    0  0.00000000000E+00  0.00000000000E+00  0.18656030356E+03  0.20760191829E+03  0.91070355290E+02 0.  0.
        -13    1    3    3    0    0  0.47243567732E+01 -0.36114777132E+02  0.30982354719E+02  0.47817392005E+02  0.00000000000E+00 0.  1.
         13    1    3    3    0    0 -0.47243567732E+01  0.36114777132E+02  0.15557794884E+03  0.15978452629E+03  0.00000000000E+00 0. -1.
<mgrwt>
<rscale>  0 0.91070355E+02</rscale>
<asrwt>0</asrwt>
<pdfrwt beam="1">  1        1 0.30320168E-01 0.91070355E+02</pdfrwt>
<pdfrwt beam="2">  1       -1 0.16185859E-02 0.91070355E+02</pdfrwt>
<totfact> 0.11844012E+05</totfact>
</mgrwt>
</event>
<event>
 5    1  0.6079230E+000  0.8490847E+02  0.7546771E-02  0.1315672E+00
          2   -1    0    0  501    0  0.00000000000E+00  0.00000000000E+00  0.52611187875E+02  0.52611187875E+02  0.00000000000E+00 0. -1.
         -2   -1    0    0    0  501 -0.00000000000E+00 -0.00000000000E+00 -0.34258149922E+02  0.34258149922E+02  0.00000000000E+00 0.  1.
         23    2    1    2    0    0  0.00000000000E+00  0.00000000000E+00  0.18353037953E+02  0.86869337797E+02  0.84908467464E+02 0.  0.
        -13    1    3    3    0    0  0.33637721386E+01  0.37566787105E+02 -0.10761571297E+02  0.39222313460E+02  0.00000000000E+00 0.  1.
         13    1    3    3    0    0 -0.33637721386E+01 -0.37566787105E+02  0.29114609250E+02  0.47647024337E+02  0.00000000000E+00 0. -1.
<mgrwt>
<rscale>  0 0.84908467E+02</rscale>
<asrwt>0</asrwt>
<pdfrwt beam="1">  1        2 0.80940289E-02 0.84908467E+02</pdfrwt>
<pdfrwt beam="2">  1       -2 0.52704846E-02 0.84908467E+02</pdfrwt>
<totfact> 0.12523499E+05</totfact>
</mgrwt>
</event>
<event>
 5    1  0.6079230E+000  0.8982599E+02  0.7546771E-02  0.1303274E+00
          3   -1    0    0  501    0  0.00000000000E+00  0.00000000000E+00  0.18434005015E+02  0.18434005015E+02  0.00000000000E+00 0. -1.
         -3   -1    0    0    0  501 -0.00000000000E+00 -0.00000000000E+00 -0.10942695874E+03  0.10942695874E+03  0.00000000000E+00 0.  1.
         23    2    1    2    0    0  0.00000000000E+00  0.00000000000E+00 -0.90992953728E+02  0.12786096376E+03  0.89825989697E+02 0.  0.
        -13    1    3    3    0    0  0.13062955688E+02  0.26900012576E+02  0.22027629434E+01  0.29985057153E+02  0.00000000000E+00 0. -1.
         13    1    3    3    0    0 -0.13062955688E+02 -0.26900012576E+02 -0.93195716671E+02  0.97875906605E+02  0.00000000000E+00 0.  1.
<mgrwt>
<rscale>  0 0.89825990E+02</rscale>
<asrwt>0</asrwt>
<pdfrwt beam="1">  1        3 0.28360008E-02 0.89825990E+02</pdfrwt>
<pdfrwt beam="2">  1       -3 0.16834917E-01 0.89825990E+02</pdfrwt>
<totfact> 0.34068117E+04</totfact>
</mgrwt>
</event>
<event>
 5    1  0.6079230E+000  0.9130725E+02  0.7546771E-02  0.1299717E+00
          2   -1    0    0  501    0  0.00000000000E+00  0.00000000000E+00  0.57160649405E+02  0.57160649405E+02  0.00000000000E+00 0. -1.
         -2   -1    0    0    0  501 -0.00000000000E+00 -0.00000000000E+00 -0.36463080441E+02  0.36463080441E+02  0.00000000000E+00 0.  1.
         23    2    1    2    0    0  0.00000000000E+00  0.00000000000E+00  0.20697568964E+02  0.93623729846E+02  0.91307247408E+02 0.  0.
        -13    1    3    3    0    0 -0.39772840793E+02  0.70184051980E+01  0.32175360773E+02  0.51637106011E+02  0.00000000000E+00 0. -1.
         13    1    3    3    0    0  0.39772840793E+02 -0.70184051980E+01 -0.11477791809E+02  0.41986623835E+02  0.00000000000E+00 0.  1.
<mgrwt>
<rscale>  0 0.91307247E+02</rscale>
<asrwt>0</asrwt>
<pdfrwt beam="1">  1        2 0.87939461E-02 0.91307247E+02</pdfrwt>
<pdfrwt beam="2">  1       -2 0.56097047E-02 0.91307247E+02</pdfrwt>
<totfact> 0.10428172E+05</totfact>
</mgrwt>
</event>
<event>
 5    1  0.6079230E+000  0.7360642E+02  0.7546771E-02  0.1348242E+00
          2   -1    0    0  501    0  0.00000000000E+00  0.00000000000E+00  0.84227303510E+01  0.84227303510E+01  0.00000000000E+00 0.  1.
         -2   -1    0    0    0  501 -0.00000000000E+00 -0.00000000000E+00 -0.16081201935E+03  0.16081201935E+03  0.00000000000E+00 0. -1.
         23    2    1    2    0    0  0.00000000000E+00  0.00000000000E+00 -0.15238928900E+03  0.16923474970E+03  0.73606420269E+02 0.  0.
        -13    1    3    3    0    0  0.79661110293E+01 -0.33586182250E+02 -0.10554738228E+03  0.11104836995E+03  0.00000000000E+00 0. -1.
         13    1    3    3    0    0 -0.79661110293E+01  0.33586182250E+02 -0.46841906718E+02  0.58186379747E+02  0.00000000000E+00 0.  1.
<mgrwt>
<rscale>  0 0.73606420E+02</rscale>
<asrwt>0</asrwt>
<pdfrwt beam="1">  1        2 0.12958047E-02 0.73606420E+02</pdfrwt>
<pdfrwt beam="2">  1       -2 0.24740309E-01 0.73606420E+02</pdfrwt>
<totfact> 0.11698652E+05</totfact>
</mgrwt>
</event>
<event>
 5    1  0.6079230E+000  0.9539624E+02  0.7546771E-02  0.1290286E+00
         -2   -1    0    0    0  501 -0.00000000000E+00  0.00000000000E+00  0.34598394517E+02  0.34598394517E+02  0.00000000000E+00 0.  1.
          2   -1    0    0  501    0  0.00000000000E+00 -0.00000000000E+00 -0.65757695098E+02  0.65757695098E+02  0.00000000000E+00 0. -1.
         23    2    1    2    0    0  0.00000000000E+00  0.00000000000E+00 -0.31159300581E+02  0.10035608961E+03  0.95396240545E+02 0.  0.
        -13    1    3    3    0    0  0.28326444570E+02  0.21470676117E+02  0.17881856159E+02  0.39788668922E+02  0.00000000000E+00 0.  1.
         13    1    3    3    0    0 -0.28326444570E+02 -0.21470676117E+02 -0.49041156741E+02  0.60567420693E+02  0.00000000000E+00 0. -1.
<mgrwt>
<rscale>  0 0.95396241E+02</rscale>
<asrwt>0</asrwt>
<pdfrwt beam="2">  1        2 0.10116568E-01 0.95396241E+02</pdfrwt>
<pdfrwt beam="1">  1       -2 0.53228300E-02 0.95396241E+02</pdfrwt>
<totfact> 0.95709532E+04</totfact>
</mgrwt>
</event>
<event>
 5    1  0.6079230E+000  0.8966942E+02  0.7546771E-02  0.1303654E+00
          2   -1    0    0  501    0  0.00000000000E+00  0.00000000000E+00  0.15403346058E+03  0.15403346058E+03  0.00000000000E+00 0. -1.
         -2   -1    0    0    0  501 -0.00000000000E+00 -0.00000000000E+00 -0.13050094202E+02  0.13050094202E+02  0.00000000000E+00 0.  1.
         23    2    1    2    0    0  0.00000000000E+00  0.00000000000E+00  0.14098336637E+03  0.16708355478E+03  0.89669418885E+02 0.  0.
        -13    1    3    3    0    0  0.36461761213E+02 -0.24439384551E+02  0.53474321750E+02  0.69182704736E+02  0.00000000000E+00 0. -1.
         13    1    3    3    0    0 -0.36461761213E+02  0.24439384551E+02  0.87509044624E+02  0.97900850042E+02  0.00000000000E+00 0.  1.
<mgrwt>
<rscale>  0 0.89669419E+02</rscale>
<asrwt>0</asrwt>
<pdfrwt beam="1">  1        2 0.23697454E-01 0.89669419E+02</pdfrwt>
<pdfrwt beam="2">  1       -2 0.20077069E-02 0.89669419E+02</pdfrwt>
<totfact> 0.14759454E+05</totfact>
</mgrwt>
</event>
<event>
 5    1  0.6079230E+000  0.9081765E+02  0.7546771E-02  0.1300884E+00
          1   -1    0    0  501    0  0.00000000000E+00  0.00000000000E+00  0.16518558132E+03  0.16518558132E+03  0.00000000000E+00 0. -1.
         -1   -1    0    0    0  501 -0.00000000000E+00 -0.00000000000E+00 -0.12482697325E+02  0.12482697325E+02  0.00000000000E+00 0.  1.
         23    2    1    2    0    0  0.00000000000E+00  0.00000000000E+00  0.15270288399E+03  0.17766827864E+03  0.90817654982E+02 0.  0.
        -13    1    3    3    0    0 -0.19241911738E+02  0.29399907484E+02  0.13262259210E+03  0.13719824220E+03  0.00000000000E+00 0. -1.
         13    1    3    3    0    0  0.19241911738E+02 -0.29399907484E+02  0.20080291896E+02  0.40470036447E+02  0.00000000000E+00 0.  1.
<mgrwt>
<rscale>  0 0.90817655E+02</rscale>
<asrwt>0</asrwt>
<pdfrwt beam="1">  1        1 0.25413165E-01 0.90817655E+02</pdfrwt>
<pdfrwt beam="2">  1       -1 0.19204151E-02 0.90817655E+02</pdfrwt>
<totfact> 0.11537688E+05</totfact>
</mgrwt>
</event>
<event>
 5    1  0.6079230E+000  0.9190949E+02  0.7546771E-02  0.1298292E+00
          1   -1    0    0  501    0  0.00000000000E+00  0.00000000000E+00  0.14360129268E+02  0.14360129268E+02  0.00000000000E+00 0. -1.
         -1   -1    0    0    0  501 -0.00000000000E+00 -0.00000000000E+00 -0.14706263299E+03  0.14706263299E+03  0.00000000000E+00 0.  1.
         23    2    1    2    0    0  0.00000000000E+00  0.00000000000E+00 -0.13270250372E+03  0.16142276226E+03  0.91909486348E+02 0.  0.
        -13    1    3    3    0    0 -0.37759334733E+02  0.23224172883E+02 -0.45078062839E+02  0.63223107444E+02  0.00000000000E+00 0.  1.
         13    1    3    3    0    0  0.37759334733E+02 -0.23224172883E+02 -0.87624440882E+02  0.98199654813E+02  0.00000000000E+00 0. -1.
<mgrwt>
<rscale>  0 0.91909486E+02</rscale>
<asrwt>0</asrwt>
<pdfrwt beam="1">  1        1 0.22092505E-02 0.91909486E+02</pdfrwt>
<pdfrwt beam="2">  1       -1 0.22625022E-01 0.91909486E+02</pdfrwt>
<totfact> 0.73587548E+04</totfact>
</mgrwt>
</event>
<event>
 5    1  0.6079230E+000  0.8731594E+02  0.7546771E-02  0.1309485E+00
          3   -1    0    0  501    0  0.00000000000E+00  0.00000000000E+00  0.30394177962E+02  0.30394177962E+02  0.00000000000E+00 0. -1.
         -3   -1    0    0    0  501 -0.00000000000E+00 -0.00000000000E+00 -0.62709986143E+02  0.62709986143E+02  0.00000000000E+00 0.  1.
         23    2    1    2    0    0  0.00000000000E+00  0.00000000000E+00 -0.32315808181E+02  0.93104164106E+02  0.87315943077E+02 0.  0.
        -13    1    3    3    0    0 -0.76078851414E+01  0.40561377391E+02 -0.96884978759E+00  0.41280066886E+02  0.00000000000E+00 0.  1.
         13    1    3    3    0    0  0.76078851414E+01 -0.40561377391E+02 -0.31346958393E+02  0.51824097220E+02  0.00000000000E+00 0. -1.
<mgrwt>
<rscale>  0 0.87315943E+02</rscale>
<asrwt>0</asrwt>
<pdfrwt beam="1">  1        3 0.46760275E-02 0.87315943E+02</pdfrwt>
<pdfrwt beam="2">  1       -3 0.96476900E-02 0.87315943E+02</pdfrwt>
<totfact> 0.39574600E+04</totfact>
</mgrwt>
</event>
<event>
 5    1  0.6079230E+000  0.9030963E+02  0.7546771E-02  0.1302104E+00
          1   -1    0    0  501    0  0.00000000000E+00  0.00000000000E+00  0.63964720952E+02  0.63964720952E+02  0.00000000000E+00 0. -1.
         -1   -1    0    0    0  501 -0.00000000000E+00 -0.00000000000E+00 -0.31876276799E+02  0.31876276799E+02  0.00000000000E+00 0.  1.
         23    2    1    2    0    0  0.00000000000E+00  0.00000000000E+00  0.32088444153E+02  0.95840997751E+02  0.90309626296E+02 0.  0.
        -13    1    3    3    0    0 -0.25020020423E+02  0.33549104234E+02 -0.19474172824E+01  0.41896733177E+02  0.00000000000E+00 0.  1.
         13    1    3    3    0    0  0.25020020423E+02 -0.33549104234E+02  0.34035861435E+02  0.53944264574E+02  0.00000000000E+00 0. -1.
<mgrwt>
<rscale>  0 0.90309626E+02</rscale>
<asrwt>0</asrwt>
<pdfrwt beam="1">  1        1 0.98407263E-02 0.90309626E+02</pdfrwt>
<pdfrwt beam="2">  1       -1 0.49040426E-02 0.90309626E+02</pdfrwt>
<totfact> 0.99916237E+04</totfact>
</mgrwt>
</event>
<event>
 5    1  0.6079230E+000  0.9276849E+02  0.7546771E-02  0.1296283E+00
         -1   -1    0    0    0  501 -0.00000000000E+00  0.00000000000E+00  0.50814152829E+02  0.50814152829E+02  0.00000000000E+00 0.  1.
          1   -1    0    0  501    0  0.00000000000E+00 -0.00000000000E+00 -0.42340527714E+02  0.42340527714E+02  0.00000000000E+00 0. -1.
         23    2    1    2    0    0  0.00000000000E+00  0.00000000000E+00  0.84736251150E+01  0.93154680542E+02  0.92768487022E+02 0.  0.
        -13    1    3    3    0    0 -0.40205460372E+02 -0.21454401160E+02  0.12917316470E+02  0.47366944567E+02  0.00000000000E+00 0.  1.
         13    1    3    3    0    0  0.40205460372E+02  0.21454401160E+02 -0.44436913553E+01  0.45787735975E+02  0.00000000000E+00 0. -1.
<mgrwt>
<rscale>  0 0.92768487E+02</rscale>
<asrwt>0</asrwt>
<pdfrwt beam="2">  1        1 0.65139273E-02 0.92768487E+02</pdfrwt>
<pdfrwt beam="1">  1       -1 0.78175620E-02 0.92768487E+02</pdfrwt>
<totfact> 0.87086890E+04</totfact>
</mgrwt>
</event>
<event>
 5    1  0.6079230E+000  0.9124447E+02  0.7546771E-02  0.1299866E+00
          1   -1    0    0  501    0  0.00000000000E+00  0.00000000000E+00  0.10293607941E+02  0.10293607941E+02  0.00000000000E+00 0. -1.
         -1   -1    0    0    0  501 -0.00000000000E+00 -0.00000000000E+00 -0.20220202354E+03  0.20220202354E+03  0.00000000000E+00 0.  1.
         23    2    1    2    0    0  0.00000000000E+00  0.00000000000E+00 -0.19190841560E+03  0.21249563149E+03  0.91244470631E+02 0.  0.
        -13    1    3    3    0    0  0.10568647126E+02 -0.38791758424E+02 -0.14616756606E+03  0.15159635283E+03  0.00000000000E+00 0.  1.
         13    1    3    3    0    0 -0.10568647126E+02  0.38791758424E+02 -0.45740849547E+02  0.60899278657E+02  0.00000000000E+00 0. -1.
<mgrwt>
<rscale>  0 0.91244471E+02</rscale>
<asrwt>0</asrwt>
<pdfrwt beam="1">  1        1 0.15836321E-02 0.91244471E+02</pdfrwt>
<pdfrwt beam="2">  1       -1 0.31108001E-01 0.91244471E+02</pdfrwt>
<totfact> 0.69072887E+04</totfact>
</mgrwt>
</event>
<event>
 5    1  0.6079230E+000  0.9314735E+02  0.7546771E-02  0.1295404E+00
          3   -1    0    0  501    0  0.00000000000E+00  0.00000000000E+00  0.23341094967E+03  0.23341094967E+03  0.00000000000E+00 0. -1.
         -3   -1    0    0    0  501 -0.00000000000E+00 -0.00000000000E+00 -0.92930822766E+01  0.92930822766E+01  0.00000000000E+00 0.  1.
         23    2    1    2    0    0  0.00000000000E+00  0.00000000000E+00  0.22411786739E+03  0.24270403195E+03  0.93147349067E+02 0.  0.
        -13    1    3    3    0    0  0.21777746545E+02 -0.35786285379E+02  0.59031529425E+02  0.72385426241E+02  0.00000000000E+00 0.  1.
         13    1    3    3    0    0 -0.21777746545E+02  0.35786285379E+02  0.16508633797E+03  0.17031860571E+03  0.00000000000E+00 0. -1.
<mgrwt>
<rscale>  0 0.93147349E+02</rscale>
<asrwt>0</asrwt>
<pdfrwt beam="1">  1        3 0.35909373E-01 0.93147349E+02</pdfrwt>
<pdfrwt beam="2">  1       -3 0.14297051E-02 0.93147349E+02</pdfrwt>
<totfact> 0.24949555E+04</totfact>
</mgrwt>
</event>
<event>
 5    1  0.6079230E+000  0.9061308E+02  0.7546771E-02  0.1301374E+00
          1   -1    0    0  501    0  0.00000000000E+00  0.00000000000E+00  0.21115566208E+03  0.21115566208E+03  0.00000000000E+00 0. -1.
         -1   -1    0    0    0  501 -0.00000000000E+00 -0.00000000000E+00 -0.97211819730E+01  0.97211819730E+01  0.00000000000E+00 0.  1.
         23    2    1    2    0    0  0.00000000000E+00  0.00000000000E+00  0.20143448010E+03  0.22087684405E+03  0.90613081080E+02 0.  0.
        -13    1    3    3    0    0 -0.40696060478E+02 -0.13268913676E+02  0.64525158557E+02  0.77432096028E+02  0.00000000000E+00 0.  1.
         13    1    3    3    0    0  0.40696060478E+02  0.13268913676E+02  0.13690932155E+03  0.14344474802E+03  0.00000000000E+00 0. -1.
<mgrwt>
<rscale>  0 0.90613081E+02</rscale>
<asrwt>0</asrwt>
<pdfrwt beam="1">  1        1 0.32485483E-01 0.90613081E+02</pdfrwt>
<pdfrwt beam="2">  1       -1 0.14955666E-02 0.90613081E+02</pdfrwt>
<totfact> 0.12166564E+05</totfact>
</mgrwt>
</event>
<event>
 5    1  0.6079230E+000  0.8940430E+02  0.7546771E-02  0.1304301E+00
          4   -1    0    0  501    0  0.00000000000E+00  0.00000000000E+00  0.96591318592E+02  0.96591318592E+02  0.00000000000E+00 0. -1.
         -4   -1    0    0    0  501 -0.00000000000E+00 -0.00000000000E+00 -0.20688011470E+02  0.20688011470E+02  0.00000000000E+00 0.  1.
         23    2    1    2    0    0  0.00000000000E+00  0.00000000000E+00  0.75903307122E+02  0.11727933006E+03  0.89404302066E+02 0.  0.
        -13    1    3    3    0    0 -0.20430620270E+02  0.12325969784E+02 -0.11635644021E+02  0.26546713309E+02  0.00000000000E+00 0.  1.
         13    1    3    3    0    0  0.20430620270E+02 -0.12325969784E+02  0.87538951143E+02  0.90732616754E+02  0.00000000000E+00 0. -1.
<mgrwt>
<rscale>  0 0.89404302E+02</rscale>
<asrwt>0</asrwt>
<pdfrwt beam="1">  1        4 0.14860203E-01 0.89404302E+02</pdfrwt>
<pdfrwt beam="2">  1       -4 0.31827710E-02 0.89404302E+02</pdfrwt>
<totfact> 0.26809193E+04</totfact>
</mgrwt>
</event>
<event>
 5    1  0.6079230E+000  0.8994417E+02  0.7546771E-02  0.1302987E+00
          1   -1    0    0  501    0  0.00000000000E+00  0.00000000000E+00  0.13548169071E+02  0.13548169071E+02  0.00000000000E+00 0. -1.
         -1   -1    0    0    0  501 -0.00000000000E+00 -0.00000000000E+00 -0.14928129988E+03  0.14928129988E+03  0.00000000000E+00 0.  1.
         23    2    1    2    0    0  0.00000000000E+00  0.00000000000E+00 -0.13573313081E+03  0.16282946895E+03  0.89944166903E+02 0.  0.
        -13    1    3    3    0    0  0.41849270219E+02  0.16192773265E+02 -0.62459446168E+02  0.76907410173E+02  0.00000000000E+00 0.  1.
         13    1    3    3    0    0 -0.41849270219E+02 -0.16192773265E+02 -0.73273684643E+02  0.85922058780E+02  0.00000000000E+00 0. -1.
<mgrwt>
<rscale>  0 0.89944167E+02</rscale>
<asrwt>0</asrwt>
<pdfrwt beam="1">  1        1 0.20843337E-02 0.89944167E+02</pdfrwt>
<pdfrwt beam="2">  1       -1 0.22966354E-01 0.89944167E+02</pdfrwt>
<totfact> 0.77561915E+04</totfact>
</mgrwt>
</event>
<event>
 5    1  0.6079230E+000  0.9107263E+02  0.7546771E-02  0.1300275E+00
          1   -1    0    0  501    0  0.00000000000E+00  0.00000000000E+00  0.20947490503E+02  0.20947490503E+02  0.00000000000E+00 0. -1.
         -1   -1    0    0    0  501 -0.00000000000E+00 -0.00000000000E+00 -0.98988273209E+02  0.98988273209E+02  0.00000000000E+00 0.  1.
         23    2    1    2    0    0  0.00000000000E+00  0.00000000000E+00 -0.78040782706E+02  0.11993576371E+03  0.91072628445E+02 0.  0.
        -13    1    3    3    0    0 -0.20874407791E+02 -0.68846424959E+01  0.13498590608E+02  0.25794401550E+02  0.00000000000E+00 0. -1.
         13    1    3    3    0    0  0.20874407791E+02  0.68846424959E+01 -0.91539373315E+02  0.94141362162E+02  0.00000000000E+00 0.  1.
<mgrwt>
<rscale>  0 0.91072628E+02</rscale>
<asrwt>0</asrwt>
<pdfrwt beam="1">  1        1 0.32226908E-02 0.91072628E+02</pdfrwt>
<pdfrwt beam="2">  1       -1 0.15228965E-01 0.91072628E+02</pdfrwt>
<totfact> 0.81764876E+04</totfact>
</mgrwt>
</event>
<event>
 5    1  0.6079230E+000  0.9123464E+02  0.7546771E-02  0.1299889E+00
         -3   -1    0    0    0  501 -0.00000000000E+00  0.00000000000E+00  0.22144397960E+02  0.22144397960E+02  0.00000000000E+00 0.  1.
          3   -1    0    0  501    0  0.00000000000E+00 -0.00000000000E+00 -0.93971391509E+02  0.93971391509E+02  0.00000000000E+00 0. -1.
         23    2    1    2    0    0  0.00000000000E+00  0.00000000000E+00 -0.71826993549E+02  0.11611578947E+03  0.91234640142E+02 0.  0.
        -13    1    3    3    0    0 -0.89178035110E+01 -0.37125993921E+02 -0.67682315591E+02  0.77709474891E+02  0.00000000000E+00 0. -1.
         13    1    3    3    0    0  0.89178035110E+01  0.37125993921E+02 -0.41446779572E+01  0.38406314578E+02  0.00000000000E+00 0.  1.
<mgrwt>
<rscale>  0 0.91234640E+02</rscale>
<asrwt>0</asrwt>
<pdfrwt beam="2">  1        3 0.14457137E-01 0.91234640E+02</pdfrwt>
<pdfrwt beam="1">  1       -3 0.34068305E-02 0.91234640E+02</pdfrwt>
<totfact> 0.33456317E+04</totfact>
</mgrwt>
</event>
<event>
 5    1  0.6079230E+000  0.9059074E+02  0.7546771E-02  0.1301427E+00
          2   -1    0    0  501    0  0.00000000000E+00  0.00000000000E+00  0.92410578895E+01  0.92410578895E+01  0.00000000000E+00 0.  1.
         -2   -1    0    0    0  501 -0.00000000000E+00 -0.00000000000E+00 -0.22201686894E+03  0.22201686894E+03  0.00000000000E+00 0. -1.
         23    2    1    2    0    0  0.00000000000E+00  0.00000000000E+00 -0.21277581105E+03  0.23125792683E+03  0.90590744302E+02 0.  0.
        -13    1    3    3    0    0  0.27761630954E+02 -0.33413968849E+02 -0.73649676417E+02  0.85507171067E+02  0.00000000000E+00 0.  1.
         13    1    3    3    0    0 -0.27761630954E+02  0.33413968849E+02 -0.13912613463E+03  0.14575075576E+03  0.00000000000E+00 0. -1.
<mgrwt>
<rscale>  0 0.90590744E+02</rscale>
<asrwt>0</asrwt>
<pdfrwt beam="1">  1        2 0.14217013E-02 0.90590744E+02</pdfrwt>
<pdfrwt beam="2">  1       -2 0.34156438E-01 0.90590744E+02</pdfrwt>
<totfact> 0.60463550E+04</totfact>
</mgrwt>
</event>
<event>
 5    1  0.6079230E+000  0.9272362E+02  0.7546771E-02  0.1296387E+00
         -2   -1    0    0    0  501 -0.00000000000E+00  0.00000000000E+00  0.18276965022E+02  0.18276965022E+02  0.00000000000E+00 0.  1.
          2   -1    0    0  501    0  0.00000000000E+00 -0.00000000000E+00 -0.11760253037E+03  0.11760253037E+03  0.00000000000E+00 0. -1.
         23    2    1    2    0    0  0.00000000000E+00  0.00000000000E+00 -0.99325565343E+02  0.13587949539E+03  0.92723618005E+02 0.  0.
        -13    1    3    3    0    0 -0.16938170297E+02  0.37435514995E+02 -0.81130130908E+02  0.90941836011E+02  0.00000000000E+00 0. -1.
         13    1    3    3    0    0  0.16938170297E+02 -0.37435514995E+02 -0.18195434435E+02  0.44937659376E+02  0.00000000000E+00 0.  1.
<mgrwt>
<rscale>  0 0.92723618E+02</rscale>
<asrwt>0</asrwt>
<pdfrwt beam="2">  1        2 0.18092697E-01 0.92723618E+02</pdfrwt>
<pdfrwt beam="1">  1       -2 0.28118407E-02 0.92723618E+02</pdfrwt>
<totfact> 0.12321443E+05</totfact>
</mgrwt>
</event>
<event>
 5    1  0.6079230E+000  0.9094983E+02  0.7546771E-02  0.1300568E+00
         -1   -1    0    0    0  501 -0.00000000000E+00  0.00000000000E+00  0.95991401868E+01  0.95991401868E+01  0.00000000000E+00 0.  1.
          1   -1    0    0  501    0  0.00000000000E+00 -0.00000000000E+00 -0.21543264077E+03  0.21543264077E+03  0.00000000000E+00 0. -1.
         23    2    1    2    0    0  0.00000000000E+00  0.00000000000E+00 -0.20583350058E+03  0.22503178096E+03  0.90949834955E+02 0.  0.
        -13    1    3    3    0    0 -0.39154177401E+02  0.17046842451E+02 -0.14159125115E+03  0.14789092889E+03  0.00000000000E+00 0. -1.
         13    1    3    3    0    0  0.39154177401E+02 -0.17046842451E+02 -0.64242249433E+02  0.77140852068E+02  0.00000000000E+00 0.  1.
<mgrwt>
<rscale>  0 0.90949835E+02</rscale>
<asrwt>0</asrwt>
<pdfrwt beam="2">  1        1 0.33143480E-01 0.90949835E+02</pdfrwt>
<pdfrwt beam="1">  1       -1 0.14767909E-02 0.90949835E+02</pdfrwt>
<totfact> 0.12093540E+05</totfact>
</mgrwt>
</event>
<event>
 5    1  0.6079230E+000  0.6218959E+02  0.7546771E-02  0.1388866E+00
         -1   -1    0    0    0  501 -0.00000000000E+00  0.00000000000E+00  0.15250251314E+02  0.15250251314E+02  0.00000000000E+00 0.  1.
          1   -1    0    0  501    0  0.00000000000E+00 -0.00000000000E+00 -0.63401334090E+02  0.63401334090E+02  0.00000000000E+00 0. -1.
         23    2    1    2    0    0  0.00000000000E+00  0.00000000000E+00 -0.48151082776E+02  0.78651585405E+02  0.62189590079E+02 0.  0.
        -13    1    3    3    0    0 -0.72564601028E+01  0.84272681193E+01  0.12649134766E+02  0.16842674120E+02  0.00000000000E+00 0.  1.
         13    1    3    3    0    0  0.72564601028E+01 -0.84272681193E+01 -0.60800217542E+02  0.61808911285E+02  0.00000000000E+00 0. -1.
<mgrwt>
<rscale>  0 0.62189590E+02</rscale>
<asrwt>0</asrwt>
<pdfrwt beam="2">  1        1 0.97540512E-02 0.62189590E+02</pdfrwt>
<pdfrwt beam="1">  1       -1 0.23461926E-02 0.62189590E+02</pdfrwt>
<totfact> 0.27217565E+05</totfact>
</mgrwt>
</event>
<event>
 5    1  0.6079230E+000  0.9267905E+02  0.7546771E-02  0.1296491E+00
          2   -1    0    0  501    0  0.00000000000E+00  0.00000000000E+00  0.24659764748E+03  0.24659764748E+03  0.00000000000E+00 0.  1.
         -2   -1    0    0    0  501 -0.00000000000E+00 -0.00000000000E+00 -0.87079166681E+01  0.87079166681E+01  0.00000000000E+00 0. -1.
         23    2    1    2    0    0  0.00000000000E+00  0.00000000000E+00  0.23788973082E+03  0.25530556415E+03  0.92679054048E+02 0.  0.
        -13    1    3    3    0    0  0.11955309127E+02  0.44071029458E+02  0.14066475599E+03  0.14789103635E+03  0.00000000000E+00 0.  1.
         13    1    3    3    0    0 -0.11955309127E+02 -0.44071029458E+02  0.97224974822E+02  0.10741452780E+03  0.00000000000E+00 0. -1.
<mgrwt>
<rscale>  0 0.92679054E+02</rscale>
<asrwt>0</asrwt>
<pdfrwt beam="1">  1        2 0.37938094E-01 0.92679054E+02</pdfrwt>
<pdfrwt beam="2">  1       -2 0.13396797E-02 0.92679054E+02</pdfrwt>
<totfact> 0.15984677E+05</totfact>
</mgrwt>
</event>
<event>
 5    1  0.6079230E+000  0.9070327E+02  0.7546771E-02  0.1301157E+00
          2   -1    0    0  501    0  0.00000000000E+00  0.00000000000E+00  0.44011570156E+02  0.44011570156E+02  0.00000000000E+00 0. -1.
         -2   -1    0    0    0  501 -0.00000000000E+00 -0.00000000000E+00 -0.46732507203E+02  0.46732507203E+02  0.00000000000E+00 0.  1.
         23    2    1    2    0    0  0.00000000000E+00  0.00000000000E+00 -0.27209370470E+01  0.90744077359E+02  0.90703274898E+02 0.  0.
        -13    1    3    3    0    0 -0.17282854992E+02 -0.18503102672E+02  0.36282367732E+02  0.44243328237E+02  0.00000000000E+00 0. -1.
         13    1    3    3    0    0  0.17282854992E+02  0.18503102672E+02 -0.39003304780E+02  0.46500749122E+02  0.00000000000E+00 0.  1.
<mgrwt>
<rscale>  0 0.90703275E+02</rscale>
<asrwt>0</asrwt>
<pdfrwt beam="1">  1        2 0.67710108E-02 0.90703275E+02</pdfrwt>
<pdfrwt beam="2">  1       -2 0.71896165E-02 0.90703275E+02</pdfrwt>
<totfact> 0.99252319E+04</totfact>
</mgrwt>
</event>
<event>
 5    1  0.6079230E+000  0.9194364E+02  0.7546771E-02  0.1298212E+00
          1   -1    0    0  501    0  0.00000000000E+00  0.00000000000E+00  0.26534815756E+03  0.26534815756E+03  0.00000000000E+00 0. -1.
         -1   -1    0    0    0  501 -0.00000000000E+00 -0.00000000000E+00 -0.79646619492E+01  0.79646619492E+01  0.00000000000E+00 0.  1.
         23    2    1    2    0    0  0.00000000000E+00  0.00000000000E+00  0.25738349561E+03  0.27331281951E+03  0.91943643039E+02 0.  0.
        -13    1    3    3    0    0 -0.42736765089E+02 -0.12879242488E+02  0.16140431770E+03  0.16746241294E+03  0.00000000000E+00 0.  1.
         13    1    3    3    0    0  0.42736765089E+02  0.12879242488E+02  0.95979177916E+02  0.10585040657E+03  0.00000000000E+00 0. -1.
<mgrwt>
<rscale>  0 0.91943643E+02</rscale>
<asrwt>0</asrwt>
<pdfrwt beam="1">  1        1 0.40822787E-01 0.91943643E+02</pdfrwt>
<pdfrwt beam="2">  1       -1 0.12253328E-02 0.91943643E+02</pdfrwt>
<totfact> 0.12234830E+05</totfact>
</mgrwt>
</event>
<event>
 5    1  0.6079230E+000  0.9275584E+02  0.7546771E-02  0.1296312E+00
         -1   -1    0    0    0  501 -0.00000000000E+00  0.00000000000E+00  0.10567980811E+03  0.10567980811E+03  0.00000000000E+00 0.  1.
          1   -1    0    0  501    0  0.00000000000E+00 -0.00000000000E+00 -0.20353098624E+02  0.20353098624E+02  0.00000000000E+00 0. -1.
         23    2    1    2    0    0  0.00000000000E+00  0.00000000000E+00  0.85326709486E+02  0.12603290673E+03  0.92755842015E+02 0.  0.
        -13    1    3    3    0    0 -0.32200525565E+02  0.33374134458E+02  0.43278348524E+02  0.63432816021E+02  0.00000000000E+00 0.  1.
         13    1    3    3    0    0  0.32200525565E+02 -0.33374134458E+02  0.42048360962E+02  0.62600090711E+02  0.00000000000E+00 0. -1.
<mgrwt>
<rscale>  0 0.92755842E+02</rscale>
<asrwt>0</asrwt>
<pdfrwt beam="2">  1        1 0.31312460E-02 0.92755842E+02</pdfrwt>
<pdfrwt beam="1">  1       -1 0.16258432E-01 0.92755842E+02</pdfrwt>
<totfact> 0.77036047E+04</totfact>
</mgrwt>
</event>
<event>
 5    1  0.6079230E+000  0.8889058E+02  0.7546771E-02  0.1305561E+00
         -1   -1    0    0    0  501 -0.00000000000E+00  0.00000000000E+00  0.36675903796E+02  0.36675903796E+02  0.00000000000E+00 0.  1.
          1   -1    0    0  501    0  0.00000000000E+00 -0.00000000000E+00 -0.53860531388E+02  0.53860531388E+02  0.00000000000E+00 0. -1.
         23    2    1    2    0    0  0.00000000000E+00  0.00000000000E+00 -0.17184627592E+02  0.90536435183E+02  0.88890576949E+02 0.  0.
        -13    1    3    3    0    0  0.39914955123E+02 -0.11538672337E+02  0.74808512669E+01  0.42217386672E+02  0.00000000000E+00 0.  1.
         13    1    3    3    0    0 -0.39914955123E+02  0.11538672337E+02 -0.24665478859E+02  0.48319048511E+02  0.00000000000E+00 0. -1.
<mgrwt>
<rscale>  0 0.88890577E+02</rscale>
<asrwt>0</asrwt>
<pdfrwt beam="2">  1        1 0.82862355E-02 0.88890577E+02</pdfrwt>
<pdfrwt beam="1">  1       -1 0.56424468E-02 0.88890577E+02</pdfrwt>
<totfact> 0.10174732E+05</totfact>
</mgrwt>
</event>
<event>
 5    1  0.6079230E+000  0.9359228E+02  0.7546771E-02  0.1294378E+00
         -1   -1    0    0    0  501 -0.00000000000E+00  0.00000000000E+00  0.22472051025E+03  0.22472051025E+03  0.00000000000E+00 0.  1.
          1   -1    0    0  501    0  0.00000000000E+00 -0.00000000000E+00 -0.97448981879E+01  0.97448981879E+01  0.00000000000E+00 0. -1.
         23    2    1    2    0    0  0.00000000000E+00  0.00000000000E+00  0.21497561206E+03  0.23446540844E+03  0.93592275176E+02 0.  0.
        -13    1    3    3    0    0 -0.88808600946E+01 -0.45940569246E+02  0.10576502495E+03  0.11565312828E+03  0.00000000000E+00 0. -1.
         13    1    3    3    0    0  0.88808600946E+01  0.45940569246E+02  0.10921058711E+03  0.11881228016E+03  0.00000000000E+00 0.  1.
<mgrwt>
<rscale>  0 0.93592275E+02</rscale>
<asrwt>0</asrwt>
<pdfrwt beam="2">  1        1 0.14992153E-02 0.93592275E+02</pdfrwt>
<pdfrwt beam="1">  1       -1 0.34572382E-01 0.93592275E+02</pdfrwt>
<totfact> 0.62621653E+04</totfact>
</mgrwt>
</event>
<event>
 5    1  0.6079230E+000  0.9033214E+02  0.7546771E-02  0.1302049E+00
         -3   -1    0    0    0  501 -0.00000000000E+00  0.00000000000E+00  0.89820820110E+02  0.89820820110E+02  0.00000000000E+00 0.  1.
          3   -1    0    0  501    0  0.00000000000E+00 -0.00000000000E+00 -0.22711590441E+02  0.22711590441E+02  0.00000000000E+00 0. -1.
         23    2    1    2    0    0  0.00000000000E+00  0.00000000000E+00  0.67109229669E+02  0.11253241055E+03  0.90332135576E+02 0.  0.
        -13    1    3    3    0    0 -0.29741013557E+02  0.25891282195E+02  0.60992162739E+02  0.72628715373E+02  0.00000000000E+00 0.  1.
         13    1    3    3    0    0  0.29741013557E+02 -0.25891282195E+02  0.61170669299E+01  0.39903695179E+02  0.00000000000E+00 0. -1.
<mgrwt>
<rscale>  0 0.90332136E+02</rscale>
<asrwt>0</asrwt>
<pdfrwt beam="2">  1        3 0.34940909E-02 0.90332136E+02</pdfrwt>
<pdfrwt beam="1">  1       -3 0.13818588E-01 0.90332136E+02</pdfrwt>
<totfact> 0.34630301E+04</totfact>
</mgrwt>
</event>
<event>
 5    1  0.6079230E+000  0.9020034E+02  0.7546771E-02  0.1302367E+00
         -1   -1    0    0    0  501 -0.00000000000E+00  0.00000000000E+00  0.17443562935E+03  0.17443562935E+03  0.00000000000E+00 0.  1.
          1   -1    0    0  501    0  0.00000000000E+00 -0.00000000000E+00 -0.11660606627E+02  0.11660606627E+02  0.00000000000E+00 0. -1.
         23    2    1    2    0    0  0.00000000000E+00  0.00000000000E+00  0.16277502272E+03  0.18609623598E+03  0.90200338263E+02 0.  0.
        -13    1    3    3    0    0  0.18835346196E+02 -0.33842366024E+02  0.12906127224E+03  0.13474749718E+03  0.00000000000E+00 0.  1.
         13    1    3    3    0    0 -0.18835346196E+02  0.33842366024E+02  0.33713750483E+02  0.51348738797E+02  0.00000000000E+00 0. -1.
<mgrwt>
<rscale>  0 0.90200338E+02</rscale>
<asrwt>0</asrwt>
<pdfrwt beam="2">  1        1 0.17939396E-02 0.90200338E+02</pdfrwt>
<pdfrwt beam="1">  1       -1 0.26836249E-01 0.90200338E+02</pdfrwt>
<totfact> 0.74104958E+04</totfact>
</mgrwt>
</event>
<event>
 5    1  0.6079230E+000  0.9063852E+02  0.7546771E-02  0.1301313E+00
         -2   -1    0    0    0  501 -0.00000000000E+00  0.00000000000E+00  0.26150218736E+02  0.26150218736E+02  0.00000000000E+00 0.  1.
          2   -1    0    0  501    0  0.00000000000E+00 -0.00000000000E+00 -0.78539894239E+02  0.78539894239E+02  0.00000000000E+00 0. -1.
         23    2    1    2    0    0  0.00000000000E+00  0.00000000000E+00 -0.52389675504E+02  0.10469011298E+03  0.90638521918E+02 0.  0.
        -13    1    3    3    0    0  0.16998129667E+01  0.18325579104E+02  0.21639526706E+02  0.28407487212E+02  0.00000000000E+00 0.  1.
         13    1    3    3    0    0 -0.16998129667E+01 -0.18325579104E+02 -0.74029202209E+02  0.76282625764E+02  0.00000000000E+00 0. -1.
<mgrwt>
<rscale>  0 0.90638522E+02</rscale>
<asrwt>0</asrwt>
<pdfrwt beam="2">  1        2 0.12083061E-01 0.90638522E+02</pdfrwt>
<pdfrwt beam="1">  1       -2 0.40231105E-02 0.90638522E+02</pdfrwt>
<totfact> 0.11614932E+05</totfact>
</mgrwt>
</event>
<event>
 5    1  0.6079230E+000  0.8462077E+02  0.7546771E-02  0.1316427E+00
          2   -1    0    0  501    0  0.00000000000E+00  0.00000000000E+00  0.16324974773E+03  0.16324974773E+03  0.00000000000E+00 0. -1.
         -2   -1    0    0    0  501 -0.00000000000E+00 -0.00000000000E+00 -0.10965828458E+02  0.10965828458E+02  0.00000000000E+00 0.  1.
         23    2    1    2    0    0  0.00000000000E+00  0.00000000000E+00  0.15228391928E+03  0.17421557619E+03  0.84620771197E+02 0.  0.
        -13    1    3    3    0    0 -0.35582909791E+02  0.52537905691E+01  0.12201271861E+03  0.12720396726E+03  0.00000000000E+00 0. -1.
         13    1    3    3    0    0  0.35582909791E+02 -0.52537905691E+01  0.30271200667E+02  0.47011608931E+02  0.00000000000E+00 0.  1.
<mgrwt>
<rscale>  0 0.84620771E+02</rscale>
<asrwt>0</asrwt>
<pdfrwt beam="1">  1        2 0.25115344E-01 0.84620771E+02</pdfrwt>
<pdfrwt beam="2">  1       -2 0.16870506E-02 0.84620771E+02</pdfrwt>
<totfact> 0.17596564E+05</totfact>
</mgrwt>
</event>
<event>
 5    1  0.6079230E+000  0.7946997E+02  0.7546771E-02  0.1330562E+00
         -3   -1    0    0    0  501 -0.00000000000E+00  0.00000000000E+00  0.52173423963E+02  0.52173423963E+02  0.00000000000E+00 0.  1.
          3   -1    0    0  501    0  0.00000000000E+00 -0.00000000000E+00 -0.30261939279E+02  0.30261939279E+02  0.00000000000E+00 0. -1.
         23    2    1    2    0    0  0.00000000000E+00  0.00000000000E+00  0.21911484683E+02  0.82435363242E+02  0.79469968868E+02 0.  0.
        -13    1    3    3    0    0  0.22812689274E+02 -0.27007790730E+02  0.29771767693E+02  0.46219018852E+02  0.00000000000E+00 0.  1.
         13    1    3    3    0    0 -0.22812689274E+02  0.27007790730E+02 -0.78602830095E+01  0.36216344391E+02  0.00000000000E+00 0. -1.
<mgrwt>
<rscale>  0 0.79469969E+02</rscale>
<asrwt>0</asrwt>
<pdfrwt beam="2">  1        3 0.46556830E-02 0.79469969E+02</pdfrwt>
<pdfrwt beam="1">  1       -3 0.80266806E-02 0.79469969E+02</pdfrwt>
<totfact> 0.52226987E+04</totfact>
</mgrwt>
</event>
<event>
 5    1  0.6079230E+000  0.9209436E+02  0.7546771E-02  0.1297858E+00
         -2   -1    0    0    0  501 -0.00000000000E+00  0.00000000000E+00  0.76480868058E+01  0.76480868058E+01  0.00000000000E+00 0.  1.
          2   -1    0    0  501    0  0.00000000000E+00 -0.00000000000E+00 -0.27723830260E+03  0.27723830260E+03  0.00000000000E+00 0. -1.
         23    2    1    2    0    0  0.00000000000E+00  0.00000000000E+00 -0.26959021579E+03  0.28488638941E+03  0.92094356052E+02 0.  0.
        -13    1    3    3    0    0  0.14461223928E+02 -0.35006558234E+02 -0.53787902896E+02  0.65785443791E+02  0.00000000000E+00 0.  1.
         13    1    3    3    0    0 -0.14461223928E+02  0.35006558234E+02 -0.21580231290E+03  0.21910094562E+03  0.00000000000E+00 0. -1.
<mgrwt>
<rscale>  0 0.92094356E+02</rscale>
<asrwt>0</asrwt>
<pdfrwt beam="2">  1        2 0.42652049E-01 0.92094356E+02</pdfrwt>
<pdfrwt beam="1">  1       -2 0.11766287E-02 0.92094356E+02</pdfrwt>
<totfact> 0.16983900E+05</totfact>
</mgrwt>
</event>
<event>
 5    1  0.6079230E+000  0.9269436E+02  0.7546771E-02  0.1296455E+00
         -1   -1    0    0    0  501 -0.00000000000E+00  0.00000000000E+00  0.15166654282E+02  0.15166654282E+02  0.00000000000E+00 0. -1.
          1   -1    0    0  501    0  0.00000000000E+00 -0.00000000000E+00 -0.14163051158E+03  0.14163051158E+03  0.00000000000E+00 0.  1.
         23    2    1    2    0    0  0.00000000000E+00  0.00000000000E+00 -0.12646385730E+03  0.15679716587E+03  0.92694358080E+02 0.  0.
        -13    1    3    3    0    0  0.21959062736E+02  0.27428890749E+02 -0.11435808105E+03  0.11963408872E+03  0.00000000000E+00 0.  1.
         13    1    3    3    0    0 -0.21959062736E+02 -0.27428890749E+02 -0.12105776255E+02  0.37163077142E+02  0.00000000000E+00 0. -1.
<mgrwt>
<rscale>  0 0.92694358E+02</rscale>
<asrwt>0</asrwt>
<pdfrwt beam="2">  1        1 0.21789310E-01 0.92694358E+02</pdfrwt>
<pdfrwt beam="1">  1       -1 0.23333314E-02 0.92694358E+02</pdfrwt>
<totfact> 0.10611498E+05</totfact>
</mgrwt>
</event>
<event>
 5    1  0.6079230E+000  0.9311223E+02  0.7546771E-02  0.1295485E+00
          3   -1    0    0  501    0  0.00000000000E+00  0.00000000000E+00  0.17220839527E+02  0.17220839527E+02  0.00000000000E+00 0. -1.
         -3   -1    0    0    0  501 -0.00000000000E+00 -0.00000000000E+00 -0.12586329870E+03  0.12586329870E+03  0.00000000000E+00 0.  1.
         23    2    1    2    0    0  0.00000000000E+00  0.00000000000E+00 -0.10864245918E+03  0.14308413823E+03  0.93112226250E+02 0.  0.
        -13    1    3    3    0    0 -0.26004312679E+02  0.38453292800E+02 -0.48868344452E+02  0.67401744002E+02  0.00000000000E+00 0.  1.
         13    1    3    3    0    0  0.26004312679E+02 -0.38453292800E+02 -0.59774114724E+02  0.75682394228E+02  0.00000000000E+00 0. -1.
<mgrwt>
<rscale>  0 0.93112226E+02</rscale>
<asrwt>0</asrwt>
<pdfrwt beam="1">  1        3 0.26493601E-02 0.93112226E+02</pdfrwt>
<pdfrwt beam="2">  1       -3 0.19363583E-01 0.93112226E+02</pdfrwt>
<totfact> 0.29976299E+04</totfact>
</mgrwt>
</event>
<event>
 5    1  0.6079230E+000  0.9176406E+02  0.7546771E-02  0.1298635E+00
          2   -1    0    0  501    0  0.00000000000E+00  0.00000000000E+00  0.46158605277E+02  0.46158605277E+02  0.00000000000E+00 0. -1.
         -2   -1    0    0    0  501 -0.00000000000E+00 -0.00000000000E+00 -0.45607112510E+02  0.45607112510E+02  0.00000000000E+00 0.  1.
         23    2    1    2    0    0  0.00000000000E+00  0.00000000000E+00  0.55149276733E+00  0.91765717787E+02  0.91764060594E+02 0.  0.
        -13    1    3    3    0    0 -0.35288952507E+02  0.29270401423E+02  0.20347937032E+01  0.45893430400E+02  0.00000000000E+00 0.  1.
         13    1    3    3    0    0  0.35288952507E+02 -0.29270401423E+02 -0.14833009359E+01  0.45872287387E+02  0.00000000000E+00 0. -1.
<mgrwt>
<rscale>  0 0.91764061E+02</rscale>
<asrwt>0</asrwt>
<pdfrwt beam="1">  1        2 0.71013239E-02 0.91764061E+02</pdfrwt>
<pdfrwt beam="2">  1       -2 0.70164789E-02 0.91764061E+02</pdfrwt>
<totfact> 0.97185112E+04</totfact>
</mgrwt>
</event>
<event>
 5    1  0.6079230E+000  0.9106232E+02  0.7546771E-02  0.1300299E+00
         -4   -1    0    0    0  501 -0.00000000000E+00  0.00000000000E+00  0.10376195878E+02  0.10376195878E+02  0.00000000000E+00 0.  1.
          4   -1    0    0  501    0  0.00000000000E+00 -0.00000000000E+00 -0.19979252244E+03  0.19979252244E+03  0.00000000000E+00 0. -1.
         23    2    1    2    0    0  0.00000000000E+00  0.00000000000E+00 -0.18941632656E+03  0.21016871832E+03  0.91062315977E+02 0.  0.
        -13    1    3    3    0    0  0.25469747525E+02 -0.23510928340E+02 -0.26569811854E+02  0.43674096354E+02  0.00000000000E+00 0.  1.
         13    1    3    3    0    0 -0.25469747525E+02  0.23510928340E+02 -0.16284651471E+03  0.16649462196E+03  0.00000000000E+00 0. -1.
<mgrwt>
<rscale>  0 0.91062316E+02</rscale>
<asrwt>0</asrwt>
<pdfrwt beam="2">  1        4 0.30737309E-01 0.91062316E+02</pdfrwt>
<pdfrwt beam="1">  1       -4 0.15963379E-02 0.91062316E+02</pdfrwt>
<totfact> 0.21039559E+04</totfact>
</mgrwt>
</event>
<event>
 5    1  0.6079230E+000  0.9126984E+02  0.7546771E-02  0.1299805E+00
         -1   -1    0    0    0  501 -0.00000000000E+00  0.00000000000E+00  0.14937257592E+03  0.14937257592E+03  0.00000000000E+00 0.  1.
          1   -1    0    0  501    0  0.00000000000E+00 -0.00000000000E+00 -0.13941956711E+02  0.13941956711E+02  0.00000000000E+00 0. -1.
         23    2    1    2    0    0  0.00000000000E+00  0.00000000000E+00  0.13543061921E+03  0.16331453263E+03  0.91269841400E+02 0.  0.
        -13    1    3    3    0    0 -0.79320130493E+01  0.36723533985E+02  0.11406666345E+03  0.12009470634E+03  0.00000000000E+00 0.  1.
         13    1    3    3    0    0  0.79320130493E+01 -0.36723533985E+02  0.21363955761E+02  0.43219826297E+02  0.00000000000E+00 0. -1.
<mgrwt>
<rscale>  0 0.91269841E+02</rscale>
<asrwt>0</asrwt>
<pdfrwt beam="2">  1        1 0.21449165E-02 0.91269841E+02</pdfrwt>
<pdfrwt beam="1">  1       -1 0.22980395E-01 0.91269841E+02</pdfrwt>
<totfact> 0.74663826E+04</totfact>
</mgrwt>
</event>
<event>
 5    1  0.6079230E+000  0.9085247E+02  0.7546771E-02  0.1300800E+00
          1   -1    0    0  501    0  0.00000000000E+00  0.00000000000E+00  0.27866964568E+03  0.27866964568E+03  0.00000000000E+00 0. -1.
         -1   -1    0    0    0  501 -0.00000000000E+00 -0.00000000000E+00 -0.74049781427E+01  0.74049781427E+01  0.00000000000E+00 0.  1.
         23    2    1    2    0    0  0.00000000000E+00  0.00000000000E+00  0.27126466754E+03  0.28607462382E+03  0.90852465796E+02 0.  0.
        -13    1    3    3    0    0 -0.35375270043E+02 -0.28497530616E+02  0.13611660635E+03  0.14349651392E+03  0.00000000000E+00 0. -1.
         13    1    3    3    0    0  0.35375270043E+02  0.28497530616E+02  0.13514806118E+03  0.14257810990E+03  0.00000000000E+00 0.  1.
<mgrwt>
<rscale>  0 0.90852466E+02</rscale>
<asrwt>0</asrwt>
<pdfrwt beam="1">  1        1 0.42872245E-01 0.90852466E+02</pdfrwt>
<pdfrwt beam="2">  1       -1 0.11392276E-02 0.90852466E+02</pdfrwt>
<totfact> 0.12752257E+05</totfact>
</mgrwt>
</event>
<event>
 5    1  0.6079230E+000  0.8615185E+02  0.7546771E-02  0.1312448E+00
         -1   -1    0    0    0  501 -0.00000000000E+00  0.00000000000E+00  0.67402078188E+01  0.67402078188E+01  0.00000000000E+00 0.  1.
          1   -1    0    0  501    0  0.00000000000E+00 -0.00000000000E+00 -0.27529347742E+03  0.27529347742E+03  0.00000000000E+00 0. -1.
         23    2    1    2    0    0  0.00000000000E+00  0.00000000000E+00 -0.26855326960E+03  0.28203368524E+03  0.86151848476E+02 0.  0.
        -13    1    3    3    0    0  0.35791828636E+02  0.18253065406E+02 -0.18513007197E+03  0.18943962875E+03  0.00000000000E+00 0. -1.
         13    1    3    3    0    0 -0.35791828636E+02 -0.18253065406E+02 -0.83423197630E+02  0.92594056486E+02  0.00000000000E+00 0.  1.
<mgrwt>
<rscale>  0 0.86151848E+02</rscale>
<asrwt>0</asrwt>
<pdfrwt beam="2">  1        1 0.42352839E-01 0.86151848E+02</pdfrwt>
<pdfrwt beam="1">  1       -1 0.10369551E-02 0.86151848E+02</pdfrwt>
<totfact> 0.14651491E+05</totfact>
</mgrwt>
</event>
<event>
 5    1  0.6079230E+000  0.8996815E+02  0.7546771E-02  0.1302929E+00
         -1   -1    0    0    0  501 -0.00000000000E+00  0.00000000000E+00  0.15585001901E+03  0.15585001901E+03  0.00000000000E+00 0.  1.
          1   -1    0    0  501    0  0.00000000000E+00 -0.00000000000E+00 -0.12984067778E+02  0.12984067778E+02  0.00000000000E+00 0. -1.
         23    2    1    2    0    0  0.00000000000E+00  0.00000000000E+00  0.14286595124E+03  0.16883408679E+03  0.89968154589E+02 0.  0.
        -13    1    3    3    0    0 -0.15723405130E+01 -0.44843104294E+02  0.65442259880E+02  0.79347751295E+02  0.00000000000E+00 0. -1.
         13    1    3    3    0    0  0.15723405130E+01  0.44843104294E+02  0.77423691357E+02  0.89486335498E+02  0.00000000000E+00 0.  1.
<mgrwt>
<rscale>  0 0.89968155E+02</rscale>
<asrwt>0</asrwt>
<pdfrwt beam="2">  1        1 0.19975490E-02 0.89968155E+02</pdfrwt>
<pdfrwt beam="1">  1       -1 0.23976925E-01 0.89968155E+02</pdfrwt>
<totfact> 0.76724092E+04</totfact>
</mgrwt>
</event>
<event>
 5    1  0.6079230E+000  0.9163095E+02  0.7546771E-02  0.1298949E+00
         -1   -1    0    0    0  501 -0.00000000000E+00  0.00000000000E+00  0.90280163882E+01  0.90280163882E+01  0.00000000000E+00 0.  1.
          1   -1    0    0  501    0  0.00000000000E+00 -0.00000000000E+00 -0.23250487071E+03  0.23250487071E+03  0.00000000000E+00 0. -1.
         23    2    1    2    0    0  0.00000000000E+00  0.00000000000E+00 -0.22347685432E+03  0.24153288710E+03  0.91630950734E+02 0.  0.
        -13    1    3    3    0    0 -0.55267557528E+01  0.44695761439E+02 -0.89558719877E+02  0.10024480249E+03  0.00000000000E+00 0.  1.
         13    1    3    3    0    0  0.55267557528E+01 -0.44695761439E+02 -0.13391813445E+03  0.14128808461E+03  0.00000000000E+00 0. -1.
<mgrwt>
<rscale>  0 0.91630951E+02</rscale>
<asrwt>0</asrwt>
<pdfrwt beam="2">  1        1 0.35769981E-01 0.91630951E+02</pdfrwt>
<pdfrwt beam="1">  1       -1 0.13889256E-02 0.91630951E+02</pdfrwt>
<totfact> 0.12032138E+05</totfact>
</mgrwt>
</event>
<event>
 5    1  0.6079230E+000  0.8832165E+02  0.7546771E-02  0.1306968E+00
          2   -1    0    0  501    0  0.00000000000E+00  0.00000000000E+00  0.84776565984E+02  0.84776565984E+02  0.00000000000E+00 0.  1.
         -2   -1    0    0    0  501 -0.00000000000E+00 -0.00000000000E+00 -0.23003744307E+02  0.23003744307E+02  0.00000000000E+00 0. -1.
         23    2    1    2    0    0  0.00000000000E+00  0.00000000000E+00  0.61772821677E+02  0.10778031029E+03  0.88321649603E+02 0.  0.
        -13    1    3    3    0    0 -0.34748792921E+02  0.24282776379E+02  0.15789638238E+02  0.45237644875E+02  0.00000000000E+00 0.  1.
         13    1    3    3    0    0  0.34748792921E+02 -0.24282776379E+02  0.45983183439E+02  0.62542665416E+02  0.00000000000E+00 0. -1.
<mgrwt>
<rscale>  0 0.88321650E+02</rscale>
<asrwt>0</asrwt>
<pdfrwt beam="1">  1        2 0.13042548E-01 0.88321650E+02</pdfrwt>
<pdfrwt beam="2">  1       -2 0.35390376E-02 0.88321650E+02</pdfrwt>
<totfact> 0.12752355E+05</totfact>
</mgrwt>
</event>
<event>
 5    1  0.6079230E+000  0.9215377E+02  0.7546771E-02  0.1297718E+00
          3   -1    0    0  501    0  0.00000000000E+00  0.00000000000E+00  0.33186807417E+03  0.33186807417E+03  0.00000000000E+00 0. -1.
         -3   -1    0    0    0  501 -0.00000000000E+00 -0.00000000000E+00 -0.63973590741E+01  0.63973590741E+01  0.00000000000E+00 0.  1.
         23    2    1    2    0    0  0.00000000000E+00  0.00000000000E+00  0.32547071510E+03  0.33826543325E+03  0.92153767925E+02 0.  0.
        -13    1    3    3    0    0 -0.40038524216E+01 -0.45890543224E+02  0.16659644160E+03  0.17284775713E+03  0.00000000000E+00 0. -1.
         13    1    3    3    0    0  0.40038524216E+01  0.45890543224E+02  0.15887427350E+03  0.16541767611E+03  0.00000000000E+00 0.  1.
<mgrwt>
<rscale>  0 0.92153768E+02</rscale>
<asrwt>0</asrwt>
<pdfrwt beam="1">  1        3 0.51056613E-01 0.92153768E+02</pdfrwt>
<pdfrwt beam="2">  1       -3 0.98420935E-03 0.92153768E+02</pdfrwt>
<totfact> 0.21984284E+04</totfact>
</mgrwt>
</event>
<event>
 5    1  0.6079230E+000  0.8869571E+02  0.7546771E-02  0.1306041E+00
          3   -1    0    0  501    0  0.00000000000E+00  0.00000000000E+00  0.44614509006E+02  0.44614509006E+02  0.00000000000E+00 0. -1.
         -3   -1    0    0    0  501 -0.00000000000E+00 -0.00000000000E+00 -0.44082790661E+02  0.44082790661E+02  0.00000000000E+00 0.  1.
         23    2    1    2    0    0  0.00000000000E+00  0.00000000000E+00  0.53171834532E+00  0.88697299667E+02  0.88695705893E+02 0.  0.
        -13    1    3    3    0    0  0.17722472922E+02 -0.40616694995E+02  0.19776440516E+01  0.44358911560E+02  0.00000000000E+00 0. -1.
         13    1    3    3    0    0 -0.17722472922E+02  0.40616694995E+02 -0.14459257063E+01  0.44338388107E+02  0.00000000000E+00 0.  1.
<mgrwt>
<rscale>  0 0.88695706E+02</rscale>
<asrwt>0</asrwt>
<pdfrwt beam="1">  1        3 0.68637706E-02 0.88695706E+02</pdfrwt>
<pdfrwt beam="2">  1       -3 0.67819678E-02 0.88695706E+02</pdfrwt>
<totfact> 0.38296353E+04</totfact>
</mgrwt>
</event>
<event>
 5    1  0.6079230E+000  0.9192544E+02  0.7546771E-02  0.1298255E+00
          2   -1    0    0  501    0  0.00000000000E+00  0.00000000000E+00  0.15351404608E+03  0.15351404608E+03  0.00000000000E+00 0. -1.
         -2   -1    0    0    0  501 -0.00000000000E+00 -0.00000000000E+00 -0.13761422535E+02  0.13761422535E+02  0.00000000000E+00 0.  1.
         23    2    1    2    0    0  0.00000000000E+00  0.00000000000E+00  0.13975262355E+03  0.16727546862E+03  0.91925440507E+02 0.  0.
        -13    1    3    3    0    0  0.79181479433E+01 -0.37823146597E+02  0.24592651440E+02  0.45804868630E+02  0.00000000000E+00 0.  1.
         13    1    3    3    0    0 -0.79181479433E+01  0.37823146597E+02  0.11515997211E+03  0.12147059999E+03  0.00000000000E+00 0. -1.
<mgrwt>
<rscale>  0 0.91925441E+02</rscale>
<asrwt>0</asrwt>
<pdfrwt beam="1">  1        2 0.23617544E-01 0.91925441E+02</pdfrwt>
<pdfrwt beam="2">  1       -2 0.21171420E-02 0.91925441E+02</pdfrwt>
<totfact> 0.13782320E+05</totfact>
</mgrwt>
</event>
<event>
 5    1  0.6079230E+000  0.9220334E+02  0.7546771E-02  0.1297602E+00
          2   -1    0    0  501    0  0.00000000000E+00  0.00000000000E+00  0.16207202793E+02  0.16207202793E+02  0.00000000000E+00 0. -1.
         -2   -1    0    0    0  501 -0.00000000000E+00 -0.00000000000E+00 -0.13113701503E+03  0.13113701503E+03  0.00000000000E+00 0.  1.
         23    2    1    2    0    0  0.00000000000E+00  0.00000000000E+00 -0.11492981224E+03  0.14734421783E+03  0.92203344762E+02 0.  0.
        -13    1    3    3    0    0 -0.64256388232E+01  0.40877749430E+02 -0.24985646907E+02  0.48337995243E+02  0.00000000000E+00 0. -1.
         13    1    3    3    0    0  0.64256388232E+01 -0.40877749430E+02 -0.89944165335E+02  0.99006222585E+02  0.00000000000E+00 0.  1.
<mgrwt>
<rscale>  0 0.92203345E+02</rscale>
<asrwt>0</asrwt>
<pdfrwt beam="1">  1        2 0.24934157E-02 0.92203345E+02</pdfrwt>
<pdfrwt beam="2">  1       -2 0.20174926E-01 0.92203345E+02</pdfrwt>
<totfact> 0.71193679E+04</totfact>
</mgrwt>
</event>
<event>
 5    1  0.6079230E+000  0.9099488E+02  0.7546771E-02  0.1300460E+00
          1   -1    0    0  501    0  0.00000000000E+00  0.00000000000E+00  0.77663800374E+02  0.77663800374E+02  0.00000000000E+00 0. -1.
         -1   -1    0    0    0  501 -0.00000000000E+00 -0.00000000000E+00 -0.26653565561E+02  0.26653565561E+02  0.00000000000E+00 0.  1.
         23    2    1    2    0    0  0.00000000000E+00  0.00000000000E+00  0.51010234814E+02  0.10431736593E+03  0.90994883262E+02 0.  0.
        -13    1    3    3    0    0 -0.31492961955E+02 -0.18111806001E+02  0.56904446032E+02  0.67512666571E+02  0.00000000000E+00 0. -1.
         13    1    3    3    0    0  0.31492961955E+02  0.18111806001E+02 -0.58942112187E+01  0.36804699363E+02  0.00000000000E+00 0.  1.
<mgrwt>
<rscale>  0 0.90994883E+02</rscale>
<asrwt>0</asrwt>
<pdfrwt beam="1">  1        1 0.11948277E-01 0.90994883E+02</pdfrwt>
<pdfrwt beam="2">  1       -1 0.41005486E-02 0.90994883E+02</pdfrwt>
<totfact> 0.10082750E+05</totfact>
</mgrwt>
</event>
<event>
 5    1  0.6079230E+000  0.8360932E+02  0.7546771E-02  0.1319110E+00
         -1   -1    0    0    0  501 -0.00000000000E+00  0.00000000000E+00  0.25343829160E+02  0.25343829160E+02  0.00000000000E+00 0.  1.
          1   -1    0    0  501    0  0.00000000000E+00 -0.00000000000E+00 -0.68956812099E+02  0.68956812099E+02  0.00000000000E+00 0. -1.
         23    2    1    2    0    0  0.00000000000E+00  0.00000000000E+00 -0.43612982939E+02  0.94300641259E+02  0.83609321615E+02 0.  0.
        -13    1    3    3    0    0 -0.30457649047E+02 -0.16209208667E+02  0.48175756062E+01  0.34836989907E+02  0.00000000000E+00 0.  1.
         13    1    3    3    0    0  0.30457649047E+02  0.16209208667E+02 -0.48430558546E+02  0.59463651352E+02  0.00000000000E+00 0. -1.
<mgrwt>
<rscale>  0 0.83609322E+02</rscale>
<asrwt>0</asrwt>
<pdfrwt beam="2">  1        1 0.10608740E-01 0.83609322E+02</pdfrwt>
<pdfrwt beam="1">  1       -1 0.38990507E-02 0.83609322E+02</pdfrwt>
<totfact> 0.12481864E+05</totfact>
</mgrwt>
</event>
<event>
 5    1  0.6079230E+000  0.8250436E+02  0.7546771E-02  0.1322091E+00
          1   -1    0    0  501    0  0.00000000000E+00  0.00000000000E+00  0.65105645608E+01  0.65105645608E+01  0.00000000000E+00 0. -1.
         -1   -1    0    0    0  501 -0.00000000000E+00 -0.00000000000E+00 -0.26138169870E+03  0.26138169870E+03  0.00000000000E+00 0.  1.
         23    2    1    2    0    0  0.00000000000E+00  0.00000000000E+00 -0.25487113414E+03  0.26789226326E+03  0.82504361688E+02 0.  0.
        -13    1    3    3    0    0  0.34506473372E+02 -0.12417897642E+01 -0.20072762639E+03  0.20367576867E+03  0.00000000000E+00 0.  1.
         13    1    3    3    0    0 -0.34506473372E+02  0.12417897642E+01 -0.54143507749E+02  0.64216494592E+02  0.00000000000E+00 0. -1.
<mgrwt>
<rscale>  0 0.82504362E+02</rscale>
<asrwt>0</asrwt>
<pdfrwt beam="1">  1        1 0.10016256E-02 0.82504362E+02</pdfrwt>
<pdfrwt beam="2">  1       -1 0.40212559E-01 0.82504362E+02</pdfrwt>
<totfact> 0.82722136E+04</totfact>
</mgrwt>
</event>
<event>
 5    1  0.6079230E+000  0.8990430E+02  0.7546771E-02  0.1303084E+00
         -1   -1    0    0    0  501 -0.00000000000E+00  0.00000000000E+00  0.64261168671E+02  0.64261168671E+02  0.00000000000E+00 0.  1.
          1   -1    0    0  501    0  0.00000000000E+00 -0.00000000000E+00 -0.31445049745E+02  0.31445049745E+02  0.00000000000E+00 0. -1.
         23    2    1    2    0    0  0.00000000000E+00  0.00000000000E+00  0.32816118926E+02  0.95706218416E+02  0.89904296795E+02 0.  0.
        -13    1    3    3    0    0 -0.33878771250E+02 -0.19840133866E+02  0.39713671874E+02  0.55844227875E+02  0.00000000000E+00 0.  1.
         13    1    3    3    0    0  0.33878771250E+02  0.19840133866E+02 -0.68975529480E+01  0.39861990541E+02  0.00000000000E+00 0. -1.
<mgrwt>
<rscale>  0 0.89904297E+02</rscale>
<asrwt>0</asrwt>
<pdfrwt beam="2">  1        1 0.48377000E-02 0.89904297E+02</pdfrwt>
<pdfrwt beam="1">  1       -1 0.98863336E-02 0.89904297E+02</pdfrwt>
<totfact> 0.90918885E+04</totfact>
</mgrwt>
</event>
<event>
 5    1  0.6079230E+000  0.9472165E+02  0.7546771E-02  0.1291804E+00
          3   -1    0    0  501    0  0.00000000000E+00  0.00000000000E+00  0.18343612602E+02  0.18343612602E+02  0.00000000000E+00 0. -1.
         -3   -1    0    0    0  501 -0.00000000000E+00 -0.00000000000E+00 -0.12227948799E+03  0.12227948799E+03  0.00000000000E+00 0.  1.
         23    2    1    2    0    0  0.00000000000E+00  0.00000000000E+00 -0.10393587539E+03  0.14062310059E+03  0.94721646035E+02 0.  0.
        -13    1    3    3    0    0 -0.12437509507E+02  0.45504131734E+02 -0.58219098781E+02  0.74931843101E+02  0.00000000000E+00 0.  1.
         13    1    3    3    0    0  0.12437509507E+02 -0.45504131734E+02 -0.45716776610E+02  0.65691257494E+02  0.00000000000E+00 0. -1.
<mgrwt>
<rscale>  0 0.94721646E+02</rscale>
<asrwt>0</asrwt>
<pdfrwt beam="1">  1        3 0.28220942E-02 0.94721646E+02</pdfrwt>
<pdfrwt beam="2">  1       -3 0.18812229E-01 0.94721646E+02</pdfrwt>
<totfact> 0.28749158E+04</totfact>
</mgrwt>
</event>
<event>
 5    1  0.6079230E+000  0.9098559E+02  0.7546771E-02  0.1300482E+00
          1   -1    0    0  501    0  0.00000000000E+00  0.00000000000E+00  0.33290347841E+02  0.33290347841E+02  0.00000000000E+00 0. -1.
         -1   -1    0    0    0  501 -0.00000000000E+00 -0.00000000000E+00 -0.62168003235E+02  0.62168003235E+02  0.00000000000E+00 0.  1.
         23    2    1    2    0    0  0.00000000000E+00  0.00000000000E+00 -0.28877655394E+02  0.95458351076E+02  0.90985591217E+02 0.  0.
        -13    1    3    3    0    0  0.22903342341E+02 -0.79053758768E+01 -0.54835350908E+02  0.59949760361E+02  0.00000000000E+00 0.  1.
         13    1    3    3    0    0 -0.22903342341E+02  0.79053758768E+01  0.25957695514E+02  0.35508590715E+02  0.00000000000E+00 0. -1.
<mgrwt>
<rscale>  0 0.90985591E+02</rscale>
<asrwt>0</asrwt>
<pdfrwt beam="1">  1        1 0.51215920E-02 0.90985591E+02</pdfrwt>
<pdfrwt beam="2">  1       -1 0.95643081E-02 0.90985591E+02</pdfrwt>
<totfact> 0.88661466E+04</totfact>
</mgrwt>
</event>
<event>
 5    1  0.6079230E+000  0.8965807E+02  0.7546771E-02  0.1303682E+00
          1   -1    0    0  501    0  0.00000000000E+00  0.00000000000E+00  0.24178597119E+02  0.24178597119E+02  0.00000000000E+00 0. -1.
         -1   -1    0    0    0  501 -0.00000000000E+00 -0.00000000000E+00 -0.83116590458E+02  0.83116590458E+02  0.00000000000E+00 0.  1.
         23    2    1    2    0    0  0.00000000000E+00  0.00000000000E+00 -0.58937993339E+02  0.10729518758E+03  0.89658073917E+02 0.  0.
        -13    1    3    3    0    0  0.23656607217E+02 -0.36738300320E+02 -0.41454372353E+02  0.60231244073E+02  0.00000000000E+00 0.  1.
         13    1    3    3    0    0 -0.23656607217E+02  0.36738300320E+02 -0.17483620986E+02  0.47063943504E+02  0.00000000000E+00 0. -1.
<mgrwt>
<rscale>  0 0.89658074E+02</rscale>
<asrwt>0</asrwt>
<pdfrwt beam="1">  1        1 0.37197842E-02 0.89658074E+02</pdfrwt>
<pdfrwt beam="2">  1       -1 0.12787168E-01 0.89658074E+02</pdfrwt>
<totfact> 0.87796864E+04</totfact>
</mgrwt>
</event>
<event>
 5    1  0.6079230E+000  0.9220834E+02  0.7546771E-02  0.1297590E+00
          2   -1    0    0  501    0  0.00000000000E+00  0.00000000000E+00  0.35904186117E+02  0.35904186117E+02  0.00000000000E+00 0.  1.
         -2   -1    0    0    0  501 -0.00000000000E+00 -0.00000000000E+00 -0.59201855292E+02  0.59201855292E+02  0.00000000000E+00 0. -1.
         23    2    1    2    0    0  0.00000000000E+00  0.00000000000E+00 -0.23297669175E+02  0.95106041409E+02  0.92208338687E+02 0.  0.
        -13    1    3    3    0    0  0.20375351187E+02  0.24796832029E+02 -0.45788190321E+02  0.55915974350E+02  0.00000000000E+00 0. -1.
         13    1    3    3    0    0 -0.20375351187E+02 -0.24796832029E+02  0.22490521146E+02  0.39190067059E+02  0.00000000000E+00 0.  1.
<mgrwt>
<rscale>  0 0.92208339E+02</rscale>
<asrwt>0</asrwt>
<pdfrwt beam="1">  1        2 0.55237210E-02 0.92208339E+02</pdfrwt>
<pdfrwt beam="2">  1       -2 0.91079777E-02 0.92208339E+02</pdfrwt>
<totfact> 0.89746911E+04</totfact>
</mgrwt>
</event>
<event>
 5    1  0.6079230E+000  0.9169625E+02  0.7546771E-02  0.1298795E+00
         -1   -1    0    0    0  501 -0.00000000000E+00  0.00000000000E+00  0.79652840774E+01  0.79652840774E+01  0.00000000000E+00 0.  1.
          1   -1    0    0  501    0  0.00000000000E+00 -0.00000000000E+00 -0.26390150589E+03  0.26390150589E+03  0.00000000000E+00 0. -1.
         23    2    1    2    0    0  0.00000000000E+00  0.00000000000E+00 -0.25593622181E+03  0.27186678997E+03  0.91696247750E+02 0.  0.
        -13    1    3    3    0    0 -0.32991290108E+02  0.29390685780E+02 -0.16425745325E+03  0.17009629208E+03  0.00000000000E+00 0.  1.
         13    1    3    3    0    0  0.32991290108E+02 -0.29390685780E+02 -0.91678768564E+02  0.10177049788E+03  0.00000000000E+00 0. -1.
<mgrwt>
<rscale>  0 0.91696248E+02</rscale>
<asrwt>0</asrwt>
<pdfrwt beam="2">  1        1 0.40600229E-01 0.91696248E+02</pdfrwt>
<pdfrwt beam="1">  1       -1 0.12254284E-02 0.91696248E+02</pdfrwt>
<totfact> 0.12310082E+05</totfact>
</mgrwt>
</event>
<event>
 5    1  0.6079230E+000  0.9117353E+02  0.7546771E-02  0.1300034E+00
         -3   -1    0    0    0  501 -0.00000000000E+00  0.00000000000E+00  0.18069307144E+03  0.18069307144E+03  0.00000000000E+00 0.  1.
          3   -1    0    0  501    0  0.00000000000E+00 -0.00000000000E+00 -0.11501012372E+02  0.11501012372E+02  0.00000000000E+00 0. -1.
         23    2    1    2    0    0  0.00000000000E+00  0.00000000000E+00  0.16919205907E+03  0.19219408381E+03  0.91173532347E+02 0.  0.
        -13    1    3    3    0    0  0.29551264428E+02 -0.27746869256E+02  0.12856127541E+03  0.13480047299E+03  0.00000000000E+00 0.  1.
         13    1    3    3    0    0 -0.29551264428E+02  0.27746869256E+02  0.40630783658E+02  0.57393610824E+02  0.00000000000E+00 0. -1.
<mgrwt>
<rscale>  0 0.91173532E+02</rscale>
<asrwt>0</asrwt>
<pdfrwt beam="2">  1        3 0.17693867E-02 0.91173532E+02</pdfrwt>
<pdfrwt beam="1">  1       -3 0.27798932E-01 0.91173532E+02</pdfrwt>
<totfact> 0.28909255E+04</totfact>
</mgrwt>
</event>
<event>
 5    1  0.6079230E+000  0.8824502E+02  0.7546771E-02  0.1307158E+00
         -1   -1    0    0    0  501 -0.00000000000E+00  0.00000000000E+00  0.38784590721E+02  0.38784590721E+02  0.00000000000E+00 0. -1.
          1   -1    0    0  501    0  0.00000000000E+00 -0.00000000000E+00 -0.50195089251E+02  0.50195089251E+02  0.00000000000E+00 0.  1.
         23    2    1    2    0    0  0.00000000000E+00  0.00000000000E+00 -0.11410498531E+02  0.88979679972E+02  0.88245022359E+02 0.  0.
        -13    1    3    3    0    0  0.12911258393E+02 -0.19722605897E+02 -0.43313403246E+02  0.49312601608E+02  0.00000000000E+00 0.  1.
         13    1    3    3    0    0 -0.12911258393E+02  0.19722605897E+02  0.31902904715E+02  0.39667078364E+02  0.00000000000E+00 0. -1.
<mgrwt>
<rscale>  0 0.88245022E+02</rscale>
<asrwt>0</asrwt>
<pdfrwt beam="2">  1        1 0.77223214E-02 0.88245022E+02</pdfrwt>
<pdfrwt beam="1">  1       -1 0.59668602E-02 0.88245022E+02</pdfrwt>
<totfact> 0.10275909E+05</totfact>
</mgrwt>
</event>
<event>
 5    1  0.6079230E+000  0.7845466E+02  0.7546771E-02  0.1333495E+00
         -2   -1    0    0    0  501 -0.00000000000E+00  0.00000000000E+00  0.30800563328E+02  0.30800563328E+02  0.00000000000E+00 0.  1.
          2   -1    0    0  501    0  0.00000000000E+00 -0.00000000000E+00 -0.49959587395E+02  0.49959587395E+02  0.00000000000E+00 0. -1.
         23    2    1    2    0    0  0.00000000000E+00  0.00000000000E+00 -0.19159024067E+02  0.80760150723E+02  0.78454660420E+02 0.  0.
        -13    1    3    3    0    0 -0.15688366721E+02 -0.94778974313E+01  0.26121468697E+02  0.31910601953E+02  0.00000000000E+00 0.  1.
         13    1    3    3    0    0  0.15688366721E+02  0.94778974313E+01 -0.45280492764E+02  0.48849548770E+02  0.00000000000E+00 0. -1.
<mgrwt>
<rscale>  0 0.78454660E+02</rscale>
<asrwt>0</asrwt>
<pdfrwt beam="2">  1        2 0.76860903E-02 0.78454660E+02</pdfrwt>
<pdfrwt beam="1">  1       -2 0.47385482E-02 0.78454660E+02</pdfrwt>
<totfact> 0.15416218E+05</totfact>
</mgrwt>
</event>
<event>
 5    1  0.6079230E+000  0.8932342E+02  0.7546771E-02  0.1304498E+00
         -2   -1    0    0    0  501 -0.00000000000E+00  0.00000000000E+00  0.12447619817E+02  0.12447619817E+02  0.00000000000E+00 0.  1.
          2   -1    0    0  501    0  0.00000000000E+00 -0.00000000000E+00 -0.16024496524E+03  0.16024496524E+03  0.00000000000E+00 0. -1.
         23    2    1    2    0    0  0.00000000000E+00  0.00000000000E+00 -0.14779734542E+03  0.17269258505E+03  0.89323421450E+02 0.  0.
        -13    1    3    3    0    0 -0.16328823092E+02  0.23112281231E+02 -0.70973420335E+01  0.29174993937E+02  0.00000000000E+00 0.  1.
         13    1    3    3    0    0  0.16328823092E+02 -0.23112281231E+02 -0.14070000339E+03  0.14351759112E+03  0.00000000000E+00 0. -1.
<mgrwt>
<rscale>  0 0.89323421E+02</rscale>
<asrwt>0</asrwt>
<pdfrwt beam="2">  1        2 0.24653071E-01 0.89323421E+02</pdfrwt>
<pdfrwt beam="1">  1       -2 0.19150184E-02 0.89323421E+02</pdfrwt>
<totfact> 0.15117553E+05</totfact>
</mgrwt>
</event>
<event>
 5    1  0.6079230E+000  0.8942365E+02  0.7546771E-02  0.1304253E+00
         -2   -1    0    0    0  501 -0.00000000000E+00  0.00000000000E+00  0.11188436452E+02  0.11188436452E+02  0.00000000000E+00 0.  1.
          2   -1    0    0  501    0  0.00000000000E+00 -0.00000000000E+00 -0.17867979294E+03  0.17867979294E+03  0.00000000000E+00 0. -1.
         23    2    1    2    0    0  0.00000000000E+00  0.00000000000E+00 -0.16749135649E+03  0.18986822939E+03  0.89423654781E+02 0.  0.
        -13    1    3    3    0    0 -0.10928398947E+00  0.33970938938E+02 -0.22021299216E+02  0.40484246991E+02  0.00000000000E+00 0.  1.
         13    1    3    3    0    0  0.10928398947E+00 -0.33970938938E+02 -0.14547005727E+03  0.14938398240E+03  0.00000000000E+00 0. -1.
<mgrwt>
<rscale>  0 0.89423655E+02</rscale>
<asrwt>0</asrwt>
<pdfrwt beam="2">  1        2 0.27489199E-01 0.89423655E+02</pdfrwt>
<pdfrwt beam="1">  1       -2 0.17212979E-02 0.89423655E+02</pdfrwt>
<totfact> 0.15653897E+05</totfact>
</mgrwt>
</event>
<event>
 5    1  0.6079230E+000  0.8874853E+02  0.7546771E-02  0.1305911E+00
          2   -1    0    0  501    0  0.00000000000E+00  0.00000000000E+00  0.37111194553E+03  0.37111194553E+03  0.00000000000E+00 0.  1.
         -2   -1    0    0    0  501 -0.00000000000E+00 -0.00000000000E+00 -0.53058793088E+01  0.53058793088E+01  0.00000000000E+00 0. -1.
         23    2    1    2    0    0  0.00000000000E+00  0.00000000000E+00  0.36580606622E+03  0.37641782484E+03  0.88748525464E+02 0.  0.
        -13    1    3    3    0    0 -0.41183090899E+02 -0.14252352644E+02  0.21836341947E+03  0.22266961961E+03  0.00000000000E+00 0. -1.
         13    1    3    3    0    0  0.41183090899E+02  0.14252352644E+02  0.14744264675E+03  0.15374820523E+03  0.00000000000E+00 0.  1.
<mgrwt>
<rscale>  0 0.88748525E+02</rscale>
<asrwt>0</asrwt>
<pdfrwt beam="1">  1        2 0.57094125E-01 0.88748525E+02</pdfrwt>
<pdfrwt beam="2">  1       -2 0.81628942E-03 0.88748525E+02</pdfrwt>
<totfact> 0.20872013E+05</totfact>
</mgrwt>
</event>
<event>
 5    1  0.6079230E+000  0.8919595E+02  0.7546771E-02  0.1304811E+00
         -1   -1    0    0    0  501 -0.00000000000E+00  0.00000000000E+00  0.12607779187E+02  0.12607779187E+02  0.00000000000E+00 0.  1.
          1   -1    0    0  501    0  0.00000000000E+00 -0.00000000000E+00 -0.15775810737E+03  0.15775810737E+03  0.00000000000E+00 0. -1.
         23    2    1    2    0    0  0.00000000000E+00  0.00000000000E+00 -0.14515032819E+03  0.17036588656E+03  0.89195950193E+02 0.  0.
        -13    1    3    3    0    0  0.39223193957E+02 -0.19030928198E+02 -0.54622597431E+02  0.69887504766E+02  0.00000000000E+00 0.  1.
         13    1    3    3    0    0 -0.39223193957E+02  0.19030928198E+02 -0.90527730756E+02  0.10047838179E+03  0.00000000000E+00 0. -1.
<mgrwt>
<rscale>  0 0.89195950E+02</rscale>
<asrwt>0</asrwt>
<pdfrwt beam="2">  1        1 0.24270477E-01 0.89195950E+02</pdfrwt>
<pdfrwt beam="1">  1       -1 0.19396584E-02 0.89195950E+02</pdfrwt>
<totfact> 0.12006963E+05</totfact>
</mgrwt>
</event>
<event>
 5    1  0.6079230E+000  0.9017671E+02  0.7546771E-02  0.1302424E+00
         -2   -1    0    0    0  501 -0.00000000000E+00  0.00000000000E+00  0.12900327172E+02  0.12900327172E+02  0.00000000000E+00 0.  1.
          2   -1    0    0  501    0  0.00000000000E+00 -0.00000000000E+00 -0.15758979881E+03  0.15758979881E+03  0.00000000000E+00 0. -1.
         23    2    1    2    0    0  0.00000000000E+00  0.00000000000E+00 -0.14468947163E+03  0.17049012598E+03  0.90176714589E+02 0.  0.
        -13    1    3    3    0    0  0.36364965810E+02 -0.90156022169E+00 -0.21976891137E+02  0.42499497565E+02  0.00000000000E+00 0.  1.
         13    1    3    3    0    0 -0.36364965810E+02  0.90156022169E+00 -0.12271258050E+03  0.12799062841E+03  0.00000000000E+00 0. -1.
<mgrwt>
<rscale>  0 0.90176715E+02</rscale>
<asrwt>0</asrwt>
<pdfrwt beam="2">  1        2 0.24244585E-01 0.90176715E+02</pdfrwt>
<pdfrwt beam="1">  1       -2 0.19846656E-02 0.90176715E+02</pdfrwt>
<totfact> 0.14649923E+05</totfact>
</mgrwt>
</event>
<event>
 5    1  0.6079230E+000  0.9358205E+02  0.7546771E-02  0.1294402E+00
          3   -1    0    0  501    0  0.00000000000E+00  0.00000000000E+00  0.12456027647E+02  0.12456027647E+02  0.00000000000E+00 0. -1.
         -3   -1    0    0    0  501 -0.00000000000E+00 -0.00000000000E+00 -0.17577034169E+03  0.17577034169E+03  0.00000000000E+00 0.  1.
         23    2    1    2    0    0  0.00000000000E+00  0.00000000000E+00 -0.16331431405E+03  0.18822636934E+03  0.93582054597E+02 0.  0.
        -13    1    3    3    0    0 -0.14985258860E+02  0.42528194148E+02 -0.10679461692E+03  0.11592366231E+03  0.00000000000E+00 0.  1.
         13    1    3    3    0    0  0.14985258860E+02 -0.42528194148E+02 -0.56519697130E+02  0.72302707033E+02  0.00000000000E+00 0. -1.
<mgrwt>
<rscale>  0 0.93582055E+02</rscale>
<asrwt>0</asrwt>
<pdfrwt beam="1">  1        3 0.19163123E-02 0.93582055E+02</pdfrwt>
<pdfrwt beam="2">  1       -3 0.27041586E-01 0.93582055E+02</pdfrwt>
<totfact> 0.27135953E+04</totfact>
</mgrwt>
</event>
<event>
 5    1  0.6079230E+000  0.8934460E+02  0.7546771E-02  0.1304447E+00
         -1   -1    0    0    0  501 -0.00000000000E+00  0.00000000000E+00  0.89720146760E+02  0.89720146760E+02  0.00000000000E+00 0.  1.
          1   -1    0    0  501    0  0.00000000000E+00 -0.00000000000E+00 -0.22242655435E+02  0.22242655435E+02  0.00000000000E+00 0. -1.
         23    2    1    2    0    0  0.00000000000E+00  0.00000000000E+00  0.67477491325E+02  0.11196280219E+03  0.89344598269E+02 0.  0.
        -13    1    3    3    0    0 -0.42597182879E+02  0.48147563413E+01  0.17991172528E+02  0.46490688926E+02  0.00000000000E+00 0.  1.
         13    1    3    3    0    0  0.42597182879E+02 -0.48147563413E+01  0.49486318796E+02  0.65472113269E+02  0.00000000000E+00 0. -1.
<mgrwt>
<rscale>  0 0.89344598E+02</rscale>
<asrwt>0</asrwt>
<pdfrwt beam="2">  1        1 0.34219470E-02 0.89344598E+02</pdfrwt>
<pdfrwt beam="1">  1       -1 0.13803099E-01 0.89344598E+02</pdfrwt>
<totfact> 0.87423783E+04</totfact>
</mgrwt>
</event>
<event>
 5    1  0.6079230E+000  0.9234560E+02  0.7546771E-02  0.1297269E+00
          1   -1    0    0  501    0  0.00000000000E+00  0.00000000000E+00  0.83403085835E+02  0.83403085835E+02  0.00000000000E+00 0. -1.
         -1   -1    0    0    0  501 -0.00000000000E+00 -0.00000000000E+00 -0.25561732127E+02  0.25561732127E+02  0.00000000000E+00 0.  1.
         23    2    1    2    0    0  0.00000000000E+00  0.00000000000E+00  0.57841353707E+02  0.10896481796E+03  0.92345597377E+02 0.  0.
        -13    1    3    3    0    0 -0.81847039495E+00 -0.43515024036E+02  0.47112859619E+02  0.64139291796E+02  0.00000000000E+00 0. -1.
         13    1    3    3    0    0  0.81847039495E+00  0.43515024036E+02  0.10728494089E+02  0.44825526166E+02  0.00000000000E+00 0.  1.
<mgrwt>
<rscale>  0 0.92345597E+02</rscale>
<asrwt>0</asrwt>
<pdfrwt beam="1">  1        1 0.12831244E-01 0.92345597E+02</pdfrwt>
<pdfrwt beam="2">  1       -1 0.39325742E-02 0.92345597E+02</pdfrwt>
<totfact> 0.97925907E+04</totfact>
</mgrwt>
</event>
<event>
 5    1  0.6079230E+000  0.9335168E+02  0.7546771E-02  0.1294932E+00
          2   -1    0    0  501    0  0.00000000000E+00  0.00000000000E+00  0.93405636522E+02  0.93405636522E+02  0.00000000000E+00 0. -1.
         -2   -1    0    0    0  501 -0.00000000000E+00 -0.00000000000E+00 -0.23324436683E+02  0.23324436683E+02  0.00000000000E+00 0.  1.
         23    2    1    2    0    0  0.00000000000E+00  0.00000000000E+00  0.70081199839E+02  0.11673007320E+03  0.93351676040E+02 0.  0.
        -13    1    3    3    0    0 -0.10192984802E+02 -0.23524265298E+02 -0.13731855045E+02  0.29083532110E+02  0.00000000000E+00 0.  1.
         13    1    3    3    0    0  0.10192984802E+02  0.23524265298E+02  0.83813054884E+02  0.87646541095E+02  0.00000000000E+00 0. -1.
<mgrwt>
<rscale>  0 0.93351676E+02</rscale>
<asrwt>0</asrwt>
<pdfrwt beam="1">  1        2 0.14370098E-01 0.93351676E+02</pdfrwt>
<pdfrwt beam="2">  1       -2 0.35883749E-02 0.93351676E+02</pdfrwt>
<totfact> 0.11258669E+05</totfact>
</mgrwt>
</event>
<event>
 5    1  0.6079230E+000  0.8995719E+02  0.7546771E-02  0.1302955E+00
          3   -1    0    0  501    0  0.00000000000E+00  0.00000000000E+00  0.23042076484E+02  0.23042076484E+02  0.00000000000E+00 0. -1.
         -3   -1    0    0    0  501 -0.00000000000E+00 -0.00000000000E+00 -0.87799128051E+02  0.87799128051E+02  0.00000000000E+00 0.  1.
         23    2    1    2    0    0  0.00000000000E+00  0.00000000000E+00 -0.64757051567E+02  0.11084120454E+03  0.89957194794E+02 0.  0.
        -13    1    3    3    0    0 -0.43637031564E+02  0.10719888003E+02 -0.29924185262E+02  0.53986696381E+02  0.00000000000E+00 0. -1.
         13    1    3    3    0    0  0.43637031564E+02 -0.10719888003E+02 -0.34832866305E+02  0.56854508154E+02  0.00000000000E+00 0.  1.
<mgrwt>
<rscale>  0 0.89957195E+02</rscale>
<asrwt>0</asrwt>
<pdfrwt beam="1">  1        3 0.35449349E-02 0.89957195E+02</pdfrwt>
<pdfrwt beam="2">  1       -3 0.13507558E-01 0.89957195E+02</pdfrwt>
<totfact> 0.35147196E+04</totfact>
</mgrwt>
</event>
<event>
 5    1  0.6079230E+000  0.8905078E+02  0.7546771E-02  0.1305167E+00
          1   -1    0    0  501    0  0.00000000000E+00  0.00000000000E+00  0.23394474825E+02  0.23394474825E+02  0.00000000000E+00 0. -1.
         -1   -1    0    0    0  501 -0.00000000000E+00 -0.00000000000E+00 -0.84742669131E+02  0.84742669131E+02  0.00000000000E+00 0.  1.
         23    2    1    2    0    0  0.00000000000E+00  0.00000000000E+00 -0.61348194306E+02  0.10813714396E+03  0.89050777416E+02 0.  0.
        -13    1    3    3    0    0 -0.24040529626E+02  0.19065512108E+02 -0.69855233320E+02  0.76296752479E+02  0.00000000000E+00 0.  1.
         13    1    3    3    0    0  0.24040529626E+02 -0.19065512108E+02  0.85070390136E+01  0.31840391477E+02  0.00000000000E+00 0. -1.
<mgrwt>
<rscale>  0 0.89050777E+02</rscale>
<asrwt>0</asrwt>
<pdfrwt beam="1">  1        1 0.35991500E-02 0.89050777E+02</pdfrwt>
<pdfrwt beam="2">  1       -1 0.13037334E-01 0.89050777E+02</pdfrwt>
<totfact> 0.89042371E+04</totfact>
</mgrwt>
</event>
<event>
 5    1  0.6079230E+000  0.9330883E+02  0.7546771E-02  0.1295031E+00
          1   -1    0    0  501    0  0.00000000000E+00  0.00000000000E+00  0.71851603856E+01  0.71851603856E+01  0.00000000000E+00 0. -1.
         -1   -1    0    0    0  501 -0.00000000000E+00 -0.00000000000E+00 -0.30293468506E+03  0.30293468506E+03  0.00000000000E+00 0.  1.
         23    2    1    2    0    0  0.00000000000E+00  0.00000000000E+00 -0.29574952468E+03  0.31011984545E+03  0.93308826989E+02 0.  0.
        -13    1    3    3    0    0  0.47850138304E+01  0.45120307776E+02 -0.18396219079E+03  0.18947513339E+03  0.00000000000E+00 0.  1.
         13    1    3    3    0    0 -0.47850138304E+01 -0.45120307776E+02 -0.11178733389E+03  0.12064471206E+03  0.00000000000E+00 0. -1.
<mgrwt>
<rscale>  0 0.93308827E+02</rscale>
<asrwt>0</asrwt>
<pdfrwt beam="1">  1        1 0.11054092E-02 0.93308827E+02</pdfrwt>
<pdfrwt beam="2">  1       -1 0.46605342E-01 0.93308827E+02</pdfrwt>
<totfact> 0.56808348E+04</totfact>
</mgrwt>
</event>
<event>
 5    1  0.6079230E+000  0.9207249E+02  0.7546771E-02  0.1297909E+00
          1   -1    0    0  501    0  0.00000000000E+00  0.00000000000E+00  0.11981914892E+03  0.11981914892E+03  0.00000000000E+00 0. -1.
         -1   -1    0    0    0  501 -0.00000000000E+00 -0.00000000000E+00 -0.17687788527E+02  0.17687788527E+02  0.00000000000E+00 0.  1.
         23    2    1    2    0    0  0.00000000000E+00  0.00000000000E+00  0.10213136039E+03  0.13750693745E+03  0.92072488130E+02 0.  0.
        -13    1    3    3    0    0  0.17985757173E+02 -0.84769827203E+01  0.11307571630E+03  0.11481055837E+03  0.00000000000E+00 0. -1.
         13    1    3    3    0    0 -0.17985757173E+02  0.84769827203E+01 -0.10944355903E+02  0.22696379078E+02  0.00000000000E+00 0.  1.
<mgrwt>
<rscale>  0 0.92072488E+02</rscale>
<asrwt>0</asrwt>
<pdfrwt beam="1">  1        1 0.18433715E-01 0.92072488E+02</pdfrwt>
<pdfrwt beam="2">  1       -1 0.27211983E-02 0.92072488E+02</pdfrwt>
<totfact> 0.10488817E+05</totfact>
</mgrwt>
</event>
<event>
 5    1  0.6079230E+000  0.9323892E+02  0.7546771E-02  0.1295192E+00
         -2   -1    0    0    0  501 -0.00000000000E+00  0.00000000000E+00  0.24863374885E+02  0.24863374885E+02  0.00000000000E+00 0.  1.
          2   -1    0    0  501    0  0.00000000000E+00 -0.00000000000E+00 -0.87412666045E+02  0.87412666045E+02  0.00000000000E+00 0. -1.
         23    2    1    2    0    0  0.00000000000E+00  0.00000000000E+00 -0.62549291159E+02  0.11227604093E+03  0.93238916458E+02 0.  0.
        -13    1    3    3    0    0  0.21933928754E+02  0.23498660666E+02  0.93846045389E+01  0.33486640411E+02  0.00000000000E+00 0.  1.
         13    1    3    3    0    0 -0.21933928754E+02 -0.23498660666E+02 -0.71933895698E+02  0.78789400518E+02  0.00000000000E+00 0. -1.
<mgrwt>
<rscale>  0 0.93238916E+02</rscale>
<asrwt>0</asrwt>
<pdfrwt beam="2">  1        2 0.13448102E-01 0.93238916E+02</pdfrwt>
<pdfrwt beam="1">  1       -2 0.38251347E-02 0.93238916E+02</pdfrwt>
<totfact> 0.11074913E+05</totfact>
</mgrwt>
</event>
<event>
 5    1  0.6079230E+000  0.9161206E+02  0.7546771E-02  0.1298994E+00
         -2   -1    0    0    0  501 -0.00000000000E+00  0.00000000000E+00  0.54590460105E+01  0.54590460105E+01  0.00000000000E+00 0.  1.
          2   -1    0    0  501    0  0.00000000000E+00 -0.00000000000E+00 -0.38435151577E+03  0.38435151577E+03  0.00000000000E+00 0. -1.
         23    2    1    2    0    0  0.00000000000E+00  0.00000000000E+00 -0.37889246975E+03  0.38981056178E+03  0.91612064899E+02 0.  0.
        -13    1    3    3    0    0 -0.26657293004E+01  0.45318865854E+02 -0.21542862101E+03  0.22015993383E+03  0.00000000000E+00 0.  1.
         13    1    3    3    0    0  0.26657293004E+01 -0.45318865854E+02 -0.16346384874E+03  0.16965062794E+03  0.00000000000E+00 0. -1.
<mgrwt>
<rscale>  0 0.91612065E+02</rscale>
<asrwt>0</asrwt>
<pdfrwt beam="2">  1        2 0.59131003E-01 0.91612065E+02</pdfrwt>
<pdfrwt beam="1">  1       -2 0.83985322E-03 0.91612065E+02</pdfrwt>
<totfact> 0.19430612E+05</totfact>
</mgrwt>
</event>
<event>
 5    1  0.6079230E+000  0.9023233E+02  0.7546771E-02  0.1302290E+00
         -2   -1    0    0    0  501 -0.00000000000E+00  0.00000000000E+00  0.12240704945E+02  0.12240704945E+02  0.00000000000E+00 0.  1.
          2   -1    0    0  501    0  0.00000000000E+00 -0.00000000000E+00 -0.16628685191E+03  0.16628685191E+03  0.00000000000E+00 0. -1.
         23    2    1    2    0    0  0.00000000000E+00  0.00000000000E+00 -0.15404614697E+03  0.17852755686E+03  0.90232328806E+02 0.  0.
        -13    1    3    3    0    0  0.30098368360E+02 -0.32972853672E+02 -0.64147794697E+02  0.78154081286E+02  0.00000000000E+00 0.  1.
         13    1    3    3    0    0 -0.30098368360E+02  0.32972853672E+02 -0.89898352270E+02  0.10037347557E+03  0.00000000000E+00 0. -1.
<mgrwt>
<rscale>  0 0.90232329E+02</rscale>
<asrwt>0</asrwt>
<pdfrwt beam="2">  1        2 0.25582591E-01 0.90232329E+02</pdfrwt>
<pdfrwt beam="1">  1       -2 0.18831855E-02 0.90232329E+02</pdfrwt>
<totfact> 0.14899233E+05</totfact>
</mgrwt>
</event>
<event>
 5    1  0.6079230E+000  0.9134366E+02  0.7546771E-02  0.1299630E+00
          4   -1    0    0  501    0  0.00000000000E+00  0.00000000000E+00  0.44440403409E+02  0.44440403409E+02  0.00000000000E+00 0. -1.
         -4   -1    0    0    0  501 -0.00000000000E+00 -0.00000000000E+00 -0.46937375647E+02  0.46937375647E+02  0.00000000000E+00 0.  1.
         23    2    1    2    0    0  0.00000000000E+00  0.00000000000E+00 -0.24969722381E+01  0.91377779056E+02  0.91343656785E+02 0.  0.
        -13    1    3    3    0    0  0.36671408748E+02 -0.12035403916E+02 -0.25676304510E+02  0.46356399561E+02  0.00000000000E+00 0.  1.
         13    1    3    3    0    0 -0.36671408748E+02  0.12035403916E+02  0.23179332272E+02  0.45021379494E+02  0.00000000000E+00 0. -1.
<mgrwt>
<rscale>  0 0.91343657E+02</rscale>
<asrwt>0</asrwt>
<pdfrwt beam="1">  1        4 0.68369852E-02 0.91343657E+02</pdfrwt>
<pdfrwt beam="2">  1       -4 0.72211347E-02 0.91343657E+02</pdfrwt>
<totfact> 0.26869300E+04</totfact>
</mgrwt>
</event>
<event>
 5    1  0.6079230E+000  0.9252163E+02  0.7546771E-02  0.1296858E+00
         -1   -1    0    0    0  501 -0.00000000000E+00  0.00000000000E+00  0.80454812803E+01  0.80454812803E+01  0.00000000000E+00 0.  1.
          1   -1    0    0  501    0  0.00000000000E+00 -0.00000000000E+00 -0.26599562776E+03  0.26599562776E+03  0.00000000000E+00 0. -1.
         23    2    1    2    0    0  0.00000000000E+00  0.00000000000E+00 -0.25795014648E+03  0.27404110904E+03  0.92521626527E+02 0.  0.
        -13    1    3    3    0    0 -0.29295746066E+02 -0.34537372609E+02 -0.10103368759E+03  0.11071981246E+03  0.00000000000E+00 0.  1.
         13    1    3    3    0    0  0.29295746066E+02  0.34537372609E+02 -0.15691645889E+03  0.16332129658E+03  0.00000000000E+00 0. -1.
<mgrwt>
<rscale>  0 0.92521627E+02</rscale>
<asrwt>0</asrwt>
<pdfrwt beam="2">  1        1 0.40922398E-01 0.92521627E+02</pdfrwt>
<pdfrwt beam="1">  1       -1 0.12377666E-02 0.92521627E+02</pdfrwt>
<totfact> 0.12037265E+05</totfact>
</mgrwt>
</event>
<event>
 5    1  0.6079230E+000  0.9295935E+02  0.7546771E-02  0.1295839E+00
         -1   -1    0    0    0  501 -0.00000000000E+00  0.00000000000E+00  0.60926872192E+02  0.60926872192E+02  0.00000000000E+00 0.  1.
          1   -1    0    0  501    0  0.00000000000E+00 -0.00000000000E+00 -0.35458247302E+02  0.35458247302E+02  0.00000000000E+00 0. -1.
         23    2    1    2    0    0  0.00000000000E+00  0.00000000000E+00  0.25468624890E+02  0.96385119494E+02  0.92959348137E+02 0.  0.
        -13    1    3    3    0    0 -0.42748859674E+02 -0.14165327214E+02  0.81102410093E+00  0.45041972188E+02  0.00000000000E+00 0.  1.
         13    1    3    3    0    0  0.42748859674E+02  0.14165327214E+02  0.24657600789E+02  0.51343147305E+02  0.00000000000E+00 0. -1.
<mgrwt>
<rscale>  0 0.92959348E+02</rscale>
<asrwt>0</asrwt>
<pdfrwt beam="2">  1        1 0.54551150E-02 0.92959348E+02</pdfrwt>
<pdfrwt beam="1">  1       -1 0.93733650E-02 0.92959348E+02</pdfrwt>
<totfact> 0.84223972E+04</totfact>
</mgrwt>
</event>
<event>
 5    1  0.6079230E+000  0.9204570E+02  0.7546771E-02  0.1297972E+00
          2   -1    0    0  501    0  0.00000000000E+00  0.00000000000E+00  0.10941110434E+02  0.10941110434E+02  0.00000000000E+00 0. -1.
         -2   -1    0    0    0  501 -0.00000000000E+00 -0.00000000000E+00 -0.19359121097E+03  0.19359121097E+03  0.00000000000E+00 0.  1.
         23    2    1    2    0    0  0.00000000000E+00  0.00000000000E+00 -0.18265010054E+03  0.20453232141E+03  0.92045702088E+02 0.  0.
        -13    1    3    3    0    0 -0.36200257506E+02  0.17784840921E+02 -0.14058013701E+03  0.14625161241E+03  0.00000000000E+00 0.  1.
         13    1    3    3    0    0  0.36200257506E+02 -0.17784840921E+02 -0.42069963531E+02  0.58280709000E+02  0.00000000000E+00 0. -1.
<mgrwt>
<rscale>  0 0.92045702E+02</rscale>
<asrwt>0</asrwt>
<pdfrwt beam="1">  1        2 0.16832478E-02 0.92045702E+02</pdfrwt>
<pdfrwt beam="2">  1       -2 0.29783262E-01 0.92045702E+02</pdfrwt>
<totfact> 0.61682954E+04</totfact>
</mgrwt>
</event>
<event>
 5    1  0.6079230E+000  0.9028826E+02  0.7546771E-02  0.1302155E+00
          1   -1    0    0  501    0  0.00000000000E+00  0.00000000000E+00  0.24582746259E+03  0.24582746259E+03  0.00000000000E+00 0. -1.
         -1   -1    0    0    0  501 -0.00000000000E+00 -0.00000000000E+00 -0.82903364459E+01  0.82903364459E+01  0.00000000000E+00 0.  1.
         23    2    1    2    0    0  0.00000000000E+00  0.00000000000E+00  0.23753712615E+03  0.25411779904E+03  0.90288257764E+02 0.  0.
        -13    1    3    3    0    0 -0.32480976695E+01 -0.41869572850E+02  0.72147635343E+02  0.83479893117E+02  0.00000000000E+00 0.  1.
         13    1    3    3    0    0  0.32480976695E+01  0.41869572850E+02  0.16538949080E+03  0.17063790592E+03  0.00000000000E+00 0. -1.
<mgrwt>
<rscale>  0 0.90288258E+02</rscale>
<asrwt>0</asrwt>
<pdfrwt beam="1">  1        1 0.37819604E-01 0.90288258E+02</pdfrwt>
<pdfrwt beam="2">  1       -1 0.12754366E-02 0.90288258E+02</pdfrwt>
<totfact> 0.12653025E+05</totfact>
</mgrwt>
</event>
<event>
 5    1  0.6079230E+000  0.8122751E+02  0.7546771E-02  0.1325604E+00
         -3   -1    0    0    0  501 -0.00000000000E+00  0.00000000000E+00  0.28940501818E+02  0.28940501818E+02  0.00000000000E+00 0.  1.
          3   -1    0    0  501    0  0.00000000000E+00 -0.00000000000E+00 -0.56995461208E+02  0.56995461208E+02  0.00000000000E+00 0. -1.
         23    2    1    2    0    0  0.00000000000E+00  0.00000000000E+00 -0.28054959389E+02  0.85935963026E+02  0.81227513780E+02 0.  0.
        -13    1    3    3    0    0 -0.13767082734E+02  0.37467070591E+02 -0.21956108907E+02  0.45556389936E+02  0.00000000000E+00 0.  1.
         13    1    3    3    0    0  0.13767082734E+02 -0.37467070591E+02 -0.60988504829E+01  0.40379573090E+02  0.00000000000E+00 0. -1.
<mgrwt>
<rscale>  0 0.81227514E+02</rscale>
<asrwt>0</asrwt>
<pdfrwt beam="2">  1        3 0.87685323E-02 0.81227514E+02</pdfrwt>
<pdfrwt beam="1">  1       -3 0.44523850E-02 0.81227514E+02</pdfrwt>
<totfact> 0.48859963E+04</totfact>
</mgrwt>
</event>
<event>
 5    1  0.6079230E+000  0.8980823E+02  0.7546771E-02  0.1303317E+00
          2   -1    0    0  501    0  0.00000000000E+00  0.00000000000E+00  0.27221642507E+02  0.27221642507E+02  0.00000000000E+00 0. -1.
         -2   -1    0    0    0  501 -0.00000000000E+00 -0.00000000000E+00 -0.74072657623E+02  0.74072657623E+02  0.00000000000E+00 0.  1.
         23    2    1    2    0    0  0.00000000000E+00  0.00000000000E+00 -0.46851015116E+02  0.10129430013E+03  0.89808226915E+02 0.  0.
        -13    1    3    3    0    0  0.23236653412E+02 -0.10200881920E+02 -0.65209118934E+02  0.69973060858E+02  0.00000000000E+00 0.  1.
         13    1    3    3    0    0 -0.23236653412E+02  0.10200881920E+02  0.18358103819E+02  0.31321239272E+02  0.00000000000E+00 0. -1.
<mgrwt>
<rscale>  0 0.89808227E+02</rscale>
<asrwt>0</asrwt>
<pdfrwt beam="1">  1        2 0.41879450E-02 0.89808227E+02</pdfrwt>
<pdfrwt beam="2">  1       -2 0.11395793E-01 0.89808227E+02</pdfrwt>
<totfact> 0.90159688E+04</totfact>
</mgrwt>
</event>
<event>
 5    1  0.6079230E+000  0.9115302E+02  0.7546771E-02  0.1300083E+00
         -1   -1    0    0    0  501 -0.00000000000E+00  0.00000000000E+00  0.79543517906E+01  0.79543517906E+01  0.00000000000E+00 0.  1.
          1   -1    0    0  501    0  0.00000000000E+00 -0.00000000000E+00 -0.26114236305E+03  0.26114236305E+03  0.00000000000E+00 0. -1.
         23    2    1    2    0    0  0.00000000000E+00  0.00000000000E+00 -0.25318801126E+03  0.26909671484E+03  0.91153019107E+02 0.  0.
        -13    1    3    3    0    0 -0.11816619794E+02  0.34093053852E+02 -0.44396610021E+02  0.57210381975E+02  0.00000000000E+00 0.  1.
         13    1    3    3    0    0  0.11816619794E+02 -0.34093053852E+02 -0.20879140124E+03  0.21188633286E+03  0.00000000000E+00 0. -1.
<mgrwt>
<rscale>  0 0.91153019E+02</rscale>
<asrwt>0</asrwt>
<pdfrwt beam="2">  1        1 0.40175752E-01 0.91153019E+02</pdfrwt>
<pdfrwt beam="1">  1       -1 0.12237463E-02 0.91153019E+02</pdfrwt>
<totfact> 0.12481386E+05</totfact>
</mgrwt>
</event>
<event>
 5    1  0.6079230E+000  0.8976725E+02  0.7546771E-02  0.1303416E+00
         -4   -1    0    0    0  501 -0.00000000000E+00  0.00000000000E+00  0.18191068754E+03  0.18191068754E+03  0.00000000000E+00 0.  1.
          4   -1    0    0  501    0  0.00000000000E+00 -0.00000000000E+00 -0.11074334433E+02  0.11074334433E+02  0.00000000000E+00 0. -1.
         23    2    1    2    0    0  0.00000000000E+00  0.00000000000E+00  0.17083635311E+03  0.19298502198E+03  0.89767249950E+02 0.  0.
        -13    1    3    3    0    0  0.38118135519E+02 -0.43216905965E+01  0.13550849753E+03  0.14083402347E+03  0.00000000000E+00 0.  1.
         13    1    3    3    0    0 -0.38118135519E+02  0.43216905965E+01  0.35327855583E+02  0.52150998506E+02  0.00000000000E+00 0. -1.
<mgrwt>
<rscale>  0 0.89767250E+02</rscale>
<asrwt>0</asrwt>
<pdfrwt beam="2">  1        4 0.17037439E-02 0.89767250E+02</pdfrwt>
<pdfrwt beam="1">  1       -4 0.27986257E-01 0.89767250E+02</pdfrwt>
<totfact> 0.22604408E+04</totfact>
</mgrwt>
</event>
<event>
 5    1  0.6079230E+000  0.9066465E+02  0.7546771E-02  0.1301250E+00
         -1   -1    0    0    0  501 -0.00000000000E+00  0.00000000000E+00  0.82088908126E+02  0.82088908126E+02  0.00000000000E+00 0.  1.
          1   -1    0    0  501    0  0.00000000000E+00 -0.00000000000E+00 -0.25034074020E+02  0.25034074020E+02  0.00000000000E+00 0. -1.
         23    2    1    2    0    0  0.00000000000E+00  0.00000000000E+00  0.57054834107E+02  0.10712298215E+03  0.90664652478E+02 0.  0.
        -13    1    3    3    0    0 -0.22544537072E+02 -0.12297334128E+02  0.72665724642E+02  0.77070020865E+02  0.00000000000E+00 0.  1.
         13    1    3    3    0    0  0.22544537072E+02  0.12297334128E+02 -0.15610890535E+02  0.30052961281E+02  0.00000000000E+00 0. -1.
<mgrwt>
<rscale>  0 0.90664652E+02</rscale>
<asrwt>0</asrwt>
<pdfrwt beam="2">  1        1 0.38513960E-02 0.90664652E+02</pdfrwt>
<pdfrwt beam="1">  1       -1 0.12629063E-01 0.90664652E+02</pdfrwt>
<totfact> 0.85505159E+04</totfact>
</mgrwt>
</event>
<event>
 5    1  0.6079230E+000  0.6150486E+02  0.7546771E-02  0.1391623E+00
         -1   -1    0    0    0  501 -0.00000000000E+00  0.00000000000E+00  0.17780165112E+02  0.17780165112E+02  0.00000000000E+00 0.  1.
          1   -1    0    0  501    0  0.00000000000E+00 -0.00000000000E+00 -0.53189148092E+02  0.53189148092E+02  0.00000000000E+00 0. -1.
         23    2    1    2    0    0  0.00000000000E+00  0.00000000000E+00 -0.35408982980E+02  0.70969313204E+02  0.61504856238E+02 0.  0.
        -13    1    3    3    0    0  0.44611830968E+01  0.17643536472E+02  0.10899559616E+02  0.21213131162E+02  0.00000000000E+00 0.  1.
         13    1    3    3    0    0 -0.44611830968E+01 -0.17643536472E+02 -0.46308542597E+02  0.49756182041E+02  0.00000000000E+00 0. -1.
<mgrwt>
<rscale>  0 0.61504856E+02</rscale>
<asrwt>0</asrwt>
<pdfrwt beam="2">  1        1 0.81829458E-02 0.61504856E+02</pdfrwt>
<pdfrwt beam="1">  1       -1 0.27354100E-02 0.61504856E+02</pdfrwt>
<totfact> 0.27448669E+05</totfact>
</mgrwt>
</event>
<event>
 5    1  0.6079230E+000  0.8882211E+02  0.7546771E-02  0.1305729E+00
         -2   -1    0    0    0  501 -0.00000000000E+00  0.00000000000E+00  0.28645981208E+02  0.28645981208E+02  0.00000000000E+00 0.  1.
          2   -1    0    0  501    0  0.00000000000E+00 -0.00000000000E+00 -0.68852310968E+02  0.68852310968E+02  0.00000000000E+00 0. -1.
         23    2    1    2    0    0  0.00000000000E+00  0.00000000000E+00 -0.40206329760E+02  0.97498292175E+02  0.88822114500E+02 0.  0.
        -13    1    3    3    0    0 -0.31674218491E+02 -0.20528176241E+02 -0.45791697059E+02  0.59342578781E+02  0.00000000000E+00 0. -1.
         13    1    3    3    0    0  0.31674218491E+02  0.20528176241E+02  0.55853672989E+01  0.38155713395E+02  0.00000000000E+00 0.  1.
<mgrwt>
<rscale>  0 0.88822115E+02</rscale>
<asrwt>0</asrwt>
<pdfrwt beam="2">  1        2 0.10592663E-01 0.88822115E+02</pdfrwt>
<pdfrwt beam="1">  1       -2 0.44070741E-02 0.88822115E+02</pdfrwt>
<totfact> 0.11845892E+05</totfact>
</mgrwt>
</event>
<event>
 5    1  0.6079230E+000  0.9110769E+02  0.7546771E-02  0.1300191E+00
         -2   -1    0    0    0  501 -0.00000000000E+00  0.00000000000E+00  0.14458744808E+03  0.14458744808E+03  0.00000000000E+00 0.  1.
          2   -1    0    0  501    0  0.00000000000E+00 -0.00000000000E+00 -0.14352233070E+02  0.14352233070E+02  0.00000000000E+00 0. -1.
         23    2    1    2    0    0  0.00000000000E+00  0.00000000000E+00  0.13023521501E+03  0.15893968115E+03  0.91107689111E+02 0.  0.
        -13    1    3    3    0    0 -0.38109329153E+02 -0.81199507385E+01  0.23949091945E+02  0.45736348493E+02  0.00000000000E+00 0. -1.
         13    1    3    3    0    0  0.38109329153E+02  0.81199507385E+01  0.10628612306E+03  0.11320333266E+03  0.00000000000E+00 0.  1.
<mgrwt>
<rscale>  0 0.91107689E+02</rscale>
<asrwt>0</asrwt>
<pdfrwt beam="2">  1        2 0.22080360E-02 0.91107689E+02</pdfrwt>
<pdfrwt beam="1">  1       -2 0.22244222E-01 0.91107689E+02</pdfrwt>
<totfact> 0.70924004E+04</totfact>
</mgrwt>
</event>
<event>
 5    1  0.6079230E+000  0.9069445E+02  0.7546771E-02  0.1301179E+00
          3   -1    0    0  501    0  0.00000000000E+00  0.00000000000E+00  0.19773593053E+02  0.19773593053E+02  0.00000000000E+00 0. -1.
         -3   -1    0    0    0  501 -0.00000000000E+00 -0.00000000000E+00 -0.10399581096E+03  0.10399581096E+03  0.00000000000E+00 0.  1.
         23    2    1    2    0    0  0.00000000000E+00  0.00000000000E+00 -0.84222217903E+02  0.12376940401E+03  0.90694450658E+02 0.  0.
        -13    1    3    3    0    0  0.26161595347E+02  0.33838761342E+02 -0.21555483467E+02  0.47897074104E+02  0.00000000000E+00 0.  1.
         13    1    3    3    0    0 -0.26161595347E+02 -0.33838761342E+02 -0.62666734436E+02  0.75872329904E+02  0.00000000000E+00 0. -1.
<mgrwt>
<rscale>  0 0.90694451E+02</rscale>
<asrwt>0</asrwt>
<pdfrwt beam="1">  1        3 0.30420912E-02 0.90694451E+02</pdfrwt>
<pdfrwt beam="2">  1       -3 0.15999356E-01 0.90694451E+02</pdfrwt>
<totfact> 0.33470265E+04</totfact>
</mgrwt>
</event>
<event>
 5    1  0.6079230E+000  0.9275080E+02  0.7546771E-02  0.1296324E+00
          2   -1    0    0  501    0  0.00000000000E+00  0.00000000000E+00  0.28519838857E+03  0.28519838857E+03  0.00000000000E+00 0. -1.
         -2   -1    0    0    0  501 -0.00000000000E+00 -0.00000000000E+00 -0.75409877949E+01  0.75409877949E+01  0.00000000000E+00 0.  1.
         23    2    1    2    0    0  0.00000000000E+00  0.00000000000E+00  0.27765740078E+03  0.29273937637E+03  0.92750796597E+02 0.  0.
        -13    1    3    3    0    0 -0.18663124388E+02  0.33501080200E+02  0.56522666213E+02  0.68304072955E+02  0.00000000000E+00 0.  1.
         13    1    3    3    0    0  0.18663124388E+02 -0.33501080200E+02  0.22113473456E+03  0.22443530341E+03  0.00000000000E+00 0. -1.
<mgrwt>
<rscale>  0 0.92750797E+02</rscale>
<asrwt>0</asrwt>
<pdfrwt beam="1">  1        2 0.43876667E-01 0.92750797E+02</pdfrwt>
<pdfrwt beam="2">  1       -2 0.11601522E-02 0.92750797E+02</pdfrwt>
<totfact> 0.16841309E+05</totfact>
</mgrwt>
</event>
<event>
 5    1  0.6079230E+000  0.9326360E+02  0.7546771E-02  0.1295135E+00
          3   -1    0    0  501    0  0.00000000000E+00  0.00000000000E+00  0.22734738333E+02  0.22734738333E+02  0.00000000000E+00 0. -1.
         -3   -1    0    0    0  501 -0.00000000000E+00 -0.00000000000E+00 -0.95647669982E+02  0.95647669982E+02  0.00000000000E+00 0.  1.
         23    2    1    2    0    0  0.00000000000E+00  0.00000000000E+00 -0.72912931649E+02  0.11838240831E+03  0.93263599528E+02 0.  0.
        -13    1    3    3    0    0 -0.46515889010E+02 -0.21636970460E+01 -0.39595395140E+02  0.61124502710E+02  0.00000000000E+00 0.  1.
         13    1    3    3    0    0  0.46515889010E+02  0.21636970460E+01 -0.33317536508E+02  0.57257905605E+02  0.00000000000E+00 0. -1.
<mgrwt>
<rscale>  0 0.93263600E+02</rscale>
<asrwt>0</asrwt>
<pdfrwt beam="1">  1        3 0.34976520E-02 0.93263600E+02</pdfrwt>
<pdfrwt beam="2">  1       -3 0.14715026E-01 0.93263600E+02</pdfrwt>
<totfact> 0.31364683E+04</totfact>
</mgrwt>
</event>
<event>
 5    1  0.6079230E+000  0.8992577E+02  0.7546771E-02  0.1303032E+00
         -1   -1    0    0    0  501 -0.00000000000E+00  0.00000000000E+00  0.33441472006E+03  0.33441472006E+03  0.00000000000E+00 0.  1.
          1   -1    0    0  501    0  0.00000000000E+00 -0.00000000000E+00 -0.60453708680E+01  0.60453708680E+01  0.00000000000E+00 0. -1.
         23    2    1    2    0    0  0.00000000000E+00  0.00000000000E+00  0.32836934919E+03  0.34046009093E+03  0.89925769532E+02 0.  0.
        -13    1    3    3    0    0 -0.20693820233E+02 -0.35896033071E+02  0.23029387648E+03  0.23399151466E+03  0.00000000000E+00 0.  1.
         13    1    3    3    0    0  0.20693820233E+02  0.35896033071E+02  0.98075472714E+02  0.10646857628E+03  0.00000000000E+00 0. -1.
<mgrwt>
<rscale>  0 0.89925770E+02</rscale>
<asrwt>0</asrwt>
<pdfrwt beam="2">  1        1 0.93005731E-03 0.89925770E+02</pdfrwt>
<pdfrwt beam="1">  1       -1 0.51448404E-01 0.89925770E+02</pdfrwt>
<totfact> 0.60066495E+04</totfact>
</mgrwt>
</event>
<event>
 5    1  0.6079230E+000  0.8690638E+02  0.7546771E-02  0.1310521E+00
          3   -1    0    0  501    0  0.00000000000E+00  0.00000000000E+00  0.18694961327E+02  0.18694961327E+02  0.00000000000E+00 0. -1.
         -3   -1    0    0    0  501 -0.00000000000E+00 -0.00000000000E+00 -0.10099939698E+03  0.10099939698E+03  0.00000000000E+00 0.  1.
         23    2    1    2    0    0  0.00000000000E+00  0.00000000000E+00 -0.82304435652E+02  0.11969435831E+03  0.86906382286E+02 0.  0.
        -13    1    3    3    0    0  0.15939371236E+02 -0.20775805379E+02  0.66074538974E+01  0.27006593483E+02  0.00000000000E+00 0. -1.
         13    1    3    3    0    0 -0.15939371236E+02  0.20775805379E+02 -0.88911889550E+02  0.92687764823E+02  0.00000000000E+00 0.  1.
<mgrwt>
<rscale>  0 0.86906382E+02</rscale>
<asrwt>0</asrwt>
<pdfrwt beam="1">  1        3 0.28761479E-02 0.86906382E+02</pdfrwt>
<pdfrwt beam="2">  1       -3 0.15538369E-01 0.86906382E+02</pdfrwt>
<totfact> 0.37877302E+04</totfact>
</mgrwt>
</event>
<event>
 5    1  0.6079230E+000  0.8996205E+02  0.7546771E-02  0.1302944E+00
          2   -1    0    0  501    0  0.00000000000E+00  0.00000000000E+00  0.11991760930E+02  0.11991760930E+02  0.00000000000E+00 0. -1.
         -2   -1    0    0    0  501 -0.00000000000E+00 -0.00000000000E+00 -0.16872354656E+03  0.16872354656E+03  0.00000000000E+00 0.  1.
         23    2    1    2    0    0  0.00000000000E+00  0.00000000000E+00 -0.15673178563E+03  0.18071530749E+03  0.89962046079E+02 0.  0.
        -13    1    3    3    0    0  0.25104732970E+02  0.33176339057E+02 -0.11271425145E+03  0.12014749091E+03  0.00000000000E+00 0.  1.
         13    1    3    3    0    0 -0.25104732970E+02 -0.33176339057E+02 -0.44017534181E+02  0.60567816587E+02  0.00000000000E+00 0. -1.
<mgrwt>
<rscale>  0 0.89962046E+02</rscale>
<asrwt>0</asrwt>
<pdfrwt beam="1">  1        2 0.18448864E-02 0.89962046E+02</pdfrwt>
<pdfrwt beam="2">  1       -2 0.25957467E-01 0.89962046E+02</pdfrwt>
<totfact> 0.69145150E+04</totfact>
</mgrwt>
</event>
<event>
 5    1  0.6079230E+000  0.8596179E+02  0.7546771E-02  0.1312936E+00
         -2   -1    0    0    0  501 -0.00000000000E+00  0.00000000000E+00  0.99194043670E+01  0.99194043670E+01  0.00000000000E+00 0. -1.
          2   -1    0    0  501    0  0.00000000000E+00 -0.00000000000E+00 -0.18623672312E+03  0.18623672312E+03  0.00000000000E+00 0.  1.
         23    2    1    2    0    0  0.00000000000E+00  0.00000000000E+00 -0.17631731876E+03  0.19615612749E+03  0.85961790690E+02 0.  0.
        -13    1    3    3    0    0 -0.70166790786E+01  0.26383203170E+02 -0.16391118347E+03  0.16616914052E+03  0.00000000000E+00 0.  1.
         13    1    3    3    0    0  0.70166790786E+01 -0.26383203170E+02 -0.12406135287E+02  0.29986986971E+02  0.00000000000E+00 0. -1.
<mgrwt>
<rscale>  0 0.85961791E+02</rscale>
<asrwt>0</asrwt>
<pdfrwt beam="2">  1        2 0.28651805E-01 0.85961791E+02</pdfrwt>
<pdfrwt beam="1">  1       -2 0.15260621E-02 0.85961791E+02</pdfrwt>
<totfact> 0.17660555E+05</totfact>
</mgrwt>
</event>
<event>
 5    1  0.6079230E+000  0.9069492E+02  0.7546771E-02  0.1301178E+00
          1   -1    0    0  501    0  0.00000000000E+00  0.00000000000E+00  0.51984095426E+02  0.51984095426E+02  0.00000000000E+00 0. -1.
         -1   -1    0    0    0  501 -0.00000000000E+00 -0.00000000000E+00 -0.39558101670E+02  0.39558101670E+02  0.00000000000E+00 0.  1.
         23    2    1    2    0    0  0.00000000000E+00  0.00000000000E+00  0.12425993756E+02  0.91542197096E+02  0.90694920080E+02 0.  0.
        -13    1    3    3    0    0  0.39270983208E+02  0.19799649635E+02 -0.49426707183E+01  0.44256821413E+02  0.00000000000E+00 0.  1.
         13    1    3    3    0    0 -0.39270983208E+02 -0.19799649635E+02  0.17368664475E+02  0.47285375682E+02  0.00000000000E+00 0. -1.
<mgrwt>
<rscale>  0 0.90694920E+02</rscale>
<asrwt>0</asrwt>
<pdfrwt beam="1">  1        1 0.79975531E-02 0.90694920E+02</pdfrwt>
<pdfrwt beam="2">  1       -1 0.60858618E-02 0.90694920E+02</pdfrwt>
<totfact> 0.95717036E+04</totfact>
</mgrwt>
</event>
<event>
 5    1  0.6079230E+000  0.8909988E+02  0.7546771E-02  0.1305046E+00
         -2   -1    0    0    0  501 -0.00000000000E+00  0.00000000000E+00  0.64468616516E+01  0.64468616516E+01  0.00000000000E+00 0.  1.
          2   -1    0    0  501    0  0.00000000000E+00 -0.00000000000E+00 -0.30785475450E+03  0.30785475450E+03  0.00000000000E+00 0. -1.
         23    2    1    2    0    0  0.00000000000E+00  0.00000000000E+00 -0.30140789285E+03  0.31430161615E+03  0.89099876791E+02 0.  0.
        -13    1    3    3    0    0  0.54316153008E+01  0.43922035516E+02 -0.13269998559E+03  0.13988543106E+03  0.00000000000E+00 0.  1.
         13    1    3    3    0    0 -0.54316153008E+01 -0.43922035516E+02 -0.16870790726E+03  0.17441618509E+03  0.00000000000E+00 0. -1.
<mgrwt>
<rscale>  0 0.89099877E+02</rscale>
<asrwt>0</asrwt>
<pdfrwt beam="2">  1        2 0.47362276E-01 0.89099877E+02</pdfrwt>
<pdfrwt beam="1">  1       -2 0.99182475E-03 0.89099877E+02</pdfrwt>
<totfact> 0.19287174E+05</totfact>
</mgrwt>
</event>
<event>
 5    1  0.6079230E+000  0.7539366E+02  0.7546771E-02  0.1342656E+00
          1   -1    0    0  501    0  0.00000000000E+00  0.00000000000E+00  0.18588942295E+02  0.18588942295E+02  0.00000000000E+00 0. -1.
         -1   -1    0    0    0  501 -0.00000000000E+00 -0.00000000000E+00 -0.76446044609E+02  0.76446044609E+02  0.00000000000E+00 0.  1.
         23    2    1    2    0    0  0.00000000000E+00  0.00000000000E+00 -0.57857102314E+02  0.95034986903E+02  0.75393663179E+02 0.  0.
        -13    1    3    3    0    0 -0.19376181203E+02 -0.18850102227E+02 -0.62046539520E+02  0.67679655868E+02  0.00000000000E+00 0.  1.
         13    1    3    3    0    0  0.19376181203E+02  0.18850102227E+02  0.41894372058E+01  0.27355331036E+02  0.00000000000E+00 0. -1.
<mgrwt>
<rscale>  0 0.75393663E+02</rscale>
<asrwt>0</asrwt>
<pdfrwt beam="1">  1        1 0.28598372E-02 0.75393663E+02</pdfrwt>
<pdfrwt beam="2">  1       -1 0.11760930E-01 0.75393663E+02</pdfrwt>
<totfact> 0.13846974E+05</totfact>
</mgrwt>
</event>
<event>
 5    1  0.6079230E+000  0.9750588E+02  0.7546771E-02  0.1285630E+00
         -1   -1    0    0    0  501 -0.00000000000E+00  0.00000000000E+00  0.24497358228E+03  0.24497358228E+03  0.00000000000E+00 0.  1.
          1   -1    0    0  501    0  0.00000000000E+00 -0.00000000000E+00 -0.97024711662E+01  0.97024711662E+01  0.00000000000E+00 0. -1.
         23    2    1    2    0    0  0.00000000000E+00  0.00000000000E+00  0.23527111111E+03  0.25467605345E+03  0.97505879178E+02 0.  0.
        -13    1    3    3    0    0  0.47569692985E+02 -0.10590918202E+02  0.12114551170E+03  0.13058054313E+03  0.00000000000E+00 0. -1.
         13    1    3    3    0    0 -0.47569692985E+02  0.10590918202E+02  0.11412559941E+03  0.12409551031E+03  0.00000000000E+00 0.  1.
<mgrwt>
<rscale>  0 0.97505879E+02</rscale>
<asrwt>0</asrwt>
<pdfrwt beam="2">  1        1 0.14926881E-02 0.97505879E+02</pdfrwt>
<pdfrwt beam="1">  1       -1 0.37688239E-01 0.97505879E+02</pdfrwt>
<totfact> 0.54702245E+04</totfact>
</mgrwt>
</event>
<event>
 5    1  0.6079230E+000  0.9188744E+02  0.7546771E-02  0.1298344E+00
         -2   -1    0    0    0  501 -0.00000000000E+00  0.00000000000E+00  0.49414845786E+01  0.49414845786E+01  0.00000000000E+00 0.  1.
          2   -1    0    0  501    0  0.00000000000E+00 -0.00000000000E+00 -0.42716418861E+03  0.42716418861E+03  0.00000000000E+00 0. -1.
         23    2    1    2    0    0  0.00000000000E+00  0.00000000000E+00 -0.42222270403E+03  0.43210567319E+03  0.91887436585E+02 0.  0.
        -13    1    3    3    0    0  0.43890357885E+02  0.70436454834E+01 -0.26571948957E+03  0.26941199601E+03  0.00000000000E+00 0. -1.
         13    1    3    3    0    0 -0.43890357885E+02 -0.70436454834E+01 -0.15650321446E+03  0.16269367717E+03  0.00000000000E+00 0.  1.
<mgrwt>
<rscale>  0 0.91887437E+02</rscale>
<asrwt>0</asrwt>
<pdfrwt beam="2">  1        2 0.65717579E-01 0.91887437E+02</pdfrwt>
<pdfrwt beam="1">  1       -2 0.76022826E-03 0.91887437E+02</pdfrwt>
<totfact> 0.20015248E+05</totfact>
</mgrwt>
</event>
<event>
 5    1  0.6079230E+000  0.9239549E+02  0.7546771E-02  0.1297152E+00
         -2   -1    0    0    0  501 -0.00000000000E+00  0.00000000000E+00  0.43931142543E+02  0.43931142543E+02  0.00000000000E+00 0.  1.
          2   -1    0    0  501    0  0.00000000000E+00 -0.00000000000E+00 -0.48581295841E+02  0.48581295841E+02  0.00000000000E+00 0. -1.
         23    2    1    2    0    0  0.00000000000E+00  0.00000000000E+00 -0.46501532978E+01  0.92512438385E+02  0.92395494101E+02 0.  0.
        -13    1    3    3    0    0  0.27826199320E+02 -0.34357258470E+02  0.11090137070E+02  0.45581901215E+02  0.00000000000E+00 0.  1.
         13    1    3    3    0    0 -0.27826199320E+02  0.34357258470E+02 -0.15740290367E+02  0.46930537170E+02  0.00000000000E+00 0. -1.
<mgrwt>
<rscale>  0 0.92395494E+02</rscale>
<asrwt>0</asrwt>
<pdfrwt beam="2">  1        2 0.74740454E-02 0.92395494E+02</pdfrwt>
<pdfrwt beam="1">  1       -2 0.67586374E-02 0.92395494E+02</pdfrwt>
<totfact> 0.96576960E+04</totfact>
</mgrwt>
</event>
<event>
 5    1  0.6079230E+000  0.9066822E+02  0.7546771E-02  0.1301242E+00
         -2   -1    0    0    0  501 -0.00000000000E+00  0.00000000000E+00  0.25467233854E+03  0.25467233854E+03  0.00000000000E+00 0. -1.
          2   -1    0    0  501    0  0.00000000000E+00 -0.00000000000E+00 -0.80699048251E+01  0.80699048251E+01  0.00000000000E+00 0.  1.
         23    2    1    2    0    0  0.00000000000E+00  0.00000000000E+00  0.24660243371E+03  0.26274224336E+03  0.90668220090E+02 0.  0.
        -13    1    3    3    0    0  0.32311213354E+00  0.45217280930E+02  0.13267995290E+03  0.14017373790E+03  0.00000000000E+00 0. -1.
         13    1    3    3    0    0 -0.32311213354E+00 -0.45217280930E+02  0.11392248081E+03  0.12256850546E+03  0.00000000000E+00 0.  1.
<mgrwt>
<rscale>  0 0.90668220E+02</rscale>
<asrwt>0</asrwt>
<pdfrwt beam="2">  1        2 0.12415240E-02 0.90668220E+02</pdfrwt>
<pdfrwt beam="1">  1       -2 0.39180354E-01 0.90668220E+02</pdfrwt>
<totfact> 0.56461967E+04</totfact>
</mgrwt>
</event>
<event>
 5    1  0.6079230E+000  0.8988664E+02  0.7546771E-02  0.1303126E+00
         -1   -1    0    0    0  501 -0.00000000000E+00  0.00000000000E+00  0.79100426154E+01  0.79100426154E+01  0.00000000000E+00 0.  1.
          1   -1    0    0  501    0  0.00000000000E+00 -0.00000000000E+00 -0.25535919026E+03  0.25535919026E+03  0.00000000000E+00 0. -1.
         23    2    1    2    0    0  0.00000000000E+00  0.00000000000E+00 -0.24744914764E+03  0.26326923287E+03  0.89886641436E+02 0.  0.
        -13    1    3    3    0    0 -0.34600696480E+02 -0.28246644739E+02 -0.13831654885E+03  0.14534974655E+03  0.00000000000E+00 0. -1.
         13    1    3    3    0    0  0.34600696480E+02  0.28246644739E+02 -0.10913259879E+03  0.11791948633E+03  0.00000000000E+00 0.  1.
<mgrwt>
<rscale>  0 0.89886641E+02</rscale>
<asrwt>0</asrwt>
<pdfrwt beam="2">  1        1 0.39286021E-01 0.89886641E+02</pdfrwt>
<pdfrwt beam="1">  1       -1 0.12169299E-02 0.89886641E+02</pdfrwt>
<totfact> 0.12899261E+05</totfact>
</mgrwt>
</event>
<event>
 5    1  0.6079230E+000  0.8283318E+02  0.7546771E-02  0.1321198E+00
         -3   -1    0    0    0  501 -0.00000000000E+00  0.00000000000E+00  0.55602210452E+02  0.55602210452E+02  0.00000000000E+00 0. -1.
          3   -1    0    0  501    0  0.00000000000E+00 -0.00000000000E+00 -0.30850099774E+02  0.30850099774E+02  0.00000000000E+00 0.  1.
         23    2    1    2    0    0  0.00000000000E+00  0.00000000000E+00  0.24752110678E+02  0.86452310226E+02  0.82833175482E+02 0.  0.
        -13    1    3    3    0    0 -0.15996787600E+02 -0.30136302243E+02  0.36880371156E+02  0.50241971528E+02  0.00000000000E+00 0. -1.
         13    1    3    3    0    0  0.15996787600E+02  0.30136302243E+02 -0.12128260478E+02  0.36210338698E+02  0.00000000000E+00 0.  1.
<mgrwt>
<rscale>  0 0.82833175E+02</rscale>
<asrwt>0</asrwt>
<pdfrwt beam="2">  1        3 0.47461692E-02 0.82833175E+02</pdfrwt>
<pdfrwt beam="1">  1       -3 0.85541862E-02 0.82833175E+02</pdfrwt>
<totfact> 0.46301080E+04</totfact>
</mgrwt>
</event>
<event>
 5    1  0.6079230E+000  0.1061374E+03  0.7546771E-02  0.1267895E+00
          2   -1    0    0  501    0  0.00000000000E+00  0.00000000000E+00  0.33046712857E+03  0.33046712857E+03  0.00000000000E+00 0. -1.
         -2   -1    0    0    0  501 -0.00000000000E+00 -0.00000000000E+00 -0.85221442974E+01  0.85221442974E+01  0.00000000000E+00 0.  1.
         23    2    1    2    0    0  0.00000000000E+00  0.00000000000E+00  0.32194498427E+03  0.33898927287E+03  0.10613743082E+03 0.  0.
        -13    1    3    3    0    0 -0.50198145842E+02  0.16087786436E+02  0.14138340069E+03  0.15089047919E+03  0.00000000000E+00 0.  1.
         13    1    3    3    0    0  0.50198145842E+02 -0.16087786436E+02  0.18056158358E+03  0.18809879368E+03  0.00000000000E+00 0. -1.
<mgrwt>
<rscale>  0 0.10613743E+03</rscale>
<asrwt>0</asrwt>
<pdfrwt beam="1">  1        2 0.50841087E-01 0.10613743E+03</pdfrwt>
<pdfrwt beam="2">  1       -2 0.13110994E-02 0.10613743E+03</pdfrwt>
<totfact> 0.12381523E+05</totfact>
</mgrwt>
</event>
<event>
 5    1  0.6079230E+000  0.9242783E+02  0.7546771E-02  0.1297077E+00
         -4   -1    0    0    0  501 -0.00000000000E+00  0.00000000000E+00  0.49336259758E+02  0.49336259758E+02  0.00000000000E+00 0. -1.
          4   -1    0    0  501    0  0.00000000000E+00 -0.00000000000E+00 -0.43289177097E+02  0.43289177097E+02  0.00000000000E+00 0.  1.
         23    2    1    2    0    0  0.00000000000E+00  0.00000000000E+00  0.60470826608E+01  0.92625436855E+02  0.92427833166E+02 0.  0.
        -13    1    3    3    0    0 -0.44280831371E+02 -0.12460555432E+02  0.74679543754E+01  0.46602873421E+02  0.00000000000E+00 0. -1.
         13    1    3    3    0    0  0.44280831371E+02  0.12460555432E+02 -0.14208717146E+01  0.46022563433E+02  0.00000000000E+00 0.  1.
<mgrwt>
<rscale>  0 0.92427833E+02</rscale>
<asrwt>0</asrwt>
<pdfrwt beam="2">  1        4 0.66598734E-02 0.92427833E+02</pdfrwt>
<pdfrwt beam="1">  1       -4 0.75901938E-02 0.92427833E+02</pdfrwt>
<totfact> 0.25942850E+04</totfact>
</mgrwt>
</event>
<event>
 5    1  0.6079230E+000  0.7608702E+02  0.7546771E-02  0.1340538E+00
         -2   -1    0    0    0  501 -0.00000000000E+00  0.00000000000E+00  0.12593834128E+02  0.12593834128E+02  0.00000000000E+00 0.  1.
          2   -1    0    0  501    0  0.00000000000E+00 -0.00000000000E+00 -0.11492201830E+03  0.11492201830E+03  0.00000000000E+00 0. -1.
         23    2    1    2    0    0  0.00000000000E+00  0.00000000000E+00 -0.10232818417E+03  0.12751585243E+03  0.76087024811E+02 0.  0.
        -13    1    3    3    0    0 -0.14034654948E+02 -0.27508397607E+02 -0.13929010759E+02  0.33877733383E+02  0.00000000000E+00 0. -1.
         13    1    3    3    0    0  0.14034654948E+02  0.27508397607E+02 -0.88399173409E+02  0.93638119043E+02  0.00000000000E+00 0.  1.
<mgrwt>
<rscale>  0 0.76087025E+02</rscale>
<asrwt>0</asrwt>
<pdfrwt beam="2">  1        2 0.17680311E-01 0.76087025E+02</pdfrwt>
<pdfrwt beam="1">  1       -2 0.19375129E-02 0.76087025E+02</pdfrwt>
<totfact> 0.20889764E+05</totfact>
</mgrwt>
</event>
<event>
 5    1  0.6079230E+000  0.9481743E+02  0.7546771E-02  0.1291588E+00
         -2   -1    0    0    0  501 -0.00000000000E+00  0.00000000000E+00  0.11221513397E+02  0.11221513397E+02  0.00000000000E+00 0.  1.
          2   -1    0    0  501    0  0.00000000000E+00 -0.00000000000E+00 -0.20029259860E+03  0.20029259860E+03  0.00000000000E+00 0. -1.
         23    2    1    2    0    0  0.00000000000E+00  0.00000000000E+00 -0.18907108521E+03  0.21151411200E+03  0.94817426214E+02 0.  0.
        -13    1    3    3    0    0  0.46404112711E+02 -0.55762364411E+01 -0.76808437235E+02  0.89910912129E+02  0.00000000000E+00 0.  1.
         13    1    3    3    0    0 -0.46404112711E+02  0.55762364411E+01 -0.11226264797E+03  0.12160319987E+03  0.00000000000E+00 0. -1.
<mgrwt>
<rscale>  0 0.94817426E+02</rscale>
<asrwt>0</asrwt>
<pdfrwt beam="2">  1        2 0.30814247E-01 0.94817426E+02</pdfrwt>
<pdfrwt beam="1">  1       -2 0.17263866E-02 0.94817426E+02</pdfrwt>
<totfact> 0.13923382E+05</totfact>
</mgrwt>
</event>
<event>
 5    1  0.6079230E+000  0.7979281E+02  0.7546771E-02  0.1329640E+00
         -2   -1    0    0    0  501 -0.00000000000E+00  0.00000000000E+00  0.55463608269E+01  0.55463608269E+01  0.00000000000E+00 0.  1.
          2   -1    0    0  501    0  0.00000000000E+00 -0.00000000000E+00 -0.28698514621E+03  0.28698514621E+03  0.00000000000E+00 0. -1.
         23    2    1    2    0    0  0.00000000000E+00  0.00000000000E+00 -0.28143878538E+03  0.29253150704E+03  0.79792811025E+02 0.  0.
        -13    1    3    3    0    0 -0.20808408545E+02  0.29414522419E+02 -0.20352915129E+03  0.20669378177E+03  0.00000000000E+00 0. -1.
         13    1    3    3    0    0  0.20808408545E+02 -0.29414522419E+02 -0.77909634090E+02  0.85837725269E+02  0.00000000000E+00 0.  1.
<mgrwt>
<rscale>  0 0.79792811E+02</rscale>
<asrwt>0</asrwt>
<pdfrwt beam="2">  1        2 0.44151547E-01 0.79792811E+02</pdfrwt>
<pdfrwt beam="1">  1       -2 0.85328655E-03 0.79792811E+02</pdfrwt>
<totfact> 0.25162180E+05</totfact>
</mgrwt>
</event>
<event>
 5    1  0.6079230E+000  0.9775608E+02  0.7546771E-02  0.1285087E+00
          1   -1    0    0  501    0  0.00000000000E+00  0.00000000000E+00  0.17236136166E+02  0.17236136166E+02  0.00000000000E+00 0. -1.
         -1   -1    0    0    0  501 -0.00000000000E+00 -0.00000000000E+00 -0.13860780484E+03  0.13860780484E+03  0.00000000000E+00 0.  1.
         23    2    1    2    0    0  0.00000000000E+00  0.00000000000E+00 -0.12137166868E+03  0.15584394101E+03  0.97756084167E+02 0.  0.
        -13    1    3    3    0    0  0.30459942129E+01 -0.45478090629E+02 -0.32547732223E+02  0.56007943016E+02  0.00000000000E+00 0.  1.
         13    1    3    3    0    0 -0.30459942129E+01  0.45478090629E+02 -0.88823936455E+02  0.99835997993E+02  0.00000000000E+00 0. -1.
<mgrwt>
<rscale>  0 0.97756084E+02</rscale>
<asrwt>0</asrwt>
<pdfrwt beam="1">  1        1 0.26517133E-02 0.97756084E+02</pdfrwt>
<pdfrwt beam="2">  1       -1 0.21324278E-01 0.97756084E+02</pdfrwt>
<totfact> 0.63541582E+04</totfact>
</mgrwt>
</event>
<event>
 5    1  0.6079230E+000  0.9144536E+02  0.7546771E-02  0.1299389E+00
          2   -1    0    0  501    0  0.00000000000E+00  0.00000000000E+00  0.23154756009E+03  0.23154756009E+03  0.00000000000E+00 0. -1.
         -2   -1    0    0    0  501 -0.00000000000E+00 -0.00000000000E+00 -0.90286576687E+01  0.90286576687E+01  0.00000000000E+00 0.  1.
         23    2    1    2    0    0  0.00000000000E+00  0.00000000000E+00  0.22251890242E+03  0.24057621776E+03  0.91445364105E+02 0.  0.
        -13    1    3    3    0    0 -0.18166239387E+02  0.34896125177E+02  0.17255312585E+03  0.17698116580E+03  0.00000000000E+00 0. -1.
         13    1    3    3    0    0  0.18166239387E+02 -0.34896125177E+02  0.49965776573E+02  0.63595051964E+02  0.00000000000E+00 0.  1.
<mgrwt>
<rscale>  0 0.91445364E+02</rscale>
<asrwt>0</asrwt>
<pdfrwt beam="1">  1        2 0.35622697E-01 0.91445364E+02</pdfrwt>
<pdfrwt beam="2">  1       -2 0.13890244E-02 0.91445364E+02</pdfrwt>
<totfact> 0.16189314E+05</totfact>
</mgrwt>
</event>
<event>
 5    1  0.6079230E+000  0.9157621E+02  0.7546771E-02  0.1299079E+00
         -1   -1    0    0    0  501 -0.00000000000E+00  0.00000000000E+00  0.10016376302E+03  0.10016376302E+03  0.00000000000E+00 0.  1.
          1   -1    0    0  501    0  0.00000000000E+00 -0.00000000000E+00 -0.20931229324E+02  0.20931229324E+02  0.00000000000E+00 0. -1.
         23    2    1    2    0    0  0.00000000000E+00  0.00000000000E+00  0.79232533693E+02  0.12109499234E+03  0.91576212931E+02 0.  0.
        -13    1    3    3    0    0 -0.27160878090E+02  0.22655535436E+02  0.78068075702E+02  0.85706540172E+02  0.00000000000E+00 0.  1.
         13    1    3    3    0    0  0.27160878090E+02 -0.22655535436E+02  0.11644579906E+01  0.35388452169E+02  0.00000000000E+00 0. -1.
<mgrwt>
<rscale>  0 0.91576213E+02</rscale>
<asrwt>0</asrwt>
<pdfrwt beam="2">  1        1 0.32201892E-02 0.91576213E+02</pdfrwt>
<pdfrwt beam="1">  1       -1 0.15409809E-01 0.91576213E+02</pdfrwt>
<totfact> 0.80434355E+04</totfact>
</mgrwt>
</event>
<event>
 5    1  0.6079230E+000  0.9142964E+02  0.7546771E-02  0.1299426E+00
          1   -1    0    0  501    0  0.00000000000E+00  0.00000000000E+00  0.23908827772E+03  0.23908827772E+03  0.00000000000E+00 0. -1.
         -1   -1    0    0    0  501 -0.00000000000E+00 -0.00000000000E+00 -0.87408922217E+01  0.87408922217E+01  0.00000000000E+00 0.  1.
         23    2    1    2    0    0  0.00000000000E+00  0.00000000000E+00  0.23034738550E+03  0.24782916994E+03  0.91429642174E+02 0.  0.
        -13    1    3    3    0    0 -0.11621538469E+02 -0.31226445740E+02  0.20001563095E+03  0.20277180202E+03  0.00000000000E+00 0. -1.
         13    1    3    3    0    0  0.11621538469E+02  0.31226445740E+02  0.30331754544E+02  0.45057367918E+02  0.00000000000E+00 0.  1.
<mgrwt>
<rscale>  0 0.91429642E+02</rscale>
<asrwt>0</asrwt>
<pdfrwt beam="1">  1        1 0.36782807E-01 0.91429642E+02</pdfrwt>
<pdfrwt beam="2">  1       -1 0.13447528E-02 0.91429642E+02</pdfrwt>
<totfact> 0.12169384E+05</totfact>
</mgrwt>
</event>
<event>
 5    1  0.6079230E+000  0.8994960E+02  0.7546771E-02  0.1302974E+00
          2   -1    0    0  501    0  0.00000000000E+00  0.00000000000E+00  0.69295150083E+02  0.69295150083E+02  0.00000000000E+00 0. -1.
         -2   -1    0    0    0  501 -0.00000000000E+00 -0.00000000000E+00 -0.29190103586E+02  0.29190103586E+02  0.00000000000E+00 0.  1.
         23    2    1    2    0    0  0.00000000000E+00  0.00000000000E+00  0.40105046497E+02  0.98485253668E+02  0.89949599419E+02 0.  0.
        -13    1    3    3    0    0 -0.94801323720E+01  0.13180910588E+02  0.65974451336E+02  0.67942899135E+02  0.00000000000E+00 0. -1.
         13    1    3    3    0    0  0.94801323720E+01 -0.13180910588E+02 -0.25869404840E+02  0.30542354534E+02  0.00000000000E+00 0.  1.
<mgrwt>
<rscale>  0 0.89949599E+02</rscale>
<asrwt>0</asrwt>
<pdfrwt beam="1">  1        2 0.10660792E-01 0.89949599E+02</pdfrwt>
<pdfrwt beam="2">  1       -2 0.44907852E-02 0.89949599E+02</pdfrwt>
<totfact> 0.11456656E+05</totfact>
</mgrwt>
</event>
<event>
 4    1  0.6079230E+000  0.1323391E+03  0.7546771E-02  0.1224026E+00
         -1   -1    0    0    0  501 -0.00000000000E+00  0.00000000000E+00  0.21331093193E+02  0.21331093193E+02  0.00000000000E+00 0.  1.
          1   -1    0    0  501    0  0.00000000000E+00 -0.00000000000E+00 -0.20525964209E+03  0.20525964209E+03  0.00000000000E+00 0. -1.
        -13    1    1    2    0    0 -0.13533348660E+02 -0.43290214554E+02 -0.17445627018E+03  0.18025588591E+03  0.00000000000E+00 0. -1.
         13    1    1    2    0    0  0.13533348660E+02  0.43290214554E+02 -0.94722787209E+01  0.46334849371E+02  0.00000000000E+00 0.  1.
<mgrwt>
<rscale>  0 0.13233915E+03</rscale>
<asrwt>0</asrwt>
<pdfrwt beam="2">  1        1 0.31578406E-01 0.13233915E+03</pdfrwt>
<pdfrwt beam="1">  1       -1 0.32817067E-02 0.13233915E+03</pdfrwt>
<totfact> 0.42887071E+04</totfact>
</mgrwt>
</event>
<event>
 5    1  0.6079230E+000  0.8961265E+02  0.7546771E-02  0.1303792E+00
         -2   -1    0    0    0  501 -0.00000000000E+00  0.00000000000E+00  0.14612083669E+02  0.14612083669E+02  0.00000000000E+00 0. -1.
          2   -1    0    0  501    0  0.00000000000E+00 -0.00000000000E+00 -0.13739358679E+03  0.13739358679E+03  0.00000000000E+00 0.  1.
         23    2    1    2    0    0  0.00000000000E+00  0.00000000000E+00 -0.12278150312E+03  0.15200567046E+03  0.89612646113E+02 0.  0.
        -13    1    3    3    0    0 -0.13907041866E+02  0.42485512488E+02 -0.66530704661E+02  0.80154595923E+02  0.00000000000E+00 0. -1.
         13    1    3    3    0    0  0.13907041866E+02 -0.42485512488E+02 -0.56250798461E+02  0.71851074539E+02  0.00000000000E+00 0.  1.
<mgrwt>
<rscale>  0 0.89612646E+02</rscale>
<asrwt>0</asrwt>
<pdfrwt beam="2">  1        2 0.21137475E-01 0.89612646E+02</pdfrwt>
<pdfrwt beam="1">  1       -2 0.22480129E-02 0.89612646E+02</pdfrwt>
<totfact> 0.14227292E+05</totfact>
</mgrwt>
</event>
<event>
 5    1  0.6079230E+000  0.9288113E+02  0.7546771E-02  0.1296021E+00
         -2   -1    0    0    0  501 -0.00000000000E+00  0.00000000000E+00  0.14887788550E+03  0.14887788550E+03  0.00000000000E+00 0.  1.
          2   -1    0    0  501    0  0.00000000000E+00 -0.00000000000E+00 -0.14486543632E+02  0.14486543632E+02  0.00000000000E+00 0. -1.
         23    2    1    2    0    0  0.00000000000E+00  0.00000000000E+00  0.13439134187E+03  0.16336442913E+03  0.92881127990E+02 0.  0.
        -13    1    3    3    0    0  0.33345350482E+02 -0.95112713452E+01  0.12860167069E+02  0.36983247267E+02  0.00000000000E+00 0. -1.
         13    1    3    3    0    0 -0.33345350482E+02  0.95112713452E+01  0.12153117480E+03  0.12638118187E+03  0.00000000000E+00 0.  1.
<mgrwt>
<rscale>  0 0.92881128E+02</rscale>
<asrwt>0</asrwt>
<pdfrwt beam="2">  1        2 0.22286991E-02 0.92881128E+02</pdfrwt>
<pdfrwt beam="1">  1       -2 0.22904289E-01 0.92881128E+02</pdfrwt>
<totfact> 0.66836668E+04</totfact>
</mgrwt>
</event>
<event>
 5    1  0.6079230E+000  0.9031208E+02  0.7546771E-02  0.1302098E+00
          1   -1    0    0  501    0  0.00000000000E+00  0.00000000000E+00  0.17612393294E+02  0.17612393294E+02  0.00000000000E+00 0. -1.
         -1   -1    0    0    0  501 -0.00000000000E+00 -0.00000000000E+00 -0.11577459868E+03  0.11577459868E+03  0.00000000000E+00 0.  1.
         23    2    1    2    0    0  0.00000000000E+00  0.00000000000E+00 -0.98162205384E+02  0.13338699197E+03  0.90312075946E+02 0.  0.
        -13    1    3    3    0    0  0.87428406507E+01  0.44018419872E+02 -0.41694960206E+02  0.61257883226E+02  0.00000000000E+00 0.  1.
         13    1    3    3    0    0 -0.87428406507E+01 -0.44018419872E+02 -0.56467245178E+02  0.72129108747E+02  0.00000000000E+00 0. -1.
<mgrwt>
<rscale>  0 0.90312076E+02</rscale>
<asrwt>0</asrwt>
<pdfrwt beam="1">  1        1 0.27095990E-02 0.90312076E+02</pdfrwt>
<pdfrwt beam="2">  1       -1 0.17811477E-01 0.90312076E+02</pdfrwt>
<totfact> 0.81072555E+04</totfact>
</mgrwt>
</event>
<event>
 5    1  0.6079230E+000  0.9031551E+02  0.7546771E-02  0.1302089E+00
         -3   -1    0    0    0  501 -0.00000000000E+00  0.00000000000E+00  0.22278713928E+02  0.22278713928E+02  0.00000000000E+00 0.  1.
          3   -1    0    0  501    0  0.00000000000E+00 -0.00000000000E+00 -0.91532348852E+02  0.91532348852E+02  0.00000000000E+00 0. -1.
         23    2    1    2    0    0  0.00000000000E+00  0.00000000000E+00 -0.69253634924E+02  0.11381106278E+03  0.90315513956E+02 0.  0.
        -13    1    3    3    0    0  0.41166373067E+02  0.76951698292E+01 -0.55913169805E+02  0.69858202581E+02  0.00000000000E+00 0. -1.
         13    1    3    3    0    0 -0.41166373067E+02 -0.76951698292E+01 -0.13340465119E+02  0.43952860200E+02  0.00000000000E+00 0.  1.
<mgrwt>
<rscale>  0 0.90315514E+02</rscale>
<asrwt>0</asrwt>
<pdfrwt beam="2">  1        3 0.14081900E-01 0.90315514E+02</pdfrwt>
<pdfrwt beam="1">  1       -3 0.34274945E-02 0.90315514E+02</pdfrwt>
<totfact> 0.34553340E+04</totfact>
</mgrwt>
</event>
<event>
 5    1  0.6079230E+000  0.9772677E+02  0.7546771E-02  0.1285150E+00
          2   -1    0    0  501    0  0.00000000000E+00  0.00000000000E+00  0.36790084517E+02  0.36790084517E+02  0.00000000000E+00 0. -1.
         -2   -1    0    0    0  501 -0.00000000000E+00 -0.00000000000E+00 -0.64898753315E+02  0.64898753315E+02  0.00000000000E+00 0.  1.
         23    2    1    2    0    0  0.00000000000E+00  0.00000000000E+00 -0.28108668799E+02  0.10168883783E+03  0.97726774622E+02 0.  0.
        -13    1    3    3    0    0  0.14139358489E+02  0.16194629929E+02 -0.59713194562E+02  0.63465369311E+02  0.00000000000E+00 0.  1.
         13    1    3    3    0    0 -0.14139358489E+02 -0.16194629929E+02  0.31604525763E+02  0.38223468521E+02  0.00000000000E+00 0. -1.
<mgrwt>
<rscale>  0 0.97726775E+02</rscale>
<asrwt>0</asrwt>
<pdfrwt beam="1">  1        2 0.56600131E-02 0.97726775E+02</pdfrwt>
<pdfrwt beam="2">  1       -2 0.99844234E-02 0.97726775E+02</pdfrwt>
<totfact> 0.76110338E+04</totfact>
</mgrwt>
</event>
<event>
 5    1  0.6079230E+000  0.9063680E+02  0.7546771E-02  0.1301317E+00
          3   -1    0    0  501    0  0.00000000000E+00  0.00000000000E+00  0.18292059848E+03  0.18292059848E+03  0.00000000000E+00 0. -1.
         -3   -1    0    0    0  501 -0.00000000000E+00 -0.00000000000E+00 -0.11227588865E+02  0.11227588865E+02  0.00000000000E+00 0.  1.
         23    2    1    2    0    0  0.00000000000E+00  0.00000000000E+00  0.17169300962E+03  0.19414818735E+03  0.90636797709E+02 0.  0.
        -13    1    3    3    0    0 -0.35222158124E+02  0.18699428483E+02  0.39730875416E+02  0.56292197593E+02  0.00000000000E+00 0.  1.
         13    1    3    3    0    0  0.35222158124E+02 -0.18699428483E+02  0.13196213420E+03  0.13785598975E+03  0.00000000000E+00 0. -1.
<mgrwt>
<rscale>  0 0.90636798E+02</rscale>
<asrwt>0</asrwt>
<pdfrwt beam="1">  1        3 0.28141628E-01 0.90636798E+02</pdfrwt>
<pdfrwt beam="2">  1       -3 0.17273215E-02 0.90636798E+02</pdfrwt>
<totfact> 0.29268946E+04</totfact>
</mgrwt>
</event>
<event>
 5    1  0.6079230E+000  0.8995784E+02  0.7546771E-02  0.1302954E+00
          3   -1    0    0  501    0  0.00000000000E+00  0.00000000000E+00  0.25433708915E+02  0.25433708915E+02  0.00000000000E+00 0. -1.
         -3   -1    0    0    0  501 -0.00000000000E+00 -0.00000000000E+00 -0.79544167484E+02  0.79544167484E+02  0.00000000000E+00 0.  1.
         23    2    1    2    0    0  0.00000000000E+00  0.00000000000E+00 -0.54110458569E+02  0.10497787640E+03  0.89957839051E+02 0.  0.
        -13    1    3    3    0    0 -0.49028599125E+01  0.15786637669E+02  0.21760393787E+02  0.27327105628E+02  0.00000000000E+00 0. -1.
         13    1    3    3    0    0  0.49028599125E+01 -0.15786637669E+02 -0.75870852356E+02  0.77650770772E+02  0.00000000000E+00 0.  1.
<mgrwt>
<rscale>  0 0.89957839E+02</rscale>
<asrwt>0</asrwt>
<pdfrwt beam="1">  1        3 0.39128783E-02 0.89957839E+02</pdfrwt>
<pdfrwt beam="2">  1       -3 0.12237564E-01 0.89957839E+02</pdfrwt>
<totfact> 0.35583998E+04</totfact>
</mgrwt>
</event>
<event>
 5    1  0.6079230E+000  0.9214356E+02  0.7546771E-02  0.1297742E+00
          3   -1    0    0  501    0  0.00000000000E+00  0.00000000000E+00  0.30963035189E+03  0.30963035189E+03  0.00000000000E+00 0. -1.
         -3   -1    0    0    0  501 -0.00000000000E+00 -0.00000000000E+00 -0.68552992992E+01  0.68552992992E+01  0.00000000000E+00 0.  1.
         23    2    1    2    0    0  0.00000000000E+00  0.00000000000E+00  0.30277505259E+03  0.31648565119E+03  0.92143556136E+02 0.  0.
        -13    1    3    3    0    0  0.33179743838E+02 -0.31665993158E+02  0.13642459487E+03  0.14392810917E+03  0.00000000000E+00 0.  1.
         13    1    3    3    0    0 -0.33179743838E+02  0.31665993158E+02  0.16635045773E+03  0.17255754202E+03  0.00000000000E+00 0. -1.
<mgrwt>
<rscale>  0 0.92143556E+02</rscale>
<asrwt>0</asrwt>
<pdfrwt beam="1">  1        3 0.47635428E-01 0.92143556E+02</pdfrwt>
<pdfrwt beam="2">  1       -3 0.10546617E-02 0.92143556E+02</pdfrwt>
<totfact> 0.22753002E+04</totfact>
</mgrwt>
</event>
<event>
 5    1  0.6079230E+000  0.9194323E+02  0.7546771E-02  0.1298213E+00
         -2   -1    0    0    0  501 -0.00000000000E+00  0.00000000000E+00  0.18421177259E+02  0.18421177259E+02  0.00000000000E+00 0.  1.
          2   -1    0    0  501    0  0.00000000000E+00 -0.00000000000E+00 -0.11472607544E+03  0.11472607544E+03  0.00000000000E+00 0. -1.
         23    2    1    2    0    0  0.00000000000E+00  0.00000000000E+00 -0.96304898181E+02  0.13314725270E+03  0.91943229701E+02 0.  0.
        -13    1    3    3    0    0  0.35304738337E+02  0.12404261675E+02 -0.94812709401E+01  0.38602911230E+02  0.00000000000E+00 0.  1.
         13    1    3    3    0    0 -0.35304738337E+02 -0.12404261675E+02 -0.86823627240E+02  0.94544341470E+02  0.00000000000E+00 0. -1.
<mgrwt>
<rscale>  0 0.91943230E+02</rscale>
<asrwt>0</asrwt>
<pdfrwt beam="2">  1        2 0.17650165E-01 0.91943230E+02</pdfrwt>
<pdfrwt beam="1">  1       -2 0.28340273E-02 0.91943230E+02</pdfrwt>
<totfact> 0.12511474E+05</totfact>
</mgrwt>
</event>
<event>
 5    1  0.6079230E+000  0.8306836E+02  0.7546771E-02  0.1320563E+00
         -2   -1    0    0    0  501 -0.00000000000E+00  0.00000000000E+00  0.76056683966E+01  0.76056683966E+01  0.00000000000E+00 0.  1.
          2   -1    0    0  501    0  0.00000000000E+00 -0.00000000000E+00 -0.22681608384E+03  0.22681608384E+03  0.00000000000E+00 0. -1.
         23    2    1    2    0    0  0.00000000000E+00  0.00000000000E+00 -0.21921041544E+03  0.23442175223E+03  0.83068355484E+02 0.  0.
        -13    1    3    3    0    0  0.11430818720E+02 -0.35902513590E+02 -0.15892495680E+03  0.16333032784E+03  0.00000000000E+00 0. -1.
         13    1    3    3    0    0 -0.11430818720E+02  0.35902513590E+02 -0.60285458639E+02  0.71091424391E+02  0.00000000000E+00 0.  1.
<mgrwt>
<rscale>  0 0.83068355E+02</rscale>
<asrwt>0</asrwt>
<pdfrwt beam="2">  1        2 0.34894778E-01 0.83068355E+02</pdfrwt>
<pdfrwt beam="1">  1       -2 0.11701030E-02 0.83068355E+02</pdfrwt>
<totfact> 0.20762678E+05</totfact>
</mgrwt>
</event>
<event>
 5    1  0.6079230E+000  0.8912731E+02  0.7546771E-02  0.1304979E+00
         -1   -1    0    0    0  501 -0.00000000000E+00  0.00000000000E+00  0.23211097478E+02  0.23211097478E+02  0.00000000000E+00 0.  1.
          1   -1    0    0  501    0  0.00000000000E+00 -0.00000000000E+00 -0.85559039910E+02  0.85559039910E+02  0.00000000000E+00 0. -1.
         23    2    1    2    0    0  0.00000000000E+00  0.00000000000E+00 -0.62347942432E+02  0.10877013739E+03  0.89127307050E+02 0.  0.
        -13    1    3    3    0    0 -0.16211881211E+02 -0.14815418664E+02  0.16148202871E+02  0.27259607087E+02  0.00000000000E+00 0.  1.
         13    1    3    3    0    0  0.16211881211E+02  0.14815418664E+02 -0.78496145303E+02  0.81510530301E+02  0.00000000000E+00 0. -1.
<mgrwt>
<rscale>  0 0.89127307E+02</rscale>
<asrwt>0</asrwt>
<pdfrwt beam="2">  1        1 0.13162929E-01 0.89127307E+02</pdfrwt>
<pdfrwt beam="1">  1       -1 0.35709381E-02 0.89127307E+02</pdfrwt>
<totfact> 0.10835246E+05</totfact>
</mgrwt>
</event>
<event>
 5    1  0.6079230E+000  0.1103925E+03  0.7546771E-02  0.1259845E+00
         -2   -1    0    0    0  501 -0.00000000000E+00  0.00000000000E+00  0.21350919652E+02  0.21350919652E+02  0.00000000000E+00 0.  1.
          2   -1    0    0  501    0  0.00000000000E+00 -0.00000000000E+00 -0.14269307622E+03  0.14269307622E+03  0.00000000000E+00 0. -1.
         23    2    1    2    0    0  0.00000000000E+00  0.00000000000E+00 -0.12134215657E+03  0.16404399587E+03  0.11039254332E+03 0.  0.
        -13    1    3    3    0    0  0.53837237992E+02  0.12140302870E+02 -0.59347567452E+02  0.81043006551E+02  0.00000000000E+00 0. -1.
         13    1    3    3    0    0 -0.53837237992E+02 -0.12140302870E+02 -0.61994589114E+02  0.83000989318E+02  0.00000000000E+00 0.  1.
<mgrwt>
<rscale>  0 0.11039254E+03</rscale>
<asrwt>0</asrwt>
<pdfrwt beam="2">  1        2 0.21952781E-01 0.11039254E+03</pdfrwt>
<pdfrwt beam="1">  1       -2 0.32847568E-02 0.11039254E+03</pdfrwt>
<totfact> 0.81171434E+04</totfact>
</mgrwt>
</event>
<event>
 5    1  0.6079230E+000  0.9155724E+02  0.7546771E-02  0.1299124E+00
          1   -1    0    0  501    0  0.00000000000E+00  0.00000000000E+00  0.15401226066E+03  0.15401226066E+03  0.00000000000E+00 0. -1.
         -1   -1    0    0    0  501 -0.00000000000E+00 -0.00000000000E+00 -0.13607240996E+02  0.13607240996E+02  0.00000000000E+00 0.  1.
         23    2    1    2    0    0  0.00000000000E+00  0.00000000000E+00  0.14040501967E+03  0.16761950166E+03  0.91557237775E+02 0.  0.
        -13    1    3    3    0    0 -0.13617670276E+02 -0.21175316895E+02  0.14020005629E+03  0.14244258764E+03  0.00000000000E+00 0. -1.
         13    1    3    3    0    0  0.13617670276E+02  0.21175316895E+02  0.20496337076E+00  0.25176914015E+02  0.00000000000E+00 0.  1.
<mgrwt>
<rscale>  0 0.91557238E+02</rscale>
<asrwt>0</asrwt>
<pdfrwt beam="1">  1        1 0.23694193E-01 0.91557238E+02</pdfrwt>
<pdfrwt beam="2">  1       -1 0.20934218E-02 0.91557238E+02</pdfrwt>
<totfact> 0.11142054E+05</totfact>
</mgrwt>
</event>
<event>
 5    1  0.6079230E+000  0.8490092E+02  0.7546771E-02  0.1315692E+00
         -3   -1    0    0    0  501 -0.00000000000E+00  0.00000000000E+00  0.23915481793E+02  0.23915481793E+02  0.00000000000E+00 0.  1.
          3   -1    0    0  501    0  0.00000000000E+00 -0.00000000000E+00 -0.75350421443E+02  0.75350421443E+02  0.00000000000E+00 0. -1.
         23    2    1    2    0    0  0.00000000000E+00  0.00000000000E+00 -0.51434939650E+02  0.99265903236E+02  0.84900921835E+02 0.  0.
        -13    1    3    3    0    0 -0.59238195003E+01 -0.15686787793E+02 -0.71314274386E+02  0.73259079164E+02  0.00000000000E+00 0. -1.
         13    1    3    3    0    0  0.59238195003E+01  0.15686787793E+02  0.19879334736E+02  0.26006824072E+02  0.00000000000E+00 0.  1.
<mgrwt>
<rscale>  0 0.84900922E+02</rscale>
<asrwt>0</asrwt>
<pdfrwt beam="2">  1        3 0.11592372E-01 0.84900922E+02</pdfrwt>
<pdfrwt beam="1">  1       -3 0.36793049E-02 0.84900922E+02</pdfrwt>
<totfact> 0.42118744E+04</totfact>
</mgrwt>
</event>
<event>
 5    1  0.6079230E+000  0.8900065E+02  0.7546771E-02  0.1305290E+00
          2   -1    0    0  501    0  0.00000000000E+00  0.00000000000E+00  0.63180416664E+02  0.63180416664E+02  0.00000000000E+00 0. -1.
         -2   -1    0    0    0  501 -0.00000000000E+00 -0.00000000000E+00 -0.31343242136E+02  0.31343242136E+02  0.00000000000E+00 0.  1.
         23    2    1    2    0    0  0.00000000000E+00  0.00000000000E+00  0.31837174528E+02  0.94523658801E+02  0.89000653881E+02 0.  0.
        -13    1    3    3    0    0 -0.52216188354E+01 -0.32926902303E+02 -0.15386538675E+02  0.36717731015E+02  0.00000000000E+00 0.  1.
         13    1    3    3    0    0  0.52216188354E+01  0.32926902303E+02  0.47223713203E+02  0.57805927786E+02  0.00000000000E+00 0. -1.
<mgrwt>
<rscale>  0 0.89000654E+02</rscale>
<asrwt>0</asrwt>
<pdfrwt beam="1">  1        2 0.97200641E-02 0.89000654E+02</pdfrwt>
<pdfrwt beam="2">  1       -2 0.48220373E-02 0.89000654E+02</pdfrwt>
<totfact> 0.11509587E+05</totfact>
</mgrwt>
</event>
<event>
 5    1  0.6079230E+000  0.9281242E+02  0.7546771E-02  0.1296180E+00
          3   -1    0    0  501    0  0.00000000000E+00  0.00000000000E+00  0.15768555094E+03  0.15768555094E+03  0.00000000000E+00 0. -1.
         -3   -1    0    0    0  501 -0.00000000000E+00 -0.00000000000E+00 -0.13657155981E+02  0.13657155981E+02  0.00000000000E+00 0.  1.
         23    2    1    2    0    0  0.00000000000E+00  0.00000000000E+00  0.14402839496E+03  0.17134270692E+03  0.92812416521E+02 0.  0.
        -13    1    3    3    0    0  0.17483178070E+02  0.33317842460E+02  0.21869190230E+02  0.43520128940E+02  0.00000000000E+00 0.  1.
         13    1    3    3    0    0 -0.17483178070E+02 -0.33317842460E+02  0.12215920473E+03  0.12782257798E+03  0.00000000000E+00 0. -1.
<mgrwt>
<rscale>  0 0.92812417E+02</rscale>
<asrwt>0</asrwt>
<pdfrwt beam="1">  1        3 0.24259314E-01 0.92812417E+02</pdfrwt>
<pdfrwt beam="2">  1       -3 0.21011010E-02 0.92812417E+02</pdfrwt>
<totfact> 0.28636392E+04</totfact>
</mgrwt>
</event>
<event>
 5    1  0.6079230E+000  0.9115425E+02  0.7546771E-02  0.1300080E+00
         -4   -1    0    0    0  501 -0.00000000000E+00  0.00000000000E+00  0.34043830286E+02  0.34043830286E+02  0.00000000000E+00 0.  1.
          4   -1    0    0  501    0  0.00000000000E+00 -0.00000000000E+00 -0.61017644921E+02  0.61017644921E+02  0.00000000000E+00 0. -1.
         23    2    1    2    0    0  0.00000000000E+00  0.00000000000E+00 -0.26973814635E+02  0.95061475207E+02  0.91154250546E+02 0.  0.
        -13    1    3    3    0    0 -0.16698179697E+02 -0.25498564637E+01  0.30658930742E+02  0.35004299842E+02  0.00000000000E+00 0.  1.
         13    1    3    3    0    0  0.16698179697E+02  0.25498564637E+01 -0.57632745377E+02  0.60057175365E+02  0.00000000000E+00 0. -1.
<mgrwt>
<rscale>  0 0.91154251E+02</rscale>
<asrwt>0</asrwt>
<pdfrwt beam="2">  1        4 0.93873300E-02 0.91154251E+02</pdfrwt>
<pdfrwt beam="1">  1       -4 0.52375124E-02 0.91154251E+02</pdfrwt>
<totfact> 0.26785915E+04</totfact>
</mgrwt>
</event>
<event>
 5    1  0.6079230E+000  0.1108199E+03  0.7546771E-02  0.1259059E+00
          2   -1    0    0  501    0  0.00000000000E+00  0.00000000000E+00  0.42794330213E+02  0.42794330213E+02  0.00000000000E+00 0. -1.
         -2   -1    0    0    0  501 -0.00000000000E+00 -0.00000000000E+00 -0.71744613758E+02  0.71744613758E+02  0.00000000000E+00 0.  1.
         23    2    1    2    0    0  0.00000000000E+00  0.00000000000E+00 -0.28950283545E+02  0.11453894397E+03  0.11081990240E+03 0.  0.
        -13    1    3    3    0    0 -0.22137969637E+02  0.28208150068E+02 -0.58135815585E+02  0.68304922836E+02  0.00000000000E+00 0.  1.
         13    1    3    3    0    0  0.22137969637E+02 -0.28208150068E+02  0.29185532039E+02  0.46234021135E+02  0.00000000000E+00 0. -1.
<mgrwt>
<rscale>  0 0.11081990E+03</rscale>
<asrwt>0</asrwt>
<pdfrwt beam="1">  1        2 0.65837431E-02 0.11081990E+03</pdfrwt>
<pdfrwt beam="2">  1       -2 0.11037633E-01 0.11081990E+03</pdfrwt>
<totfact> 0.54616985E+04</totfact>
</mgrwt>
</event>
<event>
 5    1  0.6079230E+000  0.9017947E+02  0.7546771E-02  0.1302418E+00
          4   -1    0    0  501    0  0.00000000000E+00  0.00000000000E+00  0.29747449273E+02  0.29747449273E+02  0.00000000000E+00 0. -1.
         -4   -1    0    0    0  501 -0.00000000000E+00 -0.00000000000E+00 -0.68344818350E+02  0.68344818350E+02  0.00000000000E+00 0.  1.
         23    2    1    2    0    0  0.00000000000E+00  0.00000000000E+00 -0.38597369078E+02  0.98092267623E+02  0.90179465888E+02 0.  0.
        -13    1    3    3    0    0 -0.39772765334E+02 -0.13367081476E+02 -0.13415888743E+01  0.41980371487E+02  0.00000000000E+00 0. -1.
         13    1    3    3    0    0  0.39772765334E+02  0.13367081476E+02 -0.37255780203E+02  0.56111896136E+02  0.00000000000E+00 0.  1.
<mgrwt>
<rscale>  0 0.90179466E+02</rscale>
<asrwt>0</asrwt>
<pdfrwt beam="1">  1        4 0.45765307E-02 0.90179466E+02</pdfrwt>
<pdfrwt beam="2">  1       -4 0.10514587E-01 0.90179466E+02</pdfrwt>
<totfact> 0.27379497E+04</totfact>
</mgrwt>
</event>
<event>
 5    1  0.6079230E+000  0.1013889E+03  0.7546771E-02  0.1277402E+00
         -2   -1    0    0    0  501 -0.00000000000E+00  0.00000000000E+00  0.10635691313E+03  0.10635691313E+03  0.00000000000E+00 0.  1.
          2   -1    0    0  501    0  0.00000000000E+00 -0.00000000000E+00 -0.24163241348E+02  0.24163241348E+02  0.00000000000E+00 0. -1.
         23    2    1    2    0    0  0.00000000000E+00  0.00000000000E+00  0.82193671787E+02  0.13052015448E+03  0.10138890987E+03 0.  0.
        -13    1    3    3    0    0  0.34341828399E+02 -0.34618830474E+02  0.58939281437E+02  0.76496166554E+02  0.00000000000E+00 0.  1.
         13    1    3    3    0    0 -0.34341828399E+02  0.34618830474E+02  0.23254390350E+02  0.54023987929E+02  0.00000000000E+00 0. -1.
<mgrwt>
<rscale>  0 0.10138891E+03</rscale>
<asrwt>0</asrwt>
<pdfrwt beam="2">  1        2 0.37174218E-02 0.10138891E+03</pdfrwt>
<pdfrwt beam="1">  1       -2 0.16362602E-01 0.10138891E+03</pdfrwt>
<totfact> 0.60108785E+04</totfact>
</mgrwt>
</event>
<event>
 5    1  0.6079230E+000  0.9103481E+02  0.7546771E-02  0.1300365E+00
          1   -1    0    0  501    0  0.00000000000E+00  0.00000000000E+00  0.29665795279E+02  0.29665795279E+02  0.00000000000E+00 0. -1.
         -1   -1    0    0    0  501 -0.00000000000E+00 -0.00000000000E+00 -0.69839164439E+02  0.69839164439E+02  0.00000000000E+00 0.  1.
         23    2    1    2    0    0  0.00000000000E+00  0.00000000000E+00 -0.40173369159E+02  0.99504959718E+02  0.91034814323E+02 0.  0.
        -13    1    3    3    0    0  0.30998428901E+00  0.36891232066E+02 -0.49227612002E+02  0.61517614364E+02  0.00000000000E+00 0.  1.
         13    1    3    3    0    0 -0.30998428901E+00 -0.36891232066E+02  0.90542428423E+01  0.37987345354E+02  0.00000000000E+00 0. -1.
<mgrwt>
<rscale>  0 0.91034814E+02</rscale>
<asrwt>0</asrwt>
<pdfrwt beam="1">  1        1 0.45639686E-02 0.91034814E+02</pdfrwt>
<pdfrwt beam="2">  1       -1 0.10744487E-01 0.91034814E+02</pdfrwt>
<totfact> 0.86916577E+04</totfact>
</mgrwt>
</event>
<event>
 5    1  0.6079230E+000  0.1072276E+03  0.7546771E-02  0.1265792E+00
          1   -1    0    0  501    0  0.00000000000E+00  0.00000000000E+00  0.98434252068E+01  0.98434252068E+01  0.00000000000E+00 0. -1.
         -1   -1    0    0    0  501 -0.00000000000E+00 -0.00000000000E+00 -0.29201616398E+03  0.29201616398E+03  0.00000000000E+00 0.  1.
         23    2    1    2    0    0  0.00000000000E+00  0.00000000000E+00 -0.28217273878E+03  0.30185958919E+03  0.10722759476E+03 0.  0.
        -13    1    3    3    0    0  0.46308272843E+02  0.93670040795E+01 -0.69743940813E+02  0.84240217113E+02  0.00000000000E+00 0. -1.
         13    1    3    3    0    0 -0.46308272843E+02 -0.93670040795E+01 -0.21242879796E+03  0.21761937208E+03  0.00000000000E+00 0.  1.
<mgrwt>
<rscale>  0 0.10722759E+03</rscale>
<asrwt>0</asrwt>
<pdfrwt beam="1">  1        1 0.15143731E-02 0.10722759E+03</pdfrwt>
<pdfrwt beam="2">  1       -1 0.44925564E-01 0.10722759E+03</pdfrwt>
<totfact> 0.39975835E+04</totfact>
</mgrwt>
</event>
<event>
 5    1  0.6079230E+000  0.9492240E+02  0.7546771E-02  0.1291351E+00
          2   -1    0    0  501    0  0.00000000000E+00  0.00000000000E+00  0.91031880490E+02  0.91031880490E+02  0.00000000000E+00 0. -1.
         -2   -1    0    0    0  501 -0.00000000000E+00 -0.00000000000E+00 -0.24744797716E+02  0.24744797716E+02  0.00000000000E+00 0.  1.
         23    2    1    2    0    0  0.00000000000E+00  0.00000000000E+00  0.66287082773E+02  0.11577667821E+03  0.94922399221E+02 0.  0.
        -13    1    3    3    0    0 -0.15142153141E+02  0.35818109088E+02  0.66330624191E+02  0.76889358470E+02  0.00000000000E+00 0. -1.
         13    1    3    3    0    0  0.15142153141E+02 -0.35818109088E+02 -0.43541417816E-01  0.38887319736E+02  0.00000000000E+00 0.  1.
<mgrwt>
<rscale>  0 0.94922399E+02</rscale>
<asrwt>0</asrwt>
<pdfrwt beam="1">  1        2 0.14004904E-01 0.94922399E+02</pdfrwt>
<pdfrwt beam="2">  1       -2 0.38068920E-02 0.94922399E+02</pdfrwt>
<totfact> 0.10665674E+05</totfact>
</mgrwt>
</event>
<event>
 5    1  0.6079230E+000  0.8944853E+02  0.7546771E-02  0.1304193E+00
          2   -1    0    0  501    0  0.00000000000E+00  0.00000000000E+00  0.23775386344E+02  0.23775386344E+02  0.00000000000E+00 0. -1.
         -2   -1    0    0    0  501 -0.00000000000E+00 -0.00000000000E+00 -0.84131538289E+02  0.84131538289E+02  0.00000000000E+00 0.  1.
         23    2    1    2    0    0  0.00000000000E+00  0.00000000000E+00 -0.60356151945E+02  0.10790692463E+03  0.89448528810E+02 0.  0.
        -13    1    3    3    0    0 -0.25768984534E+02  0.36092611981E+02 -0.37164816649E+02  0.57861393002E+02  0.00000000000E+00 0.  1.
         13    1    3    3    0    0  0.25768984534E+02 -0.36092611981E+02 -0.23191335295E+02  0.50045531632E+02  0.00000000000E+00 0. -1.
<mgrwt>
<rscale>  0 0.89448529E+02</rscale>
<asrwt>0</asrwt>
<pdfrwt beam="1">  1        2 0.36577518E-02 0.89448529E+02</pdfrwt>
<pdfrwt beam="2">  1       -2 0.12943314E-01 0.89448529E+02</pdfrwt>
<totfact> 0.87944420E+04</totfact>
</mgrwt>
</event>
<event>
 5    1  0.6079230E+000  0.9116418E+02  0.7546771E-02  0.1300057E+00
          1   -1    0    0  501    0  0.00000000000E+00  0.00000000000E+00  0.96508938484E+02  0.96508938484E+02  0.00000000000E+00 0. -1.
         -1   -1    0    0    0  501 -0.00000000000E+00 -0.00000000000E+00 -0.21528856759E+02  0.21528856759E+02  0.00000000000E+00 0.  1.
         23    2    1    2    0    0  0.00000000000E+00  0.00000000000E+00  0.74980081725E+02  0.11803779524E+03  0.91164184032E+02 0.  0.
        -13    1    3    3    0    0 -0.31660779333E+02 -0.19727060455E+02  0.71406554206E+02  0.80563377820E+02  0.00000000000E+00 0. -1.
         13    1    3    3    0    0  0.31660779333E+02  0.19727060455E+02  0.35735275185E+01  0.37474417422E+02  0.00000000000E+00 0.  1.
<mgrwt>
<rscale>  0 0.91164184E+02</rscale>
<asrwt>0</asrwt>
<pdfrwt beam="1">  1        1 0.14847529E-01 0.91164184E+02</pdfrwt>
<pdfrwt beam="2">  1       -1 0.33121319E-02 0.91164184E+02</pdfrwt>
<totfact> 0.10387845E+05</totfact>
</mgrwt>
</event>
<event>
 5    1  0.6079230E+000  0.9174636E+02  0.7546771E-02  0.1298677E+00
         -1   -1    0    0    0  501 -0.00000000000E+00  0.00000000000E+00  0.75353819053E+02  0.75353819053E+02  0.00000000000E+00 0.  1.
          1   -1    0    0  501    0  0.00000000000E+00 -0.00000000000E+00 -0.27926238161E+02  0.27926238161E+02  0.00000000000E+00 0. -1.
         23    2    1    2    0    0  0.00000000000E+00  0.00000000000E+00  0.47427580893E+02  0.10328005721E+03  0.91746361175E+02 0.  0.
        -13    1    3    3    0    0  0.41231284461E+02  0.25308683891E+01  0.46169563319E+02  0.61952019258E+02  0.00000000000E+00 0.  1.
         13    1    3    3    0    0 -0.41231284461E+02 -0.25308683891E+01  0.12580175739E+01  0.41328037956E+02  0.00000000000E+00 0. -1.
<mgrwt>
<rscale>  0 0.91746361E+02</rscale>
<asrwt>0</asrwt>
<pdfrwt beam="2">  1        1 0.42963444E-02 0.91746361E+02</pdfrwt>
<pdfrwt beam="1">  1       -1 0.11592895E-01 0.91746361E+02</pdfrwt>
<totfact> 0.84150990E+04</totfact>
</mgrwt>
</event>
<event>
 5    1  0.6079230E+000  0.9049477E+02  0.7546771E-02  0.1301658E+00
          4   -1    0    0  501    0  0.00000000000E+00  0.00000000000E+00  0.28592723717E+02  0.28592723717E+02  0.00000000000E+00 0.  1.
         -4   -1    0    0    0  501 -0.00000000000E+00 -0.00000000000E+00 -0.71603032057E+02  0.71603032057E+02  0.00000000000E+00 0. -1.
         23    2    1    2    0    0  0.00000000000E+00  0.00000000000E+00 -0.43010308340E+02  0.10019575577E+03  0.90494766984E+02 0.  0.
        -13    1    3    3    0    0 -0.11447215654E+02 -0.43723816176E+02 -0.19152553170E+02  0.49087993849E+02  0.00000000000E+00 0. -1.
         13    1    3    3    0    0  0.11447215654E+02  0.43723816176E+02 -0.23857755171E+02  0.51107761925E+02  0.00000000000E+00 0.  1.
<mgrwt>
<rscale>  0 0.90494767E+02</rscale>
<asrwt>0</asrwt>
<pdfrwt beam="1">  1        4 0.43988806E-02 0.90494767E+02</pdfrwt>
<pdfrwt beam="2">  1       -4 0.11015851E-01 0.90494767E+02</pdfrwt>
<totfact> 0.26988905E+04</totfact>
</mgrwt>
</event>
<event>
 5    1  0.6079230E+000  0.9082028E+02  0.7546771E-02  0.1300877E+00
         -2   -1    0    0    0  501 -0.00000000000E+00  0.00000000000E+00  0.45416137956E+01  0.45416137956E+01  0.00000000000E+00 0.  1.
          2   -1    0    0  501    0  0.00000000000E+00 -0.00000000000E+00 -0.45404147806E+03  0.45404147806E+03  0.00000000000E+00 0. -1.
         23    2    1    2    0    0  0.00000000000E+00  0.00000000000E+00 -0.44949986426E+03  0.45858309185E+03  0.90820284970E+02 0.  0.
        -13    1    3    3    0    0 -0.20920571706E+01  0.45357999520E+02 -0.22776357930E+03  0.23224550131E+03  0.00000000000E+00 0.  1.
         13    1    3    3    0    0  0.20920571706E+01 -0.45357999520E+02 -0.22173628496E+03  0.22633759054E+03  0.00000000000E+00 0. -1.
<mgrwt>
<rscale>  0 0.90820285E+02</rscale>
<asrwt>0</asrwt>
<pdfrwt beam="2">  1        2 0.69852526E-01 0.90820285E+02</pdfrwt>
<pdfrwt beam="1">  1       -2 0.69870990E-03 0.90820285E+02</pdfrwt>
<totfact> 0.21085483E+05</totfact>
</mgrwt>
</event>
<event>
 5    1  0.6079230E+000  0.9094956E+02  0.7546771E-02  0.1300568E+00
         -1   -1    0    0    0  501 -0.00000000000E+00  0.00000000000E+00  0.34006143290E+02  0.34006143290E+02  0.00000000000E+00 0.  1.
          1   -1    0    0  501    0  0.00000000000E+00 -0.00000000000E+00 -0.60811242218E+02  0.60811242218E+02  0.00000000000E+00 0. -1.
         23    2    1    2    0    0  0.00000000000E+00  0.00000000000E+00 -0.26805098928E+02  0.94817385508E+02  0.90949564409E+02 0.  0.
        -13    1    3    3    0    0  0.15970451197E+02 -0.75059792292E+01 -0.57096261637E+02  0.59761008430E+02  0.00000000000E+00 0. -1.
         13    1    3    3    0    0 -0.15970451197E+02  0.75059792292E+01  0.30291162709E+02  0.35056377079E+02  0.00000000000E+00 0.  1.
<mgrwt>
<rscale>  0 0.90949564E+02</rscale>
<asrwt>0</asrwt>
<pdfrwt beam="2">  1        1 0.93555758E-02 0.90949564E+02</pdfrwt>
<pdfrwt beam="1">  1       -1 0.52317143E-02 0.90949564E+02</pdfrwt>
<totfact> 0.97238033E+04</totfact>
</mgrwt>
</event>
<event>
 5    1  0.6079230E+000  0.9201448E+02  0.7546771E-02  0.1298045E+00
          2   -1    0    0  501    0  0.00000000000E+00  0.00000000000E+00  0.23746134745E+03  0.23746134745E+03  0.00000000000E+00 0. -1.
         -2   -1    0    0    0  501 -0.00000000000E+00 -0.00000000000E+00 -0.89137297111E+01  0.89137297111E+01  0.00000000000E+00 0.  1.
         23    2    1    2    0    0  0.00000000000E+00  0.00000000000E+00  0.22854761774E+03  0.24637507716E+03  0.92014482948E+02 0.  0.
        -13    1    3    3    0    0 -0.42313116578E+02 -0.18062507594E+02  0.11457019671E+03  0.12346248009E+03  0.00000000000E+00 0. -1.
         13    1    3    3    0    0  0.42313116578E+02  0.18062507594E+02  0.11397742103E+03  0.12291259707E+03  0.00000000000E+00 0.  1.
<mgrwt>
<rscale>  0 0.92014483E+02</rscale>
<asrwt>0</asrwt>
<pdfrwt beam="1">  1        2 0.36532510E-01 0.92014483E+02</pdfrwt>
<pdfrwt beam="2">  1       -2 0.13713432E-02 0.92014483E+02</pdfrwt>
<totfact> 0.16070546E+05</totfact>
</mgrwt>
</event>
<event>
 5    1  0.6079230E+000  0.8952498E+02  0.7546771E-02  0.1304006E+00
          1   -1    0    0  501    0  0.00000000000E+00  0.00000000000E+00  0.50331144562E+02  0.50331144562E+02  0.00000000000E+00 0. -1.
         -1   -1    0    0    0  501 -0.00000000000E+00 -0.00000000000E+00 -0.39809954734E+02  0.39809954734E+02  0.00000000000E+00 0.  1.
         23    2    1    2    0    0  0.00000000000E+00  0.00000000000E+00  0.10521189828E+02  0.90141099296E+02  0.89524981692E+02 0.  0.
        -13    1    3    3    0    0  0.12705322317E+02  0.19527293890E+01 -0.37911547570E+02  0.40031535149E+02  0.00000000000E+00 0.  1.
         13    1    3    3    0    0 -0.12705322317E+02 -0.19527293890E+01  0.48432737397E+02  0.50109564147E+02  0.00000000000E+00 0. -1.
<mgrwt>
<rscale>  0 0.89524982E+02</rscale>
<asrwt>0</asrwt>
<pdfrwt beam="1">  1        1 0.77432531E-02 0.89524982E+02</pdfrwt>
<pdfrwt beam="2">  1       -1 0.61246084E-02 0.89524982E+02</pdfrwt>
<totfact> 0.98765174E+04</totfact>
</mgrwt>
</event>
<event>
 5    1  0.6079230E+000  0.9073780E+02  0.7546771E-02  0.1301075E+00
          3   -1    0    0  501    0  0.00000000000E+00  0.00000000000E+00  0.56998601194E+02  0.56998601194E+02  0.00000000000E+00 0. -1.
         -3   -1    0    0    0  501 -0.00000000000E+00 -0.00000000000E+00 -0.36112063869E+02  0.36112063869E+02  0.00000000000E+00 0.  1.
         23    2    1    2    0    0  0.00000000000E+00  0.00000000000E+00  0.20886537325E+02  0.93110665064E+02  0.90737800872E+02 0.  0.
        -13    1    3    3    0    0  0.62737766630E+01 -0.24105655778E+02 -0.28467933371E+02  0.37826791359E+02  0.00000000000E+00 0.  1.
         13    1    3    3    0    0 -0.62737766630E+01  0.24105655778E+02  0.49354470696E+02  0.55283873705E+02  0.00000000000E+00 0. -1.
<mgrwt>
<rscale>  0 0.90737801E+02</rscale>
<asrwt>0</asrwt>
<pdfrwt beam="1">  1        3 0.87690156E-02 0.90737801E+02</pdfrwt>
<pdfrwt beam="2">  1       -3 0.55557021E-02 0.90737801E+02</pdfrwt>
<totfact> 0.35655880E+04</totfact>
</mgrwt>
</event>
<event>
 5    1  0.6079230E+000  0.9366806E+02  0.7546771E-02  0.1294204E+00
         -2   -1    0    0    0  501 -0.00000000000E+00  0.00000000000E+00  0.10553140066E+03  0.10553140066E+03  0.00000000000E+00 0.  1.
          2   -1    0    0  501    0  0.00000000000E+00 -0.00000000000E+00 -0.20784585492E+02  0.20784585492E+02  0.00000000000E+00 0. -1.
         23    2    1    2    0    0  0.00000000000E+00  0.00000000000E+00  0.84746815173E+02  0.12631598616E+03  0.93668061135E+02 0.  0.
        -13    1    3    3    0    0 -0.39870122351E+02 -0.18534409669E+02  0.20617191422E+02  0.48561503068E+02  0.00000000000E+00 0. -1.
         13    1    3    3    0    0  0.39870122351E+02  0.18534409669E+02  0.64129623751E+02  0.77754483089E+02  0.00000000000E+00 0.  1.
<mgrwt>
<rscale>  0 0.93668061E+02</rscale>
<asrwt>0</asrwt>
<pdfrwt beam="2">  1        2 0.31976286E-02 0.93668061E+02</pdfrwt>
<pdfrwt beam="1">  1       -2 0.16235600E-01 0.93668061E+02</pdfrwt>
<totfact> 0.73409678E+04</totfact>
</mgrwt>
</event>
<event>
 5    1  0.6079230E+000  0.9126449E+02  0.7546771E-02  0.1299818E+00
          2   -1    0    0  501    0  0.00000000000E+00  0.00000000000E+00  0.98149662979E+02  0.98149662979E+02  0.00000000000E+00 0. -1.
         -2   -1    0    0    0  501 -0.00000000000E+00 -0.00000000000E+00 -0.21215578760E+02  0.21215578760E+02  0.00000000000E+00 0.  1.
         23    2    1    2    0    0  0.00000000000E+00  0.00000000000E+00  0.76934084219E+02  0.11936524174E+03  0.91264492662E+02 0.  0.
        -13    1    3    3    0    0 -0.68230587725E+01  0.44299976309E+02  0.27272428215E+02  0.52467393424E+02  0.00000000000E+00 0.  1.
         13    1    3    3    0    0  0.68230587725E+01 -0.44299976309E+02  0.49661656004E+02  0.66897848314E+02  0.00000000000E+00 0. -1.
<mgrwt>
<rscale>  0 0.91264493E+02</rscale>
<asrwt>0</asrwt>
<pdfrwt beam="1">  1        2 0.15099948E-01 0.91264493E+02</pdfrwt>
<pdfrwt beam="2">  1       -2 0.32639353E-02 0.91264493E+02</pdfrwt>
<totfact> 0.12165947E+05</totfact>
</mgrwt>
</event>
<event>
 5    1  0.6079230E+000  0.9458896E+02  0.7546771E-02  0.1292105E+00
         -2   -1    0    0    0  501 -0.00000000000E+00  0.00000000000E+00  0.23430225327E+02  0.23430225327E+02  0.00000000000E+00 0.  1.
          2   -1    0    0  501    0  0.00000000000E+00 -0.00000000000E+00 -0.95465054544E+02  0.95465054544E+02  0.00000000000E+00 0. -1.
         23    2    1    2    0    0  0.00000000000E+00  0.00000000000E+00 -0.72034829218E+02  0.11889527987E+03  0.94588957892E+02 0.  0.
        -13    1    3    3    0    0 -0.37184599299E+02 -0.44279197380E+01  0.29279153810E+00  0.37448452907E+02  0.00000000000E+00 0.  1.
         13    1    3    3    0    0  0.37184599299E+02  0.44279197380E+01 -0.72327620756E+02  0.81446826964E+02  0.00000000000E+00 0. -1.
<mgrwt>
<rscale>  0 0.94588958E+02</rscale>
<asrwt>0</asrwt>
<pdfrwt beam="2">  1        2 0.14686931E-01 0.94588958E+02</pdfrwt>
<pdfrwt beam="1">  1       -2 0.36046501E-02 0.94588958E+02</pdfrwt>
<totfact> 0.10926860E+05</totfact>
</mgrwt>
</event>
<event>
 5    1  0.6079230E+000  0.9065180E+02  0.7546771E-02  0.1301281E+00
         -2   -1    0    0    0  501 -0.00000000000E+00  0.00000000000E+00  0.86127301243E+02  0.86127301243E+02  0.00000000000E+00 0.  1.
          2   -1    0    0  501    0  0.00000000000E+00 -0.00000000000E+00 -0.23853495080E+02  0.23853495080E+02  0.00000000000E+00 0. -1.
         23    2    1    2    0    0  0.00000000000E+00  0.00000000000E+00  0.62273806163E+02  0.10998079632E+03  0.90651798800E+02 0.  0.
        -13    1    3    3    0    0  0.16749751471E+02 -0.71123175846E+01 -0.19227143355E+02  0.26473048131E+02  0.00000000000E+00 0. -1.
         13    1    3    3    0    0 -0.16749751471E+02  0.71123175846E+01  0.81500949518E+02  0.83507748192E+02  0.00000000000E+00 0.  1.
<mgrwt>
<rscale>  0 0.90651799E+02</rscale>
<asrwt>0</asrwt>
<pdfrwt beam="2">  1        2 0.36697685E-02 0.90651799E+02</pdfrwt>
<pdfrwt beam="1">  1       -2 0.13250354E-01 0.90651799E+02</pdfrwt>
<totfact> 0.84538357E+04</totfact>
</mgrwt>
</event>
<event>
 5    1  0.6079230E+000  0.9140906E+02  0.7546771E-02  0.1299475E+00
          2   -1    0    0  501    0  0.00000000000E+00  0.00000000000E+00  0.15500291066E+02  0.15500291066E+02  0.00000000000E+00 0.  1.
         -2   -1    0    0    0  501 -0.00000000000E+00 -0.00000000000E+00 -0.13476548306E+03  0.13476548306E+03  0.00000000000E+00 0. -1.
         23    2    1    2    0    0  0.00000000000E+00  0.00000000000E+00 -0.11926519200E+03  0.15026577413E+03  0.91409063293E+02 0.  0.
        -13    1    3    3    0    0  0.20774229230E+02 -0.22741222619E+02 -0.41245323337E+01  0.31076415065E+02  0.00000000000E+00 0.  1.
         13    1    3    3    0    0 -0.20774229230E+02  0.22741222619E+02 -0.11514065966E+03  0.11918935906E+03  0.00000000000E+00 0. -1.
<mgrwt>
<rscale>  0 0.91409063E+02</rscale>
<asrwt>0</asrwt>
<pdfrwt beam="1">  1        2 0.23846602E-02 0.91409063E+02</pdfrwt>
<pdfrwt beam="2">  1       -2 0.20733151E-01 0.91409063E+02</pdfrwt>
<totfact> 0.72088768E+04</totfact>
</mgrwt>
</event>
<event>
 5    1  0.6079230E+000  0.9123251E+02  0.7546771E-02  0.1299894E+00
          2   -1    0    0  501    0  0.00000000000E+00  0.00000000000E+00  0.60678971032E+02  0.60678971032E+02  0.00000000000E+00 0. -1.
         -2   -1    0    0    0  501 -0.00000000000E+00 -0.00000000000E+00 -0.34292648067E+02  0.34292648067E+02  0.00000000000E+00 0.  1.
         23    2    1    2    0    0  0.00000000000E+00  0.00000000000E+00  0.26386322965E+02  0.94971619099E+02  0.91232507335E+02 0.  0.
        -13    1    3    3    0    0  0.27976306027E+02 -0.19295930463E+02  0.44867769972E+02  0.56286085435E+02  0.00000000000E+00 0. -1.
         13    1    3    3    0    0 -0.27976306027E+02  0.19295930463E+02 -0.18481447007E+02  0.38685533663E+02  0.00000000000E+00 0.  1.
<mgrwt>
<rscale>  0 0.91232507E+02</rscale>
<asrwt>0</asrwt>
<pdfrwt beam="1">  1        2 0.93352263E-02 0.91232507E+02</pdfrwt>
<pdfrwt beam="2">  1       -2 0.52757920E-02 0.91232507E+02</pdfrwt>
<totfact> 0.10620729E+05</totfact>
</mgrwt>
</event>
<event>
 5    1  0.6079230E+000  0.9029185E+02  0.7546771E-02  0.1302146E+00
          3   -1    0    0  501    0  0.00000000000E+00  0.00000000000E+00  0.21582897244E+02  0.21582897244E+02  0.00000000000E+00 0.  1.
         -3   -1    0    0    0  501 -0.00000000000E+00 -0.00000000000E+00 -0.94433771338E+02  0.94433771338E+02  0.00000000000E+00 0. -1.
         23    2    1    2    0    0  0.00000000000E+00  0.00000000000E+00 -0.72850874094E+02  0.11601666858E+03  0.90291846436E+02 0.  0.
        -13    1    3    3    0    0 -0.15283017358E+02  0.38082658100E+01 -0.90789033827E+02  0.92145114745E+02  0.00000000000E+00 0. -1.
         13    1    3    3    0    0  0.15283017358E+02 -0.38082658100E+01  0.17938159733E+02  0.23871553838E+02  0.00000000000E+00 0.  1.
<mgrwt>
<rscale>  0 0.90291846E+02</rscale>
<asrwt>0</asrwt>
<pdfrwt beam="1">  1        3 0.33204457E-02 0.90291846E+02</pdfrwt>
<pdfrwt beam="2">  1       -3 0.14528272E-01 0.90291846E+02</pdfrwt>
<totfact> 0.34421319E+04</totfact>
</mgrwt>
</event>
<event>
 5    1  0.6079230E+000  0.9451942E+02  0.7546771E-02  0.1292262E+00
          1   -1    0    0  501    0  0.00000000000E+00  0.00000000000E+00  0.30907108351E+03  0.30907108351E+03  0.00000000000E+00 0. -1.
         -1   -1    0    0    0  501 -0.00000000000E+00 -0.00000000000E+00 -0.72264291746E+01  0.72264291746E+01  0.00000000000E+00 0.  1.
         23    2    1    2    0    0  0.00000000000E+00  0.00000000000E+00  0.30184465433E+03  0.31629751268E+03  0.94519422234E+02 0.  0.
        -13    1    3    3    0    0 -0.26587418280E+02  0.37829606465E+02  0.18362625808E+03  0.18935831799E+03  0.00000000000E+00 0.  1.
         13    1    3    3    0    0  0.26587418280E+02 -0.37829606465E+02  0.11821839626E+03  0.12693919469E+03  0.00000000000E+00 0. -1.
<mgrwt>
<rscale>  0 0.94519422E+02</rscale>
<asrwt>0</asrwt>
<pdfrwt beam="1">  1        1 0.47549387E-01 0.94519422E+02</pdfrwt>
<pdfrwt beam="2">  1       -1 0.11117586E-02 0.94519422E+02</pdfrwt>
<totfact> 0.11703890E+05</totfact>
</mgrwt>
</event>
<event>
 5    1  0.6079230E+000  0.9471606E+02  0.7546771E-02  0.1291817E+00
          1   -1    0    0  501    0  0.00000000000E+00  0.00000000000E+00  0.34229233918E+02  0.34229233918E+02  0.00000000000E+00 0. -1.
         -1   -1    0    0    0  501 -0.00000000000E+00 -0.00000000000E+00 -0.65522440919E+02  0.65522440919E+02  0.00000000000E+00 0.  1.
         23    2    1    2    0    0  0.00000000000E+00  0.00000000000E+00 -0.31293207001E+02  0.99751674836E+02  0.94716058978E+02 0.  0.
        -13    1    3    3    0    0  0.38936895611E+02  0.12487694325E+02 -0.40807308852E+02  0.57769029810E+02  0.00000000000E+00 0.  1.
         13    1    3    3    0    0 -0.38936895611E+02 -0.12487694325E+02  0.95141018508E+01  0.41982645027E+02  0.00000000000E+00 0. -1.
<mgrwt>
<rscale>  0 0.94716059E+02</rscale>
<asrwt>0</asrwt>
<pdfrwt beam="1">  1        1 0.52660360E-02 0.94716059E+02</pdfrwt>
<pdfrwt beam="2">  1       -1 0.10080376E-01 0.94716059E+02</pdfrwt>
<totfact> 0.79378046E+04</totfact>
</mgrwt>
</event>
<event>
 5    1  0.6079230E+000  0.9029526E+02  0.7546771E-02  0.1302138E+00
          2   -1    0    0  501    0  0.00000000000E+00  0.00000000000E+00  0.95617501171E+01  0.95617501171E+01  0.00000000000E+00 0.  1.
         -2   -1    0    0    0  501 -0.00000000000E+00 -0.00000000000E+00 -0.21317317557E+03  0.21317317557E+03  0.00000000000E+00 0. -1.
         23    2    1    2    0    0  0.00000000000E+00  0.00000000000E+00 -0.20361142546E+03  0.22273492569E+03  0.90295263143E+02 0.  0.
        -13    1    3    3    0    0 -0.43698389291E+02  0.80866215818E+01 -0.12144163785E+03  0.12931749332E+03  0.00000000000E+00 0. -1.
         13    1    3    3    0    0  0.43698389291E+02 -0.80866215818E+01 -0.82169787608E+02  0.93417432371E+02  0.00000000000E+00 0.  1.
<mgrwt>
<rscale>  0 0.90295263E+02</rscale>
<asrwt>0</asrwt>
<pdfrwt beam="1">  1        2 0.14710384E-02 0.90295263E+02</pdfrwt>
<pdfrwt beam="2">  1       -2 0.32795874E-01 0.90295263E+02</pdfrwt>
<totfact> 0.62111143E+04</totfact>
</mgrwt>
</event>
<event>
 5    1  0.6079230E+000  0.9150234E+02  0.7546771E-02  0.1299254E+00
          2   -1    0    0  501    0  0.00000000000E+00  0.00000000000E+00  0.89849530548E+02  0.89849530548E+02  0.00000000000E+00 0.  1.
         -2   -1    0    0    0  501 -0.00000000000E+00 -0.00000000000E+00 -0.23296386858E+02  0.23296386858E+02  0.00000000000E+00 0. -1.
         23    2    1    2    0    0  0.00000000000E+00  0.00000000000E+00  0.66553143689E+02  0.11314591741E+03  0.91502337078E+02 0.  0.
        -13    1    3    3    0    0  0.16025979963E+02 -0.39193992696E+02  0.11853135534E+02  0.43971558071E+02  0.00000000000E+00 0. -1.
         13    1    3    3    0    0 -0.16025979963E+02  0.39193992696E+02  0.54700008155E+02  0.69174359335E+02  0.00000000000E+00 0.  1.
<mgrwt>
<rscale>  0 0.91502337E+02</rscale>
<asrwt>0</asrwt>
<pdfrwt beam="1">  1        2 0.13823005E-01 0.91502337E+02</pdfrwt>
<pdfrwt beam="2">  1       -2 0.35840596E-02 0.91502337E+02</pdfrwt>
<totfact> 0.11763330E+05</totfact>
</mgrwt>
</event>
<event>
 5    1  0.6079230E+000  0.9235624E+02  0.7546771E-02  0.1297244E+00
          2   -1    0    0  501    0  0.00000000000E+00  0.00000000000E+00  0.19577677556E+02  0.19577677556E+02  0.00000000000E+00 0. -1.
         -2   -1    0    0    0  501 -0.00000000000E+00 -0.00000000000E+00 -0.10892092746E+03  0.10892092746E+03  0.00000000000E+00 0.  1.
         23    2    1    2    0    0  0.00000000000E+00  0.00000000000E+00 -0.89343249908E+02  0.12849860502E+03  0.92356240654E+02 0.  0.
        -13    1    3    3    0    0  0.10446092504E+02  0.26464418971E+02 -0.95277507753E+02  0.99434852057E+02  0.00000000000E+00 0.  1.
         13    1    3    3    0    0 -0.10446092504E+02 -0.26464418971E+02  0.59342578451E+01  0.29063752962E+02  0.00000000000E+00 0. -1.
<mgrwt>
<rscale>  0 0.92356241E+02</rscale>
<asrwt>0</asrwt>
<pdfrwt beam="1">  1        2 0.30119504E-02 0.92356241E+02</pdfrwt>
<pdfrwt beam="2">  1       -2 0.16757066E-01 0.92356241E+02</pdfrwt>
<totfact> 0.75302183E+04</totfact>
</mgrwt>
</event>
<event>
 5    1  0.6079230E+000  0.9135241E+02  0.7546771E-02  0.1299609E+00
          1   -1    0    0  501    0  0.00000000000E+00  0.00000000000E+00  0.54968048342E+01  0.54968048342E+01  0.00000000000E+00 0. -1.
         -1   -1    0    0    0  501 -0.00000000000E+00 -0.00000000000E+00 -0.37955061406E+03  0.37955061406E+03  0.00000000000E+00 0.  1.
         23    2    1    2    0    0  0.00000000000E+00  0.00000000000E+00 -0.37405380922E+03  0.38504741889E+03  0.91352408839E+02 0.  0.
        -13    1    3    3    0    0  0.45511346710E+02 -0.36001145861E+01 -0.19309432889E+03  0.19841790079E+03  0.00000000000E+00 0. -1.
         13    1    3    3    0    0 -0.45511346710E+02  0.36001145861E+01 -0.18095948033E+03  0.18662951810E+03  0.00000000000E+00 0.  1.
<mgrwt>
<rscale>  0 0.91352409E+02</rscale>
<asrwt>0</asrwt>
<pdfrwt beam="1">  1        1 0.84566226E-03 0.91352409E+02</pdfrwt>
<pdfrwt beam="2">  1       -1 0.58392404E-01 0.91352409E+02</pdfrwt>
<totfact> 0.54413468E+04</totfact>
</mgrwt>
</event>
<event>
 5    1  0.6079230E+000  0.9130007E+02  0.7546771E-02  0.1299734E+00
          3   -1    0    0  501    0  0.00000000000E+00  0.00000000000E+00  0.35185229636E+03  0.35185229636E+03  0.00000000000E+00 0. -1.
         -3   -1    0    0    0  501 -0.00000000000E+00 -0.00000000000E+00 -0.59227282789E+01  0.59227282789E+01  0.00000000000E+00 0.  1.
         23    2    1    2    0    0  0.00000000000E+00  0.00000000000E+00  0.34592956809E+03  0.35777502464E+03  0.91300066718E+02 0.  0.
        -13    1    3    3    0    0 -0.36663007697E+02 -0.26832173407E+02  0.15553489236E+03  0.16203470123E+03  0.00000000000E+00 0.  1.
         13    1    3    3    0    0  0.36663007697E+02  0.26832173407E+02  0.19039467573E+03  0.19574032341E+03  0.00000000000E+00 0. -1.
<mgrwt>
<rscale>  0 0.91300067E+02</rscale>
<asrwt>0</asrwt>
<pdfrwt beam="1">  1        3 0.54131106E-01 0.91300067E+02</pdfrwt>
<pdfrwt beam="2">  1       -3 0.91118924E-03 0.91300067E+02</pdfrwt>
<totfact> 0.21875832E+04</totfact>
</mgrwt>
</event>
<event>
 5    1  0.6079230E+000  0.9370617E+02  0.7546771E-02  0.1294117E+00
         -1   -1    0    0    0  501 -0.00000000000E+00  0.00000000000E+00  0.82393067642E+01  0.82393067642E+01  0.00000000000E+00 0.  1.
          1   -1    0    0  501    0  0.00000000000E+00 -0.00000000000E+00 -0.26643158160E+03  0.26643158160E+03  0.00000000000E+00 0. -1.
         23    2    1    2    0    0  0.00000000000E+00  0.00000000000E+00 -0.25819227484E+03  0.27467088837E+03  0.93706169114E+02 0.  0.
        -13    1    3    3    0    0 -0.29027333871E+02  0.26494317836E+02 -0.20386607603E+03  0.20761963285E+03  0.00000000000E+00 0. -1.
         13    1    3    3    0    0  0.29027333871E+02 -0.26494317836E+02 -0.54326198809E+02  0.67051255517E+02  0.00000000000E+00 0.  1.
<mgrwt>
<rscale>  0 0.93706169E+02</rscale>
<asrwt>0</asrwt>
<pdfrwt beam="2">  1        1 0.40989469E-01 0.93706169E+02</pdfrwt>
<pdfrwt beam="1">  1       -1 0.12675858E-02 0.93706169E+02</pdfrwt>
<totfact> 0.11638048E+05</totfact>
</mgrwt>
</event>
<event>
 5    1  0.6079230E+000  0.8926000E+02  0.7546771E-02  0.1304654E+00
          1   -1    0    0  501    0  0.00000000000E+00  0.00000000000E+00  0.38216473647E+02  0.38216473647E+02  0.00000000000E+00 0. -1.
         -1   -1    0    0    0  501 -0.00000000000E+00 -0.00000000000E+00 -0.52119851974E+02  0.52119851974E+02  0.00000000000E+00 0.  1.
         23    2    1    2    0    0  0.00000000000E+00  0.00000000000E+00 -0.13903378327E+02  0.90336325622E+02  0.89260001109E+02 0.  0.
        -13    1    3    3    0    0  0.42561925967E+02  0.10869431316E+02 -0.14931874506E+02  0.46396367912E+02  0.00000000000E+00 0.  1.
         13    1    3    3    0    0 -0.42561925967E+02 -0.10869431316E+02  0.10284961786E+01  0.43939957710E+02  0.00000000000E+00 0. -1.
<mgrwt>
<rscale>  0 0.89260001E+02</rscale>
<asrwt>0</asrwt>
<pdfrwt beam="1">  1        1 0.58794575E-02 0.89260001E+02</pdfrwt>
<pdfrwt beam="2">  1       -1 0.80184387E-02 0.89260001E+02</pdfrwt>
<totfact> 0.95602760E+04</totfact>
</mgrwt>
</event>
<event>
 5    1  0.6079230E+000  0.8420246E+02  0.7546771E-02  0.1317531E+00
         -4   -1    0    0    0  501 -0.00000000000E+00  0.00000000000E+00  0.35838468706E+02  0.35838468706E+02  0.00000000000E+00 0. -1.
          4   -1    0    0  501    0  0.00000000000E+00 -0.00000000000E+00 -0.49458411357E+02  0.49458411357E+02  0.00000000000E+00 0.  1.
         23    2    1    2    0    0  0.00000000000E+00  0.00000000000E+00 -0.13619942651E+02  0.85296880062E+02  0.84202463803E+02 0.  0.
        -13    1    3    3    0    0 -0.31587860843E+02 -0.15483894518E+02 -0.30240008297E+02  0.46389676049E+02  0.00000000000E+00 0.  1.
         13    1    3    3    0    0  0.31587860843E+02  0.15483894518E+02  0.16620065646E+02  0.38907204014E+02  0.00000000000E+00 0. -1.
<mgrwt>
<rscale>  0 0.84202464E+02</rscale>
<asrwt>0</asrwt>
<pdfrwt beam="2">  1        4 0.76089863E-02 0.84202464E+02</pdfrwt>
<pdfrwt beam="1">  1       -4 0.55136106E-02 0.84202464E+02</pdfrwt>
<totfact> 0.33963473E+04</totfact>
</mgrwt>
</event>
<event>
 5    1  0.6079230E+000  0.8932460E+02  0.7546771E-02  0.1304496E+00
         -1   -1    0    0    0  501 -0.00000000000E+00  0.00000000000E+00  0.36658516713E+03  0.36658516713E+03  0.00000000000E+00 0.  1.
          1   -1    0    0  501    0  0.00000000000E+00 -0.00000000000E+00 -0.54413577370E+01  0.54413577370E+01  0.00000000000E+00 0. -1.
         23    2    1    2    0    0  0.00000000000E+00  0.00000000000E+00  0.36114380940E+03  0.37202652487E+03  0.89324599869E+02 0.  0.
        -13    1    3    3    0    0 -0.28151232701E+02 -0.30495021979E+02  0.24929661281E+03  0.25272759925E+03  0.00000000000E+00 0. -1.
         13    1    3    3    0    0  0.28151232701E+02  0.30495021979E+02  0.11184719659E+03  0.11929892562E+03  0.00000000000E+00 0.  1.
<mgrwt>
<rscale>  0 0.89324600E+02</rscale>
<asrwt>0</asrwt>
<pdfrwt beam="2">  1        1 0.83713225E-03 0.89324600E+02</pdfrwt>
<pdfrwt beam="1">  1       -1 0.56397699E-01 0.89324600E+02</pdfrwt>
<totfact> 0.58663839E+04</totfact>
</mgrwt>
</event>
<event>
 5    1  0.6079230E+000  0.9093802E+02  0.7546771E-02  0.1300596E+00
         -1   -1    0    0    0  501 -0.00000000000E+00  0.00000000000E+00  0.43980995824E+02  0.43980995824E+02  0.00000000000E+00 0.  1.
          1   -1    0    0  501    0  0.00000000000E+00 -0.00000000000E+00 -0.47007370652E+02  0.47007370652E+02  0.00000000000E+00 0. -1.
         23    2    1    2    0    0  0.00000000000E+00  0.00000000000E+00 -0.30263748282E+01  0.90988366476E+02  0.90938022243E+02 0.  0.
        -13    1    3    3    0    0  0.33065726975E+02 -0.28536701633E+02 -0.14159224507E+02  0.45914804575E+02  0.00000000000E+00 0. -1.
         13    1    3    3    0    0 -0.33065726975E+02  0.28536701633E+02  0.11132849679E+02  0.45073561901E+02  0.00000000000E+00 0.  1.
<mgrwt>
<rscale>  0 0.90938022E+02</rscale>
<asrwt>0</asrwt>
<pdfrwt beam="2">  1        1 0.72319032E-02 0.90938022E+02</pdfrwt>
<pdfrwt beam="1">  1       -1 0.67663070E-02 0.90938022E+02</pdfrwt>
<totfact> 0.93584652E+04</totfact>
</mgrwt>
</event>
<event>
 5    1  0.6079230E+000  0.9177331E+02  0.7546771E-02  0.1298613E+00
          2   -1    0    0  501    0  0.00000000000E+00  0.00000000000E+00  0.70612869638E+02  0.70612869638E+02  0.00000000000E+00 0. -1.
         -2   -1    0    0    0  501 -0.00000000000E+00 -0.00000000000E+00 -0.29818714102E+02  0.29818714102E+02  0.00000000000E+00 0.  1.
         23    2    1    2    0    0  0.00000000000E+00  0.00000000000E+00  0.40794155536E+02  0.10043158374E+03  0.91773307050E+02 0.  0.
        -13    1    3    3    0    0 -0.80165981468E+01 -0.30721738932E+02 -0.15856843198E+02  0.35489865667E+02  0.00000000000E+00 0.  1.
         13    1    3    3    0    0  0.80165981468E+01  0.30721738932E+02  0.56650998734E+02  0.64941718074E+02  0.00000000000E+00 0. -1.
<mgrwt>
<rscale>  0 0.91773307E+02</rscale>
<asrwt>0</asrwt>
<pdfrwt beam="1">  1        2 0.10863518E-01 0.91773307E+02</pdfrwt>
<pdfrwt beam="2">  1       -2 0.45874945E-02 0.91773307E+02</pdfrwt>
<totfact> 0.10888060E+05</totfact>
</mgrwt>
</event>
<event>
 5    1  0.6079230E+000  0.8263647E+02  0.7546771E-02  0.1321732E+00
          3   -1    0    0  501    0  0.00000000000E+00  0.00000000000E+00  0.59418442303E+02  0.59418442303E+02  0.00000000000E+00 0. -1.
         -3   -1    0    0    0  501 -0.00000000000E+00 -0.00000000000E+00 -0.28731761729E+02  0.28731761729E+02  0.00000000000E+00 0.  1.
         23    2    1    2    0    0  0.00000000000E+00  0.00000000000E+00  0.30686680575E+02  0.88150204032E+02  0.82636469590E+02 0.  0.
        -13    1    3    3    0    0  0.26008634110E+02 -0.24718978587E+02  0.37197352409E+02  0.51682878953E+02  0.00000000000E+00 0. -1.
         13    1    3    3    0    0 -0.26008634110E+02  0.24718978587E+02 -0.65106718346E+01  0.36467325079E+02  0.00000000000E+00 0.  1.
<mgrwt>
<rscale>  0 0.82636470E+02</rscale>
<asrwt>0</asrwt>
<pdfrwt beam="1">  1        3 0.91412988E-02 0.82636470E+02</pdfrwt>
<pdfrwt beam="2">  1       -3 0.44202710E-02 0.82636470E+02</pdfrwt>
<totfact> 0.46421142E+04</totfact>
</mgrwt>
</event>
<event>
 5    1  0.6079230E+000  0.8570033E+02  0.7546771E-02  0.1313611E+00
          3   -1    0    0  501    0  0.00000000000E+00  0.00000000000E+00  0.18895347826E+02  0.18895347826E+02  0.00000000000E+00 0. -1.
         -3   -1    0    0    0  501 -0.00000000000E+00 -0.00000000000E+00 -0.97173997535E+02  0.97173997535E+02  0.00000000000E+00 0.  1.
         23    2    1    2    0    0  0.00000000000E+00  0.00000000000E+00 -0.78278649709E+02  0.11606934536E+03  0.85700326326E+02 0.  0.
        -13    1    3    3    0    0  0.24813231331E+02 -0.28578900093E+02 -0.66351118835E+02  0.76386654268E+02  0.00000000000E+00 0.  1.
         13    1    3    3    0    0 -0.24813231331E+02  0.28578900093E+02 -0.11927530874E+02  0.39682691093E+02  0.00000000000E+00 0. -1.
<mgrwt>
<rscale>  0 0.85700326E+02</rscale>
<asrwt>0</asrwt>
<pdfrwt beam="1">  1        3 0.29069766E-02 0.85700326E+02</pdfrwt>
<pdfrwt beam="2">  1       -3 0.14949846E-01 0.85700326E+02</pdfrwt>
<totfact> 0.39629167E+04</totfact>
</mgrwt>
</event>
<event>
 5    1  0.6079230E+000  0.9050571E+02  0.7546771E-02  0.1301632E+00
          2   -1    0    0  501    0  0.00000000000E+00  0.00000000000E+00  0.18326311310E+03  0.18326311310E+03  0.00000000000E+00 0. -1.
         -2   -1    0    0    0  501 -0.00000000000E+00 -0.00000000000E+00 -0.11174212883E+02  0.11174212883E+02  0.00000000000E+00 0.  1.
         23    2    1    2    0    0  0.00000000000E+00  0.00000000000E+00  0.17208890022E+03  0.19443732599E+03  0.90505713397E+02 0.  0.
        -13    1    3    3    0    0 -0.27658516758E+02 -0.34472007327E+02  0.65159261970E+02  0.78733996843E+02  0.00000000000E+00 0. -1.
         13    1    3    3    0    0  0.27658516758E+02  0.34472007327E+02  0.10692963825E+03  0.11570332914E+03  0.00000000000E+00 0.  1.
<mgrwt>
<rscale>  0 0.90505713E+02</rscale>
<asrwt>0</asrwt>
<pdfrwt beam="1">  1        2 0.28194323E-01 0.90505713E+02</pdfrwt>
<pdfrwt beam="2">  1       -2 0.17191098E-02 0.90505713E+02</pdfrwt>
<totfact> 0.15291698E+05</totfact>
</mgrwt>
</event>
<event>
 5    1  0.6079230E+000  0.8127149E+02  0.7546771E-02  0.1325481E+00
          1   -1    0    0  501    0  0.00000000000E+00  0.00000000000E+00  0.31332196928E+03  0.31332196928E+03  0.00000000000E+00 0. -1.
         -1   -1    0    0    0  501 -0.00000000000E+00 -0.00000000000E+00 -0.52701825048E+01  0.52701825048E+01  0.00000000000E+00 0.  1.
         23    2    1    2    0    0  0.00000000000E+00  0.00000000000E+00  0.30805178678E+03  0.31859215179E+03  0.81271494655E+02 0.  0.
        -13    1    3    3    0    0  0.21117069875E+02 -0.34518998791E+02  0.13947813717E+03  0.14522962049E+03  0.00000000000E+00 0.  1.
         13    1    3    3    0    0 -0.21117069875E+02  0.34518998791E+02  0.16857364960E+03  0.17336253130E+03  0.00000000000E+00 0. -1.
<mgrwt>
<rscale>  0 0.81271495E+02</rscale>
<asrwt>0</asrwt>
<pdfrwt beam="1">  1        1 0.48203366E-01 0.81271495E+02</pdfrwt>
<pdfrwt beam="2">  1       -1 0.81079755E-03 0.81271495E+02</pdfrwt>
<totfact> 0.17513209E+05</totfact>
</mgrwt>
</event>
<event>
 5    1  0.6079230E+000  0.8967419E+02  0.7546771E-02  0.1303643E+00
         -2   -1    0    0    0  501 -0.00000000000E+00  0.00000000000E+00  0.24335478274E+02  0.24335478274E+02  0.00000000000E+00 0.  1.
          2   -1    0    0  501    0  0.00000000000E+00 -0.00000000000E+00 -0.82610458426E+02  0.82610458426E+02  0.00000000000E+00 0. -1.
         23    2    1    2    0    0  0.00000000000E+00  0.00000000000E+00 -0.58274980152E+02  0.10694593670E+03  0.89674188399E+02 0.  0.
        -13    1    3    3    0    0 -0.19289564665E+02  0.10444868198E+02  0.17499067391E+02  0.28060647465E+02  0.00000000000E+00 0.  1.
         13    1    3    3    0    0  0.19289564665E+02 -0.10444868198E+02 -0.75774047543E+02  0.78885289235E+02  0.00000000000E+00 0. -1.
<mgrwt>
<rscale>  0 0.89674188E+02</rscale>
<asrwt>0</asrwt>
<pdfrwt beam="2">  1        2 0.12709301E-01 0.89674188E+02</pdfrwt>
<pdfrwt beam="1">  1       -2 0.37439198E-02 0.89674188E+02</pdfrwt>
<totfact> 0.12137956E+05</totfact>
</mgrwt>
</event>
<event>
 5    1  0.6079230E+000  0.9041887E+02  0.7546771E-02  0.1301841E+00
          1   -1    0    0  501    0  0.00000000000E+00  0.00000000000E+00  0.38676994255E+02  0.38676994255E+02  0.00000000000E+00 0. -1.
         -1   -1    0    0    0  501 -0.00000000000E+00 -0.00000000000E+00 -0.52845186254E+02  0.52845186254E+02  0.00000000000E+00 0.  1.
         23    2    1    2    0    0  0.00000000000E+00  0.00000000000E+00 -0.14168191999E+02  0.91522180508E+02  0.90418868941E+02 0.  0.
        -13    1    3    3    0    0  0.25709348035E+02 -0.57785155817E+01  0.30100129888E+02  0.40004745193E+02  0.00000000000E+00 0. -1.
         13    1    3    3    0    0 -0.25709348035E+02  0.57785155817E+01 -0.44268321887E+02  0.51517435315E+02  0.00000000000E+00 0.  1.
<mgrwt>
<rscale>  0 0.90418869E+02</rscale>
<asrwt>0</asrwt>
<pdfrwt beam="1">  1        1 0.59503068E-02 0.90418869E+02</pdfrwt>
<pdfrwt beam="2">  1       -1 0.81300286E-02 0.90418869E+02</pdfrwt>
<totfact> 0.92353459E+04</totfact>
</mgrwt>
</event>
<event>
 5    1  0.6079230E+000  0.9122747E+02  0.7546771E-02  0.1299906E+00
          1   -1    0    0  501    0  0.00000000000E+00  0.00000000000E+00  0.72496333669E+02  0.72496333669E+02  0.00000000000E+00 0. -1.
         -1   -1    0    0    0  501 -0.00000000000E+00 -0.00000000000E+00 -0.28699556076E+02  0.28699556076E+02  0.00000000000E+00 0.  1.
         23    2    1    2    0    0  0.00000000000E+00  0.00000000000E+00  0.43796777593E+02  0.10119588975E+03  0.91227465019E+02 0.  0.
        -13    1    3    3    0    0  0.18392707953E+02  0.18276491340E+02 -0.19729408371E+02  0.32581764781E+02  0.00000000000E+00 0.  1.
         13    1    3    3    0    0 -0.18392707953E+02 -0.18276491340E+02  0.63526185963E+02  0.68614124964E+02  0.00000000000E+00 0. -1.
<mgrwt>
<rscale>  0 0.91227465E+02</rscale>
<asrwt>0</asrwt>
<pdfrwt beam="1">  1        1 0.11153282E-01 0.91227465E+02</pdfrwt>
<pdfrwt beam="2">  1       -1 0.44153163E-02 0.91227465E+02</pdfrwt>
<totfact> 0.99051826E+04</totfact>
</mgrwt>
</event>
<event>
 5    1  0.6079230E+000  0.9178120E+02  0.7546771E-02  0.1298595E+00
         -1   -1    0    0    0  501 -0.00000000000E+00  0.00000000000E+00  0.10347114843E+02  0.10347114843E+02  0.00000000000E+00 0.  1.
          1   -1    0    0  501    0  0.00000000000E+00 -0.00000000000E+00 -0.20352989727E+03  0.20352989727E+03  0.00000000000E+00 0. -1.
         23    2    1    2    0    0  0.00000000000E+00  0.00000000000E+00 -0.19318278243E+03  0.21387701211E+03  0.91781201147E+02 0.  0.
        -13    1    3    3    0    0 -0.15516578672E+02 -0.37283338347E+02 -0.45796597871E+02  0.61058495794E+02  0.00000000000E+00 0.  1.
         13    1    3    3    0    0  0.15516578672E+02  0.37283338347E+02 -0.14738618456E+03  0.15281851632E+03  0.00000000000E+00 0. -1.
<mgrwt>
<rscale>  0 0.91781201E+02</rscale>
<asrwt>0</asrwt>
<pdfrwt beam="2">  1        1 0.31312291E-01 0.91781201E+02</pdfrwt>
<pdfrwt beam="1">  1       -1 0.15918639E-02 0.91781201E+02</pdfrwt>
<totfact> 0.11672058E+05</totfact>
</mgrwt>
</event>
<event>
 5    1  0.6079230E+000  0.7612034E+02  0.7546771E-02  0.1340436E+00
          2   -1    0    0  501    0  0.00000000000E+00  0.00000000000E+00  0.28893667897E+02  0.28893667897E+02  0.00000000000E+00 0. -1.
         -2   -1    0    0    0  501 -0.00000000000E+00 -0.00000000000E+00 -0.50134742765E+02  0.50134742765E+02  0.00000000000E+00 0.  1.
         23    2    1    2    0    0  0.00000000000E+00  0.00000000000E+00 -0.21241074869E+02  0.79028410662E+02  0.76120341764E+02 0.  0.
        -13    1    3    3    0    0  0.31341630492E+02 -0.96914113899E-02  0.11797898628E+02  0.33488629531E+02  0.00000000000E+00 0. -1.
         13    1    3    3    0    0 -0.31341630492E+02  0.96914113899E-02 -0.33038973496E+02  0.45539781131E+02  0.00000000000E+00 0.  1.
<mgrwt>
<rscale>  0 0.76120342E+02</rscale>
<asrwt>0</asrwt>
<pdfrwt beam="1">  1        2 0.44451797E-02 0.76120342E+02</pdfrwt>
<pdfrwt beam="2">  1       -2 0.77130373E-02 0.76120342E+02</pdfrwt>
<totfact> 0.14814191E+05</totfact>
</mgrwt>
</event>
<event>
 5    1  0.6079230E+000  0.8968182E+02  0.7546771E-02  0.1303624E+00
          1   -1    0    0  501    0  0.00000000000E+00  0.00000000000E+00  0.12353984514E+03  0.12353984514E+03  0.00000000000E+00 0. -1.
         -1   -1    0    0    0  501 -0.00000000000E+00 -0.00000000000E+00 -0.16275777167E+02  0.16275777167E+02  0.00000000000E+00 0.  1.
         23    2    1    2    0    0  0.00000000000E+00  0.00000000000E+00  0.10726406797E+03  0.13981562230E+03  0.89681815119E+02 0.  0.
        -13    1    3    3    0    0  0.44943143900E+00  0.34093661086E+02  0.82293187769E+01  0.35075652558E+02  0.00000000000E+00 0.  1.
         13    1    3    3    0    0 -0.44943143900E+00 -0.34093661086E+02  0.99034749192E+02  0.10473996975E+03  0.00000000000E+00 0. -1.
<mgrwt>
<rscale>  0 0.89681815E+02</rscale>
<asrwt>0</asrwt>
<pdfrwt beam="1">  1        1 0.19006129E-01 0.89681815E+02</pdfrwt>
<pdfrwt beam="2">  1       -1 0.25039658E-02 0.89681815E+02</pdfrwt>
<totfact> 0.11324071E+05</totfact>
</mgrwt>
</event>
<event>
 5    1  0.6079230E+000  0.9300821E+02  0.7546771E-02  0.1295726E+00
          1   -1    0    0  501    0  0.00000000000E+00  0.00000000000E+00  0.13560819167E+02  0.13560819167E+02  0.00000000000E+00 0. -1.
         -1   -1    0    0    0  501 -0.00000000000E+00 -0.00000000000E+00 -0.15947648412E+03  0.15947648412E+03  0.00000000000E+00 0.  1.
         23    2    1    2    0    0  0.00000000000E+00  0.00000000000E+00 -0.14591566495E+03  0.17303730329E+03  0.93008209586E+02 0.  0.
        -13    1    3    3    0    0 -0.31085772926E+02  0.28271049501E+02 -0.11002960703E+03  0.11777984522E+03  0.00000000000E+00 0.  1.
         13    1    3    3    0    0  0.31085772926E+02 -0.28271049501E+02 -0.35886057925E+02  0.55257458064E+02  0.00000000000E+00 0. -1.
<mgrwt>
<rscale>  0 0.93008210E+02</rscale>
<asrwt>0</asrwt>
<pdfrwt beam="1">  1        1 0.20862800E-02 0.93008210E+02</pdfrwt>
<pdfrwt beam="2">  1       -1 0.24534842E-01 0.93008210E+02</pdfrwt>
<totfact> 0.69986088E+04</totfact>
</mgrwt>
</event>
<event>
 5    1  0.6079230E+000  0.9190018E+02  0.7546771E-02  0.1298314E+00
         -3   -1    0    0    0  501 -0.00000000000E+00  0.00000000000E+00  0.82254023454E+01  0.82254023454E+01  0.00000000000E+00 0.  1.
          3   -1    0    0  501    0  0.00000000000E+00 -0.00000000000E+00 -0.25669392589E+03  0.25669392589E+03  0.00000000000E+00 0. -1.
         23    2    1    2    0    0  0.00000000000E+00  0.00000000000E+00 -0.24846852354E+03  0.26491932823E+03  0.91900181067E+02 0.  0.
        -13    1    3    3    0    0  0.32451546798E+02 -0.31943318506E+02 -0.14198850056E+03  0.14911141062E+03  0.00000000000E+00 0. -1.
         13    1    3    3    0    0 -0.32451546798E+02  0.31943318506E+02 -0.10648002298E+03  0.11580791761E+03  0.00000000000E+00 0.  1.
<mgrwt>
<rscale>  0 0.91900181E+02</rscale>
<asrwt>0</asrwt>
<pdfrwt beam="2">  1        3 0.39491364E-01 0.91900181E+02</pdfrwt>
<pdfrwt beam="1">  1       -3 0.12654468E-02 0.91900181E+02</pdfrwt>
<totfact> 0.24919204E+04</totfact>
</mgrwt>
</event>
<event>
 5    1  0.6079230E+000  0.9103712E+02  0.7546771E-02  0.1300359E+00
         -2   -1    0    0    0  501 -0.00000000000E+00  0.00000000000E+00  0.96892871729E+01  0.96892871729E+01  0.00000000000E+00 0.  1.
          2   -1    0    0  501    0  0.00000000000E+00 -0.00000000000E+00 -0.21383813833E+03  0.21383813833E+03  0.00000000000E+00 0. -1.
         23    2    1    2    0    0  0.00000000000E+00  0.00000000000E+00 -0.20414885115E+03  0.22352742550E+03  0.91037116183E+02 0.  0.
        -13    1    3    3    0    0  0.16757052274E+02  0.38584952312E+02 -0.59380959897E+02  0.72771531138E+02  0.00000000000E+00 0.  1.
         13    1    3    3    0    0 -0.16757052274E+02 -0.38584952312E+02 -0.14476789126E+03  0.15075589436E+03  0.00000000000E+00 0. -1.
<mgrwt>
<rscale>  0 0.91037116E+02</rscale>
<asrwt>0</asrwt>
<pdfrwt beam="2">  1        2 0.32898171E-01 0.91037116E+02</pdfrwt>
<pdfrwt beam="1">  1       -2 0.14906598E-02 0.91037116E+02</pdfrwt>
<totfact> 0.15914082E+05</totfact>
</mgrwt>
</event>
<event>
 5    1  0.6079230E+000  0.9199257E+02  0.7546771E-02  0.1298097E+00
          1   -1    0    0  501    0  0.00000000000E+00  0.00000000000E+00  0.55469564568E+02  0.55469564568E+02  0.00000000000E+00 0. -1.
         -1   -1    0    0    0  501 -0.00000000000E+00 -0.00000000000E+00 -0.38140884459E+02  0.38140884459E+02  0.00000000000E+00 0.  1.
         23    2    1    2    0    0  0.00000000000E+00  0.00000000000E+00  0.17328680109E+02  0.93610449028E+02  0.91992570422E+02 0.  0.
        -13    1    3    3    0    0 -0.33291760449E+02 -0.31202214800E+02  0.14574999625E+02  0.47899375113E+02  0.00000000000E+00 0.  1.
         13    1    3    3    0    0  0.33291760449E+02  0.31202214800E+02  0.27536804835E+01  0.45711073914E+02  0.00000000000E+00 0. -1.
<mgrwt>
<rscale>  0 0.91992570E+02</rscale>
<asrwt>0</asrwt>
<pdfrwt beam="1">  1        1 0.85337791E-02 0.91992570E+02</pdfrwt>
<pdfrwt beam="2">  1       -1 0.58678284E-02 0.91992570E+02</pdfrwt>
<totfact> 0.92901655E+04</totfact>
</mgrwt>
</event>
<event>
 5    1  0.6079230E+000  0.8974791E+02  0.7546771E-02  0.1303463E+00
          2   -1    0    0  501    0  0.00000000000E+00  0.00000000000E+00  0.25666090385E+02  0.25666090385E+02  0.00000000000E+00 0. -1.
         -2   -1    0    0    0  501 -0.00000000000E+00 -0.00000000000E+00 -0.78456503425E+02  0.78456503425E+02  0.00000000000E+00 0.  1.
         23    2    1    2    0    0  0.00000000000E+00  0.00000000000E+00 -0.52790413039E+02  0.10412259381E+03  0.89747907123E+02 0.  0.
        -13    1    3    3    0    0  0.16230027830E+02 -0.33819675143E+02  0.21761965362E+01  0.37575524766E+02  0.00000000000E+00 0.  1.
         13    1    3    3    0    0 -0.16230027830E+02  0.33819675143E+02 -0.54966609576E+02  0.66547069044E+02  0.00000000000E+00 0. -1.
<mgrwt>
<rscale>  0 0.89747907E+02</rscale>
<asrwt>0</asrwt>
<pdfrwt beam="1">  1        2 0.39486293E-02 0.89747907E+02</pdfrwt>
<pdfrwt beam="2">  1       -2 0.12070231E-01 0.89747907E+02</pdfrwt>
<totfact> 0.88915243E+04</totfact>
</mgrwt>
</event>
<event>
 5    1  0.6079230E+000  0.9007234E+02  0.7546771E-02  0.1302677E+00
         -2   -1    0    0    0  501 -0.00000000000E+00  0.00000000000E+00  0.15433730664E+03  0.15433730664E+03  0.00000000000E+00 0.  1.
          2   -1    0    0  501    0  0.00000000000E+00 -0.00000000000E+00 -0.13141712281E+02  0.13141712281E+02  0.00000000000E+00 0. -1.
         23    2    1    2    0    0  0.00000000000E+00  0.00000000000E+00  0.14119559436E+03  0.16747901892E+03  0.90072337108E+02 0.  0.
        -13    1    3    3    0    0 -0.17837069886E+02  0.39585391141E+02  0.48355635478E+02  0.64987935313E+02  0.00000000000E+00 0. -1.
         13    1    3    3    0    0  0.17837069886E+02 -0.39585391141E+02  0.92839958879E+02  0.10249108360E+03  0.00000000000E+00 0.  1.
<mgrwt>
<rscale>  0 0.90072337E+02</rscale>
<asrwt>0</asrwt>
<pdfrwt beam="2">  1        2 0.20218020E-02 0.90072337E+02</pdfrwt>
<pdfrwt beam="1">  1       -2 0.23744200E-01 0.90072337E+02</pdfrwt>
<totfact> 0.71296322E+04</totfact>
</mgrwt>
</event>
<event>
 5    1  0.6079230E+000  0.9518978E+02  0.7546771E-02  0.1290749E+00
          2   -1    0    0  501    0  0.00000000000E+00  0.00000000000E+00  0.68033032407E+02  0.68033032407E+02  0.00000000000E+00 0. -1.
         -2   -1    0    0    0  501 -0.00000000000E+00 -0.00000000000E+00 -0.33296673410E+02  0.33296673410E+02  0.00000000000E+00 0.  1.
         23    2    1    2    0    0  0.00000000000E+00  0.00000000000E+00  0.34736358997E+02  0.10132970582E+03  0.95189782249E+02 0.  0.
        -13    1    3    3    0    0 -0.45875988687E+02  0.90245014223E+01  0.78931737201E+01  0.47416770823E+02  0.00000000000E+00 0.  1.
         13    1    3    3    0    0  0.45875988687E+02 -0.90245014223E+01  0.26843185277E+02  0.53912934994E+02  0.00000000000E+00 0. -1.
<mgrwt>
<rscale>  0 0.95189782E+02</rscale>
<asrwt>0</asrwt>
<pdfrwt beam="1">  1        2 0.10466620E-01 0.95189782E+02</pdfrwt>
<pdfrwt beam="2">  1       -2 0.51225651E-02 0.95189782E+02</pdfrwt>
<totfact> 0.97222261E+04</totfact>
</mgrwt>
</event>
<event>
 5    1  0.6079230E+000  0.9055325E+02  0.7546771E-02  0.1301517E+00
          2   -1    0    0  501    0  0.00000000000E+00  0.00000000000E+00  0.59521953941E+01  0.59521953941E+01  0.00000000000E+00 0. -1.
         -2   -1    0    0    0  501 -0.00000000000E+00 -0.00000000000E+00 -0.34440616682E+03  0.34440616682E+03  0.00000000000E+00 0.  1.
         23    2    1    2    0    0  0.00000000000E+00  0.00000000000E+00 -0.33845397143E+03  0.35035836222E+03  0.90553250629E+02 0.  0.
        -13    1    3    3    0    0 -0.38658576922E+02  0.21912802214E+02 -0.20280484584E+03  0.20761614091E+03  0.00000000000E+00 0. -1.
         13    1    3    3    0    0  0.38658576922E+02 -0.21912802214E+02 -0.13564912560E+03  0.14274222131E+03  0.00000000000E+00 0.  1.
<mgrwt>
<rscale>  0 0.90553251E+02</rscale>
<asrwt>0</asrwt>
<pdfrwt beam="1">  1        2 0.91572251E-03 0.90553251E+02</pdfrwt>
<pdfrwt beam="2">  1       -2 0.52985556E-01 0.90553251E+02</pdfrwt>
<totfact> 0.47861923E+04</totfact>
</mgrwt>
</event>
<event>
 5    1  0.6079230E+000  0.8541627E+02  0.7546771E-02  0.1314348E+00
         -3   -1    0    0    0  501 -0.00000000000E+00  0.00000000000E+00  0.81711645475E+02  0.81711645475E+02  0.00000000000E+00 0.  1.
          3   -1    0    0  501    0  0.00000000000E+00 -0.00000000000E+00 -0.22322215837E+02  0.22322215837E+02  0.00000000000E+00 0. -1.
         23    2    1    2    0    0  0.00000000000E+00  0.00000000000E+00  0.59389429638E+02  0.10403386131E+03  0.85416274484E+02 0.  0.
        -13    1    3    3    0    0  0.12800610512E+02 -0.29943268684E+02 -0.39600957638E+01  0.32804532117E+02  0.00000000000E+00 0. -1.
         13    1    3    3    0    0 -0.12800610512E+02  0.29943268684E+02  0.63349525402E+02  0.71229329195E+02  0.00000000000E+00 0.  1.
<mgrwt>
<rscale>  0 0.85416274E+02</rscale>
<asrwt>0</asrwt>
<pdfrwt beam="2">  1        3 0.34341871E-02 0.85416274E+02</pdfrwt>
<pdfrwt beam="1">  1       -3 0.12571022E-01 0.85416274E+02</pdfrwt>
<totfact> 0.41016598E+04</totfact>
</mgrwt>
</event>
<event>
 5    1  0.6079230E+000  0.9309357E+02  0.7546771E-02  0.1295528E+00
          1   -1    0    0  501    0  0.00000000000E+00  0.00000000000E+00  0.16934887178E+03  0.16934887178E+03  0.00000000000E+00 0. -1.
         -1   -1    0    0    0  501 -0.00000000000E+00 -0.00000000000E+00 -0.12793726208E+02  0.12793726208E+02  0.00000000000E+00 0.  1.
         23    2    1    2    0    0  0.00000000000E+00  0.00000000000E+00  0.15655514557E+03  0.18214259799E+03  0.93093567965E+02 0.  0.
        -13    1    3    3    0    0 -0.27514845037E+02 -0.35889548579E+02  0.56713124477E+02  0.72536231516E+02  0.00000000000E+00 0. -1.
         13    1    3    3    0    0  0.27514845037E+02  0.35889548579E+02  0.99842021097E+02  0.10960636647E+03  0.00000000000E+00 0.  1.
<mgrwt>
<rscale>  0 0.93093568E+02</rscale>
<asrwt>0</asrwt>
<pdfrwt beam="1">  1        1 0.26053671E-01 0.93093568E+02</pdfrwt>
<pdfrwt beam="2">  1       -1 0.19682657E-02 0.93093568E+02</pdfrwt>
<totfact> 0.10843736E+05</totfact>
</mgrwt>
</event>
<event>
 5    1  0.6079230E+000  0.9388933E+02  0.7546771E-02  0.1293697E+00
         -2   -1    0    0    0  501 -0.00000000000E+00  0.00000000000E+00  0.13969464196E+02  0.13969464196E+02  0.00000000000E+00 0.  1.
          2   -1    0    0  501    0  0.00000000000E+00 -0.00000000000E+00 -0.15775847839E+03  0.15775847839E+03  0.00000000000E+00 0. -1.
         23    2    1    2    0    0  0.00000000000E+00  0.00000000000E+00 -0.14378901419E+03  0.17172794259E+03  0.93889326668E+02 0.  0.
        -13    1    3    3    0    0  0.30695278897E+02 -0.94710892433E+01 -0.13450829399E+03  0.13829093546E+03  0.00000000000E+00 0. -1.
         13    1    3    3    0    0 -0.30695278897E+02  0.94710892433E+01 -0.92807202018E+01  0.33437007125E+02  0.00000000000E+00 0.  1.
<mgrwt>
<rscale>  0 0.93889327E+02</rscale>
<asrwt>0</asrwt>
<pdfrwt beam="2">  1        2 0.24270534E-01 0.93889327E+02</pdfrwt>
<pdfrwt beam="1">  1       -2 0.21491484E-02 0.93889327E+02</pdfrwt>
<totfact> 0.13135156E+05</totfact>
</mgrwt>
</event>
<event>
 5    1  0.6079230E+000  0.9213150E+02  0.7546771E-02  0.1297771E+00
          2   -1    0    0  501    0  0.00000000000E+00  0.00000000000E+00  0.24543920686E+03  0.24543920686E+03  0.00000000000E+00 0. -1.
         -2   -1    0    0    0  501 -0.00000000000E+00 -0.00000000000E+00 -0.86459430487E+01  0.86459430487E+01  0.00000000000E+00 0.  1.
         23    2    1    2    0    0  0.00000000000E+00  0.00000000000E+00  0.23679326382E+03  0.25408514991E+03  0.92131501767E+02 0.  0.
        -13    1    3    3    0    0 -0.33022827622E+02  0.30959753647E+02  0.14196618027E+03  0.14900808646E+03  0.00000000000E+00 0. -1.
         13    1    3    3    0    0  0.33022827622E+02 -0.30959753647E+02  0.94827083542E+02  0.10507706345E+03  0.00000000000E+00 0.  1.
<mgrwt>
<rscale>  0 0.92131502E+02</rscale>
<asrwt>0</asrwt>
<pdfrwt beam="1">  1        2 0.37759873E-01 0.92131502E+02</pdfrwt>
<pdfrwt beam="2">  1       -2 0.13301453E-02 0.92131502E+02</pdfrwt>
<totfact> 0.16212711E+05</totfact>
</mgrwt>
</event>
<event>
 5    1  0.6079230E+000  0.9342493E+02  0.7546771E-02  0.1294763E+00
         -3   -1    0    0    0  501 -0.00000000000E+00  0.00000000000E+00  0.21496337045E+02  0.21496337045E+02  0.00000000000E+00 0.  1.
          3   -1    0    0  501    0  0.00000000000E+00 -0.00000000000E+00 -0.10150818797E+03  0.10150818797E+03  0.00000000000E+00 0. -1.
         23    2    1    2    0    0  0.00000000000E+00  0.00000000000E+00 -0.80011850929E+02  0.12300452502E+03  0.93424926470E+02 0.  0.
        -13    1    3    3    0    0  0.22595193107E+02 -0.16758430495E+02 -0.89104605477E+02  0.93439918993E+02  0.00000000000E+00 0. -1.
         13    1    3    3    0    0 -0.22595193107E+02  0.16758430495E+02  0.90927545479E+01  0.29564606026E+02  0.00000000000E+00 0.  1.
<mgrwt>
<rscale>  0 0.93424926E+02</rscale>
<asrwt>0</asrwt>
<pdfrwt beam="2">  1        3 0.15616644E-01 0.93424926E+02</pdfrwt>
<pdfrwt beam="1">  1       -3 0.33071288E-02 0.93424926E+02</pdfrwt>
<totfact> 0.30921505E+04</totfact>
</mgrwt>
</event>
<event>
 5    1  0.6079230E+000  0.9189984E+02  0.7546771E-02  0.1298315E+00
          2   -1    0    0  501    0  0.00000000000E+00  0.00000000000E+00  0.11342084563E+03  0.11342084563E+03  0.00000000000E+00 0. -1.
         -2   -1    0    0    0  501 -0.00000000000E+00 -0.00000000000E+00 -0.18615584810E+02  0.18615584810E+02  0.00000000000E+00 0.  1.
         23    2    1    2    0    0  0.00000000000E+00  0.00000000000E+00  0.94805260815E+02  0.13203643044E+03  0.91899844853E+02 0.  0.
        -13    1    3    3    0    0 -0.31453964701E+02 -0.29916224905E+02  0.25752917232E+02  0.50473212241E+02  0.00000000000E+00 0. -1.
         13    1    3    3    0    0  0.31453964701E+02  0.29916224905E+02  0.69052343583E+02  0.81563218195E+02  0.00000000000E+00 0.  1.
<mgrwt>
<rscale>  0 0.91899845E+02</rscale>
<asrwt>0</asrwt>
<pdfrwt beam="1">  1        2 0.17449360E-01 0.91899845E+02</pdfrwt>
<pdfrwt beam="2">  1       -2 0.28639362E-02 0.91899845E+02</pdfrwt>
<totfact> 0.12482398E+05</totfact>
</mgrwt>
</event>
<event>
 5    1  0.6079230E+000  0.9116014E+02  0.7546771E-02  0.1300066E+00
         -1   -1    0    0    0  501 -0.00000000000E+00  0.00000000000E+00  0.22065524939E+02  0.22065524939E+02  0.00000000000E+00 0.  1.
          1   -1    0    0  501    0  0.00000000000E+00 -0.00000000000E+00 -0.94153332009E+02  0.94153332009E+02  0.00000000000E+00 0. -1.
         23    2    1    2    0    0  0.00000000000E+00  0.00000000000E+00 -0.72087807070E+02  0.11621885695E+03  0.91160138121E+02 0.  0.
        -13    1    3    3    0    0 -0.36694593509E+02 -0.26604185666E+02 -0.42193406658E+02  0.61923819756E+02  0.00000000000E+00 0.  1.
         13    1    3    3    0    0  0.36694593509E+02  0.26604185666E+02 -0.29894400412E+02  0.54295037192E+02  0.00000000000E+00 0. -1.
<mgrwt>
<rscale>  0 0.91160138E+02</rscale>
<asrwt>0</asrwt>
<pdfrwt beam="2">  1        1 0.14485128E-01 0.91160138E+02</pdfrwt>
<pdfrwt beam="1">  1       -1 0.33946961E-02 0.91160138E+02</pdfrwt>
<totfact> 0.10346999E+05</totfact>
</mgrwt>
</event>
<event>
 5    1  0.6079230E+000  0.9191222E+02  0.7546771E-02  0.1298286E+00
         -2   -1    0    0    0  501 -0.00000000000E+00  0.00000000000E+00  0.16371025661E+03  0.16371025661E+03  0.00000000000E+00 0. -1.
          2   -1    0    0  501    0  0.00000000000E+00 -0.00000000000E+00 -0.12900622365E+02  0.12900622365E+02  0.00000000000E+00 0.  1.
         23    2    1    2    0    0  0.00000000000E+00  0.00000000000E+00  0.15080963425E+03  0.17661087898E+03  0.91912223298E+02 0.  0.
        -13    1    3    3    0    0 -0.33576509048E+02  0.11917734790E+02  0.13118012542E+03  0.13593248202E+03  0.00000000000E+00 0. -1.
         13    1    3    3    0    0  0.33576509048E+02 -0.11917734790E+02  0.19629508827E+02  0.40678396959E+02  0.00000000000E+00 0.  1.
<mgrwt>
<rscale>  0 0.91912223E+02</rscale>
<asrwt>0</asrwt>
<pdfrwt beam="2">  1        2 0.19847113E-02 0.91912223E+02</pdfrwt>
<pdfrwt beam="1">  1       -2 0.25186192E-01 0.91912223E+02</pdfrwt>
<totfact> 0.66246683E+04</totfact>
</mgrwt>
</event>
<event>
 5    1  0.6079230E+000  0.9159465E+02  0.7546771E-02  0.1299035E+00
         -4   -1    0    0    0  501 -0.00000000000E+00  0.00000000000E+00  0.71321156174E+02  0.71321156174E+02  0.00000000000E+00 0.  1.
          4   -1    0    0  501    0  0.00000000000E+00 -0.00000000000E+00 -0.29407752902E+02  0.29407752902E+02  0.00000000000E+00 0. -1.
         23    2    1    2    0    0  0.00000000000E+00  0.00000000000E+00  0.41913403272E+02  0.10072890908E+03  0.91594649134E+02 0.  0.
        -13    1    3    3    0    0  0.27689895139E+02  0.11612823823E+02  0.58985671985E+02  0.66188348442E+02  0.00000000000E+00 0.  1.
         13    1    3    3    0    0 -0.27689895139E+02 -0.11612823823E+02 -0.17072268713E+02  0.34540560635E+02  0.00000000000E+00 0. -1.
<mgrwt>
<rscale>  0 0.91594649E+02</rscale>
<asrwt>0</asrwt>
<pdfrwt beam="2">  1        4 0.45242697E-02 0.91594649E+02</pdfrwt>
<pdfrwt beam="1">  1       -4 0.10972486E-01 0.91594649E+02</pdfrwt>
<totfact> 0.26087173E+04</totfact>
</mgrwt>
</event>
<event>
 5    1  0.6079230E+000  0.9107613E+02  0.7546771E-02  0.1300266E+00
          2   -1    0    0  501    0  0.00000000000E+00  0.00000000000E+00  0.29780715590E+02  0.29780715590E+02  0.00000000000E+00 0. -1.
         -2   -1    0    0    0  501 -0.00000000000E+00 -0.00000000000E+00 -0.69632830333E+02  0.69632830333E+02  0.00000000000E+00 0.  1.
         23    2    1    2    0    0  0.00000000000E+00  0.00000000000E+00 -0.39852114743E+02  0.99413545923E+02  0.91076133336E+02 0.  0.
        -13    1    3    3    0    0 -0.36436342612E+02 -0.10047941407E+01 -0.49721368485E+02  0.61650881244E+02  0.00000000000E+00 0.  1.
         13    1    3    3    0    0  0.36436342612E+02  0.10047941407E+01  0.98692537415E+01  0.37762664679E+02  0.00000000000E+00 0. -1.
<mgrwt>
<rscale>  0 0.91076133E+02</rscale>
<asrwt>0</asrwt>
<pdfrwt beam="1">  1        2 0.45816486E-02 0.91076133E+02</pdfrwt>
<pdfrwt beam="2">  1       -2 0.10712743E-01 0.91076133E+02</pdfrwt>
<totfact> 0.88583268E+04</totfact>
</mgrwt>
</event>
