<event>
 5    1  0.6046470E+000  0.8736343E+02  0.7546771E-02  0.1309365E+00
          2   -1    0    0  501    0  0.00000000000E+00  0.00000000000E+00  0.19935659337E+03  0.19935659337E+03  0.00000000000E+00 0. -1.
         -2   -1    0    0    0  501 -0.00000000000E+00 -0.00000000000E+00 -0.95712519262E+01  0.95712519262E+01  0.00000000000E+00 0.  1.
         23    2    1    2    0    0  0.00000000000E+00  0.00000000000E+00  0.18978534145E+03  0.20892784530E+03  0.87363428924E+02 0.  0.
        -13    1    3    3    0    0 -0.17805758446E+02 -0.35172334998E+02  0.13988516432E+03  0.14533408884E+03  0.00000000000E+00 0. -1.
         13    1    3    3    0    0  0.17805758446E+02  0.35172334998E+02  0.49900177133E+02  0.63593756462E+02  0.00000000000E+00 0.  1.
<mgrwt>
<rscale>  0 0.87363429E+02</rscale>
<asrwt>0</asrwt>
<pdfrwt beam="1">  1        2 0.30670242E-01 0.87363429E+02</pdfrwt>
<pdfrwt beam="2">  1       -2 0.14725004E-02 0.87363429E+02</pdfrwt>
<totfact> 0.17327171E+05</totfact>
</mgrwt>
</event>
<event>
 5    1  0.6046470E+000  0.8931369E+02  0.7546771E-02  0.1304522E+00
          1   -1    0    0  501    0  0.00000000000E+00  0.00000000000E+00  0.43490832087E+02  0.43490832087E+02  0.00000000000E+00 0. -1.
         -1   -1    0    0    0  501 -0.00000000000E+00 -0.00000000000E+00 -0.45854123118E+02  0.45854123118E+02  0.00000000000E+00 0.  1.
         23    2    1    2    0    0  0.00000000000E+00  0.00000000000E+00 -0.23632910314E+01  0.89344955205E+02  0.89313693665E+02 0.  0.
        -13    1    3    3    0    0  0.10054154723E+01 -0.33358106983E+02  0.28501283441E+02  0.43887325272E+02  0.00000000000E+00 0. -1.
         13    1    3    3    0    0 -0.10054154723E+01  0.33358106983E+02 -0.30864574472E+02  0.45457629933E+02  0.00000000000E+00 0.  1.
<mgrwt>
<rscale>  0 0.89313694E+02</rscale>
<asrwt>0</asrwt>
<pdfrwt beam="1">  1        1 0.66908972E-02 0.89313694E+02</pdfrwt>
<pdfrwt beam="2">  1       -1 0.70544805E-02 0.89313694E+02</pdfrwt>
<totfact> 0.97295272E+04</totfact>
</mgrwt>
</event>
<event>
 5    1  0.6046470E+000  0.9088550E+02  0.7546771E-02  0.1300721E+00
         -4   -1    0    0    0  501 -0.00000000000E+00  0.00000000000E+00  0.59734276978E+02  0.59734276978E+02  0.00000000000E+00 0.  1.
          4   -1    0    0  501    0  0.00000000000E+00 -0.00000000000E+00 -0.34570493770E+02  0.34570493770E+02  0.00000000000E+00 0. -1.
         23    2    1    2    0    0  0.00000000000E+00  0.00000000000E+00  0.25163783208E+02  0.94304770748E+02  0.90885498296E+02 0.  0.
        -13    1    3    3    0    0 -0.27335412512E+02 -0.30814076550E+01 -0.24949672062E+02  0.37137662640E+02  0.00000000000E+00 0. -1.
         13    1    3    3    0    0  0.27335412512E+02  0.30814076550E+01  0.50113455270E+02  0.57167108108E+02  0.00000000000E+00 0.  1.
<mgrwt>
<rscale>  0 0.90885498E+02</rscale>
<asrwt>0</asrwt>
<pdfrwt beam="2">  1        4 0.53185375E-02 0.90885498E+02</pdfrwt>
<pdfrwt beam="1">  1       -4 0.91898887E-02 0.90885498E+02</pdfrwt>
<totfact> 0.27049829E+04</totfact>
</mgrwt>
</event>
<event>
 5    1  0.6046470E+000  0.9088782E+02  0.7546771E-02  0.1300716E+00
          1   -1    0    0  501    0  0.00000000000E+00  0.00000000000E+00  0.12244304419E+03  0.12244304419E+03  0.00000000000E+00 0. -1.
         -1   -1    0    0    0  501 -0.00000000000E+00 -0.00000000000E+00 -0.16866201296E+02  0.16866201296E+02  0.00000000000E+00 0.  1.
         23    2    1    2    0    0  0.00000000000E+00  0.00000000000E+00  0.10557684290E+03  0.13930924549E+03  0.90887821642E+02 0.  0.
        -13    1    3    3    0    0 -0.34305640289E+02  0.28017319293E+02  0.68367020108E+02  0.81461012604E+02  0.00000000000E+00 0. -1.
         13    1    3    3    0    0  0.34305640289E+02 -0.28017319293E+02  0.37209822789E+02  0.57848232886E+02  0.00000000000E+00 0.  1.
<mgrwt>
<rscale>  0 0.90887822E+02</rscale>
<asrwt>0</asrwt>
<pdfrwt beam="1">  1        1 0.18837391E-01 0.90887822E+02</pdfrwt>
<pdfrwt beam="2">  1       -1 0.25948003E-02 0.90887822E+02</pdfrwt>
<totfact> 0.10905232E+05</totfact>
</mgrwt>
</event>
<event>
 5    1  0.6046470E+000  0.9061080E+02  0.7546771E-02  0.1301379E+00
         -4   -1    0    0    0  501 -0.00000000000E+00  0.00000000000E+00  0.50726110483E+01  0.50726110483E+01  0.00000000000E+00 0.  1.
          4   -1    0    0  501    0  0.00000000000E+00 -0.00000000000E+00 -0.40463958218E+03  0.40463958218E+03  0.00000000000E+00 0. -1.
         23    2    1    2    0    0  0.00000000000E+00  0.00000000000E+00 -0.39956697113E+03  0.40971219323E+03  0.90610798808E+02 0.  0.
        -13    1    3    3    0    0  0.13933992752E+02 -0.42358645640E+02 -0.23600435416E+03  0.24018007036E+03  0.00000000000E+00 0. -1.
         13    1    3    3    0    0 -0.13933992752E+02  0.42358645640E+02 -0.16356261697E+03  0.16953212287E+03  0.00000000000E+00 0.  1.
<mgrwt>
<rscale>  0 0.90610799E+02</rscale>
<asrwt>0</asrwt>
<pdfrwt beam="2">  1        4 0.62252242E-01 0.90610799E+02</pdfrwt>
<pdfrwt beam="1">  1       -4 0.78040172E-03 0.90610799E+02</pdfrwt>
<totfact> 0.15173184E+04</totfact>
</mgrwt>
</event>
<event>
 5    1  0.6046470E+000  0.9170055E+02  0.7546771E-02  0.1298785E+00
         -3   -1    0    0    0  501 -0.00000000000E+00  0.00000000000E+00  0.34661500438E+02  0.34661500438E+02  0.00000000000E+00 0.  1.
          3   -1    0    0  501    0  0.00000000000E+00 -0.00000000000E+00 -0.60650800679E+02  0.60650800679E+02  0.00000000000E+00 0. -1.
         23    2    1    2    0    0  0.00000000000E+00  0.00000000000E+00 -0.25989300241E+02  0.95312301117E+02  0.91700550801E+02 0.  0.
        -13    1    3    3    0    0 -0.41229676773E+02  0.19821716741E+02 -0.97976198686E+01  0.46784399713E+02  0.00000000000E+00 0. -1.
         13    1    3    3    0    0  0.41229676773E+02 -0.19821716741E+02 -0.16191680373E+02  0.48527901404E+02  0.00000000000E+00 0.  1.
<mgrwt>
<rscale>  0 0.91700551E+02</rscale>
<asrwt>0</asrwt>
<pdfrwt beam="2">  1        3 0.93308924E-02 0.91700551E+02</pdfrwt>
<pdfrwt beam="1">  1       -3 0.53325385E-02 0.91700551E+02</pdfrwt>
<totfact> 0.34479669E+04</totfact>
</mgrwt>
</event>
<event>
 5    1  0.6046470E+000  0.9188492E+02  0.7546771E-02  0.1298350E+00
         -3   -1    0    0    0  501 -0.00000000000E+00  0.00000000000E+00  0.62154035293E+02  0.62154035293E+02  0.00000000000E+00 0.  1.
          3   -1    0    0  501    0  0.00000000000E+00 -0.00000000000E+00 -0.33959332493E+02  0.33959332493E+02  0.00000000000E+00 0. -1.
         23    2    1    2    0    0  0.00000000000E+00  0.00000000000E+00  0.28194702801E+02  0.96113367786E+02  0.91884918247E+02 0.  0.
        -13    1    3    3    0    0 -0.45392087479E+02  0.31027938114E+01  0.20765721546E+02  0.50012839616E+02  0.00000000000E+00 0. -1.
         13    1    3    3    0    0  0.45392087479E+02 -0.31027938114E+01  0.74289812540E+01  0.46100528170E+02  0.00000000000E+00 0.  1.
<mgrwt>
<rscale>  0 0.91884918E+02</rscale>
<asrwt>0</asrwt>
<pdfrwt beam="2">  1        3 0.52245127E-02 0.91884918E+02</pdfrwt>
<pdfrwt beam="1">  1       -3 0.95621592E-02 0.91884918E+02</pdfrwt>
<totfact> 0.34232697E+04</totfact>
</mgrwt>
</event>
<event>
 5    1  0.6046470E+000  0.9398945E+02  0.7546771E-02  0.1293468E+00
          1   -1    0    0  501    0  0.00000000000E+00  0.00000000000E+00  0.15323687956E+03  0.15323687956E+03  0.00000000000E+00 0.  1.
         -1   -1    0    0    0  501 -0.00000000000E+00 -0.00000000000E+00 -0.14412355678E+02  0.14412355678E+02  0.00000000000E+00 0. -1.
         23    2    1    2    0    0  0.00000000000E+00  0.00000000000E+00  0.13882452388E+03  0.16764923524E+03  0.93989454964E+02 0.  0.
        -13    1    3    3    0    0 -0.34832462083E+02  0.81608771866E+01  0.12376704155E+03  0.12883392762E+03  0.00000000000E+00 0.  1.
         13    1    3    3    0    0  0.34832462083E+02 -0.81608771866E+01  0.15057482327E+02  0.38815307615E+02  0.00000000000E+00 0. -1.
<mgrwt>
<rscale>  0 0.93989455E+02</rscale>
<asrwt>0</asrwt>
<pdfrwt beam="1">  1        1 0.23574903E-01 0.93989455E+02</pdfrwt>
<pdfrwt beam="2">  1       -1 0.22172856E-02 0.93989455E+02</pdfrwt>
<totfact> 0.10369792E+05</totfact>
</mgrwt>
</event>
<event>
 5    1  0.6046470E+000  0.8852875E+02  0.7546771E-02  0.1306454E+00
         -1   -1    0    0    0  501 -0.00000000000E+00  0.00000000000E+00  0.45450111379E+01  0.45450111379E+01  0.00000000000E+00 0.  1.
          1   -1    0    0  501    0  0.00000000000E+00 -0.00000000000E+00 -0.43109570201E+03  0.43109570201E+03  0.00000000000E+00 0. -1.
         23    2    1    2    0    0  0.00000000000E+00  0.00000000000E+00 -0.42655069087E+03  0.43564071314E+03  0.88528747130E+02 0.  0.
        -13    1    3    3    0    0  0.40585949579E+02  0.15249391833E+02 -0.16937954738E+03  0.17484048252E+03  0.00000000000E+00 0.  1.
         13    1    3    3    0    0 -0.40585949579E+02 -0.15249391833E+02 -0.25717114348E+03  0.26080023063E+03  0.00000000000E+00 0. -1.
<mgrwt>
<rscale>  0 0.88528747E+02</rscale>
<asrwt>0</asrwt>
<pdfrwt beam="2">  1        1 0.66322442E-01 0.88528747E+02</pdfrwt>
<pdfrwt beam="1">  1       -1 0.69923221E-03 0.88528747E+02</pdfrwt>
<totfact> 0.14757493E+05</totfact>
</mgrwt>
</event>
<event>
 5    1  0.6046470E+000  0.1037923E+03  0.7546771E-02  0.1272518E+00
          4   -1    0    0  501    0  0.00000000000E+00  0.00000000000E+00  0.11175584504E+03  0.11175584504E+03  0.00000000000E+00 0. -1.
         -4   -1    0    0    0  501 -0.00000000000E+00 -0.00000000000E+00 -0.24099045669E+02  0.24099045669E+02  0.00000000000E+00 0.  1.
         23    2    1    2    0    0  0.00000000000E+00  0.00000000000E+00  0.87656799372E+02  0.13585489071E+03  0.10379227743E+03 0.  0.
        -13    1    3    3    0    0 -0.20529299431E+02 -0.35486107636E+01  0.10604183139E+03  0.10806902784E+03  0.00000000000E+00 0. -1.
         13    1    3    3    0    0  0.20529299431E+02  0.35486107636E+01 -0.18385032014E+02  0.27785862874E+02  0.00000000000E+00 0.  1.
<mgrwt>
<rscale>  0 0.10379228E+03</rscale>
<asrwt>0</asrwt>
<pdfrwt beam="1">  1        4 0.17193207E-01 0.10379228E+03</pdfrwt>
<pdfrwt beam="2">  1       -4 0.37075456E-02 0.10379228E+03</pdfrwt>
<totfact> 0.17147700E+04</totfact>
</mgrwt>
</event>
<event>
 5    1  0.6046470E+000  0.9185503E+02  0.7546771E-02  0.1298421E+00
         -1   -1    0    0    0  501 -0.00000000000E+00  0.00000000000E+00  0.12195410676E+03  0.12195410676E+03  0.00000000000E+00 0.  1.
          1   -1    0    0  501    0  0.00000000000E+00 -0.00000000000E+00 -0.17296151795E+02  0.17296151795E+02  0.00000000000E+00 0. -1.
         23    2    1    2    0    0  0.00000000000E+00  0.00000000000E+00  0.10465795496E+03  0.13925025856E+03  0.91855032363E+02 0.  0.
        -13    1    3    3    0    0 -0.12509020635E+02  0.39840193284E+02  0.81316300741E+02  0.91411472827E+02  0.00000000000E+00 0.  1.
         13    1    3    3    0    0  0.12509020635E+02 -0.39840193284E+02  0.23341654224E+02  0.47838785729E+02  0.00000000000E+00 0. -1.
<mgrwt>
<rscale>  0 0.91855032E+02</rscale>
<asrwt>0</asrwt>
<pdfrwt beam="2">  1        1 0.26609465E-02 0.91855032E+02</pdfrwt>
<pdfrwt beam="1">  1       -1 0.18762170E-01 0.91855032E+02</pdfrwt>
<totfact> 0.76783153E+04</totfact>
</mgrwt>
</event>
<event>
 5    1  0.6046470E+000  0.9005886E+02  0.7546771E-02  0.1302709E+00
         -1   -1    0    0    0  501 -0.00000000000E+00  0.00000000000E+00  0.88227989694E+01  0.88227989694E+01  0.00000000000E+00 0.  1.
          1   -1    0    0  501    0  0.00000000000E+00 -0.00000000000E+00 -0.22981932300E+03  0.22981932300E+03  0.00000000000E+00 0. -1.
         23    2    1    2    0    0  0.00000000000E+00  0.00000000000E+00 -0.22099652403E+03  0.23864212196E+03  0.90058862664E+02 0.  0.
        -13    1    3    3    0    0 -0.32476118660E+02  0.55898065300E+01 -0.19181467064E+03  0.19462479824E+03  0.00000000000E+00 0. -1.
         13    1    3    3    0    0  0.32476118660E+02 -0.55898065300E+01 -0.29181853390E+02  0.44017323721E+02  0.00000000000E+00 0.  1.
<mgrwt>
<rscale>  0 0.90058863E+02</rscale>
<asrwt>0</asrwt>
<pdfrwt beam="2">  1        1 0.35356815E-01 0.90058863E+02</pdfrwt>
<pdfrwt beam="1">  1       -1 0.13573538E-02 0.90058863E+02</pdfrwt>
<totfact> 0.12573342E+05</totfact>
</mgrwt>
</event>
<event>
 5    1  0.6046470E+000  0.9202608E+02  0.7546771E-02  0.1298018E+00
          1   -1    0    0  501    0  0.00000000000E+00  0.00000000000E+00  0.17711538761E+03  0.17711538761E+03  0.00000000000E+00 0. -1.
         -1   -1    0    0    0  501 -0.00000000000E+00 -0.00000000000E+00 -0.11953789559E+02  0.11953789559E+02  0.00000000000E+00 0.  1.
         23    2    1    2    0    0  0.00000000000E+00  0.00000000000E+00  0.16516159805E+03  0.18906917717E+03  0.92026084804E+02 0.  0.
        -13    1    3    3    0    0 -0.33808255791E+02 -0.32059370945E+01  0.18793948703E+02  0.38813511824E+02  0.00000000000E+00 0.  1.
         13    1    3    3    0    0  0.33808255791E+02  0.32059370945E+01  0.14636764935E+03  0.15025566534E+03  0.00000000000E+00 0. -1.
<mgrwt>
<rscale>  0 0.92026085E+02</rscale>
<asrwt>0</asrwt>
<pdfrwt beam="1">  1        1 0.27248519E-01 0.92026085E+02</pdfrwt>
<pdfrwt beam="2">  1       -1 0.18390447E-02 0.92026085E+02</pdfrwt>
<totfact> 0.11281793E+05</totfact>
</mgrwt>
</event>
<event>
 5    1  0.6046470E+000  0.9180949E+02  0.7546771E-02  0.1298528E+00
         -1   -1    0    0    0  501 -0.00000000000E+00  0.00000000000E+00  0.11610534698E+02  0.11610534698E+02  0.00000000000E+00 0.  1.
          1   -1    0    0  501    0  0.00000000000E+00 -0.00000000000E+00 -0.18149426094E+03  0.18149426094E+03  0.00000000000E+00 0. -1.
         23    2    1    2    0    0  0.00000000000E+00  0.00000000000E+00 -0.16988372624E+03  0.19310479564E+03  0.91809485658E+02 0.  0.
        -13    1    3    3    0    0 -0.31400008180E+02 -0.70898142956E+01 -0.16107677189E+02  0.35995600354E+02  0.00000000000E+00 0.  1.
         13    1    3    3    0    0  0.31400008180E+02  0.70898142956E+01 -0.15377604905E+03  0.15710919528E+03  0.00000000000E+00 0. -1.
<mgrwt>
<rscale>  0 0.91809486E+02</rscale>
<asrwt>0</asrwt>
<pdfrwt beam="2">  1        1 0.27922193E-01 0.91809486E+02</pdfrwt>
<pdfrwt beam="1">  1       -1 0.17862362E-02 0.91809486E+02</pdfrwt>
<totfact> 0.11406833E+05</totfact>
</mgrwt>
</event>
<event>
 5    1  0.6046470E+000  0.9224573E+02  0.7546771E-02  0.1297503E+00
         -2   -1    0    0    0  501 -0.00000000000E+00  0.00000000000E+00  0.38297639109E+02  0.38297639109E+02  0.00000000000E+00 0.  1.
          2   -1    0    0  501    0  0.00000000000E+00 -0.00000000000E+00 -0.55546994251E+02  0.55546994251E+02  0.00000000000E+00 0. -1.
         23    2    1    2    0    0  0.00000000000E+00  0.00000000000E+00 -0.17249355142E+02  0.93844633361E+02  0.92245731380E+02 0.  0.
        -13    1    3    3    0    0  0.40580574229E+02 -0.53307497924E+01  0.13006963408E+02  0.42946257057E+02  0.00000000000E+00 0.  1.
         13    1    3    3    0    0 -0.40580574229E+02  0.53307497924E+01 -0.30256318550E+02  0.50898376303E+02  0.00000000000E+00 0. -1.
<mgrwt>
<rscale>  0 0.92245731E+02</rscale>
<asrwt>0</asrwt>
<pdfrwt beam="2">  1        2 0.85456914E-02 0.92245731E+02</pdfrwt>
<pdfrwt beam="1">  1       -2 0.58919445E-02 0.92245731E+02</pdfrwt>
<totfact> 0.10053014E+05</totfact>
</mgrwt>
</event>
<event>
 5    1  0.6046470E+000  0.9041914E+02  0.7546771E-02  0.1301840E+00
          1   -1    0    0  501    0  0.00000000000E+00  0.00000000000E+00  0.10244429429E+03  0.10244429429E+03  0.00000000000E+00 0. -1.
         -1   -1    0    0    0  501 -0.00000000000E+00 -0.00000000000E+00 -0.19951381838E+02  0.19951381838E+02  0.00000000000E+00 0.  1.
         23    2    1    2    0    0  0.00000000000E+00  0.00000000000E+00  0.82492912453E+02  0.12239567613E+03  0.90419140286E+02 0.  0.
        -13    1    3    3    0    0  0.14876044350E+02 -0.14870654477E+02  0.95417275105E+02  0.97708185166E+02  0.00000000000E+00 0. -1.
         13    1    3    3    0    0 -0.14876044350E+02  0.14870654477E+02 -0.12924362652E+02  0.24687490963E+02  0.00000000000E+00 0.  1.
<mgrwt>
<rscale>  0 0.90419140E+02</rscale>
<asrwt>0</asrwt>
<pdfrwt beam="1">  1        1 0.15760660E-01 0.90419140E+02</pdfrwt>
<pdfrwt beam="2">  1       -1 0.30694434E-02 0.90419140E+02</pdfrwt>
<totfact> 0.10728182E+05</totfact>
</mgrwt>
</event>
<event>
 5    1  0.6046470E+000  0.9254382E+02  0.7546771E-02  0.1296806E+00
         -2   -1    0    0    0  501 -0.00000000000E+00  0.00000000000E+00  0.44245744067E+02  0.44245744067E+02  0.00000000000E+00 0.  1.
          2   -1    0    0  501    0  0.00000000000E+00 -0.00000000000E+00 -0.48390862701E+02  0.48390862701E+02  0.00000000000E+00 0. -1.
         23    2    1    2    0    0  0.00000000000E+00  0.00000000000E+00 -0.41451186344E+01  0.92636606768E+02  0.92543821539E+02 0.  0.
        -13    1    3    3    0    0 -0.87378587361E+01  0.20375842694E+02  0.38582993549E+02  0.44499129564E+02  0.00000000000E+00 0.  1.
         13    1    3    3    0    0  0.87378587361E+01 -0.20375842694E+02 -0.42728112183E+02  0.48137477204E+02  0.00000000000E+00 0. -1.
<mgrwt>
<rscale>  0 0.92543822E+02</rscale>
<asrwt>0</asrwt>
<pdfrwt beam="2">  1        2 0.74447481E-02 0.92543822E+02</pdfrwt>
<pdfrwt beam="1">  1       -2 0.68070376E-02 0.92543822E+02</pdfrwt>
<totfact> 0.96034195E+04</totfact>
</mgrwt>
</event>
<event>
 5    1  0.6046470E+000  0.9205412E+02  0.7546771E-02  0.1297952E+00
         -2   -1    0    0    0  501 -0.00000000000E+00  0.00000000000E+00  0.14248978141E+02  0.14248978141E+02  0.00000000000E+00 0.  1.
          2   -1    0    0  501    0  0.00000000000E+00 -0.00000000000E+00 -0.14867665046E+03  0.14867665046E+03  0.00000000000E+00 0. -1.
         23    2    1    2    0    0  0.00000000000E+00  0.00000000000E+00 -0.13442767232E+03  0.16292562860E+03  0.92054121962E+02 0.  0.
        -13    1    3    3    0    0  0.55955354306E+01  0.45681480654E+02 -0.68308668535E+02  0.82366145282E+02  0.00000000000E+00 0.  1.
         13    1    3    3    0    0 -0.55955354306E+01 -0.45681480654E+02 -0.66119003785E+02  0.80559483321E+02  0.00000000000E+00 0. -1.
<mgrwt>
<rscale>  0 0.92054122E+02</rscale>
<asrwt>0</asrwt>
<pdfrwt beam="2">  1        2 0.22873331E-01 0.92054122E+02</pdfrwt>
<pdfrwt beam="1">  1       -2 0.21921505E-02 0.92054122E+02</pdfrwt>
<totfact> 0.13580706E+05</totfact>
</mgrwt>
</event>
<event>
 5    1  0.6046470E+000  0.9063964E+02  0.7546771E-02  0.1301310E+00
          1   -1    0    0  501    0  0.00000000000E+00  0.00000000000E+00  0.35455006191E+02  0.35455006191E+02  0.00000000000E+00 0. -1.
         -1   -1    0    0    0  501 -0.00000000000E+00 -0.00000000000E+00 -0.57929366934E+02  0.57929366934E+02  0.00000000000E+00 0.  1.
         23    2    1    2    0    0  0.00000000000E+00  0.00000000000E+00 -0.22474360742E+02  0.93384373125E+02  0.90639639525E+02 0.  0.
        -13    1    3    3    0    0 -0.18381545869E+02  0.88518912346E+01 -0.52930495789E+02  0.56726313043E+02  0.00000000000E+00 0.  1.
         13    1    3    3    0    0  0.18381545869E+02 -0.88518912346E+01  0.30456135047E+02  0.36658060082E+02  0.00000000000E+00 0. -1.
<mgrwt>
<rscale>  0 0.90639640E+02</rscale>
<asrwt>0</asrwt>
<pdfrwt beam="1">  1        1 0.54546164E-02 0.90639640E+02</pdfrwt>
<pdfrwt beam="2">  1       -1 0.89122102E-02 0.90639640E+02</pdfrwt>
<totfact> 0.90508685E+04</totfact>
</mgrwt>
</event>
<event>
 5    1  0.6046470E+000  0.8416674E+02  0.7546771E-02  0.1317626E+00
          2   -1    0    0  501    0  0.00000000000E+00  0.00000000000E+00  0.10023576485E+03  0.10023576485E+03  0.00000000000E+00 0. -1.
         -2   -1    0    0    0  501 -0.00000000000E+00 -0.00000000000E+00 -0.17668443402E+02  0.17668443402E+02  0.00000000000E+00 0.  1.
         23    2    1    2    0    0  0.00000000000E+00  0.00000000000E+00  0.82567321452E+02  0.11790420826E+03  0.84166737806E+02 0.  0.
        -13    1    3    3    0    0  0.28677252595E+02  0.70773140988E+01  0.83274710580E+02  0.88358081766E+02  0.00000000000E+00 0. -1.
         13    1    3    3    0    0 -0.28677252595E+02 -0.70773140988E+01 -0.70738912732E+00  0.29546126491E+02  0.00000000000E+00 0.  1.
<mgrwt>
<rscale>  0 0.84166738E+02</rscale>
<asrwt>0</asrwt>
<pdfrwt beam="1">  1        2 0.15420887E-01 0.84166738E+02</pdfrwt>
<pdfrwt beam="2">  1       -2 0.27182221E-02 0.84166738E+02</pdfrwt>
<totfact> 0.15278698E+05</totfact>
</mgrwt>
</event>
<event>
 5    1  0.6046470E+000  0.8912508E+02  0.7546771E-02  0.1304984E+00
         -1   -1    0    0    0  501 -0.00000000000E+00  0.00000000000E+00  0.84906889950E+01  0.84906889950E+01  0.00000000000E+00 0.  1.
          1   -1    0    0  501    0  0.00000000000E+00 -0.00000000000E+00 -0.23388210005E+03  0.23388210005E+03  0.00000000000E+00 0. -1.
         23    2    1    2    0    0  0.00000000000E+00  0.00000000000E+00 -0.22539141106E+03  0.24237278905E+03  0.89125084528E+02 0.  0.
        -13    1    3    3    0    0  0.25153965705E+02  0.25899007545E+02 -0.41658774441E+02  0.55126527828E+02  0.00000000000E+00 0.  1.
         13    1    3    3    0    0 -0.25153965705E+02 -0.25899007545E+02 -0.18373263662E+03  0.18724626122E+03  0.00000000000E+00 0. -1.
<mgrwt>
<rscale>  0 0.89125085E+02</rscale>
<asrwt>0</asrwt>
<pdfrwt beam="2">  1        1 0.35981862E-01 0.89125085E+02</pdfrwt>
<pdfrwt beam="1">  1       -1 0.13062598E-02 0.89125085E+02</pdfrwt>
<totfact> 0.12971989E+05</totfact>
</mgrwt>
</event>
<event>
 5    1  0.6046470E+000  0.9186340E+02  0.7546771E-02  0.1298401E+00
          2   -1    0    0  501    0  0.00000000000E+00  0.00000000000E+00  0.37607230752E+03  0.37607230752E+03  0.00000000000E+00 0. -1.
         -2   -1    0    0    0  501 -0.00000000000E+00 -0.00000000000E+00 -0.56098811274E+01  0.56098811274E+01  0.00000000000E+00 0.  1.
         23    2    1    2    0    0  0.00000000000E+00  0.00000000000E+00  0.37046242640E+03  0.38168218865E+03  0.91863397292E+02 0.  0.
        -13    1    3    3    0    0  0.45718791117E+02  0.33794285413E+01  0.17341163782E+03  0.17936896201E+03  0.00000000000E+00 0.  1.
         13    1    3    3    0    0 -0.45718791117E+02 -0.33794285413E+01  0.19705078857E+03  0.20231322665E+03  0.00000000000E+00 0. -1.
<mgrwt>
<rscale>  0 0.91863397E+02</rscale>
<asrwt>0</asrwt>
<pdfrwt beam="1">  1        2 0.57857258E-01 0.91863397E+02</pdfrwt>
<pdfrwt beam="2">  1       -2 0.86305893E-03 0.91863397E+02</pdfrwt>
<totfact> 0.19137840E+05</totfact>
</mgrwt>
</event>
<event>
 5    1  0.6046470E+000  0.8905821E+02  0.7546771E-02  0.1305149E+00
          1   -1    0    0  501    0  0.00000000000E+00  0.00000000000E+00  0.55459849497E+02  0.55459849497E+02  0.00000000000E+00 0.  1.
         -1   -1    0    0    0  501 -0.00000000000E+00 -0.00000000000E+00 -0.35752733982E+02  0.35752733982E+02  0.00000000000E+00 0. -1.
         23    2    1    2    0    0  0.00000000000E+00  0.00000000000E+00  0.19707115515E+02  0.91212583479E+02  0.89058211205E+02 0.  0.
        -13    1    3    3    0    0 -0.39475112537E+02  0.91914553781E+01  0.28740751257E+02  0.49687001767E+02  0.00000000000E+00 0.  1.
         13    1    3    3    0    0  0.39475112537E+02 -0.91914553781E+01 -0.90336357420E+01  0.41525581712E+02  0.00000000000E+00 0. -1.
<mgrwt>
<rscale>  0 0.89058211E+02</rscale>
<asrwt>0</asrwt>
<pdfrwt beam="1">  1        1 0.85322846E-02 0.89058211E+02</pdfrwt>
<pdfrwt beam="2">  1       -1 0.55004206E-02 0.89058211E+02</pdfrwt>
<totfact> 0.10165524E+05</totfact>
</mgrwt>
</event>
<event>
 5    1  0.6046470E+000  0.9133643E+02  0.7546771E-02  0.1299647E+00
          2   -1    0    0  501    0  0.00000000000E+00  0.00000000000E+00  0.27105276798E+03  0.27105276798E+03  0.00000000000E+00 0. -1.
         -2   -1    0    0    0  501 -0.00000000000E+00 -0.00000000000E+00 -0.76943913116E+01  0.76943913116E+01  0.00000000000E+00 0.  1.
         23    2    1    2    0    0  0.00000000000E+00  0.00000000000E+00  0.26335837667E+03  0.27874715929E+03  0.91336434415E+02 0.  0.
        -13    1    3    3    0    0 -0.19118846853E+02 -0.36794636921E+02  0.73276644499E+02  0.84195262575E+02  0.00000000000E+00 0.  1.
         13    1    3    3    0    0  0.19118846853E+02  0.36794636921E+02  0.19008173217E+03  0.19455189671E+03  0.00000000000E+00 0. -1.
<mgrwt>
<rscale>  0 0.91336434E+02</rscale>
<asrwt>0</asrwt>
<pdfrwt beam="1">  1        2 0.41700419E-01 0.91336434E+02</pdfrwt>
<pdfrwt beam="2">  1       -2 0.11837527E-02 0.91336434E+02</pdfrwt>
<totfact> 0.17217998E+05</totfact>
</mgrwt>
</event>
<event>
 5    1  0.6046470E+000  0.9118053E+02  0.7546771E-02  0.1300018E+00
          2   -1    0    0  501    0  0.00000000000E+00  0.00000000000E+00  0.91001497955E+02  0.91001497955E+02  0.00000000000E+00 0. -1.
         -2   -1    0    0    0  501 -0.00000000000E+00 -0.00000000000E+00 -0.22839977782E+02  0.22839977782E+02  0.00000000000E+00 0.  1.
         23    2    1    2    0    0  0.00000000000E+00  0.00000000000E+00  0.68161520173E+02  0.11384147574E+03  0.91180528434E+02 0.  0.
        -13    1    3    3    0    0 -0.45566608564E+02 -0.90626630482E+00  0.32638152320E+02  0.56056989944E+02  0.00000000000E+00 0. -1.
         13    1    3    3    0    0  0.45566608564E+02  0.90626630482E+00  0.35523367853E+02  0.57784485792E+02  0.00000000000E+00 0.  1.
<mgrwt>
<rscale>  0 0.91180528E+02</rscale>
<asrwt>0</asrwt>
<pdfrwt beam="1">  1        2 0.14000230E-01 0.91180528E+02</pdfrwt>
<pdfrwt beam="2">  1       -2 0.35138428E-02 0.91180528E+02</pdfrwt>
<totfact> 0.11923519E+05</totfact>
</mgrwt>
</event>
<event>
 5    1  0.6046470E+000  0.9146008E+02  0.7546771E-02  0.1299354E+00
          4   -1    0    0  501    0  0.00000000000E+00  0.00000000000E+00  0.30949420425E+02  0.30949420425E+02  0.00000000000E+00 0. -1.
         -4   -1    0    0    0  501 -0.00000000000E+00 -0.00000000000E+00 -0.67569490025E+02  0.67569490025E+02  0.00000000000E+00 0.  1.
         23    2    1    2    0    0  0.00000000000E+00  0.00000000000E+00 -0.36620069600E+02  0.98518910450E+02  0.91460079919E+02 0.  0.
        -13    1    3    3    0    0 -0.28559672661E+02 -0.31571637628E+02 -0.32361168055E+00  0.42573793929E+02  0.00000000000E+00 0. -1.
         13    1    3    3    0    0  0.28559672661E+02  0.31571637628E+02 -0.36296457920E+02  0.55945116521E+02  0.00000000000E+00 0.  1.
<mgrwt>
<rscale>  0 0.91460080E+02</rscale>
<asrwt>0</asrwt>
<pdfrwt beam="1">  1        4 0.47614493E-02 0.91460080E+02</pdfrwt>
<pdfrwt beam="2">  1       -4 0.10395306E-01 0.91460080E+02</pdfrwt>
<totfact> 0.26327406E+04</totfact>
</mgrwt>
</event>
<event>
 5    1  0.6046470E+000  0.8698426E+02  0.7546771E-02  0.1310324E+00
          1   -1    0    0  501    0  0.00000000000E+00  0.00000000000E+00  0.11748412097E+03  0.11748412097E+03  0.00000000000E+00 0. -1.
         -1   -1    0    0    0  501 -0.00000000000E+00 -0.00000000000E+00 -0.16100603071E+02  0.16100603071E+02  0.00000000000E+00 0.  1.
         23    2    1    2    0    0  0.00000000000E+00  0.00000000000E+00  0.10138351789E+03  0.13358472404E+03  0.86984256021E+02 0.  0.
        -13    1    3    3    0    0 -0.12383720413E+02  0.23320945718E+02 -0.23820828523E+01  0.26512211510E+02  0.00000000000E+00 0.  1.
         13    1    3    3    0    0  0.12383720413E+02 -0.23320945718E+02  0.10376560075E+03  0.10707251253E+03  0.00000000000E+00 0. -1.
<mgrwt>
<rscale>  0 0.86984256E+02</rscale>
<asrwt>0</asrwt>
<pdfrwt beam="1">  1        1 0.18074480E-01 0.86984256E+02</pdfrwt>
<pdfrwt beam="2">  1       -1 0.24770159E-02 0.86984256E+02</pdfrwt>
<totfact> 0.12191320E+05</totfact>
</mgrwt>
</event>
<event>
 5    1  0.6046470E+000  0.9166405E+02  0.7546771E-02  0.1298871E+00
          2   -1    0    0  501    0  0.00000000000E+00  0.00000000000E+00  0.75927566529E+01  0.75927566529E+01  0.00000000000E+00 0. -1.
         -2   -1    0    0    0  501 -0.00000000000E+00 -0.00000000000E+00 -0.27665504282E+03  0.27665504282E+03  0.00000000000E+00 0.  1.
         23    2    1    2    0    0  0.00000000000E+00  0.00000000000E+00 -0.26906228617E+03  0.28424779948E+03  0.91664047848E+02 0.  0.
        -13    1    3    3    0    0 -0.42172112510E+02 -0.20312153796E+01 -0.18982607827E+03  0.19446478576E+03  0.00000000000E+00 0. -1.
         13    1    3    3    0    0  0.42172112510E+02  0.20312153796E+01 -0.79236207904E+02  0.89783013719E+02  0.00000000000E+00 0.  1.
<mgrwt>
<rscale>  0 0.91664048E+02</rscale>
<asrwt>0</asrwt>
<pdfrwt beam="1">  1        2 0.11681166E-02 0.91664048E+02</pdfrwt>
<pdfrwt beam="2">  1       -2 0.42562307E-01 0.91664048E+02</pdfrwt>
<totfact> 0.52588911E+04</totfact>
</mgrwt>
</event>
<event>
 5    1  0.6046470E+000  0.9047076E+02  0.7546771E-02  0.1301716E+00
          2   -1    0    0  501    0  0.00000000000E+00  0.00000000000E+00  0.12713408413E+03  0.12713408413E+03  0.00000000000E+00 0. -1.
         -2   -1    0    0    0  501 -0.00000000000E+00 -0.00000000000E+00 -0.16095130181E+02  0.16095130181E+02  0.00000000000E+00 0.  1.
         23    2    1    2    0    0  0.00000000000E+00  0.00000000000E+00  0.11103895395E+03  0.14322921431E+03  0.90470760679E+02 0.  0.
        -13    1    3    3    0    0  0.22735620677E+02  0.30840930878E+02  0.17452318783E+02  0.42102908402E+02  0.00000000000E+00 0. -1.
         13    1    3    3    0    0 -0.22735620677E+02 -0.30840930878E+02  0.93586635164E+02  0.10112630591E+03  0.00000000000E+00 0.  1.
<mgrwt>
<rscale>  0 0.90470761E+02</rscale>
<asrwt>0</asrwt>
<pdfrwt beam="1">  1        2 0.19559089E-01 0.90470761E+02</pdfrwt>
<pdfrwt beam="2">  1       -2 0.24761740E-02 0.90470761E+02</pdfrwt>
<totfact> 0.13514579E+05</totfact>
</mgrwt>
</event>
<event>
 5    1  0.6046470E+000  0.6500062E+02  0.7546771E-02  0.1377969E+00
          3   -1    0    0  501    0  0.00000000000E+00  0.00000000000E+00  0.84353686992E+02  0.84353686992E+02  0.00000000000E+00 0. -1.
         -3   -1    0    0    0  501 -0.00000000000E+00 -0.00000000000E+00 -0.12521920339E+02  0.12521920339E+02  0.00000000000E+00 0.  1.
         23    2    1    2    0    0  0.00000000000E+00  0.00000000000E+00  0.71831766653E+02  0.96875607330E+02  0.65000619959E+02 0.  0.
        -13    1    3    3    0    0  0.23791616235E+02 -0.17288376751E+02  0.15300037503E+02  0.33151472386E+02  0.00000000000E+00 0.  1.
         13    1    3    3    0    0 -0.23791616235E+02  0.17288376751E+02  0.56531729150E+02  0.63724134945E+02  0.00000000000E+00 0. -1.
<mgrwt>
<rscale>  0 0.65000620E+02</rscale>
<asrwt>0</asrwt>
<pdfrwt beam="1">  1        3 0.12977490E-01 0.65000620E+02</pdfrwt>
<pdfrwt beam="2">  1       -3 0.19264493E-02 0.65000620E+02</pdfrwt>
<totfact> 0.85961876E+04</totfact>
</mgrwt>
</event>
<event>
 5    1  0.6046470E+000  0.9152502E+02  0.7546771E-02  0.1299200E+00
          2   -1    0    0  501    0  0.00000000000E+00  0.00000000000E+00  0.61693098243E+01  0.61693098243E+01  0.00000000000E+00 0. -1.
         -2   -1    0    0    0  501 -0.00000000000E+00 -0.00000000000E+00 -0.33945565837E+03  0.33945565837E+03  0.00000000000E+00 0.  1.
         23    2    1    2    0    0  0.00000000000E+00  0.00000000000E+00 -0.33328634854E+03  0.34562496819E+03  0.91525015773E+02 0.  0.
        -13    1    3    3    0    0  0.14464762097E+02  0.38309953903E+02 -0.24378725540E+03  0.24720256432E+03  0.00000000000E+00 0.  1.
         13    1    3    3    0    0 -0.14464762097E+02 -0.38309953903E+02 -0.89499093142E+02  0.98422403871E+02  0.00000000000E+00 0. -1.
<mgrwt>
<rscale>  0 0.91525016E+02</rscale>
<asrwt>0</asrwt>
<pdfrwt beam="1">  1        2 0.94912441E-03 0.91525016E+02</pdfrwt>
<pdfrwt beam="2">  1       -2 0.52223957E-01 0.91525016E+02</pdfrwt>
<totfact> 0.46976646E+04</totfact>
</mgrwt>
</event>
<event>
 5    1  0.6046470E+000  0.9017636E+02  0.7546771E-02  0.1302425E+00
         -3   -1    0    0    0  501 -0.00000000000E+00  0.00000000000E+00  0.34558667487E+02  0.34558667487E+02  0.00000000000E+00 0.  1.
          3   -1    0    0  501    0  0.00000000000E+00 -0.00000000000E+00 -0.58825872039E+02  0.58825872039E+02  0.00000000000E+00 0. -1.
         23    2    1    2    0    0  0.00000000000E+00  0.00000000000E+00 -0.24267204553E+02  0.93384539526E+02  0.90176355025E+02 0.  0.
        -13    1    3    3    0    0 -0.29191091288E+02  0.34035531291E+02 -0.17035562764E+02  0.47966108864E+02  0.00000000000E+00 0.  1.
         13    1    3    3    0    0  0.29191091288E+02 -0.34035531291E+02 -0.72316417893E+01  0.45418430662E+02  0.00000000000E+00 0. -1.
<mgrwt>
<rscale>  0 0.90176355E+02</rscale>
<asrwt>0</asrwt>
<pdfrwt beam="2">  1        3 0.90501341E-02 0.90176355E+02</pdfrwt>
<pdfrwt beam="1">  1       -3 0.53167181E-02 0.90176355E+02</pdfrwt>
<totfact> 0.36240394E+04</totfact>
</mgrwt>
</event>
<event>
 5    1  0.6046470E+000  0.9367455E+02  0.7546771E-02  0.1294190E+00
          1   -1    0    0  501    0  0.00000000000E+00  0.00000000000E+00  0.28382623880E+03  0.28382623880E+03  0.00000000000E+00 0. -1.
         -1   -1    0    0    0  501 -0.00000000000E+00 -0.00000000000E+00 -0.77291309550E+01  0.77291309550E+01  0.00000000000E+00 0.  1.
         23    2    1    2    0    0  0.00000000000E+00  0.00000000000E+00  0.27609710784E+03  0.29155536975E+03  0.93674546556E+02 0.  0.
        -13    1    3    3    0    0 -0.25520122627E+02 -0.29615329319E+02  0.21833388491E+03  0.22180628866E+03  0.00000000000E+00 0. -1.
         13    1    3    3    0    0  0.25520122627E+02  0.29615329319E+02  0.57763222934E+02  0.69749081093E+02  0.00000000000E+00 0.  1.
<mgrwt>
<rscale>  0 0.93674547E+02</rscale>
<asrwt>0</asrwt>
<pdfrwt beam="1">  1        1 0.43665567E-01 0.93674547E+02</pdfrwt>
<pdfrwt beam="2">  1       -1 0.11890973E-02 0.93674547E+02</pdfrwt>
<totfact> 0.11793457E+05</totfact>
</mgrwt>
</event>
<event>
 5    1  0.6046470E+000  0.8902270E+02  0.7546771E-02  0.1305236E+00
         -1   -1    0    0    0  501 -0.00000000000E+00  0.00000000000E+00  0.64539789575E+02  0.64539789575E+02  0.00000000000E+00 0.  1.
          1   -1    0    0  501    0  0.00000000000E+00 -0.00000000000E+00 -0.30698277318E+02  0.30698277318E+02  0.00000000000E+00 0. -1.
         23    2    1    2    0    0  0.00000000000E+00  0.00000000000E+00  0.33841512257E+02  0.95238066894E+02  0.89022701789E+02 0.  0.
        -13    1    3    3    0    0  0.17400775691E+02  0.29926338781E+02 -0.13012882488E+02  0.36982534501E+02  0.00000000000E+00 0.  1.
         13    1    3    3    0    0 -0.17400775691E+02 -0.29926338781E+02  0.46854394745E+02  0.58255532393E+02  0.00000000000E+00 0. -1.
<mgrwt>
<rscale>  0 0.89022702E+02</rscale>
<asrwt>0</asrwt>
<pdfrwt beam="2">  1        1 0.47228119E-02 0.89022702E+02</pdfrwt>
<pdfrwt beam="1">  1       -1 0.99291984E-02 0.89022702E+02</pdfrwt>
<totfact> 0.93159216E+04</totfact>
</mgrwt>
</event>
<event>
 5    1  0.6046470E+000  0.9212016E+02  0.7546771E-02  0.1297797E+00
         -1   -1    0    0    0  501 -0.00000000000E+00  0.00000000000E+00  0.25292397003E+02  0.25292397003E+02  0.00000000000E+00 0.  1.
          1   -1    0    0  501    0  0.00000000000E+00 -0.00000000000E+00 -0.83880193883E+02  0.83880193883E+02  0.00000000000E+00 0. -1.
         23    2    1    2    0    0  0.00000000000E+00  0.00000000000E+00 -0.58587796880E+02  0.10917259089E+03  0.92120164228E+02 0.  0.
        -13    1    3    3    0    0  0.30758547810E+02  0.31559316492E+02 -0.13418172187E+02  0.46066539545E+02  0.00000000000E+00 0.  1.
         13    1    3    3    0    0 -0.30758547810E+02 -0.31559316492E+02 -0.45169624693E+02  0.63106051340E+02  0.00000000000E+00 0. -1.
<mgrwt>
<rscale>  0 0.92120164E+02</rscale>
<asrwt>0</asrwt>
<pdfrwt beam="2">  1        1 0.12904645E-01 0.92120164E+02</pdfrwt>
<pdfrwt beam="1">  1       -1 0.38911380E-02 0.92120164E+02</pdfrwt>
<totfact> 0.98675963E+04</totfact>
</mgrwt>
</event>
<event>
 5    1  0.6046470E+000  0.9099247E+02  0.7546771E-02  0.1300466E+00
          1   -1    0    0  501    0  0.00000000000E+00  0.00000000000E+00  0.93522916564E+01  0.93522916564E+01  0.00000000000E+00 0. -1.
         -1   -1    0    0    0  501 -0.00000000000E+00 -0.00000000000E+00 -0.22132621672E+03  0.22132621672E+03  0.00000000000E+00 0.  1.
         23    2    1    2    0    0  0.00000000000E+00  0.00000000000E+00 -0.21197392506E+03  0.23067850837E+03  0.90992468478E+02 0.  0.
        -13    1    3    3    0    0  0.25515823351E+02 -0.36576731567E+02 -0.83171730767E+02  0.94373997119E+02  0.00000000000E+00 0. -1.
         13    1    3    3    0    0 -0.25515823351E+02  0.36576731567E+02 -0.12880219429E+03  0.13630451125E+03  0.00000000000E+00 0.  1.
<mgrwt>
<rscale>  0 0.90992468E+02</rscale>
<asrwt>0</asrwt>
<pdfrwt beam="1">  1        1 0.14388143E-02 0.90992468E+02</pdfrwt>
<pdfrwt beam="2">  1       -1 0.34050182E-01 0.90992468E+02</pdfrwt>
<totfact> 0.67723307E+04</totfact>
</mgrwt>
</event>
<event>
 5    1  0.6046470E+000  0.8934637E+02  0.7546771E-02  0.1304442E+00
         -1   -1    0    0    0  501 -0.00000000000E+00  0.00000000000E+00  0.32356418652E+02  0.32356418652E+02  0.00000000000E+00 0.  1.
          1   -1    0    0  501    0  0.00000000000E+00 -0.00000000000E+00 -0.61678437146E+02  0.61678437146E+02  0.00000000000E+00 0. -1.
         23    2    1    2    0    0  0.00000000000E+00  0.00000000000E+00 -0.29322018494E+02  0.94034855797E+02  0.89346367225E+02 0.  0.
        -13    1    3    3    0    0  0.28750739617E+02  0.34128556193E+02 -0.16851058054E+02  0.47700330542E+02  0.00000000000E+00 0.  1.
         13    1    3    3    0    0 -0.28750739617E+02 -0.34128556193E+02 -0.12470960439E+02  0.46334525255E+02  0.00000000000E+00 0. -1.
<mgrwt>
<rscale>  0 0.89346367E+02</rscale>
<asrwt>0</asrwt>
<pdfrwt beam="2">  1        1 0.94889903E-02 0.89346367E+02</pdfrwt>
<pdfrwt beam="1">  1       -1 0.49779106E-02 0.89346367E+02</pdfrwt>
<totfact> 0.10235549E+05</totfact>
</mgrwt>
</event>
<event>
 5    1  0.6046470E+000  0.9214966E+02  0.7546771E-02  0.1297728E+00
          1   -1    0    0  501    0  0.00000000000E+00  0.00000000000E+00  0.20540425341E+03  0.20540425341E+03  0.00000000000E+00 0. -1.
         -1   -1    0    0    0  501 -0.00000000000E+00 -0.00000000000E+00 -0.10335180421E+02  0.10335180421E+02  0.00000000000E+00 0.  1.
         23    2    1    2    0    0  0.00000000000E+00  0.00000000000E+00  0.19506907299E+03  0.21573943383E+03  0.92149661276E+02 0.  0.
        -13    1    3    3    0    0 -0.25839957213E+02 -0.16119713201E+02  0.16591072547E+02  0.34681583451E+02  0.00000000000E+00 0.  1.
         13    1    3    3    0    0  0.25839957213E+02  0.16119713201E+02  0.17847800044E+03  0.18105785038E+03  0.00000000000E+00 0. -1.
<mgrwt>
<rscale>  0 0.92149661E+02</rscale>
<asrwt>0</asrwt>
<pdfrwt beam="1">  1        1 0.31600651E-01 0.92149661E+02</pdfrwt>
<pdfrwt beam="2">  1       -1 0.15900279E-02 0.92149661E+02</pdfrwt>
<totfact> 0.11567787E+05</totfact>
</mgrwt>
</event>
<event>
 5    1  0.6046470E+000  0.9227568E+02  0.7546771E-02  0.1297433E+00
         -2   -1    0    0    0  501 -0.00000000000E+00  0.00000000000E+00  0.95391511250E+02  0.95391511250E+02  0.00000000000E+00 0.  1.
          2   -1    0    0  501    0  0.00000000000E+00 -0.00000000000E+00 -0.22315407069E+02  0.22315407069E+02  0.00000000000E+00 0. -1.
         23    2    1    2    0    0  0.00000000000E+00  0.00000000000E+00  0.73076104181E+02  0.11770691832E+03  0.92275682701E+02 0.  0.
        -13    1    3    3    0    0 -0.35138572646E+02  0.25712115272E+02  0.17072359624E+02  0.46768553778E+02  0.00000000000E+00 0. -1.
         13    1    3    3    0    0  0.35138572646E+02 -0.25712115272E+02  0.56003744557E+02  0.70938364541E+02  0.00000000000E+00 0.  1.
<mgrwt>
<rscale>  0 0.92275683E+02</rscale>
<asrwt>0</asrwt>
<pdfrwt beam="2">  1        2 0.34331396E-02 0.92275683E+02</pdfrwt>
<pdfrwt beam="1">  1       -2 0.14675617E-01 0.92275683E+02</pdfrwt>
<totfact> 0.78554325E+04</totfact>
</mgrwt>
</event>
<event>
 5    1  0.6046470E+000  0.8902463E+02  0.7546771E-02  0.1305231E+00
          1   -1    0    0  501    0  0.00000000000E+00  0.00000000000E+00  0.37206840619E+03  0.37206840619E+03  0.00000000000E+00 0. -1.
         -1   -1    0    0    0  501 -0.00000000000E+00 -0.00000000000E+00 -0.53252204378E+01  0.53252204378E+01  0.00000000000E+00 0.  1.
         23    2    1    2    0    0  0.00000000000E+00  0.00000000000E+00  0.36674318575E+03  0.37739362663E+03  0.89024632117E+02 0.  0.
        -13    1    3    3    0    0 -0.42884448639E+02  0.11508443965E+02  0.19666003757E+03  0.20161024427E+03  0.00000000000E+00 0. -1.
         13    1    3    3    0    0  0.42884448639E+02 -0.11508443965E+02  0.17008314818E+03  0.17578338236E+03  0.00000000000E+00 0.  1.
<mgrwt>
<rscale>  0 0.89024632E+02</rscale>
<asrwt>0</asrwt>
<pdfrwt beam="1">  1        1 0.57241273E-01 0.89024632E+02</pdfrwt>
<pdfrwt beam="2">  1       -1 0.81926497E-03 0.89024632E+02</pdfrwt>
<totfact> 0.14197106E+05</totfact>
</mgrwt>
</event>
<event>
 5    1  0.6046470E+000  0.9063985E+02  0.7546771E-02  0.1301310E+00
         -1   -1    0    0    0  501 -0.00000000000E+00  0.00000000000E+00  0.42723789251E+02  0.42723789251E+02  0.00000000000E+00 0.  1.
          1   -1    0    0  501    0  0.00000000000E+00 -0.00000000000E+00 -0.48073816055E+02  0.48073816055E+02  0.00000000000E+00 0. -1.
         23    2    1    2    0    0  0.00000000000E+00  0.00000000000E+00 -0.53500268042E+01  0.90797605306E+02  0.90639849638E+02 0.  0.
        -13    1    3    3    0    0  0.30477535915E+02  0.24330428094E+02 -0.25802978518E+02  0.46761561427E+02  0.00000000000E+00 0. -1.
         13    1    3    3    0    0 -0.30477535915E+02 -0.24330428094E+02  0.20452951714E+02  0.44036043879E+02  0.00000000000E+00 0.  1.
<mgrwt>
<rscale>  0 0.90639850E+02</rscale>
<asrwt>0</asrwt>
<pdfrwt beam="2">  1        1 0.73959717E-02 0.90639850E+02</pdfrwt>
<pdfrwt beam="1">  1       -1 0.65728907E-02 0.90639850E+02</pdfrwt>
<totfact> 0.94765723E+04</totfact>
</mgrwt>
</event>
<event>
 5    1  0.6046470E+000  0.9410456E+02  0.7546771E-02  0.1293206E+00
         -2   -1    0    0    0  501 -0.00000000000E+00  0.00000000000E+00  0.75191637772E+02  0.75191637772E+02  0.00000000000E+00 0.  1.
          2   -1    0    0  501    0  0.00000000000E+00 -0.00000000000E+00 -0.29443661959E+02  0.29443661959E+02  0.00000000000E+00 0. -1.
         23    2    1    2    0    0  0.00000000000E+00  0.00000000000E+00  0.45747975812E+02  0.10463529973E+03  0.94104562370E+02 0.  0.
        -13    1    3    3    0    0  0.40519284356E+01 -0.41707904485E+02  0.46668480806E+02  0.62720925705E+02  0.00000000000E+00 0.  1.
         13    1    3    3    0    0 -0.40519284356E+01  0.41707904485E+02 -0.92050499327E+00  0.41914374026E+02  0.00000000000E+00 0. -1.
<mgrwt>
<rscale>  0 0.94104562E+02</rscale>
<asrwt>0</asrwt>
<pdfrwt beam="2">  1        2 0.45297942E-02 0.94104562E+02</pdfrwt>
<pdfrwt beam="1">  1       -2 0.11567944E-01 0.94104562E+02</pdfrwt>
<totfact> 0.80093391E+04</totfact>
</mgrwt>
</event>
<event>
 5    1  0.6046470E+000  0.9669215E+02  0.7546771E-02  0.1287410E+00
         -1   -1    0    0    0  501 -0.00000000000E+00  0.00000000000E+00  0.29236104003E+02  0.29236104003E+02  0.00000000000E+00 0.  1.
          1   -1    0    0  501    0  0.00000000000E+00 -0.00000000000E+00 -0.79947143844E+02  0.79947143844E+02  0.00000000000E+00 0. -1.
         23    2    1    2    0    0  0.00000000000E+00  0.00000000000E+00 -0.50711039841E+02  0.10918324785E+03  0.96692150917E+02 0.  0.
        -13    1    3    3    0    0 -0.20157151183E+02  0.76080921667E+01 -0.74226491556E+02  0.77290140762E+02  0.00000000000E+00 0. -1.
         13    1    3    3    0    0  0.20157151183E+02 -0.76080921667E+01  0.23515451716E+02  0.31893107086E+02  0.00000000000E+00 0.  1.
<mgrwt>
<rscale>  0 0.96692151E+02</rscale>
<asrwt>0</asrwt>
<pdfrwt beam="2">  1        1 0.12299560E-01 0.96692151E+02</pdfrwt>
<pdfrwt beam="1">  1       -1 0.44978622E-02 0.96692151E+02</pdfrwt>
<totfact> 0.85667186E+04</totfact>
</mgrwt>
</event>
<event>
 5    1  0.6046470E+000  0.9048131E+02  0.7546771E-02  0.1301690E+00
          2   -1    0    0  501    0  0.00000000000E+00  0.00000000000E+00  0.35933962871E+02  0.35933962871E+02  0.00000000000E+00 0. -1.
         -2   -1    0    0    0  501 -0.00000000000E+00 -0.00000000000E+00 -0.56957733475E+02  0.56957733475E+02  0.00000000000E+00 0.  1.
         23    2    1    2    0    0  0.00000000000E+00  0.00000000000E+00 -0.21023770605E+02  0.92891696346E+02  0.90481314754E+02 0.  0.
        -13    1    3    3    0    0 -0.27425955180E+02 -0.35587273347E+02 -0.15952109998E+02  0.47677110390E+02  0.00000000000E+00 0. -1.
         13    1    3    3    0    0  0.27425955180E+02  0.35587273347E+02 -0.50716606069E+01  0.45214585955E+02  0.00000000000E+00 0.  1.
<mgrwt>
<rscale>  0 0.90481315E+02</rscale>
<asrwt>0</asrwt>
<pdfrwt beam="1">  1        2 0.55283020E-02 0.90481315E+02</pdfrwt>
<pdfrwt beam="2">  1       -2 0.87627283E-02 0.90481315E+02</pdfrwt>
<totfact> 0.94868327E+04</totfact>
</mgrwt>
</event>
<event>
 5    1  0.6046470E+000  0.9473780E+02  0.7546771E-02  0.1291768E+00
         -2   -1    0    0    0  501 -0.00000000000E+00  0.00000000000E+00  0.16647732913E+02  0.16647732913E+02  0.00000000000E+00 0.  1.
          2   -1    0    0  501    0  0.00000000000E+00 -0.00000000000E+00 -0.13478187943E+03  0.13478187943E+03  0.00000000000E+00 0. -1.
         23    2    1    2    0    0  0.00000000000E+00  0.00000000000E+00 -0.11813414652E+03  0.15142961235E+03  0.94737800910E+02 0.  0.
        -13    1    3    3    0    0  0.16839008483E+02 -0.36265169680E+02 -0.18469473656E+02  0.44043571560E+02  0.00000000000E+00 0.  1.
         13    1    3    3    0    0 -0.16839008483E+02  0.36265169680E+02 -0.99664672864E+02  0.10738604079E+03  0.00000000000E+00 0. -1.
<mgrwt>
<rscale>  0 0.94737801E+02</rscale>
<asrwt>0</asrwt>
<pdfrwt beam="2">  1        2 0.20735674E-01 0.94737801E+02</pdfrwt>
<pdfrwt beam="1">  1       -2 0.25611897E-02 0.94737801E+02</pdfrwt>
<totfact> 0.12147156E+05</totfact>
</mgrwt>
</event>
<event>
 5    1  0.6046470E+000  0.8931971E+02  0.7546771E-02  0.1304508E+00
         -1   -1    0    0    0  501 -0.00000000000E+00  0.00000000000E+00  0.40756071751E+02  0.40756071751E+02  0.00000000000E+00 0.  1.
          1   -1    0    0  501    0  0.00000000000E+00 -0.00000000000E+00 -0.48937561751E+02  0.48937561751E+02  0.00000000000E+00 0. -1.
         23    2    1    2    0    0  0.00000000000E+00  0.00000000000E+00 -0.81814900003E+01  0.89693633502E+02  0.89319712898E+02 0.  0.
        -13    1    3    3    0    0  0.16482910189E+00  0.26409952661E+02  0.32073767464E+02  0.41548036386E+02  0.00000000000E+00 0.  1.
         13    1    3    3    0    0 -0.16482910189E+00 -0.26409952661E+02 -0.40255257464E+02  0.48145597116E+02  0.00000000000E+00 0. -1.
<mgrwt>
<rscale>  0 0.89319713E+02</rscale>
<asrwt>0</asrwt>
<pdfrwt beam="2">  1        1 0.75288556E-02 0.89319713E+02</pdfrwt>
<pdfrwt beam="1">  1       -1 0.62701649E-02 0.89319713E+02</pdfrwt>
<totfact> 0.98987182E+04</totfact>
</mgrwt>
</event>
<event>
 5    1  0.6046470E+000  0.9123004E+02  0.7546771E-02  0.1299900E+00
         -2   -1    0    0    0  501 -0.00000000000E+00  0.00000000000E+00  0.15082331294E+03  0.15082331294E+03  0.00000000000E+00 0.  1.
          2   -1    0    0  501    0  0.00000000000E+00 -0.00000000000E+00 -0.13795812208E+02  0.13795812208E+02  0.00000000000E+00 0. -1.
         23    2    1    2    0    0  0.00000000000E+00  0.00000000000E+00  0.13702750073E+03  0.16461912515E+03  0.91230041147E+02 0.  0.
        -13    1    3    3    0    0  0.33026062148E+02 -0.23535663968E+02  0.30832403243E+02  0.50943943204E+02  0.00000000000E+00 0. -1.
         13    1    3    3    0    0 -0.33026062148E+02  0.23535663968E+02  0.10619509749E+03  0.11367518194E+03  0.00000000000E+00 0.  1.
<mgrwt>
<rscale>  0 0.91230041E+02</rscale>
<asrwt>0</asrwt>
<pdfrwt beam="2">  1        2 0.21224328E-02 0.91230041E+02</pdfrwt>
<pdfrwt beam="1">  1       -2 0.23203585E-01 0.91230041E+02</pdfrwt>
<totfact> 0.69614297E+04</totfact>
</mgrwt>
</event>
<event>
 5    1  0.6046470E+000  0.9038257E+02  0.7546771E-02  0.1301928E+00
         -2   -1    0    0    0  501 -0.00000000000E+00  0.00000000000E+00  0.23037099353E+03  0.23037099353E+03  0.00000000000E+00 0.  1.
          2   -1    0    0  501    0  0.00000000000E+00 -0.00000000000E+00 -0.88650583036E+01  0.88650583036E+01  0.00000000000E+00 0. -1.
         23    2    1    2    0    0  0.00000000000E+00  0.00000000000E+00  0.22150593522E+03  0.23923605183E+03  0.90382571087E+02 0.  0.
        -13    1    3    3    0    0  0.94052190325E+01  0.35009058180E+02  0.18217880505E+03  0.18575039518E+03  0.00000000000E+00 0.  1.
         13    1    3    3    0    0 -0.94052190325E+01 -0.35009058180E+02  0.39327130171E+02  0.53485656649E+02  0.00000000000E+00 0. -1.
<mgrwt>
<rscale>  0 0.90382571E+02</rscale>
<asrwt>0</asrwt>
<pdfrwt beam="2">  1        2 0.13638553E-02 0.90382571E+02</pdfrwt>
<pdfrwt beam="1">  1       -2 0.35441687E-01 0.90382571E+02</pdfrwt>
<totfact> 0.59779342E+04</totfact>
</mgrwt>
</event>
<event>
 5    1  0.6046470E+000  0.9192576E+02  0.7546771E-02  0.1298254E+00
         -1   -1    0    0    0  501 -0.00000000000E+00  0.00000000000E+00  0.93562241892E+02  0.93562241892E+02  0.00000000000E+00 0.  1.
          1   -1    0    0  501    0  0.00000000000E+00 -0.00000000000E+00 -0.22579474627E+02  0.22579474627E+02  0.00000000000E+00 0. -1.
         23    2    1    2    0    0  0.00000000000E+00  0.00000000000E+00  0.70982767265E+02  0.11614171652E+03  0.91925758454E+02 0.  0.
        -13    1    3    3    0    0  0.19701463603E+02  0.18162917395E+02 -0.11689666310E+02  0.29235039505E+02  0.00000000000E+00 0. -1.
         13    1    3    3    0    0 -0.19701463603E+02 -0.18162917395E+02  0.82672433575E+02  0.86906677014E+02  0.00000000000E+00 0.  1.
<mgrwt>
<rscale>  0 0.91925758E+02</rscale>
<asrwt>0</asrwt>
<pdfrwt beam="2">  1        1 0.34737654E-02 0.91925758E+02</pdfrwt>
<pdfrwt beam="1">  1       -1 0.14394191E-01 0.91925758E+02</pdfrwt>
<totfact> 0.80652077E+04</totfact>
</mgrwt>
</event>
<event>
 5    1  0.6046470E+000  0.9365365E+02  0.7546771E-02  0.1294238E+00
         -2   -1    0    0    0  501 -0.00000000000E+00  0.00000000000E+00  0.10312884113E+03  0.10312884113E+03  0.00000000000E+00 0.  1.
          2   -1    0    0  501    0  0.00000000000E+00 -0.00000000000E+00 -0.21262253546E+02  0.21262253546E+02  0.00000000000E+00 0. -1.
         23    2    1    2    0    0  0.00000000000E+00  0.00000000000E+00  0.81866587582E+02  0.12439109467E+03  0.93653650607E+02 0.  0.
        -13    1    3    3    0    0  0.43178277451E+02  0.11926674442E+01  0.64950114904E+02  0.78001945651E+02  0.00000000000E+00 0.  1.
         13    1    3    3    0    0 -0.43178277451E+02 -0.11926674442E+01  0.16916472678E+02  0.46389149023E+02  0.00000000000E+00 0. -1.
<mgrwt>
<rscale>  0 0.93653651E+02</rscale>
<asrwt>0</asrwt>
<pdfrwt beam="2">  1        2 0.32711160E-02 0.93653651E+02</pdfrwt>
<pdfrwt beam="1">  1       -2 0.15865975E-01 0.93653651E+02</pdfrwt>
<totfact> 0.73958775E+04</totfact>
</mgrwt>
</event>
<event>
 5    1  0.6046470E+000  0.9054363E+02  0.7546771E-02  0.1301541E+00
         -2   -1    0    0    0  501 -0.00000000000E+00  0.00000000000E+00  0.33705778540E+03  0.33705778540E+03  0.00000000000E+00 0.  1.
          2   -1    0    0  501    0  0.00000000000E+00 -0.00000000000E+00 -0.60806701039E+01  0.60806701039E+01  0.00000000000E+00 0. -1.
         23    2    1    2    0    0  0.00000000000E+00  0.00000000000E+00  0.33097711530E+03  0.34313845551E+03  0.90543629240E+02 0.  0.
        -13    1    3    3    0    0 -0.18486516021E+02 -0.40626102495E+02  0.19417723211E+03  0.19924113267E+03  0.00000000000E+00 0.  1.
         13    1    3    3    0    0  0.18486516021E+02  0.40626102495E+02  0.13679988319E+03  0.14389732284E+03  0.00000000000E+00 0. -1.
<mgrwt>
<rscale>  0 0.90543629E+02</rscale>
<asrwt>0</asrwt>
<pdfrwt beam="2">  1        2 0.93548797E-03 0.90543629E+02</pdfrwt>
<pdfrwt beam="1">  1       -2 0.51855029E-01 0.90543629E+02</pdfrwt>
<totfact> 0.48509932E+04</totfact>
</mgrwt>
</event>
<event>
 5    1  0.6046470E+000  0.9537683E+02  0.7546771E-02  0.1290330E+00
          1   -1    0    0  501    0  0.00000000000E+00  0.00000000000E+00  0.10438240688E+03  0.10438240688E+03  0.00000000000E+00 0.  1.
         -1   -1    0    0    0  501 -0.00000000000E+00 -0.00000000000E+00 -0.21787053487E+02  0.21787053487E+02  0.00000000000E+00 0. -1.
         23    2    1    2    0    0  0.00000000000E+00  0.00000000000E+00  0.82595353397E+02  0.12616946037E+03  0.95376833285E+02 0.  0.
        -13    1    3    3    0    0 -0.17579791875E+02  0.21349478194E+02 -0.10095360071E+02  0.29440883079E+02  0.00000000000E+00 0. -1.
         13    1    3    3    0    0  0.17579791875E+02 -0.21349478194E+02  0.92690713468E+02  0.96728577291E+02  0.00000000000E+00 0.  1.
<mgrwt>
<rscale>  0 0.95376833E+02</rscale>
<asrwt>0</asrwt>
<pdfrwt beam="1">  1        1 0.16058832E-01 0.95376833E+02</pdfrwt>
<pdfrwt beam="2">  1       -1 0.33518544E-02 0.95376833E+02</pdfrwt>
<totfact> 0.93020431E+04</totfact>
</mgrwt>
</event>
<event>
 5    1  0.6046470E+000  0.9304068E+02  0.7546771E-02  0.1295651E+00
          1   -1    0    0  501    0  0.00000000000E+00  0.00000000000E+00  0.45355792290E+03  0.45355792290E+03  0.00000000000E+00 0. -1.
         -1   -1    0    0    0  501 -0.00000000000E+00 -0.00000000000E+00 -0.47714791164E+01  0.47714791164E+01  0.00000000000E+00 0.  1.
         23    2    1    2    0    0  0.00000000000E+00  0.00000000000E+00  0.44878644379E+03  0.45832940202E+03  0.93040682654E+02 0.  0.
        -13    1    3    3    0    0  0.27197989407E+02  0.36418978573E+02  0.17560984328E+03  0.18139704983E+03  0.00000000000E+00 0.  1.
         13    1    3    3    0    0 -0.27197989407E+02 -0.36418978573E+02  0.27317660050E+03  0.27693235219E+03  0.00000000000E+00 0. -1.
<mgrwt>
<rscale>  0 0.93040683E+02</rscale>
<asrwt>0</asrwt>
<pdfrwt beam="1">  1        1 0.69778108E-01 0.93040683E+02</pdfrwt>
<pdfrwt beam="2">  1       -1 0.73407407E-03 0.93040683E+02</pdfrwt>
<totfact> 0.13031555E+05</totfact>
</mgrwt>
</event>
<event>
 5    1  0.6046470E+000  0.1031871E+03  0.7546771E-02  0.1273733E+00
         -3   -1    0    0    0  501 -0.00000000000E+00  0.00000000000E+00  0.82154695919E+02  0.82154695919E+02  0.00000000000E+00 0.  1.
          3   -1    0    0  501    0  0.00000000000E+00 -0.00000000000E+00 -0.32401018182E+02  0.32401018182E+02  0.00000000000E+00 0. -1.
         23    2    1    2    0    0  0.00000000000E+00  0.00000000000E+00  0.49753677737E+02  0.11455571410E+03  0.10318712703E+03 0.  0.
        -13    1    3    3    0    0 -0.33504995558E+02  0.20191364810E+02  0.62222617249E+02  0.73497823352E+02  0.00000000000E+00 0.  1.
         13    1    3    3    0    0  0.33504995558E+02 -0.20191364810E+02 -0.12468939512E+02  0.41057890749E+02  0.00000000000E+00 0. -1.
<mgrwt>
<rscale>  0 0.10318713E+03</rscale>
<asrwt>0</asrwt>
<pdfrwt beam="2">  1        3 0.49847721E-02 0.10318713E+03</pdfrwt>
<pdfrwt beam="1">  1       -3 0.12639184E-01 0.10318713E+03</pdfrwt>
<totfact> 0.23955447E+04</totfact>
</mgrwt>
</event>
<event>
 5    1  0.6046470E+000  0.9010631E+02  0.7546771E-02  0.1302594E+00
          1   -1    0    0  501    0  0.00000000000E+00  0.00000000000E+00  0.42136730273E+03  0.42136730273E+03  0.00000000000E+00 0. -1.
         -1   -1    0    0    0  501 -0.00000000000E+00 -0.00000000000E+00 -0.48171433744E+01  0.48171433744E+01  0.00000000000E+00 0.  1.
         23    2    1    2    0    0  0.00000000000E+00  0.00000000000E+00  0.41655015935E+03  0.42618444610E+03  0.90106308559E+02 0.  0.
        -13    1    3    3    0    0  0.42865493112E+01 -0.44375159757E+02  0.17752871354E+03  0.18304090647E+03  0.00000000000E+00 0.  1.
         13    1    3    3    0    0 -0.42865493112E+01  0.44375159757E+02  0.23902144581E+03  0.24314353963E+03  0.00000000000E+00 0. -1.
<mgrwt>
<rscale>  0 0.90106309E+02</rscale>
<asrwt>0</asrwt>
<pdfrwt beam="1">  1        1 0.64825710E-01 0.90106309E+02</pdfrwt>
<pdfrwt beam="2">  1       -1 0.74109931E-03 0.90106309E+02</pdfrwt>
<totfact> 0.14034354E+05</totfact>
</mgrwt>
</event>
<event>
 5    1  0.6046470E+000  0.9056051E+02  0.7546771E-02  0.1301500E+00
         -3   -1    0    0    0  501 -0.00000000000E+00  0.00000000000E+00  0.10634862109E+02  0.10634862109E+02  0.00000000000E+00 0.  1.
          3   -1    0    0  501    0  0.00000000000E+00 -0.00000000000E+00 -0.19279059742E+03  0.19279059742E+03  0.00000000000E+00 0. -1.
         23    2    1    2    0    0  0.00000000000E+00  0.00000000000E+00 -0.18215573531E+03  0.20342545953E+03  0.90560508378E+02 0.  0.
        -13    1    3    3    0    0  0.40410510015E+02 -0.45122268554E+01 -0.13583110535E+03  0.14178666613E+03  0.00000000000E+00 0.  1.
         13    1    3    3    0    0 -0.40410510015E+02  0.45122268554E+01 -0.46324629959E+02  0.61638793400E+02  0.00000000000E+00 0. -1.
<mgrwt>
<rscale>  0 0.90560508E+02</rscale>
<asrwt>0</asrwt>
<pdfrwt beam="2">  1        3 0.29660092E-01 0.90560508E+02</pdfrwt>
<pdfrwt beam="1">  1       -3 0.16361326E-02 0.90560508E+02</pdfrwt>
<totfact> 0.28844665E+04</totfact>
</mgrwt>
</event>
<event>
 5    1  0.6046470E+000  0.8785831E+02  0.7546771E-02  0.1308123E+00
         -1   -1    0    0    0  501 -0.00000000000E+00  0.00000000000E+00  0.25375996333E+02  0.25375996333E+02  0.00000000000E+00 0.  1.
          1   -1    0    0  501    0  0.00000000000E+00 -0.00000000000E+00 -0.76047081544E+02  0.76047081544E+02  0.00000000000E+00 0. -1.
         23    2    1    2    0    0  0.00000000000E+00  0.00000000000E+00 -0.50671085211E+02  0.10142307788E+03  0.87858305523E+02 0.  0.
        -13    1    3    3    0    0  0.32492377340E+02 -0.25520113863E+02 -0.81068332553E+01  0.42104056126E+02  0.00000000000E+00 0.  1.
         13    1    3    3    0    0 -0.32492377340E+02  0.25520113863E+02 -0.42564251956E+02  0.59319021750E+02  0.00000000000E+00 0. -1.
<mgrwt>
<rscale>  0 0.87858306E+02</rscale>
<asrwt>0</asrwt>
<pdfrwt beam="2">  1        1 0.11699551E-01 0.87858306E+02</pdfrwt>
<pdfrwt beam="1">  1       -1 0.39039994E-02 0.87858306E+02</pdfrwt>
<totfact> 0.11063262E+05</totfact>
</mgrwt>
</event>
<event>
 5    1  0.6046470E+000  0.8933159E+02  0.7546771E-02  0.1304478E+00
          4   -1    0    0  501    0  0.00000000000E+00  0.00000000000E+00  0.23048480726E+02  0.23048480726E+02  0.00000000000E+00 0. -1.
         -4   -1    0    0    0  501 -0.00000000000E+00 -0.00000000000E+00 -0.86558130304E+02  0.86558130304E+02  0.00000000000E+00 0.  1.
         23    2    1    2    0    0  0.00000000000E+00  0.00000000000E+00 -0.63509649579E+02  0.10960661103E+03  0.89331593470E+02 0.  0.
        -13    1    3    3    0    0 -0.11062742228E+02  0.40898705625E+02 -0.14405325135E+02  0.44750438876E+02  0.00000000000E+00 0. -1.
         13    1    3    3    0    0  0.11062742228E+02 -0.40898705625E+02 -0.49104324444E+02  0.64856172154E+02  0.00000000000E+00 0.  1.
<mgrwt>
<rscale>  0 0.89331593E+02</rscale>
<asrwt>0</asrwt>
<pdfrwt beam="1">  1        4 0.35459201E-02 0.89331593E+02</pdfrwt>
<pdfrwt beam="2">  1       -4 0.13316635E-01 0.89331593E+02</pdfrwt>
<totfact> 0.27343060E+04</totfact>
</mgrwt>
</event>
<event>
 5    1  0.6046470E+000  0.8528620E+02  0.7546771E-02  0.1314686E+00
         -2   -1    0    0    0  501 -0.00000000000E+00  0.00000000000E+00  0.16996682707E+03  0.16996682707E+03  0.00000000000E+00 0.  1.
          2   -1    0    0  501    0  0.00000000000E+00 -0.00000000000E+00 -0.10698758273E+02  0.10698758273E+02  0.00000000000E+00 0. -1.
         23    2    1    2    0    0  0.00000000000E+00  0.00000000000E+00  0.15926806880E+03  0.18066558535E+03  0.85286200464E+02 0.  0.
        -13    1    3    3    0    0  0.16532022610E+02  0.28707883746E+02  0.13651400585E+03  0.14047606256E+03  0.00000000000E+00 0.  1.
         13    1    3    3    0    0 -0.16532022610E+02 -0.28707883746E+02  0.22754062953E+02  0.40189522784E+02  0.00000000000E+00 0. -1.
<mgrwt>
<rscale>  0 0.85286200E+02</rscale>
<asrwt>0</asrwt>
<pdfrwt beam="2">  1        2 0.16459629E-02 0.85286200E+02</pdfrwt>
<pdfrwt beam="1">  1       -2 0.26148741E-01 0.85286200E+02</pdfrwt>
<totfact> 0.78949051E+04</totfact>
</mgrwt>
</event>
<event>
 5    1  0.6046470E+000  0.9124507E+02  0.7546771E-02  0.1299864E+00
          2   -1    0    0  501    0  0.00000000000E+00  0.00000000000E+00  0.84432847135E+01  0.84432847135E+01  0.00000000000E+00 0.  1.
         -2   -1    0    0    0  501 -0.00000000000E+00 -0.00000000000E+00 -0.24651728435E+03  0.24651728435E+03  0.00000000000E+00 0. -1.
         23    2    1    2    0    0  0.00000000000E+00  0.00000000000E+00 -0.23807399964E+03  0.25496056907E+03  0.91245068219E+02 0.  0.
        -13    1    3    3    0    0  0.93523974632E+01 -0.33612439064E+02 -0.36896234545E+02  0.50779873195E+02  0.00000000000E+00 0.  1.
         13    1    3    3    0    0 -0.93523974632E+01  0.33612439064E+02 -0.20117776509E+03  0.20418069587E+03  0.00000000000E+00 0. -1.
<mgrwt>
<rscale>  0 0.91245068E+02</rscale>
<asrwt>0</asrwt>
<pdfrwt beam="1">  1        2 0.12989668E-02 0.91245068E+02</pdfrwt>
<pdfrwt beam="2">  1       -2 0.37925739E-01 0.91245068E+02</pdfrwt>
<totfact> 0.56461339E+04</totfact>
</mgrwt>
</event>
<event>
 5    1  0.6046470E+000  0.9172447E+02  0.7546771E-02  0.1298729E+00
         -2   -1    0    0    0  501 -0.00000000000E+00  0.00000000000E+00  0.90908563539E+01  0.90908563539E+01  0.00000000000E+00 0.  1.
          2   -1    0    0  501    0  0.00000000000E+00 -0.00000000000E+00 -0.23136922356E+03  0.23136922356E+03  0.00000000000E+00 0. -1.
         23    2    1    2    0    0  0.00000000000E+00  0.00000000000E+00 -0.22227836721E+03  0.24046007992E+03  0.91724465136E+02 0.  0.
        -13    1    3    3    0    0 -0.18319665916E+02  0.37126835876E+02 -0.16286626832E+03  0.16804592663E+03  0.00000000000E+00 0. -1.
         13    1    3    3    0    0  0.18319665916E+02 -0.37126835876E+02 -0.59412098891E+02  0.72414153286E+02  0.00000000000E+00 0.  1.
<mgrwt>
<rscale>  0 0.91724465E+02</rscale>
<asrwt>0</asrwt>
<pdfrwt beam="2">  1        2 0.35595268E-01 0.91724465E+02</pdfrwt>
<pdfrwt beam="1">  1       -2 0.13985932E-02 0.91724465E+02</pdfrwt>
<totfact> 0.16052767E+05</totfact>
</mgrwt>
</event>
<event>
 5    1  0.6046470E+000  0.9181352E+02  0.7546771E-02  0.1298518E+00
          2   -1    0    0  501    0  0.00000000000E+00  0.00000000000E+00  0.50184321586E+02  0.50184321586E+02  0.00000000000E+00 0. -1.
         -2   -1    0    0    0  501 -0.00000000000E+00 -0.00000000000E+00 -0.41993808946E+02  0.41993808946E+02  0.00000000000E+00 0.  1.
         23    2    1    2    0    0  0.00000000000E+00  0.00000000000E+00  0.81905126406E+01  0.92178130532E+02  0.91813524337E+02 0.  0.
        -13    1    3    3    0    0 -0.43287095766E+02 -0.15208713585E+02  0.56353572647E+01  0.46225911351E+02  0.00000000000E+00 0.  1.
         13    1    3    3    0    0  0.43287095766E+02  0.15208713585E+02  0.25551553759E+01  0.45952219182E+02  0.00000000000E+00 0. -1.
<mgrwt>
<rscale>  0 0.91813524E+02</rscale>
<asrwt>0</asrwt>
<pdfrwt beam="1">  1        2 0.77206649E-02 0.91813524E+02</pdfrwt>
<pdfrwt beam="2">  1       -2 0.64605860E-02 0.91813524E+02</pdfrwt>
<totfact> 0.99183329E+04</totfact>
</mgrwt>
</event>
<event>
 5    1  0.6046470E+000  0.8783379E+02  0.7546771E-02  0.1308184E+00
          2   -1    0    0  501    0  0.00000000000E+00  0.00000000000E+00  0.14332791896E+03  0.14332791896E+03  0.00000000000E+00 0. -1.
         -2   -1    0    0    0  501 -0.00000000000E+00 -0.00000000000E+00 -0.13456511138E+02  0.13456511138E+02  0.00000000000E+00 0.  1.
         23    2    1    2    0    0  0.00000000000E+00  0.00000000000E+00  0.12987140783E+03  0.15678443010E+03  0.87833791626E+02 0.  0.
        -13    1    3    3    0    0  0.20284585394E+02  0.34970615021E+02  0.95557148333E+02  0.10375729814E+03  0.00000000000E+00 0. -1.
         13    1    3    3    0    0 -0.20284585394E+02 -0.34970615021E+02  0.34314259492E+02  0.53027131961E+02  0.00000000000E+00 0.  1.
<mgrwt>
<rscale>  0 0.87833792E+02</rscale>
<asrwt>0</asrwt>
<pdfrwt beam="1">  1        2 0.22050448E-01 0.87833792E+02</pdfrwt>
<pdfrwt beam="2">  1       -2 0.20702326E-02 0.87833792E+02</pdfrwt>
<totfact> 0.15233735E+05</totfact>
</mgrwt>
</event>
<event>
 5    1  0.6046470E+000  0.9240591E+02  0.7546771E-02  0.1297128E+00
          2   -1    0    0  501    0  0.00000000000E+00  0.00000000000E+00  0.39793576677E+02  0.39793576677E+02  0.00000000000E+00 0. -1.
         -2   -1    0    0    0  501 -0.00000000000E+00 -0.00000000000E+00 -0.53644659039E+02  0.53644659039E+02  0.00000000000E+00 0.  1.
         23    2    1    2    0    0  0.00000000000E+00  0.00000000000E+00 -0.13851082362E+02  0.93438235716E+02  0.92405905715E+02 0.  0.
        -13    1    3    3    0    0 -0.89352333684E+01  0.42143421960E+02  0.99584961714E+01  0.44216264608E+02  0.00000000000E+00 0. -1.
         13    1    3    3    0    0  0.89352333684E+01 -0.42143421960E+02 -0.23809578533E+02  0.49221971108E+02  0.00000000000E+00 0.  1.
<mgrwt>
<rscale>  0 0.92405906E+02</rscale>
<asrwt>0</asrwt>
<pdfrwt beam="1">  1        2 0.61220888E-02 0.92405906E+02</pdfrwt>
<pdfrwt beam="2">  1       -2 0.82530244E-02 0.92405906E+02</pdfrwt>
<totfact> 0.91626758E+04</totfact>
</mgrwt>
</event>
<event>
 5    1  0.6046470E+000  0.9153705E+02  0.7546771E-02  0.1299172E+00
          1   -1    0    0  501    0  0.00000000000E+00  0.00000000000E+00  0.50368903651E+02  0.50368903651E+02  0.00000000000E+00 0. -1.
         -1   -1    0    0    0  501 -0.00000000000E+00 -0.00000000000E+00 -0.41588316669E+02  0.41588316669E+02  0.00000000000E+00 0.  1.
         23    2    1    2    0    0  0.00000000000E+00  0.00000000000E+00  0.87805869822E+01  0.91957220320E+02  0.91537050757E+02 0.  0.
        -13    1    3    3    0    0  0.19962992301E+02  0.30723640459E+02 -0.23163597804E+02  0.43347611329E+02  0.00000000000E+00 0.  1.
         13    1    3    3    0    0 -0.19962992301E+02 -0.30723640459E+02  0.31944184787E+02  0.48609608992E+02  0.00000000000E+00 0. -1.
<mgrwt>
<rscale>  0 0.91537051E+02</rscale>
<asrwt>0</asrwt>
<pdfrwt beam="1">  1        1 0.77490621E-02 0.91537051E+02</pdfrwt>
<pdfrwt beam="2">  1       -1 0.63982025E-02 0.91537051E+02</pdfrwt>
<totfact> 0.92837522E+04</totfact>
</mgrwt>
</event>
<event>
 5    1  0.6046470E+000  0.8978890E+02  0.7546771E-02  0.1303364E+00
          2   -1    0    0  501    0  0.00000000000E+00  0.00000000000E+00  0.38066906244E+02  0.38066906244E+02  0.00000000000E+00 0. -1.
         -2   -1    0    0    0  501 -0.00000000000E+00 -0.00000000000E+00 -0.52946554524E+02  0.52946554524E+02  0.00000000000E+00 0.  1.
         23    2    1    2    0    0  0.00000000000E+00  0.00000000000E+00 -0.14879648279E+02  0.91013460768E+02  0.89788897465E+02 0.  0.
        -13    1    3    3    0    0 -0.16268138544E+02 -0.18373477345E+02 -0.45546077901E+02  0.51736662181E+02  0.00000000000E+00 0.  1.
         13    1    3    3    0    0  0.16268138544E+02  0.18373477345E+02  0.30666429622E+02  0.39276798587E+02  0.00000000000E+00 0. -1.
<mgrwt>
<rscale>  0 0.89788897E+02</rscale>
<asrwt>0</asrwt>
<pdfrwt beam="1">  1        2 0.58564471E-02 0.89788897E+02</pdfrwt>
<pdfrwt beam="2">  1       -2 0.81456238E-02 0.89788897E+02</pdfrwt>
<totfact> 0.98456947E+04</totfact>
</mgrwt>
</event>
<event>
 5    1  0.6046470E+000  0.8992990E+02  0.7546771E-02  0.1303022E+00
         -2   -1    0    0    0  501 -0.00000000000E+00  0.00000000000E+00  0.86891969965E+02  0.86891969965E+02  0.00000000000E+00 0.  1.
          2   -1    0    0  501    0  0.00000000000E+00 -0.00000000000E+00 -0.23268509825E+02  0.23268509825E+02  0.00000000000E+00 0. -1.
         23    2    1    2    0    0  0.00000000000E+00  0.00000000000E+00  0.63623460140E+02  0.11016047979E+03  0.89929898406E+02 0.  0.
        -13    1    3    3    0    0  0.30462196708E+02 -0.16485133795E+02  0.66935006835E+02  0.75365776083E+02  0.00000000000E+00 0.  1.
         13    1    3    3    0    0 -0.30462196708E+02  0.16485133795E+02 -0.33115466951E+01  0.34794703707E+02  0.00000000000E+00 0. -1.
<mgrwt>
<rscale>  0 0.89929898E+02</rscale>
<asrwt>0</asrwt>
<pdfrwt beam="2">  1        2 0.35797708E-02 0.89929898E+02</pdfrwt>
<pdfrwt beam="1">  1       -2 0.13367995E-01 0.89929898E+02</pdfrwt>
<totfact> 0.86007548E+04</totfact>
</mgrwt>
</event>
<event>
 5    1  0.6046470E+000  0.9186927E+02  0.7546771E-02  0.1298387E+00
         -2   -1    0    0    0  501 -0.00000000000E+00  0.00000000000E+00  0.11249407944E+02  0.11249407944E+02  0.00000000000E+00 0.  1.
          2   -1    0    0  501    0  0.00000000000E+00 -0.00000000000E+00 -0.18756459413E+03  0.18756459413E+03  0.00000000000E+00 0. -1.
         23    2    1    2    0    0  0.00000000000E+00  0.00000000000E+00 -0.17631518618E+03  0.19881400207E+03  0.91869268749E+02 0.  0.
        -13    1    3    3    0    0  0.29309582265E+02 -0.11503657711E+02 -0.15778178987E+02  0.35218414011E+02  0.00000000000E+00 0.  1.
         13    1    3    3    0    0 -0.29309582265E+02  0.11503657711E+02 -0.16053700720E+03  0.16359558806E+03  0.00000000000E+00 0. -1.
<mgrwt>
<rscale>  0 0.91869269E+02</rscale>
<asrwt>0</asrwt>
<pdfrwt beam="2">  1        2 0.28856095E-01 0.91869269E+02</pdfrwt>
<pdfrwt beam="1">  1       -2 0.17306779E-02 0.91869269E+02</pdfrwt>
<totfact> 0.14809191E+05</totfact>
</mgrwt>
</event>
<event>
 5    1  0.6046470E+000  0.9066224E+02  0.7546771E-02  0.1301256E+00
         -2   -1    0    0    0  501 -0.00000000000E+00  0.00000000000E+00  0.13424634774E+03  0.13424634774E+03  0.00000000000E+00 0.  1.
          2   -1    0    0  501    0  0.00000000000E+00 -0.00000000000E+00 -0.15307010786E+02  0.15307010786E+02  0.00000000000E+00 0. -1.
         23    2    1    2    0    0  0.00000000000E+00  0.00000000000E+00  0.11893933695E+03  0.14955335852E+03  0.90662236743E+02 0.  0.
        -13    1    3    3    0    0  0.15067607367E+01 -0.40572187055E+02  0.92729504352E+02  0.10122812686E+03  0.00000000000E+00 0.  1.
         13    1    3    3    0    0 -0.15067607367E+01  0.40572187055E+02  0.26209832597E+02  0.48325231661E+02  0.00000000000E+00 0. -1.
<mgrwt>
<rscale>  0 0.90662237E+02</rscale>
<asrwt>0</asrwt>
<pdfrwt beam="2">  1        2 0.23549248E-02 0.90662237E+02</pdfrwt>
<pdfrwt beam="1">  1       -2 0.20653283E-01 0.90662237E+02</pdfrwt>
<totfact> 0.73692985E+04</totfact>
</mgrwt>
</event>
<event>
 5    1  0.6046470E+000  0.8893049E+02  0.7546771E-02  0.1305463E+00
         -1   -1    0    0    0  501 -0.00000000000E+00  0.00000000000E+00  0.17171947638E+02  0.17171947638E+02  0.00000000000E+00 0.  1.
          1   -1    0    0  501    0  0.00000000000E+00 -0.00000000000E+00 -0.11513884564E+03  0.11513884564E+03  0.00000000000E+00 0. -1.
         23    2    1    2    0    0  0.00000000000E+00  0.00000000000E+00 -0.97966898007E+02  0.13231079328E+03  0.88930494849E+02 0.  0.
        -13    1    3    3    0    0  0.37190746196E+02  0.20847985425E+01 -0.12855318656E+02  0.39405040354E+02  0.00000000000E+00 0.  1.
         13    1    3    3    0    0 -0.37190746196E+02 -0.20847985425E+01 -0.85111579351E+02  0.92905752929E+02  0.00000000000E+00 0. -1.
<mgrwt>
<rscale>  0 0.88930495E+02</rscale>
<asrwt>0</asrwt>
<pdfrwt beam="2">  1        1 0.17713669E-01 0.88930495E+02</pdfrwt>
<pdfrwt beam="1">  1       -1 0.26418380E-02 0.88930495E+02</pdfrwt>
<totfact> 0.11444941E+05</totfact>
</mgrwt>
</event>
<event>
 5    1  0.6046470E+000  0.9186722E+02  0.7546771E-02  0.1298392E+00
         -1   -1    0    0    0  501 -0.00000000000E+00  0.00000000000E+00  0.34680998248E+02  0.34680998248E+02  0.00000000000E+00 0.  1.
          1   -1    0    0  501    0  0.00000000000E+00 -0.00000000000E+00 -0.60837251984E+02  0.60837251984E+02  0.00000000000E+00 0. -1.
         23    2    1    2    0    0  0.00000000000E+00  0.00000000000E+00 -0.26156253736E+02  0.95518250232E+02  0.91867222217E+02 0.  0.
        -13    1    3    3    0    0  0.26130701244E+02 -0.37764296180E+02 -0.12069514528E+02  0.47482931611E+02  0.00000000000E+00 0.  1.
         13    1    3    3    0    0 -0.26130701244E+02  0.37764296180E+02 -0.14086739208E+02  0.48035318621E+02  0.00000000000E+00 0. -1.
<mgrwt>
<rscale>  0 0.91867222E+02</rscale>
<asrwt>0</asrwt>
<pdfrwt beam="2">  1        1 0.93595773E-02 0.91867222E+02</pdfrwt>
<pdfrwt beam="1">  1       -1 0.53355382E-02 0.91867222E+02</pdfrwt>
<totfact> 0.94572027E+04</totfact>
</mgrwt>
</event>
<event>
 5    1  0.6046470E+000  0.8994053E+02  0.7546771E-02  0.1302996E+00
         -2   -1    0    0    0  501 -0.00000000000E+00  0.00000000000E+00  0.16174913455E+02  0.16174913455E+02  0.00000000000E+00 0.  1.
          2   -1    0    0  501    0  0.00000000000E+00 -0.00000000000E+00 -0.12502846461E+03  0.12502846461E+03  0.00000000000E+00 0. -1.
         23    2    1    2    0    0  0.00000000000E+00  0.00000000000E+00 -0.10885355115E+03  0.14120337806E+03  0.89940526894E+02 0.  0.
        -13    1    3    3    0    0  0.26959270756E+01  0.37793795713E+02 -0.92453801886E+02  0.99916687797E+02  0.00000000000E+00 0. -1.
         13    1    3    3    0    0 -0.26959270756E+01 -0.37793795713E+02 -0.16399749269E+02  0.41286690268E+02  0.00000000000E+00 0.  1.
<mgrwt>
<rscale>  0 0.89940527E+02</rscale>
<asrwt>0</asrwt>
<pdfrwt beam="2">  1        2 0.19235148E-01 0.89940527E+02</pdfrwt>
<pdfrwt beam="1">  1       -2 0.24884483E-02 0.89940527E+02</pdfrwt>
<totfact> 0.13658422E+05</totfact>
</mgrwt>
</event>
<event>
 5    1  0.6046470E+000  0.9721690E+02  0.7546771E-02  0.1286260E+00
          3   -1    0    0  501    0  0.00000000000E+00  0.00000000000E+00  0.41365058118E+02  0.41365058118E+02  0.00000000000E+00 0. -1.
         -3   -1    0    0    0  501 -0.00000000000E+00 -0.00000000000E+00 -0.57120227907E+02  0.57120227907E+02  0.00000000000E+00 0.  1.
         23    2    1    2    0    0  0.00000000000E+00  0.00000000000E+00 -0.15755169789E+02  0.98485286026E+02  0.97216902792E+02 0.  0.
        -13    1    3    3    0    0  0.16088978442E+02 -0.43580271740E+01 -0.54134398915E+02  0.56642570334E+02  0.00000000000E+00 0.  1.
         13    1    3    3    0    0 -0.16088978442E+02  0.43580271740E+01  0.38379229126E+02  0.41842715692E+02  0.00000000000E+00 0. -1.
<mgrwt>
<rscale>  0 0.97216903E+02</rscale>
<asrwt>0</asrwt>
<pdfrwt beam="1">  1        3 0.63638552E-02 0.97216903E+02</pdfrwt>
<pdfrwt beam="2">  1       -3 0.87877273E-02 0.97216903E+02</pdfrwt>
<totfact> 0.29186015E+04</totfact>
</mgrwt>
</event>
<event>
 5    1  0.6046470E+000  0.8740252E+02  0.7546771E-02  0.1309267E+00
         -2   -1    0    0    0  501 -0.00000000000E+00  0.00000000000E+00  0.63704242269E+01  0.63704242269E+01  0.00000000000E+00 0.  1.
          2   -1    0    0  501    0  0.00000000000E+00 -0.00000000000E+00 -0.29979170405E+03  0.29979170405E+03  0.00000000000E+00 0. -1.
         23    2    1    2    0    0  0.00000000000E+00  0.00000000000E+00 -0.29342127983E+03  0.30616212828E+03  0.87402524781E+02 0.  0.
        -13    1    3    3    0    0  0.43690394333E+02 -0.74080978166E+00 -0.14892877511E+03  0.15520689228E+03  0.00000000000E+00 0. -1.
         13    1    3    3    0    0 -0.43690394333E+02  0.74080978166E+00 -0.14449250471E+03  0.15095523600E+03  0.00000000000E+00 0.  1.
<mgrwt>
<rscale>  0 0.87402525E+02</rscale>
<asrwt>0</asrwt>
<pdfrwt beam="2">  1        2 0.46121793E-01 0.87402525E+02</pdfrwt>
<pdfrwt beam="1">  1       -2 0.98006542E-03 0.87402525E+02</pdfrwt>
<totfact> 0.20099659E+05</totfact>
</mgrwt>
</event>
<event>
 5    1  0.6046470E+000  0.8598857E+02  0.7546771E-02  0.1312867E+00
          4   -1    0    0  501    0  0.00000000000E+00  0.00000000000E+00  0.13907744191E+03  0.13907744191E+03  0.00000000000E+00 0. -1.
         -4   -1    0    0    0  501 -0.00000000000E+00 -0.00000000000E+00 -0.13291218611E+02  0.13291218611E+02  0.00000000000E+00 0.  1.
         23    2    1    2    0    0  0.00000000000E+00  0.00000000000E+00  0.12578622330E+03  0.15236866052E+03  0.85988573295E+02 0.  0.
        -13    1    3    3    0    0 -0.29850243969E+02 -0.30836079576E+02  0.67448064294E+02  0.79944619866E+02  0.00000000000E+00 0. -1.
         13    1    3    3    0    0  0.29850243969E+02  0.30836079576E+02  0.58338159004E+02  0.72424040654E+02  0.00000000000E+00 0.  1.
<mgrwt>
<rscale>  0 0.85988573E+02</rscale>
<asrwt>0</asrwt>
<pdfrwt beam="1">  1        4 0.21396529E-01 0.85988573E+02</pdfrwt>
<pdfrwt beam="2">  1       -4 0.20448030E-02 0.85988573E+02</pdfrwt>
<totfact> 0.27551192E+04</totfact>
</mgrwt>
</event>
<event>
 5    1  0.6046470E+000  0.7245276E+02  0.7546771E-02  0.1351946E+00
          1   -1    0    0  501    0  0.00000000000E+00  0.00000000000E+00  0.97116778615E+02  0.97116778615E+02  0.00000000000E+00 0. -1.
         -1   -1    0    0    0  501 -0.00000000000E+00 -0.00000000000E+00 -0.13513119842E+02  0.13513119842E+02  0.00000000000E+00 0.  1.
         23    2    1    2    0    0  0.00000000000E+00  0.00000000000E+00  0.83603658773E+02  0.11062989846E+03  0.72452761661E+02 0.  0.
        -13    1    3    3    0    0  0.84061130710E+01 -0.34006166826E+02  0.27702060112E+02  0.44659671445E+02  0.00000000000E+00 0.  1.
         13    1    3    3    0    0 -0.84061130710E+01  0.34006166826E+02  0.55901598661E+02  0.65970227012E+02  0.00000000000E+00 0. -1.
<mgrwt>
<rscale>  0 0.72452762E+02</rscale>
<asrwt>0</asrwt>
<pdfrwt beam="1">  1        1 0.14941042E-01 0.72452762E+02</pdfrwt>
<pdfrwt beam="2">  1       -1 0.20789416E-02 0.72452762E+02</pdfrwt>
<totfact> 0.19276351E+05</totfact>
</mgrwt>
</event>
<event>
 5    1  0.6046470E+000  0.9195222E+02  0.7546771E-02  0.1298192E+00
         -2   -1    0    0    0  501 -0.00000000000E+00  0.00000000000E+00  0.31285959605E+03  0.31285959605E+03  0.00000000000E+00 0.  1.
          2   -1    0    0  501    0  0.00000000000E+00 -0.00000000000E+00 -0.67563935052E+01  0.67563935052E+01  0.00000000000E+00 0. -1.
         23    2    1    2    0    0  0.00000000000E+00  0.00000000000E+00  0.30610320254E+03  0.31961598955E+03  0.91952216782E+02 0.  0.
        -13    1    3    3    0    0 -0.10883114208E+02 -0.44196166072E+02  0.17559384661E+03  0.18139719468E+03  0.00000000000E+00 0.  1.
         13    1    3    3    0    0  0.10883114208E+02  0.44196166072E+02  0.13050935593E+03  0.13821879487E+03  0.00000000000E+00 0. -1.
<mgrwt>
<rscale>  0 0.91952217E+02</rscale>
<asrwt>0</asrwt>
<pdfrwt beam="2">  1        2 0.10394454E-02 0.91952217E+02</pdfrwt>
<pdfrwt beam="1">  1       -2 0.48132234E-01 0.91952217E+02</pdfrwt>
<totfact> 0.48719602E+04</totfact>
</mgrwt>
</event>
<event>
 5    1  0.6046470E+000  0.9154137E+02  0.7546771E-02  0.1299161E+00
         -1   -1    0    0    0  501 -0.00000000000E+00  0.00000000000E+00  0.60993233646E+02  0.60993233646E+02  0.00000000000E+00 0.  1.
          1   -1    0    0  501    0  0.00000000000E+00 -0.00000000000E+00 -0.34347344895E+02  0.34347344895E+02  0.00000000000E+00 0. -1.
         23    2    1    2    0    0  0.00000000000E+00  0.00000000000E+00  0.26645888751E+02  0.95340578541E+02  0.91541370588E+02 0.  0.
        -13    1    3    3    0    0  0.39531491910E+01  0.28748102541E+02  0.50187942579E+02  0.57973359128E+02  0.00000000000E+00 0.  1.
         13    1    3    3    0    0 -0.39531491910E+01 -0.28748102541E+02 -0.23542053828E+02  0.37367219413E+02  0.00000000000E+00 0. -1.
<mgrwt>
<rscale>  0 0.91541371E+02</rscale>
<asrwt>0</asrwt>
<pdfrwt beam="2">  1        1 0.52842069E-02 0.91541371E+02</pdfrwt>
<pdfrwt beam="1">  1       -1 0.93835744E-02 0.91541371E+02</pdfrwt>
<totfact> 0.87561829E+04</totfact>
</mgrwt>
</event>
<event>
 5    1  0.6046470E+000  0.8945115E+02  0.7546771E-02  0.1304186E+00
          1   -1    0    0  501    0  0.00000000000E+00  0.00000000000E+00  0.80806656179E+02  0.80806656179E+02  0.00000000000E+00 0. -1.
         -1   -1    0    0    0  501 -0.00000000000E+00 -0.00000000000E+00 -0.24755103895E+02  0.24755103895E+02  0.00000000000E+00 0.  1.
         23    2    1    2    0    0  0.00000000000E+00  0.00000000000E+00  0.56051552284E+02  0.10556176007E+03  0.89451152461E+02 0.  0.
        -13    1    3    3    0    0  0.39074725540E+02 -0.31071169013E+01  0.53442971936E+02  0.66276991488E+02  0.00000000000E+00 0. -1.
         13    1    3    3    0    0 -0.39074725540E+02  0.31071169013E+01  0.26085803480E+01  0.39284768586E+02  0.00000000000E+00 0.  1.
<mgrwt>
<rscale>  0 0.89451152E+02</rscale>
<asrwt>0</asrwt>
<pdfrwt beam="1">  1        1 0.12431793E-01 0.89451152E+02</pdfrwt>
<pdfrwt beam="2">  1       -1 0.38084776E-02 0.89451152E+02</pdfrwt>
<totfact> 0.10632383E+05</totfact>
</mgrwt>
</event>
<event>
 5    1  0.6046470E+000  0.9098477E+02  0.7546771E-02  0.1300484E+00
          4   -1    0    0  501    0  0.00000000000E+00  0.00000000000E+00  0.72054625457E+02  0.72054625457E+02  0.00000000000E+00 0.  1.
         -4   -1    0    0    0  501 -0.00000000000E+00 -0.00000000000E+00 -0.28722057308E+02  0.28722057308E+02  0.00000000000E+00 0. -1.
         23    2    1    2    0    0  0.00000000000E+00  0.00000000000E+00  0.43332568149E+02  0.10077668277E+03  0.90984769752E+02 0.  0.
        -13    1    3    3    0    0 -0.37244858788E+02  0.39870127652E+01 -0.69284027353E+01  0.38093024839E+02  0.00000000000E+00 0. -1.
         13    1    3    3    0    0  0.37244858788E+02 -0.39870127652E+01  0.50260970884E+02  0.62683657927E+02  0.00000000000E+00 0.  1.
<mgrwt>
<rscale>  0 0.90984770E+02</rscale>
<asrwt>0</asrwt>
<pdfrwt beam="1">  1        4 0.11085327E-01 0.90984770E+02</pdfrwt>
<pdfrwt beam="2">  1       -4 0.44187781E-02 0.90984770E+02</pdfrwt>
<totfact> 0.26561763E+04</totfact>
</mgrwt>
</event>
<event>
 5    1  0.6046470E+000  0.9449723E+02  0.7546771E-02  0.1292312E+00
         -2   -1    0    0    0  501 -0.00000000000E+00  0.00000000000E+00  0.74318552785E+02  0.74318552785E+02  0.00000000000E+00 0.  1.
          2   -1    0    0  501    0  0.00000000000E+00 -0.00000000000E+00 -0.30038683584E+02  0.30038683584E+02  0.00000000000E+00 0. -1.
         23    2    1    2    0    0  0.00000000000E+00  0.00000000000E+00  0.44279869201E+02  0.10435723637E+03  0.94497227294E+02 0.  0.
        -13    1    3    3    0    0 -0.21716819310E+02  0.99213509573E+01 -0.22886587309E+02  0.33073392998E+02  0.00000000000E+00 0. -1.
         13    1    3    3    0    0  0.21716819310E+02 -0.99213509573E+01  0.67166456510E+02  0.71283843372E+02  0.00000000000E+00 0.  1.
<mgrwt>
<rscale>  0 0.94497227E+02</rscale>
<asrwt>0</asrwt>
<pdfrwt beam="2">  1        2 0.46213360E-02 0.94497227E+02</pdfrwt>
<pdfrwt beam="1">  1       -2 0.11433623E-01 0.94497227E+02</pdfrwt>
<totfact> 0.79539273E+04</totfact>
</mgrwt>
</event>
<event>
 5    1  0.6046470E+000  0.9007149E+02  0.7546771E-02  0.1302679E+00
         -3   -1    0    0    0  501 -0.00000000000E+00  0.00000000000E+00  0.31143210310E+02  0.31143210310E+02  0.00000000000E+00 0.  1.
          3   -1    0    0  501    0  0.00000000000E+00 -0.00000000000E+00 -0.65125533650E+02  0.65125533650E+02  0.00000000000E+00 0. -1.
         23    2    1    2    0    0  0.00000000000E+00  0.00000000000E+00 -0.33982323340E+02  0.96268743960E+02  0.90071486965E+02 0.  0.
        -13    1    3    3    0    0 -0.96013657155E+01 -0.34592435722E+02 -0.46053886702E+02  0.58393349906E+02  0.00000000000E+00 0. -1.
         13    1    3    3    0    0  0.96013657155E+01  0.34592435722E+02  0.12071563362E+02  0.37875394055E+02  0.00000000000E+00 0.  1.
<mgrwt>
<rscale>  0 0.90071487E+02</rscale>
<asrwt>0</asrwt>
<pdfrwt beam="2">  1        3 0.10019313E-01 0.90071487E+02</pdfrwt>
<pdfrwt beam="1">  1       -3 0.47912632E-02 0.90071487E+02</pdfrwt>
<totfact> 0.36127842E+04</totfact>
</mgrwt>
</event>
<event>
 5    1  0.6046470E+000  0.9101746E+02  0.7546771E-02  0.1300406E+00
          2   -1    0    0  501    0  0.00000000000E+00  0.00000000000E+00  0.14882826821E+03  0.14882826821E+03  0.00000000000E+00 0.  1.
         -2   -1    0    0    0  501 -0.00000000000E+00 -0.00000000000E+00 -0.13915667679E+02  0.13915667679E+02  0.00000000000E+00 0. -1.
         23    2    1    2    0    0  0.00000000000E+00  0.00000000000E+00  0.13491260053E+03  0.16274393589E+03  0.91017464733E+02 0.  0.
        -13    1    3    3    0    0  0.41022562027E+01  0.43085734791E+02  0.92605975620E+02  0.10222072084E+03  0.00000000000E+00 0.  1.
         13    1    3    3    0    0 -0.41022562027E+01 -0.43085734791E+02  0.42306624909E+02  0.60523215047E+02  0.00000000000E+00 0. -1.
<mgrwt>
<rscale>  0 0.91017465E+02</rscale>
<asrwt>0</asrwt>
<pdfrwt beam="1">  1        2 0.22896656E-01 0.91017465E+02</pdfrwt>
<pdfrwt beam="2">  1       -2 0.21408720E-02 0.91017465E+02</pdfrwt>
<totfact> 0.14010182E+05</totfact>
</mgrwt>
</event>
<event>
 5    1  0.6046470E+000  0.9077053E+02  0.7546771E-02  0.1300996E+00
          1   -1    0    0  501    0  0.00000000000E+00  0.00000000000E+00  0.57374405530E+02  0.57374405530E+02  0.00000000000E+00 0. -1.
         -1   -1    0    0    0  501 -0.00000000000E+00 -0.00000000000E+00 -0.35901412801E+02  0.35901412801E+02  0.00000000000E+00 0.  1.
         23    2    1    2    0    0  0.00000000000E+00  0.00000000000E+00  0.21472992729E+02  0.93275818331E+02  0.90770528634E+02 0.  0.
        -13    1    3    3    0    0  0.14224840380E+02 -0.39696458605E+02 -0.65096641682E+01  0.42667676726E+02  0.00000000000E+00 0. -1.
         13    1    3    3    0    0 -0.14224840380E+02  0.39696458605E+02  0.27982656897E+02  0.50608141605E+02  0.00000000000E+00 0.  1.
<mgrwt>
<rscale>  0 0.90770529E+02</rscale>
<asrwt>0</asrwt>
<pdfrwt beam="1">  1        1 0.88268316E-02 0.90770529E+02</pdfrwt>
<pdfrwt beam="2">  1       -1 0.55232943E-02 0.90770529E+02</pdfrwt>
<totfact> 0.96916743E+04</totfact>
</mgrwt>
</event>
<event>
 5    1  0.6046470E+000  0.9267283E+02  0.7546771E-02  0.1296505E+00
          2   -1    0    0  501    0  0.00000000000E+00  0.00000000000E+00  0.18414566406E+02  0.18414566406E+02  0.00000000000E+00 0. -1.
         -2   -1    0    0    0  501 -0.00000000000E+00 -0.00000000000E+00 -0.11659592174E+03  0.11659592174E+03  0.00000000000E+00 0.  1.
         23    2    1    2    0    0  0.00000000000E+00  0.00000000000E+00 -0.98181355334E+02  0.13501048815E+03  0.92672829752E+02 0.  0.
        -13    1    3    3    0    0  0.94893219449E+01  0.26052539488E+02  0.49952166110E+01  0.28173289366E+02  0.00000000000E+00 0. -1.
         13    1    3    3    0    0 -0.94893219449E+01 -0.26052539488E+02 -0.10317657195E+03  0.10683719878E+03  0.00000000000E+00 0.  1.
<mgrwt>
<rscale>  0 0.92672830E+02</rscale>
<asrwt>0</asrwt>
<pdfrwt beam="1">  1        2 0.28330103E-02 0.92672830E+02</pdfrwt>
<pdfrwt beam="2">  1       -2 0.17937834E-01 0.92672830E+02</pdfrwt>
<totfact> 0.73071910E+04</totfact>
</mgrwt>
</event>
<event>
 5    1  0.6046470E+000  0.9606599E+02  0.7546771E-02  0.1288793E+00
         -1   -1    0    0    0  501 -0.00000000000E+00  0.00000000000E+00  0.10728751435E+03  0.10728751435E+03  0.00000000000E+00 0. -1.
          1   -1    0    0  501    0  0.00000000000E+00 -0.00000000000E+00 -0.21504538983E+02  0.21504538983E+02  0.00000000000E+00 0.  1.
         23    2    1    2    0    0  0.00000000000E+00  0.00000000000E+00  0.85782975365E+02  0.12879205333E+03  0.96065988460E+02 0.  0.
        -13    1    3    3    0    0  0.34627484856E+01 -0.46458282557E+02  0.58572417408E+02  0.74840435102E+02  0.00000000000E+00 0.  1.
         13    1    3    3    0    0 -0.34627484856E+01  0.46458282557E+02  0.27210557956E+02  0.53951618229E+02  0.00000000000E+00 0. -1.
<mgrwt>
<rscale>  0 0.96065988E+02</rscale>
<asrwt>0</asrwt>
<pdfrwt beam="2">  1        1 0.33083907E-02 0.96065988E+02</pdfrwt>
<pdfrwt beam="1">  1       -1 0.16505771E-01 0.96065988E+02</pdfrwt>
<totfact> 0.70157609E+04</totfact>
</mgrwt>
</event>
<event>
 5    1  0.6046470E+000  0.9061514E+02  0.7546771E-02  0.1301369E+00
         -1   -1    0    0    0  501 -0.00000000000E+00  0.00000000000E+00  0.20328531078E+02  0.20328531078E+02  0.00000000000E+00 0.  1.
          1   -1    0    0  501    0  0.00000000000E+00 -0.00000000000E+00 -0.10098003372E+03  0.10098003372E+03  0.00000000000E+00 0. -1.
         23    2    1    2    0    0  0.00000000000E+00  0.00000000000E+00 -0.80651502644E+02  0.12130856480E+03  0.90615136789E+02 0.  0.
        -13    1    3    3    0    0  0.39880489983E+02 -0.45876042061E+01 -0.12203767959E+02  0.41957496899E+02  0.00000000000E+00 0.  1.
         13    1    3    3    0    0 -0.39880489983E+02  0.45876042061E+01 -0.68447734685E+02  0.79351067902E+02  0.00000000000E+00 0. -1.
<mgrwt>
<rscale>  0 0.90615137E+02</rscale>
<asrwt>0</asrwt>
<pdfrwt beam="2">  1        1 0.15535390E-01 0.90615137E+02</pdfrwt>
<pdfrwt beam="1">  1       -1 0.31274663E-02 0.90615137E+02</pdfrwt>
<totfact> 0.10639676E+05</totfact>
</mgrwt>
</event>
<event>
 5    1  0.6046470E+000  0.9083668E+02  0.7546771E-02  0.1300838E+00
         -1   -1    0    0    0  501 -0.00000000000E+00  0.00000000000E+00  0.10113583595E+03  0.10113583595E+03  0.00000000000E+00 0.  1.
          1   -1    0    0  501    0  0.00000000000E+00 -0.00000000000E+00 -0.20396585538E+02  0.20396585538E+02  0.00000000000E+00 0. -1.
         23    2    1    2    0    0  0.00000000000E+00  0.00000000000E+00  0.80739250416E+02  0.12153242149E+03  0.90836682655E+02 0.  0.
        -13    1    3    3    0    0  0.33256734050E+01 -0.25855790524E+02  0.90129610070E+02  0.93823923487E+02  0.00000000000E+00 0.  1.
         13    1    3    3    0    0 -0.33256734050E+01  0.25855790524E+02 -0.93903596541E+01  0.27708498004E+02  0.00000000000E+00 0. -1.
<mgrwt>
<rscale>  0 0.90836683E+02</rscale>
<asrwt>0</asrwt>
<pdfrwt beam="2">  1        1 0.31379363E-02 0.90836683E+02</pdfrwt>
<pdfrwt beam="1">  1       -1 0.15559359E-01 0.90836683E+02</pdfrwt>
<totfact> 0.81984769E+04</totfact>
</mgrwt>
</event>
<event>
 5    1  0.6046470E+000  0.8122970E+02  0.7546771E-02  0.1325598E+00
         -2   -1    0    0    0  501 -0.00000000000E+00  0.00000000000E+00  0.28825862239E+02  0.28825862239E+02  0.00000000000E+00 0.  1.
          2   -1    0    0  501    0  0.00000000000E+00 -0.00000000000E+00 -0.57225212134E+02  0.57225212134E+02  0.00000000000E+00 0. -1.
         23    2    1    2    0    0  0.00000000000E+00  0.00000000000E+00 -0.28399349895E+02  0.86051074373E+02  0.81229701010E+02 0.  0.
        -13    1    3    3    0    0  0.23600956091E+02 -0.97520850139E+00 -0.49200249972E+02  0.54576741909E+02  0.00000000000E+00 0. -1.
         13    1    3    3    0    0 -0.23600956091E+02  0.97520850139E+00  0.20800900077E+02  0.31474332464E+02  0.00000000000E+00 0.  1.
<mgrwt>
<rscale>  0 0.81229701E+02</rscale>
<asrwt>0</asrwt>
<pdfrwt beam="2">  1        2 0.88038789E-02 0.81229701E+02</pdfrwt>
<pdfrwt beam="1">  1       -2 0.44347480E-02 0.81229701E+02</pdfrwt>
<totfact> 0.14469133E+05</totfact>
</mgrwt>
</event>
<event>
 5    1  0.6046470E+000  0.9267463E+02  0.7546771E-02  0.1296501E+00
         -1   -1    0    0    0  501 -0.00000000000E+00  0.00000000000E+00  0.23744043102E+03  0.23744043102E+03  0.00000000000E+00 0.  1.
          1   -1    0    0  501    0  0.00000000000E+00 -0.00000000000E+00 -0.90428858256E+01  0.90428858256E+01  0.00000000000E+00 0. -1.
         23    2    1    2    0    0  0.00000000000E+00  0.00000000000E+00  0.22839754519E+03  0.24648331685E+03  0.92674628849E+02 0.  0.
        -13    1    3    3    0    0  0.39916269637E+02  0.18515381320E+01  0.17659664842E+03  0.18106107535E+03  0.00000000000E+00 0.  1.
         13    1    3    3    0    0 -0.39916269637E+02 -0.18515381320E+01  0.51800896774E+02  0.65422241492E+02  0.00000000000E+00 0. -1.
<mgrwt>
<rscale>  0 0.92674629E+02</rscale>
<asrwt>0</asrwt>
<pdfrwt beam="2">  1        1 0.13912134E-02 0.92674629E+02</pdfrwt>
<pdfrwt beam="1">  1       -1 0.36529292E-01 0.92674629E+02</pdfrwt>
<totfact> 0.63136773E+04</totfact>
</mgrwt>
</event>
<event>
 5    1  0.6046470E+000  0.9070060E+02  0.7546771E-02  0.1301164E+00
         -2   -1    0    0    0  501 -0.00000000000E+00  0.00000000000E+00  0.17313876984E+02  0.17313876984E+02  0.00000000000E+00 0.  1.
          2   -1    0    0  501    0  0.00000000000E+00 -0.00000000000E+00 -0.11878620774E+03  0.11878620774E+03  0.00000000000E+00 0. -1.
         23    2    1    2    0    0  0.00000000000E+00  0.00000000000E+00 -0.10147233075E+03  0.13610008472E+03  0.90700601722E+02 0.  0.
        -13    1    3    3    0    0 -0.22381871504E+01  0.39471494193E+02 -0.84075278152E+02  0.92906731359E+02  0.00000000000E+00 0. -1.
         13    1    3    3    0    0  0.22381871504E+01 -0.39471494193E+02 -0.17397052602E+02  0.43193353363E+02  0.00000000000E+00 0.  1.
<mgrwt>
<rscale>  0 0.90700602E+02</rscale>
<asrwt>0</asrwt>
<pdfrwt beam="2">  1        2 0.18274801E-01 0.90700602E+02</pdfrwt>
<pdfrwt beam="1">  1       -2 0.26636733E-02 0.90700602E+02</pdfrwt>
<totfact> 0.13130857E+05</totfact>
</mgrwt>
</event>
<event>
 5    1  0.6046470E+000  0.6237952E+02  0.7546771E-02  0.1388109E+00
          1   -1    0    0  501    0  0.00000000000E+00  0.00000000000E+00  0.12906696726E+02  0.12906696726E+02  0.00000000000E+00 0. -1.
         -1   -1    0    0    0  501 -0.00000000000E+00 -0.00000000000E+00 -0.75371819776E+02  0.75371819776E+02  0.00000000000E+00 0.  1.
         23    2    1    2    0    0  0.00000000000E+00  0.00000000000E+00 -0.62465123050E+02  0.88278516502E+02  0.62379522907E+02 0.  0.
        -13    1    3    3    0    0  0.11991199475E+02 -0.88578518802E+01  0.75380836299E+01  0.16705481424E+02  0.00000000000E+00 0. -1.
         13    1    3    3    0    0 -0.11991199475E+02  0.88578518802E+01 -0.70003206680E+02  0.71573035078E+02  0.00000000000E+00 0.  1.
<mgrwt>
<rscale>  0 0.62379523E+02</rscale>
<asrwt>0</asrwt>
<pdfrwt beam="1">  1        1 0.19856457E-02 0.62379523E+02</pdfrwt>
<pdfrwt beam="2">  1       -1 0.11595664E-01 0.62379523E+02</pdfrwt>
<totfact> 0.22394915E+05</totfact>
</mgrwt>
</event>
<event>
 5    1  0.6046470E+000  0.9383468E+02  0.7546771E-02  0.1293822E+00
         -1   -1    0    0    0  501 -0.00000000000E+00  0.00000000000E+00  0.66313639256E+02  0.66313639256E+02  0.00000000000E+00 0.  1.
          1   -1    0    0  501    0  0.00000000000E+00 -0.00000000000E+00 -0.33194333029E+02  0.33194333029E+02  0.00000000000E+00 0. -1.
         23    2    1    2    0    0  0.00000000000E+00  0.00000000000E+00  0.33119306227E+02  0.99507972285E+02  0.93834684970E+02 0.  0.
        -13    1    3    3    0    0 -0.28590068077E+02  0.31849721366E+02 -0.38232762693E+01  0.42969921866E+02  0.00000000000E+00 0.  1.
         13    1    3    3    0    0  0.28590068077E+02 -0.31849721366E+02  0.36942582496E+02  0.56538050419E+02  0.00000000000E+00 0. -1.
<mgrwt>
<rscale>  0 0.93834685E+02</rscale>
<asrwt>0</asrwt>
<pdfrwt beam="2">  1        1 0.51068205E-02 0.93834685E+02</pdfrwt>
<pdfrwt beam="1">  1       -1 0.10202098E-01 0.93834685E+02</pdfrwt>
<totfact> 0.81132635E+04</totfact>
</mgrwt>
</event>
<event>
 5    1  0.6046470E+000  0.8566353E+02  0.7546771E-02  0.1313706E+00
          2   -1    0    0  501    0  0.00000000000E+00  0.00000000000E+00  0.37346453995E+03  0.37346453995E+03  0.00000000000E+00 0. -1.
         -2   -1    0    0    0  501 -0.00000000000E+00 -0.00000000000E+00 -0.49122743578E+01  0.49122743578E+01  0.00000000000E+00 0.  1.
         23    2    1    2    0    0  0.00000000000E+00  0.00000000000E+00  0.36855226560E+03  0.37837681431E+03  0.85663534439E+02 0.  0.
        -13    1    3    3    0    0  0.35702635222E+02 -0.22923530706E+02  0.21018026187E+03  0.21441993587E+03  0.00000000000E+00 0.  1.
         13    1    3    3    0    0 -0.35702635222E+02  0.22923530706E+02  0.15837200373E+03  0.16395687844E+03  0.00000000000E+00 0. -1.
<mgrwt>
<rscale>  0 0.85663534E+02</rscale>
<asrwt>0</asrwt>
<pdfrwt beam="1">  1        2 0.57456061E-01 0.85663534E+02</pdfrwt>
<pdfrwt beam="2">  1       -2 0.75573481E-03 0.85663534E+02</pdfrwt>
<totfact> 0.22971169E+05</totfact>
</mgrwt>
</event>
<event>
 5    1  0.6046470E+000  0.9492521E+02  0.7546771E-02  0.1291345E+00
          2   -1    0    0  501    0  0.00000000000E+00  0.00000000000E+00  0.20456258896E+03  0.20456258896E+03  0.00000000000E+00 0. -1.
         -2   -1    0    0    0  501 -0.00000000000E+00 -0.00000000000E+00 -0.11012272515E+02  0.11012272515E+02  0.00000000000E+00 0.  1.
         23    2    1    2    0    0  0.00000000000E+00  0.00000000000E+00  0.19355031644E+03  0.21557486147E+03  0.94925212162E+02 0.  0.
        -13    1    3    3    0    0 -0.46621816873E+02 -0.52153583144E+01  0.11313661597E+03  0.12247729440E+03  0.00000000000E+00 0.  1.
         13    1    3    3    0    0  0.46621816873E+02  0.52153583144E+01  0.80413700479E+02  0.93097567077E+02  0.00000000000E+00 0. -1.
<mgrwt>
<rscale>  0 0.94925212E+02</rscale>
<asrwt>0</asrwt>
<pdfrwt beam="1">  1        2 0.31471165E-01 0.94925212E+02</pdfrwt>
<pdfrwt beam="2">  1       -2 0.16941959E-02 0.94925212E+02</pdfrwt>
<totfact> 0.13987932E+05</totfact>
</mgrwt>
</event>
<event>
 5    1  0.6046470E+000  0.8986729E+02  0.7546771E-02  0.1303173E+00
          2   -1    0    0  501    0  0.00000000000E+00  0.00000000000E+00  0.12904768418E+03  0.12904768418E+03  0.00000000000E+00 0.  1.
         -2   -1    0    0    0  501 -0.00000000000E+00 -0.00000000000E+00 -0.15645630321E+02  0.15645630321E+02  0.00000000000E+00 0. -1.
         23    2    1    2    0    0  0.00000000000E+00  0.00000000000E+00  0.11340205386E+03  0.14469331450E+03  0.89867287942E+02 0.  0.
        -13    1    3    3    0    0  0.21078471588E+02  0.35028280879E+02  0.26676210685E+02  0.48814983789E+02  0.00000000000E+00 0.  1.
         13    1    3    3    0    0 -0.21078471588E+02 -0.35028280879E+02  0.86725843176E+02  0.95878330714E+02  0.00000000000E+00 0. -1.
<mgrwt>
<rscale>  0 0.89867288E+02</rscale>
<asrwt>0</asrwt>
<pdfrwt beam="1">  1        2 0.19853489E-01 0.89867288E+02</pdfrwt>
<pdfrwt beam="2">  1       -2 0.24070201E-02 0.89867288E+02</pdfrwt>
<totfact> 0.13830134E+05</totfact>
</mgrwt>
</event>
<event>
 5    1  0.6046470E+000  0.9047519E+02  0.7546771E-02  0.1301705E+00
          1   -1    0    0  501    0  0.00000000000E+00  0.00000000000E+00  0.30894710474E+03  0.30894710474E+03  0.00000000000E+00 0. -1.
         -1   -1    0    0    0  501 -0.00000000000E+00 -0.00000000000E+00 -0.66239175272E+01  0.66239175272E+01  0.00000000000E+00 0.  1.
         23    2    1    2    0    0  0.00000000000E+00  0.00000000000E+00  0.30232318722E+03  0.31557102227E+03  0.90475193110E+02 0.  0.
        -13    1    3    3    0    0  0.71666957326E+01 -0.40418071001E+02  0.21747427806E+03  0.22131435473E+03  0.00000000000E+00 0. -1.
         13    1    3    3    0    0 -0.71666957326E+01  0.40418071001E+02  0.84848909160E+02  0.94256667546E+02  0.00000000000E+00 0.  1.
<mgrwt>
<rscale>  0 0.90475193E+02</rscale>
<asrwt>0</asrwt>
<pdfrwt beam="1">  1        1 0.47530313E-01 0.90475193E+02</pdfrwt>
<pdfrwt beam="2">  1       -1 0.10190645E-02 0.90475193E+02</pdfrwt>
<totfact> 0.13151481E+05</totfact>
</mgrwt>
</event>
<event>
 5    1  0.6046470E+000  0.9379122E+02  0.7546771E-02  0.1293922E+00
         -1   -1    0    0    0  501 -0.00000000000E+00  0.00000000000E+00  0.14212184235E+03  0.14212184235E+03  0.00000000000E+00 0. -1.
          1   -1    0    0  501    0  0.00000000000E+00 -0.00000000000E+00 -0.15474032680E+02  0.15474032680E+02  0.00000000000E+00 0.  1.
         23    2    1    2    0    0  0.00000000000E+00  0.00000000000E+00  0.12664780967E+03  0.15759587503E+03  0.93791215647E+02 0.  0.
        -13    1    3    3    0    0 -0.39357563718E+02  0.25497153386E+02  0.62862574177E+02  0.78427201179E+02  0.00000000000E+00 0.  1.
         13    1    3    3    0    0  0.39357563718E+02 -0.25497153386E+02  0.63785235494E+02  0.79168673853E+02  0.00000000000E+00 0. -1.
<mgrwt>
<rscale>  0 0.93791216E+02</rscale>
<asrwt>0</asrwt>
<pdfrwt beam="2">  1        1 0.23806205E-02 0.93791216E+02</pdfrwt>
<pdfrwt beam="1">  1       -1 0.21864898E-01 0.93791216E+02</pdfrwt>
<totfact> 0.70362430E+04</totfact>
</mgrwt>
</event>
<event>
 5    1  0.6046470E+000  0.1114418E+03  0.7546771E-02  0.1257923E+00
         -1   -1    0    0    0  501 -0.00000000000E+00  0.00000000000E+00  0.16354588409E+02  0.16354588409E+02  0.00000000000E+00 0.  1.
          1   -1    0    0  501    0  0.00000000000E+00 -0.00000000000E+00 -0.18984404918E+03  0.18984404918E+03  0.00000000000E+00 0. -1.
         23    2    1    2    0    0  0.00000000000E+00  0.00000000000E+00 -0.17348946077E+03  0.20619863758E+03  0.11144184647E+03 0.  0.
        -13    1    3    3    0    0 -0.46967010388E+02 -0.27166922503E+02 -0.63276091401E+02  0.83353497144E+02  0.00000000000E+00 0.  1.
         13    1    3    3    0    0  0.46967010388E+02  0.27166922503E+02 -0.11021336937E+03  0.12284514044E+03  0.00000000000E+00 0. -1.
<mgrwt>
<rscale>  0 0.11144185E+03</rscale>
<asrwt>0</asrwt>
<pdfrwt beam="2">  1        1 0.29206776E-01 0.11144185E+03</pdfrwt>
<pdfrwt beam="1">  1       -1 0.25160906E-02 0.11144185E+03</pdfrwt>
<totfact> 0.67957860E+04</totfact>
</mgrwt>
</event>
<event>
 5    1  0.6046470E+000  0.9142242E+02  0.7546771E-02  0.1299443E+00
         -1   -1    0    0    0  501 -0.00000000000E+00  0.00000000000E+00  0.16161873280E+02  0.16161873280E+02  0.00000000000E+00 0.  1.
          1   -1    0    0  501    0  0.00000000000E+00 -0.00000000000E+00 -0.12928666312E+03  0.12928666312E+03  0.00000000000E+00 0. -1.
         23    2    1    2    0    0  0.00000000000E+00  0.00000000000E+00 -0.11312478984E+03  0.14544853640E+03  0.91422418829E+02 0.  0.
        -13    1    3    3    0    0  0.38915080833E+02 -0.13152844171E+02 -0.24658628395E+02  0.47910633270E+02  0.00000000000E+00 0.  1.
         13    1    3    3    0    0 -0.38915080833E+02  0.13152844171E+02 -0.88466161447E+02  0.97537903131E+02  0.00000000000E+00 0. -1.
<mgrwt>
<rscale>  0 0.91422419E+02</rscale>
<asrwt>0</asrwt>
<pdfrwt beam="2">  1        1 0.19890256E-01 0.91422419E+02</pdfrwt>
<pdfrwt beam="1">  1       -1 0.24864421E-02 0.91422419E+02</pdfrwt>
<totfact> 0.10836752E+05</totfact>
</mgrwt>
</event>
<event>
 5    1  0.6046470E+000  0.8338651E+02  0.7546771E-02  0.1319707E+00
         -1   -1    0    0    0  501 -0.00000000000E+00  0.00000000000E+00  0.29720870744E+02  0.29720870744E+02  0.00000000000E+00 0.  1.
          1   -1    0    0  501    0  0.00000000000E+00 -0.00000000000E+00 -0.58488442189E+02  0.58488442189E+02  0.00000000000E+00 0. -1.
         23    2    1    2    0    0  0.00000000000E+00  0.00000000000E+00 -0.28767571445E+02  0.88209312933E+02  0.83386508029E+02 0.  0.
        -13    1    3    3    0    0 -0.11022022559E+02 -0.58858479462E+01  0.27693647385E+02  0.30382006069E+02  0.00000000000E+00 0.  1.
         13    1    3    3    0    0  0.11022022559E+02  0.58858479462E+01 -0.56461218830E+02  0.57827306863E+02  0.00000000000E+00 0. -1.
<mgrwt>
<rscale>  0 0.83386508E+02</rscale>
<asrwt>0</asrwt>
<pdfrwt beam="2">  1        1 0.89982218E-02 0.83386508E+02</pdfrwt>
<pdfrwt beam="1">  1       -1 0.45724417E-02 0.83386508E+02</pdfrwt>
<totfact> 0.12279496E+05</totfact>
</mgrwt>
</event>
<event>
 5    1  0.6046470E+000  0.9000542E+02  0.7546771E-02  0.1302839E+00
         -1   -1    0    0    0  501 -0.00000000000E+00  0.00000000000E+00  0.18320599897E+03  0.18320599897E+03  0.00000000000E+00 0. -1.
          1   -1    0    0  501    0  0.00000000000E+00 -0.00000000000E+00 -0.11054462815E+02  0.11054462815E+02  0.00000000000E+00 0.  1.
         23    2    1    2    0    0  0.00000000000E+00  0.00000000000E+00  0.17215153615E+03  0.19426046178E+03  0.90005419903E+02 0.  0.
        -13    1    3    3    0    0  0.27124530202E+02  0.83686227529E+01  0.10705284778E+02  0.30337717574E+02  0.00000000000E+00 0.  1.
         13    1    3    3    0    0 -0.27124530202E+02 -0.83686227529E+01  0.16144625137E+03  0.16392274421E+03  0.00000000000E+00 0. -1.
<mgrwt>
<rscale>  0 0.90005420E+02</rscale>
<asrwt>0</asrwt>
<pdfrwt beam="2">  1        1 0.17006867E-02 0.90005420E+02</pdfrwt>
<pdfrwt beam="1">  1       -1 0.28185536E-01 0.90005420E+02</pdfrwt>
<totfact> 0.73565428E+04</totfact>
</mgrwt>
</event>
<event>
 5    1  0.6046470E+000  0.9843743E+02  0.7546771E-02  0.1283617E+00
          1   -1    0    0  501    0  0.00000000000E+00  0.00000000000E+00  0.12985817470E+03  0.12985817470E+03  0.00000000000E+00 0. -1.
         -1   -1    0    0    0  501 -0.00000000000E+00 -0.00000000000E+00 -0.18654827843E+02  0.18654827843E+02  0.00000000000E+00 0.  1.
         23    2    1    2    0    0  0.00000000000E+00  0.00000000000E+00  0.11120334686E+03  0.14851300255E+03  0.98437429734E+02 0.  0.
        -13    1    3    3    0    0 -0.28539241477E+02 -0.93927411616E+01 -0.32140098965E+01  0.30216580717E+02  0.00000000000E+00 0.  1.
         13    1    3    3    0    0  0.28539241477E+02  0.93927411616E+01  0.11441735676E+03  0.11829642183E+03  0.00000000000E+00 0. -1.
<mgrwt>
<rscale>  0 0.98437430E+02</rscale>
<asrwt>0</asrwt>
<pdfrwt beam="1">  1        1 0.19978180E-01 0.98437430E+02</pdfrwt>
<pdfrwt beam="2">  1       -1 0.28699736E-02 0.98437430E+02</pdfrwt>
<totfact> 0.88685258E+04</totfact>
</mgrwt>
</event>
<event>
 5    1  0.6046470E+000  0.9524433E+02  0.7546771E-02  0.1290627E+00
         -3   -1    0    0    0  501 -0.00000000000E+00  0.00000000000E+00  0.65527783132E+02  0.65527783132E+02  0.00000000000E+00 0.  1.
          3   -1    0    0  501    0  0.00000000000E+00 -0.00000000000E+00 -0.34609295373E+02  0.34609295373E+02  0.00000000000E+00 0. -1.
         23    2    1    2    0    0  0.00000000000E+00  0.00000000000E+00  0.30918487759E+02  0.10013707850E+03  0.95244325848E+02 0.  0.
        -13    1    3    3    0    0  0.20665220931E+02 -0.19333766005E+02  0.55728582191E+02  0.62502165860E+02  0.00000000000E+00 0.  1.
         13    1    3    3    0    0 -0.20665220931E+02  0.19333766005E+02 -0.24810094432E+02  0.37634912645E+02  0.00000000000E+00 0. -1.
<mgrwt>
<rscale>  0 0.95244326E+02</rscale>
<asrwt>0</asrwt>
<pdfrwt beam="2">  1        3 0.53245070E-02 0.95244326E+02</pdfrwt>
<pdfrwt beam="1">  1       -3 0.10081197E-01 0.95244326E+02</pdfrwt>
<totfact> 0.30764843E+04</totfact>
</mgrwt>
</event>
<event>
 5    1  0.6046470E+000  0.1037294E+03  0.7546771E-02  0.1272643E+00
         -2   -1    0    0    0  501 -0.00000000000E+00  0.00000000000E+00  0.13707736024E+03  0.13707736024E+03  0.00000000000E+00 0.  1.
          2   -1    0    0  501    0  0.00000000000E+00 -0.00000000000E+00 -0.19623572871E+02  0.19623572871E+02  0.00000000000E+00 0. -1.
         23    2    1    2    0    0  0.00000000000E+00  0.00000000000E+00  0.11745378737E+03  0.15670093311E+03  0.10372940890E+03 0.  0.
        -13    1    3    3    0    0 -0.26582395632E+01  0.51217285112E+02  0.47057414656E+02  0.69603712587E+02  0.00000000000E+00 0. -1.
         13    1    3    3    0    0  0.26582395632E+01 -0.51217285112E+02  0.70396372712E+02  0.87097220522E+02  0.00000000000E+00 0.  1.
<mgrwt>
<rscale>  0 0.10372941E+03</rscale>
<asrwt>0</asrwt>
<pdfrwt beam="2">  1        2 0.30190113E-02 0.10372941E+03</pdfrwt>
<pdfrwt beam="1">  1       -2 0.21088824E-01 0.10372941E+03</pdfrwt>
<totfact> 0.52085414E+04</totfact>
</mgrwt>
</event>
<event>
 5    1  0.6046470E+000  0.9008644E+02  0.7546771E-02  0.1302643E+00
          2   -1    0    0  501    0  0.00000000000E+00  0.00000000000E+00  0.18941177517E+02  0.18941177517E+02  0.00000000000E+00 0. -1.
         -2   -1    0    0    0  501 -0.00000000000E+00 -0.00000000000E+00 -0.10711539014E+03  0.10711539014E+03  0.00000000000E+00 0.  1.
         23    2    1    2    0    0  0.00000000000E+00  0.00000000000E+00 -0.88174212626E+02  0.12605656766E+03  0.90086438923E+02 0.  0.
        -13    1    3    3    0    0 -0.98418531710E-01 -0.42282201607E+02 -0.22359980168E+02  0.47830565249E+02  0.00000000000E+00 0. -1.
         13    1    3    3    0    0  0.98418531710E-01  0.42282201607E+02 -0.65814232458E+02  0.78226002409E+02  0.00000000000E+00 0.  1.
<mgrwt>
<rscale>  0 0.90086439E+02</rscale>
<asrwt>0</asrwt>
<pdfrwt beam="1">  1        2 0.29140273E-02 0.90086439E+02</pdfrwt>
<pdfrwt beam="2">  1       -2 0.16479291E-01 0.90086439E+02</pdfrwt>
<totfact> 0.80545602E+04</totfact>
</mgrwt>
</event>
<event>
 5    1  0.6046470E+000  0.9108246E+02  0.7546771E-02  0.1300251E+00
          3   -1    0    0  501    0  0.00000000000E+00  0.00000000000E+00  0.91710403705E+02  0.91710403705E+02  0.00000000000E+00 0. -1.
         -3   -1    0    0    0  501 -0.00000000000E+00 -0.00000000000E+00 -0.22614705565E+02  0.22614705565E+02  0.00000000000E+00 0.  1.
         23    2    1    2    0    0  0.00000000000E+00  0.00000000000E+00  0.69095698139E+02  0.11432510927E+03  0.91082463231E+02 0.  0.
        -13    1    3    3    0    0 -0.30886270633E+02  0.59718539406E+01 -0.67851969917E+01  0.32181728532E+02  0.00000000000E+00 0.  1.
         13    1    3    3    0    0  0.30886270633E+02 -0.59718539406E+01  0.75880895131E+02  0.82143380737E+02  0.00000000000E+00 0. -1.
<mgrwt>
<rscale>  0 0.91082463E+02</rscale>
<asrwt>0</asrwt>
<pdfrwt beam="1">  1        3 0.14109293E-01 0.91082463E+02</pdfrwt>
<pdfrwt beam="2">  1       -3 0.34791855E-02 0.91082463E+02</pdfrwt>
<totfact> 0.33733953E+04</totfact>
</mgrwt>
</event>
<event>
 5    1  0.6046470E+000  0.9549134E+02  0.7546771E-02  0.1290073E+00
         -2   -1    0    0    0  501 -0.00000000000E+00  0.00000000000E+00  0.22526002623E+03  0.22526002623E+03  0.00000000000E+00 0.  1.
          2   -1    0    0  501    0  0.00000000000E+00 -0.00000000000E+00 -0.10120078312E+02  0.10120078312E+02  0.00000000000E+00 0. -1.
         23    2    1    2    0    0  0.00000000000E+00  0.00000000000E+00  0.21513994792E+03  0.23538010455E+03  0.95491342143E+02 0.  0.
        -13    1    3    3    0    0  0.39949152832E+02  0.25921120611E+02  0.11604082475E+03  0.12543250103E+03  0.00000000000E+00 0.  1.
         13    1    3    3    0    0 -0.39949152832E+02 -0.25921120611E+02  0.99099123173E+02  0.10994760352E+03  0.00000000000E+00 0. -1.
<mgrwt>
<rscale>  0 0.95491342E+02</rscale>
<asrwt>0</asrwt>
<pdfrwt beam="2">  1        2 0.15569353E-02 0.95491342E+02</pdfrwt>
<pdfrwt beam="1">  1       -2 0.34655385E-01 0.95491342E+02</pdfrwt>
<totfact> 0.52468841E+04</totfact>
</mgrwt>
</event>
<event>
 5    1  0.6046470E+000  0.9063251E+02  0.7546771E-02  0.1301327E+00
          2   -1    0    0  501    0  0.00000000000E+00  0.00000000000E+00  0.16299124680E+02  0.16299124680E+02  0.00000000000E+00 0. -1.
         -2   -1    0    0    0  501 -0.00000000000E+00 -0.00000000000E+00 -0.12599221620E+03  0.12599221620E+03  0.00000000000E+00 0.  1.
         23    2    1    2    0    0  0.00000000000E+00  0.00000000000E+00 -0.10969309152E+03  0.14229134088E+03  0.90632507205E+02 0.  0.
        -13    1    3    3    0    0  0.13460812229E+02  0.25684562360E+02 -0.17438156635E+00  0.28998631320E+02  0.00000000000E+00 0. -1.
         13    1    3    3    0    0 -0.13460812229E+02 -0.25684562360E+02 -0.10951870995E+03  0.11329270956E+03  0.00000000000E+00 0.  1.
<mgrwt>
<rscale>  0 0.90632507E+02</rscale>
<asrwt>0</asrwt>
<pdfrwt beam="1">  1        2 0.25075578E-02 0.90632507E+02</pdfrwt>
<pdfrwt beam="2">  1       -2 0.19383417E-01 0.90632507E+02</pdfrwt>
<totfact> 0.75347194E+04</totfact>
</mgrwt>
</event>
<event>
 5    1  0.6046470E+000  0.9105313E+02  0.7546771E-02  0.1300321E+00
          2   -1    0    0  501    0  0.00000000000E+00  0.00000000000E+00  0.46013013227E+02  0.46013013227E+02  0.00000000000E+00 0. -1.
         -2   -1    0    0    0  501 -0.00000000000E+00 -0.00000000000E+00 -0.45045261653E+02  0.45045261653E+02  0.00000000000E+00 0.  1.
         23    2    1    2    0    0  0.00000000000E+00  0.00000000000E+00  0.96775157361E+00  0.91058274880E+02  0.91053132186E+02 0.  0.
        -13    1    3    3    0    0 -0.38005329740E+02  0.22894298132E+02  0.10688090884E+02  0.45637586070E+02  0.00000000000E+00 0. -1.
         13    1    3    3    0    0  0.38005329740E+02 -0.22894298132E+02 -0.97203393100E+01  0.45420688809E+02  0.00000000000E+00 0.  1.
<mgrwt>
<rscale>  0 0.91053132E+02</rscale>
<asrwt>0</asrwt>
<pdfrwt beam="1">  1        2 0.70789251E-02 0.91053132E+02</pdfrwt>
<pdfrwt beam="2">  1       -2 0.69300402E-02 0.91053132E+02</pdfrwt>
<totfact> 0.99298633E+04</totfact>
</mgrwt>
</event>
<event>
 5    1  0.6046470E+000  0.9071091E+02  0.7546771E-02  0.1301139E+00
          2   -1    0    0  501    0  0.00000000000E+00  0.00000000000E+00  0.43291964462E+02  0.43291964462E+02  0.00000000000E+00 0. -1.
         -2   -1    0    0    0  501 -0.00000000000E+00 -0.00000000000E+00 -0.47517297656E+02  0.47517297656E+02  0.00000000000E+00 0.  1.
         23    2    1    2    0    0  0.00000000000E+00  0.00000000000E+00 -0.42253331943E+01  0.90809262118E+02  0.90710906984E+02 0.  0.
        -13    1    3    3    0    0 -0.10620941467E+02 -0.25943594367E+02  0.33580482757E+02  0.43743837377E+02  0.00000000000E+00 0. -1.
         13    1    3    3    0    0  0.10620941467E+02  0.25943594367E+02 -0.37805815951E+02  0.47065424741E+02  0.00000000000E+00 0.  1.
<mgrwt>
<rscale>  0 0.90710907E+02</rscale>
<asrwt>0</asrwt>
<pdfrwt beam="1">  1        2 0.66603022E-02 0.90710907E+02</pdfrwt>
<pdfrwt beam="2">  1       -2 0.73103535E-02 0.90710907E+02</pdfrwt>
<totfact> 0.98807158E+04</totfact>
</mgrwt>
</event>
<event>
 5    1  0.6046470E+000  0.9221506E+02  0.7546771E-02  0.1297575E+00
          3   -1    0    0  501    0  0.00000000000E+00  0.00000000000E+00  0.52062119078E+02  0.52062119078E+02  0.00000000000E+00 0. -1.
         -3   -1    0    0    0  501 -0.00000000000E+00 -0.00000000000E+00 -0.40833996130E+02  0.40833996130E+02  0.00000000000E+00 0.  1.
         23    2    1    2    0    0  0.00000000000E+00  0.00000000000E+00  0.11228122948E+02  0.92896115208E+02  0.92215061003E+02 0.  0.
        -13    1    3    3    0    0 -0.38552497770E+02  0.13240130468E+01  0.31056404912E+02  0.49523210527E+02  0.00000000000E+00 0. -1.
         13    1    3    3    0    0  0.38552497770E+02 -0.13240130468E+01 -0.19828281964E+02  0.43372904681E+02  0.00000000000E+00 0.  1.
<mgrwt>
<rscale>  0 0.92215061E+02</rscale>
<asrwt>0</asrwt>
<pdfrwt beam="1">  1        3 0.80095568E-02 0.92215061E+02</pdfrwt>
<pdfrwt beam="2">  1       -3 0.62821532E-02 0.92215061E+02</pdfrwt>
<totfact> 0.34135232E+04</totfact>
</mgrwt>
</event>
<event>
 5    1  0.6046470E+000  0.9371452E+02  0.7546771E-02  0.1294098E+00
          1   -1    0    0  501    0  0.00000000000E+00  0.00000000000E+00  0.93033957072E+02  0.93033957072E+02  0.00000000000E+00 0. -1.
         -1   -1    0    0    0  501 -0.00000000000E+00 -0.00000000000E+00 -0.23600016283E+02  0.23600016283E+02  0.00000000000E+00 0.  1.
         23    2    1    2    0    0  0.00000000000E+00  0.00000000000E+00  0.69433940789E+02  0.11663397336E+03  0.93714521858E+02 0.  0.
        -13    1    3    3    0    0  0.43738441764E+02  0.16165418700E+02  0.28982386776E+02  0.54903103673E+02  0.00000000000E+00 0.  1.
         13    1    3    3    0    0 -0.43738441764E+02 -0.16165418700E+02  0.40451554013E+02  0.61730869682E+02  0.00000000000E+00 0. -1.
<mgrwt>
<rscale>  0 0.93714522E+02</rscale>
<asrwt>0</asrwt>
<pdfrwt beam="1">  1        1 0.14312916E-01 0.93714522E+02</pdfrwt>
<pdfrwt beam="2">  1       -1 0.36307718E-02 0.93714522E+02</pdfrwt>
<totfact> 0.95739006E+04</totfact>
</mgrwt>
</event>
<event>
 5    1  0.6046470E+000  0.9831877E+02  0.7546771E-02  0.1283872E+00
         -4   -1    0    0    0  501 -0.00000000000E+00  0.00000000000E+00  0.38264554136E+02  0.38264554136E+02  0.00000000000E+00 0. -1.
          4   -1    0    0  501    0  0.00000000000E+00 -0.00000000000E+00 -0.63156240267E+02  0.63156240267E+02  0.00000000000E+00 0.  1.
         23    2    1    2    0    0  0.00000000000E+00  0.00000000000E+00 -0.24891686130E+02  0.10142079440E+03  0.98318774906E+02 0.  0.
        -13    1    3    3    0    0  0.48504452767E+02  0.77399301136E+01 -0.10368115109E+02  0.50200460828E+02  0.00000000000E+00 0. -1.
         13    1    3    3    0    0 -0.48504452767E+02 -0.77399301136E+01 -0.14523571021E+02  0.51220333576E+02  0.00000000000E+00 0.  1.
<mgrwt>
<rscale>  0 0.98318775E+02</rscale>
<asrwt>0</asrwt>
<pdfrwt beam="2">  1        4 0.97163447E-02 0.98318775E+02</pdfrwt>
<pdfrwt beam="1">  1       -4 0.58868545E-02 0.98318775E+02</pdfrwt>
<totfact> 0.21467505E+04</totfact>
</mgrwt>
</event>
<event>
 5    1  0.6046470E+000  0.9165462E+02  0.7546771E-02  0.1298894E+00
         -2   -1    0    0    0  501 -0.00000000000E+00  0.00000000000E+00  0.15713241338E+02  0.15713241338E+02  0.00000000000E+00 0.  1.
          2   -1    0    0  501    0  0.00000000000E+00 -0.00000000000E+00 -0.13365429318E+03  0.13365429318E+03  0.00000000000E+00 0. -1.
         23    2    1    2    0    0  0.00000000000E+00  0.00000000000E+00 -0.11794105184E+03  0.14936753451E+03  0.91654616131E+02 0.  0.
        -13    1    3    3    0    0  0.15332000583E+02 -0.33413178497E+02 -0.14380687717E+02  0.39475497696E+02  0.00000000000E+00 0.  1.
         13    1    3    3    0    0 -0.15332000583E+02  0.33413178497E+02 -0.10356036412E+03  0.10989203682E+03  0.00000000000E+00 0. -1.
<mgrwt>
<rscale>  0 0.91654616E+02</rscale>
<asrwt>0</asrwt>
<pdfrwt beam="2">  1        2 0.20562199E-01 0.91654616E+02</pdfrwt>
<pdfrwt beam="1">  1       -2 0.24174217E-02 0.91654616E+02</pdfrwt>
<totfact> 0.13259924E+05</totfact>
</mgrwt>
</event>
<event>
 5    1  0.6046470E+000  0.9083484E+02  0.7546771E-02  0.1300843E+00
         -1   -1    0    0    0  501 -0.00000000000E+00  0.00000000000E+00  0.70278979977E+02  0.70278979977E+02  0.00000000000E+00 0.  1.
          1   -1    0    0  501    0  0.00000000000E+00 -0.00000000000E+00 -0.29350767817E+02  0.29350767817E+02  0.00000000000E+00 0. -1.
         23    2    1    2    0    0  0.00000000000E+00  0.00000000000E+00  0.40928212160E+02  0.99629747794E+02  0.90834839654E+02 0.  0.
        -13    1    3    3    0    0 -0.28077245467E+01 -0.29043392612E+02 -0.17710065011E+02  0.34132804957E+02  0.00000000000E+00 0. -1.
         13    1    3    3    0    0  0.28077245467E+01  0.29043392612E+02  0.58638277170E+02  0.65496942837E+02  0.00000000000E+00 0.  1.
<mgrwt>
<rscale>  0 0.90834840E+02</rscale>
<asrwt>0</asrwt>
<pdfrwt beam="2">  1        1 0.45155028E-02 0.90834840E+02</pdfrwt>
<pdfrwt beam="1">  1       -1 0.10812151E-01 0.90834840E+02</pdfrwt>
<totfact> 0.87316073E+04</totfact>
</mgrwt>
</event>
<event>
 5    1  0.6046470E+000  0.9147517E+02  0.7546771E-02  0.1299318E+00
          1   -1    0    0  501    0  0.00000000000E+00  0.00000000000E+00  0.30726353197E+02  0.30726353197E+02  0.00000000000E+00 0. -1.
         -1   -1    0    0    0  501 -0.00000000000E+00 -0.00000000000E+00 -0.68082492790E+02  0.68082492790E+02  0.00000000000E+00 0.  1.
         23    2    1    2    0    0  0.00000000000E+00  0.00000000000E+00 -0.37356139593E+02  0.98808845987E+02  0.91475170838E+02 0.  0.
        -13    1    3    3    0    0  0.13263258210E+02 -0.13449682144E+02  0.26316199108E+02  0.32393676908E+02  0.00000000000E+00 0. -1.
         13    1    3    3    0    0 -0.13263258210E+02  0.13449682144E+02 -0.63672338701E+02  0.66415169079E+02  0.00000000000E+00 0.  1.
<mgrwt>
<rscale>  0 0.91475171E+02</rscale>
<asrwt>0</asrwt>
<pdfrwt beam="1">  1        1 0.47271313E-02 0.91475171E+02</pdfrwt>
<pdfrwt beam="2">  1       -1 0.10474229E-01 0.91475171E+02</pdfrwt>
<totfact> 0.86206394E+04</totfact>
</mgrwt>
</event>
<event>
 5    1  0.6046470E+000  0.9457291E+02  0.7546771E-02  0.1292141E+00
          2   -1    0    0  501    0  0.00000000000E+00  0.00000000000E+00  0.15276322544E+02  0.15276322544E+02  0.00000000000E+00 0. -1.
         -2   -1    0    0    0  501 -0.00000000000E+00 -0.00000000000E+00 -0.14637088404E+03  0.14637088404E+03  0.00000000000E+00 0.  1.
         23    2    1    2    0    0  0.00000000000E+00  0.00000000000E+00 -0.13109456150E+03  0.16164720659E+03  0.94572910196E+02 0.  0.
        -13    1    3    3    0    0 -0.24683265256E+02 -0.15904006597E+02 -0.12889988084E+03  0.13220204344E+03  0.00000000000E+00 0.  1.
         13    1    3    3    0    0  0.24683265256E+02  0.15904006597E+02 -0.21946806591E+01  0.29445163147E+02  0.00000000000E+00 0. -1.
<mgrwt>
<rscale>  0 0.94572910E+02</rscale>
<asrwt>0</asrwt>
<pdfrwt beam="1">  1        2 0.23502034E-02 0.94572910E+02</pdfrwt>
<pdfrwt beam="2">  1       -2 0.22518598E-01 0.94572910E+02</pdfrwt>
<totfact> 0.64245167E+04</totfact>
</mgrwt>
</event>
<event>
 5    1  0.6046470E+000  0.9150355E+02  0.7546771E-02  0.1299251E+00
         -4   -1    0    0    0  501 -0.00000000000E+00  0.00000000000E+00  0.55746730013E+02  0.55746730013E+02  0.00000000000E+00 0.  1.
          4   -1    0    0  501    0  0.00000000000E+00 -0.00000000000E+00 -0.37548834925E+02  0.37548834925E+02  0.00000000000E+00 0. -1.
         23    2    1    2    0    0  0.00000000000E+00  0.00000000000E+00  0.18197895088E+02  0.93295564937E+02  0.91503546660E+02 0.  0.
        -13    1    3    3    0    0  0.32631075065E+02  0.31024119100E+02  0.81946370653E+00  0.45032816330E+02  0.00000000000E+00 0. -1.
         13    1    3    3    0    0 -0.32631075065E+02 -0.31024119100E+02  0.17378431381E+02  0.48262748607E+02  0.00000000000E+00 0.  1.
<mgrwt>
<rscale>  0 0.91503547E+02</rscale>
<asrwt>0</asrwt>
<pdfrwt beam="2">  1        4 0.57767438E-02 0.91503547E+02</pdfrwt>
<pdfrwt beam="1">  1       -4 0.85764200E-02 0.91503547E+02</pdfrwt>
<totfact> 0.26620373E+04</totfact>
</mgrwt>
</event>
<event>
 5    1  0.6046470E+000  0.8625723E+02  0.7546771E-02  0.1312177E+00
          1   -1    0    0  501    0  0.00000000000E+00  0.00000000000E+00  0.93004351499E+01  0.93004351499E+01  0.00000000000E+00 0. -1.
         -1   -1    0    0    0  501 -0.00000000000E+00 -0.00000000000E+00 -0.19999897510E+03  0.19999897510E+03  0.00000000000E+00 0.  1.
         23    2    1    2    0    0  0.00000000000E+00  0.00000000000E+00 -0.19069853995E+03  0.20929941025E+03  0.86257231534E+02 0.  0.
        -13    1    3    3    0    0  0.29164798566E+02  0.28011994355E+02 -0.58966970080E+02  0.71500775265E+02  0.00000000000E+00 0.  1.
         13    1    3    3    0    0 -0.29164798566E+02 -0.28011994355E+02 -0.13173156987E+03  0.13779863499E+03  0.00000000000E+00 0. -1.
<mgrwt>
<rscale>  0 0.86257232E+02</rscale>
<asrwt>0</asrwt>
<pdfrwt beam="1">  1        1 0.14308362E-02 0.86257232E+02</pdfrwt>
<pdfrwt beam="2">  1       -1 0.30769072E-01 0.86257232E+02</pdfrwt>
<totfact> 0.80192006E+04</totfact>
</mgrwt>
</event>
<event>
 5    1  0.6046470E+000  0.1089922E+03  0.7546771E-02  0.1262448E+00
         -4   -1    0    0    0  501 -0.00000000000E+00  0.00000000000E+00  0.14525416137E+02  0.14525416137E+02  0.00000000000E+00 0.  1.
          4   -1    0    0  501    0  0.00000000000E+00 -0.00000000000E+00 -0.20445704602E+03  0.20445704602E+03  0.00000000000E+00 0. -1.
         23    2    1    2    0    0  0.00000000000E+00  0.00000000000E+00 -0.18993162989E+03  0.21898246216E+03  0.10899217725E+03 0.  0.
        -13    1    3    3    0    0  0.53817068681E+02  0.75147503083E+01 -0.10326811560E+03  0.11669212507E+03  0.00000000000E+00 0. -1.
         13    1    3    3    0    0 -0.53817068681E+02 -0.75147503083E+01 -0.86663514283E+02  0.10229033709E+03  0.00000000000E+00 0.  1.
<mgrwt>
<rscale>  0 0.10899218E+03</rscale>
<asrwt>0</asrwt>
<pdfrwt beam="2">  1        4 0.31454926E-01 0.10899218E+03</pdfrwt>
<pdfrwt beam="1">  1       -4 0.22346797E-02 0.10899218E+03</pdfrwt>
<totfact> 0.12718593E+04</totfact>
</mgrwt>
</event>
<event>
 5    1  0.6046470E+000  0.9249254E+02  0.7546771E-02  0.1296925E+00
         -2   -1    0    0    0  501 -0.00000000000E+00  0.00000000000E+00  0.88350840891E+02  0.88350840891E+02  0.00000000000E+00 0.  1.
          2   -1    0    0  501    0  0.00000000000E+00 -0.00000000000E+00 -0.24207096534E+02  0.24207096534E+02  0.00000000000E+00 0. -1.
         23    2    1    2    0    0  0.00000000000E+00  0.00000000000E+00  0.64143744357E+02  0.11255793743E+03  0.92492536658E+02 0.  0.
        -13    1    3    3    0    0  0.44914562987E+02  0.80267829768E+01  0.22886579329E+02  0.51044517106E+02  0.00000000000E+00 0.  1.
         13    1    3    3    0    0 -0.44914562987E+02 -0.80267829768E+01  0.41257165028E+02  0.61513420319E+02  0.00000000000E+00 0. -1.
<mgrwt>
<rscale>  0 0.92492537E+02</rscale>
<asrwt>0</asrwt>
<pdfrwt beam="2">  1        2 0.37241687E-02 0.92492537E+02</pdfrwt>
<pdfrwt beam="1">  1       -2 0.13592437E-01 0.92492537E+02</pdfrwt>
<totfact> 0.79860267E+04</totfact>
</mgrwt>
</event>
<event>
 5    1  0.6046470E+000  0.9263624E+02  0.7546771E-02  0.1296590E+00
          1   -1    0    0  501    0  0.00000000000E+00  0.00000000000E+00  0.18184030399E+02  0.18184030399E+02  0.00000000000E+00 0. -1.
         -1   -1    0    0    0  501 -0.00000000000E+00 -0.00000000000E+00 -0.11798090759E+03  0.11798090759E+03  0.00000000000E+00 0.  1.
         23    2    1    2    0    0  0.00000000000E+00  0.00000000000E+00 -0.99796877195E+02  0.13616493799E+03  0.92636243666E+02 0.  0.
        -13    1    3    3    0    0 -0.36184932964E+02  0.22448954966E+02 -0.76683638935E+02  0.87713655909E+02  0.00000000000E+00 0.  1.
         13    1    3    3    0    0  0.36184932964E+02 -0.22448954966E+02 -0.23113238261E+02  0.48451282084E+02  0.00000000000E+00 0. -1.
<mgrwt>
<rscale>  0 0.92636244E+02</rscale>
<asrwt>0</asrwt>
<pdfrwt beam="1">  1        1 0.27975431E-02 0.92636244E+02</pdfrwt>
<pdfrwt beam="2">  1       -1 0.18150909E-01 0.92636244E+02</pdfrwt>
<totfact> 0.75630078E+04</totfact>
</mgrwt>
</event>
<event>
 5    1  0.6046470E+000  0.9256479E+02  0.7546771E-02  0.1296757E+00
         -3   -1    0    0    0  501 -0.00000000000E+00  0.00000000000E+00  0.19487752779E+02  0.19487752779E+02  0.00000000000E+00 0.  1.
          3   -1    0    0  501    0  0.00000000000E+00 -0.00000000000E+00 -0.10991827789E+03  0.10991827789E+03  0.00000000000E+00 0. -1.
         23    2    1    2    0    0  0.00000000000E+00  0.00000000000E+00 -0.90430525109E+02  0.12940603067E+03  0.92564792990E+02 0.  0.
        -13    1    3    3    0    0 -0.22044689418E+02 -0.35408092850E+02 -0.17172844246E+02  0.45106628674E+02  0.00000000000E+00 0.  1.
         13    1    3    3    0    0  0.22044689418E+02  0.35408092850E+02 -0.73257680863E+02  0.84299401992E+02  0.00000000000E+00 0. -1.
<mgrwt>
<rscale>  0 0.92564793E+02</rscale>
<asrwt>0</asrwt>
<pdfrwt beam="2">  1        3 0.16910504E-01 0.92564793E+02</pdfrwt>
<pdfrwt beam="1">  1       -3 0.29981159E-02 0.92564793E+02</pdfrwt>
<totfact> 0.31301850E+04</totfact>
</mgrwt>
</event>
<event>
 5    1  0.6046470E+000  0.9062501E+02  0.7546771E-02  0.1301345E+00
         -2   -1    0    0    0  501 -0.00000000000E+00  0.00000000000E+00  0.37042910340E+02  0.37042910340E+02  0.00000000000E+00 0.  1.
          2   -1    0    0  501    0  0.00000000000E+00 -0.00000000000E+00 -0.55428238816E+02  0.55428238816E+02  0.00000000000E+00 0. -1.
         23    2    1    2    0    0  0.00000000000E+00  0.00000000000E+00 -0.18385328476E+02  0.92471149156E+02  0.90625013783E+02 0.  0.
        -13    1    3    3    0    0  0.18290535876E+02  0.13253047153E+02 -0.49274374404E+02  0.54204713212E+02  0.00000000000E+00 0. -1.
         13    1    3    3    0    0 -0.18290535876E+02 -0.13253047153E+02  0.30889045928E+02  0.38266435944E+02  0.00000000000E+00 0.  1.
<mgrwt>
<rscale>  0 0.90625014E+02</rscale>
<asrwt>0</asrwt>
<pdfrwt beam="2">  1        2 0.85274213E-02 0.90625014E+02</pdfrwt>
<pdfrwt beam="1">  1       -2 0.56989093E-02 0.90625014E+02</pdfrwt>
<totfact> 0.10565339E+05</totfact>
</mgrwt>
</event>
<event>
 5    1  0.6046470E+000  0.8994075E+02  0.7546771E-02  0.1302995E+00
          2   -1    0    0  501    0  0.00000000000E+00  0.00000000000E+00  0.84275222885E+02  0.84275222885E+02  0.00000000000E+00 0. -1.
         -2   -1    0    0    0  501 -0.00000000000E+00 -0.00000000000E+00 -0.23996787643E+02  0.23996787643E+02  0.00000000000E+00 0.  1.
         23    2    1    2    0    0  0.00000000000E+00  0.00000000000E+00  0.60278435243E+02  0.10827201053E+03  0.89940749988E+02 0.  0.
        -13    1    3    3    0    0  0.13573131801E+02  0.32011800173E+02 -0.41927159831E+01  0.35022337508E+02  0.00000000000E+00 0.  1.
         13    1    3    3    0    0 -0.13573131801E+02 -0.32011800173E+02  0.64471151226E+02  0.73249673020E+02  0.00000000000E+00 0. -1.
<mgrwt>
<rscale>  0 0.89940750E+02</rscale>
<asrwt>0</asrwt>
<pdfrwt beam="1">  1        2 0.12965419E-01 0.89940750E+02</pdfrwt>
<pdfrwt beam="2">  1       -2 0.36918135E-02 0.89940750E+02</pdfrwt>
<totfact> 0.12108004E+05</totfact>
</mgrwt>
</event>
<event>
 5    1  0.6046470E+000  0.9240512E+02  0.7546771E-02  0.1297130E+00
         -1   -1    0    0    0  501 -0.00000000000E+00  0.00000000000E+00  0.11164704299E+02  0.11164704299E+02  0.00000000000E+00 0.  1.
          1   -1    0    0  501    0  0.00000000000E+00 -0.00000000000E+00 -0.19119865432E+03  0.19119865432E+03  0.00000000000E+00 0. -1.
         23    2    1    2    0    0  0.00000000000E+00  0.00000000000E+00 -0.18003395002E+03  0.20236335862E+03  0.92405117561E+02 0.  0.
        -13    1    3    3    0    0  0.79998725649E+01  0.38695501911E+02 -0.37579630367E+02  0.54530435976E+02  0.00000000000E+00 0.  1.
         13    1    3    3    0    0 -0.79998725649E+01 -0.38695501911E+02 -0.14245431965E+03  0.14783292264E+03  0.00000000000E+00 0. -1.
<mgrwt>
<rscale>  0 0.92405118E+02</rscale>
<asrwt>0</asrwt>
<pdfrwt beam="2">  1        1 0.29415177E-01 0.92405118E+02</pdfrwt>
<pdfrwt beam="1">  1       -1 0.17176469E-02 0.92405118E+02</pdfrwt>
<totfact> 0.11323228E+05</totfact>
</mgrwt>
</event>
<event>
 5    1  0.6046470E+000  0.9084012E+02  0.7546771E-02  0.1300830E+00
         -1   -1    0    0    0  501 -0.00000000000E+00  0.00000000000E+00  0.89207293624E+01  0.89207293624E+01  0.00000000000E+00 0.  1.
          1   -1    0    0  501    0  0.00000000000E+00 -0.00000000000E+00 -0.23125707163E+03  0.23125707163E+03  0.00000000000E+00 0. -1.
         23    2    1    2    0    0  0.00000000000E+00  0.00000000000E+00 -0.22233634227E+03  0.24017780099E+03  0.90840117771E+02 0.  0.
        -13    1    3    3    0    0 -0.41678357726E+02 -0.33369993313E+01 -0.64260333378E+02  0.76665582324E+02  0.00000000000E+00 0.  1.
         13    1    3    3    0    0  0.41678357726E+02  0.33369993313E+01 -0.15807600889E+03  0.16351221867E+03  0.00000000000E+00 0. -1.
<mgrwt>
<rscale>  0 0.90840118E+02</rscale>
<asrwt>0</asrwt>
<pdfrwt beam="2">  1        1 0.35578005E-01 0.90840118E+02</pdfrwt>
<pdfrwt beam="1">  1       -1 0.13724201E-02 0.90840118E+02</pdfrwt>
<totfact> 0.12301559E+05</totfact>
</mgrwt>
</event>
<event>
 5    1  0.6046470E+000  0.9079391E+02  0.7546771E-02  0.1300940E+00
          2   -1    0    0  501    0  0.00000000000E+00  0.00000000000E+00  0.23019099615E+03  0.23019099615E+03  0.00000000000E+00 0. -1.
         -2   -1    0    0    0  501 -0.00000000000E+00 -0.00000000000E+00 -0.89529280247E+01  0.89529280247E+01  0.00000000000E+00 0.  1.
         23    2    1    2    0    0  0.00000000000E+00  0.00000000000E+00  0.22123806812E+03  0.23914392417E+03  0.90793907734E+02 0.  0.
        -13    1    3    3    0    0  0.25480767287E+02  0.33813919646E+02  0.15375688941E+03  0.15947987868E+03  0.00000000000E+00 0. -1.
         13    1    3    3    0    0 -0.25480767287E+02 -0.33813919646E+02  0.67481178712E+02  0.79664045489E+02  0.00000000000E+00 0.  1.
<mgrwt>
<rscale>  0 0.90793908E+02</rscale>
<asrwt>0</asrwt>
<pdfrwt beam="1">  1        2 0.35413995E-01 0.90793908E+02</pdfrwt>
<pdfrwt beam="2">  1       -2 0.13773737E-02 0.90793908E+02</pdfrwt>
<totfact> 0.16467252E+05</totfact>
</mgrwt>
</event>
<event>
 5    1  0.6046470E+000  0.9544546E+02  0.7546771E-02  0.1290176E+00
         -1   -1    0    0    0  501 -0.00000000000E+00  0.00000000000E+00  0.78946731903E+02  0.78946731903E+02  0.00000000000E+00 0.  1.
          1   -1    0    0  501    0  0.00000000000E+00 -0.00000000000E+00 -0.28848044508E+02  0.28848044508E+02  0.00000000000E+00 0. -1.
         23    2    1    2    0    0  0.00000000000E+00  0.00000000000E+00  0.50098687395E+02  0.10779477641E+03  0.95445457423E+02 0.  0.
        -13    1    3    3    0    0 -0.17270055896E+02 -0.28343322468E+02 -0.13678228743E+02  0.35898366268E+02  0.00000000000E+00 0. -1.
         13    1    3    3    0    0  0.17270055896E+02  0.28343322468E+02  0.63776916138E+02  0.71896410142E+02  0.00000000000E+00 0.  1.
<mgrwt>
<rscale>  0 0.95445457E+02</rscale>
<asrwt>0</asrwt>
<pdfrwt beam="2">  1        1 0.44381607E-02 0.95445457E+02</pdfrwt>
<pdfrwt beam="1">  1       -1 0.12145651E-01 0.95445457E+02</pdfrwt>
<totfact> 0.75454672E+04</totfact>
</mgrwt>
</event>
<event>
 5    1  0.6046470E+000  0.9314395E+02  0.7546771E-02  0.1295412E+00
          2   -1    0    0  501    0  0.00000000000E+00  0.00000000000E+00  0.53736845351E+03  0.53736845351E+03  0.00000000000E+00 0.  1.
         -2   -1    0    0    0  501 -0.00000000000E+00 -0.00000000000E+00 -0.40362415982E+01  0.40362415982E+01  0.00000000000E+00 0. -1.
         23    2    1    2    0    0  0.00000000000E+00  0.00000000000E+00  0.53333221191E+03  0.54140469511E+03  0.93143951078E+02 0.  0.
        -13    1    3    3    0    0 -0.55726208135E+01 -0.46176044815E+02  0.28050401054E+03  0.28433392543E+03  0.00000000000E+00 0.  1.
         13    1    3    3    0    0  0.55726208135E+01  0.46176044815E+02  0.25282820137E+03  0.25707076968E+03  0.00000000000E+00 0. -1.
<mgrwt>
<rscale>  0 0.93143951E+02</rscale>
<asrwt>0</asrwt>
<pdfrwt beam="1">  1        2 0.82672013E-01 0.93143951E+02</pdfrwt>
<pdfrwt beam="2">  1       -2 0.62096067E-03 0.93143951E+02</pdfrwt>
<totfact> 0.20837152E+05</totfact>
</mgrwt>
</event>
<event>
 4    1  0.6046470E+000  0.1322120E+03  0.7546771E-02  0.1224210E+00
         -2   -1    0    0    0  501 -0.00000000000E+00  0.00000000000E+00  0.24214083783E+03  0.24214083783E+03  0.00000000000E+00 0.  1.
          2   -1    0    0  501    0  0.00000000000E+00 -0.00000000000E+00 -0.18047372768E+02  0.18047372768E+02  0.00000000000E+00 0. -1.
        -13    1    1    2    0    0  0.46145012449E+02 -0.15036926293E+02  0.20037586668E+03  0.20616973413E+03  0.00000000000E+00 0.  1.
         13    1    1    2    0    0 -0.46145012449E+02  0.15036926293E+02  0.23717598382E+02  0.54018476462E+02  0.00000000000E+00 0. -1.
<mgrwt>
<rscale>  0 0.13221204E+03</rscale>
<asrwt>0</asrwt>
<pdfrwt beam="2">  1        2 0.27765191E-02 0.13221204E+03</pdfrwt>
<pdfrwt beam="1">  1       -2 0.37252434E-01 0.13221204E+03</pdfrwt>
<totfact> 0.21907064E+04</totfact>
</mgrwt>
</event>
<event>
 5    1  0.6046470E+000  0.7945609E+02  0.7546771E-02  0.1330602E+00
         -1   -1    0    0    0  501 -0.00000000000E+00  0.00000000000E+00  0.24287218477E+02  0.24287218477E+02  0.00000000000E+00 0.  1.
          1   -1    0    0  501    0  0.00000000000E+00 -0.00000000000E+00 -0.64985526352E+02  0.64985526352E+02  0.00000000000E+00 0. -1.
         23    2    1    2    0    0  0.00000000000E+00  0.00000000000E+00 -0.40698307876E+02  0.89272744829E+02  0.79456092941E+02 0.  0.
        -13    1    3    3    0    0 -0.23103005981E+02 -0.13065626713E+02  0.12864156328E+02  0.29494847089E+02  0.00000000000E+00 0.  1.
         13    1    3    3    0    0  0.23103005981E+02  0.13065626713E+02 -0.53562464203E+02  0.59777897741E+02  0.00000000000E+00 0. -1.
<mgrwt>
<rscale>  0 0.79456093E+02</rscale>
<asrwt>0</asrwt>
<pdfrwt beam="2">  1        1 0.99977731E-02 0.79456093E+02</pdfrwt>
<pdfrwt beam="1">  1       -1 0.37364952E-02 0.79456093E+02</pdfrwt>
<totfact> 0.14214648E+05</totfact>
</mgrwt>
</event>
<event>
 5    1  0.6046470E+000  0.9156417E+02  0.7546771E-02  0.1299107E+00
          1   -1    0    0  501    0  0.00000000000E+00  0.00000000000E+00  0.13375688022E+03  0.13375688022E+03  0.00000000000E+00 0. -1.
         -1   -1    0    0    0  501 -0.00000000000E+00 -0.00000000000E+00 -0.15670215865E+02  0.15670215865E+02  0.00000000000E+00 0.  1.
         23    2    1    2    0    0  0.00000000000E+00  0.00000000000E+00  0.11808666436E+03  0.14942709609E+03  0.91564167370E+02 0.  0.
        -13    1    3    3    0    0  0.34194466537E+02  0.53806018441E+01  0.10794125450E+03  0.11335575346E+03  0.00000000000E+00 0.  1.
         13    1    3    3    0    0 -0.34194466537E+02 -0.53806018441E+01  0.10145409852E+02  0.36071342629E+02  0.00000000000E+00 0. -1.
<mgrwt>
<rscale>  0 0.91564167E+02</rscale>
<asrwt>0</asrwt>
<pdfrwt beam="1">  1        1 0.20577981E-01 0.91564167E+02</pdfrwt>
<pdfrwt beam="2">  1       -1 0.24108025E-02 0.91564167E+02</pdfrwt>
<totfact> 0.10857064E+05</totfact>
</mgrwt>
</event>
<event>
 5    1  0.6046470E+000  0.8713284E+02  0.7546771E-02  0.1309947E+00
         -1   -1    0    0    0  501 -0.00000000000E+00  0.00000000000E+00  0.29751404044E+02  0.29751404044E+02  0.00000000000E+00 0.  1.
          1   -1    0    0  501    0  0.00000000000E+00 -0.00000000000E+00 -0.63796418735E+02  0.63796418735E+02  0.00000000000E+00 0. -1.
         23    2    1    2    0    0  0.00000000000E+00  0.00000000000E+00 -0.34045014691E+02  0.93547822780E+02  0.87132841808E+02 0.  0.
        -13    1    3    3    0    0 -0.35924689263E+02  0.14691237074E+02  0.42237643896E+01  0.39041720390E+02  0.00000000000E+00 0.  1.
         13    1    3    3    0    0  0.35924689263E+02 -0.14691237074E+02 -0.38268779081E+02  0.54506102390E+02  0.00000000000E+00 0. -1.
<mgrwt>
<rscale>  0 0.87132842E+02</rscale>
<asrwt>0</asrwt>
<pdfrwt beam="2">  1        1 0.98148337E-02 0.87132842E+02</pdfrwt>
<pdfrwt beam="1">  1       -1 0.45771391E-02 0.87132842E+02</pdfrwt>
<totfact> 0.11022751E+05</totfact>
</mgrwt>
</event>
<event>
 5    1  0.6046470E+000  0.8950610E+02  0.7546771E-02  0.1304052E+00
          2   -1    0    0  501    0  0.00000000000E+00  0.00000000000E+00  0.85808515061E+01  0.85808515061E+01  0.00000000000E+00 0.  1.
         -2   -1    0    0    0  501 -0.00000000000E+00 -0.00000000000E+00 -0.23340756171E+03  0.23340756171E+03  0.00000000000E+00 0. -1.
         23    2    1    2    0    0  0.00000000000E+00  0.00000000000E+00 -0.22482671021E+03  0.24198841322E+03  0.89506103199E+02 0.  0.
        -13    1    3    3    0    0  0.30157595285E+02 -0.12755463332E+02 -0.29935783341E+02  0.44365904954E+02  0.00000000000E+00 0.  1.
         13    1    3    3    0    0 -0.30157595285E+02  0.12755463332E+02 -0.19489092687E+03  0.19762250826E+03  0.00000000000E+00 0. -1.
<mgrwt>
<rscale>  0 0.89506103E+02</rscale>
<asrwt>0</asrwt>
<pdfrwt beam="1">  1        2 0.13201310E-02 0.89506103E+02</pdfrwt>
<pdfrwt beam="2">  1       -2 0.35908856E-01 0.89506103E+02</pdfrwt>
<totfact> 0.60908981E+04</totfact>
</mgrwt>
</event>
<event>
 5    1  0.6046470E+000  0.9157081E+02  0.7546771E-02  0.1299092E+00
         -1   -1    0    0    0  501 -0.00000000000E+00  0.00000000000E+00  0.17148846207E+03  0.17148846207E+03  0.00000000000E+00 0.  1.
          1   -1    0    0  501    0  0.00000000000E+00 -0.00000000000E+00 -0.12224165511E+02  0.12224165511E+02  0.00000000000E+00 0. -1.
         23    2    1    2    0    0  0.00000000000E+00  0.00000000000E+00  0.15926429655E+03  0.18371262758E+03  0.91570810708E+02 0.  0.
        -13    1    3    3    0    0  0.11336783712E+02  0.44356857856E+02  0.80634944418E+02  0.92725658612E+02  0.00000000000E+00 0. -1.
         13    1    3    3    0    0 -0.11336783712E+02 -0.44356857856E+02  0.78629352137E+02  0.90986968964E+02  0.00000000000E+00 0.  1.
<mgrwt>
<rscale>  0 0.91570811E+02</rscale>
<asrwt>0</asrwt>
<pdfrwt beam="2">  1        1 0.18806410E-02 0.91570811E+02</pdfrwt>
<pdfrwt beam="1">  1       -1 0.26382839E-01 0.91570811E+02</pdfrwt>
<totfact> 0.71569367E+04</totfact>
</mgrwt>
</event>
<event>
 5    1  0.6046470E+000  0.9032750E+02  0.7546771E-02  0.1302061E+00
         -1   -1    0    0    0  501 -0.00000000000E+00  0.00000000000E+00  0.68255902318E+02  0.68255902318E+02  0.00000000000E+00 0.  1.
          1   -1    0    0  501    0  0.00000000000E+00 -0.00000000000E+00 -0.29884074181E+02  0.29884074181E+02  0.00000000000E+00 0. -1.
         23    2    1    2    0    0  0.00000000000E+00  0.00000000000E+00  0.38371828137E+02  0.98139976499E+02  0.90327502970E+02 0.  0.
        -13    1    3    3    0    0 -0.92781539714E+01 -0.25016541620E+02 -0.20405493001E+02  0.33590112241E+02  0.00000000000E+00 0. -1.
         13    1    3    3    0    0  0.92781539714E+01  0.25016541620E+02  0.58777321137E+02  0.64549864259E+02  0.00000000000E+00 0.  1.
<mgrwt>
<rscale>  0 0.90327503E+02</rscale>
<asrwt>0</asrwt>
<pdfrwt beam="2">  1        1 0.45975499E-02 0.90327503E+02</pdfrwt>
<pdfrwt beam="1">  1       -1 0.10500908E-01 0.90327503E+02</pdfrwt>
<totfact> 0.88986542E+04</totfact>
</mgrwt>
</event>
<event>
 5    1  0.6046470E+000  0.9013533E+02  0.7546771E-02  0.1302524E+00
          1   -1    0    0  501    0  0.00000000000E+00  0.00000000000E+00  0.13739521137E+03  0.13739521137E+03  0.00000000000E+00 0. -1.
         -1   -1    0    0    0  501 -0.00000000000E+00 -0.00000000000E+00 -0.14782862944E+02  0.14782862944E+02  0.00000000000E+00 0.  1.
         23    2    1    2    0    0  0.00000000000E+00  0.00000000000E+00  0.12261234843E+03  0.15217807432E+03  0.90135333337E+02 0.  0.
        -13    1    3    3    0    0 -0.23837340766E+02  0.23187243897E+02  0.99513463698E+01  0.34711617491E+02  0.00000000000E+00 0.  1.
         13    1    3    3    0    0  0.23837340766E+02 -0.23187243897E+02  0.11266100206E+03  0.11746645683E+03  0.00000000000E+00 0. -1.
<mgrwt>
<rscale>  0 0.90135333E+02</rscale>
<asrwt>0</asrwt>
<pdfrwt beam="1">  1        1 0.21137724E-01 0.90135333E+02</pdfrwt>
<pdfrwt beam="2">  1       -1 0.22742867E-02 0.90135333E+02</pdfrwt>
<totfact> 0.11383125E+05</totfact>
</mgrwt>
</event>
<event>
 5    1  0.6046470E+000  0.9265385E+02  0.7546771E-02  0.1296549E+00
         -3   -1    0    0    0  501 -0.00000000000E+00  0.00000000000E+00  0.10646345992E+03  0.10646345992E+03  0.00000000000E+00 0. -1.
          3   -1    0    0  501    0  0.00000000000E+00 -0.00000000000E+00 -0.20158880682E+02  0.20158880682E+02  0.00000000000E+00 0.  1.
         23    2    1    2    0    0  0.00000000000E+00  0.00000000000E+00  0.86304579235E+02  0.12662234060E+03  0.92653854436E+02 0.  0.
        -13    1    3    3    0    0 -0.26131563988E+02  0.36393834654E+02  0.59253703937E+02  0.74285740675E+02  0.00000000000E+00 0. -1.
         13    1    3    3    0    0  0.26131563988E+02 -0.36393834654E+02  0.27050875298E+02  0.52336599925E+02  0.00000000000E+00 0.  1.
<mgrwt>
<rscale>  0 0.92653854E+02</rscale>
<asrwt>0</asrwt>
<pdfrwt beam="2">  1        3 0.31013663E-02 0.92653854E+02</pdfrwt>
<pdfrwt beam="1">  1       -3 0.16378994E-01 0.92653854E+02</pdfrwt>
<totfact> 0.31397652E+04</totfact>
</mgrwt>
</event>
<event>
 5    1  0.6046470E+000  0.8177399E+02  0.7546771E-02  0.1324091E+00
          3   -1    0    0  501    0  0.00000000000E+00  0.00000000000E+00  0.40330802411E+03  0.40330802411E+03  0.00000000000E+00 0. -1.
         -3   -1    0    0    0  501 -0.00000000000E+00 -0.00000000000E+00 -0.41450853817E+01  0.41450853817E+01  0.00000000000E+00 0.  1.
         23    2    1    2    0    0  0.00000000000E+00  0.00000000000E+00  0.39916293873E+03  0.40745310949E+03  0.81773985963E+02 0.  0.
        -13    1    3    3    0    0 -0.12072257430E+01  0.40228936926E+02  0.16367804997E+03  0.16855363776E+03  0.00000000000E+00 0.  1.
         13    1    3    3    0    0  0.12072257430E+01 -0.40228936926E+02  0.23548488876E+03  0.23889947174E+03  0.00000000000E+00 0. -1.
<mgrwt>
<rscale>  0 0.81773986E+02</rscale>
<asrwt>0</asrwt>
<pdfrwt beam="1">  1        3 0.62047357E-01 0.81773986E+02</pdfrwt>
<pdfrwt beam="2">  1       -3 0.63770576E-03 0.81773986E+02</pdfrwt>
<totfact> 0.27224793E+04</totfact>
</mgrwt>
</event>
<event>
 5    1  0.6046470E+000  0.9202486E+02  0.7546771E-02  0.1298021E+00
          4   -1    0    0  501    0  0.00000000000E+00  0.00000000000E+00  0.77144830635E+02  0.77144830635E+02  0.00000000000E+00 0. -1.
         -4   -1    0    0    0  501 -0.00000000000E+00 -0.00000000000E+00 -0.27443754925E+02  0.27443754925E+02  0.00000000000E+00 0.  1.
         23    2    1    2    0    0  0.00000000000E+00  0.00000000000E+00  0.49701075711E+02  0.10458858556E+03  0.92024862416E+02 0.  0.
        -13    1    3    3    0    0 -0.26704697151E+02  0.35837098385E+02  0.12415820947E+02  0.46385246365E+02  0.00000000000E+00 0.  1.
         13    1    3    3    0    0  0.26704697151E+02 -0.35837098385E+02  0.37285254764E+02  0.58203339195E+02  0.00000000000E+00 0. -1.
<mgrwt>
<rscale>  0 0.92024862E+02</rscale>
<asrwt>0</asrwt>
<pdfrwt beam="1">  1        4 0.11868435E-01 0.92024862E+02</pdfrwt>
<pdfrwt beam="2">  1       -4 0.42221162E-02 0.92024862E+02</pdfrwt>
<totfact> 0.25527477E+04</totfact>
</mgrwt>
</event>
<event>
 5    1  0.6046470E+000  0.9529664E+02  0.7546771E-02  0.1290509E+00
         -1   -1    0    0    0  501 -0.00000000000E+00  0.00000000000E+00  0.20141124991E+02  0.20141124991E+02  0.00000000000E+00 0.  1.
          1   -1    0    0  501    0  0.00000000000E+00 -0.00000000000E+00 -0.11272270936E+03  0.11272270936E+03  0.00000000000E+00 0. -1.
         23    2    1    2    0    0  0.00000000000E+00  0.00000000000E+00 -0.92581584368E+02  0.13286383435E+03  0.95296635375E+02 0.  0.
        -13    1    3    3    0    0  0.16742389956E+02 -0.43813544032E+02 -0.34590367259E+02  0.58278879272E+02  0.00000000000E+00 0.  1.
         13    1    3    3    0    0 -0.16742389956E+02  0.43813544032E+02 -0.57991217109E+02  0.74584955077E+02  0.00000000000E+00 0. -1.
<mgrwt>
<rscale>  0 0.95296635E+02</rscale>
<asrwt>0</asrwt>
<pdfrwt beam="2">  1        1 0.17341955E-01 0.95296635E+02</pdfrwt>
<pdfrwt beam="1">  1       -1 0.30986347E-02 0.95296635E+02</pdfrwt>
<totfact> 0.94483466E+04</totfact>
</mgrwt>
</event>
<event>
 5    1  0.6046470E+000  0.9253694E+02  0.7546771E-02  0.1296822E+00
          2   -1    0    0  501    0  0.00000000000E+00  0.00000000000E+00  0.19877455354E+03  0.19877455354E+03  0.00000000000E+00 0. -1.
         -2   -1    0    0    0  501 -0.00000000000E+00 -0.00000000000E+00 -0.10769846245E+02  0.10769846245E+02  0.00000000000E+00 0.  1.
         23    2    1    2    0    0  0.00000000000E+00  0.00000000000E+00  0.18800470729E+03  0.20954439979E+03  0.92536941361E+02 0.  0.
        -13    1    3    3    0    0 -0.14661977598E+02 -0.41862198425E+02  0.64187819996E+02  0.78022390888E+02  0.00000000000E+00 0.  1.
         13    1    3    3    0    0  0.14661977598E+02  0.41862198425E+02  0.12381688730E+03  0.13152200890E+03  0.00000000000E+00 0. -1.
<mgrwt>
<rscale>  0 0.92536941E+02</rscale>
<asrwt>0</asrwt>
<pdfrwt beam="1">  1        2 0.30580698E-01 0.92536941E+02</pdfrwt>
<pdfrwt beam="2">  1       -2 0.16568996E-02 0.92536941E+02</pdfrwt>
<totfact> 0.14829398E+05</totfact>
</mgrwt>
</event>
<event>
 5    1  0.6046470E+000  0.9238667E+02  0.7546771E-02  0.1297173E+00
          2   -1    0    0  501    0  0.00000000000E+00  0.00000000000E+00  0.58641115939E+02  0.58641115939E+02  0.00000000000E+00 0. -1.
         -2   -1    0    0    0  501 -0.00000000000E+00 -0.00000000000E+00 -0.36387852880E+02  0.36387852880E+02  0.00000000000E+00 0.  1.
         23    2    1    2    0    0  0.00000000000E+00  0.00000000000E+00  0.22253263060E+02  0.95028968819E+02  0.92386672188E+02 0.  0.
        -13    1    3    3    0    0 -0.31227633342E+02  0.24684619418E+02 -0.12981462074E+02  0.41869008556E+02  0.00000000000E+00 0.  1.
         13    1    3    3    0    0  0.31227633342E+02 -0.24684619418E+02  0.35234725133E+02  0.53159960263E+02  0.00000000000E+00 0. -1.
<mgrwt>
<rscale>  0 0.92386672E+02</rscale>
<asrwt>0</asrwt>
<pdfrwt beam="1">  1        2 0.90217102E-02 0.92386672E+02</pdfrwt>
<pdfrwt beam="2">  1       -2 0.55981312E-02 0.92386672E+02</pdfrwt>
<totfact> 0.10155995E+05</totfact>
</mgrwt>
</event>
<event>
 5    1  0.6046470E+000  0.8893653E+02  0.7546771E-02  0.1305448E+00
         -1   -1    0    0    0  501 -0.00000000000E+00  0.00000000000E+00  0.51460793753E+01  0.51460793753E+01  0.00000000000E+00 0.  1.
          1   -1    0    0  501    0  0.00000000000E+00 -0.00000000000E+00 -0.38425888917E+03  0.38425888917E+03  0.00000000000E+00 0. -1.
         23    2    1    2    0    0  0.00000000000E+00  0.00000000000E+00 -0.37911280979E+03  0.38940496854E+03  0.88936533423E+02 0.  0.
        -13    1    3    3    0    0  0.22058428003E+02 -0.37391029776E+02 -0.14738582255E+03  0.15364649050E+03  0.00000000000E+00 0.  1.
         13    1    3    3    0    0 -0.22058428003E+02  0.37391029776E+02 -0.23172698724E+03  0.23575847804E+03  0.00000000000E+00 0. -1.
<mgrwt>
<rscale>  0 0.88936533E+02</rscale>
<asrwt>0</asrwt>
<pdfrwt beam="2">  1        1 0.59116763E-01 0.88936533E+02</pdfrwt>
<pdfrwt beam="1">  1       -1 0.79170437E-03 0.88936533E+02</pdfrwt>
<totfact> 0.14313024E+05</totfact>
</mgrwt>
</event>
<event>
 5    1  0.6046470E+000  0.9145894E+02  0.7546771E-02  0.1299357E+00
          3   -1    0    0  501    0  0.00000000000E+00  0.00000000000E+00  0.18528068699E+03  0.18528068699E+03  0.00000000000E+00 0. -1.
         -3   -1    0    0    0  501 -0.00000000000E+00 -0.00000000000E+00 -0.11286574827E+02  0.11286574827E+02  0.00000000000E+00 0.  1.
         23    2    1    2    0    0  0.00000000000E+00  0.00000000000E+00  0.17399411216E+03  0.19656726182E+03  0.91458938058E+02 0.  0.
        -13    1    3    3    0    0  0.16906110446E+02  0.21878483828E+02  0.87133547958E+01  0.28989777109E+02  0.00000000000E+00 0.  1.
         13    1    3    3    0    0 -0.16906110446E+02 -0.21878483828E+02  0.16528075737E+03  0.16757748471E+03  0.00000000000E+00 0. -1.
<mgrwt>
<rscale>  0 0.91458938E+02</rscale>
<asrwt>0</asrwt>
<pdfrwt beam="1">  1        3 0.28504719E-01 0.91458938E+02</pdfrwt>
<pdfrwt beam="2">  1       -3 0.17363963E-02 0.91458938E+02</pdfrwt>
<totfact> 0.28438534E+04</totfact>
</mgrwt>
</event>
<event>
 5    1  0.6046470E+000  0.9011472E+02  0.7546771E-02  0.1302574E+00
         -2   -1    0    0    0  501 -0.00000000000E+00  0.00000000000E+00  0.16303515986E+02  0.16303515986E+02  0.00000000000E+00 0.  1.
          2   -1    0    0  501    0  0.00000000000E+00 -0.00000000000E+00 -0.12452318146E+03  0.12452318146E+03  0.00000000000E+00 0. -1.
         23    2    1    2    0    0  0.00000000000E+00  0.00000000000E+00 -0.10821966547E+03  0.14082669744E+03  0.90114719764E+02 0.  0.
        -13    1    3    3    0    0 -0.10894526286E+02  0.34842798066E+02 -0.12838626022E+02  0.38698082617E+02  0.00000000000E+00 0. -1.
         13    1    3    3    0    0  0.10894526286E+02 -0.34842798066E+02 -0.95381039446E+02  0.10212861482E+03  0.00000000000E+00 0.  1.
<mgrwt>
<rscale>  0 0.90114720E+02</rscale>
<asrwt>0</asrwt>
<pdfrwt beam="2">  1        2 0.19157413E-01 0.90114720E+02</pdfrwt>
<pdfrwt beam="1">  1       -2 0.25082332E-02 0.90114720E+02</pdfrwt>
<totfact> 0.13568866E+05</totfact>
</mgrwt>
</event>
<event>
 5    1  0.6046470E+000  0.9180528E+02  0.7546771E-02  0.1298538E+00
          1   -1    0    0  501    0  0.00000000000E+00  0.00000000000E+00  0.45318402443E+01  0.45318402443E+01  0.00000000000E+00 0. -1.
         -1   -1    0    0    0  501 -0.00000000000E+00 -0.00000000000E+00 -0.46494405386E+03  0.46494405386E+03  0.00000000000E+00 0.  1.
         23    2    1    2    0    0  0.00000000000E+00  0.00000000000E+00 -0.46041221362E+03  0.46947589411E+03  0.91805275984E+02 0.  0.
        -13    1    3    3    0    0 -0.22639869673E+02 -0.39914668758E+02 -0.22435822375E+03  0.22900296296E+03  0.00000000000E+00 0.  1.
         13    1    3    3    0    0  0.22639869673E+02  0.39914668758E+02 -0.23605398987E+03  0.24047293115E+03  0.00000000000E+00 0. -1.
<mgrwt>
<rscale>  0 0.91805276E+02</rscale>
<asrwt>0</asrwt>
<pdfrwt beam="1">  1        1 0.69720596E-03 0.91805276E+02</pdfrwt>
<pdfrwt beam="2">  1       -1 0.71529878E-01 0.91805276E+02</pdfrwt>
<totfact> 0.48251149E+04</totfact>
</mgrwt>
</event>
<event>
 5    1  0.6046470E+000  0.9115656E+02  0.7546771E-02  0.1300075E+00
          1   -1    0    0  501    0  0.00000000000E+00  0.00000000000E+00  0.20750044872E+02  0.20750044872E+02  0.00000000000E+00 0. -1.
         -1   -1    0    0    0  501 -0.00000000000E+00 -0.00000000000E+00 -0.10011447108E+03  0.10011447108E+03  0.00000000000E+00 0.  1.
         23    2    1    2    0    0  0.00000000000E+00  0.00000000000E+00 -0.79364426205E+02  0.12086451595E+03  0.91156563498E+02 0.  0.
        -13    1    3    3    0    0 -0.98301121657E+01  0.37939360145E+02 -0.70531944907E+02  0.80689413220E+02  0.00000000000E+00 0.  1.
         13    1    3    3    0    0  0.98301121657E+01 -0.37939360145E+02 -0.88324812971E+01  0.40175102729E+02  0.00000000000E+00 0. -1.
<mgrwt>
<rscale>  0 0.91156563E+02</rscale>
<asrwt>0</asrwt>
<pdfrwt beam="1">  1        1 0.31923147E-02 0.91156563E+02</pdfrwt>
<pdfrwt beam="2">  1       -1 0.15402226E-01 0.91156563E+02</pdfrwt>
<totfact> 0.81399929E+04</totfact>
</mgrwt>
</event>
<event>
 5    1  0.6046470E+000  0.9248784E+02  0.7546771E-02  0.1296936E+00
         -1   -1    0    0    0  501 -0.00000000000E+00  0.00000000000E+00  0.40200418094E+02  0.40200418094E+02  0.00000000000E+00 0.  1.
          1   -1    0    0  501    0  0.00000000000E+00 -0.00000000000E+00 -0.53195972857E+02  0.53195972857E+02  0.00000000000E+00 0. -1.
         23    2    1    2    0    0  0.00000000000E+00  0.00000000000E+00 -0.12995554763E+02  0.93396390951E+02  0.92487844602E+02 0.  0.
        -13    1    3    3    0    0  0.18488353385E+02 -0.46853210716E+01  0.36043590224E+02  0.40778816078E+02  0.00000000000E+00 0.  1.
         13    1    3    3    0    0 -0.18488353385E+02  0.46853210716E+01 -0.49039144988E+02  0.52617574873E+02  0.00000000000E+00 0. -1.
<mgrwt>
<rscale>  0 0.92487845E+02</rscale>
<asrwt>0</asrwt>
<pdfrwt beam="2">  1        1 0.81839957E-02 0.92487845E+02</pdfrwt>
<pdfrwt beam="1">  1       -1 0.61846798E-02 0.92487845E+02</pdfrwt>
<totfact> 0.90940137E+04</totfact>
</mgrwt>
</event>
<event>
 5    1  0.6046470E+000  0.9056312E+02  0.7546771E-02  0.1301494E+00
          2   -1    0    0  501    0  0.00000000000E+00  0.00000000000E+00  0.23769184966E+03  0.23769184966E+03  0.00000000000E+00 0. -1.
         -2   -1    0    0    0  501 -0.00000000000E+00 -0.00000000000E+00 -0.86263784239E+01  0.86263784239E+01  0.00000000000E+00 0.  1.
         23    2    1    2    0    0  0.00000000000E+00  0.00000000000E+00  0.22906547124E+03  0.24631822808E+03  0.90563123697E+02 0.  0.
        -13    1    3    3    0    0 -0.40642324374E+02 -0.18749851248E+01  0.60469525465E+02  0.72882628999E+02  0.00000000000E+00 0.  1.
         13    1    3    3    0    0  0.40642324374E+02  0.18749851248E+01  0.16859594577E+03  0.17343559909E+03  0.00000000000E+00 0. -1.
<mgrwt>
<rscale>  0 0.90563124E+02</rscale>
<asrwt>0</asrwt>
<pdfrwt beam="1">  1        2 0.36567972E-01 0.90563124E+02</pdfrwt>
<pdfrwt beam="2">  1       -2 0.13271353E-02 0.90563124E+02</pdfrwt>
<totfact> 0.16776655E+05</totfact>
</mgrwt>
</event>
<event>
 5    1  0.6046470E+000  0.8946437E+02  0.7546771E-02  0.1304154E+00
          2   -1    0    0  501    0  0.00000000000E+00  0.00000000000E+00  0.17620495178E+02  0.17620495178E+02  0.00000000000E+00 0. -1.
         -2   -1    0    0    0  501 -0.00000000000E+00 -0.00000000000E+00 -0.11355914209E+03  0.11355914209E+03  0.00000000000E+00 0.  1.
         23    2    1    2    0    0  0.00000000000E+00  0.00000000000E+00 -0.95938646907E+02  0.13117963726E+03  0.89464368674E+02 0.  0.
        -13    1    3    3    0    0  0.23366974745E+02 -0.30446739688E+02 -0.81660195155E+02  0.90229745312E+02  0.00000000000E+00 0.  1.
         13    1    3    3    0    0 -0.23366974745E+02  0.30446739688E+02 -0.14278451752E+02  0.40949891951E+02  0.00000000000E+00 0. -1.
<mgrwt>
<rscale>  0 0.89464369E+02</rscale>
<asrwt>0</asrwt>
<pdfrwt beam="1">  1        2 0.27108454E-02 0.89464369E+02</pdfrwt>
<pdfrwt beam="2">  1       -2 0.17470637E-01 0.89464369E+02</pdfrwt>
<totfact> 0.80484581E+04</totfact>
</mgrwt>
</event>
<event>
 5    1  0.6046470E+000  0.9034985E+02  0.7546771E-02  0.1302007E+00
          2   -1    0    0  501    0  0.00000000000E+00  0.00000000000E+00  0.14467312749E+03  0.14467312749E+03  0.00000000000E+00 0.  1.
         -2   -1    0    0    0  501 -0.00000000000E+00 -0.00000000000E+00 -0.14106100176E+02  0.14106100176E+02  0.00000000000E+00 0. -1.
         23    2    1    2    0    0  0.00000000000E+00  0.00000000000E+00  0.13056702732E+03  0.15877922767E+03  0.90349845139E+02 0.  0.
        -13    1    3    3    0    0 -0.28393964611E+02 -0.23563344200E+02  0.11108769648E+03  0.11705522084E+03  0.00000000000E+00 0.  1.
         13    1    3    3    0    0  0.28393964611E+02  0.23563344200E+02  0.19479330840E+02  0.41724006833E+02  0.00000000000E+00 0. -1.
<mgrwt>
<rscale>  0 0.90349845E+02</rscale>
<asrwt>0</asrwt>
<pdfrwt beam="1">  1        2 0.22257403E-01 0.90349845E+02</pdfrwt>
<pdfrwt beam="2">  1       -2 0.21701694E-02 0.90349845E+02</pdfrwt>
<totfact> 0.14156583E+05</totfact>
</mgrwt>
</event>
<event>
 5    1  0.6046470E+000  0.9095128E+02  0.7546771E-02  0.1300564E+00
         -2   -1    0    0    0  501 -0.00000000000E+00  0.00000000000E+00  0.58003422055E+02  0.58003422055E+02  0.00000000000E+00 0.  1.
          2   -1    0    0  501    0  0.00000000000E+00 -0.00000000000E+00 -0.35653654217E+02  0.35653654217E+02  0.00000000000E+00 0. -1.
         23    2    1    2    0    0  0.00000000000E+00  0.00000000000E+00  0.22349767838E+02  0.93657076272E+02  0.90951282638E+02 0.  0.
        -13    1    3    3    0    0 -0.83642659402E+00  0.17698230782E+02  0.54302932231E+02  0.57120359165E+02  0.00000000000E+00 0.  1.
         13    1    3    3    0    0  0.83642659402E+00 -0.17698230782E+02 -0.31953164393E+02  0.36536717107E+02  0.00000000000E+00 0. -1.
<mgrwt>
<rscale>  0 0.90951283E+02</rscale>
<asrwt>0</asrwt>
<pdfrwt beam="2">  1        2 0.54851776E-02 0.90951283E+02</pdfrwt>
<pdfrwt beam="1">  1       -2 0.89236034E-02 0.90951283E+02</pdfrwt>
<totfact> 0.93256646E+04</totfact>
</mgrwt>
</event>
<event>
 5    1  0.6046470E+000  0.8776414E+02  0.7546771E-02  0.1308358E+00
          1   -1    0    0  501    0  0.00000000000E+00  0.00000000000E+00  0.48912883018E+02  0.48912883018E+02  0.00000000000E+00 0. -1.
         -1   -1    0    0    0  501 -0.00000000000E+00 -0.00000000000E+00 -0.39368689919E+02  0.39368689919E+02  0.00000000000E+00 0.  1.
         23    2    1    2    0    0  0.00000000000E+00  0.00000000000E+00  0.95441930989E+01  0.88281572936E+02  0.87764141300E+02 0.  0.
        -13    1    3    3    0    0 -0.30170983376E+02 -0.29367843489E+02 -0.76651705566E+01  0.42796183343E+02  0.00000000000E+00 0. -1.
         13    1    3    3    0    0  0.30170983376E+02  0.29367843489E+02  0.17209363656E+02  0.45485389593E+02  0.00000000000E+00 0.  1.
<mgrwt>
<rscale>  0 0.87764141E+02</rscale>
<asrwt>0</asrwt>
<pdfrwt beam="1">  1        1 0.75250589E-02 0.87764141E+02</pdfrwt>
<pdfrwt beam="2">  1       -1 0.60567216E-02 0.87764141E+02</pdfrwt>
<totfact> 0.10393844E+05</totfact>
</mgrwt>
</event>
<event>
 5    1  0.6046470E+000  0.9815298E+02  0.7546771E-02  0.1284229E+00
          1   -1    0    0  501    0  0.00000000000E+00  0.00000000000E+00  0.53486476659E+02  0.53486476659E+02  0.00000000000E+00 0. -1.
         -1   -1    0    0    0  501 -0.00000000000E+00 -0.00000000000E+00 -0.45030104649E+02  0.45030104649E+02  0.00000000000E+00 0.  1.
         23    2    1    2    0    0  0.00000000000E+00  0.00000000000E+00  0.84563720095E+01  0.98516581308E+02  0.98152975325E+02 0.  0.
        -13    1    3    3    0    0  0.36209949461E+02  0.84283939716E+01 -0.27926460727E+02  0.46498230865E+02  0.00000000000E+00 0.  1.
         13    1    3    3    0    0 -0.36209949461E+02 -0.84283939716E+01  0.36382832736E+02  0.52018350443E+02  0.00000000000E+00 0. -1.
<mgrwt>
<rscale>  0 0.98152975E+02</rscale>
<asrwt>0</asrwt>
<pdfrwt beam="1">  1        1 0.82286887E-02 0.98152975E+02</pdfrwt>
<pdfrwt beam="2">  1       -1 0.69277084E-02 0.98152975E+02</pdfrwt>
<totfact> 0.77019851E+04</totfact>
</mgrwt>
</event>
<event>
 5    1  0.6046470E+000  0.9042296E+02  0.7546771E-02  0.1301831E+00
          4   -1    0    0  501    0  0.00000000000E+00  0.00000000000E+00  0.53424120097E+01  0.53424120097E+01  0.00000000000E+00 0. -1.
         -4   -1    0    0    0  501 -0.00000000000E+00 -0.00000000000E+00 -0.38261329181E+03  0.38261329181E+03  0.00000000000E+00 0.  1.
         23    2    1    2    0    0  0.00000000000E+00  0.00000000000E+00 -0.37727087980E+03  0.38795570382E+03  0.90422958262E+02 0.  0.
        -13    1    3    3    0    0 -0.33554995550E+01 -0.44197381239E+02 -0.22686866358E+03  0.23115808097E+03  0.00000000000E+00 0.  1.
         13    1    3    3    0    0  0.33554995550E+01  0.44197381239E+02 -0.15040221622E+03  0.15679762285E+03  0.00000000000E+00 0. -1.
<mgrwt>
<rscale>  0 0.90422958E+02</rscale>
<asrwt>0</asrwt>
<pdfrwt beam="1">  1        4 0.82190960E-03 0.90422958E+02</pdfrwt>
<pdfrwt beam="2">  1       -4 0.58863579E-01 0.90422958E+02</pdfrwt>
<totfact> 0.15778293E+04</totfact>
</mgrwt>
</event>
<event>
 5    1  0.6046470E+000  0.9088478E+02  0.7546771E-02  0.1300723E+00
          1   -1    0    0  501    0  0.00000000000E+00  0.00000000000E+00  0.15579576322E+02  0.15579576322E+02  0.00000000000E+00 0. -1.
         -1   -1    0    0    0  501 -0.00000000000E+00 -0.00000000000E+00 -0.13254602133E+03  0.13254602133E+03  0.00000000000E+00 0.  1.
         23    2    1    2    0    0  0.00000000000E+00  0.00000000000E+00 -0.11696644501E+03  0.14812559765E+03  0.90884781026E+02 0.  0.
        -13    1    3    3    0    0 -0.33917720765E+02  0.27895375850E+02 -0.39445233429E+02  0.59029570691E+02  0.00000000000E+00 0. -1.
         13    1    3    3    0    0  0.33917720765E+02 -0.27895375850E+02 -0.77521211582E+02  0.89096026964E+02  0.00000000000E+00 0.  1.
<mgrwt>
<rscale>  0 0.90884781E+02</rscale>
<asrwt>0</asrwt>
<pdfrwt beam="1">  1        1 0.23968578E-02 0.90884781E+02</pdfrwt>
<pdfrwt beam="2">  1       -1 0.20391697E-01 0.90884781E+02</pdfrwt>
<totfact> 0.77544083E+04</totfact>
</mgrwt>
</event>
<event>
 5    1  0.6046470E+000  0.8889901E+02  0.7546771E-02  0.1305540E+00
         -1   -1    0    0    0  501 -0.00000000000E+00  0.00000000000E+00  0.19996342932E+02  0.19996342932E+02  0.00000000000E+00 0.  1.
          1   -1    0    0  501    0  0.00000000000E+00 -0.00000000000E+00 -0.98805980928E+02  0.98805980928E+02  0.00000000000E+00 0. -1.
         23    2    1    2    0    0  0.00000000000E+00  0.00000000000E+00 -0.78809637996E+02  0.11880232386E+03  0.88899005131E+02 0.  0.
        -13    1    3    3    0    0 -0.20653468103E+02 -0.17798738988E+02  0.75092849712E+01  0.28279855287E+02  0.00000000000E+00 0.  1.
         13    1    3    3    0    0  0.20653468103E+02  0.17798738988E+02 -0.86318922968E+02  0.90522468573E+02  0.00000000000E+00 0. -1.
<mgrwt>
<rscale>  0 0.88899005E+02</rscale>
<asrwt>0</asrwt>
<pdfrwt beam="2">  1        1 0.15200920E-01 0.88899005E+02</pdfrwt>
<pdfrwt beam="1">  1       -1 0.30763604E-02 0.88899005E+02</pdfrwt>
<totfact> 0.11167084E+05</totfact>
</mgrwt>
</event>
<event>
 5    1  0.6046470E+000  0.9210572E+02  0.7546771E-02  0.1297831E+00
          2   -1    0    0  501    0  0.00000000000E+00  0.00000000000E+00  0.24517907109E+03  0.24517907109E+03  0.00000000000E+00 0. -1.
         -2   -1    0    0    0  501 -0.00000000000E+00 -0.00000000000E+00 -0.86502725254E+01  0.86502725254E+01  0.00000000000E+00 0.  1.
         23    2    1    2    0    0  0.00000000000E+00  0.00000000000E+00  0.23652879857E+03  0.25382934362E+03  0.92105717140E+02 0.  0.
        -13    1    3    3    0    0 -0.20336012292E+02 -0.34743096006E+02  0.17990118185E+03  0.18435040371E+03  0.00000000000E+00 0. -1.
         13    1    3    3    0    0  0.20336012292E+02  0.34743096006E+02  0.56627616719E+02  0.69478939912E+02  0.00000000000E+00 0.  1.
<mgrwt>
<rscale>  0 0.92105717E+02</rscale>
<asrwt>0</asrwt>
<pdfrwt beam="1">  1        2 0.37719852E-01 0.92105717E+02</pdfrwt>
<pdfrwt beam="2">  1       -2 0.13308113E-02 0.92105717E+02</pdfrwt>
<totfact> 0.16218527E+05</totfact>
</mgrwt>
</event>
<event>
 5    1  0.6046470E+000  0.9109743E+02  0.7546771E-02  0.1300216E+00
          1   -1    0    0  501    0  0.00000000000E+00  0.00000000000E+00  0.58077632496E+02  0.58077632496E+02  0.00000000000E+00 0. -1.
         -1   -1    0    0    0  501 -0.00000000000E+00 -0.00000000000E+00 -0.35722620933E+02  0.35722620933E+02  0.00000000000E+00 0.  1.
         23    2    1    2    0    0  0.00000000000E+00  0.00000000000E+00  0.22355011563E+02  0.93800253429E+02  0.91097425877E+02 0.  0.
        -13    1    3    3    0    0  0.29222823083E+02  0.10528761819E+02  0.45480452298E+02  0.55075400640E+02  0.00000000000E+00 0. -1.
         13    1    3    3    0    0 -0.29222823083E+02 -0.10528761819E+02 -0.23125440735E+02  0.38724852790E+02  0.00000000000E+00 0.  1.
<mgrwt>
<rscale>  0 0.91097426E+02</rscale>
<asrwt>0</asrwt>
<pdfrwt beam="1">  1        1 0.89350204E-02 0.91097426E+02</pdfrwt>
<pdfrwt beam="2">  1       -1 0.54957878E-02 0.91097426E+02</pdfrwt>
<totfact> 0.96130760E+04</totfact>
</mgrwt>
</event>
<event>
 5    1  0.6046470E+000  0.9037345E+02  0.7546771E-02  0.1301950E+00
          2   -1    0    0  501    0  0.00000000000E+00  0.00000000000E+00  0.18952031459E+03  0.18952031459E+03  0.00000000000E+00 0. -1.
         -2   -1    0    0    0  501 -0.00000000000E+00 -0.00000000000E+00 -0.10773727586E+02  0.10773727586E+02  0.00000000000E+00 0.  1.
         23    2    1    2    0    0  0.00000000000E+00  0.00000000000E+00  0.17874658700E+03  0.20029404218E+03  0.90373452770E+02 0.  0.
        -13    1    3    3    0    0  0.39263720705E+02 -0.20168304950E+02  0.11079694339E+03  0.11926593375E+03  0.00000000000E+00 0. -1.
         13    1    3    3    0    0 -0.39263720705E+02  0.20168304950E+02  0.67949643609E+02  0.81028108424E+02  0.00000000000E+00 0.  1.
<mgrwt>
<rscale>  0 0.90373453E+02</rscale>
<asrwt>0</asrwt>
<pdfrwt beam="1">  1        2 0.29156969E-01 0.90373453E+02</pdfrwt>
<pdfrwt beam="2">  1       -2 0.16574967E-02 0.90373453E+02</pdfrwt>
<totfact> 0.15537048E+05</totfact>
</mgrwt>
</event>
<event>
 5    1  0.6046470E+000  0.9617582E+02  0.7546771E-02  0.1288550E+00
         -4   -1    0    0    0  501 -0.00000000000E+00  0.00000000000E+00  0.19790603243E+02  0.19790603243E+02  0.00000000000E+00 0. -1.
          4   -1    0    0  501    0  0.00000000000E+00 -0.00000000000E+00 -0.11684570797E+03  0.11684570797E+03  0.00000000000E+00 0.  1.
         23    2    1    2    0    0  0.00000000000E+00  0.00000000000E+00 -0.97055104730E+02  0.13663631122E+03  0.96175819148E+02 0.  0.
        -13    1    3    3    0    0 -0.36341618848E+02  0.16216094994E+02 -0.86880265217E+02  0.95560742365E+02  0.00000000000E+00 0.  1.
         13    1    3    3    0    0  0.36341618848E+02 -0.16216094994E+02 -0.10174839514E+02  0.41075568851E+02  0.00000000000E+00 0. -1.
<mgrwt>
<rscale>  0 0.96175819E+02</rscale>
<asrwt>0</asrwt>
<pdfrwt beam="2">  1        4 0.17976263E-01 0.96175819E+02</pdfrwt>
<pdfrwt beam="1">  1       -4 0.30447082E-02 0.96175819E+02</pdfrwt>
<totfact> 0.21081453E+04</totfact>
</mgrwt>
</event>
<event>
 5    1  0.6046470E+000  0.9018552E+02  0.7546771E-02  0.1302403E+00
         -1   -1    0    0    0  501 -0.00000000000E+00  0.00000000000E+00  0.65383356072E+02  0.65383356072E+02  0.00000000000E+00 0.  1.
          1   -1    0    0  501    0  0.00000000000E+00 -0.00000000000E+00 -0.31099001795E+02  0.31099001795E+02  0.00000000000E+00 0. -1.
         23    2    1    2    0    0  0.00000000000E+00  0.00000000000E+00  0.34284354277E+02  0.96482357867E+02  0.90185522294E+02 0.  0.
        -13    1    3    3    0    0 -0.36990847161E+02 -0.25725058023E+02  0.15211832454E+02  0.47555243987E+02  0.00000000000E+00 0. -1.
         13    1    3    3    0    0  0.36990847161E+02  0.25725058023E+02  0.19072521823E+02  0.48927113881E+02  0.00000000000E+00 0.  1.
<mgrwt>
<rscale>  0 0.90185522E+02</rscale>
<asrwt>0</asrwt>
<pdfrwt beam="2">  1        1 0.47844618E-02 0.90185522E+02</pdfrwt>
<pdfrwt beam="1">  1       -1 0.10058978E-01 0.90185522E+02</pdfrwt>
<totfact> 0.89955242E+04</totfact>
</mgrwt>
</event>
<event>
 5    1  0.6046470E+000  0.9772123E+02  0.7546771E-02  0.1285162E+00
         -2   -1    0    0    0  501 -0.00000000000E+00  0.00000000000E+00  0.13955325348E+02  0.13955325348E+02  0.00000000000E+00 0.  1.
          2   -1    0    0  501    0  0.00000000000E+00 -0.00000000000E+00 -0.17107158873E+03  0.17107158873E+03  0.00000000000E+00 0. -1.
         23    2    1    2    0    0  0.00000000000E+00  0.00000000000E+00 -0.15711626338E+03  0.18502691407E+03  0.97721229595E+02 0.  0.
        -13    1    3    3    0    0 -0.90564010676E+01 -0.28320835987E+02 -0.51465301735E+01  0.30175734028E+02  0.00000000000E+00 0.  1.
         13    1    3    3    0    0  0.90564010676E+01  0.28320835987E+02 -0.15196973321E+03  0.15485118005E+03  0.00000000000E+00 0. -1.
<mgrwt>
<rscale>  0 0.97721230E+02</rscale>
<asrwt>0</asrwt>
<pdfrwt beam="2">  1        2 0.26318707E-01 0.97721230E+02</pdfrwt>
<pdfrwt beam="1">  1       -2 0.21469731E-02 0.97721230E+02</pdfrwt>
<totfact> 0.12118355E+05</totfact>
</mgrwt>
</event>
<event>
 5    1  0.6046470E+000  0.9632484E+02  0.7546771E-02  0.1288220E+00
          1   -1    0    0  501    0  0.00000000000E+00  0.00000000000E+00  0.22888648307E+03  0.22888648307E+03  0.00000000000E+00 0. -1.
         -1   -1    0    0    0  501 -0.00000000000E+00 -0.00000000000E+00 -0.10134363808E+02  0.10134363808E+02  0.00000000000E+00 0.  1.
         23    2    1    2    0    0  0.00000000000E+00  0.00000000000E+00  0.21875211926E+03  0.23902084688E+03  0.96324843945E+02 0.  0.
        -13    1    3    3    0    0  0.79875407917E+00 -0.47864288716E+02  0.12250424554E+03  0.13152535237E+03  0.00000000000E+00 0.  1.
         13    1    3    3    0    0 -0.79875407917E+00  0.47864288716E+02  0.96247873729E+02  0.10749549451E+03  0.00000000000E+00 0. -1.
<mgrwt>
<rscale>  0 0.96324844E+02</rscale>
<asrwt>0</asrwt>
<pdfrwt beam="1">  1        1 0.35213301E-01 0.96324844E+02</pdfrwt>
<pdfrwt beam="2">  1       -1 0.15591331E-02 0.96324844E+02</pdfrwt>
<totfact> 0.10489100E+05</totfact>
</mgrwt>
</event>
<event>
 5    1  0.6046470E+000  0.9149360E+02  0.7546771E-02  0.1299275E+00
          4   -1    0    0  501    0  0.00000000000E+00  0.00000000000E+00  0.13171698820E+03  0.13171698820E+03  0.00000000000E+00 0. -1.
         -4   -1    0    0    0  501 -0.00000000000E+00 -0.00000000000E+00 -0.15888381922E+02  0.15888381922E+02  0.00000000000E+00 0.  1.
         23    2    1    2    0    0  0.00000000000E+00  0.00000000000E+00  0.11582860627E+03  0.14760537012E+03  0.91493602270E+02 0.  0.
        -13    1    3    3    0    0  0.11340018077E+02  0.20475397329E+02 -0.54969159606E+01  0.24042753396E+02  0.00000000000E+00 0.  1.
         13    1    3    3    0    0 -0.11340018077E+02 -0.20475397329E+02  0.12132552224E+03  0.12356261672E+03  0.00000000000E+00 0. -1.
<mgrwt>
<rscale>  0 0.91493602E+02</rscale>
<asrwt>0</asrwt>
<pdfrwt beam="1">  1        4 0.20264151E-01 0.91493602E+02</pdfrwt>
<pdfrwt beam="2">  1       -4 0.24443665E-02 0.91493602E+02</pdfrwt>
<totfact> 0.23572338E+04</totfact>
</mgrwt>
</event>
<event>
 5    1  0.6046470E+000  0.8817884E+02  0.7546771E-02  0.1307323E+00
         -2   -1    0    0    0  501 -0.00000000000E+00  0.00000000000E+00  0.87804673141E+02  0.87804673141E+02  0.00000000000E+00 0.  1.
          2   -1    0    0  501    0  0.00000000000E+00 -0.00000000000E+00 -0.22138651250E+02  0.22138651250E+02  0.00000000000E+00 0. -1.
         23    2    1    2    0    0  0.00000000000E+00  0.00000000000E+00  0.65666021891E+02  0.10994332439E+03  0.88178841835E+02 0.  0.
        -13    1    3    3    0    0 -0.23286769805E+02  0.31974981068E+02  0.57112576682E+02  0.69473156524E+02  0.00000000000E+00 0.  1.
         13    1    3    3    0    0  0.23286769805E+02 -0.31974981068E+02  0.85534452094E+01  0.40470167867E+02  0.00000000000E+00 0. -1.
<mgrwt>
<rscale>  0 0.88178842E+02</rscale>
<asrwt>0</asrwt>
<pdfrwt beam="2">  1        2 0.34059464E-02 0.88178842E+02</pdfrwt>
<pdfrwt beam="1">  1       -2 0.13508411E-01 0.88178842E+02</pdfrwt>
<totfact> 0.90022187E+04</totfact>
</mgrwt>
</event>
<event>
 5    1  0.6046470E+000  0.9125484E+02  0.7546771E-02  0.1299841E+00
         -2   -1    0    0    0  501 -0.00000000000E+00  0.00000000000E+00  0.17086557105E+02  0.17086557105E+02  0.00000000000E+00 0.  1.
          2   -1    0    0  501    0  0.00000000000E+00 -0.00000000000E+00 -0.12184207673E+03  0.12184207673E+03  0.00000000000E+00 0. -1.
         23    2    1    2    0    0  0.00000000000E+00  0.00000000000E+00 -0.10475551963E+03  0.13892863384E+03  0.91254843201E+02 0.  0.
        -13    1    3    3    0    0 -0.42153329625E+02 -0.69603286945E+01 -0.76760913621E+02  0.87849799282E+02  0.00000000000E+00 0. -1.
         13    1    3    3    0    0  0.42153329625E+02  0.69603286945E+01 -0.27994606005E+02  0.51078834554E+02  0.00000000000E+00 0.  1.
<mgrwt>
<rscale>  0 0.91254843E+02</rscale>
<asrwt>0</asrwt>
<pdfrwt beam="2">  1        2 0.18744935E-01 0.91254843E+02</pdfrwt>
<pdfrwt beam="1">  1       -2 0.26287011E-02 0.91254843E+02</pdfrwt>
<totfact> 0.13019569E+05</totfact>
</mgrwt>
</event>
<event>
 5    1  0.6046470E+000  0.9077031E+02  0.7546771E-02  0.1300997E+00
         -2   -1    0    0    0  501 -0.00000000000E+00  0.00000000000E+00  0.11470185689E+02  0.11470185689E+02  0.00000000000E+00 0.  1.
          2   -1    0    0  501    0  0.00000000000E+00 -0.00000000000E+00 -0.17957967060E+03  0.17957967060E+03  0.00000000000E+00 0. -1.
         23    2    1    2    0    0  0.00000000000E+00  0.00000000000E+00 -0.16810948491E+03  0.19104985629E+03  0.90770307210E+02 0.  0.
        -13    1    3    3    0    0 -0.71210450038E+01  0.36715198948E+02 -0.29937517284E+02  0.47905845749E+02  0.00000000000E+00 0.  1.
         13    1    3    3    0    0  0.71210450038E+01 -0.36715198948E+02 -0.13817196762E+03  0.14314401054E+03  0.00000000000E+00 0. -1.
<mgrwt>
<rscale>  0 0.90770307E+02</rscale>
<asrwt>0</asrwt>
<pdfrwt beam="2">  1        2 0.27627639E-01 0.90770307E+02</pdfrwt>
<pdfrwt beam="1">  1       -2 0.17646441E-02 0.90770307E+02</pdfrwt>
<totfact> 0.15062844E+05</totfact>
</mgrwt>
</event>
<event>
 5    1  0.6046470E+000  0.9071393E+02  0.7546771E-02  0.1301132E+00
          3   -1    0    0  501    0  0.00000000000E+00  0.00000000000E+00  0.57451110969E+02  0.57451110969E+02  0.00000000000E+00 0. -1.
         -3   -1    0    0    0  501 -0.00000000000E+00 -0.00000000000E+00 -0.35808784464E+02  0.35808784464E+02  0.00000000000E+00 0.  1.
         23    2    1    2    0    0  0.00000000000E+00  0.00000000000E+00  0.21642326505E+02  0.93259895433E+02  0.90713933878E+02 0.  0.
        -13    1    3    3    0    0  0.13333091861E+02  0.39012754980E+02  0.30259168453E+02  0.51140821905E+02  0.00000000000E+00 0.  1.
         13    1    3    3    0    0 -0.13333091861E+02 -0.39012754980E+02 -0.86168419482E+01  0.42119073528E+02  0.00000000000E+00 0. -1.
<mgrwt>
<rscale>  0 0.90713934E+02</rscale>
<asrwt>0</asrwt>
<pdfrwt beam="1">  1        3 0.88386324E-02 0.90713934E+02</pdfrwt>
<pdfrwt beam="2">  1       -3 0.55090438E-02 0.90713934E+02</pdfrwt>
<totfact> 0.35669837E+04</totfact>
</mgrwt>
</event>
<event>
 5    1  0.6046470E+000  0.9539416E+02  0.7546771E-02  0.1290291E+00
          1   -1    0    0  501    0  0.00000000000E+00  0.00000000000E+00  0.94390710448E+02  0.94390710448E+02  0.00000000000E+00 0. -1.
         -1   -1    0    0    0  501 -0.00000000000E+00 -0.00000000000E+00 -0.24102069639E+02  0.24102069639E+02  0.00000000000E+00 0.  1.
         23    2    1    2    0    0  0.00000000000E+00  0.00000000000E+00  0.70288640809E+02  0.11849278009E+03  0.95394160753E+02 0.  0.
        -13    1    3    3    0    0 -0.45699332894E+02  0.11110482743E+01  0.52055117332E+02  0.69277692627E+02  0.00000000000E+00 0. -1.
         13    1    3    3    0    0  0.45699332894E+02 -0.11110482743E+01  0.18233523477E+02  0.49215087460E+02  0.00000000000E+00 0.  1.
<mgrwt>
<rscale>  0 0.95394161E+02</rscale>
<asrwt>0</asrwt>
<pdfrwt beam="1">  1        1 0.14521648E-01 0.95394161E+02</pdfrwt>
<pdfrwt beam="2">  1       -1 0.37080108E-02 0.95394161E+02</pdfrwt>
<totfact> 0.91400584E+04</totfact>
</mgrwt>
</event>
<event>
 5    1  0.6046470E+000  0.9039191E+02  0.7546771E-02  0.1301905E+00
         -2   -1    0    0    0  501 -0.00000000000E+00  0.00000000000E+00  0.53097967831E+01  0.53097967831E+01  0.00000000000E+00 0.  1.
          2   -1    0    0  501    0  0.00000000000E+00 -0.00000000000E+00 -0.38469915666E+03  0.38469915666E+03  0.00000000000E+00 0. -1.
         23    2    1    2    0    0  0.00000000000E+00  0.00000000000E+00 -0.37938935988E+03  0.39000895344E+03  0.90391909915E+02 0.  0.
        -13    1    3    3    0    0 -0.18818099937E+02 -0.41085948615E+02 -0.18664900032E+03  0.19204172822E+03  0.00000000000E+00 0.  1.
         13    1    3    3    0    0  0.18818099937E+02  0.41085948615E+02 -0.19274035956E+03  0.19796722522E+03  0.00000000000E+00 0. -1.
<mgrwt>
<rscale>  0 0.90391910E+02</rscale>
<asrwt>0</asrwt>
<pdfrwt beam="2">  1        2 0.59184490E-01 0.90391910E+02</pdfrwt>
<pdfrwt beam="1">  1       -2 0.81689175E-03 0.90391910E+02</pdfrwt>
<totfact> 0.20141575E+05</totfact>
</mgrwt>
</event>
<event>
 5    1  0.6046470E+000  0.8725262E+02  0.7546771E-02  0.1309645E+00
         -1   -1    0    0    0  501 -0.00000000000E+00  0.00000000000E+00  0.21753589947E+02  0.21753589947E+02  0.00000000000E+00 0.  1.
          1   -1    0    0  501    0  0.00000000000E+00 -0.00000000000E+00 -0.87491535628E+02  0.87491535628E+02  0.00000000000E+00 0. -1.
         23    2    1    2    0    0  0.00000000000E+00  0.00000000000E+00 -0.65737945681E+02  0.10924512557E+03  0.87252621505E+02 0.  0.
        -13    1    3    3    0    0  0.32154738024E+02 -0.29172139416E+02 -0.38227140610E+02  0.57846825105E+02  0.00000000000E+00 0. -1.
         13    1    3    3    0    0 -0.32154738024E+02  0.29172139416E+02 -0.27510805070E+02  0.51398300469E+02  0.00000000000E+00 0.  1.
<mgrwt>
<rscale>  0 0.87252622E+02</rscale>
<asrwt>0</asrwt>
<pdfrwt beam="2">  1        1 0.13460236E-01 0.87252622E+02</pdfrwt>
<pdfrwt beam="1">  1       -1 0.33467061E-02 0.87252622E+02</pdfrwt>
<totfact> 0.11521663E+05</totfact>
</mgrwt>
</event>
<event>
 5    1  0.6046470E+000  0.8483085E+02  0.7546771E-02  0.1315875E+00
         -2   -1    0    0    0  501 -0.00000000000E+00  0.00000000000E+00  0.27154591598E+02  0.27154591598E+02  0.00000000000E+00 0.  1.
          2   -1    0    0  501    0  0.00000000000E+00 -0.00000000000E+00 -0.66252822058E+02  0.66252822058E+02  0.00000000000E+00 0. -1.
         23    2    1    2    0    0  0.00000000000E+00  0.00000000000E+00 -0.39098230461E+02  0.93407413656E+02  0.84830851114E+02 0.  0.
        -13    1    3    3    0    0  0.17819251484E+02 -0.82808892327E+01  0.21840740507E+02  0.29378849464E+02  0.00000000000E+00 0.  1.
         13    1    3    3    0    0 -0.17819251484E+02  0.82808892327E+01 -0.60938970967E+02  0.64028564192E+02  0.00000000000E+00 0. -1.
<mgrwt>
<rscale>  0 0.84830851E+02</rscale>
<asrwt>0</asrwt>
<pdfrwt beam="2">  1        2 0.10192742E-01 0.84830851E+02</pdfrwt>
<pdfrwt beam="1">  1       -2 0.41776296E-02 0.84830851E+02</pdfrwt>
<totfact> 0.13321373E+05</totfact>
</mgrwt>
</event>
<event>
 5    1  0.6046470E+000  0.9119759E+02  0.7546771E-02  0.1299977E+00
          1   -1    0    0  501    0  0.00000000000E+00  0.00000000000E+00  0.38671228286E+03  0.38671228286E+03  0.00000000000E+00 0. -1.
         -1   -1    0    0    0  501 -0.00000000000E+00 -0.00000000000E+00 -0.53767364956E+01  0.53767364956E+01  0.00000000000E+00 0.  1.
         23    2    1    2    0    0  0.00000000000E+00  0.00000000000E+00  0.38133554637E+03  0.39208901936E+03  0.91197588664E+02 0.  0.
        -13    1    3    3    0    0 -0.25606037227E+01  0.45145879794E+02  0.16539920325E+03  0.17146895809E+03  0.00000000000E+00 0. -1.
         13    1    3    3    0    0  0.25606037227E+01 -0.45145879794E+02  0.21593634312E+03  0.22062006127E+03  0.00000000000E+00 0.  1.
<mgrwt>
<rscale>  0 0.91197589E+02</rscale>
<asrwt>0</asrwt>
<pdfrwt beam="1">  1        1 0.59494176E-01 0.91197589E+02</pdfrwt>
<pdfrwt beam="2">  1       -1 0.82719053E-03 0.91197589E+02</pdfrwt>
<totfact> 0.13405513E+05</totfact>
</mgrwt>
</event>
<event>
 5    1  0.6046470E+000  0.9026587E+02  0.7546771E-02  0.1302209E+00
          3   -1    0    0  501    0  0.00000000000E+00  0.00000000000E+00  0.33993908855E+03  0.33993908855E+03  0.00000000000E+00 0. -1.
         -3   -1    0    0    0  501 -0.00000000000E+00 -0.00000000000E+00 -0.59921970490E+01  0.59921970490E+01  0.00000000000E+00 0.  1.
         23    2    1    2    0    0  0.00000000000E+00  0.00000000000E+00  0.33394689150E+03  0.34593128560E+03  0.90265874022E+02 0.  0.
        -13    1    3    3    0    0  0.43184837114E+02  0.10994777281E+02  0.19438666469E+03  0.19942916210E+03  0.00000000000E+00 0.  1.
         13    1    3    3    0    0 -0.43184837114E+02 -0.10994777281E+02  0.13956022681E+03  0.14650212350E+03  0.00000000000E+00 0. -1.
<mgrwt>
<rscale>  0 0.90265874E+02</rscale>
<asrwt>0</asrwt>
<pdfrwt beam="1">  1        3 0.52298306E-01 0.90265874E+02</pdfrwt>
<pdfrwt beam="2">  1       -3 0.92187673E-03 0.90265874E+02</pdfrwt>
<totfact> 0.22965088E+04</totfact>
</mgrwt>
</event>
<event>
 5    1  0.6046470E+000  0.8092719E+02  0.7546771E-02  0.1326441E+00
         -3   -1    0    0    0  501 -0.00000000000E+00  0.00000000000E+00  0.85853530625E+02  0.85853530625E+02  0.00000000000E+00 0.  1.
          3   -1    0    0  501    0  0.00000000000E+00 -0.00000000000E+00 -0.19070881208E+02  0.19070881208E+02  0.00000000000E+00 0. -1.
         23    2    1    2    0    0  0.00000000000E+00  0.00000000000E+00  0.66782649416E+02  0.10492441183E+03  0.80927189099E+02 0.  0.
        -13    1    3    3    0    0  0.14611478922E+02 -0.19757059893E+01  0.82246608572E+02  0.83557784509E+02  0.00000000000E+00 0.  1.
         13    1    3    3    0    0 -0.14611478922E+02  0.19757059893E+01 -0.15463959156E+02  0.21366627324E+02  0.00000000000E+00 0. -1.
<mgrwt>
<rscale>  0 0.80927189E+02</rscale>
<asrwt>0</asrwt>
<pdfrwt beam="2">  1        3 0.29339818E-02 0.80927189E+02</pdfrwt>
<pdfrwt beam="1">  1       -3 0.13208235E-01 0.80927189E+02</pdfrwt>
<totfact> 0.47333018E+04</totfact>
</mgrwt>
</event>
<event>
 5    1  0.6046470E+000  0.9122641E+02  0.7546771E-02  0.1299909E+00
          1   -1    0    0  501    0  0.00000000000E+00  0.00000000000E+00  0.63288601009E+02  0.63288601009E+02  0.00000000000E+00 0. -1.
         -1   -1    0    0    0  501 -0.00000000000E+00 -0.00000000000E+00 -0.32874237718E+02  0.32874237718E+02  0.00000000000E+00 0.  1.
         23    2    1    2    0    0  0.00000000000E+00  0.00000000000E+00  0.30414363291E+02  0.96162838728E+02  0.91226410966E+02 0.  0.
        -13    1    3    3    0    0  0.14811211890E+02  0.29912335621E+02 -0.17562723870E+02  0.37716960239E+02  0.00000000000E+00 0.  1.
         13    1    3    3    0    0 -0.14811211890E+02 -0.29912335621E+02  0.47977087161E+02  0.58445878489E+02  0.00000000000E+00 0. -1.
<mgrwt>
<rscale>  0 0.91226411E+02</rscale>
<asrwt>0</asrwt>
<pdfrwt beam="1">  1        1 0.97367078E-02 0.91226411E+02</pdfrwt>
<pdfrwt beam="2">  1       -1 0.50575751E-02 0.91226411E+02</pdfrwt>
<totfact> 0.97008648E+04</totfact>
</mgrwt>
</event>
<event>
 5    1  0.6046470E+000  0.9188237E+02  0.7546771E-02  0.1298356E+00
          3   -1    0    0  501    0  0.00000000000E+00  0.00000000000E+00  0.49975488727E+02  0.49975488727E+02  0.00000000000E+00 0. -1.
         -3   -1    0    0    0  501 -0.00000000000E+00 -0.00000000000E+00 -0.42232554388E+02  0.42232554388E+02  0.00000000000E+00 0.  1.
         23    2    1    2    0    0  0.00000000000E+00  0.00000000000E+00  0.77429343386E+01  0.92208043115E+02  0.91882371448E+02 0.  0.
        -13    1    3    3    0    0 -0.34564397644E+02  0.36424600548E+01 -0.26278780021E+02  0.43572231744E+02  0.00000000000E+00 0.  1.
         13    1    3    3    0    0  0.34564397644E+02 -0.36424600548E+01  0.34021714359E+02  0.48635811371E+02  0.00000000000E+00 0. -1.
<mgrwt>
<rscale>  0 0.91882371E+02</rscale>
<asrwt>0</asrwt>
<pdfrwt beam="1">  1        3 0.76885367E-02 0.91882371E+02</pdfrwt>
<pdfrwt beam="2">  1       -3 0.64973161E-02 0.91882371E+02</pdfrwt>
<totfact> 0.34525176E+04</totfact>
</mgrwt>
</event>
<event>
 5    1  0.6046470E+000  0.9152607E+02  0.7546771E-02  0.1299198E+00
          2   -1    0    0  501    0  0.00000000000E+00  0.00000000000E+00  0.15093812385E+03  0.15093812385E+03  0.00000000000E+00 0. -1.
         -2   -1    0    0    0  501 -0.00000000000E+00 -0.00000000000E+00 -0.13874927110E+02  0.13874927110E+02  0.00000000000E+00 0.  1.
         23    2    1    2    0    0  0.00000000000E+00  0.00000000000E+00  0.13706319674E+03  0.16481305096E+03  0.91526072057E+02 0.  0.
        -13    1    3    3    0    0 -0.41755878659E+02 -0.12617095394E+02  0.93451343716E+02  0.10313049084E+03  0.00000000000E+00 0. -1.
         13    1    3    3    0    0  0.41755878659E+02  0.12617095394E+02  0.43611853028E+02  0.61682560123E+02  0.00000000000E+00 0.  1.
<mgrwt>
<rscale>  0 0.91526072E+02</rscale>
<asrwt>0</asrwt>
<pdfrwt beam="1">  1        2 0.23221249E-01 0.91526072E+02</pdfrwt>
<pdfrwt beam="2">  1       -2 0.21346043E-02 0.91526072E+02</pdfrwt>
<totfact> 0.13865911E+05</totfact>
</mgrwt>
</event>
<event>
 5    1  0.6046470E+000  0.9085179E+02  0.7546771E-02  0.1300802E+00
          1   -1    0    0  501    0  0.00000000000E+00  0.00000000000E+00  0.47743676484E+02  0.47743676484E+02  0.00000000000E+00 0. -1.
         -1   -1    0    0    0  501 -0.00000000000E+00 -0.00000000000E+00 -0.43220632948E+02  0.43220632948E+02  0.00000000000E+00 0.  1.
         23    2    1    2    0    0  0.00000000000E+00  0.00000000000E+00  0.45230435355E+01  0.90964309432E+02  0.90851789568E+02 0.  0.
        -13    1    3    3    0    0  0.18261320857E+02  0.30137527862E+02  0.30963477522E+02  0.46909310006E+02  0.00000000000E+00 0. -1.
         13    1    3    3    0    0 -0.18261320857E+02 -0.30137527862E+02 -0.26440433986E+02  0.44054999426E+02  0.00000000000E+00 0.  1.
<mgrwt>
<rscale>  0 0.90851790E+02</rscale>
<asrwt>0</asrwt>
<pdfrwt beam="1">  1        1 0.73451810E-02 0.90851790E+02</pdfrwt>
<pdfrwt beam="2">  1       -1 0.66493281E-02 0.90851790E+02</pdfrwt>
<totfact> 0.94052048E+04</totfact>
</mgrwt>
</event>
<event>
 5    1  0.6046470E+000  0.7372669E+02  0.7546771E-02  0.1347860E+00
         -3   -1    0    0    0  501 -0.00000000000E+00  0.00000000000E+00  0.26872931199E+02  0.26872931199E+02  0.00000000000E+00 0.  1.
          3   -1    0    0  501    0  0.00000000000E+00 -0.00000000000E+00 -0.50567848309E+02  0.50567848309E+02  0.00000000000E+00 0. -1.
         23    2    1    2    0    0  0.00000000000E+00  0.00000000000E+00 -0.23694917109E+02  0.77440779508E+02  0.73726692819E+02 0.  0.
        -13    1    3    3    0    0 -0.15685037032E+02 -0.14486367335E+02  0.19716852353E+02  0.29062510077E+02  0.00000000000E+00 0.  1.
         13    1    3    3    0    0  0.15685037032E+02  0.14486367335E+02 -0.43411769463E+02  0.48378269431E+02  0.00000000000E+00 0. -1.
<mgrwt>
<rscale>  0 0.73726693E+02</rscale>
<asrwt>0</asrwt>
<pdfrwt beam="2">  1        3 0.77796688E-02 0.73726693E+02</pdfrwt>
<pdfrwt beam="1">  1       -3 0.41342972E-02 0.73726693E+02</pdfrwt>
<totfact> 0.64537239E+04</totfact>
</mgrwt>
</event>
<event>
 5    1  0.6046470E+000  0.9044528E+02  0.7546771E-02  0.1301777E+00
         -2   -1    0    0    0  501 -0.00000000000E+00  0.00000000000E+00  0.15157699925E+03  0.15157699925E+03  0.00000000000E+00 0. -1.
          2   -1    0    0  501    0  0.00000000000E+00 -0.00000000000E+00 -0.13492068158E+02  0.13492068158E+02  0.00000000000E+00 0.  1.
         23    2    1    2    0    0  0.00000000000E+00  0.00000000000E+00  0.13808493110E+03  0.16506906741E+03  0.90445280809E+02 0.  0.
        -13    1    3    3    0    0 -0.21820616422E+01 -0.36710807131E+02  0.21010059811E+02  0.42354071427E+02  0.00000000000E+00 0.  1.
         13    1    3    3    0    0  0.21820616422E+01  0.36710807131E+02  0.11707487128E+03  0.12271499598E+03  0.00000000000E+00 0. -1.
<mgrwt>
<rscale>  0 0.90445281E+02</rscale>
<asrwt>0</asrwt>
<pdfrwt beam="2">  1        2 0.20757029E-02 0.90445281E+02</pdfrwt>
<pdfrwt beam="1">  1       -2 0.23319537E-01 0.90445281E+02</pdfrwt>
<totfact> 0.71023764E+04</totfact>
</mgrwt>
</event>
<event>
 5    1  0.6046470E+000  0.9143446E+02  0.7546771E-02  0.1299415E+00
          2   -1    0    0  501    0  0.00000000000E+00  0.00000000000E+00  0.48305336203E+02  0.48305336203E+02  0.00000000000E+00 0. -1.
         -2   -1    0    0    0  501 -0.00000000000E+00 -0.00000000000E+00 -0.43267788047E+02  0.43267788047E+02  0.00000000000E+00 0.  1.
         23    2    1    2    0    0  0.00000000000E+00  0.00000000000E+00  0.50375481564E+01  0.91573124250E+02  0.91434458458E+02 0.  0.
        -13    1    3    3    0    0  0.41955038286E+02 -0.11205025570E+02  0.16833357902E+02  0.46574024669E+02  0.00000000000E+00 0.  1.
         13    1    3    3    0    0 -0.41955038286E+02  0.11205025570E+02 -0.11795809746E+02  0.44999099581E+02  0.00000000000E+00 0. -1.
<mgrwt>
<rscale>  0 0.91434458E+02</rscale>
<asrwt>0</asrwt>
<pdfrwt beam="1">  1        2 0.74315902E-02 0.91434458E+02</pdfrwt>
<pdfrwt beam="2">  1       -2 0.66565828E-02 0.91434458E+02</pdfrwt>
<totfact> 0.99365663E+04</totfact>
</mgrwt>
</event>
<event>
 5    1  0.6046470E+000  0.9071071E+02  0.7546771E-02  0.1301140E+00
          1   -1    0    0  501    0  0.00000000000E+00  0.00000000000E+00  0.22274163503E+02  0.22274163503E+02  0.00000000000E+00 0. -1.
         -1   -1    0    0    0  501 -0.00000000000E+00 -0.00000000000E+00 -0.92354005145E+02  0.92354005145E+02  0.00000000000E+00 0.  1.
         23    2    1    2    0    0  0.00000000000E+00  0.00000000000E+00 -0.70079841642E+02  0.11462816865E+03  0.90710709638E+02 0.  0.
        -13    1    3    3    0    0  0.27243169565E+02 -0.58190084635E+01 -0.80268925137E+02  0.84965590036E+02  0.00000000000E+00 0.  1.
         13    1    3    3    0    0 -0.27243169565E+02  0.58190084635E+01  0.10189083496E+02  0.29662578612E+02  0.00000000000E+00 0. -1.
<mgrwt>
<rscale>  0 0.90710710E+02</rscale>
<asrwt>0</asrwt>
<pdfrwt beam="1">  1        1 0.34267944E-02 0.90710710E+02</pdfrwt>
<pdfrwt beam="2">  1       -1 0.14208308E-01 0.90710710E+02</pdfrwt>
<totfact> 0.83655242E+04</totfact>
</mgrwt>
</event>
<event>
 5    1  0.6046470E+000  0.9047304E+02  0.7546771E-02  0.1301710E+00
          3   -1    0    0  501    0  0.00000000000E+00  0.00000000000E+00  0.70523412428E+01  0.70523412428E+01  0.00000000000E+00 0. -1.
         -3   -1    0    0    0  501 -0.00000000000E+00 -0.00000000000E+00 -0.29016500798E+03  0.29016500798E+03  0.00000000000E+00 0.  1.
         23    2    1    2    0    0  0.00000000000E+00  0.00000000000E+00 -0.28311266673E+03  0.29721734922E+03  0.90473038039E+02 0.  0.
        -13    1    3    3    0    0  0.85865537842E+00 -0.37719132202E+02 -0.59567532118E+02  0.70510716247E+02  0.00000000000E+00 0. -1.
         13    1    3    3    0    0 -0.85865537842E+00  0.37719132202E+02 -0.22354513462E+03  0.22670663297E+03  0.00000000000E+00 0.  1.
<mgrwt>
<rscale>  0 0.90473038E+02</rscale>
<asrwt>0</asrwt>
<pdfrwt beam="1">  1        3 0.10849757E-02 0.90473038E+02</pdfrwt>
<pdfrwt beam="2">  1       -3 0.44640764E-01 0.90473038E+02</pdfrwt>
<totfact> 0.24638277E+04</totfact>
</mgrwt>
</event>
<event>
 5    1  0.6046470E+000  0.9164924E+02  0.7546771E-02  0.1298906E+00
         -3   -1    0    0    0  501 -0.00000000000E+00  0.00000000000E+00  0.48463707844E+01  0.48463707844E+01  0.00000000000E+00 0.  1.
          3   -1    0    0  501    0  0.00000000000E+00 -0.00000000000E+00 -0.43329241955E+03  0.43329241955E+03  0.00000000000E+00 0. -1.
         23    2    1    2    0    0  0.00000000000E+00  0.00000000000E+00 -0.42844604876E+03  0.43813879033E+03  0.91649238364E+02 0.  0.
        -13    1    3    3    0    0 -0.33296212206E+02  0.31046530700E+02 -0.23923381628E+03  0.24352688490E+03  0.00000000000E+00 0.  1.
         13    1    3    3    0    0  0.33296212206E+02 -0.31046530700E+02 -0.18921223248E+03  0.19461190544E+03  0.00000000000E+00 0. -1.
<mgrwt>
<rscale>  0 0.91649238E+02</rscale>
<asrwt>0</asrwt>
<pdfrwt beam="2">  1        3 0.66660356E-01 0.91649238E+02</pdfrwt>
<pdfrwt beam="1">  1       -3 0.74559569E-03 0.91649238E+02</pdfrwt>
<totfact> 0.19244635E+04</totfact>
</mgrwt>
</event>
<event>
 5    1  0.6046470E+000  0.8881228E+02  0.7546771E-02  0.1305754E+00
          1   -1    0    0  501    0  0.00000000000E+00  0.00000000000E+00  0.12677601565E+03  0.12677601565E+03  0.00000000000E+00 0. -1.
         -1   -1    0    0    0  501 -0.00000000000E+00 -0.00000000000E+00 -0.15554244421E+02  0.15554244421E+02  0.00000000000E+00 0.  1.
         23    2    1    2    0    0  0.00000000000E+00  0.00000000000E+00  0.11122177123E+03  0.14233026007E+03  0.88812276949E+02 0.  0.
        -13    1    3    3    0    0 -0.29411344947E+02 -0.18139964157E+02  0.10915397339E+02  0.36238534880E+02  0.00000000000E+00 0.  1.
         13    1    3    3    0    0  0.29411344947E+02  0.18139964157E+02  0.10030637389E+03  0.10609172519E+03  0.00000000000E+00 0. -1.
<mgrwt>
<rscale>  0 0.88812277E+02</rscale>
<asrwt>0</asrwt>
<pdfrwt beam="1">  1        1 0.19504002E-01 0.88812277E+02</pdfrwt>
<pdfrwt beam="2">  1       -1 0.23929608E-02 0.88812277E+02</pdfrwt>
<totfact> 0.11678578E+05</totfact>
</mgrwt>
</event>
<event>
 5    1  0.6046470E+000  0.9109380E+02  0.7546771E-02  0.1300224E+00
          1   -1    0    0  501    0  0.00000000000E+00  0.00000000000E+00  0.13569376844E+02  0.13569376844E+02  0.00000000000E+00 0. -1.
         -1   -1    0    0    0  501 -0.00000000000E+00 -0.00000000000E+00 -0.15288248217E+03  0.15288248217E+03  0.00000000000E+00 0.  1.
         23    2    1    2    0    0  0.00000000000E+00  0.00000000000E+00 -0.13931310532E+03  0.16645185901E+03  0.91093798106E+02 0.  0.
        -13    1    3    3    0    0 -0.39819293497E+02  0.12975091945E+02 -0.10237369876E+03  0.11060878511E+03  0.00000000000E+00 0.  1.
         13    1    3    3    0    0  0.39819293497E+02 -0.12975091945E+02 -0.36939406564E+02  0.55843073902E+02  0.00000000000E+00 0. -1.
<mgrwt>
<rscale>  0 0.91093798E+02</rscale>
<asrwt>0</asrwt>
<pdfrwt beam="1">  1        1 0.20875963E-02 0.91093798E+02</pdfrwt>
<pdfrwt beam="2">  1       -1 0.23520383E-01 0.91093798E+02</pdfrwt>
<totfact> 0.74630414E+04</totfact>
</mgrwt>
</event>
<event>
 5    1  0.6046470E+000  0.8971658E+02  0.7546771E-02  0.1303539E+00
          1   -1    0    0  501    0  0.00000000000E+00  0.00000000000E+00  0.30242112306E+03  0.30242112306E+03  0.00000000000E+00 0. -1.
         -1   -1    0    0    0  501 -0.00000000000E+00 -0.00000000000E+00 -0.66538545775E+01  0.66538545775E+01  0.00000000000E+00 0.  1.
         23    2    1    2    0    0  0.00000000000E+00  0.00000000000E+00  0.29576726848E+03  0.30907497764E+03  0.89716579827E+02 0.  0.
        -13    1    3    3    0    0 -0.43582569158E+02 -0.48242268978E+01  0.18048459638E+03  0.18573476527E+03  0.00000000000E+00 0. -1.
         13    1    3    3    0    0  0.43582569158E+02  0.48242268978E+01  0.11528267210E+03  0.12334021236E+03  0.00000000000E+00 0.  1.
<mgrwt>
<rscale>  0 0.89716580E+02</rscale>
<asrwt>0</asrwt>
<pdfrwt beam="1">  1        1 0.46526316E-01 0.89716580E+02</pdfrwt>
<pdfrwt beam="2">  1       -1 0.10236702E-02 0.89716580E+02</pdfrwt>
<totfact> 0.13395050E+05</totfact>
</mgrwt>
</event>
<event>
 5    1  0.6046470E+000  0.9064646E+02  0.7546771E-02  0.1301294E+00
          3   -1    0    0  501    0  0.00000000000E+00  0.00000000000E+00  0.27368620599E+03  0.27368620599E+03  0.00000000000E+00 0. -1.
         -3   -1    0    0    0  501 -0.00000000000E+00 -0.00000000000E+00 -0.75056589199E+01  0.75056589199E+01  0.00000000000E+00 0.  1.
         23    2    1    2    0    0  0.00000000000E+00  0.00000000000E+00  0.26618054707E+03  0.28119186491E+03  0.90646462992E+02 0.  0.
        -13    1    3    3    0    0  0.12436412901E+02 -0.34820403310E+02  0.51778669585E+02  0.63625116711E+02  0.00000000000E+00 0.  1.
         13    1    3    3    0    0 -0.12436412901E+02  0.34820403310E+02  0.21440187748E+03  0.21756674820E+03  0.00000000000E+00 0. -1.
<mgrwt>
<rscale>  0 0.90646463E+02</rscale>
<asrwt>0</asrwt>
<pdfrwt beam="1">  1        3 0.42105562E-01 0.90646463E+02</pdfrwt>
<pdfrwt beam="2">  1       -3 0.11547170E-02 0.90646463E+02</pdfrwt>
<totfact> 0.25168521E+04</totfact>
</mgrwt>
</event>
<event>
 5    1  0.6046470E+000  0.8944439E+02  0.7546771E-02  0.1304203E+00
         -2   -1    0    0    0  501 -0.00000000000E+00  0.00000000000E+00  0.21755093805E+02  0.21755093805E+02  0.00000000000E+00 0.  1.
          2   -1    0    0  501    0  0.00000000000E+00 -0.00000000000E+00 -0.91935929196E+02  0.91935929196E+02  0.00000000000E+00 0. -1.
         23    2    1    2    0    0  0.00000000000E+00  0.00000000000E+00 -0.70180835392E+02  0.11369102300E+03  0.89444390851E+02 0.  0.
        -13    1    3    3    0    0 -0.14564595663E+02  0.23214826458E+02  0.98314300983E+01  0.29115505012E+02  0.00000000000E+00 0.  1.
         13    1    3    3    0    0  0.14564595663E+02 -0.23214826458E+02 -0.80012265490E+02  0.84575517989E+02  0.00000000000E+00 0. -1.
<mgrwt>
<rscale>  0 0.89444391E+02</rscale>
<asrwt>0</asrwt>
<pdfrwt beam="2">  1        2 0.14143989E-01 0.89444391E+02</pdfrwt>
<pdfrwt beam="1">  1       -2 0.33469375E-02 0.89444391E+02</pdfrwt>
<totfact> 0.12610562E+05</totfact>
</mgrwt>
</event>
<event>
 5    1  0.6046470E+000  0.8964017E+02  0.7546771E-02  0.1303725E+00
          4   -1    0    0  501    0  0.00000000000E+00  0.00000000000E+00  0.47325424232E+02  0.47325424232E+02  0.00000000000E+00 0. -1.
         -4   -1    0    0    0  501 -0.00000000000E+00 -0.00000000000E+00 -0.42447375352E+02  0.42447375352E+02  0.00000000000E+00 0.  1.
         23    2    1    2    0    0  0.00000000000E+00  0.00000000000E+00  0.48780488796E+01  0.89772799584E+02  0.89640170595E+02 0.  0.
        -13    1    3    3    0    0  0.57874872596E+01  0.33868766445E+02 -0.26382919009E+02  0.43320281217E+02  0.00000000000E+00 0.  1.
         13    1    3    3    0    0 -0.57874872596E+01 -0.33868766445E+02  0.31260967889E+02  0.46452518367E+02  0.00000000000E+00 0. -1.
<mgrwt>
<rscale>  0 0.89640171E+02</rscale>
<asrwt>0</asrwt>
<pdfrwt beam="1">  1        4 0.72808345E-02 0.89640171E+02</pdfrwt>
<pdfrwt beam="2">  1       -4 0.65303655E-02 0.89640171E+02</pdfrwt>
<totfact> 0.28383817E+04</totfact>
</mgrwt>
</event>
<event>
 5    1  0.6046470E+000  0.8907662E+02  0.7546771E-02  0.1305103E+00
         -1   -1    0    0    0  501 -0.00000000000E+00  0.00000000000E+00  0.80605990236E+02  0.80605990236E+02  0.00000000000E+00 0.  1.
          1   -1    0    0  501    0  0.00000000000E+00 -0.00000000000E+00 -0.24609353117E+02  0.24609353117E+02  0.00000000000E+00 0. -1.
         23    2    1    2    0    0  0.00000000000E+00  0.00000000000E+00  0.55996637119E+02  0.10521534335E+03  0.89076624927E+02 0.  0.
        -13    1    3    3    0    0 -0.18457839907E+02 -0.19483363317E+02  0.69981974622E+02  0.74951784983E+02  0.00000000000E+00 0.  1.
         13    1    3    3    0    0  0.18457839907E+02  0.19483363317E+02 -0.13985337503E+02  0.30263558371E+02  0.00000000000E+00 0. -1.
<mgrwt>
<rscale>  0 0.89076625E+02</rscale>
<asrwt>0</asrwt>
<pdfrwt beam="2">  1        1 0.37860544E-02 0.89076625E+02</pdfrwt>
<pdfrwt beam="1">  1       -1 0.12400921E-01 0.89076625E+02</pdfrwt>
<totfact> 0.89734283E+04</totfact>
</mgrwt>
</event>
<event>
 5    1  0.6046470E+000  0.9082142E+02  0.7546771E-02  0.1300875E+00
         -2   -1    0    0    0  501 -0.00000000000E+00  0.00000000000E+00  0.28748914446E+02  0.28748914446E+02  0.00000000000E+00 0.  1.
          2   -1    0    0  501    0  0.00000000000E+00 -0.00000000000E+00 -0.71729059562E+02  0.71729059562E+02  0.00000000000E+00 0. -1.
         23    2    1    2    0    0  0.00000000000E+00  0.00000000000E+00 -0.42980145116E+02  0.10047797401E+03  0.90821420307E+02 0.  0.
        -13    1    3    3    0    0  0.30626231845E+01  0.31741101414E+02  0.14277856354E+02  0.34939009170E+02  0.00000000000E+00 0.  1.
         13    1    3    3    0    0 -0.30626231845E+01 -0.31741101414E+02 -0.57258001470E+02  0.65538964838E+02  0.00000000000E+00 0. -1.
<mgrwt>
<rscale>  0 0.90821420E+02</rscale>
<asrwt>0</asrwt>
<pdfrwt beam="2">  1        2 0.11035240E-01 0.90821420E+02</pdfrwt>
<pdfrwt beam="1">  1       -2 0.44229100E-02 0.90821420E+02</pdfrwt>
<totfact> 0.11259345E+05</totfact>
</mgrwt>
</event>
<event>
 5    1  0.6046470E+000  0.8880451E+02  0.7546771E-02  0.1305773E+00
          1   -1    0    0  501    0  0.00000000000E+00  0.00000000000E+00  0.26039817715E+02  0.26039817715E+02  0.00000000000E+00 0. -1.
         -1   -1    0    0    0  501 -0.00000000000E+00 -0.00000000000E+00 -0.75713281939E+02  0.75713281939E+02  0.00000000000E+00 0.  1.
         23    2    1    2    0    0  0.00000000000E+00  0.00000000000E+00 -0.49673464224E+02  0.10175309965E+03  0.88804505747E+02 0.  0.
        -13    1    3    3    0    0 -0.23380405815E+02  0.44977531238E+01 -0.67780724046E+02  0.71840794201E+02  0.00000000000E+00 0.  1.
         13    1    3    3    0    0  0.23380405815E+02 -0.44977531238E+01  0.18107259822E+02  0.29912305452E+02  0.00000000000E+00 0. -1.
<mgrwt>
<rscale>  0 0.88804506E+02</rscale>
<asrwt>0</asrwt>
<pdfrwt beam="1">  1        1 0.40061258E-02 0.88804506E+02</pdfrwt>
<pdfrwt beam="2">  1       -1 0.11648197E-01 0.88804506E+02</pdfrwt>
<totfact> 0.91382078E+04</totfact>
</mgrwt>
</event>
<event>
 5    1  0.6046470E+000  0.9349902E+02  0.7546771E-02  0.1294593E+00
          2   -1    0    0  501    0  0.00000000000E+00  0.00000000000E+00  0.52516139231E+01  0.52516139231E+01  0.00000000000E+00 0. -1.
         -2   -1    0    0    0  501 -0.00000000000E+00 -0.00000000000E+00 -0.41616095562E+03  0.41616095562E+03  0.00000000000E+00 0.  1.
         23    2    1    2    0    0  0.00000000000E+00  0.00000000000E+00 -0.41090934170E+03  0.42141256954E+03  0.93499019648E+02 0.  0.
        -13    1    3    3    0    0  0.37297670432E+02  0.27900230537E+02 -0.18743876938E+03  0.19313940910E+03  0.00000000000E+00 0.  1.
         13    1    3    3    0    0 -0.37297670432E+02 -0.27900230537E+02 -0.22347057232E+03  0.22827316044E+03  0.00000000000E+00 0. -1.
<mgrwt>
<rscale>  0 0.93499020E+02</rscale>
<asrwt>0</asrwt>
<pdfrwt beam="1">  1        2 0.80794050E-03 0.93499020E+02</pdfrwt>
<pdfrwt beam="2">  1       -2 0.64024771E-01 0.93499020E+02</pdfrwt>
<totfact> 0.38929975E+04</totfact>
</mgrwt>
</event>
<event>
 5    1  0.6046470E+000  0.9115219E+02  0.7546771E-02  0.1300085E+00
         -1   -1    0    0    0  501 -0.00000000000E+00  0.00000000000E+00  0.43150668431E+02  0.43150668431E+02  0.00000000000E+00 0. -1.
          1   -1    0    0  501    0  0.00000000000E+00 -0.00000000000E+00 -0.48137849214E+02  0.48137849214E+02  0.00000000000E+00 0.  1.
         23    2    1    2    0    0  0.00000000000E+00  0.00000000000E+00 -0.49871807822E+01  0.91288517645E+02  0.91152188573E+02 0.  0.
        -13    1    3    3    0    0  0.99647547726E+01 -0.11772936554E+02 -0.45444583944E+02  0.47990713504E+02  0.00000000000E+00 0.  1.
         13    1    3    3    0    0 -0.99647547726E+01  0.11772936554E+02  0.40457403162E+02  0.43297804141E+02  0.00000000000E+00 0. -1.
<mgrwt>
<rscale>  0 0.91152189E+02</rscale>
<asrwt>0</asrwt>
<pdfrwt beam="2">  1        1 0.74058230E-02 0.91152189E+02</pdfrwt>
<pdfrwt beam="1">  1       -1 0.66385644E-02 0.91152189E+02</pdfrwt>
<totfact> 0.93301957E+04</totfact>
</mgrwt>
</event>
<event>
 5    1  0.6046470E+000  0.8788917E+02  0.7546771E-02  0.1308045E+00
         -1   -1    0    0    0  501 -0.00000000000E+00  0.00000000000E+00  0.11032511761E+02  0.11032511761E+02  0.00000000000E+00 0.  1.
          1   -1    0    0  501    0  0.00000000000E+00 -0.00000000000E+00 -0.17503959023E+03  0.17503959023E+03  0.00000000000E+00 0. -1.
         23    2    1    2    0    0  0.00000000000E+00  0.00000000000E+00 -0.16400707847E+03  0.18607210199E+03  0.87889165156E+02 0.  0.
        -13    1    3    3    0    0 -0.40343882973E+02 -0.16433137941E+02 -0.69759062411E+02  0.82243563301E+02  0.00000000000E+00 0.  1.
         13    1    3    3    0    0  0.40343882973E+02  0.16433137941E+02 -0.94248016060E+02  0.10382853869E+03  0.00000000000E+00 0. -1.
<mgrwt>
<rscale>  0 0.87889165E+02</rscale>
<asrwt>0</asrwt>
<pdfrwt beam="2">  1        1 0.26929164E-01 0.87889165E+02</pdfrwt>
<pdfrwt beam="1">  1       -1 0.16973097E-02 0.87889165E+02</pdfrwt>
<totfact> 0.12735263E+05</totfact>
</mgrwt>
</event>
<event>
 5    1  0.6046470E+000  0.9030097E+02  0.7546771E-02  0.1302124E+00
         -1   -1    0    0    0  501 -0.00000000000E+00  0.00000000000E+00  0.11975755987E+02  0.11975755987E+02  0.00000000000E+00 0.  1.
          1   -1    0    0  501    0  0.00000000000E+00 -0.00000000000E+00 -0.17022441802E+03  0.17022441802E+03  0.00000000000E+00 0. -1.
         23    2    1    2    0    0  0.00000000000E+00  0.00000000000E+00 -0.15824866204E+03  0.18220017401E+03  0.90300965517E+02 0.  0.
        -13    1    3    3    0    0 -0.14128112637E+02  0.34363107550E+02 -0.27361820972E+02  0.46142127975E+02  0.00000000000E+00 0.  1.
         13    1    3    3    0    0  0.14128112637E+02 -0.34363107550E+02 -0.13088684106E+03  0.13605804604E+03  0.00000000000E+00 0. -1.
<mgrwt>
<rscale>  0 0.90300966E+02</rscale>
<asrwt>0</asrwt>
<pdfrwt beam="2">  1        1 0.26188371E-01 0.90300966E+02</pdfrwt>
<pdfrwt beam="1">  1       -1 0.18424241E-02 0.90300966E+02</pdfrwt>
<totfact> 0.11782083E+05</totfact>
</mgrwt>
</event>
<event>
 5    1  0.6046470E+000  0.9242686E+02  0.7546771E-02  0.1297079E+00
         -1   -1    0    0    0  501 -0.00000000000E+00  0.00000000000E+00  0.11550668859E+03  0.11550668859E+03  0.00000000000E+00 0.  1.
          1   -1    0    0  501    0  0.00000000000E+00 -0.00000000000E+00 -0.18489674199E+02  0.18489674199E+02  0.00000000000E+00 0. -1.
         23    2    1    2    0    0  0.00000000000E+00  0.00000000000E+00  0.97017014392E+02  0.13399636279E+03  0.92426858430E+02 0.  0.
        -13    1    3    3    0    0 -0.27566573828E+02 -0.36686616701E+02  0.40586789291E+02  0.61262641981E+02  0.00000000000E+00 0. -1.
         13    1    3    3    0    0  0.27566573828E+02  0.36686616701E+02  0.56430225101E+02  0.72733720808E+02  0.00000000000E+00 0.  1.
<mgrwt>
<rscale>  0 0.92426858E+02</rscale>
<asrwt>0</asrwt>
<pdfrwt beam="2">  1        1 0.28445653E-02 0.92426858E+02</pdfrwt>
<pdfrwt beam="1">  1       -1 0.17770259E-01 0.92426858E+02</pdfrwt>
<totfact> 0.76400927E+04</totfact>
</mgrwt>
</event>
<event>
 5    1  0.6046470E+000  0.9061031E+02  0.7546771E-02  0.1301380E+00
         -2   -1    0    0    0  501 -0.00000000000E+00  0.00000000000E+00  0.18035373433E+02  0.18035373433E+02  0.00000000000E+00 0.  1.
          2   -1    0    0  501    0  0.00000000000E+00 -0.00000000000E+00 -0.11380730593E+03  0.11380730593E+03  0.00000000000E+00 0. -1.
         23    2    1    2    0    0  0.00000000000E+00  0.00000000000E+00 -0.95771932492E+02  0.13184267936E+03  0.90610314243E+02 0.  0.
        -13    1    3    3    0    0 -0.15542968423E+02 -0.34664200591E+02 -0.11967506577E+02  0.39829786388E+02  0.00000000000E+00 0.  1.
         13    1    3    3    0    0  0.15542968423E+02  0.34664200591E+02 -0.83804425915E+02  0.92012892971E+02  0.00000000000E+00 0. -1.
<mgrwt>
<rscale>  0 0.90610314E+02</rscale>
<asrwt>0</asrwt>
<pdfrwt beam="2">  1        2 0.17508816E-01 0.90610314E+02</pdfrwt>
<pdfrwt beam="1">  1       -2 0.27746728E-02 0.90610314E+02</pdfrwt>
<totfact> 0.12989203E+05</totfact>
</mgrwt>
</event>
<event>
 5    1  0.6046470E+000  0.9144931E+02  0.7546771E-02  0.1299379E+00
          4   -1    0    0  501    0  0.00000000000E+00  0.00000000000E+00  0.18052598238E+03  0.18052598238E+03  0.00000000000E+00 0. -1.
         -4   -1    0    0    0  501 -0.00000000000E+00 -0.00000000000E+00 -0.11581401347E+02  0.11581401347E+02  0.00000000000E+00 0.  1.
         23    2    1    2    0    0  0.00000000000E+00  0.00000000000E+00  0.16894458103E+03  0.19210738372E+03  0.91449305200E+02 0.  0.
        -13    1    3    3    0    0  0.29686005846E+02  0.34331200235E+02  0.72803748650E+02  0.85792051323E+02  0.00000000000E+00 0.  1.
         13    1    3    3    0    0 -0.29686005846E+02 -0.34331200235E+02  0.96140832379E+02  0.10631533240E+03  0.00000000000E+00 0. -1.
<mgrwt>
<rscale>  0 0.91449305E+02</rscale>
<asrwt>0</asrwt>
<pdfrwt beam="1">  1        4 0.27773226E-01 0.91449305E+02</pdfrwt>
<pdfrwt beam="2">  1       -4 0.17817542E-02 0.91449305E+02</pdfrwt>
<totfact> 0.21547189E+04</totfact>
</mgrwt>
</event>
<event>
 5    1  0.6046470E+000  0.9453569E+02  0.7546771E-02  0.1292225E+00
         -2   -1    0    0    0  501 -0.00000000000E+00  0.00000000000E+00  0.18427075512E+03  0.18427075512E+03  0.00000000000E+00 0.  1.
          2   -1    0    0  501    0  0.00000000000E+00 -0.00000000000E+00 -0.12124817150E+02  0.12124817150E+02  0.00000000000E+00 0. -1.
         23    2    1    2    0    0  0.00000000000E+00  0.00000000000E+00  0.17214593797E+03  0.19639557227E+03  0.94535690867E+02 0.  0.
        -13    1    3    3    0    0 -0.20958526812E+02  0.40283468167E+02  0.58808800592E+02  0.74300018040E+02  0.00000000000E+00 0.  1.
         13    1    3    3    0    0  0.20958526812E+02 -0.40283468167E+02  0.11333713738E+03  0.12209555423E+03  0.00000000000E+00 0. -1.
<mgrwt>
<rscale>  0 0.94535691E+02</rscale>
<asrwt>0</asrwt>
<pdfrwt beam="2">  1        2 0.18653566E-02 0.94535691E+02</pdfrwt>
<pdfrwt beam="1">  1       -2 0.28349345E-01 0.94535691E+02</pdfrwt>
<totfact> 0.58825208E+04</totfact>
</mgrwt>
</event>
<event>
 5    1  0.6046470E+000  0.9084362E+02  0.7546771E-02  0.1300822E+00
          1   -1    0    0  501    0  0.00000000000E+00  0.00000000000E+00  0.60189297867E+02  0.60189297867E+02  0.00000000000E+00 0. -1.
         -1   -1    0    0    0  501 -0.00000000000E+00 -0.00000000000E+00 -0.34277536288E+02  0.34277536288E+02  0.00000000000E+00 0.  1.
         23    2    1    2    0    0  0.00000000000E+00  0.00000000000E+00  0.25911761579E+02  0.94466834155E+02  0.90843620399E+02 0.  0.
        -13    1    3    3    0    0 -0.28320802505E+02 -0.19521718323E+02 -0.17891636618E+02  0.38772103395E+02  0.00000000000E+00 0.  1.
         13    1    3    3    0    0  0.28320802505E+02  0.19521718323E+02  0.43803398197E+02  0.55694730760E+02  0.00000000000E+00 0. -1.
<mgrwt>
<rscale>  0 0.90843620E+02</rscale>
<asrwt>0</asrwt>
<pdfrwt beam="1">  1        1 0.92598920E-02 0.90843620E+02</pdfrwt>
<pdfrwt beam="2">  1       -1 0.52734671E-02 0.90843620E+02</pdfrwt>
<totfact> 0.97400884E+04</totfact>
</mgrwt>
</event>
<event>
 5    1  0.6046470E+000  0.9332932E+02  0.7546771E-02  0.1294984E+00
          1   -1    0    0  501    0  0.00000000000E+00  0.00000000000E+00  0.42984326618E+02  0.42984326618E+02  0.00000000000E+00 0. -1.
         -1   -1    0    0    0  501 -0.00000000000E+00 -0.00000000000E+00 -0.50660105240E+02  0.50660105240E+02  0.00000000000E+00 0.  1.
         23    2    1    2    0    0  0.00000000000E+00  0.00000000000E+00 -0.76757786224E+01  0.93644431858E+02  0.93329320369E+02 0.  0.
        -13    1    3    3    0    0  0.90642057886E+01 -0.29601017929E+02 -0.38872975394E+02  0.49693946362E+02  0.00000000000E+00 0.  1.
         13    1    3    3    0    0 -0.90642057886E+01  0.29601017929E+02  0.31197196771E+02  0.43950485497E+02  0.00000000000E+00 0. -1.
<mgrwt>
<rscale>  0 0.93329320E+02</rscale>
<asrwt>0</asrwt>
<pdfrwt beam="1">  1        1 0.66129733E-02 0.93329320E+02</pdfrwt>
<pdfrwt beam="2">  1       -1 0.77938623E-02 0.93329320E+02</pdfrwt>
<totfact> 0.85814037E+04</totfact>
</mgrwt>
</event>
<event>
 5    1  0.6046470E+000  0.9235095E+02  0.7546771E-02  0.1297256E+00
         -3   -1    0    0    0  501 -0.00000000000E+00  0.00000000000E+00  0.52082606556E+02  0.52082606556E+02  0.00000000000E+00 0.  1.
          3   -1    0    0  501    0  0.00000000000E+00 -0.00000000000E+00 -0.40938322618E+02  0.40938322618E+02  0.00000000000E+00 0. -1.
         23    2    1    2    0    0  0.00000000000E+00  0.00000000000E+00  0.11144283939E+02  0.93020929174E+02  0.92350951267E+02 0.  0.
        -13    1    3    3    0    0 -0.14945116854E+02 -0.26924187112E+02  0.40229698789E+02  0.50662580216E+02  0.00000000000E+00 0.  1.
         13    1    3    3    0    0  0.14945116854E+02  0.26924187112E+02 -0.29085414850E+02  0.42358348958E+02  0.00000000000E+00 0. -1.
<mgrwt>
<rscale>  0 0.92350951E+02</rscale>
<asrwt>0</asrwt>
<pdfrwt beam="2">  1        3 0.62982034E-02 0.92350951E+02</pdfrwt>
<pdfrwt beam="1">  1       -3 0.80127088E-02 0.92350951E+02</pdfrwt>
<totfact> 0.33989354E+04</totfact>
</mgrwt>
</event>
<event>
 5    1  0.6046470E+000  0.8848846E+02  0.7546771E-02  0.1306554E+00
         -2   -1    0    0    0  501 -0.00000000000E+00  0.00000000000E+00  0.22065768926E+02  0.22065768926E+02  0.00000000000E+00 0. -1.
          2   -1    0    0  501    0  0.00000000000E+00 -0.00000000000E+00 -0.88714416021E+02  0.88714416021E+02  0.00000000000E+00 0.  1.
         23    2    1    2    0    0  0.00000000000E+00  0.00000000000E+00 -0.66648647095E+02  0.11078018495E+03  0.88488458102E+02 0.  0.
        -13    1    3    3    0    0 -0.24421805474E+02 -0.27764192749E+02 -0.63740409281E+02  0.73689312366E+02  0.00000000000E+00 0.  1.
         13    1    3    3    0    0  0.24421805474E+02  0.27764192749E+02 -0.29082378140E+01  0.37090872581E+02  0.00000000000E+00 0. -1.
<mgrwt>
<rscale>  0 0.88488458E+02</rscale>
<asrwt>0</asrwt>
<pdfrwt beam="2">  1        2 0.13648371E-01 0.88488458E+02</pdfrwt>
<pdfrwt beam="1">  1       -2 0.33947338E-02 0.88488458E+02</pdfrwt>
<totfact> 0.12853879E+05</totfact>
</mgrwt>
</event>
<event>
 5    1  0.6046470E+000  0.8388910E+02  0.7546771E-02  0.1318363E+00
         -3   -1    0    0    0  501 -0.00000000000E+00  0.00000000000E+00  0.19171615118E+03  0.19171615118E+03  0.00000000000E+00 0.  1.
          3   -1    0    0  501    0  0.00000000000E+00 -0.00000000000E+00 -0.91768232892E+01  0.91768232892E+01  0.00000000000E+00 0. -1.
         23    2    1    2    0    0  0.00000000000E+00  0.00000000000E+00  0.18253932789E+03  0.20089297447E+03  0.83889099198E+02 0.  0.
        -13    1    3    3    0    0  0.16512412913E+02  0.35366777220E+02  0.54490522831E+02  0.67027500248E+02  0.00000000000E+00 0.  1.
         13    1    3    3    0    0 -0.16512412913E+02 -0.35366777220E+02  0.12804880506E+03  0.13386547422E+03  0.00000000000E+00 0. -1.
<mgrwt>
<rscale>  0 0.83889099E+02</rscale>
<asrwt>0</asrwt>
<pdfrwt beam="2">  1        3 0.14118191E-02 0.83889099E+02</pdfrwt>
<pdfrwt beam="1">  1       -3 0.29494790E-01 0.83889099E+02</pdfrwt>
<totfact> 0.35572454E+04</totfact>
</mgrwt>
</event>
<event>
 5    1  0.6046470E+000  0.8970499E+02  0.7546771E-02  0.1303568E+00
          1   -1    0    0  501    0  0.00000000000E+00  0.00000000000E+00  0.13540884368E+02  0.13540884368E+02  0.00000000000E+00 0. -1.
         -1   -1    0    0    0  501 -0.00000000000E+00 -0.00000000000E+00 -0.14856829751E+03  0.14856829751E+03  0.00000000000E+00 0.  1.
         23    2    1    2    0    0  0.00000000000E+00  0.00000000000E+00 -0.13502741314E+03  0.16210918188E+03  0.89704986201E+02 0.  0.
        -13    1    3    3    0    0  0.30128931094E+02  0.25818077352E+02 -0.10530925153E+03  0.11253605673E+03  0.00000000000E+00 0.  1.
         13    1    3    3    0    0 -0.30128931094E+02 -0.25818077352E+02 -0.29718161610E+02  0.49573125144E+02  0.00000000000E+00 0. -1.
<mgrwt>
<rscale>  0 0.89704986E+02</rscale>
<asrwt>0</asrwt>
<pdfrwt beam="1">  1        1 0.20832130E-02 0.89704986E+02</pdfrwt>
<pdfrwt beam="2">  1       -1 0.22856661E-01 0.89704986E+02</pdfrwt>
<totfact> 0.78185838E+04</totfact>
</mgrwt>
</event>
<event>
 5    1  0.6046470E+000  0.8880283E+02  0.7546771E-02  0.1305777E+00
          1   -1    0    0  501    0  0.00000000000E+00  0.00000000000E+00  0.14757913025E+02  0.14757913025E+02  0.00000000000E+00 0. -1.
         -1   -1    0    0    0  501 -0.00000000000E+00 -0.00000000000E+00 -0.13358837493E+03  0.13358837493E+03  0.00000000000E+00 0.  1.
         23    2    1    2    0    0  0.00000000000E+00  0.00000000000E+00 -0.11883046191E+03  0.14834628796E+03  0.88802829200E+02 0.  0.
        -13    1    3    3    0    0 -0.13796509773E+01  0.44361291972E+02 -0.57264250774E+02  0.72450135120E+02  0.00000000000E+00 0. -1.
         13    1    3    3    0    0  0.13796509773E+01 -0.44361291972E+02 -0.61566211136E+02  0.75896152840E+02  0.00000000000E+00 0.  1.
<mgrwt>
<rscale>  0 0.88802829E+02</rscale>
<asrwt>0</asrwt>
<pdfrwt beam="1">  1        1 0.22704482E-02 0.88802829E+02</pdfrwt>
<pdfrwt beam="2">  1       -1 0.20552057E-01 0.88802829E+02</pdfrwt>
<totfact> 0.82193776E+04</totfact>
</mgrwt>
</event>
<event>
 5    1  0.6046470E+000  0.1005355E+03  0.7546771E-02  0.1279174E+00
          1   -1    0    0  501    0  0.00000000000E+00  0.00000000000E+00  0.10780038970E+03  0.10780038970E+03  0.00000000000E+00 0. -1.
         -1   -1    0    0    0  501 -0.00000000000E+00 -0.00000000000E+00 -0.23440033784E+02  0.23440033784E+02  0.00000000000E+00 0.  1.
         23    2    1    2    0    0  0.00000000000E+00  0.00000000000E+00  0.84360355919E+02  0.13124042349E+03  0.10053546193E+03 0.  0.
        -13    1    3    3    0    0 -0.30128773540E+02  0.17453157789E+02 -0.51487681679E+01  0.35197521581E+02  0.00000000000E+00 0.  1.
         13    1    3    3    0    0  0.30128773540E+02 -0.17453157789E+02  0.89509124087E+02  0.96042901907E+02  0.00000000000E+00 0. -1.
<mgrwt>
<rscale>  0 0.10053546E+03</rscale>
<asrwt>0</asrwt>
<pdfrwt beam="1">  1        1 0.16584675E-01 0.10053546E+03</pdfrwt>
<pdfrwt beam="2">  1       -1 0.36061591E-02 0.10053546E+03</pdfrwt>
<totfact> 0.80938072E+04</totfact>
</mgrwt>
</event>
<event>
 5    1  0.6046470E+000  0.9050193E+02  0.7546771E-02  0.1301641E+00
         -1   -1    0    0    0  501 -0.00000000000E+00  0.00000000000E+00  0.18719680149E+03  0.18719680149E+03  0.00000000000E+00 0.  1.
          1   -1    0    0  501    0  0.00000000000E+00 -0.00000000000E+00 -0.10938486462E+02  0.10938486462E+02  0.00000000000E+00 0. -1.
         23    2    1    2    0    0  0.00000000000E+00  0.00000000000E+00  0.17625831503E+03  0.19813528796E+03  0.90501926586E+02 0.  0.
        -13    1    3    3    0    0 -0.26809807762E+02  0.34974580058E+02  0.11063341703E+03  0.11908711100E+03  0.00000000000E+00 0.  1.
         13    1    3    3    0    0  0.26809807762E+02 -0.34974580058E+02  0.65624898000E+02  0.79048176955E+02  0.00000000000E+00 0. -1.
<mgrwt>
<rscale>  0 0.90501927E+02</rscale>
<asrwt>0</asrwt>
<pdfrwt beam="2">  1        1 0.16828442E-02 0.90501927E+02</pdfrwt>
<pdfrwt beam="1">  1       -1 0.28799506E-01 0.90501927E+02</pdfrwt>
<totfact> 0.72099702E+04</totfact>
</mgrwt>
</event>
<event>
 5    1  0.6046470E+000  0.8729540E+02  0.7546771E-02  0.1309537E+00
          2   -1    0    0  501    0  0.00000000000E+00  0.00000000000E+00  0.10263084253E+03  0.10263084253E+03  0.00000000000E+00 0.  1.
         -2   -1    0    0    0  501 -0.00000000000E+00 -0.00000000000E+00 -0.18562858479E+02  0.18562858479E+02  0.00000000000E+00 0. -1.
         23    2    1    2    0    0  0.00000000000E+00  0.00000000000E+00  0.84067984053E+02  0.12119370101E+03  0.87295402067E+02 0.  0.
        -13    1    3    3    0    0 -0.29673492420E+02  0.25916373162E+02  0.15951830330E+02  0.42504534360E+02  0.00000000000E+00 0. -1.
         13    1    3    3    0    0  0.29673492420E+02 -0.25916373162E+02  0.68116153722E+02  0.78689166651E+02  0.00000000000E+00 0.  1.
<mgrwt>
<rscale>  0 0.87295402E+02</rscale>
<asrwt>0</asrwt>
<pdfrwt beam="1">  1        2 0.15789360E-01 0.87295402E+02</pdfrwt>
<pdfrwt beam="2">  1       -2 0.28558244E-02 0.87295402E+02</pdfrwt>
<totfact> 0.13930317E+05</totfact>
</mgrwt>
</event>
<event>
 5    1  0.6046470E+000  0.9179865E+02  0.7546771E-02  0.1298554E+00
         -2   -1    0    0    0  501 -0.00000000000E+00  0.00000000000E+00  0.46360796952E+02  0.46360796952E+02  0.00000000000E+00 0.  1.
          2   -1    0    0  501    0  0.00000000000E+00 -0.00000000000E+00 -0.45442447901E+02  0.45442447901E+02  0.00000000000E+00 0. -1.
         23    2    1    2    0    0  0.00000000000E+00  0.00000000000E+00  0.91834905065E+00  0.91803244853E+02  0.91798651409E+02 0.  0.
        -13    1    3    3    0    0 -0.45022291606E+02  0.86650299265E+01  0.26176650391E+01  0.45923214775E+02  0.00000000000E+00 0.  1.
         13    1    3    3    0    0  0.45022291606E+02 -0.86650299265E+01 -0.16993159884E+01  0.45880030077E+02  0.00000000000E+00 0. -1.
<mgrwt>
<rscale>  0 0.91798651E+02</rscale>
<asrwt>0</asrwt>
<pdfrwt beam="2">  1        2 0.69911458E-02 0.91798651E+02</pdfrwt>
<pdfrwt beam="1">  1       -2 0.71324303E-02 0.91798651E+02</pdfrwt>
<totfact> 0.96684555E+04</totfact>
</mgrwt>
</event>
<event>
 5    1  0.6046470E+000  0.7833891E+02  0.7546771E-02  0.1333833E+00
         -3   -1    0    0    0  501 -0.00000000000E+00  0.00000000000E+00  0.56776369124E+02  0.56776369124E+02  0.00000000000E+00 0.  1.
          3   -1    0    0  501    0  0.00000000000E+00 -0.00000000000E+00 -0.27022618470E+02  0.27022618470E+02  0.00000000000E+00 0. -1.
         23    2    1    2    0    0  0.00000000000E+00  0.00000000000E+00  0.29753750654E+02  0.83798987594E+02  0.78338908875E+02 0.  0.
        -13    1    3    3    0    0  0.31674335280E+02 -0.19875509284E+02  0.24045994024E+01  0.37471075285E+02  0.00000000000E+00 0.  1.
         13    1    3    3    0    0 -0.31674335280E+02  0.19875509284E+02  0.27349151251E+02  0.46327912309E+02  0.00000000000E+00 0. -1.
<mgrwt>
<rscale>  0 0.78338909E+02</rscale>
<asrwt>0</asrwt>
<pdfrwt beam="2">  1        3 0.41573260E-02 0.78338909E+02</pdfrwt>
<pdfrwt beam="1">  1       -3 0.87348260E-02 0.78338909E+02</pdfrwt>
<totfact> 0.54106028E+04</totfact>
</mgrwt>
</event>
<event>
 5    1  0.6046470E+000  0.1031048E+03  0.7546771E-02  0.1273899E+00
          3   -1    0    0  501    0  0.00000000000E+00  0.00000000000E+00  0.11371369760E+03  0.11371369760E+03  0.00000000000E+00 0. -1.
         -3   -1    0    0    0  501 -0.00000000000E+00 -0.00000000000E+00 -0.23371430052E+02  0.23371430052E+02  0.00000000000E+00 0.  1.
         23    2    1    2    0    0  0.00000000000E+00  0.00000000000E+00  0.90342267545E+02  0.13708512765E+03  0.10310483460E+03 0.  0.
        -13    1    3    3    0    0 -0.49317135056E+02  0.11894421796E+02  0.32985808635E+02  0.60512152922E+02  0.00000000000E+00 0.  1.
         13    1    3    3    0    0  0.49317135056E+02 -0.11894421796E+02  0.57356458910E+02  0.76572974728E+02  0.00000000000E+00 0. -1.
<mgrwt>
<rscale>  0 0.10310483E+03</rscale>
<asrwt>0</asrwt>
<pdfrwt beam="1">  1        3 0.17494415E-01 0.10310483E+03</pdfrwt>
<pdfrwt beam="2">  1       -3 0.35956047E-02 0.10310483E+03</pdfrwt>
<totfact> 0.22948378E+04</totfact>
</mgrwt>
</event>
<event>
 5    1  0.6046470E+000  0.9343544E+02  0.7546771E-02  0.1294739E+00
         -1   -1    0    0    0  501 -0.00000000000E+00  0.00000000000E+00  0.99026905475E+01  0.99026905475E+01  0.00000000000E+00 0.  1.
          1   -1    0    0  501    0  0.00000000000E+00 -0.00000000000E+00 -0.22039923263E+03  0.22039923263E+03  0.00000000000E+00 0. -1.
         23    2    1    2    0    0  0.00000000000E+00  0.00000000000E+00 -0.21049654209E+03  0.23030192318E+03  0.93435440764E+02 0.  0.
        -13    1    3    3    0    0 -0.25972777128E+02  0.27235288578E+02 -0.37021188311E+02  0.52791234875E+02  0.00000000000E+00 0.  1.
         13    1    3    3    0    0  0.25972777128E+02 -0.27235288578E+02 -0.17347535378E+03  0.17751068831E+03  0.00000000000E+00 0. -1.
<mgrwt>
<rscale>  0 0.93435441E+02</rscale>
<asrwt>0</asrwt>
<pdfrwt beam="2">  1        1 0.33907571E-01 0.93435441E+02</pdfrwt>
<pdfrwt beam="1">  1       -1 0.15234910E-02 0.93435441E+02</pdfrwt>
<totfact> 0.11299918E+05</totfact>
</mgrwt>
</event>
<event>
 5    1  0.6046470E+000  0.9249762E+02  0.7546771E-02  0.1296914E+00
          2   -1    0    0  501    0  0.00000000000E+00  0.00000000000E+00  0.10669473255E+02  0.10669473255E+02  0.00000000000E+00 0. -1.
         -2   -1    0    0    0  501 -0.00000000000E+00 -0.00000000000E+00 -0.20047405360E+03  0.20047405360E+03  0.00000000000E+00 0.  1.
         23    2    1    2    0    0  0.00000000000E+00  0.00000000000E+00 -0.18980458034E+03  0.21114352686E+03  0.92497622743E+02 0.  0.
        -13    1    3    3    0    0  0.52985362222E+01 -0.41139462209E+02 -0.48208962293E+02  0.63597436130E+02  0.00000000000E+00 0. -1.
         13    1    3    3    0    0 -0.52985362222E+01  0.41139462209E+02 -0.14159561805E+03  0.14754609073E+03  0.00000000000E+00 0.  1.
<mgrwt>
<rscale>  0 0.92497623E+02</rscale>
<asrwt>0</asrwt>
<pdfrwt beam="1">  1        2 0.16414573E-02 0.92497623E+02</pdfrwt>
<pdfrwt beam="2">  1       -2 0.30842164E-01 0.92497623E+02</pdfrwt>
<totfact> 0.60007925E+04</totfact>
</mgrwt>
</event>
<event>
 5    1  0.6046470E+000  0.9078609E+02  0.7546771E-02  0.1300959E+00
         -1   -1    0    0    0  501 -0.00000000000E+00  0.00000000000E+00  0.94781244124E+02  0.94781244124E+02  0.00000000000E+00 0.  1.
          1   -1    0    0  501    0  0.00000000000E+00 -0.00000000000E+00 -0.21739832049E+02  0.21739832049E+02  0.00000000000E+00 0. -1.
         23    2    1    2    0    0  0.00000000000E+00  0.00000000000E+00  0.73041412076E+02  0.11652107617E+03  0.90786085467E+02 0.  0.
        -13    1    3    3    0    0  0.20120631084E+02  0.86615432627E+01  0.87548322212E+02  0.90247276131E+02  0.00000000000E+00 0.  1.
         13    1    3    3    0    0 -0.20120631084E+02 -0.86615432627E+01 -0.14506910137E+02  0.26273800042E+02  0.00000000000E+00 0. -1.
<mgrwt>
<rscale>  0 0.90786085E+02</rscale>
<asrwt>0</asrwt>
<pdfrwt beam="2">  1        1 0.33445896E-02 0.90786085E+02</pdfrwt>
<pdfrwt beam="1">  1       -1 0.14581730E-01 0.90786085E+02</pdfrwt>
<totfact> 0.83087960E+04</totfact>
</mgrwt>
</event>
<event>
 5    1  0.6046470E+000  0.9033463E+02  0.7546771E-02  0.1302043E+00
          3   -1    0    0  501    0  0.00000000000E+00  0.00000000000E+00  0.15747982524E+02  0.15747982524E+02  0.00000000000E+00 0. -1.
         -3   -1    0    0    0  501 -0.00000000000E+00 -0.00000000000E+00 -0.12954589099E+03  0.12954589099E+03  0.00000000000E+00 0.  1.
         23    2    1    2    0    0  0.00000000000E+00  0.00000000000E+00 -0.11379790847E+03  0.14529387352E+03  0.90334631841E+02 0.  0.
        -13    1    3    3    0    0  0.26722572630E+02 -0.55364873566E+01  0.98851333664E+00  0.27307979398E+02  0.00000000000E+00 0. -1.
         13    1    3    3    0    0 -0.26722572630E+02  0.55364873566E+01 -0.11478642181E+03  0.11798589412E+03  0.00000000000E+00 0.  1.
<mgrwt>
<rscale>  0 0.90334632E+02</rscale>
<asrwt>0</asrwt>
<pdfrwt beam="1">  1        3 0.24227666E-02 0.90334632E+02</pdfrwt>
<pdfrwt beam="2">  1       -3 0.19930137E-01 0.90334632E+02</pdfrwt>
<totfact> 0.32401765E+04</totfact>
</mgrwt>
</event>
<event>
 5    1  0.6046470E+000  0.9018039E+02  0.7546771E-02  0.1302415E+00
          1   -1    0    0  501    0  0.00000000000E+00  0.00000000000E+00  0.18901120171E+03  0.18901120171E+03  0.00000000000E+00 0. -1.
         -1   -1    0    0    0  501 -0.00000000000E+00 -0.00000000000E+00 -0.10756640696E+02  0.10756640696E+02  0.00000000000E+00 0.  1.
         23    2    1    2    0    0  0.00000000000E+00  0.00000000000E+00  0.17825456101E+03  0.19976784240E+03  0.90180387762E+02 0.  0.
        -13    1    3    3    0    0 -0.32578600181E+02  0.21706875008E+02  0.39565517683E+02  0.55659534690E+02  0.00000000000E+00 0.  1.
         13    1    3    3    0    0  0.32578600181E+02 -0.21706875008E+02  0.13868904333E+03  0.14410830771E+03  0.00000000000E+00 0. -1.
<mgrwt>
<rscale>  0 0.90180388E+02</rscale>
<asrwt>0</asrwt>
<pdfrwt beam="1">  1        1 0.29078644E-01 0.90180388E+02</pdfrwt>
<pdfrwt beam="2">  1       -1 0.16548679E-02 0.90180388E+02</pdfrwt>
<totfact> 0.12062189E+05</totfact>
</mgrwt>
</event>
<event>
 5    1  0.6046470E+000  0.9120401E+02  0.7546771E-02  0.1299962E+00
         -2   -1    0    0    0  501 -0.00000000000E+00  0.00000000000E+00  0.83189401648E+01  0.83189401648E+01  0.00000000000E+00 0.  1.
          2   -1    0    0  501    0  0.00000000000E+00 -0.00000000000E+00 -0.24997687452E+03  0.24997687452E+03  0.00000000000E+00 0. -1.
         23    2    1    2    0    0  0.00000000000E+00  0.00000000000E+00 -0.24165793435E+03  0.25829581468E+03  0.91204005651E+02 0.  0.
        -13    1    3    3    0    0  0.32425414506E+01 -0.43440034798E+02 -0.82623143996E+02  0.93403076085E+02  0.00000000000E+00 0.  1.
         13    1    3    3    0    0 -0.32425414506E+01  0.43440034798E+02 -0.15903479036E+03  0.16489273860E+03  0.00000000000E+00 0. -1.
<mgrwt>
<rscale>  0 0.91204006E+02</rscale>
<asrwt>0</asrwt>
<pdfrwt beam="2">  1        2 0.38457974E-01 0.91204006E+02</pdfrwt>
<pdfrwt beam="1">  1       -2 0.12798372E-02 0.91204006E+02</pdfrwt>
<totfact> 0.16772070E+05</totfact>
</mgrwt>
</event>
<event>
 5    1  0.6046470E+000  0.8959366E+02  0.7546771E-02  0.1303839E+00
          3   -1    0    0  501    0  0.00000000000E+00  0.00000000000E+00  0.24391504880E+02  0.24391504880E+02  0.00000000000E+00 0. -1.
         -3   -1    0    0    0  501 -0.00000000000E+00 -0.00000000000E+00 -0.82272749110E+02  0.82272749110E+02  0.00000000000E+00 0.  1.
         23    2    1    2    0    0  0.00000000000E+00  0.00000000000E+00 -0.57881244230E+02  0.10666425399E+03  0.89593664093E+02 0.  0.
        -13    1    3    3    0    0 -0.35340637202E+02  0.22642437568E+02 -0.47579811839E+02  0.63446663518E+02  0.00000000000E+00 0.  1.
         13    1    3    3    0    0  0.35340637202E+02 -0.22642437568E+02 -0.10301432390E+02  0.43217590472E+02  0.00000000000E+00 0. -1.
<mgrwt>
<rscale>  0 0.89593664E+02</rscale>
<asrwt>0</asrwt>
<pdfrwt beam="1">  1        3 0.37525392E-02 0.89593664E+02</pdfrwt>
<pdfrwt beam="2">  1       -3 0.12657346E-01 0.89593664E+02</pdfrwt>
<totfact> 0.35849223E+04</totfact>
</mgrwt>
</event>
<event>
 5    1  0.6046470E+000  0.1033917E+03  0.7546771E-02  0.1273321E+00
         -2   -1    0    0    0  501 -0.00000000000E+00  0.00000000000E+00  0.44274142276E+02  0.44274142276E+02  0.00000000000E+00 0.  1.
          2   -1    0    0  501    0  0.00000000000E+00 -0.00000000000E+00 -0.60361606338E+02  0.60361606338E+02  0.00000000000E+00 0. -1.
         23    2    1    2    0    0  0.00000000000E+00  0.00000000000E+00 -0.16087464062E+02  0.10463574861E+03  0.10339165048E+03 0.  0.
        -13    1    3    3    0    0 -0.95078750206E+01 -0.86287105240E+01  0.42634808093E+02  0.44526185485E+02  0.00000000000E+00 0.  1.
         13    1    3    3    0    0  0.95078750206E+01  0.86287105240E+01 -0.58722272155E+02  0.60109563130E+02  0.00000000000E+00 0. -1.
<mgrwt>
<rscale>  0 0.10339165E+03</rscale>
<asrwt>0</asrwt>
<pdfrwt beam="2">  1        2 0.92864009E-02 0.10339165E+03</pdfrwt>
<pdfrwt beam="1">  1       -2 0.68114065E-02 0.10339165E+03</pdfrwt>
<totfact> 0.74202718E+04</totfact>
</mgrwt>
</event>
<event>
 5    1  0.6046470E+000  0.9112559E+02  0.7546771E-02  0.1300149E+00
         -1   -1    0    0    0  501 -0.00000000000E+00  0.00000000000E+00  0.10739392282E+03  0.10739392282E+03  0.00000000000E+00 0.  1.
          1   -1    0    0  501    0  0.00000000000E+00 -0.00000000000E+00 -0.19330407181E+02  0.19330407181E+02  0.00000000000E+00 0. -1.
         23    2    1    2    0    0  0.00000000000E+00  0.00000000000E+00  0.88063515639E+02  0.12672433000E+03  0.91125589311E+02 0.  0.
        -13    1    3    3    0    0  0.23727699664E+02  0.34730241134E+02  0.68389080446E+02  0.80288602584E+02  0.00000000000E+00 0. -1.
         13    1    3    3    0    0 -0.23727699664E+02 -0.34730241134E+02  0.19674435194E+02  0.46435727417E+02  0.00000000000E+00 0.  1.
<mgrwt>
<rscale>  0 0.91125589E+02</rscale>
<asrwt>0</asrwt>
<pdfrwt beam="2">  1        1 0.29739089E-02 0.91125589E+02</pdfrwt>
<pdfrwt beam="1">  1       -1 0.16522142E-01 0.91125589E+02</pdfrwt>
<totfact> 0.80396210E+04</totfact>
</mgrwt>
</event>
<event>
 5    1  0.6046470E+000  0.9245213E+02  0.7546771E-02  0.1297020E+00
          1   -1    0    0  501    0  0.00000000000E+00  0.00000000000E+00  0.10977394206E+03  0.10977394206E+03  0.00000000000E+00 0. -1.
         -1   -1    0    0    0  501 -0.00000000000E+00 -0.00000000000E+00 -0.19465902988E+02  0.19465902988E+02  0.00000000000E+00 0.  1.
         23    2    1    2    0    0  0.00000000000E+00  0.00000000000E+00  0.90308039073E+02  0.12923984505E+03  0.92452126137E+02 0.  0.
        -13    1    3    3    0    0 -0.92153531109E+01  0.39735204528E+02  0.14750187931E+02  0.43374845888E+02  0.00000000000E+00 0.  1.
         13    1    3    3    0    0  0.92153531109E+01 -0.39735204528E+02  0.75557851142E+02  0.85864999162E+02  0.00000000000E+00 0. -1.
<mgrwt>
<rscale>  0 0.92452126E+02</rscale>
<asrwt>0</asrwt>
<pdfrwt beam="1">  1        1 0.16888298E-01 0.92452126E+02</pdfrwt>
<pdfrwt beam="2">  1       -1 0.29947544E-02 0.92452126E+02</pdfrwt>
<totfact> 0.10216341E+05</totfact>
</mgrwt>
</event>
<event>
 5    1  0.6046470E+000  0.9432650E+02  0.7546771E-02  0.1292700E+00
         -2   -1    0    0    0  501 -0.00000000000E+00  0.00000000000E+00  0.53705683645E+02  0.53705683645E+02  0.00000000000E+00 0.  1.
          2   -1    0    0  501    0  0.00000000000E+00 -0.00000000000E+00 -0.41417812348E+02  0.41417812348E+02  0.00000000000E+00 0. -1.
         23    2    1    2    0    0  0.00000000000E+00  0.00000000000E+00  0.12287871297E+02  0.95123495993E+02  0.94326495265E+02 0.  0.
        -13    1    3    3    0    0 -0.62388669327E+01  0.38924146958E+02 -0.19966126651E+02  0.44188900082E+02  0.00000000000E+00 0. -1.
         13    1    3    3    0    0  0.62388669327E+01 -0.38924146958E+02  0.32253997948E+02  0.50934595911E+02  0.00000000000E+00 0.  1.
<mgrwt>
<rscale>  0 0.94326495E+02</rscale>
<asrwt>0</asrwt>
<pdfrwt beam="2">  1        2 0.63719711E-02 0.94326495E+02</pdfrwt>
<pdfrwt beam="1">  1       -2 0.82624129E-02 0.94326495E+02</pdfrwt>
<totfact> 0.87217467E+04</totfact>
</mgrwt>
</event>
<event>
 5    1  0.6046470E+000  0.9608454E+02  0.7546771E-02  0.1288752E+00
          1   -1    0    0  501    0  0.00000000000E+00  0.00000000000E+00  0.32820408968E+03  0.32820408968E+03  0.00000000000E+00 0. -1.
         -1   -1    0    0    0  501 -0.00000000000E+00 -0.00000000000E+00 -0.70323919374E+01  0.70323919374E+01  0.00000000000E+00 0.  1.
         23    2    1    2    0    0  0.00000000000E+00  0.00000000000E+00  0.32117169774E+03  0.33523648162E+03  0.96084541818E+02 0.  0.
        -13    1    3    3    0    0 -0.34087384656E+02 -0.28412663543E+02  0.96363079058E+02  0.10608992529E+03  0.00000000000E+00 0.  1.
         13    1    3    3    0    0  0.34087384656E+02  0.28412663543E+02  0.22480861869E+03  0.22914655633E+03  0.00000000000E+00 0. -1.
<mgrwt>
<rscale>  0 0.96084542E+02</rscale>
<asrwt>0</asrwt>
<pdfrwt beam="1">  1        1 0.50492925E-01 0.96084542E+02</pdfrwt>
<pdfrwt beam="2">  1       -1 0.10819067E-02 0.96084542E+02</pdfrwt>
<totfact> 0.11328159E+05</totfact>
</mgrwt>
</event>
<event>
 5    1  0.6046470E+000  0.9519766E+02  0.7546771E-02  0.1290732E+00
         -3   -1    0    0    0  501 -0.00000000000E+00  0.00000000000E+00  0.58494062719E+02  0.58494062719E+02  0.00000000000E+00 0.  1.
          3   -1    0    0  501    0  0.00000000000E+00 -0.00000000000E+00 -0.38732968354E+02  0.38732968354E+02  0.00000000000E+00 0. -1.
         23    2    1    2    0    0  0.00000000000E+00  0.00000000000E+00  0.19761094365E+02  0.97227031072E+02  0.95197661319E+02 0.  0.
        -13    1    3    3    0    0 -0.17503526402E+02  0.36091770151E+02  0.36052179971E+02  0.53932819227E+02  0.00000000000E+00 0.  1.
         13    1    3    3    0    0  0.17503526402E+02 -0.36091770151E+02 -0.16291085606E+02  0.43294211846E+02  0.00000000000E+00 0. -1.
<mgrwt>
<rscale>  0 0.95197661E+02</rscale>
<asrwt>0</asrwt>
<pdfrwt beam="2">  1        3 0.59589182E-02 0.95197661E+02</pdfrwt>
<pdfrwt beam="1">  1       -3 0.89990866E-02 0.95197661E+02</pdfrwt>
<totfact> 0.30998715E+04</totfact>
</mgrwt>
</event>
<event>
 5    1  0.6046470E+000  0.9119938E+02  0.7546771E-02  0.1299973E+00
         -2   -1    0    0    0  501 -0.00000000000E+00  0.00000000000E+00  0.23160298421E+03  0.23160298421E+03  0.00000000000E+00 0.  1.
          2   -1    0    0  501    0  0.00000000000E+00 -0.00000000000E+00 -0.89779996083E+01  0.89779996083E+01  0.00000000000E+00 0. -1.
         23    2    1    2    0    0  0.00000000000E+00  0.00000000000E+00  0.22262498460E+03  0.24058098382E+03  0.91199375031E+02 0.  0.
        -13    1    3    3    0    0  0.14660466556E+02 -0.31653130534E+02  0.33840568448E+02  0.48600761570E+02  0.00000000000E+00 0. -1.
         13    1    3    3    0    0 -0.14660466556E+02  0.31653130534E+02  0.18878441615E+03  0.19198022225E+03  0.00000000000E+00 0.  1.
<mgrwt>
<rscale>  0 0.91199375E+02</rscale>
<asrwt>0</asrwt>
<pdfrwt beam="2">  1        2 0.13812309E-02 0.91199375E+02</pdfrwt>
<pdfrwt beam="1">  1       -2 0.35631224E-01 0.91199375E+02</pdfrwt>
<totfact> 0.58270497E+04</totfact>
</mgrwt>
</event>
<event>
 5    1  0.6046470E+000  0.9127310E+02  0.7546771E-02  0.1299798E+00
         -1   -1    0    0    0  501 -0.00000000000E+00  0.00000000000E+00  0.92811095031E+02  0.92811095031E+02  0.00000000000E+00 0.  1.
          1   -1    0    0  501    0  0.00000000000E+00 -0.00000000000E+00 -0.22440147776E+02  0.22440147776E+02  0.00000000000E+00 0. -1.
         23    2    1    2    0    0  0.00000000000E+00  0.00000000000E+00  0.70370947255E+02  0.11525124281E+03  0.91273099822E+02 0.  0.
        -13    1    3    3    0    0 -0.19773908709E+02 -0.28845276841E+01  0.86992919955E+02  0.89258591115E+02  0.00000000000E+00 0.  1.
         13    1    3    3    0    0  0.19773908709E+02  0.28845276841E+01 -0.16621972699E+02  0.25992651692E+02  0.00000000000E+00 0. -1.
<mgrwt>
<rscale>  0 0.91273100E+02</rscale>
<asrwt>0</asrwt>
<pdfrwt beam="2">  1        1 0.34523305E-02 0.91273100E+02</pdfrwt>
<pdfrwt beam="1">  1       -1 0.14278630E-01 0.91273100E+02</pdfrwt>
<totfact> 0.82264204E+04</totfact>
</mgrwt>
</event>
<event>
 5    1  0.6046470E+000  0.8921918E+02  0.7546771E-02  0.1304754E+00
          2   -1    0    0  501    0  0.00000000000E+00  0.00000000000E+00  0.47250202412E+03  0.47250202412E+03  0.00000000000E+00 0. -1.
         -2   -1    0    0    0  501 -0.00000000000E+00 -0.00000000000E+00 -0.42116554846E+01  0.42116554846E+01  0.00000000000E+00 0.  1.
         23    2    1    2    0    0  0.00000000000E+00  0.00000000000E+00  0.46829036863E+03  0.47671367960E+03  0.89219184963E+02 0.  0.
        -13    1    3    3    0    0 -0.43190908159E+02  0.10433341129E+02  0.21296936268E+03  0.21755518517E+03  0.00000000000E+00 0.  1.
         13    1    3    3    0    0  0.43190908159E+02 -0.10433341129E+02  0.25532100595E+03  0.25915849443E+03  0.00000000000E+00 0. -1.
<mgrwt>
<rscale>  0 0.89219185E+02</rscale>
<asrwt>0</asrwt>
<pdfrwt beam="1">  1        2 0.72692577E-01 0.89219185E+02</pdfrwt>
<pdfrwt beam="2">  1       -2 0.64794737E-03 0.89219185E+02</pdfrwt>
<totfact> 0.22400577E+05</totfact>
</mgrwt>
</event>
<event>
 5    1  0.6046470E+000  0.9149845E+02  0.7546771E-02  0.1299263E+00
         -2   -1    0    0    0  501 -0.00000000000E+00  0.00000000000E+00  0.21013061652E+02  0.21013061652E+02  0.00000000000E+00 0.  1.
          2   -1    0    0  501    0  0.00000000000E+00 -0.00000000000E+00 -0.99604324542E+02  0.99604324542E+02  0.00000000000E+00 0. -1.
         23    2    1    2    0    0  0.00000000000E+00  0.00000000000E+00 -0.78591262890E+02  0.12061738619E+03  0.91498454904E+02 0.  0.
        -13    1    3    3    0    0 -0.33190226394E+02 -0.31333691552E+02 -0.43380161830E+02  0.62970070626E+02  0.00000000000E+00 0. -1.
         13    1    3    3    0    0  0.33190226394E+02  0.31333691552E+02 -0.35211101060E+02  0.57647315568E+02  0.00000000000E+00 0.  1.
<mgrwt>
<rscale>  0 0.91498455E+02</rscale>
<asrwt>0</asrwt>
<pdfrwt beam="2">  1        2 0.15323742E-01 0.91498455E+02</pdfrwt>
<pdfrwt beam="1">  1       -2 0.32327788E-02 0.91498455E+02</pdfrwt>
<totfact> 0.12134464E+05</totfact>
</mgrwt>
</event>
<event>
 5    1  0.6046470E+000  0.9108171E+02  0.7546771E-02  0.1300253E+00
         -2   -1    0    0    0  501 -0.00000000000E+00  0.00000000000E+00  0.12072013476E+03  0.12072013476E+03  0.00000000000E+00 0.  1.
          2   -1    0    0  501    0  0.00000000000E+00 -0.00000000000E+00 -0.17179980882E+02  0.17179980882E+02  0.00000000000E+00 0. -1.
         23    2    1    2    0    0  0.00000000000E+00  0.00000000000E+00  0.10354015387E+03  0.13790011564E+03  0.91081712921E+02 0.  0.
        -13    1    3    3    0    0 -0.31066141553E+02 -0.17153245899E+02  0.94983015836E+02  0.10139581990E+03  0.00000000000E+00 0.  1.
         13    1    3    3    0    0  0.31066141553E+02  0.17153245899E+02  0.85571380370E+01  0.36504295737E+02  0.00000000000E+00 0. -1.
<mgrwt>
<rscale>  0 0.91081713E+02</rscale>
<asrwt>0</asrwt>
<pdfrwt beam="2">  1        2 0.26430741E-02 0.91081713E+02</pdfrwt>
<pdfrwt beam="1">  1       -2 0.18572328E-01 0.91081713E+02</pdfrwt>
<totfact> 0.75468467E+04</totfact>
</mgrwt>
</event>
<event>
 5    1  0.6046470E+000  0.9181066E+02  0.7546771E-02  0.1298525E+00
         -2   -1    0    0    0  501 -0.00000000000E+00  0.00000000000E+00  0.23816702404E+03  0.23816702404E+03  0.00000000000E+00 0.  1.
          2   -1    0    0  501    0  0.00000000000E+00 -0.00000000000E+00 -0.88479898688E+01  0.88479898688E+01  0.00000000000E+00 0. -1.
         23    2    1    2    0    0  0.00000000000E+00  0.00000000000E+00  0.22931903417E+03  0.24701501391E+03  0.91810662034E+02 0.  0.
        -13    1    3    3    0    0 -0.14048173451E+02 -0.39768499459E+02  0.65902007031E+02  0.78242950208E+02  0.00000000000E+00 0.  1.
         13    1    3    3    0    0  0.14048173451E+02  0.39768499459E+02  0.16341702714E+03  0.16877206370E+03  0.00000000000E+00 0. -1.
<mgrwt>
<rscale>  0 0.91810662E+02</rscale>
<asrwt>0</asrwt>
<pdfrwt beam="2">  1        2 0.13612294E-02 0.91810662E+02</pdfrwt>
<pdfrwt beam="1">  1       -2 0.36641076E-01 0.91810662E+02</pdfrwt>
<totfact> 0.56517641E+04</totfact>
</mgrwt>
</event>
<event>
 5    1  0.6046470E+000  0.9990797E+02  0.7546771E-02  0.1280490E+00
         -2   -1    0    0    0  501 -0.00000000000E+00  0.00000000000E+00  0.97268422617E+02  0.97268422617E+02  0.00000000000E+00 0.  1.
          2   -1    0    0  501    0  0.00000000000E+00 -0.00000000000E+00 -0.25654786571E+02  0.25654786571E+02  0.00000000000E+00 0. -1.
         23    2    1    2    0    0  0.00000000000E+00  0.00000000000E+00  0.71613636046E+02  0.12292320919E+03  0.99907970098E+02 0.  0.
        -13    1    3    3    0    0  0.48248527634E+02  0.66196412634E+01  0.22124825560E+02  0.53490634464E+02  0.00000000000E+00 0. -1.
         13    1    3    3    0    0 -0.48248527634E+02 -0.66196412634E+01  0.49488810486E+02  0.69432574723E+02  0.00000000000E+00 0.  1.
<mgrwt>
<rscale>  0 0.99907970E+02</rscale>
<asrwt>0</asrwt>
<pdfrwt beam="2">  1        2 0.39468903E-02 0.99907970E+02</pdfrwt>
<pdfrwt beam="1">  1       -2 0.14964373E-01 0.99907970E+02</pdfrwt>
<totfact> 0.64119871E+04</totfact>
</mgrwt>
</event>
<event>
 5    1  0.6046470E+000  0.9668949E+02  0.7546771E-02  0.1287416E+00
         -1   -1    0    0    0  501 -0.00000000000E+00  0.00000000000E+00  0.23358983291E+03  0.23358983291E+03  0.00000000000E+00 0.  1.
          1   -1    0    0  501    0  0.00000000000E+00 -0.00000000000E+00 -0.10005633461E+02  0.10005633461E+02  0.00000000000E+00 0. -1.
         23    2    1    2    0    0  0.00000000000E+00  0.00000000000E+00  0.22358419945E+03  0.24359546637E+03  0.96689487503E+02 0.  0.
        -13    1    3    3    0    0 -0.40409269158E+02 -0.14719463746E+02  0.56158038674E+02  0.70733987266E+02  0.00000000000E+00 0. -1.
         13    1    3    3    0    0  0.40409269158E+02  0.14719463746E+02  0.16742616077E+03  0.17286147910E+03  0.00000000000E+00 0.  1.
<mgrwt>
<rscale>  0 0.96689488E+02</rscale>
<asrwt>0</asrwt>
<pdfrwt beam="2">  1        1 0.15393284E-02 0.96689488E+02</pdfrwt>
<pdfrwt beam="1">  1       -1 0.35936893E-01 0.96689488E+02</pdfrwt>
<totfact> 0.56803462E+04</totfact>
</mgrwt>
</event>
<event>
 5    1  0.6046470E+000  0.9076193E+02  0.7546771E-02  0.1301017E+00
         -2   -1    0    0    0  501 -0.00000000000E+00  0.00000000000E+00  0.72867718752E+02  0.72867718752E+02  0.00000000000E+00 0.  1.
          2   -1    0    0  501    0  0.00000000000E+00 -0.00000000000E+00 -0.28262609184E+02  0.28262609184E+02  0.00000000000E+00 0. -1.
         23    2    1    2    0    0  0.00000000000E+00  0.00000000000E+00  0.44605109568E+02  0.10113032794E+03  0.90761927199E+02 0.  0.
        -13    1    3    3    0    0  0.19827730858E+02  0.15367064824E+02 -0.19834864606E+02  0.31979797470E+02  0.00000000000E+00 0. -1.
         13    1    3    3    0    0 -0.19827730858E+02 -0.15367064824E+02  0.64439974174E+02  0.69150530466E+02  0.00000000000E+00 0.  1.
<mgrwt>
<rscale>  0 0.90761927E+02</rscale>
<asrwt>0</asrwt>
<pdfrwt beam="2">  1        2 0.43480938E-02 0.90761927E+02</pdfrwt>
<pdfrwt beam="1">  1       -2 0.11210418E-01 0.90761927E+02</pdfrwt>
<totfact> 0.88251769E+04</totfact>
</mgrwt>
</event>
<event>
 5    1  0.6046470E+000  0.9102515E+02  0.7546771E-02  0.1300388E+00
         -2   -1    0    0    0  501 -0.00000000000E+00  0.00000000000E+00  0.54627932692E+01  0.54627932692E+01  0.00000000000E+00 0.  1.
          2   -1    0    0  501    0  0.00000000000E+00 -0.00000000000E+00 -0.37918226522E+03  0.37918226522E+03  0.00000000000E+00 0. -1.
         23    2    1    2    0    0  0.00000000000E+00  0.00000000000E+00 -0.37371947195E+03  0.38464505849E+03  0.91025146553E+02 0.  0.
        -13    1    3    3    0    0  0.22006894161E+02  0.37642537054E+02 -0.13174221764E+03  0.13877058728E+03  0.00000000000E+00 0.  1.
         13    1    3    3    0    0 -0.22006894161E+02 -0.37642537054E+02 -0.24197725432E+03  0.24587447121E+03  0.00000000000E+00 0. -1.
<mgrwt>
<rscale>  0 0.91025147E+02</rscale>
<asrwt>0</asrwt>
<pdfrwt beam="2">  1        2 0.58335748E-01 0.91025147E+02</pdfrwt>
<pdfrwt beam="1">  1       -2 0.84042952E-03 0.91025147E+02</pdfrwt>
<totfact> 0.19668856E+05</totfact>
</mgrwt>
</event>
<event>
 5    1  0.6046470E+000  0.1090460E+03  0.7546771E-02  0.1262347E+00
         -1   -1    0    0    0  501 -0.00000000000E+00  0.00000000000E+00  0.78834915942E+02  0.78834915942E+02  0.00000000000E+00 0.  1.
          1   -1    0    0  501    0  0.00000000000E+00 -0.00000000000E+00 -0.37708663301E+02  0.37708663301E+02  0.00000000000E+00 0. -1.
         23    2    1    2    0    0  0.00000000000E+00  0.00000000000E+00  0.41126252641E+02  0.11654357924E+03  0.10904603251E+03 0.  0.
        -13    1    3    3    0    0  0.17919214140E+02 -0.49816711157E+02  0.66300444849E+01  0.53355041334E+02  0.00000000000E+00 0.  1.
         13    1    3    3    0    0 -0.17919214140E+02  0.49816711157E+02  0.34496208157E+02  0.63188537909E+02  0.00000000000E+00 0. -1.
<mgrwt>
<rscale>  0 0.10904603E+03</rscale>
<asrwt>0</asrwt>
<pdfrwt beam="2">  1        1 0.58013328E-02 0.10904603E+03</pdfrwt>
<pdfrwt beam="1">  1       -1 0.12128449E-01 0.10904603E+03</pdfrwt>
<totfact> 0.53645056E+04</totfact>
</mgrwt>
</event>
<event>
 5    1  0.6046470E+000  0.1116557E+03  0.7546771E-02  0.1257534E+00
          2   -1    0    0  501    0  0.00000000000E+00  0.00000000000E+00  0.73664827733E+02  0.73664827733E+02  0.00000000000E+00 0. -1.
         -2   -1    0    0    0  501 -0.00000000000E+00 -0.00000000000E+00 -0.42309894465E+02  0.42309894465E+02  0.00000000000E+00 0.  1.
         23    2    1    2    0    0  0.00000000000E+00  0.00000000000E+00  0.31354933268E+02  0.11597472220E+03  0.11165574033E+03 0.  0.
        -13    1    3    3    0    0  0.13217680549E+02  0.53868662515E+02  0.90909492932E+01  0.56206629852E+02  0.00000000000E+00 0.  1.
         13    1    3    3    0    0 -0.13217680549E+02 -0.53868662515E+02  0.22263983975E+02  0.59768092346E+02  0.00000000000E+00 0. -1.
<mgrwt>
<rscale>  0 0.11165574E+03</rscale>
<asrwt>0</asrwt>
<pdfrwt beam="1">  1        2 0.11333050E-01 0.11165574E+03</pdfrwt>
<pdfrwt beam="2">  1       -2 0.65092146E-02 0.11165574E+03</pdfrwt>
<totfact> 0.63090095E+04</totfact>
</mgrwt>
</event>
<event>
 5    1  0.6046470E+000  0.8991586E+02  0.7546771E-02  0.1303056E+00
          2   -1    0    0  501    0  0.00000000000E+00  0.00000000000E+00  0.91238632350E+02  0.91238632350E+02  0.00000000000E+00 0. -1.
         -2   -1    0    0    0  501 -0.00000000000E+00 -0.00000000000E+00 -0.22153066415E+02  0.22153066415E+02  0.00000000000E+00 0.  1.
         23    2    1    2    0    0  0.00000000000E+00  0.00000000000E+00  0.69085565936E+02  0.11339169876E+03  0.89915860270E+02 0.  0.
        -13    1    3    3    0    0  0.14723293644E+02  0.36990307815E+01  0.87908619347E+02  0.89209772783E+02  0.00000000000E+00 0. -1.
         13    1    3    3    0    0 -0.14723293644E+02 -0.36990307815E+01 -0.18823053412E+02  0.24181925982E+02  0.00000000000E+00 0.  1.
<mgrwt>
<rscale>  0 0.89915860E+02</rscale>
<asrwt>0</asrwt>
<pdfrwt beam="1">  1        2 0.14036712E-01 0.89915860E+02</pdfrwt>
<pdfrwt beam="2">  1       -2 0.34081641E-02 0.89915860E+02</pdfrwt>
<totfact> 0.12401422E+05</totfact>
</mgrwt>
</event>
<event>
 5    1  0.6046470E+000  0.8738367E+02  0.7546771E-02  0.1309314E+00
          1   -1    0    0  501    0  0.00000000000E+00  0.00000000000E+00  0.10856872143E+03  0.10856872143E+03  0.00000000000E+00 0. -1.
         -1   -1    0    0    0  501 -0.00000000000E+00 -0.00000000000E+00 -0.17583117969E+02  0.17583117969E+02  0.00000000000E+00 0.  1.
         23    2    1    2    0    0  0.00000000000E+00  0.00000000000E+00  0.90985603458E+02  0.12615183940E+03  0.87383674371E+02 0.  0.
        -13    1    3    3    0    0 -0.20273740029E+02  0.22905850174E+02  0.90530986141E+02  0.95559206561E+02  0.00000000000E+00 0. -1.
         13    1    3    3    0    0  0.20273740029E+02 -0.22905850174E+02  0.45461731760E+00  0.30592632836E+02  0.00000000000E+00 0.  1.
<mgrwt>
<rscale>  0 0.87383674E+02</rscale>
<asrwt>0</asrwt>
<pdfrwt beam="1">  1        1 0.16702880E-01 0.87383674E+02</pdfrwt>
<pdfrwt beam="2">  1       -1 0.27050951E-02 0.87383674E+02</pdfrwt>
<totfact> 0.11882888E+05</totfact>
</mgrwt>
</event>
<event>
 5    1  0.6046470E+000  0.9398030E+02  0.7546771E-02  0.1293489E+00
         -3   -1    0    0    0  501 -0.00000000000E+00  0.00000000000E+00  0.99167932576E+02  0.99167932576E+02  0.00000000000E+00 0. -1.
          3   -1    0    0  501    0  0.00000000000E+00 -0.00000000000E+00 -0.22266011423E+02  0.22266011423E+02  0.00000000000E+00 0.  1.
         23    2    1    2    0    0  0.00000000000E+00  0.00000000000E+00  0.76901921153E+02  0.12143394400E+03  0.93980302607E+02 0.  0.
        -13    1    3    3    0    0  0.26495269239E+01  0.32985239614E+02 -0.46568894984E+01  0.33417549957E+02  0.00000000000E+00 0.  1.
         13    1    3    3    0    0 -0.26495269239E+01 -0.32985239614E+02  0.81558810651E+02  0.88016394042E+02  0.00000000000E+00 0. -1.
<mgrwt>
<rscale>  0 0.93980303E+02</rscale>
<asrwt>0</asrwt>
<pdfrwt beam="2">  1        3 0.34255403E-02 0.93980303E+02</pdfrwt>
<pdfrwt beam="1">  1       -3 0.15256605E-01 0.93980303E+02</pdfrwt>
<totfact> 0.30524779E+04</totfact>
</mgrwt>
</event>
<event>
 5    1  0.6046470E+000  0.9220302E+02  0.7546771E-02  0.1297603E+00
         -4   -1    0    0    0  501 -0.00000000000E+00  0.00000000000E+00  0.14735308750E+03  0.14735308750E+03  0.00000000000E+00 0. -1.
          4   -1    0    0  501    0  0.00000000000E+00 -0.00000000000E+00 -0.14423514873E+02  0.14423514873E+02  0.00000000000E+00 0.  1.
         23    2    1    2    0    0  0.00000000000E+00  0.00000000000E+00  0.13292957263E+03  0.16177660238E+03  0.92203024878E+02 0.  0.
        -13    1    3    3    0    0  0.39929899588E+02 -0.19931432411E+02  0.46177641530E+02  0.64218637920E+02  0.00000000000E+00 0. -1.
         13    1    3    3    0    0 -0.39929899588E+02  0.19931432411E+02  0.86751931102E+02  0.97557964457E+02  0.00000000000E+00 0.  1.
<mgrwt>
<rscale>  0 0.92203025E+02</rscale>
<asrwt>0</asrwt>
<pdfrwt beam="2">  1        4 0.22190024E-02 0.92203025E+02</pdfrwt>
<pdfrwt beam="1">  1       -4 0.22669705E-01 0.92203025E+02</pdfrwt>
<totfact> 0.22409484E+04</totfact>
</mgrwt>
</event>
<event>
 5    1  0.6046470E+000  0.9083291E+02  0.7546771E-02  0.1300847E+00
          2   -1    0    0  501    0  0.00000000000E+00  0.00000000000E+00  0.18249951237E+03  0.18249951237E+03  0.00000000000E+00 0. -1.
         -2   -1    0    0    0  501 -0.00000000000E+00 -0.00000000000E+00 -0.11302245526E+02  0.11302245526E+02  0.00000000000E+00 0.  1.
         23    2    1    2    0    0  0.00000000000E+00  0.00000000000E+00  0.17119726684E+03  0.19380175789E+03  0.90832908072E+02 0.  0.
        -13    1    3    3    0    0  0.12888791577E+02 -0.29406930223E+02  0.17064794688E+02  0.36360634087E+02  0.00000000000E+00 0.  1.
         13    1    3    3    0    0 -0.12888791577E+02  0.29406930223E+02  0.15413247215E+03  0.15744112381E+03  0.00000000000E+00 0. -1.
<mgrwt>
<rscale>  0 0.90832908E+02</rscale>
<asrwt>0</asrwt>
<pdfrwt beam="1">  1        2 0.28076846E-01 0.90832908E+02</pdfrwt>
<pdfrwt beam="2">  1       -2 0.17388071E-02 0.90832908E+02</pdfrwt>
<totfact> 0.15121251E+05</totfact>
</mgrwt>
</event>
<event>
 5    1  0.6046470E+000  0.9282629E+02  0.7546771E-02  0.1296148E+00
          1   -1    0    0  501    0  0.00000000000E+00  0.00000000000E+00  0.11171554550E+02  0.11171554550E+02  0.00000000000E+00 0. -1.
         -1   -1    0    0    0  501 -0.00000000000E+00 -0.00000000000E+00 -0.19282722766E+03  0.19282722766E+03  0.00000000000E+00 0.  1.
         23    2    1    2    0    0  0.00000000000E+00  0.00000000000E+00 -0.18165567311E+03  0.20399878221E+03  0.92826287065E+02 0.  0.
        -13    1    3    3    0    0 -0.79536351375E+01  0.42712400363E+02 -0.12670867529E+03  0.13395035592E+03  0.00000000000E+00 0.  1.
         13    1    3    3    0    0  0.79536351375E+01 -0.42712400363E+02 -0.54946997823E+02  0.70048426295E+02  0.00000000000E+00 0. -1.
<mgrwt>
<rscale>  0 0.92826287E+02</rscale>
<asrwt>0</asrwt>
<pdfrwt beam="1">  1        1 0.17187007E-02 0.92826287E+02</pdfrwt>
<pdfrwt beam="2">  1       -1 0.29665727E-01 0.92826287E+02</pdfrwt>
<totfact> 0.66940043E+04</totfact>
</mgrwt>
</event>
<event>
 5    1  0.6046470E+000  0.9051646E+02  0.7546771E-02  0.1301606E+00
         -1   -1    0    0    0  501 -0.00000000000E+00  0.00000000000E+00  0.56495538610E+02  0.56495538610E+02  0.00000000000E+00 0.  1.
          1   -1    0    0  501    0  0.00000000000E+00 -0.00000000000E+00 -0.36256087033E+02  0.36256087033E+02  0.00000000000E+00 0. -1.
         23    2    1    2    0    0  0.00000000000E+00  0.00000000000E+00  0.20239451576E+02  0.92751625643E+02  0.90516455186E+02 0.  0.
        -13    1    3    3    0    0  0.28147940591E+02 -0.31760603872E+02 -0.59932222276E+01  0.42859785702E+02  0.00000000000E+00 0. -1.
         13    1    3    3    0    0 -0.28147940591E+02  0.31760603872E+02  0.26232673804E+02  0.49891839941E+02  0.00000000000E+00 0.  1.
<mgrwt>
<rscale>  0 0.90516455E+02</rscale>
<asrwt>0</asrwt>
<pdfrwt beam="2">  1        1 0.55778595E-02 0.90516455E+02</pdfrwt>
<pdfrwt beam="1">  1       -1 0.86916214E-02 0.90516455E+02</pdfrwt>
<totfact> 0.91170507E+04</totfact>
</mgrwt>
</event>
<event>
 5    1  0.6046470E+000  0.1070704E+03  0.7546771E-02  0.1266093E+00
          3   -1    0    0  501    0  0.00000000000E+00  0.00000000000E+00  0.52095919268E+02  0.52095919268E+02  0.00000000000E+00 0. -1.
         -3   -1    0    0    0  501 -0.00000000000E+00 -0.00000000000E+00 -0.55014285469E+02  0.55014285469E+02  0.00000000000E+00 0.  1.
         23    2    1    2    0    0  0.00000000000E+00  0.00000000000E+00 -0.29183662012E+01  0.10711020474E+03  0.10707043989E+03 0.  0.
        -13    1    3    3    0    0  0.29379610449E+02  0.36970632913E+02 -0.26688195849E+02  0.54242501840E+02  0.00000000000E+00 0.  1.
         13    1    3    3    0    0 -0.29379610449E+02 -0.36970632913E+02  0.23769829648E+02  0.52867702897E+02  0.00000000000E+00 0. -1.
<mgrwt>
<rscale>  0 0.10707044E+03</rscale>
<asrwt>0</asrwt>
<pdfrwt beam="1">  1        3 0.80147568E-02 0.10707044E+03</pdfrwt>
<pdfrwt beam="2">  1       -3 0.84637362E-02 0.10707044E+03</pdfrwt>
<totfact> 0.21961768E+04</totfact>
</mgrwt>
</event>
<event>
 5    1  0.6046470E+000  0.9123883E+02  0.7546771E-02  0.1299879E+00
         -4   -1    0    0    0  501 -0.00000000000E+00  0.00000000000E+00  0.15886738624E+02  0.15886738624E+02  0.00000000000E+00 0.  1.
          4   -1    0    0  501    0  0.00000000000E+00 -0.00000000000E+00 -0.13099801035E+03  0.13099801035E+03  0.00000000000E+00 0. -1.
         23    2    1    2    0    0  0.00000000000E+00  0.00000000000E+00 -0.11511127172E+03  0.14688474897E+03  0.91238832754E+02 0.  0.
        -13    1    3    3    0    0  0.27995315329E+02 -0.32148300042E+02 -0.31403904374E+02  0.52947673093E+02  0.00000000000E+00 0.  1.
         13    1    3    3    0    0 -0.27995315329E+02  0.32148300042E+02 -0.83707367347E+02  0.93937075876E+02  0.00000000000E+00 0. -1.
<mgrwt>
<rscale>  0 0.91238833E+02</rscale>
<asrwt>0</asrwt>
<pdfrwt beam="2">  1        4 0.20153541E-01 0.91238833E+02</pdfrwt>
<pdfrwt beam="1">  1       -4 0.24441135E-02 0.91238833E+02</pdfrwt>
<totfact> 0.23786815E+04</totfact>
</mgrwt>
</event>
<event>
 5    1  0.6046470E+000  0.9073207E+02  0.7546771E-02  0.1301088E+00
         -3   -1    0    0    0  501 -0.00000000000E+00  0.00000000000E+00  0.58617421429E+02  0.58617421429E+02  0.00000000000E+00 0.  1.
          3   -1    0    0  501    0  0.00000000000E+00 -0.00000000000E+00 -0.35110335377E+02  0.35110335377E+02  0.00000000000E+00 0. -1.
         23    2    1    2    0    0  0.00000000000E+00  0.00000000000E+00  0.23507086051E+02  0.93727756806E+02  0.90732074270E+02 0.  0.
        -13    1    3    3    0    0  0.68779033994E+01 -0.44503035018E+02  0.60717962169E+01  0.45438886323E+02  0.00000000000E+00 0.  1.
         13    1    3    3    0    0 -0.68779033994E+01  0.44503035018E+02  0.17435289834E+02  0.48288870483E+02  0.00000000000E+00 0. -1.
<mgrwt>
<rscale>  0 0.90732074E+02</rscale>
<asrwt>0</asrwt>
<pdfrwt beam="2">  1        3 0.54015900E-02 0.90732074E+02</pdfrwt>
<pdfrwt beam="1">  1       -3 0.90180649E-02 0.90732074E+02</pdfrwt>
<totfact> 0.35615015E+04</totfact>
</mgrwt>
</event>
<event>
 5    1  0.6046470E+000  0.9006044E+02  0.7546771E-02  0.1302705E+00
          1   -1    0    0  501    0  0.00000000000E+00  0.00000000000E+00  0.31785199163E+02  0.31785199163E+02  0.00000000000E+00 0. -1.
         -1   -1    0    0    0  501 -0.00000000000E+00 -0.00000000000E+00 -0.63794492665E+02  0.63794492665E+02  0.00000000000E+00 0.  1.
         23    2    1    2    0    0  0.00000000000E+00  0.00000000000E+00 -0.32009293502E+02  0.95579691828E+02  0.90060438703E+02 0.  0.
        -13    1    3    3    0    0  0.17781176641E+02 -0.40359910348E+02 -0.25651714231E+02  0.51020613962E+02  0.00000000000E+00 0. -1.
         13    1    3    3    0    0 -0.17781176641E+02  0.40359910348E+02 -0.63575792713E+01  0.44559077866E+02  0.00000000000E+00 0.  1.
<mgrwt>
<rscale>  0 0.90060439E+02</rscale>
<asrwt>0</asrwt>
<pdfrwt beam="1">  1        1 0.48900306E-02 0.90060439E+02</pdfrwt>
<pdfrwt beam="2">  1       -1 0.98145374E-02 0.90060439E+02</pdfrwt>
<totfact> 0.90622794E+04</totfact>
</mgrwt>
</event>
<event>
 5    1  0.6046470E+000  0.8982432E+02  0.7546771E-02  0.1303278E+00
          4   -1    0    0  501    0  0.00000000000E+00  0.00000000000E+00  0.28426735791E+02  0.28426735791E+02  0.00000000000E+00 0. -1.
         -4   -1    0    0    0  501 -0.00000000000E+00 -0.00000000000E+00 -0.70957928191E+02  0.70957928191E+02  0.00000000000E+00 0.  1.
         23    2    1    2    0    0  0.00000000000E+00  0.00000000000E+00 -0.42531192400E+02  0.99384663982E+02  0.89824323587E+02 0.  0.
        -13    1    3    3    0    0 -0.25408711859E+02  0.15992508185E+02 -0.58223453781E+02  0.65508270673E+02  0.00000000000E+00 0.  1.
         13    1    3    3    0    0  0.25408711859E+02 -0.15992508185E+02  0.15692261381E+02  0.33876393309E+02  0.00000000000E+00 0. -1.
<mgrwt>
<rscale>  0 0.89824324E+02</rscale>
<asrwt>0</asrwt>
<pdfrwt beam="1">  1        4 0.43733440E-02 0.89824324E+02</pdfrwt>
<pdfrwt beam="2">  1       -4 0.10916604E-01 0.89824324E+02</pdfrwt>
<totfact> 0.27588855E+04</totfact>
</mgrwt>
</event>
<event>
 5    1  0.6046470E+000  0.9175477E+02  0.7546771E-02  0.1298657E+00
         -1   -1    0    0    0  501 -0.00000000000E+00  0.00000000000E+00  0.99798364624E+02  0.99798364624E+02  0.00000000000E+00 0.  1.
          1   -1    0    0  501    0  0.00000000000E+00 -0.00000000000E+00 -0.21089870624E+02  0.21089870624E+02  0.00000000000E+00 0. -1.
         23    2    1    2    0    0  0.00000000000E+00  0.00000000000E+00  0.78708494000E+02  0.12088823525E+03  0.91754773139E+02 0.  0.
        -13    1    3    3    0    0  0.38276408576E+02  0.23690932957E+02  0.51019335354E+02  0.68039079490E+02  0.00000000000E+00 0.  1.
         13    1    3    3    0    0 -0.38276408576E+02 -0.23690932957E+02  0.27689158646E+02  0.52849155759E+02  0.00000000000E+00 0. -1.
<mgrwt>
<rscale>  0 0.91754773E+02</rscale>
<asrwt>0</asrwt>
<pdfrwt beam="2">  1        1 0.32445955E-02 0.91754773E+02</pdfrwt>
<pdfrwt beam="1">  1       -1 0.15353594E-01 0.91754773E+02</pdfrwt>
<totfact> 0.80085913E+04</totfact>
</mgrwt>
</event>
<event>
 5    1  0.6046470E+000  0.9300804E+02  0.7546771E-02  0.1295727E+00
          1   -1    0    0  501    0  0.00000000000E+00  0.00000000000E+00  0.12249295004E+03  0.12249295004E+03  0.00000000000E+00 0. -1.
         -1   -1    0    0    0  501 -0.00000000000E+00 -0.00000000000E+00 -0.17655089733E+02  0.17655089733E+02  0.00000000000E+00 0.  1.
         23    2    1    2    0    0  0.00000000000E+00  0.00000000000E+00  0.10483786030E+03  0.14014803977E+03  0.93008043190E+02 0.  0.
        -13    1    3    3    0    0 -0.20128747091E+02 -0.33613157607E+02  0.14669312672E+02  0.41835386434E+02  0.00000000000E+00 0.  1.
         13    1    3    3    0    0  0.20128747091E+02  0.33613157607E+02  0.90168547631E+02  0.98312653334E+02  0.00000000000E+00 0. -1.
<mgrwt>
<rscale>  0 0.93008043E+02</rscale>
<asrwt>0</asrwt>
<pdfrwt beam="1">  1        1 0.18845069E-01 0.93008043E+02</pdfrwt>
<pdfrwt beam="2">  1       -1 0.27161677E-02 0.93008043E+02</pdfrwt>
<totfact> 0.10244020E+05</totfact>
</mgrwt>
</event>
<event>
 5    1  0.6046470E+000  0.8973401E+02  0.7546771E-02  0.1303497E+00
          1   -1    0    0  501    0  0.00000000000E+00  0.00000000000E+00  0.54896954481E+01  0.54896954481E+01  0.00000000000E+00 0. -1.
         -1   -1    0    0    0  501 -0.00000000000E+00 -0.00000000000E+00 -0.36669576606E+03  0.36669576606E+03  0.00000000000E+00 0.  1.
         23    2    1    2    0    0  0.00000000000E+00  0.00000000000E+00 -0.36120607061E+03  0.37218546151E+03  0.89734008665E+02 0.  0.
        -13    1    3    3    0    0 -0.24897976137E+02 -0.36143132712E+02 -0.14195795033E+03  0.14858766746E+03  0.00000000000E+00 0.  1.
         13    1    3    3    0    0  0.24897976137E+02  0.36143132712E+02 -0.21924812028E+03  0.22359779405E+03  0.00000000000E+00 0. -1.
<mgrwt>
<rscale>  0 0.89734009E+02</rscale>
<asrwt>0</asrwt>
<pdfrwt beam="1">  1        1 0.84456837E-03 0.89734009E+02</pdfrwt>
<pdfrwt beam="2">  1       -1 0.56414744E-01 0.89734009E+02</pdfrwt>
<totfact> 0.57958671E+04</totfact>
</mgrwt>
</event>
<event>
 5    1  0.6046470E+000  0.9015495E+02  0.7546771E-02  0.1302477E+00
          2   -1    0    0  501    0  0.00000000000E+00  0.00000000000E+00  0.12468858096E+03  0.12468858096E+03  0.00000000000E+00 0. -1.
         -2   -1    0    0    0  501 -0.00000000000E+00 -0.00000000000E+00 -0.16296431638E+02  0.16296431638E+02  0.00000000000E+00 0.  1.
         23    2    1    2    0    0  0.00000000000E+00  0.00000000000E+00  0.10839214932E+03  0.14098501259E+03  0.90154954065E+02 0.  0.
        -13    1    3    3    0    0 -0.13842381082E+02  0.25312577065E+02  0.32293281074E-01  0.28850287945E+02  0.00000000000E+00 0.  1.
         13    1    3    3    0    0  0.13842381082E+02 -0.25312577065E+02  0.10835985604E+03  0.11213472465E+03  0.00000000000E+00 0. -1.
<mgrwt>
<rscale>  0 0.90154954E+02</rscale>
<asrwt>0</asrwt>
<pdfrwt beam="1">  1        2 0.19182858E-01 0.90154954E+02</pdfrwt>
<pdfrwt beam="2">  1       -2 0.25071434E-02 0.90154954E+02</pdfrwt>
<totfact> 0.13558196E+05</totfact>
</mgrwt>
</event>
<event>
 5    1  0.6046470E+000  0.8965110E+02  0.7546771E-02  0.1303699E+00
         -1   -1    0    0    0  501 -0.00000000000E+00  0.00000000000E+00  0.19772577522E+03  0.19772577522E+03  0.00000000000E+00 0.  1.
          1   -1    0    0  501    0  0.00000000000E+00 -0.00000000000E+00 -0.10162206100E+02  0.10162206100E+02  0.00000000000E+00 0. -1.
         23    2    1    2    0    0  0.00000000000E+00  0.00000000000E+00  0.18756356912E+03  0.20788798132E+03  0.89651103261E+02 0.  0.
        -13    1    3    3    0    0  0.43913744733E+02 -0.72988482215E+01  0.81590706502E+02  0.92944787640E+02  0.00000000000E+00 0. -1.
         13    1    3    3    0    0 -0.43913744733E+02  0.72988482215E+01  0.10597286261E+03  0.11494319368E+03  0.00000000000E+00 0.  1.
<mgrwt>
<rscale>  0 0.89651103E+02</rscale>
<asrwt>0</asrwt>
<pdfrwt beam="2">  1        1 0.15634165E-02 0.89651103E+02</pdfrwt>
<pdfrwt beam="1">  1       -1 0.30419347E-01 0.89651103E+02</pdfrwt>
<totfact> 0.72777688E+04</totfact>
</mgrwt>
</event>
<event>
 5    1  0.6046470E+000  0.9945166E+02  0.7546771E-02  0.1281453E+00
          1   -1    0    0  501    0  0.00000000000E+00  0.00000000000E+00  0.21634424510E+02  0.21634424510E+02  0.00000000000E+00 0. -1.
         -1   -1    0    0    0  501 -0.00000000000E+00 -0.00000000000E+00 -0.11429276920E+03  0.11429276920E+03  0.00000000000E+00 0.  1.
         23    2    1    2    0    0  0.00000000000E+00  0.00000000000E+00 -0.92658344691E+02  0.13592719371E+03  0.99451662376E+02 0.  0.
        -13    1    3    3    0    0 -0.32164011353E+02  0.32193123467E+02 -0.73723804286E+02  0.86637867837E+02  0.00000000000E+00 0.  1.
         13    1    3    3    0    0  0.32164011353E+02 -0.32193123467E+02 -0.18934540404E+02  0.49289325874E+02  0.00000000000E+00 0. -1.
<mgrwt>
<rscale>  0 0.99451662E+02</rscale>
<asrwt>0</asrwt>
<pdfrwt beam="1">  1        1 0.33283731E-02 0.99451662E+02</pdfrwt>
<pdfrwt beam="2">  1       -1 0.17583503E-01 0.99451662E+02</pdfrwt>
<totfact> 0.63336001E+04</totfact>
</mgrwt>
</event>
<event>
 5    1  0.6046470E+000  0.9255998E+02  0.7546771E-02  0.1296768E+00
         -1   -1    0    0    0  501 -0.00000000000E+00  0.00000000000E+00  0.51627822797E+02  0.51627822797E+02  0.00000000000E+00 0.  1.
          1   -1    0    0  501    0  0.00000000000E+00 -0.00000000000E+00 -0.41486108884E+02  0.41486108884E+02  0.00000000000E+00 0. -1.
         23    2    1    2    0    0  0.00000000000E+00  0.00000000000E+00  0.10141713914E+02  0.93113931681E+02  0.92559980077E+02 0.  0.
        -13    1    3    3    0    0 -0.44135117095E+01  0.45828980668E+02  0.97960868203E+01  0.47071624910E+02  0.00000000000E+00 0.  1.
         13    1    3    3    0    0  0.44135117095E+01 -0.45828980668E+02  0.34562709335E+00  0.46042306771E+02  0.00000000000E+00 0. -1.
<mgrwt>
<rscale>  0 0.92559980E+02</rscale>
<asrwt>0</asrwt>
<pdfrwt beam="2">  1        1 0.63824783E-02 0.92559980E+02</pdfrwt>
<pdfrwt beam="1">  1       -1 0.79427420E-02 0.92559980E+02</pdfrwt>
<totfact> 0.87369132E+04</totfact>
</mgrwt>
</event>
<event>
 5    1  0.6046470E+000  0.9207175E+02  0.7546771E-02  0.1297911E+00
         -1   -1    0    0    0  501 -0.00000000000E+00  0.00000000000E+00  0.92247662314E+01  0.92247662314E+01  0.00000000000E+00 0.  1.
          1   -1    0    0  501    0  0.00000000000E+00 -0.00000000000E+00 -0.22974043019E+03  0.22974043019E+03  0.00000000000E+00 0. -1.
         23    2    1    2    0    0  0.00000000000E+00  0.00000000000E+00 -0.22051566396E+03  0.23896519642E+03  0.92071749466E+02 0.  0.
        -13    1    3    3    0    0  0.86932843643E+00  0.41967980463E+02 -0.61202632684E+02  0.74214751657E+02  0.00000000000E+00 0.  1.
         13    1    3    3    0    0 -0.86932843643E+00 -0.41967980463E+02 -0.15931303128E+03  0.16475044477E+03  0.00000000000E+00 0. -1.
<mgrwt>
<rscale>  0 0.92071749E+02</rscale>
<asrwt>0</asrwt>
<pdfrwt beam="2">  1        1 0.35344679E-01 0.92071749E+02</pdfrwt>
<pdfrwt beam="1">  1       -1 0.14191949E-02 0.92071749E+02</pdfrwt>
<totfact> 0.11850656E+05</totfact>
</mgrwt>
</event>
<event>
 5    1  0.6046470E+000  0.9202344E+02  0.7546771E-02  0.1298024E+00
          2   -1    0    0  501    0  0.00000000000E+00  0.00000000000E+00  0.97339291586E+01  0.97339291586E+01  0.00000000000E+00 0. -1.
         -2   -1    0    0    0  501 -0.00000000000E+00 -0.00000000000E+00 -0.21749472313E+03  0.21749472313E+03  0.00000000000E+00 0.  1.
         23    2    1    2    0    0  0.00000000000E+00  0.00000000000E+00 -0.20776079397E+03  0.22722865229E+03  0.92023436739E+02 0.  0.
        -13    1    3    3    0    0 -0.14775693540E+02 -0.40975283205E+02 -0.67273580389E+02  0.80143805572E+02  0.00000000000E+00 0. -1.
         13    1    3    3    0    0  0.14775693540E+02  0.40975283205E+02 -0.14048721358E+03  0.14708484672E+03  0.00000000000E+00 0.  1.
<mgrwt>
<rscale>  0 0.92023437E+02</rscale>
<asrwt>0</asrwt>
<pdfrwt beam="1">  1        2 0.14975276E-02 0.92023437E+02</pdfrwt>
<pdfrwt beam="2">  1       -2 0.33460725E-01 0.92023437E+02</pdfrwt>
<totfact> 0.58634157E+04</totfact>
</mgrwt>
</event>
<event>
 5    1  0.6046470E+000  0.9070840E+02  0.7546771E-02  0.1301145E+00
         -1   -1    0    0    0  501 -0.00000000000E+00  0.00000000000E+00  0.70212223077E+02  0.70212223077E+02  0.00000000000E+00 0.  1.
          1   -1    0    0  501    0  0.00000000000E+00 -0.00000000000E+00 -0.29296943540E+02  0.29296943540E+02  0.00000000000E+00 0. -1.
         23    2    1    2    0    0  0.00000000000E+00  0.00000000000E+00  0.40915279537E+02  0.99509166617E+02  0.90708401713E+02 0.  0.
        -13    1    3    3    0    0  0.24848627313E+02  0.19716942865E+02  0.56018628978E+02  0.64376229370E+02  0.00000000000E+00 0.  1.
         13    1    3    3    0    0 -0.24848627313E+02 -0.19716942865E+02 -0.15103349441E+02  0.35132937247E+02  0.00000000000E+00 0. -1.
<mgrwt>
<rscale>  0 0.90708402E+02</rscale>
<asrwt>0</asrwt>
<pdfrwt beam="2">  1        1 0.45072221E-02 0.90708402E+02</pdfrwt>
<pdfrwt beam="1">  1       -1 0.10801880E-01 0.90708402E+02</pdfrwt>
<totfact> 0.87639806E+04</totfact>
</mgrwt>
</event>
<event>
 5    1  0.6046470E+000  0.9295735E+02  0.7546771E-02  0.1295844E+00
          3   -1    0    0  501    0  0.00000000000E+00  0.00000000000E+00  0.19224055626E+03  0.19224055626E+03  0.00000000000E+00 0. -1.
         -3   -1    0    0    0  501 -0.00000000000E+00 -0.00000000000E+00 -0.11237312282E+02  0.11237312282E+02  0.00000000000E+00 0.  1.
         23    2    1    2    0    0  0.00000000000E+00  0.00000000000E+00  0.18100324397E+03  0.20347786854E+03  0.92957348583E+02 0.  0.
        -13    1    3    3    0    0 -0.44496801242E+02  0.13239188456E+02  0.85594429218E+02  0.97373752854E+02  0.00000000000E+00 0.  1.
         13    1    3    3    0    0  0.44496801242E+02 -0.13239188456E+02  0.95408814755E+02  0.10610411568E+03  0.00000000000E+00 0. -1.
<mgrwt>
<rscale>  0 0.92957349E+02</rscale>
<asrwt>0</asrwt>
<pdfrwt beam="1">  1        3 0.29575468E-01 0.92957349E+02</pdfrwt>
<pdfrwt beam="2">  1       -3 0.17288174E-02 0.92957349E+02</pdfrwt>
<totfact> 0.26876708E+04</totfact>
</mgrwt>
</event>
<event>
 5    1  0.6046470E+000  0.8611865E+02  0.7546771E-02  0.1312533E+00
          2   -1    0    0  501    0  0.00000000000E+00  0.00000000000E+00  0.15871881111E+03  0.15871881111E+03  0.00000000000E+00 0. -1.
         -2   -1    0    0    0  501 -0.00000000000E+00 -0.00000000000E+00 -0.11681699458E+02  0.11681699458E+02  0.00000000000E+00 0.  1.
         23    2    1    2    0    0  0.00000000000E+00  0.00000000000E+00  0.14703711165E+03  0.17040051057E+03  0.86118649541E+02 0.  0.
        -13    1    3    3    0    0 -0.18323963790E+02  0.35120481350E+02  0.10691590301E+03  0.11401853435E+03  0.00000000000E+00 0. -1.
         13    1    3    3    0    0  0.18323963790E+02 -0.35120481350E+02  0.40121208645E+02  0.56381976219E+02  0.00000000000E+00 0.  1.
<mgrwt>
<rscale>  0 0.86118650E+02</rscale>
<asrwt>0</asrwt>
<pdfrwt beam="1">  1        2 0.24418277E-01 0.86118650E+02</pdfrwt>
<pdfrwt beam="2">  1       -2 0.17971847E-02 0.86118650E+02</pdfrwt>
<totfact> 0.16626738E+05</totfact>
</mgrwt>
</event>
<event>
 5    1  0.6046470E+000  0.9197832E+02  0.7546771E-02  0.1298130E+00
         -4   -1    0    0    0  501 -0.00000000000E+00  0.00000000000E+00  0.40743069576E+03  0.40743069576E+03  0.00000000000E+00 0.  1.
          4   -1    0    0  501    0  0.00000000000E+00 -0.00000000000E+00 -0.51910739709E+01  0.51910739709E+01  0.00000000000E+00 0. -1.
         23    2    1    2    0    0  0.00000000000E+00  0.00000000000E+00  0.40223962179E+03  0.41262176973E+03  0.91978320918E+02 0.  0.
        -13    1    3    3    0    0  0.82399694662E+00  0.44284091209E+02  0.14558603156E+03  0.15217441405E+03  0.00000000000E+00 0. -1.
         13    1    3    3    0    0 -0.82399694662E+00 -0.44284091209E+02  0.25665359023E+03  0.26044735568E+03  0.00000000000E+00 0.  1.
<mgrwt>
<rscale>  0 0.91978321E+02</rscale>
<asrwt>0</asrwt>
<pdfrwt beam="2">  1        4 0.79862709E-03 0.91978321E+02</pdfrwt>
<pdfrwt beam="1">  1       -4 0.62681620E-01 0.91978321E+02</pdfrwt>
<totfact> 0.14518818E+04</totfact>
</mgrwt>
</event>
<event>
 5    1  0.6046470E+000  0.9105723E+02  0.7546771E-02  0.1300311E+00
          1   -1    0    0  501    0  0.00000000000E+00  0.00000000000E+00  0.10670955516E+03  0.10670955516E+03  0.00000000000E+00 0. -1.
         -1   -1    0    0    0  501 -0.00000000000E+00 -0.00000000000E+00 -0.19425202514E+02  0.19425202514E+02  0.00000000000E+00 0.  1.
         23    2    1    2    0    0  0.00000000000E+00  0.00000000000E+00  0.87284352642E+02  0.12613475767E+03  0.91057228578E+02 0.  0.
        -13    1    3    3    0    0 -0.32066630257E+02 -0.25039761427E+02  0.71949490520E+02  0.82655838357E+02  0.00000000000E+00 0. -1.
         13    1    3    3    0    0  0.32066630257E+02  0.25039761427E+02  0.15334862122E+02  0.43478919314E+02  0.00000000000E+00 0.  1.
<mgrwt>
<rscale>  0 0.91057229E+02</rscale>
<asrwt>0</asrwt>
<pdfrwt beam="1">  1        1 0.16416854E-01 0.91057229E+02</pdfrwt>
<pdfrwt beam="2">  1       -1 0.29884928E-02 0.91057229E+02</pdfrwt>
<totfact> 0.10597288E+05</totfact>
</mgrwt>
</event>
<event>
 5    1  0.6046470E+000  0.1105511E+03  0.7546771E-02  0.1259553E+00
          2   -1    0    0  501    0  0.00000000000E+00  0.00000000000E+00  0.13377910002E+03  0.13377910002E+03  0.00000000000E+00 0. -1.
         -2   -1    0    0    0  501 -0.00000000000E+00 -0.00000000000E+00 -0.22839023420E+02  0.22839023420E+02  0.00000000000E+00 0.  1.
         23    2    1    2    0    0  0.00000000000E+00  0.00000000000E+00  0.11094007660E+03  0.15661812344E+03  0.11055105605E+03 0.  0.
        -13    1    3    3    0    0  0.44410541905E+02 -0.32704561133E+02  0.50264842000E+02  0.74621973255E+02  0.00000000000E+00 0.  1.
         13    1    3    3    0    0 -0.44410541905E+02  0.32704561133E+02  0.60675234599E+02  0.81996150184E+02  0.00000000000E+00 0. -1.
<mgrwt>
<rscale>  0 0.11055106E+03</rscale>
<asrwt>0</asrwt>
<pdfrwt beam="1">  1        2 0.20581400E-01 0.11055106E+03</pdfrwt>
<pdfrwt beam="2">  1       -2 0.35136960E-02 0.11055106E+03</pdfrwt>
<totfact> 0.79027206E+04</totfact>
</mgrwt>
</event>
<event>
 5    1  0.6046470E+000  0.9005839E+02  0.7546771E-02  0.1302710E+00
          2   -1    0    0  501    0  0.00000000000E+00  0.00000000000E+00  0.26117131484E+02  0.26117131484E+02  0.00000000000E+00 0. -1.
         -2   -1    0    0    0  501 -0.00000000000E+00 -0.00000000000E+00 -0.77635960047E+02  0.77635960047E+02  0.00000000000E+00 0.  1.
         23    2    1    2    0    0  0.00000000000E+00  0.00000000000E+00 -0.51518828563E+02  0.10375309153E+03  0.90058393866E+02 0.  0.
        -13    1    3    3    0    0  0.67143304067E+01 -0.15966695035E+02  0.22125622834E+02  0.28099123989E+02  0.00000000000E+00 0. -1.
         13    1    3    3    0    0 -0.67143304067E+01  0.15966695035E+02 -0.73644451397E+02  0.75653967542E+02  0.00000000000E+00 0.  1.
<mgrwt>
<rscale>  0 0.90058394E+02</rscale>
<asrwt>0</asrwt>
<pdfrwt beam="1">  1        2 0.40180204E-02 0.90058394E+02</pdfrwt>
<pdfrwt beam="2">  1       -2 0.11943993E-01 0.90058394E+02</pdfrwt>
<totfact> 0.88418178E+04</totfact>
</mgrwt>
</event>
<event>
 5    1  0.6046470E+000  0.9341103E+02  0.7546771E-02  0.1294795E+00
          2   -1    0    0  501    0  0.00000000000E+00  0.00000000000E+00  0.32060816348E+03  0.32060816348E+03  0.00000000000E+00 0.  1.
         -2   -1    0    0    0  501 -0.00000000000E+00 -0.00000000000E+00 -0.68039597308E+01  0.68039597308E+01  0.00000000000E+00 0. -1.
         23    2    1    2    0    0  0.00000000000E+00  0.00000000000E+00  0.31380420375E+03  0.32741212321E+03  0.93411027907E+02 0.  0.
        -13    1    3    3    0    0 -0.41908357841E+02 -0.45037537949E+01  0.86380423651E+02  0.96115408990E+02  0.00000000000E+00 0.  1.
         13    1    3    3    0    0  0.41908357841E+02  0.45037537949E+01  0.22742378010E+03  0.23129671422E+03  0.00000000000E+00 0. -1.
<mgrwt>
<rscale>  0 0.93411028E+02</rscale>
<asrwt>0</asrwt>
<pdfrwt beam="1">  1        2 0.49324321E-01 0.93411028E+02</pdfrwt>
<pdfrwt beam="2">  1       -2 0.10467633E-02 0.93411028E+02</pdfrwt>
<totfact> 0.17262324E+05</totfact>
</mgrwt>
</event>
<event>
 5    1  0.6046470E+000  0.9090619E+02  0.7546771E-02  0.1300672E+00
          1   -1    0    0  501    0  0.00000000000E+00  0.00000000000E+00  0.26878158799E+03  0.26878158799E+03  0.00000000000E+00 0. -1.
         -1   -1    0    0    0  501 -0.00000000000E+00 -0.00000000000E+00 -0.76864782150E+01  0.76864782150E+01  0.00000000000E+00 0.  1.
         23    2    1    2    0    0  0.00000000000E+00  0.00000000000E+00  0.26109510977E+03  0.27646806620E+03  0.90906189463E+02 0.  0.
        -13    1    3    3    0    0  0.31098481219E+02  0.27795158525E+02  0.75611387152E+02  0.86352580961E+02  0.00000000000E+00 0.  1.
         13    1    3    3    0    0 -0.31098481219E+02 -0.27795158525E+02  0.18548372262E+03  0.19011548524E+03  0.00000000000E+00 0. -1.
<mgrwt>
<rscale>  0 0.90906189E+02</rscale>
<asrwt>0</asrwt>
<pdfrwt beam="1">  1        1 0.41351006E-01 0.90906189E+02</pdfrwt>
<pdfrwt beam="2">  1       -1 0.11825353E-02 0.90906189E+02</pdfrwt>
<totfact> 0.12643056E+05</totfact>
</mgrwt>
</event>
<event>
 5    1  0.6046470E+000  0.9213529E+02  0.7546771E-02  0.1297762E+00
          1   -1    0    0  501    0  0.00000000000E+00  0.00000000000E+00  0.80316837442E+01  0.80316837442E+01  0.00000000000E+00 0. -1.
         -1   -1    0    0    0  501 -0.00000000000E+00 -0.00000000000E+00 -0.26423200016E+03  0.26423200016E+03  0.00000000000E+00 0.  1.
         23    2    1    2    0    0  0.00000000000E+00  0.00000000000E+00 -0.25620031642E+03  0.27226368390E+03  0.92135288796E+02 0.  0.
        -13    1    3    3    0    0  0.34694429455E+02 -0.89762756177E+01 -0.21364089787E+03  0.21662573762E+03  0.00000000000E+00 0.  1.
         13    1    3    3    0    0 -0.34694429455E+02  0.89762756177E+01 -0.42559418549E+02  0.55637946281E+02  0.00000000000E+00 0. -1.
<mgrwt>
<rscale>  0 0.92135289E+02</rscale>
<asrwt>0</asrwt>
<pdfrwt beam="1">  1        1 0.12356435E-02 0.92135289E+02</pdfrwt>
<pdfrwt beam="2">  1       -1 0.40651083E-01 0.92135289E+02</pdfrwt>
<totfact> 0.61818684E+04</totfact>
</mgrwt>
</event>
<event>
 5    1  0.6046470E+000  0.9093520E+02  0.7546771E-02  0.1300603E+00
         -1   -1    0    0    0  501 -0.00000000000E+00  0.00000000000E+00  0.96713587018E+01  0.96713587018E+01  0.00000000000E+00 0.  1.
          1   -1    0    0  501    0  0.00000000000E+00 -0.00000000000E+00 -0.21375516497E+03  0.21375516497E+03  0.00000000000E+00 0. -1.
         23    2    1    2    0    0  0.00000000000E+00  0.00000000000E+00 -0.20408380627E+03  0.22342652367E+03  0.90935204949E+02 0.  0.
        -13    1    3    3    0    0  0.34247682530E+02  0.24883597260E+02 -0.61282164220E+02  0.74482218165E+02  0.00000000000E+00 0.  1.
         13    1    3    3    0    0 -0.34247682530E+02 -0.24883597260E+02 -0.14280164205E+03  0.14894430551E+03  0.00000000000E+00 0. -1.
<mgrwt>
<rscale>  0 0.90935205E+02</rscale>
<asrwt>0</asrwt>
<pdfrwt beam="2">  1        1 0.32885407E-01 0.90935205E+02</pdfrwt>
<pdfrwt beam="1">  1       -1 0.14879015E-02 0.90935205E+02</pdfrwt>
<totfact> 0.12080332E+05</totfact>
</mgrwt>
</event>
<event>
 5    1  0.6046470E+000  0.9117669E+02  0.7546771E-02  0.1300027E+00
         -3   -1    0    0    0  501 -0.00000000000E+00  0.00000000000E+00  0.21318723611E+02  0.21318723611E+02  0.00000000000E+00 0.  1.
          3   -1    0    0  501    0  0.00000000000E+00 -0.00000000000E+00 -0.97486946688E+02  0.97486946688E+02  0.00000000000E+00 0. -1.
         23    2    1    2    0    0  0.00000000000E+00  0.00000000000E+00 -0.76168223077E+02  0.11880567030E+03  0.91176691585E+02 0.  0.
        -13    1    3    3    0    0  0.13301947052E+02 -0.19078900816E+02 -0.89174577041E+02  0.92157753023E+02  0.00000000000E+00 0. -1.
         13    1    3    3    0    0 -0.13301947052E+02  0.19078900816E+02  0.13006353964E+02  0.26647917276E+02  0.00000000000E+00 0.  1.
<mgrwt>
<rscale>  0 0.91176692E+02</rscale>
<asrwt>0</asrwt>
<pdfrwt beam="2">  1        3 0.14997992E-01 0.91176692E+02</pdfrwt>
<pdfrwt beam="1">  1       -3 0.32798037E-02 0.91176692E+02</pdfrwt>
<totfact> 0.33328301E+04</totfact>
</mgrwt>
</event>
<event>
 5    1  0.6046470E+000  0.8874111E+02  0.7546771E-02  0.1305929E+00
         -2   -1    0    0    0  501 -0.00000000000E+00  0.00000000000E+00  0.14821272657E+02  0.14821272657E+02  0.00000000000E+00 0.  1.
          2   -1    0    0  501    0  0.00000000000E+00 -0.00000000000E+00 -0.13283247145E+03  0.13283247145E+03  0.00000000000E+00 0. -1.
         23    2    1    2    0    0  0.00000000000E+00  0.00000000000E+00 -0.11801119880E+03  0.14765374411E+03  0.88741112841E+02 0.  0.
        -13    1    3    3    0    0  0.11049326244E+02  0.42969074354E+02 -0.59942870927E+02  0.74575979620E+02  0.00000000000E+00 0. -1.
         13    1    3    3    0    0 -0.11049326244E+02 -0.42969074354E+02 -0.58068327870E+02  0.73077764490E+02  0.00000000000E+00 0.  1.
<mgrwt>
<rscale>  0 0.88741113E+02</rscale>
<asrwt>0</asrwt>
<pdfrwt beam="2">  1        2 0.20435765E-01 0.88741113E+02</pdfrwt>
<pdfrwt beam="1">  1       -2 0.22801958E-02 0.88741113E+02</pdfrwt>
<totfact> 0.14447931E+05</totfact>
</mgrwt>
</event>
<event>
 5    1  0.6046470E+000  0.5719380E+02  0.7546771E-02  0.1410000E+00
         -1   -1    0    0    0  501 -0.00000000000E+00  0.00000000000E+00  0.14496680991E+03  0.14496680991E+03  0.00000000000E+00 0.  1.
          1   -1    0    0  501    0  0.00000000000E+00 -0.00000000000E+00 -0.56411718904E+01  0.56411718904E+01  0.00000000000E+00 0. -1.
         23    2    1    2    0    0  0.00000000000E+00  0.00000000000E+00  0.13932563802E+03  0.15060798181E+03  0.57193800123E+02 0.  0.
        -13    1    3    3    0    0 -0.10290809134E+02  0.18298685361E+02  0.12079481903E+03  0.12260559099E+03  0.00000000000E+00 0.  1.
         13    1    3    3    0    0  0.10290809134E+02 -0.18298685361E+02  0.18530818997E+02  0.28002390813E+02  0.00000000000E+00 0. -1.
<mgrwt>
<rscale>  0 0.57193800E+02</rscale>
<asrwt>0</asrwt>
<pdfrwt beam="2">  1        1 0.86787271E-03 0.57193800E+02</pdfrwt>
<pdfrwt beam="1">  1       -1 0.22302583E-01 0.57193800E+02</pdfrwt>
<totfact> 0.24811430E+05</totfact>
</mgrwt>
</event>
<event>
 5    1  0.6046470E+000  0.8401915E+02  0.7546771E-02  0.1318018E+00
         -1   -1    0    0    0  501 -0.00000000000E+00  0.00000000000E+00  0.58348154428E+01  0.58348154428E+01  0.00000000000E+00 0. -1.
          1   -1    0    0  501    0  0.00000000000E+00 -0.00000000000E+00 -0.30246101277E+03  0.30246101277E+03  0.00000000000E+00 0.  1.
         23    2    1    2    0    0  0.00000000000E+00  0.00000000000E+00 -0.29662619733E+03  0.30829582821E+03  0.84019145155E+02 0.  0.
        -13    1    3    3    0    0 -0.18285169280E+02  0.33971920564E+02 -0.87312905082E+02  0.95456703254E+02  0.00000000000E+00 0.  1.
         13    1    3    3    0    0  0.18285169280E+02 -0.33971920564E+02 -0.20931329225E+03  0.21283912496E+03  0.00000000000E+00 0. -1.
<mgrwt>
<rscale>  0 0.84019145E+02</rscale>
<asrwt>0</asrwt>
<pdfrwt beam="2">  1        1 0.46532469E-01 0.84019145E+02</pdfrwt>
<pdfrwt beam="1">  1       -1 0.89766380E-03 0.84019145E+02</pdfrwt>
<totfact> 0.15938733E+05</totfact>
</mgrwt>
</event>
<event>
 5    1  0.6046470E+000  0.8894340E+02  0.7546771E-02  0.1305431E+00
          2   -1    0    0  501    0  0.00000000000E+00  0.00000000000E+00  0.13532405278E+03  0.13532405278E+03  0.00000000000E+00 0.  1.
         -2   -1    0    0    0  501 -0.00000000000E+00 -0.00000000000E+00 -0.14614787264E+02  0.14614787264E+02  0.00000000000E+00 0. -1.
         23    2    1    2    0    0  0.00000000000E+00  0.00000000000E+00  0.12070926552E+03  0.14993884004E+03  0.88943403199E+02 0.  0.
        -13    1    3    3    0    0 -0.43365105633E+01 -0.43319143034E+02  0.45054047428E+02  0.62651581518E+02  0.00000000000E+00 0. -1.
         13    1    3    3    0    0  0.43365105633E+01  0.43319143034E+02  0.75655218088E+02  0.87287258527E+02  0.00000000000E+00 0.  1.
<mgrwt>
<rscale>  0 0.88943403E+02</rscale>
<asrwt>0</asrwt>
<pdfrwt beam="1">  1        2 0.20819084E-01 0.88943403E+02</pdfrwt>
<pdfrwt beam="2">  1       -2 0.22484289E-02 0.88943403E+02</pdfrwt>
<totfact> 0.14446914E+05</totfact>
</mgrwt>
</event>
<event>
 5    1  0.6046470E+000  0.8959967E+02  0.7546771E-02  0.1303824E+00
          2   -1    0    0  501    0  0.00000000000E+00  0.00000000000E+00  0.98784184134E+02  0.98784184134E+02  0.00000000000E+00 0. -1.
         -2   -1    0    0    0  501 -0.00000000000E+00 -0.00000000000E+00 -0.20317272366E+02  0.20317272366E+02  0.00000000000E+00 0.  1.
         23    2    1    2    0    0  0.00000000000E+00  0.00000000000E+00  0.78466911769E+02  0.11910145650E+03  0.89599669072E+02 0.  0.
        -13    1    3    3    0    0  0.34859107582E+02  0.13528161434E+01  0.76595839035E+02  0.84165967293E+02  0.00000000000E+00 0. -1.
         13    1    3    3    0    0 -0.34859107582E+02 -0.13528161434E+01  0.18710727337E+01  0.34935489207E+02  0.00000000000E+00 0.  1.
<mgrwt>
<rscale>  0 0.89599669E+02</rscale>
<asrwt>0</asrwt>
<pdfrwt beam="1">  1        2 0.15197567E-01 0.89599669E+02</pdfrwt>
<pdfrwt beam="2">  1       -2 0.31257343E-02 0.89599669E+02</pdfrwt>
<totfact> 0.12822578E+05</totfact>
</mgrwt>
</event>
<event>
 5    1  0.6046470E+000  0.9202495E+02  0.7546771E-02  0.1298021E+00
          1   -1    0    0  501    0  0.00000000000E+00  0.00000000000E+00  0.32633489927E+02  0.32633489927E+02  0.00000000000E+00 0. -1.
         -1   -1    0    0    0  501 -0.00000000000E+00 -0.00000000000E+00 -0.64876537223E+02  0.64876537223E+02  0.00000000000E+00 0.  1.
         23    2    1    2    0    0  0.00000000000E+00  0.00000000000E+00 -0.32243047296E+02  0.97510027150E+02  0.92024949312E+02 0.  0.
        -13    1    3    3    0    0 -0.30449316472E+02  0.13326362954E+02 -0.49836176047E+02  0.59903232519E+02  0.00000000000E+00 0.  1.
         13    1    3    3    0    0  0.30449316472E+02 -0.13326362954E+02  0.17593128751E+02  0.37606794632E+02  0.00000000000E+00 0. -1.
<mgrwt>
<rscale>  0 0.92024949E+02</rscale>
<asrwt>0</asrwt>
<pdfrwt beam="1">  1        1 0.50205370E-02 0.92024949E+02</pdfrwt>
<pdfrwt beam="2">  1       -1 0.99810056E-02 0.92024949E+02</pdfrwt>
<totfact> 0.85558275E+04</totfact>
</mgrwt>
</event>
<event>
 5    1  0.6046470E+000  0.9057598E+02  0.7546771E-02  0.1301463E+00
         -2   -1    0    0    0  501 -0.00000000000E+00  0.00000000000E+00  0.19810765111E+02  0.19810765111E+02  0.00000000000E+00 0.  1.
          2   -1    0    0  501    0  0.00000000000E+00 -0.00000000000E+00 -0.10352966983E+03  0.10352966983E+03  0.00000000000E+00 0. -1.
         23    2    1    2    0    0  0.00000000000E+00  0.00000000000E+00 -0.83718904721E+02  0.12334043494E+03  0.90575978517E+02 0.  0.
        -13    1    3    3    0    0  0.10383512552E+02  0.33773145550E+02 -0.32822258654E+01  0.35485429403E+02  0.00000000000E+00 0.  1.
         13    1    3    3    0    0 -0.10383512552E+02 -0.33773145550E+02 -0.80436678856E+02  0.87855005541E+02  0.00000000000E+00 0. -1.
<mgrwt>
<rscale>  0 0.90575979E+02</rscale>
<asrwt>0</asrwt>
<pdfrwt beam="2">  1        2 0.15927641E-01 0.90575979E+02</pdfrwt>
<pdfrwt beam="1">  1       -2 0.30478102E-02 0.90575979E+02</pdfrwt>
<totfact> 0.12625738E+05</totfact>
</mgrwt>
</event>
<event>
 5    1  0.6046470E+000  0.9118056E+02  0.7546771E-02  0.1300018E+00
          1   -1    0    0  501    0  0.00000000000E+00  0.00000000000E+00  0.10656887769E+03  0.10656887769E+03  0.00000000000E+00 0. -1.
         -1   -1    0    0    0  501 -0.00000000000E+00 -0.00000000000E+00 -0.19503569654E+02  0.19503569654E+02  0.00000000000E+00 0.  1.
         23    2    1    2    0    0  0.00000000000E+00  0.00000000000E+00  0.87065308040E+02  0.12607244735E+03  0.91180557775E+02 0.  0.
        -13    1    3    3    0    0 -0.27435219777E+02  0.25183187767E+02  0.71711305216E+01  0.37925049022E+02  0.00000000000E+00 0.  1.
         13    1    3    3    0    0  0.27435219777E+02 -0.25183187767E+02  0.79894177518E+02  0.88147398326E+02  0.00000000000E+00 0. -1.
<mgrwt>
<rscale>  0 0.91180558E+02</rscale>
<asrwt>0</asrwt>
<pdfrwt beam="1">  1        1 0.16395212E-01 0.91180558E+02</pdfrwt>
<pdfrwt beam="2">  1       -1 0.30005492E-02 0.91180558E+02</pdfrwt>
<totfact> 0.10555944E+05</totfact>
</mgrwt>
</event>
<event>
 5    1  0.6046470E+000  0.9028910E+02  0.7546771E-02  0.1302153E+00
          1   -1    0    0  501    0  0.00000000000E+00  0.00000000000E+00  0.20167875201E+03  0.20167875201E+03  0.00000000000E+00 0. -1.
         -1   -1    0    0    0  501 -0.00000000000E+00 -0.00000000000E+00 -0.10105330723E+02  0.10105330723E+02  0.00000000000E+00 0.  1.
         23    2    1    2    0    0  0.00000000000E+00  0.00000000000E+00  0.19157342129E+03  0.21178408274E+03  0.90289102087E+02 0.  0.
        -13    1    3    3    0    0 -0.44218515886E+02 -0.47166194911E+01  0.77541023368E+02  0.89387549198E+02  0.00000000000E+00 0.  1.
         13    1    3    3    0    0  0.44218515886E+02  0.47166194911E+01  0.11403239792E+03  0.12239653354E+03  0.00000000000E+00 0. -1.
<mgrwt>
<rscale>  0 0.90289102E+02</rscale>
<asrwt>0</asrwt>
<pdfrwt beam="1">  1        1 0.31027497E-01 0.90289102E+02</pdfrwt>
<pdfrwt beam="2">  1       -1 0.15546664E-02 0.90289102E+02</pdfrwt>
<totfact> 0.12174746E+05</totfact>
</mgrwt>
</event>
<event>
 5    1  0.6046470E+000  0.8877117E+02  0.7546771E-02  0.1305855E+00
         -2   -1    0    0    0  501 -0.00000000000E+00  0.00000000000E+00  0.31098696509E+02  0.31098696509E+02  0.00000000000E+00 0.  1.
          2   -1    0    0  501    0  0.00000000000E+00 -0.00000000000E+00 -0.63349281732E+02  0.63349281732E+02  0.00000000000E+00 0. -1.
         23    2    1    2    0    0  0.00000000000E+00  0.00000000000E+00 -0.32250585223E+02  0.94447978241E+02  0.88771168442E+02 0.  0.
        -13    1    3    3    0    0  0.26964733997E+02  0.99484029998E+01 -0.52111502742E+02  0.59511984674E+02  0.00000000000E+00 0. -1.
         13    1    3    3    0    0 -0.26964733997E+02 -0.99484029998E+01  0.19860917520E+02  0.34935993567E+02  0.00000000000E+00 0.  1.
<mgrwt>
<rscale>  0 0.88771168E+02</rscale>
<asrwt>0</asrwt>
<pdfrwt beam="2">  1        2 0.97460433E-02 0.88771168E+02</pdfrwt>
<pdfrwt beam="1">  1       -2 0.47844149E-02 0.88771168E+02</pdfrwt>
<totfact> 0.11601292E+05</totfact>
</mgrwt>
</event>
<event>
 5    1  0.6046470E+000  0.9086917E+02  0.7546771E-02  0.1300760E+00
          1   -1    0    0  501    0  0.00000000000E+00  0.00000000000E+00  0.23518279979E+02  0.23518279979E+02  0.00000000000E+00 0. -1.
         -1   -1    0    0    0  501 -0.00000000000E+00 -0.00000000000E+00 -0.87774335433E+02  0.87774335433E+02  0.00000000000E+00 0.  1.
         23    2    1    2    0    0  0.00000000000E+00  0.00000000000E+00 -0.64256055454E+02  0.11129261541E+03  0.90869167393E+02 0.  0.
        -13    1    3    3    0    0  0.85602073553E+00 -0.42649775661E+02 -0.12974570186E+02  0.44587841470E+02  0.00000000000E+00 0. -1.
         13    1    3    3    0    0 -0.85602073553E+00  0.42649775661E+02 -0.51281485269E+02  0.66704773943E+02  0.00000000000E+00 0.  1.
<mgrwt>
<rscale>  0 0.90869167E+02</rscale>
<asrwt>0</asrwt>
<pdfrwt beam="1">  1        1 0.36181969E-02 0.90869167E+02</pdfrwt>
<pdfrwt beam="2">  1       -1 0.13503744E-01 0.90869167E+02</pdfrwt>
<totfact> 0.84035169E+04</totfact>
</mgrwt>
</event>
<event>
 5    1  0.6046470E+000  0.8741427E+02  0.7546771E-02  0.1309237E+00
          4   -1    0    0  501    0  0.00000000000E+00  0.00000000000E+00  0.49058918799E+01  0.49058918799E+01  0.00000000000E+00 0. -1.
         -4   -1    0    0    0  501 -0.00000000000E+00 -0.00000000000E+00 -0.38939171946E+03  0.38939171946E+03  0.00000000000E+00 0.  1.
         23    2    1    2    0    0  0.00000000000E+00  0.00000000000E+00 -0.38448582758E+03  0.39429761134E+03  0.87414270566E+02 0.  0.
        -13    1    3    3    0    0 -0.18561597684E+00  0.42620663429E+02 -0.14856653725E+03  0.15455928117E+03  0.00000000000E+00 0.  1.
         13    1    3    3    0    0  0.18561597684E+00 -0.42620663429E+02 -0.23591929033E+03  0.23973833017E+03  0.00000000000E+00 0. -1.
<mgrwt>
<rscale>  0 0.87414271E+02</rscale>
<asrwt>0</asrwt>
<pdfrwt beam="1">  1        4 0.75475286E-03 0.87414271E+02</pdfrwt>
<pdfrwt beam="2">  1       -4 0.59906397E-01 0.87414271E+02</pdfrwt>
<totfact> 0.17079226E+04</totfact>
</mgrwt>
</event>
<event>
 5    1  0.6046470E+000  0.9271063E+02  0.7546771E-02  0.1296417E+00
         -2   -1    0    0    0  501 -0.00000000000E+00  0.00000000000E+00  0.49406226354E+01  0.49406226354E+01  0.00000000000E+00 0. -1.
          2   -1    0    0  501    0  0.00000000000E+00 -0.00000000000E+00 -0.43492806469E+03  0.43492806469E+03  0.00000000000E+00 0.  1.
         23    2    1    2    0    0  0.00000000000E+00  0.00000000000E+00 -0.42998744206E+03  0.43986868733E+03  0.92710634583E+02 0.  0.
        -13    1    3    3    0    0 -0.45409248681E+02 -0.54010467047E+01 -0.25101603151E+03  0.25514744609E+03  0.00000000000E+00 0. -1.
         13    1    3    3    0    0  0.45409248681E+02  0.54010467047E+01 -0.17897141055E+03  0.18472124124E+03  0.00000000000E+00 0.  1.
<mgrwt>
<rscale>  0 0.92710635E+02</rscale>
<asrwt>0</asrwt>
<pdfrwt beam="2">  1        2 0.66912006E-01 0.92710635E+02</pdfrwt>
<pdfrwt beam="1">  1       -2 0.76009583E-03 0.92710635E+02</pdfrwt>
<totfact> 0.19669920E+05</totfact>
</mgrwt>
</event>
<event>
 5    1  0.6046470E+000  0.8895734E+02  0.7546771E-02  0.1305396E+00
         -2   -1    0    0    0  501 -0.00000000000E+00  0.00000000000E+00  0.13328446401E+02  0.13328446401E+02  0.00000000000E+00 0.  1.
          2   -1    0    0  501    0  0.00000000000E+00 -0.00000000000E+00 -0.14843080905E+03  0.14843080905E+03  0.00000000000E+00 0. -1.
         23    2    1    2    0    0  0.00000000000E+00  0.00000000000E+00 -0.13510236265E+03  0.16175925545E+03  0.88957339946E+02 0.  0.
        -13    1    3    3    0    0  0.91206161167E+00  0.44410182513E+02 -0.71719985875E+02  0.84361439895E+02  0.00000000000E+00 0.  1.
         13    1    3    3    0    0 -0.91206161167E+00 -0.44410182513E+02 -0.63382376772E+02  0.77397815553E+02  0.00000000000E+00 0. -1.
<mgrwt>
<rscale>  0 0.88957340E+02</rscale>
<asrwt>0</asrwt>
<pdfrwt beam="2">  1        2 0.22835507E-01 0.88957340E+02</pdfrwt>
<pdfrwt beam="1">  1       -2 0.20505304E-02 0.88957340E+02</pdfrwt>
<totfact> 0.14892815E+05</totfact>
</mgrwt>
</event>
<event>
 5    1  0.6046470E+000  0.9151920E+02  0.7546771E-02  0.1299214E+00
         -1   -1    0    0    0  501 -0.00000000000E+00  0.00000000000E+00  0.89026938161E+01  0.89026938161E+01  0.00000000000E+00 0.  1.
          1   -1    0    0  501    0  0.00000000000E+00 -0.00000000000E+00 -0.23520309035E+03  0.23520309035E+03  0.00000000000E+00 0. -1.
         23    2    1    2    0    0  0.00000000000E+00  0.00000000000E+00 -0.22630039654E+03  0.24410578417E+03  0.91519202313E+02 0.  0.
        -13    1    3    3    0    0 -0.31819846992E+01  0.40350467830E+02 -0.56214545556E+02  0.69270198591E+02  0.00000000000E+00 0.  1.
         13    1    3    3    0    0  0.31819846992E+01 -0.40350467830E+02 -0.17008585098E+03  0.17483558558E+03  0.00000000000E+00 0. -1.
<mgrwt>
<rscale>  0 0.91519202E+02</rscale>
<asrwt>0</asrwt>
<pdfrwt beam="2">  1        1 0.36185090E-01 0.91519202E+02</pdfrwt>
<pdfrwt beam="1">  1       -1 0.13696452E-02 0.91519202E+02</pdfrwt>
<totfact> 0.12098764E+05</totfact>
</mgrwt>
</event>
<event>
 5    1  0.6046470E+000  0.9223933E+02  0.7546771E-02  0.1297518E+00
          3   -1    0    0  501    0  0.00000000000E+00  0.00000000000E+00  0.94137901539E+01  0.94137901539E+01  0.00000000000E+00 0. -1.
         -3   -1    0    0    0  501 -0.00000000000E+00 -0.00000000000E+00 -0.22594760558E+03  0.22594760558E+03  0.00000000000E+00 0.  1.
         23    2    1    2    0    0  0.00000000000E+00  0.00000000000E+00 -0.21653381542E+03  0.23536139573E+03  0.92239326638E+02 0.  0.
        -13    1    3    3    0    0  0.13625741683E+01 -0.42275122524E+02 -0.15517687076E+03  0.16083812922E+03  0.00000000000E+00 0. -1.
         13    1    3    3    0    0 -0.13625741683E+01  0.42275122524E+02 -0.61356944665E+02  0.74523266511E+02  0.00000000000E+00 0.  1.
<mgrwt>
<rscale>  0 0.92239327E+02</rscale>
<asrwt>0</asrwt>
<pdfrwt beam="1">  1        3 0.14482754E-02 0.92239327E+02</pdfrwt>
<pdfrwt beam="2">  1       -3 0.34761170E-01 0.92239327E+02</pdfrwt>
<totfact> 0.25940899E+04</totfact>
</mgrwt>
</event>
<event>
 5    1  0.6046470E+000  0.9150790E+02  0.7546771E-02  0.1299241E+00
         -1   -1    0    0    0  501 -0.00000000000E+00  0.00000000000E+00  0.10948772812E+02  0.10948772812E+02  0.00000000000E+00 0.  1.
          1   -1    0    0  501    0  0.00000000000E+00 -0.00000000000E+00 -0.19120171770E+03  0.19120171770E+03  0.00000000000E+00 0. -1.
         23    2    1    2    0    0  0.00000000000E+00  0.00000000000E+00 -0.18025294489E+03  0.20215049051E+03  0.91507904976E+02 0.  0.
        -13    1    3    3    0    0  0.14017553253E+02 -0.37257301220E+02 -0.40295337242E+02  0.56641967629E+02  0.00000000000E+00 0.  1.
         13    1    3    3    0    0 -0.14017553253E+02  0.37257301220E+02 -0.13995760764E+03  0.14550852288E+03  0.00000000000E+00 0. -1.
<mgrwt>
<rscale>  0 0.91507905E+02</rscale>
<asrwt>0</asrwt>
<pdfrwt beam="2">  1        1 0.29415647E-01 0.91507905E+02</pdfrwt>
<pdfrwt beam="1">  1       -1 0.16844267E-02 0.91507905E+02</pdfrwt>
<totfact> 0.11624242E+05</totfact>
</mgrwt>
</event>
<event>
 5    1  0.6046470E+000  0.8990450E+02  0.7546771E-02  0.1303083E+00
         -2   -1    0    0    0  501 -0.00000000000E+00  0.00000000000E+00  0.12851463240E+02  0.12851463240E+02  0.00000000000E+00 0.  1.
          2   -1    0    0  501    0  0.00000000000E+00 -0.00000000000E+00 -0.15723536981E+03  0.15723536981E+03  0.00000000000E+00 0. -1.
         23    2    1    2    0    0  0.00000000000E+00  0.00000000000E+00 -0.14438390657E+03  0.17008683305E+03  0.89904495442E+02 0.  0.
        -13    1    3    3    0    0  0.10906804390E+02  0.41284988488E+02 -0.45618479085E+02  0.62485632673E+02  0.00000000000E+00 0.  1.
         13    1    3    3    0    0 -0.10906804390E+02 -0.41284988488E+02 -0.98765427485E+02  0.10760120038E+03  0.00000000000E+00 0. -1.
<mgrwt>
<rscale>  0 0.89904495E+02</rscale>
<asrwt>0</asrwt>
<pdfrwt beam="2">  1        2 0.24190058E-01 0.89904495E+02</pdfrwt>
<pdfrwt beam="1">  1       -2 0.19771481E-02 0.89904495E+02</pdfrwt>
<totfact> 0.14758752E+05</totfact>
</mgrwt>
</event>
<event>
 5    1  0.6046470E+000  0.8465598E+02  0.7546771E-02  0.1316335E+00
         -2   -1    0    0    0  501 -0.00000000000E+00  0.00000000000E+00  0.59545252732E+02  0.59545252732E+02  0.00000000000E+00 0.  1.
          2   -1    0    0  501    0  0.00000000000E+00 -0.00000000000E+00 -0.30089030633E+02  0.30089030633E+02  0.00000000000E+00 0. -1.
         23    2    1    2    0    0  0.00000000000E+00  0.00000000000E+00  0.29456222099E+02  0.89634283365E+02  0.84655984632E+02 0.  0.
        -13    1    3    3    0    0  0.12382301030E+02  0.84100411248E+01 -0.27193245386E+02  0.31040663091E+02  0.00000000000E+00 0. -1.
         13    1    3    3    0    0 -0.12382301030E+02 -0.84100411248E+01  0.56649467485E+02  0.58593620274E+02  0.00000000000E+00 0.  1.
<mgrwt>
<rscale>  0 0.84655985E+02</rscale>
<asrwt>0</asrwt>
<pdfrwt beam="2">  1        2 0.46290816E-02 0.84655985E+02</pdfrwt>
<pdfrwt beam="1">  1       -2 0.91608081E-02 0.84655985E+02</pdfrwt>
<totfact> 0.11010392E+05</totfact>
</mgrwt>
</event>
<event>
 5    1  0.6046470E+000  0.9184101E+02  0.7546771E-02  0.1298454E+00
         -2   -1    0    0    0  501 -0.00000000000E+00  0.00000000000E+00  0.79338487970E+01  0.79338487970E+01  0.00000000000E+00 0.  1.
          2   -1    0    0  501    0  0.00000000000E+00 -0.00000000000E+00 -0.26578434378E+03  0.26578434378E+03  0.00000000000E+00 0. -1.
         23    2    1    2    0    0  0.00000000000E+00  0.00000000000E+00 -0.25785049498E+03  0.27371819258E+03  0.91841010364E+02 0.  0.
        -13    1    3    3    0    0 -0.37469744325E+02 -0.20020217389E+02 -0.76969481080E+02  0.87915253864E+02  0.00000000000E+00 0.  1.
         13    1    3    3    0    0  0.37469744325E+02  0.20020217389E+02 -0.18088101390E+03  0.18580293871E+03  0.00000000000E+00 0. -1.
<mgrwt>
<rscale>  0 0.91841010E+02</rscale>
<asrwt>0</asrwt>
<pdfrwt beam="2">  1        2 0.40889884E-01 0.91841010E+02</pdfrwt>
<pdfrwt beam="1">  1       -2 0.12205926E-02 0.91841010E+02</pdfrwt>
<totfact> 0.16842021E+05</totfact>
</mgrwt>
</event>
<event>
 5    1  0.6046470E+000  0.9222715E+02  0.7546771E-02  0.1297546E+00
          2   -1    0    0  501    0  0.00000000000E+00  0.00000000000E+00  0.78251959172E+01  0.78251959172E+01  0.00000000000E+00 0. -1.
         -2   -1    0    0    0  501 -0.00000000000E+00 -0.00000000000E+00 -0.27174548226E+03  0.27174548226E+03  0.00000000000E+00 0.  1.
         23    2    1    2    0    0  0.00000000000E+00  0.00000000000E+00 -0.26392028635E+03  0.27957067818E+03  0.92227146509E+02 0.  0.
        -13    1    3    3    0    0 -0.30681477701E+01  0.45938969727E+02 -0.12413769252E+03  0.13240078993E+03  0.00000000000E+00 0.  1.
         13    1    3    3    0    0  0.30681477701E+01 -0.45938969727E+02 -0.13978259383E+03  0.14716988825E+03  0.00000000000E+00 0. -1.
<mgrwt>
<rscale>  0 0.92227147E+02</rscale>
<asrwt>0</asrwt>
<pdfrwt beam="1">  1        2 0.12038765E-02 0.92227147E+02</pdfrwt>
<pdfrwt beam="2">  1       -2 0.41806991E-01 0.92227147E+02</pdfrwt>
<totfact> 0.52260627E+04</totfact>
</mgrwt>
</event>
<event>
 5    1  0.6046470E+000  0.9374977E+02  0.7546771E-02  0.1294017E+00
          4   -1    0    0  501    0  0.00000000000E+00  0.00000000000E+00  0.15690172862E+02  0.15690172862E+02  0.00000000000E+00 0. -1.
         -4   -1    0    0    0  501 -0.00000000000E+00 -0.00000000000E+00 -0.14004019746E+03  0.14004019746E+03  0.00000000000E+00 0.  1.
         23    2    1    2    0    0  0.00000000000E+00  0.00000000000E+00 -0.12435002460E+03  0.15573037032E+03  0.93749771323E+02 0.  0.
        -13    1    3    3    0    0  0.27946741509E+02  0.96124084896E+01 -0.17356021817E+01  0.29604578580E+02  0.00000000000E+00 0. -1.
         13    1    3    3    0    0 -0.27946741509E+02 -0.96124084896E+01 -0.12261442242E+03  0.12612579174E+03  0.00000000000E+00 0.  1.
<mgrwt>
<rscale>  0 0.93749771E+02</rscale>
<asrwt>0</asrwt>
<pdfrwt beam="1">  1        4 0.24138728E-02 0.93749771E+02</pdfrwt>
<pdfrwt beam="2">  1       -4 0.21544645E-01 0.93749771E+02</pdfrwt>
<totfact> 0.21696426E+04</totfact>
</mgrwt>
</event>
<event>
 5    1  0.6046470E+000  0.9073801E+02  0.7546771E-02  0.1301074E+00
         -1   -1    0    0    0  501 -0.00000000000E+00  0.00000000000E+00  0.17286435012E+02  0.17286435012E+02  0.00000000000E+00 0.  1.
          1   -1    0    0  501    0  0.00000000000E+00 -0.00000000000E+00 -0.11907294856E+03  0.11907294856E+03  0.00000000000E+00 0. -1.
         23    2    1    2    0    0  0.00000000000E+00  0.00000000000E+00 -0.10178651354E+03  0.13635938357E+03  0.90738013795E+02 0.  0.
        -13    1    3    3    0    0  0.42695154605E+00 -0.23035155819E+02  0.78411954803E+01  0.24336906907E+02  0.00000000000E+00 0.  1.
         13    1    3    3    0    0 -0.42695154605E+00  0.23035155819E+02 -0.10962770902E+03  0.11202247666E+03  0.00000000000E+00 0. -1.
<mgrwt>
<rscale>  0 0.90738014E+02</rscale>
<asrwt>0</asrwt>
<pdfrwt beam="2">  1        1 0.18318914E-01 0.90738014E+02</pdfrwt>
<pdfrwt beam="1">  1       -1 0.26594517E-02 0.90738014E+02</pdfrwt>
<totfact> 0.10901031E+05</totfact>
</mgrwt>
</event>
<event>
 5    1  0.6046470E+000  0.9019575E+02  0.7546771E-02  0.1302378E+00
         -1   -1    0    0    0  501 -0.00000000000E+00  0.00000000000E+00  0.45796033725E+02  0.45796033725E+02  0.00000000000E+00 0.  1.
          1   -1    0    0  501    0  0.00000000000E+00 -0.00000000000E+00 -0.44410361623E+02  0.44410361623E+02  0.00000000000E+00 0. -1.
         23    2    1    2    0    0  0.00000000000E+00  0.00000000000E+00  0.13856721020E+01  0.90206395348E+02  0.90195751976E+02 0.  0.
        -13    1    3    3    0    0 -0.19493496324E+02 -0.27385548585E+02 -0.29374872141E+02  0.44641323721E+02  0.00000000000E+00 0. -1.
         13    1    3    3    0    0  0.19493496324E+02  0.27385548585E+02  0.30760544243E+02  0.45565071627E+02  0.00000000000E+00 0.  1.
<mgrwt>
<rscale>  0 0.90195752E+02</rscale>
<asrwt>0</asrwt>
<pdfrwt beam="2">  1        1 0.68323633E-02 0.90195752E+02</pdfrwt>
<pdfrwt beam="1">  1       -1 0.70455436E-02 0.90195752E+02</pdfrwt>
<totfact> 0.94947586E+04</totfact>
</mgrwt>
</event>
<event>
 5    1  0.6046470E+000  0.8920952E+02  0.7546771E-02  0.1304777E+00
          1   -1    0    0  501    0  0.00000000000E+00  0.00000000000E+00  0.55732601421E+02  0.55732601421E+02  0.00000000000E+00 0. -1.
         -1   -1    0    0    0  501 -0.00000000000E+00 -0.00000000000E+00 -0.35698758113E+02  0.35698758113E+02  0.00000000000E+00 0.  1.
         23    2    1    2    0    0  0.00000000000E+00  0.00000000000E+00  0.20033843308E+02  0.91431359534E+02  0.89209520952E+02 0.  0.
        -13    1    3    3    0    0  0.14436794178E+02  0.15407573828E+01  0.53243043470E+02  0.55187105716E+02  0.00000000000E+00 0. -1.
         13    1    3    3    0    0 -0.14436794178E+02 -0.15407573828E+01 -0.33209200161E+02  0.36244253818E+02  0.00000000000E+00 0.  1.
<mgrwt>
<rscale>  0 0.89209521E+02</rscale>
<asrwt>0</asrwt>
<pdfrwt beam="1">  1        1 0.85742464E-02 0.89209521E+02</pdfrwt>
<pdfrwt beam="2">  1       -1 0.54921166E-02 0.89209521E+02</pdfrwt>
<totfact> 0.10125176E+05</totfact>
</mgrwt>
</event>
<event>
 5    1  0.6046470E+000  0.8980321E+02  0.7546771E-02  0.1303329E+00
          2   -1    0    0  501    0  0.00000000000E+00  0.00000000000E+00  0.13330461490E+03  0.13330461490E+03  0.00000000000E+00 0. -1.
         -2   -1    0    0    0  501 -0.00000000000E+00 -0.00000000000E+00 -0.15124412481E+02  0.15124412481E+02  0.00000000000E+00 0.  1.
         23    2    1    2    0    0  0.00000000000E+00  0.00000000000E+00  0.11818020242E+03  0.14842902738E+03  0.89803206655E+02 0.  0.
        -13    1    3    3    0    0  0.20213604727E+02 -0.37064230091E+02  0.33817161346E+02  0.54092026859E+02  0.00000000000E+00 0.  1.
         13    1    3    3    0    0 -0.20213604727E+02  0.37064230091E+02  0.84363041077E+02  0.94337000525E+02  0.00000000000E+00 0. -1.
<mgrwt>
<rscale>  0 0.89803207E+02</rscale>
<asrwt>0</asrwt>
<pdfrwt beam="1">  1        2 0.20508401E-01 0.89803207E+02</pdfrwt>
<pdfrwt beam="2">  1       -2 0.23268328E-02 0.89803207E+02</pdfrwt>
<totfact> 0.14005074E+05</totfact>
</mgrwt>
</event>
<event>
 5    1  0.6046470E+000  0.9561103E+02  0.7546771E-02  0.1289806E+00
          1   -1    0    0  501    0  0.00000000000E+00  0.00000000000E+00  0.26733172309E+03  0.26733172309E+03  0.00000000000E+00 0. -1.
         -1   -1    0    0    0  501 -0.00000000000E+00 -0.00000000000E+00 -0.85488062850E+01  0.85488062850E+01  0.00000000000E+00 0.  1.
         23    2    1    2    0    0  0.00000000000E+00  0.00000000000E+00  0.25878291680E+03  0.27588052937E+03  0.95611026864E+02 0.  0.
        -13    1    3    3    0    0  0.29625481095E+02  0.37304857656E+02  0.11783324326E+03  0.12709836644E+03  0.00000000000E+00 0.  1.
         13    1    3    3    0    0 -0.29625481095E+02 -0.37304857656E+02  0.14094967354E+03  0.14878216293E+03  0.00000000000E+00 0. -1.
<mgrwt>
<rscale>  0 0.95611027E+02</rscale>
<asrwt>0</asrwt>
<pdfrwt beam="1">  1        1 0.41127951E-01 0.95611027E+02</pdfrwt>
<pdfrwt beam="2">  1       -1 0.13152012E-02 0.95611027E+02</pdfrwt>
<totfact> 0.11034156E+05</totfact>
</mgrwt>
</event>
<event>
 5    1  0.6046470E+000  0.9175615E+02  0.7546771E-02  0.1298654E+00
         -3   -1    0    0    0  501 -0.00000000000E+00  0.00000000000E+00  0.32260529537E+02  0.32260529537E+02  0.00000000000E+00 0.  1.
          3   -1    0    0  501    0  0.00000000000E+00 -0.00000000000E+00 -0.65243747966E+02  0.65243747966E+02  0.00000000000E+00 0. -1.
         23    2    1    2    0    0  0.00000000000E+00  0.00000000000E+00 -0.32983218428E+02  0.97504277503E+02  0.91756152020E+02 0.  0.
        -13    1    3    3    0    0  0.37258501879E+02 -0.14740360775E+02  0.72537940237E+01  0.40719672467E+02  0.00000000000E+00 0.  1.
         13    1    3    3    0    0 -0.37258501879E+02  0.14740360775E+02 -0.40237012452E+02  0.56784605036E+02  0.00000000000E+00 0. -1.
<mgrwt>
<rscale>  0 0.91756152E+02</rscale>
<asrwt>0</asrwt>
<pdfrwt beam="2">  1        3 0.10037500E-01 0.91756152E+02</pdfrwt>
<pdfrwt beam="1">  1       -3 0.49631585E-02 0.91756152E+02</pdfrwt>
<totfact> 0.34260036E+04</totfact>
</mgrwt>
</event>
<event>
 5    1  0.6046470E+000  0.9070308E+02  0.7546771E-02  0.1301158E+00
         -2   -1    0    0    0  501 -0.00000000000E+00  0.00000000000E+00  0.19607386092E+02  0.19607386092E+02  0.00000000000E+00 0.  1.
          2   -1    0    0  501    0  0.00000000000E+00 -0.00000000000E+00 -0.10489732645E+03  0.10489732645E+03  0.00000000000E+00 0. -1.
         23    2    1    2    0    0  0.00000000000E+00  0.00000000000E+00 -0.85289940356E+02  0.12450471254E+03  0.90703084394E+02 0.  0.
        -13    1    3    3    0    0 -0.14186892067E+02  0.39866017714E+02 -0.20249315286E+02  0.46910574975E+02  0.00000000000E+00 0. -1.
         13    1    3    3    0    0  0.14186892067E+02 -0.39866017714E+02 -0.65040625070E+02  0.77594137565E+02  0.00000000000E+00 0.  1.
<mgrwt>
<rscale>  0 0.90703084E+02</rscale>
<asrwt>0</asrwt>
<pdfrwt beam="2">  1        2 0.16138050E-01 0.90703084E+02</pdfrwt>
<pdfrwt beam="1">  1       -2 0.30165210E-02 0.90703084E+02</pdfrwt>
<totfact> 0.12628101E+05</totfact>
</mgrwt>
</event>
<event>
 5    1  0.6046470E+000  0.9215488E+02  0.7546771E-02  0.1297716E+00
         -1   -1    0    0    0  501 -0.00000000000E+00  0.00000000000E+00  0.27066261682E+02  0.27066261682E+02  0.00000000000E+00 0.  1.
          1   -1    0    0  501    0  0.00000000000E+00 -0.00000000000E+00 -0.78441954766E+02  0.78441954766E+02  0.00000000000E+00 0. -1.
         23    2    1    2    0    0  0.00000000000E+00  0.00000000000E+00 -0.51375693084E+02  0.10550821645E+03  0.92154879948E+02 0.  0.
        -13    1    3    3    0    0  0.17293876818E+02  0.14365408828E+02 -0.71736319803E+02  0.75176743246E+02  0.00000000000E+00 0. -1.
         13    1    3    3    0    0 -0.17293876818E+02 -0.14365408828E+02  0.20360626719E+02  0.30331473202E+02  0.00000000000E+00 0.  1.
<mgrwt>
<rscale>  0 0.92154880E+02</rscale>
<asrwt>0</asrwt>
<pdfrwt beam="2">  1        1 0.12067993E-01 0.92154880E+02</pdfrwt>
<pdfrwt beam="1">  1       -1 0.41640403E-02 0.92154880E+02</pdfrwt>
<totfact> 0.97527171E+04</totfact>
</mgrwt>
</event>
<event>
 5    1  0.6046470E+000  0.9210852E+02  0.7546771E-02  0.1297824E+00
         -2   -1    0    0    0  501 -0.00000000000E+00  0.00000000000E+00  0.29314250859E+02  0.29314250859E+02  0.00000000000E+00 0.  1.
          2   -1    0    0  501    0  0.00000000000E+00 -0.00000000000E+00 -0.72353718602E+02  0.72353718602E+02  0.00000000000E+00 0. -1.
         23    2    1    2    0    0  0.00000000000E+00  0.00000000000E+00 -0.43039467744E+02  0.10166796946E+03  0.92108524202E+02 0.  0.
        -13    1    3    3    0    0  0.26379417564E+02 -0.35058865413E+02 -0.36972613350E+02  0.57375707865E+02  0.00000000000E+00 0. -1.
         13    1    3    3    0    0 -0.26379417564E+02  0.35058865413E+02 -0.60668543931E+01  0.44292261596E+02  0.00000000000E+00 0.  1.
<mgrwt>
<rscale>  0 0.92108524E+02</rscale>
<asrwt>0</asrwt>
<pdfrwt beam="2">  1        2 0.11131341E-01 0.92108524E+02</pdfrwt>
<pdfrwt beam="1">  1       -2 0.45098848E-02 0.92108524E+02</pdfrwt>
<totfact> 0.10851049E+05</totfact>
</mgrwt>
</event>
<event>
 5    1  0.6046470E+000  0.8120706E+02  0.7546771E-02  0.1325660E+00
         -1   -1    0    0    0  501 -0.00000000000E+00  0.00000000000E+00  0.15784484213E+03  0.15784484213E+03  0.00000000000E+00 0.  1.
          1   -1    0    0  501    0  0.00000000000E+00 -0.00000000000E+00 -0.10444730003E+02  0.10444730003E+02  0.00000000000E+00 0. -1.
         23    2    1    2    0    0  0.00000000000E+00  0.00000000000E+00  0.14740011212E+03  0.16828957213E+03  0.81207062709E+02 0.  0.
        -13    1    3    3    0    0 -0.36299354257E+02 -0.38137303110E+01  0.11056573177E+03  0.11643439655E+03  0.00000000000E+00 0.  1.
         13    1    3    3    0    0  0.36299354257E+02  0.38137303110E+01  0.36834380353E+02  0.51855175579E+02  0.00000000000E+00 0. -1.
<mgrwt>
<rscale>  0 0.81207063E+02</rscale>
<asrwt>0</asrwt>
<pdfrwt beam="2">  1        1 0.16068816E-02 0.81207063E+02</pdfrwt>
<pdfrwt beam="1">  1       -1 0.24283820E-01 0.81207063E+02</pdfrwt>
<totfact> 0.99701698E+04</totfact>
</mgrwt>
</event>
<event>
 5    1  0.6046470E+000  0.9130300E+02  0.7546771E-02  0.1299727E+00
         -1   -1    0    0    0  501 -0.00000000000E+00  0.00000000000E+00  0.11395881562E+02  0.11395881562E+02  0.00000000000E+00 0.  1.
          1   -1    0    0  501    0  0.00000000000E+00 -0.00000000000E+00 -0.18287832014E+03  0.18287832014E+03  0.00000000000E+00 0. -1.
         23    2    1    2    0    0  0.00000000000E+00  0.00000000000E+00 -0.17148243858E+03  0.19427420170E+03  0.91303004914E+02 0.  0.
        -13    1    3    3    0    0  0.35905770221E+02 -0.14467349917E+02 -0.13722910471E+03  0.14258455642E+03  0.00000000000E+00 0. -1.
         13    1    3    3    0    0 -0.35905770221E+02  0.14467349917E+02 -0.34253333869E+02  0.51689645287E+02  0.00000000000E+00 0.  1.
<mgrwt>
<rscale>  0 0.91303005E+02</rscale>
<asrwt>0</asrwt>
<pdfrwt beam="2">  1        1 0.28135124E-01 0.91303005E+02</pdfrwt>
<pdfrwt beam="1">  1       -1 0.17532127E-02 0.91303005E+02</pdfrwt>
<totfact> 0.11594731E+05</totfact>
</mgrwt>
</event>
<event>
 5    1  0.6046470E+000  0.8992618E+02  0.7546771E-02  0.1303031E+00
         -4   -1    0    0    0  501 -0.00000000000E+00  0.00000000000E+00  0.22869502565E+02  0.22869502565E+02  0.00000000000E+00 0.  1.
          4   -1    0    0  501    0  0.00000000000E+00 -0.00000000000E+00 -0.88400666909E+02  0.88400666909E+02  0.00000000000E+00 0. -1.
         23    2    1    2    0    0  0.00000000000E+00  0.00000000000E+00 -0.65531164343E+02  0.11127016947E+03  0.89926175914E+02 0.  0.
        -13    1    3    3    0    0  0.37509628288E+02  0.72829302255E+01 -0.34410097639E+01  0.38364747298E+02  0.00000000000E+00 0.  1.
         13    1    3    3    0    0 -0.37509628288E+02 -0.72829302255E+01 -0.62090154579E+02  0.72905422176E+02  0.00000000000E+00 0. -1.
<mgrwt>
<rscale>  0 0.89926176E+02</rscale>
<asrwt>0</asrwt>
<pdfrwt beam="2">  1        4 0.13600103E-01 0.89926176E+02</pdfrwt>
<pdfrwt beam="1">  1       -4 0.35183849E-02 0.89926176E+02</pdfrwt>
<totfact> 0.26756270E+04</totfact>
</mgrwt>
</event>
<event>
 5    1  0.6046470E+000  0.9430703E+02  0.7546771E-02  0.1292745E+00
         -1   -1    0    0    0  501 -0.00000000000E+00  0.00000000000E+00  0.12359876559E+02  0.12359876559E+02  0.00000000000E+00 0.  1.
          1   -1    0    0  501    0  0.00000000000E+00 -0.00000000000E+00 -0.17989288455E+03  0.17989288455E+03  0.00000000000E+00 0. -1.
         23    2    1    2    0    0  0.00000000000E+00  0.00000000000E+00 -0.16753300799E+03  0.19225276110E+03  0.94307027242E+02 0.  0.
        -13    1    3    3    0    0 -0.44898775964E+02  0.87843494047E+01 -0.10704468049E+03  0.11641146206E+03  0.00000000000E+00 0.  1.
         13    1    3    3    0    0  0.44898775964E+02 -0.87843494047E+01 -0.60488327494E+02  0.75841299043E+02  0.00000000000E+00 0. -1.
<mgrwt>
<rscale>  0 0.94307027E+02</rscale>
<asrwt>0</asrwt>
<pdfrwt beam="2">  1        1 0.27675826E-01 0.94307027E+02</pdfrwt>
<pdfrwt beam="1">  1       -1 0.19015196E-02 0.94307027E+02</pdfrwt>
<totfact> 0.10592765E+05</totfact>
</mgrwt>
</event>
<event>
 5    1  0.6046470E+000  0.9335914E+02  0.7546771E-02  0.1294915E+00
         -2   -1    0    0    0  501 -0.00000000000E+00  0.00000000000E+00  0.17658221912E+02  0.17658221912E+02  0.00000000000E+00 0.  1.
          2   -1    0    0  501    0  0.00000000000E+00 -0.00000000000E+00 -0.12339759177E+03  0.12339759177E+03  0.00000000000E+00 0. -1.
         23    2    1    2    0    0  0.00000000000E+00  0.00000000000E+00 -0.10573936985E+03  0.14105581368E+03  0.93359135789E+02 0.  0.
        -13    1    3    3    0    0  0.15973381428E+02  0.35451170543E+02 -0.91891961028E+02  0.99780092747E+02  0.00000000000E+00 0. -1.
         13    1    3    3    0    0 -0.15973381428E+02 -0.35451170543E+02 -0.13847408825E+02  0.41275720930E+02  0.00000000000E+00 0.  1.
<mgrwt>
<rscale>  0 0.93359136E+02</rscale>
<asrwt>0</asrwt>
<pdfrwt beam="2">  1        2 0.18984244E-01 0.93359136E+02</pdfrwt>
<pdfrwt beam="1">  1       -2 0.27166496E-02 0.93359136E+02</pdfrwt>
<totfact> 0.12281899E+05</totfact>
</mgrwt>
</event>
<event>
 5    1  0.6046470E+000  0.9155994E+02  0.7546771E-02  0.1299117E+00
         -1   -1    0    0    0  501 -0.00000000000E+00  0.00000000000E+00  0.68865782537E+02  0.68865782537E+02  0.00000000000E+00 0.  1.
          1   -1    0    0  501    0  0.00000000000E+00 -0.00000000000E+00 -0.30433193608E+02  0.30433193608E+02  0.00000000000E+00 0. -1.
         23    2    1    2    0    0  0.00000000000E+00  0.00000000000E+00  0.38432588928E+02  0.99298976145E+02  0.91559940868E+02 0.  0.
        -13    1    3    3    0    0 -0.88466529255E+01  0.29507462521E+02  0.55943930030E+02  0.63864520038E+02  0.00000000000E+00 0.  1.
         13    1    3    3    0    0  0.88466529255E+01 -0.29507462521E+02 -0.17511341102E+02  0.35434456107E+02  0.00000000000E+00 0. -1.
<mgrwt>
<rscale>  0 0.91559941E+02</rscale>
<asrwt>0</asrwt>
<pdfrwt beam="2">  1        1 0.46820298E-02 0.91559941E+02</pdfrwt>
<pdfrwt beam="1">  1       -1 0.10594736E-01 0.91559941E+02</pdfrwt>
<totfact> 0.85844666E+04</totfact>
</mgrwt>
</event>
<event>
 5    1  0.6046470E+000  0.9134439E+02  0.7546771E-02  0.1299628E+00
          2   -1    0    0  501    0  0.00000000000E+00  0.00000000000E+00  0.25006187420E+02  0.25006187420E+02  0.00000000000E+00 0. -1.
         -2   -1    0    0    0  501 -0.00000000000E+00 -0.00000000000E+00 -0.83417336955E+02  0.83417336955E+02  0.00000000000E+00 0.  1.
         23    2    1    2    0    0  0.00000000000E+00  0.00000000000E+00 -0.58411149535E+02  0.10842352437E+03  0.91344393631E+02 0.  0.
        -13    1    3    3    0    0  0.20157051402E+02  0.27752324054E+01  0.19329095927E+02  0.28064614472E+02  0.00000000000E+00 0. -1.
         13    1    3    3    0    0 -0.20157051402E+02 -0.27752324054E+01 -0.77740245462E+02  0.80358909902E+02  0.00000000000E+00 0.  1.
<mgrwt>
<rscale>  0 0.91344394E+02</rscale>
<asrwt>0</asrwt>
<pdfrwt beam="1">  1        2 0.38471058E-02 0.91344394E+02</pdfrwt>
<pdfrwt beam="2">  1       -2 0.12833436E-01 0.91344394E+02</pdfrwt>
<totfact> 0.83715808E+04</totfact>
</mgrwt>
</event>
<event>
 5    1  0.6046470E+000  0.8049518E+02  0.7546771E-02  0.1327652E+00
          1   -1    0    0  501    0  0.00000000000E+00  0.00000000000E+00  0.18431118659E+02  0.18431118659E+02  0.00000000000E+00 0. -1.
         -1   -1    0    0    0  501 -0.00000000000E+00 -0.00000000000E+00 -0.87887703816E+02  0.87887703816E+02  0.00000000000E+00 0.  1.
         23    2    1    2    0    0  0.00000000000E+00  0.00000000000E+00 -0.69456585156E+02  0.10631882247E+03  0.80495184892E+02 0.  0.
        -13    1    3    3    0    0 -0.16868079751E+02  0.11032529023E+02 -0.80741403623E+02  0.83219126828E+02  0.00000000000E+00 0.  1.
         13    1    3    3    0    0  0.16868079751E+02 -0.11032529023E+02  0.11284818466E+02  0.23099695646E+02  0.00000000000E+00 0. -1.
<mgrwt>
<rscale>  0 0.80495185E+02</rscale>
<asrwt>0</asrwt>
<pdfrwt beam="1">  1        1 0.28355567E-02 0.80495185E+02</pdfrwt>
<pdfrwt beam="2">  1       -1 0.13521185E-01 0.80495185E+02</pdfrwt>
<totfact> 0.11458764E+05</totfact>
</mgrwt>
</event>
<event>
 5    1  0.6046470E+000  0.9003083E+02  0.7546771E-02  0.1302777E+00
         -4   -1    0    0    0  501 -0.00000000000E+00  0.00000000000E+00  0.87476619530E+02  0.87476619530E+02  0.00000000000E+00 0.  1.
          4   -1    0    0  501    0  0.00000000000E+00 -0.00000000000E+00 -0.23164904924E+02  0.23164904924E+02  0.00000000000E+00 0. -1.
         23    2    1    2    0    0  0.00000000000E+00  0.00000000000E+00  0.64311714606E+02  0.11064152445E+03  0.90030829708E+02 0.  0.
        -13    1    3    3    0    0 -0.29708099388E+01  0.38759335470E+02  0.60052167383E+02  0.71535827423E+02  0.00000000000E+00 0.  1.
         13    1    3    3    0    0  0.29708099388E+01 -0.38759335470E+02  0.42595472237E+01  0.39105697031E+02  0.00000000000E+00 0. -1.
<mgrwt>
<rscale>  0 0.90030830E+02</rscale>
<asrwt>0</asrwt>
<pdfrwt beam="2">  1        4 0.35638316E-02 0.90030830E+02</pdfrwt>
<pdfrwt beam="1">  1       -4 0.13457941E-01 0.90030830E+02</pdfrwt>
<totfact> 0.26711056E+04</totfact>
</mgrwt>
</event>
<event>
 5    1  0.6046470E+000  0.9131617E+02  0.7546771E-02  0.1299695E+00
          2   -1    0    0  501    0  0.00000000000E+00  0.00000000000E+00  0.46151684708E+02  0.46151684708E+02  0.00000000000E+00 0. -1.
         -2   -1    0    0    0  501 -0.00000000000E+00 -0.00000000000E+00 -0.45169761882E+02  0.45169761882E+02  0.00000000000E+00 0.  1.
         23    2    1    2    0    0  0.00000000000E+00  0.00000000000E+00  0.98192282666E+00  0.91321446590E+02  0.91316167434E+02 0.  0.
        -13    1    3    3    0    0  0.20517714170E+02 -0.33083366089E+02  0.24349727395E+02  0.45917261795E+02  0.00000000000E+00 0. -1.
         13    1    3    3    0    0 -0.20517714170E+02  0.33083366089E+02 -0.23367804568E+02  0.45404184795E+02  0.00000000000E+00 0.  1.
<mgrwt>
<rscale>  0 0.91316167E+02</rscale>
<asrwt>0</asrwt>
<pdfrwt beam="1">  1        2 0.71002592E-02 0.91316167E+02</pdfrwt>
<pdfrwt beam="2">  1       -2 0.69491941E-02 0.91316167E+02</pdfrwt>
<totfact> 0.98556790E+04</totfact>
</mgrwt>
</event>
<event>
 5    1  0.6046470E+000  0.9407348E+02  0.7546771E-02  0.1293277E+00
          4   -1    0    0  501    0  0.00000000000E+00  0.00000000000E+00  0.10452790014E+02  0.10452790014E+02  0.00000000000E+00 0. -1.
         -4   -1    0    0    0  501 -0.00000000000E+00 -0.00000000000E+00 -0.21166165533E+03  0.21166165533E+03  0.00000000000E+00 0.  1.
         23    2    1    2    0    0  0.00000000000E+00  0.00000000000E+00 -0.20120886531E+03  0.22211444534E+03  0.94073478454E+02 0.  0.
        -13    1    3    3    0    0  0.43793891841E+02 -0.15967982579E+02 -0.85751530444E+02  0.97602286877E+02  0.00000000000E+00 0.  1.
         13    1    3    3    0    0 -0.43793891841E+02  0.15967982579E+02 -0.11545733487E+03  0.12451215846E+03  0.00000000000E+00 0. -1.
<mgrwt>
<rscale>  0 0.94073478E+02</rscale>
<asrwt>0</asrwt>
<pdfrwt beam="1">  1        4 0.16081216E-02 0.94073478E+02</pdfrwt>
<pdfrwt beam="2">  1       -4 0.32563330E-01 0.94073478E+02</pdfrwt>
<totfact> 0.18847357E+04</totfact>
</mgrwt>
</event>
<event>
 5    1  0.6046470E+000  0.8706514E+02  0.7546771E-02  0.1310119E+00
         -2   -1    0    0    0  501 -0.00000000000E+00  0.00000000000E+00  0.11939848286E+02  0.11939848286E+02  0.00000000000E+00 0.  1.
          2   -1    0    0  501    0  0.00000000000E+00 -0.00000000000E+00 -0.15871932284E+03  0.15871932284E+03  0.00000000000E+00 0. -1.
         23    2    1    2    0    0  0.00000000000E+00  0.00000000000E+00 -0.14677947456E+03  0.17065917113E+03  0.87065139633E+02 0.  0.
        -13    1    3    3    0    0 -0.17400831072E+02 -0.39598393723E+02 -0.83044840700E+02  0.93633686643E+02  0.00000000000E+00 0.  1.
         13    1    3    3    0    0  0.17400831072E+02  0.39598393723E+02 -0.63734633855E+02  0.77025484485E+02  0.00000000000E+00 0. -1.
<mgrwt>
<rscale>  0 0.87065140E+02</rscale>
<asrwt>0</asrwt>
<pdfrwt beam="2">  1        2 0.24418357E-01 0.87065140E+02</pdfrwt>
<pdfrwt beam="1">  1       -2 0.18368998E-02 0.87065140E+02</pdfrwt>
<totfact> 0.16144978E+05</totfact>
</mgrwt>
</event>
<event>
 5    1  0.6046470E+000  0.9285695E+02  0.7546771E-02  0.1296077E+00
          1   -1    0    0  501    0  0.00000000000E+00  0.00000000000E+00  0.15470515994E+03  0.15470515994E+03  0.00000000000E+00 0. -1.
         -1   -1    0    0    0  501 -0.00000000000E+00 -0.00000000000E+00 -0.13933621953E+02  0.13933621953E+02  0.00000000000E+00 0.  1.
         23    2    1    2    0    0  0.00000000000E+00  0.00000000000E+00  0.14077153799E+03  0.16863878189E+03  0.92856948319E+02 0.  0.
        -13    1    3    3    0    0  0.30605884038E+02  0.33195051740E+02  0.50743878157E+02  0.67923285905E+02  0.00000000000E+00 0.  1.
         13    1    3    3    0    0 -0.30605884038E+02 -0.33195051740E+02  0.90027659829E+02  0.10071549599E+03  0.00000000000E+00 0. -1.
<mgrwt>
<rscale>  0 0.92856948E+02</rscale>
<asrwt>0</asrwt>
<pdfrwt beam="1">  1        1 0.23800793E-01 0.92856948E+02</pdfrwt>
<pdfrwt beam="2">  1       -1 0.21436343E-02 0.92856948E+02</pdfrwt>
<totfact> 0.10734641E+05</totfact>
</mgrwt>
</event>
<event>
 5    1  0.6046470E+000  0.9221205E+02  0.7546771E-02  0.1297582E+00
          2   -1    0    0  501    0  0.00000000000E+00  0.00000000000E+00  0.66905722569E+02  0.66905722569E+02  0.00000000000E+00 0.  1.
         -2   -1    0    0    0  501 -0.00000000000E+00 -0.00000000000E+00 -0.31772555020E+02  0.31772555020E+02  0.00000000000E+00 0. -1.
         23    2    1    2    0    0  0.00000000000E+00  0.00000000000E+00  0.35133167549E+02  0.98678277590E+02  0.92212054559E+02 0.  0.
        -13    1    3    3    0    0 -0.14356466185E+02  0.16348550529E+01 -0.29287042103E+02  0.32657490833E+02  0.00000000000E+00 0. -1.
         13    1    3    3    0    0  0.14356466185E+02 -0.16348550529E+01  0.64420209652E+02  0.66020786757E+02  0.00000000000E+00 0.  1.
<mgrwt>
<rscale>  0 0.92212055E+02</rscale>
<asrwt>0</asrwt>
<pdfrwt beam="1">  1        2 0.10293188E-01 0.92212055E+02</pdfrwt>
<pdfrwt beam="2">  1       -2 0.48880854E-02 0.92212055E+02</pdfrwt>
<totfact> 0.10583863E+05</totfact>
</mgrwt>
</event>
<event>
 5    1  0.6046470E+000  0.9023968E+02  0.7546771E-02  0.1302272E+00
          2   -1    0    0  501    0  0.00000000000E+00  0.00000000000E+00  0.18843356122E+02  0.18843356122E+02  0.00000000000E+00 0. -1.
         -2   -1    0    0    0  501 -0.00000000000E+00 -0.00000000000E+00 -0.10803807286E+03  0.10803807286E+03  0.00000000000E+00 0.  1.
         23    2    1    2    0    0  0.00000000000E+00  0.00000000000E+00 -0.89194716741E+02  0.12688142898E+03  0.90239678229E+02 0.  0.
        -13    1    3    3    0    0  0.35730391432E+02 -0.95738069456E+01 -0.80923565258E+02  0.88977199694E+02  0.00000000000E+00 0.  1.
         13    1    3    3    0    0 -0.35730391432E+02  0.95738069456E+01 -0.82711514827E+01  0.37904229291E+02  0.00000000000E+00 0. -1.
<mgrwt>
<rscale>  0 0.90239678E+02</rscale>
<asrwt>0</asrwt>
<pdfrwt beam="1">  1        2 0.28989778E-02 0.90239678E+02</pdfrwt>
<pdfrwt beam="2">  1       -2 0.16621242E-01 0.90239678E+02</pdfrwt>
<totfact> 0.79994341E+04</totfact>
</mgrwt>
</event>
<event>
 5    1  0.6046470E+000  0.1075080E+03  0.7546771E-02  0.1265255E+00
         -3   -1    0    0    0  501 -0.00000000000E+00  0.00000000000E+00  0.36880732414E+02  0.36880732414E+02  0.00000000000E+00 0.  1.
          3   -1    0    0  501    0  0.00000000000E+00 -0.00000000000E+00 -0.78346994689E+02  0.78346994689E+02  0.00000000000E+00 0. -1.
         23    2    1    2    0    0  0.00000000000E+00  0.00000000000E+00 -0.41466262275E+02  0.11522772710E+03  0.10750803778E+03 0.  0.
        -13    1    3    3    0    0 -0.18612914902E+02 -0.49682064283E+02 -0.11466725678E+02  0.54279221719E+02  0.00000000000E+00 0.  1.
         13    1    3    3    0    0  0.18612914902E+02  0.49682064283E+02 -0.29999536596E+02  0.60948505384E+02  0.00000000000E+00 0. -1.
<mgrwt>
<rscale>  0 0.10750804E+03</rscale>
<asrwt>0</asrwt>
<pdfrwt beam="2">  1        3 0.12053384E-01 0.10750804E+03</pdfrwt>
<pdfrwt beam="1">  1       -3 0.56739589E-02 0.10750804E+03</pdfrwt>
<totfact> 0.21357493E+04</totfact>
</mgrwt>
</event>
<event>
 5    1  0.6046470E+000  0.9009267E+02  0.7546771E-02  0.1302627E+00
          1   -1    0    0  501    0  0.00000000000E+00  0.00000000000E+00  0.97589376078E+02  0.97589376078E+02  0.00000000000E+00 0. -1.
         -1   -1    0    0    0  501 -0.00000000000E+00 -0.00000000000E+00 -0.20792964477E+02  0.20792964477E+02  0.00000000000E+00 0.  1.
         23    2    1    2    0    0  0.00000000000E+00  0.00000000000E+00  0.76796411601E+02  0.11838234055E+03  0.90092672957E+02 0.  0.
        -13    1    3    3    0    0  0.37472522538E+02  0.20719793305E+02  0.20017486042E+02  0.47267319867E+02  0.00000000000E+00 0. -1.
         13    1    3    3    0    0 -0.37472522538E+02 -0.20719793305E+02  0.56778925558E+02  0.71115020688E+02  0.00000000000E+00 0.  1.
<mgrwt>
<rscale>  0 0.90092673E+02</rscale>
<asrwt>0</asrwt>
<pdfrwt beam="1">  1        1 0.15013750E-01 0.90092673E+02</pdfrwt>
<pdfrwt beam="2">  1       -1 0.31989177E-02 0.90092673E+02</pdfrwt>
<totfact> 0.10747561E+05</totfact>
</mgrwt>
</event>
<event>
 5    1  0.6046470E+000  0.8784153E+02  0.7546771E-02  0.1308165E+00
          2   -1    0    0  501    0  0.00000000000E+00  0.00000000000E+00  0.34485849890E+02  0.34485849890E+02  0.00000000000E+00 0. -1.
         -2   -1    0    0    0  501 -0.00000000000E+00 -0.00000000000E+00 -0.55936955208E+02  0.55936955208E+02  0.00000000000E+00 0.  1.
         23    2    1    2    0    0  0.00000000000E+00  0.00000000000E+00 -0.21451105318E+02  0.90422805097E+02  0.87841526412E+02 0.  0.
        -13    1    3    3    0    0  0.12994137051E+02  0.29399068507E+02 -0.41536366585E+02  0.52520687123E+02  0.00000000000E+00 0.  1.
         13    1    3    3    0    0 -0.12994137051E+02 -0.29399068507E+02  0.20085261267E+02  0.37902117974E+02  0.00000000000E+00 0. -1.
<mgrwt>
<rscale>  0 0.87841526E+02</rscale>
<asrwt>0</asrwt>
<pdfrwt beam="1">  1        2 0.53055154E-02 0.87841526E+02</pdfrwt>
<pdfrwt beam="2">  1       -2 0.86056853E-02 0.87841526E+02</pdfrwt>
<totfact> 0.10231925E+05</totfact>
</mgrwt>
</event>
<event>
 5    1  0.6046470E+000  0.8197932E+02  0.7546771E-02  0.1323526E+00
         -1   -1    0    0    0  501 -0.00000000000E+00  0.00000000000E+00  0.69513974155E+02  0.69513974155E+02  0.00000000000E+00 0.  1.
          1   -1    0    0  501    0  0.00000000000E+00 -0.00000000000E+00 -0.24169992071E+02  0.24169992071E+02  0.00000000000E+00 0. -1.
         23    2    1    2    0    0  0.00000000000E+00  0.00000000000E+00  0.45343982083E+02  0.93683966226E+02  0.81979319445E+02 0.  0.
        -13    1    3    3    0    0 -0.20536659244E+02 -0.30910334894E+02  0.27814891412E+01  0.37214780101E+02  0.00000000000E+00 0. -1.
         13    1    3    3    0    0  0.20536659244E+02  0.30910334894E+02  0.42562492942E+02  0.56469186125E+02  0.00000000000E+00 0.  1.
<mgrwt>
<rscale>  0 0.81979319E+02</rscale>
<asrwt>0</asrwt>
<pdfrwt beam="2">  1        1 0.37184603E-02 0.81979319E+02</pdfrwt>
<pdfrwt beam="1">  1       -1 0.10694458E-01 0.81979319E+02</pdfrwt>
<totfact> 0.11355435E+05</totfact>
</mgrwt>
</event>
<event>
 5    1  0.6046470E+000  0.9141509E+02  0.7546771E-02  0.1299461E+00
          3   -1    0    0  501    0  0.00000000000E+00  0.00000000000E+00  0.99831535235E+02  0.99831535235E+02  0.00000000000E+00 0. -1.
         -3   -1    0    0    0  501 -0.00000000000E+00 -0.00000000000E+00 -0.20927050224E+02  0.20927050224E+02  0.00000000000E+00 0.  1.
         23    2    1    2    0    0  0.00000000000E+00  0.00000000000E+00  0.78904485011E+02  0.12075858546E+03  0.91415087415E+02 0.  0.
        -13    1    3    3    0    0  0.34118174122E+02 -0.16886495540E+02  0.60341245914E+01  0.38543666102E+02  0.00000000000E+00 0.  1.
         13    1    3    3    0    0 -0.34118174122E+02  0.16886495540E+02  0.72870360420E+02  0.82214919356E+02  0.00000000000E+00 0. -1.
<mgrwt>
<rscale>  0 0.91415087E+02</rscale>
<asrwt>0</asrwt>
<pdfrwt beam="1">  1        3 0.15358697E-01 0.91415087E+02</pdfrwt>
<pdfrwt beam="2">  1       -3 0.32195462E-02 0.91415087E+02</pdfrwt>
<totfact> 0.32959634E+04</totfact>
</mgrwt>
</event>
<event>
 5    1  0.6046470E+000  0.9222997E+02  0.7546771E-02  0.1297540E+00
         -1   -1    0    0    0  501 -0.00000000000E+00  0.00000000000E+00  0.79452986483E+02  0.79452986483E+02  0.00000000000E+00 0.  1.
          1   -1    0    0  501    0  0.00000000000E+00 -0.00000000000E+00 -0.26765411931E+02  0.26765411931E+02  0.00000000000E+00 0. -1.
         23    2    1    2    0    0  0.00000000000E+00  0.00000000000E+00  0.52687574552E+02  0.10621839841E+03  0.92229971536E+02 0.  0.
        -13    1    3    3    0    0 -0.29289824777E+02 -0.33121726831E+02  0.41432377987E+02  0.60593601720E+02  0.00000000000E+00 0.  1.
         13    1    3    3    0    0  0.29289824777E+02  0.33121726831E+02  0.11255196565E+02  0.45624796695E+02  0.00000000000E+00 0. -1.
<mgrwt>
<rscale>  0 0.92229972E+02</rscale>
<asrwt>0</asrwt>
<pdfrwt beam="2">  1        1 0.41177557E-02 0.92229972E+02</pdfrwt>
<pdfrwt beam="1">  1       -1 0.12223536E-01 0.92229972E+02</pdfrwt>
<totfact> 0.82291303E+04</totfact>
</mgrwt>
</event>
<event>
 5    1  0.6046470E+000  0.9026804E+02  0.7546771E-02  0.1302204E+00
          3   -1    0    0  501    0  0.00000000000E+00  0.00000000000E+00  0.16496553573E+03  0.16496553573E+03  0.00000000000E+00 0. -1.
         -3   -1    0    0    0  501 -0.00000000000E+00 -0.00000000000E+00 -0.12348517294E+02  0.12348517294E+02  0.00000000000E+00 0.  1.
         23    2    1    2    0    0  0.00000000000E+00  0.00000000000E+00  0.15261701843E+03  0.17731405302E+03  0.90268040209E+02 0.  0.
        -13    1    3    3    0    0  0.42210938606E+02 -0.14540602367E+02  0.63295472588E+02  0.77456499438E+02  0.00000000000E+00 0.  1.
         13    1    3    3    0    0 -0.42210938606E+02  0.14540602367E+02  0.89321545845E+02  0.99857553582E+02  0.00000000000E+00 0. -1.
<mgrwt>
<rscale>  0 0.90268040E+02</rscale>
<asrwt>0</asrwt>
<pdfrwt beam="1">  1        3 0.25379312E-01 0.90268040E+02</pdfrwt>
<pdfrwt beam="2">  1       -3 0.18997720E-02 0.90268040E+02</pdfrwt>
<totfact> 0.30528618E+04</totfact>
</mgrwt>
</event>
<event>
 5    1  0.6046470E+000  0.9087782E+02  0.7546771E-02  0.1300740E+00
          2   -1    0    0  501    0  0.00000000000E+00  0.00000000000E+00  0.32533108122E+03  0.32533108122E+03  0.00000000000E+00 0.  1.
         -2   -1    0    0    0  501 -0.00000000000E+00 -0.00000000000E+00 -0.63464405519E+01  0.63464405519E+01  0.00000000000E+00 0. -1.
         23    2    1    2    0    0  0.00000000000E+00  0.00000000000E+00  0.31898464066E+03  0.33167752177E+03  0.90877816141E+02 0.  0.
        -13    1    3    3    0    0  0.41810547471E+02  0.93760918959E+01  0.10430305981E+03  0.11276152387E+03  0.00000000000E+00 0.  1.
         13    1    3    3    0    0 -0.41810547471E+02 -0.93760918959E+01  0.21468158085E+03  0.21891599790E+03  0.00000000000E+00 0. -1.
<mgrwt>
<rscale>  0 0.90877816E+02</rscale>
<asrwt>0</asrwt>
<pdfrwt beam="1">  1        2 0.50050923E-01 0.90877816E+02</pdfrwt>
<pdfrwt beam="2">  1       -2 0.97637572E-03 0.90877816E+02</pdfrwt>
<totfact> 0.18677616E+05</totfact>
</mgrwt>
</event>
<event>
 5    1  0.6046470E+000  0.9120066E+02  0.7546771E-02  0.1299970E+00
          2   -1    0    0  501    0  0.00000000000E+00  0.00000000000E+00  0.96596221673E+02  0.96596221673E+02  0.00000000000E+00 0. -1.
         -2   -1    0    0    0  501 -0.00000000000E+00 -0.00000000000E+00 -0.21526621262E+02  0.21526621262E+02  0.00000000000E+00 0.  1.
         23    2    1    2    0    0  0.00000000000E+00  0.00000000000E+00  0.75069600411E+02  0.11812284293E+03  0.91200664017E+02 0.  0.
        -13    1    3    3    0    0 -0.14353788819E+01 -0.44467936050E+02  0.24587191991E+02  0.50832938722E+02  0.00000000000E+00 0.  1.
         13    1    3    3    0    0  0.14353788819E+01  0.44467936050E+02  0.50482408420E+02  0.67289904213E+02  0.00000000000E+00 0. -1.
<mgrwt>
<rscale>  0 0.91200664E+02</rscale>
<asrwt>0</asrwt>
<pdfrwt beam="1">  1        2 0.14860957E-01 0.91200664E+02</pdfrwt>
<pdfrwt beam="2">  1       -2 0.33117879E-02 0.91200664E+02</pdfrwt>
<totfact> 0.12130802E+05</totfact>
</mgrwt>
</event>
<event>
 5    1  0.6046470E+000  0.8959213E+02  0.7546771E-02  0.1303842E+00
         -2   -1    0    0    0  501 -0.00000000000E+00  0.00000000000E+00  0.15137445773E+02  0.15137445773E+02  0.00000000000E+00 0.  1.
          2   -1    0    0  501    0  0.00000000000E+00 -0.00000000000E+00 -0.13256445493E+03  0.13256445493E+03  0.00000000000E+00 0. -1.
         23    2    1    2    0    0  0.00000000000E+00  0.00000000000E+00 -0.11742700915E+03  0.14770190070E+03  0.89592125724E+02 0.  0.
        -13    1    3    3    0    0 -0.26336292185E+02  0.34095248673E+02 -0.78945100465E+02  0.89935616724E+02  0.00000000000E+00 0. -1.
         13    1    3    3    0    0  0.26336292185E+02 -0.34095248673E+02 -0.38481908690E+02  0.57766283977E+02  0.00000000000E+00 0.  1.
<mgrwt>
<rscale>  0 0.89592126E+02</rscale>
<asrwt>0</asrwt>
<pdfrwt beam="2">  1        2 0.20394531E-01 0.89592126E+02</pdfrwt>
<pdfrwt beam="1">  1       -2 0.23288378E-02 0.89592126E+02</pdfrwt>
<totfact> 0.14069118E+05</totfact>
</mgrwt>
</event>
<event>
 5    1  0.6046470E+000  0.8601657E+02  0.7546771E-02  0.1312795E+00
          1   -1    0    0  501    0  0.00000000000E+00  0.00000000000E+00  0.32756679364E+02  0.32756679364E+02  0.00000000000E+00 0. -1.
         -1   -1    0    0    0  501 -0.00000000000E+00 -0.00000000000E+00 -0.56468262312E+02  0.56468262312E+02  0.00000000000E+00 0.  1.
         23    2    1    2    0    0  0.00000000000E+00  0.00000000000E+00 -0.23711582948E+02  0.89224941676E+02  0.86016574282E+02 0.  0.
        -13    1    3    3    0    0 -0.32417671571E+02  0.24957584128E+02  0.19026597490E+01  0.40956153991E+02  0.00000000000E+00 0.  1.
         13    1    3    3    0    0  0.32417671571E+02 -0.24957584128E+02 -0.25614242697E+02  0.48268787685E+02  0.00000000000E+00 0. -1.
<mgrwt>
<rscale>  0 0.86016574E+02</rscale>
<asrwt>0</asrwt>
<pdfrwt beam="1">  1        1 0.50394892E-02 0.86016574E+02</pdfrwt>
<pdfrwt beam="2">  1       -1 0.86874249E-02 0.86016574E+02</pdfrwt>
<totfact> 0.10371535E+05</totfact>
</mgrwt>
</event>
<event>
 5    1  0.6046470E+000  0.9141276E+02  0.7546771E-02  0.1299466E+00
          2   -1    0    0  501    0  0.00000000000E+00  0.00000000000E+00  0.11105139606E+03  0.11105139606E+03  0.00000000000E+00 0. -1.
         -2   -1    0    0    0  501 -0.00000000000E+00 -0.00000000000E+00 -0.18811768149E+02  0.18811768149E+02  0.00000000000E+00 0.  1.
         23    2    1    2    0    0  0.00000000000E+00  0.00000000000E+00  0.92239627909E+02  0.12986316421E+03  0.91412758743E+02 0.  0.
        -13    1    3    3    0    0  0.41004644373E+02 -0.59283079010E+01  0.18699656441E+02  0.45455504020E+02  0.00000000000E+00 0.  1.
         13    1    3    3    0    0 -0.41004644373E+02  0.59283079010E+01  0.73539971468E+02  0.84407660186E+02  0.00000000000E+00 0. -1.
<mgrwt>
<rscale>  0 0.91412759E+02</rscale>
<asrwt>0</asrwt>
<pdfrwt beam="1">  1        2 0.17084830E-01 0.91412759E+02</pdfrwt>
<pdfrwt beam="2">  1       -2 0.28941182E-02 0.91412759E+02</pdfrwt>
<totfact> 0.12581915E+05</totfact>
</mgrwt>
</event>
<event>
 5    1  0.6046470E+000  0.9108304E+02  0.7546771E-02  0.1300250E+00
          1   -1    0    0  501    0  0.00000000000E+00  0.00000000000E+00  0.25479843395E+03  0.25479843395E+03  0.00000000000E+00 0. -1.
         -1   -1    0    0    0  501 -0.00000000000E+00 -0.00000000000E+00 -0.81398862020E+01  0.81398862020E+01  0.00000000000E+00 0.  1.
         23    2    1    2    0    0  0.00000000000E+00  0.00000000000E+00  0.24665854774E+03  0.26293832015E+03  0.91083044674E+02 0.  0.
        -13    1    3    3    0    0  0.38692894798E+02 -0.84451068435E+01  0.18823860432E+03  0.19235964258E+03  0.00000000000E+00 0. -1.
         13    1    3    3    0    0 -0.38692894798E+02  0.84451068435E+01  0.58419943424E+02  0.70578677567E+02  0.00000000000E+00 0.  1.
<mgrwt>
<rscale>  0 0.91083045E+02</rscale>
<asrwt>0</asrwt>
<pdfrwt beam="1">  1        1 0.39199753E-01 0.91083045E+02</pdfrwt>
<pdfrwt beam="2">  1       -1 0.12522904E-02 0.91083045E+02</pdfrwt>
<totfact> 0.12447028E+05</totfact>
</mgrwt>
</event>
<event>
 5    1  0.6046470E+000  0.9190179E+02  0.7546771E-02  0.1298311E+00
          2   -1    0    0  501    0  0.00000000000E+00  0.00000000000E+00  0.10322171888E+03  0.10322171888E+03  0.00000000000E+00 0. -1.
         -2   -1    0    0    0  501 -0.00000000000E+00 -0.00000000000E+00 -0.20455818379E+02  0.20455818379E+02  0.00000000000E+00 0.  1.
         23    2    1    2    0    0  0.00000000000E+00  0.00000000000E+00  0.82765900497E+02  0.12367753726E+03  0.91901789626E+02 0.  0.
        -13    1    3    3    0    0 -0.98518241347E+01  0.32578111251E+02 -0.16355435758E+00  0.34035547909E+02  0.00000000000E+00 0.  1.
         13    1    3    3    0    0  0.98518241347E+01 -0.32578111251E+02  0.82929454855E+02  0.89641989346E+02  0.00000000000E+00 0. -1.
<mgrwt>
<rscale>  0 0.91901790E+02</rscale>
<asrwt>0</asrwt>
<pdfrwt beam="1">  1        2 0.15880264E-01 0.91901790E+02</pdfrwt>
<pdfrwt beam="2">  1       -2 0.31470490E-02 0.91901790E+02</pdfrwt>
<totfact> 0.12119959E+05</totfact>
</mgrwt>
</event>
<event>
 5    1  0.6046470E+000  0.9041382E+02  0.7546771E-02  0.1301853E+00
          4   -1    0    0  501    0  0.00000000000E+00  0.00000000000E+00  0.12400341420E+03  0.12400341420E+03  0.00000000000E+00 0. -1.
         -4   -1    0    0    0  501 -0.00000000000E+00 -0.00000000000E+00 -0.16480714703E+02  0.16480714703E+02  0.00000000000E+00 0.  1.
         23    2    1    2    0    0  0.00000000000E+00  0.00000000000E+00  0.10752269950E+03  0.14048412890E+03  0.90413823977E+02 0.  0.
        -13    1    3    3    0    0 -0.43019500160E+02  0.28363350504E+01  0.32630788957E+02  0.54069312724E+02  0.00000000000E+00 0.  1.
         13    1    3    3    0    0  0.43019500160E+02 -0.28363350504E+01  0.74891910539E+02  0.86414816176E+02  0.00000000000E+00 0. -1.
<mgrwt>
<rscale>  0 0.90413824E+02</rscale>
<asrwt>0</asrwt>
<pdfrwt beam="1">  1        4 0.19077448E-01 0.90413824E+02</pdfrwt>
<pdfrwt beam="2">  1       -4 0.25354947E-02 0.90413824E+02</pdfrwt>
<totfact> 0.24712110E+04</totfact>
</mgrwt>
</event>
<event>
 5    1  0.6046470E+000  0.8797904E+02  0.7546771E-02  0.1307821E+00
         -2   -1    0    0    0  501 -0.00000000000E+00  0.00000000000E+00  0.45964084214E+02  0.45964084214E+02  0.00000000000E+00 0.  1.
          2   -1    0    0  501    0  0.00000000000E+00 -0.00000000000E+00 -0.42099779543E+02  0.42099779543E+02  0.00000000000E+00 0. -1.
         23    2    1    2    0    0  0.00000000000E+00  0.00000000000E+00  0.38643046712E+01  0.88063863758E+02  0.87979038693E+02 0.  0.
        -13    1    3    3    0    0 -0.17400220506E+02 -0.33475127758E+02 -0.20711018776E+02  0.43038333504E+02  0.00000000000E+00 0. -1.
         13    1    3    3    0    0  0.17400220506E+02  0.33475127758E+02  0.24575323447E+02  0.45025530253E+02  0.00000000000E+00 0.  1.
<mgrwt>
<rscale>  0 0.87979039E+02</rscale>
<asrwt>0</asrwt>
<pdfrwt beam="2">  1        2 0.64768892E-02 0.87979039E+02</pdfrwt>
<pdfrwt beam="1">  1       -2 0.70713976E-02 0.87979039E+02</pdfrwt>
<totfact> 0.10709953E+05</totfact>
</mgrwt>
</event>
<event>
 5    1  0.6046470E+000  0.9217438E+02  0.7546771E-02  0.1297670E+00
         -1   -1    0    0    0  501 -0.00000000000E+00  0.00000000000E+00  0.13900051780E+02  0.13900051780E+02  0.00000000000E+00 0.  1.
          1   -1    0    0  501    0  0.00000000000E+00 -0.00000000000E+00 -0.15280728267E+03  0.15280728267E+03  0.00000000000E+00 0. -1.
         23    2    1    2    0    0  0.00000000000E+00  0.00000000000E+00 -0.13890723089E+03  0.16670733445E+03  0.92174381289E+02 0.  0.
        -13    1    3    3    0    0 -0.20792197410E+02 -0.19326648911E+02 -0.37885785371E+01  0.28638927330E+02  0.00000000000E+00 0.  1.
         13    1    3    3    0    0  0.20792197410E+02  0.19326648911E+02 -0.13511865235E+03  0.13806840712E+03  0.00000000000E+00 0. -1.
<mgrwt>
<rscale>  0 0.92174381E+02</rscale>
<asrwt>0</asrwt>
<pdfrwt beam="2">  1        1 0.23508812E-01 0.92174381E+02</pdfrwt>
<pdfrwt beam="1">  1       -1 0.21384696E-02 0.92174381E+02</pdfrwt>
<totfact> 0.10925796E+05</totfact>
</mgrwt>
</event>
<event>
 5    1  0.6046470E+000  0.9432518E+02  0.7546771E-02  0.1292703E+00
          1   -1    0    0  501    0  0.00000000000E+00  0.00000000000E+00  0.31657069003E+02  0.31657069003E+02  0.00000000000E+00 0. -1.
         -1   -1    0    0    0  501 -0.00000000000E+00 -0.00000000000E+00 -0.70262663963E+02  0.70262663963E+02  0.00000000000E+00 0.  1.
         23    2    1    2    0    0  0.00000000000E+00  0.00000000000E+00 -0.38605594959E+02  0.10191973297E+03  0.94325182245E+02 0.  0.
        -13    1    3    3    0    0 -0.25926929981E+02 -0.32824947353E+02 -0.42842821722E+02  0.59876458145E+02  0.00000000000E+00 0.  1.
         13    1    3    3    0    0  0.25926929981E+02  0.32824947353E+02  0.42372267622E+01  0.42043274820E+02  0.00000000000E+00 0. -1.
<mgrwt>
<rscale>  0 0.94325182E+02</rscale>
<asrwt>0</asrwt>
<pdfrwt beam="1">  1        1 0.48703184E-02 0.94325182E+02</pdfrwt>
<pdfrwt beam="2">  1       -1 0.10809641E-01 0.94325182E+02</pdfrwt>
<totfact> 0.79307843E+04</totfact>
</mgrwt>
</event>
<event>
 5    1  0.6046470E+000  0.8965004E+02  0.7546771E-02  0.1303701E+00
          2   -1    0    0  501    0  0.00000000000E+00  0.00000000000E+00  0.10106925760E+03  0.10106925760E+03  0.00000000000E+00 0. -1.
         -2   -1    0    0    0  501 -0.00000000000E+00 -0.00000000000E+00 -0.19880251933E+02  0.19880251933E+02  0.00000000000E+00 0.  1.
         23    2    1    2    0    0  0.00000000000E+00  0.00000000000E+00  0.81189005668E+02  0.12094950953E+03  0.89650037451E+02 0.  0.
        -13    1    3    3    0    0 -0.36412810139E+02  0.91913361608E+01  0.75777757308E+01  0.38311826994E+02  0.00000000000E+00 0.  1.
         13    1    3    3    0    0  0.36412810139E+02 -0.91913361608E+01  0.73611229937E+02  0.82637682539E+02  0.00000000000E+00 0. -1.
<mgrwt>
<rscale>  0 0.89650037E+02</rscale>
<asrwt>0</asrwt>
<pdfrwt beam="1">  1        2 0.15549116E-01 0.89650037E+02</pdfrwt>
<pdfrwt beam="2">  1       -2 0.30585003E-02 0.89650037E+02</pdfrwt>
<totfact> 0.12891724E+05</totfact>
</mgrwt>
</event>
<event>
 5    1  0.6046470E+000  0.9136805E+02  0.7546771E-02  0.1299572E+00
          1   -1    0    0  501    0  0.00000000000E+00  0.00000000000E+00  0.96914707813E+02  0.96914707813E+02  0.00000000000E+00 0. -1.
         -1   -1    0    0    0  501 -0.00000000000E+00 -0.00000000000E+00 -0.21534708487E+02  0.21534708487E+02  0.00000000000E+00 0.  1.
         23    2    1    2    0    0  0.00000000000E+00  0.00000000000E+00  0.75379999326E+02  0.11844941630E+03  0.91368046512E+02 0.  0.
        -13    1    3    3    0    0  0.22571326232E+02 -0.30124006833E+02  0.41308113161E+01  0.37867983279E+02  0.00000000000E+00 0.  1.
         13    1    3    3    0    0 -0.22571326232E+02  0.30124006833E+02  0.71249188010E+02  0.80581433020E+02  0.00000000000E+00 0. -1.
<mgrwt>
<rscale>  0 0.91368047E+02</rscale>
<asrwt>0</asrwt>
<pdfrwt beam="1">  1        1 0.14909955E-01 0.91368047E+02</pdfrwt>
<pdfrwt beam="2">  1       -1 0.33130321E-02 0.91368047E+02</pdfrwt>
<totfact> 0.10331804E+05</totfact>
</mgrwt>
</event>
<event>
 5    1  0.6046470E+000  0.9181564E+02  0.7546771E-02  0.1298513E+00
          4   -1    0    0  501    0  0.00000000000E+00  0.00000000000E+00  0.12352555187E+02  0.12352555187E+02  0.00000000000E+00 0. -1.
         -4   -1    0    0    0  501 -0.00000000000E+00 -0.00000000000E+00 -0.17061473838E+03  0.17061473838E+03  0.00000000000E+00 0.  1.
         23    2    1    2    0    0  0.00000000000E+00  0.00000000000E+00 -0.15826218319E+03  0.18296729357E+03  0.91815640747E+02 0.  0.
        -13    1    3    3    0    0 -0.21743369811E+01  0.45170670677E+02 -0.94874054179E+02  0.10510092001E+03  0.00000000000E+00 0.  1.
         13    1    3    3    0    0  0.21743369811E+01 -0.45170670677E+02 -0.63388129013E+02  0.77866373554E+02  0.00000000000E+00 0. -1.
<mgrwt>
<rscale>  0 0.91815641E+02</rscale>
<asrwt>0</asrwt>
<pdfrwt beam="1">  1        4 0.19003932E-02 0.91815641E+02</pdfrwt>
<pdfrwt beam="2">  1       -4 0.26248420E-01 0.91815641E+02</pdfrwt>
<totfact> 0.21707983E+04</totfact>
</mgrwt>
</event>
<event>
 5    1  0.6046470E+000  0.9375533E+02  0.7546771E-02  0.1294004E+00
          4   -1    0    0  501    0  0.00000000000E+00  0.00000000000E+00  0.11347459529E+03  0.11347459529E+03  0.00000000000E+00 0. -1.
         -4   -1    0    0    0  501 -0.00000000000E+00 -0.00000000000E+00 -0.19365703150E+02  0.19365703150E+02  0.00000000000E+00 0.  1.
         23    2    1    2    0    0  0.00000000000E+00  0.00000000000E+00  0.94108892142E+02  0.13284029844E+03  0.93755326834E+02 0.  0.
        -13    1    3    3    0    0 -0.35782774165E+02 -0.22952705569E+02  0.19063151236E+02  0.46590099322E+02  0.00000000000E+00 0. -1.
         13    1    3    3    0    0  0.35782774165E+02  0.22952705569E+02  0.75045740906E+02  0.86250199118E+02  0.00000000000E+00 0.  1.
<mgrwt>
<rscale>  0 0.93755327E+02</rscale>
<asrwt>0</asrwt>
<pdfrwt beam="1">  1        4 0.17457630E-01 0.93755327E+02</pdfrwt>
<pdfrwt beam="2">  1       -4 0.29793390E-02 0.93755327E+02</pdfrwt>
<totfact> 0.22778405E+04</totfact>
</mgrwt>
</event>
<event>
 5    1  0.6046470E+000  0.9004908E+02  0.7546771E-02  0.1302733E+00
         -1   -1    0    0    0  501 -0.00000000000E+00  0.00000000000E+00  0.20920121827E+02  0.20920121827E+02  0.00000000000E+00 0.  1.
          1   -1    0    0  501    0  0.00000000000E+00 -0.00000000000E+00 -0.96902359816E+02  0.96902359816E+02  0.00000000000E+00 0. -1.
         23    2    1    2    0    0  0.00000000000E+00  0.00000000000E+00 -0.75982237990E+02  0.11782248164E+03  0.90049079343E+02 0.  0.
        -13    1    3    3    0    0  0.20305487516E+02  0.87733254203E+01  0.13320590387E+02  0.25820964165E+02  0.00000000000E+00 0.  1.
         13    1    3    3    0    0 -0.20305487516E+02 -0.87733254203E+01 -0.89302828376E+02  0.92001517478E+02  0.00000000000E+00 0. -1.
<mgrwt>
<rscale>  0 0.90049079E+02</rscale>
<asrwt>0</asrwt>
<pdfrwt beam="2">  1        1 0.14908056E-01 0.90049079E+02</pdfrwt>
<pdfrwt beam="1">  1       -1 0.32184802E-02 0.90049079E+02</pdfrwt>
<totfact> 0.10749250E+05</totfact>
</mgrwt>
</event>
<event>
 5    1  0.6046470E+000  0.9091352E+02  0.7546771E-02  0.1300654E+00
         -2   -1    0    0    0  501 -0.00000000000E+00  0.00000000000E+00  0.78378716364E+02  0.78378716364E+02  0.00000000000E+00 0. -1.
          2   -1    0    0  501    0  0.00000000000E+00 -0.00000000000E+00 -0.26363243137E+02  0.26363243137E+02  0.00000000000E+00 0.  1.
         23    2    1    2    0    0  0.00000000000E+00  0.00000000000E+00  0.52015473226E+02  0.10474195950E+03  0.90913522785E+02 0.  0.
        -13    1    3    3    0    0 -0.63230578349E+01  0.19240751263E+02 -0.20877851272E+02  0.29087321005E+02  0.00000000000E+00 0.  1.
         13    1    3    3    0    0  0.63230578349E+01 -0.19240751263E+02  0.72893324498E+02  0.75654638496E+02  0.00000000000E+00 0. -1.
<mgrwt>
<rscale>  0 0.90913523E+02</rscale>
<asrwt>0</asrwt>
<pdfrwt beam="2">  1        2 0.40558836E-02 0.90913523E+02</pdfrwt>
<pdfrwt beam="1">  1       -2 0.12058264E-01 0.90913523E+02</pdfrwt>
<totfact> 0.86169282E+04</totfact>
</mgrwt>
</event>
<event>
 5    1  0.6046470E+000  0.9203120E+02  0.7546771E-02  0.1298006E+00
          2   -1    0    0  501    0  0.00000000000E+00  0.00000000000E+00  0.17866869053E+02  0.17866869053E+02  0.00000000000E+00 0. -1.
         -2   -1    0    0    0  501 -0.00000000000E+00 -0.00000000000E+00 -0.11851183718E+03  0.11851183718E+03  0.00000000000E+00 0.  1.
         23    2    1    2    0    0  0.00000000000E+00  0.00000000000E+00 -0.10064496813E+03  0.13637870624E+03  0.92031200715E+02 0.  0.
        -13    1    3    3    0    0 -0.43133712442E+02  0.82280800264E+01 -0.70706586093E+02  0.83232444196E+02  0.00000000000E+00 0.  1.
         13    1    3    3    0    0  0.43133712442E+02 -0.82280800264E+01 -0.29938382038E+02  0.53146262042E+02  0.00000000000E+00 0. -1.
<mgrwt>
<rscale>  0 0.92031201E+02</rscale>
<asrwt>0</asrwt>
<pdfrwt beam="1">  1        2 0.27487492E-02 0.92031201E+02</pdfrwt>
<pdfrwt beam="2">  1       -2 0.18232590E-01 0.92031201E+02</pdfrwt>
<totfact> 0.73968263E+04</totfact>
</mgrwt>
</event>
<event>
 5    1  0.6046470E+000  0.1079975E+03  0.7546771E-02  0.1264324E+00
          1   -1    0    0  501    0  0.00000000000E+00  0.00000000000E+00  0.13407437361E+03  0.13407437361E+03  0.00000000000E+00 0. -1.
         -1   -1    0    0    0  501 -0.00000000000E+00 -0.00000000000E+00 -0.21748112370E+02  0.21748112370E+02  0.00000000000E+00 0.  1.
         23    2    1    2    0    0  0.00000000000E+00  0.00000000000E+00  0.11232626124E+03  0.15582248598E+03  0.10799749151E+03 0.  0.
        -13    1    3    3    0    0  0.53776600203E+01  0.50754481518E+02  0.30721419173E+02  0.59571320427E+02  0.00000000000E+00 0.  1.
         13    1    3    3    0    0 -0.53776600203E+01 -0.50754481518E+02  0.81604842063E+02  0.96251165549E+02  0.00000000000E+00 0. -1.
<mgrwt>
<rscale>  0 0.10799749E+03</rscale>
<asrwt>0</asrwt>
<pdfrwt beam="1">  1        1 0.20626826E-01 0.10799749E+03</pdfrwt>
<pdfrwt beam="2">  1       -1 0.33458635E-02 0.10799749E+03</pdfrwt>
<totfact> 0.69158443E+04</totfact>
</mgrwt>
</event>
<event>
 5    1  0.6046470E+000  0.6523824E+02  0.7546771E-02  0.1377078E+00
          1   -1    0    0  501    0  0.00000000000E+00  0.00000000000E+00  0.20916680486E+02  0.20916680486E+02  0.00000000000E+00 0. -1.
         -1   -1    0    0    0  501 -0.00000000000E+00 -0.00000000000E+00 -0.50868831843E+02  0.50868831843E+02  0.00000000000E+00 0.  1.
         23    2    1    2    0    0  0.00000000000E+00  0.00000000000E+00 -0.29952151357E+02  0.71785512330E+02  0.65238243459E+02 0.  0.
        -13    1    3    3    0    0 -0.74069173429E+01 -0.18808827098E+02 -0.43145548457E+02  0.47646329900E+02  0.00000000000E+00 0.  1.
         13    1    3    3    0    0  0.74069173429E+01  0.18808827098E+02  0.13193397100E+02  0.24139182429E+02  0.00000000000E+00 0. -1.
<mgrwt>
<rscale>  0 0.65238243E+02</rscale>
<asrwt>0</asrwt>
<pdfrwt beam="1">  1        1 0.32179509E-02 0.65238243E+02</pdfrwt>
<pdfrwt beam="2">  1       -1 0.78259741E-02 0.65238243E+02</pdfrwt>
<totfact> 0.21087306E+05</totfact>
</mgrwt>
</event>
<event>
 5    1  0.6046470E+000  0.9103437E+02  0.7546771E-02  0.1300366E+00
         -3   -1    0    0    0  501 -0.00000000000E+00  0.00000000000E+00  0.10803663561E+03  0.10803663561E+03  0.00000000000E+00 0.  1.
          3   -1    0    0  501    0  0.00000000000E+00 -0.00000000000E+00 -0.19176960941E+02  0.19176960941E+02  0.00000000000E+00 0. -1.
         23    2    1    2    0    0  0.00000000000E+00  0.00000000000E+00  0.88859674670E+02  0.12721359655E+03  0.91034374635E+02 0.  0.
        -13    1    3    3    0    0  0.16875829033E+02  0.38739661653E+02  0.20786544629E+02  0.47091776652E+02  0.00000000000E+00 0. -1.
         13    1    3    3    0    0 -0.16875829033E+02 -0.38739661653E+02  0.68073130041E+02  0.80121819900E+02  0.00000000000E+00 0.  1.
<mgrwt>
<rscale>  0 0.91034375E+02</rscale>
<asrwt>0</asrwt>
<pdfrwt beam="2">  1        3 0.29503017E-02 0.91034375E+02</pdfrwt>
<pdfrwt beam="1">  1       -3 0.16621021E-01 0.91034375E+02</pdfrwt>
<totfact> 0.32901308E+04</totfact>
</mgrwt>
</event>
<event>
 5    1  0.6046470E+000  0.8918058E+02  0.7546771E-02  0.1304848E+00
          3   -1    0    0  501    0  0.00000000000E+00  0.00000000000E+00  0.37362509876E+03  0.37362509876E+03  0.00000000000E+00 0. -1.
         -3   -1    0    0    0  501 -0.00000000000E+00 -0.00000000000E+00 -0.53216288189E+01  0.53216288189E+01  0.00000000000E+00 0.  1.
         23    2    1    2    0    0  0.00000000000E+00  0.00000000000E+00  0.36830346994E+03  0.37894672758E+03  0.89180582932E+02 0.  0.
        -13    1    3    3    0    0 -0.19592413810E+02 -0.39751557770E+02  0.20507452354E+03  0.20980850609E+03  0.00000000000E+00 0.  1.
         13    1    3    3    0    0  0.19592413810E+02  0.39751557770E+02  0.16322894641E+03  0.16913822149E+03  0.00000000000E+00 0. -1.
<mgrwt>
<rscale>  0 0.89180583E+02</rscale>
<asrwt>0</asrwt>
<pdfrwt beam="1">  1        3 0.57480764E-01 0.89180583E+02</pdfrwt>
<pdfrwt beam="2">  1       -3 0.81871242E-03 0.89180583E+02</pdfrwt>
<totfact> 0.22561028E+04</totfact>
</mgrwt>
</event>
<event>
 5    1  0.6046470E+000  0.9439584E+02  0.7546771E-02  0.1292543E+00
         -2   -1    0    0    0  501 -0.00000000000E+00  0.00000000000E+00  0.11167744895E+03  0.11167744895E+03  0.00000000000E+00 0.  1.
          2   -1    0    0  501    0  0.00000000000E+00 -0.00000000000E+00 -0.19947119736E+02  0.19947119736E+02  0.00000000000E+00 0. -1.
         23    2    1    2    0    0  0.00000000000E+00  0.00000000000E+00  0.91730329210E+02  0.13162456868E+03  0.94395835626E+02 0.  0.
        -13    1    3    3    0    0 -0.62896570980E+00 -0.34903973153E+02  0.90156748293E+02  0.96679481808E+02  0.00000000000E+00 0.  1.
         13    1    3    3    0    0  0.62896570980E+00  0.34903973153E+02  0.15735809170E+01  0.34945086874E+02  0.00000000000E+00 0. -1.
<mgrwt>
<rscale>  0 0.94395836E+02</rscale>
<asrwt>0</asrwt>
<pdfrwt beam="2">  1        2 0.30687877E-02 0.94395836E+02</pdfrwt>
<pdfrwt beam="1">  1       -2 0.17181146E-01 0.94395836E+02</pdfrwt>
<totfact> 0.70740916E+04</totfact>
</mgrwt>
</event>
<event>
 5    1  0.6046470E+000  0.9277162E+02  0.7546771E-02  0.1296275E+00
         -1   -1    0    0    0  501 -0.00000000000E+00  0.00000000000E+00  0.23506072937E+03  0.23506072937E+03  0.00000000000E+00 0.  1.
          1   -1    0    0  501    0  0.00000000000E+00 -0.00000000000E+00 -0.91535630275E+01  0.91535630275E+01  0.00000000000E+00 0. -1.
         23    2    1    2    0    0  0.00000000000E+00  0.00000000000E+00  0.22590716634E+03  0.24421429240E+03  0.92771616383E+02 0.  0.
        -13    1    3    3    0    0 -0.44780641011E+02  0.39156068433E+00  0.14478133637E+03  0.15154898380E+03  0.00000000000E+00 0. -1.
         13    1    3    3    0    0  0.44780641011E+02 -0.39156068433E+00  0.81125829977E+02  0.92665308604E+02  0.00000000000E+00 0.  1.
<mgrwt>
<rscale>  0 0.92771616E+02</rscale>
<asrwt>0</asrwt>
<pdfrwt beam="2">  1        1 0.14082406E-02 0.92771616E+02</pdfrwt>
<pdfrwt beam="1">  1       -1 0.36163184E-01 0.92771616E+02</pdfrwt>
<totfact> 0.63170490E+04</totfact>
</mgrwt>
</event>
<event>
 5    1  0.6046470E+000  0.9216678E+02  0.7546771E-02  0.1297688E+00
         -1   -1    0    0    0  501 -0.00000000000E+00  0.00000000000E+00  0.18030689712E+03  0.18030689712E+03  0.00000000000E+00 0.  1.
          1   -1    0    0  501    0  0.00000000000E+00 -0.00000000000E+00 -0.11778133709E+02  0.11778133709E+02  0.00000000000E+00 0. -1.
         23    2    1    2    0    0  0.00000000000E+00  0.00000000000E+00  0.16852876342E+03  0.19208503083E+03  0.92166778026E+02 0.  0.
        -13    1    3    3    0    0  0.27103221067E+02  0.30111992854E+02  0.13003699163E+03  0.13620182046E+03  0.00000000000E+00 0.  1.
         13    1    3    3    0    0 -0.27103221067E+02 -0.30111992854E+02  0.38491771789E+02  0.55883210371E+02  0.00000000000E+00 0. -1.
<mgrwt>
<rscale>  0 0.92166778E+02</rscale>
<asrwt>0</asrwt>
<pdfrwt beam="2">  1        1 0.18120207E-02 0.92166778E+02</pdfrwt>
<pdfrwt beam="1">  1       -1 0.27739521E-01 0.92166778E+02</pdfrwt>
<totfact> 0.69455348E+04</totfact>
</mgrwt>
</event>
<event>
 4    1  0.6046470E+000  0.3935322E+02  0.7546771E-02  0.1513026E+00
          1   -1    0    0  501    0  0.00000000000E+00  0.00000000000E+00  0.91756910403E+02  0.91756910403E+02  0.00000000000E+00 0. -1.
         -1   -1    0    0    0  501 -0.00000000000E+00 -0.00000000000E+00 -0.42195078819E+01  0.42195078819E+01  0.00000000000E+00 0.  1.
        -13    1    1    2    0    0  0.17319232570E+02  0.21440610075E+01  0.21601195086E+02  0.27769847741E+02  0.00000000000E+00 0.  1.
         13    1    1    2    0    0 -0.17319232570E+02 -0.21440610075E+01  0.65936207436E+02  0.68206570544E+02  0.00000000000E+00 0. -1.
<mgrwt>
<rscale>  0 0.39353221E+02</rscale>
<asrwt>0</asrwt>
<pdfrwt beam="1">  1        1 0.14116446E-01 0.39353221E+02</pdfrwt>
<pdfrwt beam="2">  1       -1 0.64915513E-03 0.39353221E+02</pdfrwt>
<totfact> 0.90595797E+05</totfact>
</mgrwt>
</event>
<event>
 5    1  0.6046470E+000  0.8942771E+02  0.7546771E-02  0.1304244E+00
         -2   -1    0    0    0  501 -0.00000000000E+00  0.00000000000E+00  0.68639742005E+02  0.68639742005E+02  0.00000000000E+00 0.  1.
          2   -1    0    0  501    0  0.00000000000E+00 -0.00000000000E+00 -0.29127860766E+02  0.29127860766E+02  0.00000000000E+00 0. -1.
         23    2    1    2    0    0  0.00000000000E+00  0.00000000000E+00  0.39511881239E+02  0.97767602771E+02  0.89427710429E+02 0.  0.
        -13    1    3    3    0    0  0.17824281959E+02 -0.28885288463E+02  0.51578288119E+02  0.61744511677E+02  0.00000000000E+00 0.  1.
         13    1    3    3    0    0 -0.17824281959E+02  0.28885288463E+02 -0.12066406880E+02  0.36023091094E+02  0.00000000000E+00 0. -1.
<mgrwt>
<rscale>  0 0.89427710E+02</rscale>
<asrwt>0</asrwt>
<pdfrwt beam="2">  1        2 0.44812094E-02 0.89427710E+02</pdfrwt>
<pdfrwt beam="1">  1       -2 0.10559960E-01 0.89427710E+02</pdfrwt>
<totfact> 0.92960716E+04</totfact>
</mgrwt>
</event>
<event>
 5    1  0.6046470E+000  0.8851662E+02  0.7546771E-02  0.1306484E+00
          2   -1    0    0  501    0  0.00000000000E+00  0.00000000000E+00  0.40212167827E+02  0.40212167827E+02  0.00000000000E+00 0. -1.
         -2   -1    0    0    0  501 -0.00000000000E+00 -0.00000000000E+00 -0.48711571238E+02  0.48711571238E+02  0.00000000000E+00 0.  1.
         23    2    1    2    0    0  0.00000000000E+00  0.00000000000E+00 -0.84994034113E+01  0.88923739065E+02  0.88516617146E+02 0.  0.
        -13    1    3    3    0    0  0.68832593675E+00  0.20456687164E+02 -0.43671083150E+02  0.48229797281E+02  0.00000000000E+00 0.  1.
         13    1    3    3    0    0 -0.68832593675E+00 -0.20456687164E+02  0.35171679738E+02  0.40693941784E+02  0.00000000000E+00 0. -1.
<mgrwt>
<rscale>  0 0.88516617E+02</rscale>
<asrwt>0</asrwt>
<pdfrwt beam="1">  1        2 0.61864873E-02 0.88516617E+02</pdfrwt>
<pdfrwt beam="2">  1       -2 0.74940879E-02 0.88516617E+02</pdfrwt>
<totfact> 0.10403445E+05</totfact>
</mgrwt>
</event>
<event>
 5    1  0.6046470E+000  0.8643641E+02  0.7546771E-02  0.1311718E+00
         -1   -1    0    0    0  501 -0.00000000000E+00  0.00000000000E+00  0.11469295599E+03  0.11469295599E+03  0.00000000000E+00 0.  1.
          1   -1    0    0  501    0  0.00000000000E+00 -0.00000000000E+00 -0.16285335857E+02  0.16285335857E+02  0.00000000000E+00 0. -1.
         23    2    1    2    0    0  0.00000000000E+00  0.00000000000E+00  0.98407620133E+02  0.13097829185E+03  0.86436411510E+02 0.  0.
        -13    1    3    3    0    0  0.49236693133E+01 -0.41895305321E+02  0.63447291287E+02  0.76190668058E+02  0.00000000000E+00 0.  1.
         13    1    3    3    0    0 -0.49236693133E+01  0.41895305321E+02  0.34960328846E+02  0.54787623789E+02  0.00000000000E+00 0. -1.
<mgrwt>
<rscale>  0 0.86436412E+02</rscale>
<asrwt>0</asrwt>
<pdfrwt beam="2">  1        1 0.25054364E-02 0.86436412E+02</pdfrwt>
<pdfrwt beam="1">  1       -1 0.17645070E-01 0.86436412E+02</pdfrwt>
<totfact> 0.90945902E+04</totfact>
</mgrwt>
</event>
<event>
 5    1  0.6046470E+000  0.9152471E+02  0.7546771E-02  0.1299201E+00
          2   -1    0    0  501    0  0.00000000000E+00  0.00000000000E+00  0.40856003664E+02  0.40856003664E+02  0.00000000000E+00 0. -1.
         -2   -1    0    0    0  501 -0.00000000000E+00 -0.00000000000E+00 -0.51257906649E+02  0.51257906649E+02  0.00000000000E+00 0.  1.
         23    2    1    2    0    0  0.00000000000E+00  0.00000000000E+00 -0.10401902986E+02  0.92113910313E+02  0.91524711895E+02 0.  0.
        -13    1    3    3    0    0  0.11462254122E+02  0.40735301891E+02  0.12330865794E+02  0.44077186173E+02  0.00000000000E+00 0. -1.
         13    1    3    3    0    0 -0.11462254122E+02 -0.40735301891E+02 -0.22732768779E+02  0.48036724140E+02  0.00000000000E+00 0.  1.
<mgrwt>
<rscale>  0 0.91524712E+02</rscale>
<asrwt>0</asrwt>
<pdfrwt beam="1">  1        2 0.62855390E-02 0.91524712E+02</pdfrwt>
<pdfrwt beam="2">  1       -2 0.78858318E-02 0.91524712E+02</pdfrwt>
<totfact> 0.94860618E+04</totfact>
</mgrwt>
</event>
<event>
 5    1  0.6046470E+000  0.9217015E+02  0.7546771E-02  0.1297680E+00
         -2   -1    0    0    0  501 -0.00000000000E+00  0.00000000000E+00  0.33349757065E+02  0.33349757065E+02  0.00000000000E+00 0.  1.
          2   -1    0    0  501    0  0.00000000000E+00 -0.00000000000E+00 -0.63683649737E+02  0.63683649737E+02  0.00000000000E+00 0. -1.
         23    2    1    2    0    0  0.00000000000E+00  0.00000000000E+00 -0.30333892672E+02  0.97033406802E+02  0.92170152386E+02 0.  0.
        -13    1    3    3    0    0  0.17199359870E+02 -0.35697141405E+02  0.96061415378E+01  0.40772317075E+02  0.00000000000E+00 0.  1.
         13    1    3    3    0    0 -0.17199359870E+02  0.35697141405E+02 -0.39940034210E+02  0.56261089726E+02  0.00000000000E+00 0. -1.
<mgrwt>
<rscale>  0 0.92170152E+02</rscale>
<asrwt>0</asrwt>
<pdfrwt beam="2">  1        2 0.97974845E-02 0.92170152E+02</pdfrwt>
<pdfrwt beam="1">  1       -2 0.51307319E-02 0.92170152E+02</pdfrwt>
<totfact> 0.10454824E+05</totfact>
</mgrwt>
</event>
<event>
 5    1  0.6046470E+000  0.8980620E+02  0.7546771E-02  0.1303322E+00
         -4   -1    0    0    0  501 -0.00000000000E+00  0.00000000000E+00  0.73810259907E+02  0.73810259907E+02  0.00000000000E+00 0. -1.
          4   -1    0    0  501    0  0.00000000000E+00 -0.00000000000E+00 -0.27317183758E+02  0.27317183758E+02  0.00000000000E+00 0.  1.
         23    2    1    2    0    0  0.00000000000E+00  0.00000000000E+00  0.46493076149E+02  0.10112744367E+03  0.89806200970E+02 0.  0.
        -13    1    3    3    0    0  0.30536103878E+02 -0.32916244036E+02  0.22574974144E+02  0.50254972083E+02  0.00000000000E+00 0.  1.
         13    1    3    3    0    0 -0.30536103878E+02  0.32916244036E+02  0.23918102005E+02  0.50872471583E+02  0.00000000000E+00 0. -1.
<mgrwt>
<rscale>  0 0.89806201E+02</rscale>
<asrwt>0</asrwt>
<pdfrwt beam="2">  1        4 0.42026437E-02 0.89806201E+02</pdfrwt>
<pdfrwt beam="1">  1       -4 0.11355425E-01 0.89806201E+02</pdfrwt>
<totfact> 0.27491335E+04</totfact>
</mgrwt>
</event>
<event>
 5    1  0.6046470E+000  0.9275081E+02  0.7546771E-02  0.1296324E+00
         -1   -1    0    0    0  501 -0.00000000000E+00  0.00000000000E+00  0.65030403231E+02  0.65030403231E+02  0.00000000000E+00 0.  1.
          1   -1    0    0  501    0  0.00000000000E+00 -0.00000000000E+00 -0.33071884563E+02  0.33071884563E+02  0.00000000000E+00 0. -1.
         23    2    1    2    0    0  0.00000000000E+00  0.00000000000E+00  0.31958518668E+02  0.98102287794E+02  0.92750805684E+02 0.  0.
        -13    1    3    3    0    0 -0.68896646138E+01  0.38115424020E+02  0.42954171844E+02  0.57838688657E+02  0.00000000000E+00 0.  1.
         13    1    3    3    0    0  0.68896646138E+01 -0.38115424020E+02 -0.10995653177E+02  0.40263599137E+02  0.00000000000E+00 0. -1.
<mgrwt>
<rscale>  0 0.92750806E+02</rscale>
<asrwt>0</asrwt>
<pdfrwt beam="2">  1        1 0.50879823E-02 0.92750806E+02</pdfrwt>
<pdfrwt beam="1">  1       -1 0.10004677E-01 0.92750806E+02</pdfrwt>
<totfact> 0.83832383E+04</totfact>
</mgrwt>
</event>
<event>
 5    1  0.6046470E+000  0.9172958E+02  0.7546771E-02  0.1298717E+00
          1   -1    0    0  501    0  0.00000000000E+00  0.00000000000E+00  0.40410362205E+02  0.40410362205E+02  0.00000000000E+00 0. -1.
         -1   -1    0    0    0  501 -0.00000000000E+00 -0.00000000000E+00 -0.52055434858E+02  0.52055434858E+02  0.00000000000E+00 0.  1.
         23    2    1    2    0    0  0.00000000000E+00  0.00000000000E+00 -0.11645072653E+02  0.92465797063E+02  0.91729580340E+02 0.  0.
        -13    1    3    3    0    0 -0.24326960469E+02  0.70092885357E+01 -0.44374064582E+02  0.51088048886E+02  0.00000000000E+00 0.  1.
         13    1    3    3    0    0  0.24326960469E+02 -0.70092885357E+01  0.32728991930E+02  0.41377748176E+02  0.00000000000E+00 0. -1.
<mgrwt>
<rscale>  0 0.91729580E+02</rscale>
<asrwt>0</asrwt>
<pdfrwt beam="1">  1        1 0.62169788E-02 0.91729580E+02</pdfrwt>
<pdfrwt beam="2">  1       -1 0.80085284E-02 0.91729580E+02</pdfrwt>
<totfact> 0.89265727E+04</totfact>
</mgrwt>
</event>
<event>
 5    1  0.6046470E+000  0.9069974E+02  0.7546771E-02  0.1301166E+00
         -2   -1    0    0    0  501 -0.00000000000E+00  0.00000000000E+00  0.19793019846E+02  0.19793019846E+02  0.00000000000E+00 0.  1.
          2   -1    0    0  501    0  0.00000000000E+00 -0.00000000000E+00 -0.10390585148E+03  0.10390585148E+03  0.00000000000E+00 0. -1.
         23    2    1    2    0    0  0.00000000000E+00  0.00000000000E+00 -0.84112831632E+02  0.12369887132E+03  0.90699737164E+02 0.  0.
        -13    1    3    3    0    0  0.33098756503E+01  0.37768196451E+02 -0.75994062121E+02  0.84926376454E+02  0.00000000000E+00 0. -1.
         13    1    3    3    0    0 -0.33098756503E+01 -0.37768196451E+02 -0.81187695108E+01  0.38772494869E+02  0.00000000000E+00 0.  1.
<mgrwt>
<rscale>  0 0.90699737E+02</rscale>
<asrwt>0</asrwt>
<pdfrwt beam="2">  1        2 0.15985516E-01 0.90699737E+02</pdfrwt>
<pdfrwt beam="1">  1       -2 0.30450799E-02 0.90699737E+02</pdfrwt>
<totfact> 0.12592534E+05</totfact>
</mgrwt>
</event>
<event>
 5    1  0.6046470E+000  0.8884733E+02  0.7546771E-02  0.1305667E+00
         -3   -1    0    0    0  501 -0.00000000000E+00  0.00000000000E+00  0.79754898768E+01  0.79754898768E+01  0.00000000000E+00 0.  1.
          3   -1    0    0  501    0  0.00000000000E+00 -0.00000000000E+00 -0.24744084808E+03  0.24744084808E+03  0.00000000000E+00 0. -1.
         23    2    1    2    0    0  0.00000000000E+00  0.00000000000E+00 -0.23946535821E+03  0.25541633796E+03  0.88847329256E+02 0.  0.
        -13    1    3    3    0    0  0.26781779238E+02 -0.34253181956E+02 -0.14591018082E+03  0.15225086220E+03  0.00000000000E+00 0. -1.
         13    1    3    3    0    0 -0.26781779238E+02  0.34253181956E+02 -0.93555177391E+02  0.10316547577E+03  0.00000000000E+00 0.  1.
<mgrwt>
<rscale>  0 0.88847329E+02</rscale>
<asrwt>0</asrwt>
<pdfrwt beam="2">  1        3 0.38067816E-01 0.88847329E+02</pdfrwt>
<pdfrwt beam="1">  1       -3 0.12269987E-02 0.88847329E+02</pdfrwt>
<totfact> 0.27724112E+04</totfact>
</mgrwt>
</event>
<event>
 5    1  0.6046470E+000  0.8904438E+02  0.7546771E-02  0.1305183E+00
          4   -1    0    0  501    0  0.00000000000E+00  0.00000000000E+00  0.12631923322E+02  0.12631923322E+02  0.00000000000E+00 0. -1.
         -4   -1    0    0    0  501 -0.00000000000E+00 -0.00000000000E+00 -0.15692188355E+03  0.15692188355E+03  0.00000000000E+00 0.  1.
         23    2    1    2    0    0  0.00000000000E+00  0.00000000000E+00 -0.14428996023E+03  0.16955380688E+03  0.89044375467E+02 0.  0.
        -13    1    3    3    0    0 -0.25109911865E+02  0.72869385624E+01 -0.35263930934E+01  0.26382619198E+02  0.00000000000E+00 0. -1.
         13    1    3    3    0    0  0.25109911865E+02 -0.72869385624E+01 -0.14076356714E+03  0.14317118768E+03  0.00000000000E+00 0.  1.
<mgrwt>
<rscale>  0 0.89044375E+02</rscale>
<asrwt>0</asrwt>
<pdfrwt beam="1">  1        4 0.19433729E-02 0.89044375E+02</pdfrwt>
<pdfrwt beam="2">  1       -4 0.24141827E-01 0.89044375E+02</pdfrwt>
<totfact> 0.24214233E+04</totfact>
</mgrwt>
</event>
<event>
 5    1  0.6046470E+000  0.9062744E+02  0.7546771E-02  0.1301339E+00
          3   -1    0    0  501    0  0.00000000000E+00  0.00000000000E+00  0.88513775135E+02  0.88513775135E+02  0.00000000000E+00 0. -1.
         -3   -1    0    0    0  501 -0.00000000000E+00 -0.00000000000E+00 -0.23197896492E+02  0.23197896492E+02  0.00000000000E+00 0.  1.
         23    2    1    2    0    0  0.00000000000E+00  0.00000000000E+00  0.65315878643E+02  0.11171167163E+03  0.90627443827E+02 0.  0.
        -13    1    3    3    0    0 -0.40847024924E+01 -0.32314972580E+02 -0.61732113717E+01  0.33151934875E+02  0.00000000000E+00 0.  1.
         13    1    3    3    0    0  0.40847024924E+01  0.32314972580E+02  0.71489090015E+02  0.78559736752E+02  0.00000000000E+00 0. -1.
<mgrwt>
<rscale>  0 0.90627444E+02</rscale>
<asrwt>0</asrwt>
<pdfrwt beam="1">  1        3 0.13617504E-01 0.90627444E+02</pdfrwt>
<pdfrwt beam="2">  1       -3 0.35689072E-02 0.90627444E+02</pdfrwt>
<totfact> 0.34382542E+04</totfact>
</mgrwt>
</event>
<event>
 5    1  0.6046470E+000  0.8400938E+02  0.7546771E-02  0.1318044E+00
         -2   -1    0    0    0  501 -0.00000000000E+00  0.00000000000E+00  0.17027360678E+03  0.17027360678E+03  0.00000000000E+00 0.  1.
          2   -1    0    0  501    0  0.00000000000E+00 -0.00000000000E+00 -0.10362110634E+02  0.10362110634E+02  0.00000000000E+00 0. -1.
         23    2    1    2    0    0  0.00000000000E+00  0.00000000000E+00  0.15991149614E+03  0.18063571741E+03  0.84009379272E+02 0.  0.
        -13    1    3    3    0    0  0.27492366386E+02  0.22943906370E+02  0.12716888325E+03  0.13211426084E+03  0.00000000000E+00 0.  1.
         13    1    3    3    0    0 -0.27492366386E+02 -0.22943906370E+02  0.32742612889E+02  0.48521456571E+02  0.00000000000E+00 0. -1.
<mgrwt>
<rscale>  0 0.84009379E+02</rscale>
<asrwt>0</asrwt>
<pdfrwt beam="2">  1        2 0.15941710E-02 0.84009379E+02</pdfrwt>
<pdfrwt beam="1">  1       -2 0.26195937E-01 0.84009379E+02</pdfrwt>
<totfact> 0.81970870E+04</totfact>
</mgrwt>
</event>
<event>
 5    1  0.6046470E+000  0.9665715E+02  0.7546771E-02  0.1287487E+00
         -1   -1    0    0    0  501 -0.00000000000E+00  0.00000000000E+00  0.89810275843E+01  0.89810275843E+01  0.00000000000E+00 0.  1.
          1   -1    0    0  501    0  0.00000000000E+00 -0.00000000000E+00 -0.26006504300E+03  0.26006504300E+03  0.00000000000E+00 0. -1.
         23    2    1    2    0    0  0.00000000000E+00  0.00000000000E+00 -0.25108401542E+03  0.26904607059E+03  0.96657153381E+02 0.  0.
        -13    1    3    3    0    0  0.42627857000E+02  0.21077659712E+02 -0.14952697378E+03  0.15690671693E+03  0.00000000000E+00 0. -1.
         13    1    3    3    0    0 -0.42627857000E+02 -0.21077659712E+02 -0.10155704164E+03  0.11213935366E+03  0.00000000000E+00 0.  1.
<mgrwt>
<rscale>  0 0.96657153E+02</rscale>
<asrwt>0</asrwt>
<pdfrwt beam="2">  1        1 0.40010012E-01 0.96657153E+02</pdfrwt>
<pdfrwt beam="1">  1       -1 0.13816964E-02 0.96657153E+02</pdfrwt>
<totfact> 0.10658128E+05</totfact>
</mgrwt>
</event>
<event>
 5    1  0.6046470E+000  0.1050535E+03  0.7546771E-02  0.1270014E+00
         -1   -1    0    0    0  501 -0.00000000000E+00  0.00000000000E+00  0.11297287509E+03  0.11297287509E+03  0.00000000000E+00 0.  1.
          1   -1    0    0  501    0  0.00000000000E+00 -0.00000000000E+00 -0.24422325209E+02  0.24422325209E+02  0.00000000000E+00 0. -1.
         23    2    1    2    0    0  0.00000000000E+00  0.00000000000E+00  0.88550549885E+02  0.13739520030E+03  0.10505351580E+03 0.  0.
        -13    1    3    3    0    0  0.40645393853E+02 -0.25112024421E+02  0.72821333692E+02  0.87095398573E+02  0.00000000000E+00 0.  1.
         13    1    3    3    0    0 -0.40645393853E+02  0.25112024421E+02  0.15729216193E+02  0.50299801730E+02  0.00000000000E+00 0. -1.
<mgrwt>
<rscale>  0 0.10505352E+03</rscale>
<asrwt>0</asrwt>
<pdfrwt beam="2">  1        1 0.37572809E-02 0.10505352E+03</pdfrwt>
<pdfrwt beam="1">  1       -1 0.17380442E-01 0.10505352E+03</pdfrwt>
<totfact> 0.55080349E+04</totfact>
</mgrwt>
</event>
<event>
 5    1  0.6046470E+000  0.8945597E+02  0.7546771E-02  0.1304175E+00
          1   -1    0    0  501    0  0.00000000000E+00  0.00000000000E+00  0.20085234879E+02  0.20085234879E+02  0.00000000000E+00 0. -1.
         -1   -1    0    0    0  501 -0.00000000000E+00 -0.00000000000E+00 -0.99605138526E+02  0.99605138526E+02  0.00000000000E+00 0.  1.
         23    2    1    2    0    0  0.00000000000E+00  0.00000000000E+00 -0.79519903646E+02  0.11969037341E+03  0.89455969113E+02 0.  0.
        -13    1    3    3    0    0 -0.19883405925E+02 -0.39559133195E+02 -0.48255629996E+02  0.65489546316E+02  0.00000000000E+00 0. -1.
         13    1    3    3    0    0  0.19883405925E+02  0.39559133195E+02 -0.31264273650E+02  0.54200827090E+02  0.00000000000E+00 0.  1.
<mgrwt>
<rscale>  0 0.89455969E+02</rscale>
<asrwt>0</asrwt>
<pdfrwt beam="1">  1        1 0.30900361E-02 0.89455969E+02</pdfrwt>
<pdfrwt beam="2">  1       -1 0.15323868E-01 0.89455969E+02</pdfrwt>
<totfact> 0.85520437E+04</totfact>
</mgrwt>
</event>
<event>
 5    1  0.6046470E+000  0.9074412E+02  0.7546771E-02  0.1301060E+00
         -2   -1    0    0    0  501 -0.00000000000E+00  0.00000000000E+00  0.39447630181E+02  0.39447630181E+02  0.00000000000E+00 0.  1.
          2   -1    0    0  501    0  0.00000000000E+00 -0.00000000000E+00 -0.52186250687E+02  0.52186250687E+02  0.00000000000E+00 0. -1.
         23    2    1    2    0    0  0.00000000000E+00  0.00000000000E+00 -0.12738620506E+02  0.91633880868E+02  0.90744121961E+02 0.  0.
        -13    1    3    3    0    0  0.39477113148E+02 -0.16945412412E+02 -0.21108122969E+02  0.47865878448E+02  0.00000000000E+00 0. -1.
         13    1    3    3    0    0 -0.39477113148E+02  0.16945412412E+02  0.83695024637E+01  0.43768002420E+02  0.00000000000E+00 0.  1.
<mgrwt>
<rscale>  0 0.90744122E+02</rscale>
<asrwt>0</asrwt>
<pdfrwt beam="2">  1        2 0.80286538E-02 0.90744122E+02</pdfrwt>
<pdfrwt beam="1">  1       -2 0.60688663E-02 0.90744122E+02</pdfrwt>
<totfact> 0.10360844E+05</totfact>
</mgrwt>
</event>
<event>
 5    1  0.6046470E+000  0.8951477E+02  0.7546771E-02  0.1304031E+00
         -2   -1    0    0    0  501 -0.00000000000E+00  0.00000000000E+00  0.15786249612E+02  0.15786249612E+02  0.00000000000E+00 0.  1.
          2   -1    0    0  501    0  0.00000000000E+00 -0.00000000000E+00 -0.12689672763E+03  0.12689672763E+03  0.00000000000E+00 0. -1.
         23    2    1    2    0    0  0.00000000000E+00  0.00000000000E+00 -0.11111047802E+03  0.14268297724E+03  0.89514767884E+02 0.  0.
        -13    1    3    3    0    0 -0.44361197118E+02 -0.45815462060E+01 -0.49524033570E+02  0.66644851838E+02  0.00000000000E+00 0. -1.
         13    1    3    3    0    0  0.44361197118E+02  0.45815462060E+01 -0.61586444449E+02  0.76038125406E+02  0.00000000000E+00 0.  1.
<mgrwt>
<rscale>  0 0.89514768E+02</rscale>
<asrwt>0</asrwt>
<pdfrwt beam="2">  1        2 0.19522572E-01 0.89514768E+02</pdfrwt>
<pdfrwt beam="1">  1       -2 0.24286539E-02 0.89514768E+02</pdfrwt>
<totfact> 0.13902547E+05</totfact>
</mgrwt>
</event>
<event>
 5    1  0.6046470E+000  0.9534568E+02  0.7546771E-02  0.1290399E+00
         -1   -1    0    0    0  501 -0.00000000000E+00  0.00000000000E+00  0.47030482029E+02  0.47030482029E+02  0.00000000000E+00 0.  1.
          1   -1    0    0  501    0  0.00000000000E+00 -0.00000000000E+00 -0.48323976355E+02  0.48323976355E+02  0.00000000000E+00 0. -1.
         23    2    1    2    0    0  0.00000000000E+00  0.00000000000E+00 -0.12934943260E+01  0.95354458383E+02  0.95345684779E+02 0.  0.
        -13    1    3    3    0    0  0.12329923835E+02  0.32639845544E+01 -0.46585920269E+02  0.48300399421E+02  0.00000000000E+00 0. -1.
         13    1    3    3    0    0 -0.12329923835E+02 -0.32639845544E+01  0.45292425943E+02  0.47054058962E+02  0.00000000000E+00 0.  1.
<mgrwt>
<rscale>  0 0.95345685E+02</rscale>
<asrwt>0</asrwt>
<pdfrwt beam="2">  1        1 0.74344578E-02 0.95345685E+02</pdfrwt>
<pdfrwt beam="1">  1       -1 0.72354588E-02 0.95345685E+02</pdfrwt>
<totfact> 0.82264610E+04</totfact>
</mgrwt>
</event>
<event>
 5    1  0.6046470E+000  0.9185357E+02  0.7546771E-02  0.1298424E+00
         -3   -1    0    0    0  501 -0.00000000000E+00  0.00000000000E+00  0.97010634294E+02  0.97010634294E+02  0.00000000000E+00 0.  1.
          3   -1    0    0  501    0  0.00000000000E+00 -0.00000000000E+00 -0.21742662321E+02  0.21742662321E+02  0.00000000000E+00 0. -1.
         23    2    1    2    0    0  0.00000000000E+00  0.00000000000E+00  0.75267971973E+02  0.11875329661E+03  0.91853567442E+02 0.  0.
        -13    1    3    3    0    0  0.39259070450E+02 -0.21791935175E+02  0.50108954007E+02  0.67283507065E+02  0.00000000000E+00 0.  1.
         13    1    3    3    0    0 -0.39259070450E+02  0.21791935175E+02  0.25159017966E+02  0.51469789550E+02  0.00000000000E+00 0. -1.
<mgrwt>
<rscale>  0 0.91853567E+02</rscale>
<asrwt>0</asrwt>
<pdfrwt beam="2">  1        3 0.33450250E-02 0.91853567E+02</pdfrwt>
<pdfrwt beam="1">  1       -3 0.14924713E-01 0.91853567E+02</pdfrwt>
<totfact> 0.32669270E+04</totfact>
</mgrwt>
</event>
<event>
 5    1  0.6046470E+000  0.9158006E+02  0.7546771E-02  0.1299070E+00
          3   -1    0    0  501    0  0.00000000000E+00  0.00000000000E+00  0.15733680510E+03  0.15733680510E+03  0.00000000000E+00 0. -1.
         -3   -1    0    0    0  501 -0.00000000000E+00 -0.00000000000E+00 -0.13326359249E+02  0.13326359249E+02  0.00000000000E+00 0.  1.
         23    2    1    2    0    0  0.00000000000E+00  0.00000000000E+00  0.14401044585E+03  0.17066316435E+03  0.91580058700E+02 0.  0.
        -13    1    3    3    0    0 -0.17339799906E+02  0.41726534210E+02  0.85819888872E+02  0.96988791332E+02  0.00000000000E+00 0. -1.
         13    1    3    3    0    0  0.17339799906E+02 -0.41726534210E+02  0.58190556979E+02  0.73674373018E+02  0.00000000000E+00 0.  1.
<mgrwt>
<rscale>  0 0.91580059E+02</rscale>
<asrwt>0</asrwt>
<pdfrwt beam="1">  1        3 0.24205661E-01 0.91580059E+02</pdfrwt>
<pdfrwt beam="2">  1       -3 0.20502092E-02 0.91580059E+02</pdfrwt>
<totfact> 0.29731299E+04</totfact>
</mgrwt>
</event>
<event>
 5    1  0.6046470E+000  0.5736372E+02  0.7546771E-02  0.1409240E+00
          4   -1    0    0  501    0  0.00000000000E+00  0.00000000000E+00  0.88441025908E+01  0.88441025908E+01  0.00000000000E+00 0.  1.
         -4   -1    0    0    0  501 -0.00000000000E+00 -0.00000000000E+00 -0.93016694925E+02  0.93016694925E+02  0.00000000000E+00 0. -1.
         23    2    1    2    0    0  0.00000000000E+00  0.00000000000E+00 -0.84172592334E+02  0.10186079752E+03  0.57363723470E+02 0.  0.
        -13    1    3    3    0    0  0.18379953940E+02 -0.11227199365E+01 -0.81134189740E+02  0.83197595828E+02  0.00000000000E+00 0. -1.
         13    1    3    3    0    0 -0.18379953940E+02  0.11227199365E+01 -0.30384025947E+01  0.18663201688E+02  0.00000000000E+00 0.  1.
<mgrwt>
<rscale>  0 0.57363723E+02</rscale>
<asrwt>0</asrwt>
<pdfrwt beam="1">  1        4 0.13606312E-02 0.57363723E+02</pdfrwt>
<pdfrwt beam="2">  1       -4 0.14310261E-01 0.57363723E+02</pdfrwt>
<totfact> 0.88493671E+04</totfact>
</mgrwt>
</event>
<event>
 5    1  0.6046470E+000  0.8879195E+02  0.7546771E-02  0.1305804E+00
          2   -1    0    0  501    0  0.00000000000E+00  0.00000000000E+00  0.61239881725E+01  0.61239881725E+01  0.00000000000E+00 0. -1.
         -2   -1    0    0    0  501 -0.00000000000E+00 -0.00000000000E+00 -0.32184953111E+03  0.32184953111E+03  0.00000000000E+00 0.  1.
         23    2    1    2    0    0  0.00000000000E+00  0.00000000000E+00 -0.31572554294E+03  0.32797351929E+03  0.88791952831E+02 0.  0.
        -13    1    3    3    0    0 -0.25075797779E+02 -0.30414611408E+02 -0.23330521061E+03  0.23661184569E+03  0.00000000000E+00 0.  1.
         13    1    3    3    0    0  0.25075797779E+02  0.30414611408E+02 -0.82420332333E+02  0.91361673601E+02  0.00000000000E+00 0. -1.
<mgrwt>
<rscale>  0 0.88791953E+02</rscale>
<asrwt>0</asrwt>
<pdfrwt beam="1">  1        2 0.94215233E-03 0.88791953E+02</pdfrwt>
<pdfrwt beam="2">  1       -2 0.49515296E-01 0.88791953E+02</pdfrwt>
<totfact> 0.52438313E+04</totfact>
</mgrwt>
</event>
<event>
 5    1  0.6046470E+000  0.8930373E+02  0.7546771E-02  0.1304547E+00
         -1   -1    0    0    0  501 -0.00000000000E+00  0.00000000000E+00  0.39333593242E+01  0.39333593242E+01  0.00000000000E+00 0.  1.
          1   -1    0    0  501    0  0.00000000000E+00 -0.00000000000E+00 -0.50689218956E+03  0.50689218956E+03  0.00000000000E+00 0. -1.
         23    2    1    2    0    0  0.00000000000E+00  0.00000000000E+00 -0.50295883024E+03  0.51082554889E+03  0.89303731618E+02 0.  0.
        -13    1    3    3    0    0 -0.35664052799E+01  0.44406915374E+02 -0.26873072343E+03  0.27239841243E+03  0.00000000000E+00 0.  1.
         13    1    3    3    0    0  0.35664052799E+01 -0.44406915374E+02 -0.23422810681E+03  0.23842713646E+03  0.00000000000E+00 0. -1.
<mgrwt>
<rscale>  0 0.89303732E+02</rscale>
<asrwt>0</asrwt>
<pdfrwt beam="2">  1        1 0.77983411E-01 0.89303732E+02</pdfrwt>
<pdfrwt beam="1">  1       -1 0.60513222E-03 0.89303732E+02</pdfrwt>
<totfact> 0.14736269E+05</totfact>
</mgrwt>
</event>
<event>
 5    1  0.6046470E+000  0.9010288E+02  0.7546771E-02  0.1302603E+00
          2   -1    0    0  501    0  0.00000000000E+00  0.00000000000E+00  0.15403745224E+03  0.15403745224E+03  0.00000000000E+00 0. -1.
         -2   -1    0    0    0  501 -0.00000000000E+00 -0.00000000000E+00 -0.13176226501E+02  0.13176226501E+02  0.00000000000E+00 0.  1.
         23    2    1    2    0    0  0.00000000000E+00  0.00000000000E+00  0.14086122574E+03  0.16721367874E+03  0.90102882536E+02 0.  0.
        -13    1    3    3    0    0 -0.29725189390E+02  0.32082779868E+02  0.50379232039E+02  0.66715505463E+02  0.00000000000E+00 0.  1.
         13    1    3    3    0    0  0.29725189390E+02 -0.32082779868E+02  0.90481993696E+02  0.10049817327E+03  0.00000000000E+00 0. -1.
<mgrwt>
<rscale>  0 0.90102883E+02</rscale>
<asrwt>0</asrwt>
<pdfrwt beam="1">  1        2 0.23698068E-01 0.90102883E+02</pdfrwt>
<pdfrwt beam="2">  1       -2 0.20271119E-02 0.90102883E+02</pdfrwt>
<totfact> 0.14568317E+05</totfact>
</mgrwt>
</event>
<event>
 5    1  0.6046470E+000  0.9214209E+02  0.7546771E-02  0.1297746E+00
          4   -1    0    0  501    0  0.00000000000E+00  0.00000000000E+00  0.89264412512E+01  0.89264412512E+01  0.00000000000E+00 0. -1.
         -4   -1    0    0    0  501 -0.00000000000E+00 -0.00000000000E+00 -0.23778132025E+03  0.23778132025E+03  0.00000000000E+00 0.  1.
         23    2    1    2    0    0  0.00000000000E+00  0.00000000000E+00 -0.22885487900E+03  0.24670776150E+03  0.92142085625E+02 0.  0.
        -13    1    3    3    0    0 -0.45151844908E+02  0.50249644702E+01 -0.13492393365E+03  0.14236715646E+03  0.00000000000E+00 0. -1.
         13    1    3    3    0    0  0.45151844908E+02 -0.50249644702E+01 -0.93930945345E+02  0.10434060504E+03  0.00000000000E+00 0.  1.
<mgrwt>
<rscale>  0 0.92142086E+02</rscale>
<asrwt>0</asrwt>
<pdfrwt beam="1">  1        4 0.13732986E-02 0.92142086E+02</pdfrwt>
<pdfrwt beam="2">  1       -4 0.36581743E-01 0.92142086E+02</pdfrwt>
<totfact> 0.19037340E+04</totfact>
</mgrwt>
</event>
<event>
 5    1  0.6046470E+000  0.9016815E+02  0.7546771E-02  0.1302445E+00
         -1   -1    0    0    0  501 -0.00000000000E+00  0.00000000000E+00  0.29875785796E+02  0.29875785796E+02  0.00000000000E+00 0.  1.
          1   -1    0    0  501    0  0.00000000000E+00 -0.00000000000E+00 -0.68034149280E+02  0.68034149280E+02  0.00000000000E+00 0. -1.
         23    2    1    2    0    0  0.00000000000E+00  0.00000000000E+00 -0.38158363484E+02  0.97909935076E+02  0.90168146719E+02 0.  0.
        -13    1    3    3    0    0  0.39504104771E+02 -0.13777716861E+02 -0.83887927532E+00  0.41846188525E+02  0.00000000000E+00 0. -1.
         13    1    3    3    0    0 -0.39504104771E+02  0.13777716861E+02 -0.37319484209E+02  0.56063746551E+02  0.00000000000E+00 0.  1.
<mgrwt>
<rscale>  0 0.90168147E+02</rscale>
<asrwt>0</asrwt>
<pdfrwt beam="2">  1        1 0.10466792E-01 0.90168147E+02</pdfrwt>
<pdfrwt beam="1">  1       -1 0.45962747E-02 0.90168147E+02</pdfrwt>
<totfact> 0.10129413E+05</totfact>
</mgrwt>
</event>
<event>
 5    1  0.6046470E+000  0.9536173E+02  0.7546771E-02  0.1290363E+00
         -1   -1    0    0    0  501 -0.00000000000E+00  0.00000000000E+00  0.19732553143E+02  0.19732553143E+02  0.00000000000E+00 0.  1.
          1   -1    0    0  501    0  0.00000000000E+00 -0.00000000000E+00 -0.11521392042E+03  0.11521392042E+03  0.00000000000E+00 0. -1.
         23    2    1    2    0    0  0.00000000000E+00  0.00000000000E+00 -0.95481367272E+02  0.13494647356E+03  0.95361728329E+02 0.  0.
        -13    1    3    3    0    0 -0.22903832707E+02  0.25046407792E+02 -0.95131920739E+02  0.10100490305E+03  0.00000000000E+00 0. -1.
         13    1    3    3    0    0  0.22903832707E+02 -0.25046407792E+02 -0.34944653309E+00  0.33941570512E+02  0.00000000000E+00 0.  1.
<mgrwt>
<rscale>  0 0.95361728E+02</rscale>
<asrwt>0</asrwt>
<pdfrwt beam="2">  1        1 0.17725219E-01 0.95361728E+02</pdfrwt>
<pdfrwt beam="1">  1       -1 0.30357774E-02 0.95361728E+02</pdfrwt>
<totfact> 0.94668855E+04</totfact>
</mgrwt>
</event>
<event>
 5    1  0.6046470E+000  0.8905587E+02  0.7546771E-02  0.1305154E+00
          1   -1    0    0  501    0  0.00000000000E+00  0.00000000000E+00  0.14930977354E+02  0.14930977354E+02  0.00000000000E+00 0. -1.
         -1   -1    0    0    0  501 -0.00000000000E+00 -0.00000000000E+00 -0.13279353055E+03  0.13279353055E+03  0.00000000000E+00 0.  1.
         23    2    1    2    0    0  0.00000000000E+00  0.00000000000E+00 -0.11786255319E+03  0.14772450790E+03  0.89055874536E+02 0.  0.
        -13    1    3    3    0    0  0.38319634694E+02 -0.19826603619E+02 -0.77196639921E+02  0.88435342648E+02  0.00000000000E+00 0. -1.
         13    1    3    3    0    0 -0.38319634694E+02  0.19826603619E+02 -0.40665913272E+02  0.59289165253E+02  0.00000000000E+00 0.  1.
<mgrwt>
<rscale>  0 0.89055875E+02</rscale>
<asrwt>0</asrwt>
<pdfrwt beam="1">  1        1 0.22970735E-02 0.89055875E+02</pdfrwt>
<pdfrwt beam="2">  1       -1 0.20429773E-01 0.89055875E+02</pdfrwt>
<totfact> 0.81696820E+04</totfact>
</mgrwt>
</event>
<event>
 5    1  0.6046470E+000  0.1229315E+03  0.7546771E-02  0.1238338E+00
          2   -1    0    0  501    0  0.00000000000E+00  0.00000000000E+00  0.10786947397E+03  0.10786947397E+03  0.00000000000E+00 0.  1.
         -2   -1    0    0    0  501 -0.00000000000E+00 -0.00000000000E+00 -0.35024173450E+02  0.35024173450E+02  0.00000000000E+00 0. -1.
         23    2    1    2    0    0  0.00000000000E+00  0.00000000000E+00  0.72845300521E+02  0.14289364742E+03  0.12293151209E+03 0.  0.
        -13    1    3    3    0    0 -0.17094949974E+02 -0.52025030627E+02  0.68869581171E+02  0.87987841984E+02  0.00000000000E+00 0.  1.
         13    1    3    3    0    0  0.17094949974E+02  0.52025030627E+02  0.39757193508E+01  0.54905805437E+02  0.00000000000E+00 0. -1.
<mgrwt>
<rscale>  0 0.12293151E+03</rscale>
<asrwt>0</asrwt>
<pdfrwt beam="1">  1        2 0.16595304E-01 0.12293151E+03</pdfrwt>
<pdfrwt beam="2">  1       -2 0.53883344E-02 0.12293151E+03</pdfrwt>
<totfact> 0.54221816E+04</totfact>
</mgrwt>
</event>
<event>
 5    1  0.6046470E+000  0.9025934E+02  0.7546771E-02  0.1302225E+00
          1   -1    0    0  501    0  0.00000000000E+00  0.00000000000E+00  0.98783107811E+02  0.98783107811E+02  0.00000000000E+00 0. -1.
         -1   -1    0    0    0  501 -0.00000000000E+00 -0.00000000000E+00 -0.20617768126E+02  0.20617768126E+02  0.00000000000E+00 0.  1.
         23    2    1    2    0    0  0.00000000000E+00  0.00000000000E+00  0.78165339685E+02  0.11940087594E+03  0.90259342156E+02 0.  0.
        -13    1    3    3    0    0 -0.36369444604E+02  0.25904170132E+02  0.30415668083E+02  0.54026617477E+02  0.00000000000E+00 0.  1.
         13    1    3    3    0    0  0.36369444604E+02 -0.25904170132E+02  0.47749671601E+02  0.65374258459E+02  0.00000000000E+00 0. -1.
<mgrwt>
<rscale>  0 0.90259342E+02</rscale>
<asrwt>0</asrwt>
<pdfrwt beam="1">  1        1 0.15197401E-01 0.90259342E+02</pdfrwt>
<pdfrwt beam="2">  1       -1 0.31719644E-02 0.90259342E+02</pdfrwt>
<totfact> 0.10715074E+05</totfact>
</mgrwt>
</event>
<event>
 5    1  0.6046470E+000  0.9096454E+02  0.7546771E-02  0.1300533E+00
         -1   -1    0    0    0  501 -0.00000000000E+00  0.00000000000E+00  0.14862168205E+02  0.14862168205E+02  0.00000000000E+00 0.  1.
          1   -1    0    0  501    0  0.00000000000E+00 -0.00000000000E+00 -0.13918809492E+03  0.13918809492E+03  0.00000000000E+00 0. -1.
         23    2    1    2    0    0  0.00000000000E+00  0.00000000000E+00 -0.12432592672E+03  0.15405026313E+03  0.90964539879E+02 0.  0.
        -13    1    3    3    0    0  0.34897659748E+02  0.25110673791E+02 -0.37030061170E+02  0.56741678018E+02  0.00000000000E+00 0.  1.
         13    1    3    3    0    0 -0.34897659748E+02 -0.25110673791E+02 -0.87295865551E+02  0.97308585111E+02  0.00000000000E+00 0. -1.
<mgrwt>
<rscale>  0 0.90964540E+02</rscale>
<asrwt>0</asrwt>
<pdfrwt beam="2">  1        1 0.21413554E-01 0.90964540E+02</pdfrwt>
<pdfrwt beam="1">  1       -1 0.22864873E-02 0.90964540E+02</pdfrwt>
<totfact> 0.11131274E+05</totfact>
</mgrwt>
</event>
<event>
 5    1  0.6046470E+000  0.9113795E+02  0.7546771E-02  0.1300119E+00
          2   -1    0    0  501    0  0.00000000000E+00  0.00000000000E+00  0.17648197625E+02  0.17648197625E+02  0.00000000000E+00 0. -1.
         -2   -1    0    0    0  501 -0.00000000000E+00 -0.00000000000E+00 -0.11766252152E+03  0.11766252152E+03  0.00000000000E+00 0.  1.
         23    2    1    2    0    0  0.00000000000E+00  0.00000000000E+00 -0.10001432390E+03  0.13531071915E+03  0.91137948910E+02 0.  0.
        -13    1    3    3    0    0 -0.25365828720E+02 -0.90297598198E+01 -0.10458950314E+03  0.10799965739E+03  0.00000000000E+00 0.  1.
         13    1    3    3    0    0  0.25365828720E+02  0.90297598198E+01  0.45751792459E+01  0.27311061755E+02  0.00000000000E+00 0. -1.
<mgrwt>
<rscale>  0 0.91137949E+02</rscale>
<asrwt>0</asrwt>
<pdfrwt beam="1">  1        2 0.27151074E-02 0.91137949E+02</pdfrwt>
<pdfrwt beam="2">  1       -2 0.18101926E-01 0.91137949E+02</pdfrwt>
<totfact> 0.75977018E+04</totfact>
</mgrwt>
</event>
<event>
 5    1  0.6046470E+000  0.9191798E+02  0.7546771E-02  0.1298272E+00
         -2   -1    0    0    0  501 -0.00000000000E+00  0.00000000000E+00  0.47784035410E+01  0.47784035410E+01  0.00000000000E+00 0.  1.
          2   -1    0    0  501    0  0.00000000000E+00 -0.00000000000E+00 -0.44203646985E+03  0.44203646985E+03  0.00000000000E+00 0. -1.
         23    2    1    2    0    0  0.00000000000E+00  0.00000000000E+00 -0.43725806631E+03  0.44681487339E+03  0.91917977192E+02 0.  0.
        -13    1    3    3    0    0  0.18094435219E+02 -0.42246968568E+02 -0.21919787007E+03  0.22396410691E+03  0.00000000000E+00 0.  1.
         13    1    3    3    0    0 -0.18094435219E+02  0.42246968568E+02 -0.21806019623E+03  0.22285076648E+03  0.00000000000E+00 0. -1.
<mgrwt>
<rscale>  0 0.91917977E+02</rscale>
<asrwt>0</asrwt>
<pdfrwt beam="2">  1        2 0.68005653E-01 0.91917977E+02</pdfrwt>
<pdfrwt beam="1">  1       -2 0.73513855E-03 0.91917977E+02</pdfrwt>
<totfact> 0.20237173E+05</totfact>
</mgrwt>
</event>
<event>
 5    1  0.6046470E+000  0.8773726E+02  0.7546771E-02  0.1308426E+00
          4   -1    0    0  501    0  0.00000000000E+00  0.00000000000E+00  0.59416840407E+02  0.59416840407E+02  0.00000000000E+00 0. -1.
         -4   -1    0    0    0  501 -0.00000000000E+00 -0.00000000000E+00 -0.32389075330E+02  0.32389075330E+02  0.00000000000E+00 0.  1.
         23    2    1    2    0    0  0.00000000000E+00  0.00000000000E+00  0.27027765077E+02  0.91805915737E+02  0.87737255936E+02 0.  0.
        -13    1    3    3    0    0 -0.63970147923E+01  0.26108907380E+02 -0.22761625372E+02  0.35223407450E+02  0.00000000000E+00 0.  1.
         13    1    3    3    0    0  0.63970147923E+01 -0.26108907380E+02  0.49789390449E+02  0.56582508287E+02  0.00000000000E+00 0. -1.
<mgrwt>
<rscale>  0 0.87737256E+02</rscale>
<asrwt>0</asrwt>
<pdfrwt beam="1">  1        4 0.91410524E-02 0.87737256E+02</pdfrwt>
<pdfrwt beam="2">  1       -4 0.49829347E-02 0.87737256E+02</pdfrwt>
<totfact> 0.29929641E+04</totfact>
</mgrwt>
</event>
<event>
 5    1  0.6046470E+000  0.9158546E+02  0.7546771E-02  0.1299057E+00
         -3   -1    0    0    0  501 -0.00000000000E+00  0.00000000000E+00  0.18832987482E+02  0.18832987482E+02  0.00000000000E+00 0.  1.
          3   -1    0    0  501    0  0.00000000000E+00 -0.00000000000E+00 -0.11134579348E+03  0.11134579348E+03  0.00000000000E+00 0. -1.
         23    2    1    2    0    0  0.00000000000E+00  0.00000000000E+00 -0.92512805994E+02  0.13017878096E+03  0.91585455937E+02 0.  0.
        -13    1    3    3    0    0  0.40285226585E+02  0.21722637752E+02 -0.44147437991E+02  0.63590634162E+02  0.00000000000E+00 0.  1.
         13    1    3    3    0    0 -0.40285226585E+02 -0.21722637752E+02 -0.48365368003E+02  0.66588146798E+02  0.00000000000E+00 0. -1.
<mgrwt>
<rscale>  0 0.91585456E+02</rscale>
<asrwt>0</asrwt>
<pdfrwt beam="2">  1        3 0.17130122E-01 0.91585456E+02</pdfrwt>
<pdfrwt beam="1">  1       -3 0.28973827E-02 0.91585456E+02</pdfrwt>
<totfact> 0.32170735E+04</totfact>
</mgrwt>
</event>
<event>
 5    1  0.6046470E+000  0.9187352E+02  0.7546771E-02  0.1298377E+00
          2   -1    0    0  501    0  0.00000000000E+00  0.00000000000E+00  0.64664233953E+01  0.64664233953E+01  0.00000000000E+00 0. -1.
         -2   -1    0    0    0  501 -0.00000000000E+00 -0.00000000000E+00 -0.32632967737E+03  0.32632967737E+03  0.00000000000E+00 0.  1.
         23    2    1    2    0    0  0.00000000000E+00  0.00000000000E+00 -0.31986325398E+03  0.33279610077E+03  0.91873518717E+02 0.  0.
        -13    1    3    3    0    0  0.77587350679E+01 -0.40853935618E+02 -0.23063145446E+03  0.23435039964E+03  0.00000000000E+00 0.  1.
         13    1    3    3    0    0 -0.77587350679E+01  0.40853935618E+02 -0.89231799518E+02  0.98445701128E+02  0.00000000000E+00 0. -1.
<mgrwt>
<rscale>  0 0.91873519E+02</rscale>
<asrwt>0</asrwt>
<pdfrwt beam="1">  1        2 0.99483416E-03 0.91873519E+02</pdfrwt>
<pdfrwt beam="2">  1       -2 0.50204576E-01 0.91873519E+02</pdfrwt>
<totfact> 0.47635456E+04</totfact>
</mgrwt>
</event>
<event>
 5    1  0.6046470E+000  0.9754287E+02  0.7546771E-02  0.1285549E+00
         -1   -1    0    0    0  501 -0.00000000000E+00  0.00000000000E+00  0.10202097972E+02  0.10202097972E+02  0.00000000000E+00 0.  1.
          1   -1    0    0  501    0  0.00000000000E+00 -0.00000000000E+00 -0.23315330260E+03  0.23315330260E+03  0.00000000000E+00 0. -1.
         23    2    1    2    0    0  0.00000000000E+00  0.00000000000E+00 -0.22295120463E+03  0.24335540057E+03  0.97542869252E+02 0.  0.
        -13    1    3    3    0    0 -0.47537137230E+02  0.10902189681E+02 -0.11178800382E+03  0.12196390840E+03  0.00000000000E+00 0.  1.
         13    1    3    3    0    0  0.47537137230E+02 -0.10902189681E+02 -0.11116320081E+03  0.12139149217E+03  0.00000000000E+00 0. -1.
<mgrwt>
<rscale>  0 0.97542869E+02</rscale>
<asrwt>0</asrwt>
<pdfrwt beam="2">  1        1 0.35869737E-01 0.97542869E+02</pdfrwt>
<pdfrwt beam="1">  1       -1 0.15695536E-02 0.97542869E+02</pdfrwt>
<totfact> 0.10177147E+05</totfact>
</mgrwt>
</event>
<event>
 5    1  0.6046470E+000  0.9160195E+02  0.7546771E-02  0.1299018E+00
          1   -1    0    0  501    0  0.00000000000E+00  0.00000000000E+00  0.27312469239E+02  0.27312469239E+02  0.00000000000E+00 0. -1.
         -1   -1    0    0    0  501 -0.00000000000E+00 -0.00000000000E+00 -0.76804824565E+02  0.76804824565E+02  0.00000000000E+00 0.  1.
         23    2    1    2    0    0  0.00000000000E+00  0.00000000000E+00 -0.49492355326E+02  0.10411729380E+03  0.91601952126E+02 0.  0.
        -13    1    3    3    0    0  0.27815820613E+02 -0.76591266709E+01  0.15685616692E+02  0.32839315900E+02  0.00000000000E+00 0. -1.
         13    1    3    3    0    0 -0.27815820613E+02  0.76591266709E+01 -0.65177972018E+02  0.71277977904E+02  0.00000000000E+00 0.  1.
<mgrwt>
<rscale>  0 0.91601952E+02</rscale>
<asrwt>0</asrwt>
<pdfrwt beam="1">  1        1 0.42019184E-02 0.91601952E+02</pdfrwt>
<pdfrwt beam="2">  1       -1 0.11816127E-01 0.91601952E+02</pdfrwt>
<totfact> 0.84223026E+04</totfact>
</mgrwt>
</event>
<event>
 5    1  0.6046470E+000  0.9085180E+02  0.7546771E-02  0.1300802E+00
          3   -1    0    0  501    0  0.00000000000E+00  0.00000000000E+00  0.15964727522E+03  0.15964727522E+03  0.00000000000E+00 0. -1.
         -3   -1    0    0    0  501 -0.00000000000E+00 -0.00000000000E+00 -0.12925448103E+02  0.12925448103E+02  0.00000000000E+00 0.  1.
         23    2    1    2    0    0  0.00000000000E+00  0.00000000000E+00  0.14672182711E+03  0.17257272332E+03  0.90851803959E+02 0.  0.
        -13    1    3    3    0    0 -0.19477204746E+02 -0.28771098191E+02  0.17774253331E+02  0.39026422809E+02  0.00000000000E+00 0. -1.
         13    1    3    3    0    0  0.19477204746E+02  0.28771098191E+02  0.12894757378E+03  0.13354630051E+03  0.00000000000E+00 0.  1.
<mgrwt>
<rscale>  0 0.90851804E+02</rscale>
<asrwt>0</asrwt>
<pdfrwt beam="1">  1        3 0.24561118E-01 0.90851804E+02</pdfrwt>
<pdfrwt beam="2">  1       -3 0.19885306E-02 0.90851804E+02</pdfrwt>
<totfact> 0.30271262E+04</totfact>
</mgrwt>
</event>
<event>
 5    1  0.6046470E+000  0.9141063E+02  0.7546771E-02  0.1299471E+00
          3   -1    0    0  501    0  0.00000000000E+00  0.00000000000E+00  0.11695871202E+03  0.11695871202E+03  0.00000000000E+00 0. -1.
         -3   -1    0    0    0  501 -0.00000000000E+00 -0.00000000000E+00 -0.17860796995E+02  0.17860796995E+02  0.00000000000E+00 0.  1.
         23    2    1    2    0    0  0.00000000000E+00  0.00000000000E+00  0.99097915027E+02  0.13481950902E+03  0.91410629847E+02 0.  0.
        -13    1    3    3    0    0 -0.18814904814E+02  0.11473314375E+02  0.10860558106E+03  0.11081881529E+03  0.00000000000E+00 0. -1.
         13    1    3    3    0    0  0.18814904814E+02 -0.11473314375E+02 -0.95076660314E+01  0.24000693725E+02  0.00000000000E+00 0.  1.
<mgrwt>
<rscale>  0 0.91410630E+02</rscale>
<asrwt>0</asrwt>
<pdfrwt beam="1">  1        3 0.17993648E-01 0.91410630E+02</pdfrwt>
<pdfrwt beam="2">  1       -3 0.27478150E-02 0.91410630E+02</pdfrwt>
<totfact> 0.32038017E+04</totfact>
</mgrwt>
</event>
<event>
 5    1  0.6046470E+000  0.8959608E+02  0.7546771E-02  0.1303833E+00
         -1   -1    0    0    0  501 -0.00000000000E+00  0.00000000000E+00  0.26488772796E+02  0.26488772796E+02  0.00000000000E+00 0.  1.
          1   -1    0    0  501    0  0.00000000000E+00 -0.00000000000E+00 -0.75762838051E+02  0.75762838051E+02  0.00000000000E+00 0. -1.
         23    2    1    2    0    0  0.00000000000E+00  0.00000000000E+00 -0.49274065255E+02  0.10225161085E+03  0.89596084813E+02 0.  0.
        -13    1    3    3    0    0 -0.12644172545E+02 -0.41212962151E+02 -0.38543503836E+02  0.57827199799E+02  0.00000000000E+00 0. -1.
         13    1    3    3    0    0  0.12644172545E+02  0.41212962151E+02 -0.10730561419E+02  0.44424411048E+02  0.00000000000E+00 0.  1.
<mgrwt>
<rscale>  0 0.89596085E+02</rscale>
<asrwt>0</asrwt>
<pdfrwt beam="2">  1        1 0.11655821E-01 0.89596085E+02</pdfrwt>
<pdfrwt beam="1">  1       -1 0.40751959E-02 0.89596085E+02</pdfrwt>
<totfact> 0.10479804E+05</totfact>
</mgrwt>
</event>
<event>
 5    1  0.6046470E+000  0.9032199E+02  0.7546771E-02  0.1302074E+00
          1   -1    0    0  501    0  0.00000000000E+00  0.00000000000E+00  0.12321727116E+02  0.12321727116E+02  0.00000000000E+00 0. -1.
         -1   -1    0    0    0  501 -0.00000000000E+00 -0.00000000000E+00 -0.16552189385E+03  0.16552189385E+03  0.00000000000E+00 0.  1.
         23    2    1    2    0    0  0.00000000000E+00  0.00000000000E+00 -0.15320016673E+03  0.17784362096E+03  0.90321993061E+02 0.  0.
        -13    1    3    3    0    0  0.38051488365E+02  0.11238871207E+02 -0.11907235855E+03  0.12550878281E+03  0.00000000000E+00 0.  1.
         13    1    3    3    0    0 -0.38051488365E+02 -0.11238871207E+02 -0.34127808182E+02  0.52334838149E+02  0.00000000000E+00 0. -1.
<mgrwt>
<rscale>  0 0.90321993E+02</rscale>
<asrwt>0</asrwt>
<pdfrwt beam="1">  1        1 0.18956503E-02 0.90321993E+02</pdfrwt>
<pdfrwt beam="2">  1       -1 0.25464908E-01 0.90321993E+02</pdfrwt>
<totfact> 0.74836781E+04</totfact>
</mgrwt>
</event>
<event>
 5    1  0.6046470E+000  0.9190646E+02  0.7546771E-02  0.1298300E+00
         -1   -1    0    0    0  501 -0.00000000000E+00  0.00000000000E+00  0.37182067043E+02  0.37182067043E+02  0.00000000000E+00 0.  1.
          1   -1    0    0  501    0  0.00000000000E+00 -0.00000000000E+00 -0.56793485705E+02  0.56793485705E+02  0.00000000000E+00 0. -1.
         23    2    1    2    0    0  0.00000000000E+00  0.00000000000E+00 -0.19611418662E+02  0.93975552747E+02  0.91906456641E+02 0.  0.
        -13    1    3    3    0    0 -0.20176797422E+02  0.22460664011E+02  0.25616873767E+02  0.39595565454E+02  0.00000000000E+00 0.  1.
         13    1    3    3    0    0  0.20176797422E+02 -0.22460664011E+02 -0.45228292429E+02  0.54379987293E+02  0.00000000000E+00 0. -1.
<mgrwt>
<rscale>  0 0.91906457E+02</rscale>
<asrwt>0</asrwt>
<pdfrwt beam="2">  1        1 0.87374593E-02 0.91906457E+02</pdfrwt>
<pdfrwt beam="1">  1       -1 0.57203180E-02 0.91906457E+02</pdfrwt>
<totfact> 0.93477850E+04</totfact>
</mgrwt>
</event>
<event>
 5    1  0.6046470E+000  0.9051350E+02  0.7546771E-02  0.1301613E+00
         -1   -1    0    0    0  501 -0.00000000000E+00  0.00000000000E+00  0.11322813965E+02  0.11322813965E+02  0.00000000000E+00 0.  1.
          1   -1    0    0  501    0  0.00000000000E+00 -0.00000000000E+00 -0.18088906191E+03  0.18088906191E+03  0.00000000000E+00 0. -1.
         23    2    1    2    0    0  0.00000000000E+00  0.00000000000E+00 -0.16956624795E+03  0.19221187588E+03  0.90513495045E+02 0.  0.
        -13    1    3    3    0    0 -0.31150972784E+02 -0.29934927345E+02 -0.56158970440E+02  0.70854166719E+02  0.00000000000E+00 0.  1.
         13    1    3    3    0    0  0.31150972784E+02  0.29934927345E+02 -0.11340727751E+03  0.12135770916E+03  0.00000000000E+00 0. -1.
<mgrwt>
<rscale>  0 0.90513495E+02</rscale>
<asrwt>0</asrwt>
<pdfrwt beam="2">  1        1 0.27829085E-01 0.90513495E+02</pdfrwt>
<pdfrwt beam="1">  1       -1 0.17419714E-02 0.90513495E+02</pdfrwt>
<totfact> 0.11843459E+05</totfact>
</mgrwt>
</event>
<event>
 5    1  0.6046470E+000  0.9542126E+02  0.7546771E-02  0.1290230E+00
          1   -1    0    0  501    0  0.00000000000E+00  0.00000000000E+00  0.11721341745E+03  0.11721341745E+03  0.00000000000E+00 0. -1.
         -1   -1    0    0    0  501 -0.00000000000E+00 -0.00000000000E+00 -0.19420169600E+02  0.19420169600E+02  0.00000000000E+00 0.  1.
         23    2    1    2    0    0  0.00000000000E+00  0.00000000000E+00  0.97793247849E+02  0.13663358705E+03  0.95421264848E+02 0.  0.
        -13    1    3    3    0    0 -0.25656832854E+02 -0.26386394130E+02  0.92370483483E+02  0.99432495122E+02  0.00000000000E+00 0. -1.
         13    1    3    3    0    0  0.25656832854E+02  0.26386394130E+02  0.54227643664E+01  0.37201091928E+02  0.00000000000E+00 0.  1.
<mgrwt>
<rscale>  0 0.95421265E+02</rscale>
<asrwt>0</asrwt>
<pdfrwt beam="1">  1        1 0.18032833E-01 0.95421265E+02</pdfrwt>
<pdfrwt beam="2">  1       -1 0.29877185E-02 0.95421265E+02</pdfrwt>
<totfact> 0.94794037E+04</totfact>
</mgrwt>
</event>
<event>
 5    1  0.6046470E+000  0.9136941E+02  0.7546771E-02  0.1299569E+00
          1   -1    0    0  501    0  0.00000000000E+00  0.00000000000E+00  0.15334037495E+02  0.15334037495E+02  0.00000000000E+00 0. -1.
         -1   -1    0    0    0  501 -0.00000000000E+00 -0.00000000000E+00 -0.13610845338E+03  0.13610845338E+03  0.00000000000E+00 0.  1.
         23    2    1    2    0    0  0.00000000000E+00  0.00000000000E+00 -0.12077441588E+03  0.15144249087E+03  0.91369406860E+02 0.  0.
        -13    1    3    3    0    0  0.45012164743E+02  0.70626304836E+01 -0.65913439597E+02  0.80128379764E+02  0.00000000000E+00 0. -1.
         13    1    3    3    0    0 -0.45012164743E+02 -0.70626304836E+01 -0.54860976286E+02  0.71314111108E+02  0.00000000000E+00 0.  1.
<mgrwt>
<rscale>  0 0.91369407E+02</rscale>
<asrwt>0</asrwt>
<pdfrwt beam="1">  1        1 0.23590827E-02 0.91369407E+02</pdfrwt>
<pdfrwt beam="2">  1       -1 0.20939762E-01 0.91369407E+02</pdfrwt>
<totfact> 0.76040447E+04</totfact>
</mgrwt>
</event>
<event>
 5    1  0.6046470E+000  0.9126102E+02  0.7546771E-02  0.1299826E+00
         -4   -1    0    0    0  501 -0.00000000000E+00  0.00000000000E+00  0.14684422969E+03  0.14684422969E+03  0.00000000000E+00 0.  1.
          4   -1    0    0  501    0  0.00000000000E+00 -0.00000000000E+00 -0.14179266656E+02  0.14179266656E+02  0.00000000000E+00 0. -1.
         23    2    1    2    0    0  0.00000000000E+00  0.00000000000E+00  0.13266496303E+03  0.16102349634E+03  0.91261021026E+02 0.  0.
        -13    1    3    3    0    0 -0.36489525071E+02  0.27382293854E+02  0.64688594138E+02  0.79157372797E+02  0.00000000000E+00 0.  1.
         13    1    3    3    0    0  0.36489525071E+02 -0.27382293854E+02  0.67976368893E+02  0.81866123547E+02  0.00000000000E+00 0. -1.
<mgrwt>
<rscale>  0 0.91261021E+02</rscale>
<asrwt>0</asrwt>
<pdfrwt beam="2">  1        4 0.21814257E-02 0.91261021E+02</pdfrwt>
<pdfrwt beam="1">  1       -4 0.22591419E-01 0.91261021E+02</pdfrwt>
<totfact> 0.23074298E+04</totfact>
</mgrwt>
</event>
<event>
 5    1  0.6046470E+000  0.8813780E+02  0.7546771E-02  0.1307425E+00
          3   -1    0    0  501    0  0.00000000000E+00  0.00000000000E+00  0.60883814818E+02  0.60883814818E+02  0.00000000000E+00 0. -1.
         -3   -1    0    0    0  501 -0.00000000000E+00 -0.00000000000E+00 -0.31897937769E+02  0.31897937769E+02  0.00000000000E+00 0.  1.
         23    2    1    2    0    0  0.00000000000E+00  0.00000000000E+00  0.28985877049E+02  0.92781752587E+02  0.88137804288E+02 0.  0.
        -13    1    3    3    0    0  0.21042487644E+02 -0.22310469573E+02 -0.18821400276E+02  0.35983168942E+02  0.00000000000E+00 0.  1.
         13    1    3    3    0    0 -0.21042487644E+02  0.22310469573E+02  0.47807277325E+02  0.56798583645E+02  0.00000000000E+00 0. -1.
<mgrwt>
<rscale>  0 0.88137804E+02</rscale>
<asrwt>0</asrwt>
<pdfrwt beam="1">  1        3 0.93667407E-02 0.88137804E+02</pdfrwt>
<pdfrwt beam="2">  1       -3 0.49073750E-02 0.88137804E+02</pdfrwt>
<totfact> 0.38609367E+04</totfact>
</mgrwt>
</event>
<event>
 5    1  0.6046470E+000  0.9163222E+02  0.7546771E-02  0.1298946E+00
          4   -1    0    0  501    0  0.00000000000E+00  0.00000000000E+00  0.92127872584E+02  0.92127872584E+02  0.00000000000E+00 0. -1.
         -4   -1    0    0    0  501 -0.00000000000E+00 -0.00000000000E+00 -0.22784808130E+02  0.22784808130E+02  0.00000000000E+00 0.  1.
         23    2    1    2    0    0  0.00000000000E+00  0.00000000000E+00  0.69343064454E+02  0.11491268071E+03  0.91632219230E+02 0.  0.
        -13    1    3    3    0    0 -0.15972019637E+02  0.42534001146E+02  0.27266261096E+02  0.52987693466E+02  0.00000000000E+00 0.  1.
         13    1    3    3    0    0  0.15972019637E+02 -0.42534001146E+02  0.42076803358E+02  0.61924987247E+02  0.00000000000E+00 0. -1.
<mgrwt>
<rscale>  0 0.91632219E+02</rscale>
<asrwt>0</asrwt>
<pdfrwt beam="1">  1        4 0.14173519E-01 0.91632219E+02</pdfrwt>
<pdfrwt beam="2">  1       -4 0.35053551E-02 0.91632219E+02</pdfrwt>
<totfact> 0.25221663E+04</totfact>
</mgrwt>
</event>
<event>
 5    1  0.6046470E+000  0.9258926E+02  0.7546771E-02  0.1296700E+00
         -3   -1    0    0    0  501 -0.00000000000E+00  0.00000000000E+00  0.12873012402E+02  0.12873012402E+02  0.00000000000E+00 0.  1.
          3   -1    0    0  501    0  0.00000000000E+00 -0.00000000000E+00 -0.16648726825E+03  0.16648726825E+03  0.00000000000E+00 0. -1.
         23    2    1    2    0    0  0.00000000000E+00  0.00000000000E+00 -0.15361425585E+03  0.17936028065E+03  0.92589257886E+02 0.  0.
        -13    1    3    3    0    0 -0.24980366681E+02 -0.14768352448E+02 -0.69330715955E+01  0.29836059313E+02  0.00000000000E+00 0.  1.
         13    1    3    3    0    0  0.24980366681E+02  0.14768352448E+02 -0.14668118425E+03  0.14952422134E+03  0.00000000000E+00 0. -1.
<mgrwt>
<rscale>  0 0.92589258E+02</rscale>
<asrwt>0</asrwt>
<pdfrwt beam="2">  1        3 0.25613427E-01 0.92589258E+02</pdfrwt>
<pdfrwt beam="1">  1       -3 0.19804633E-02 0.92589258E+02</pdfrwt>
<totfact> 0.28394435E+04</totfact>
</mgrwt>
</event>
<event>
 5    1  0.6046470E+000  0.9160199E+02  0.7546771E-02  0.1299018E+00
         -2   -1    0    0    0  501 -0.00000000000E+00  0.00000000000E+00  0.15032488608E+03  0.15032488608E+03  0.00000000000E+00 0.  1.
          2   -1    0    0  501    0  0.00000000000E+00 -0.00000000000E+00 -0.13954650553E+02  0.13954650553E+02  0.00000000000E+00 0. -1.
         23    2    1    2    0    0  0.00000000000E+00  0.00000000000E+00  0.13637023552E+03  0.16427953663E+03  0.91601992438E+02 0.  0.
        -13    1    3    3    0    0  0.14312530294E+02 -0.25556756107E+02  0.13133069988E+03  0.13455760490E+03  0.00000000000E+00 0.  1.
         13    1    3    3    0    0 -0.14312530294E+02  0.25556756107E+02  0.50395356436E+01  0.29721931727E+02  0.00000000000E+00 0. -1.
<mgrwt>
<rscale>  0 0.91601992E+02</rscale>
<asrwt>0</asrwt>
<pdfrwt beam="2">  1        2 0.21468694E-02 0.91601992E+02</pdfrwt>
<pdfrwt beam="1">  1       -2 0.23126904E-01 0.91601992E+02</pdfrwt>
<totfact> 0.68983396E+04</totfact>
</mgrwt>
</event>
<event>
 5    1  0.6046470E+000  0.9013626E+02  0.7546771E-02  0.1302522E+00
          1   -1    0    0  501    0  0.00000000000E+00  0.00000000000E+00  0.54304327317E+02  0.54304327317E+02  0.00000000000E+00 0. -1.
         -1   -1    0    0    0  501 -0.00000000000E+00 -0.00000000000E+00 -0.37402847186E+02  0.37402847186E+02  0.00000000000E+00 0.  1.
         23    2    1    2    0    0  0.00000000000E+00  0.00000000000E+00  0.16901480131E+02  0.91707174504E+02  0.90136262541E+02 0.  0.
        -13    1    3    3    0    0  0.14349591417E+02 -0.36514215293E+02 -0.14115481510E+02  0.41694670050E+02  0.00000000000E+00 0.  1.
         13    1    3    3    0    0 -0.14349591417E+02  0.36514215293E+02  0.31016961641E+02  0.50012504454E+02  0.00000000000E+00 0. -1.
<mgrwt>
<rscale>  0 0.90136263E+02</rscale>
<asrwt>0</asrwt>
<pdfrwt beam="1">  1        1 0.83545119E-02 0.90136263E+02</pdfrwt>
<pdfrwt beam="2">  1       -1 0.57542842E-02 0.90136263E+02</pdfrwt>
<totfact> 0.98012089E+04</totfact>
</mgrwt>
</event>
<event>
 5    1  0.6046470E+000  0.9137789E+02  0.7546771E-02  0.1299549E+00
         -2   -1    0    0    0  501 -0.00000000000E+00  0.00000000000E+00  0.30950274190E+03  0.30950274190E+03  0.00000000000E+00 0. -1.
          2   -1    0    0  501    0  0.00000000000E+00 -0.00000000000E+00 -0.67446237710E+01  0.67446237710E+01  0.00000000000E+00 0.  1.
         23    2    1    2    0    0  0.00000000000E+00  0.00000000000E+00  0.30275811813E+03  0.31624736568E+03  0.91377886827E+02 0.  0.
        -13    1    3    3    0    0 -0.22842806762E+02 -0.38283369612E+02  0.11675832077E+03  0.12497966106E+03  0.00000000000E+00 0.  1.
         13    1    3    3    0    0  0.22842806762E+02  0.38283369612E+02  0.18599979736E+03  0.19126770462E+03  0.00000000000E+00 0. -1.
<mgrwt>
<rscale>  0 0.91377887E+02</rscale>
<asrwt>0</asrwt>
<pdfrwt beam="2">  1        2 0.10376347E-02 0.91377887E+02</pdfrwt>
<pdfrwt beam="1">  1       -2 0.47615795E-01 0.91377887E+02</pdfrwt>
<totfact> 0.49821992E+04</totfact>
</mgrwt>
</event>
<event>
 5    1  0.6046470E+000  0.8488676E+02  0.7546771E-02  0.1315729E+00
         -2   -1    0    0    0  501 -0.00000000000E+00  0.00000000000E+00  0.11996073017E+02  0.11996073017E+02  0.00000000000E+00 0.  1.
          2   -1    0    0  501    0  0.00000000000E+00 -0.00000000000E+00 -0.15016918598E+03  0.15016918598E+03  0.00000000000E+00 0. -1.
         23    2    1    2    0    0  0.00000000000E+00  0.00000000000E+00 -0.13817311296E+03  0.16216525900E+03  0.84886760334E+02 0.  0.
        -13    1    3    3    0    0 -0.27722017418E+02 -0.24097419005E+02 -0.10971260550E+03  0.11569810568E+03  0.00000000000E+00 0. -1.
         13    1    3    3    0    0  0.27722017418E+02  0.24097419005E+02 -0.28460507465E+02  0.46467153319E+02  0.00000000000E+00 0.  1.
<mgrwt>
<rscale>  0 0.84886760E+02</rscale>
<asrwt>0</asrwt>
<pdfrwt beam="2">  1        2 0.23102952E-01 0.84886760E+02</pdfrwt>
<pdfrwt beam="1">  1       -2 0.18455497E-02 0.84886760E+02</pdfrwt>
<totfact> 0.16963469E+05</totfact>
</mgrwt>
</event>
<event>
 5    1  0.6046470E+000  0.8931839E+02  0.7546771E-02  0.1304511E+00
          1   -1    0    0  501    0  0.00000000000E+00  0.00000000000E+00  0.10809085046E+03  0.10809085046E+03  0.00000000000E+00 0. -1.
         -1   -1    0    0    0  501 -0.00000000000E+00 -0.00000000000E+00 -0.18451550602E+02  0.18451550602E+02  0.00000000000E+00 0.  1.
         23    2    1    2    0    0  0.00000000000E+00  0.00000000000E+00  0.89639299856E+02  0.12654240106E+03  0.89318392212E+02 0.  0.
        -13    1    3    3    0    0 -0.99083313839E+01 -0.17565589745E+02  0.10127199279E+03  0.10326055150E+03  0.00000000000E+00 0. -1.
         13    1    3    3    0    0  0.99083313839E+01  0.17565589745E+02 -0.11632692931E+02  0.23281849556E+02  0.00000000000E+00 0.  1.
<mgrwt>
<rscale>  0 0.89318392E+02</rscale>
<asrwt>0</asrwt>
<pdfrwt beam="1">  1        1 0.16629361E-01 0.89318392E+02</pdfrwt>
<pdfrwt beam="2">  1       -1 0.28387001E-02 0.89318392E+02</pdfrwt>
<totfact> 0.11190808E+05</totfact>
</mgrwt>
</event>
<event>
 5    1  0.6046470E+000  0.9381726E+02  0.7546771E-02  0.1293862E+00
         -1   -1    0    0    0  501 -0.00000000000E+00  0.00000000000E+00  0.14840044595E+03  0.14840044595E+03  0.00000000000E+00 0.  1.
          1   -1    0    0  501    0  0.00000000000E+00 -0.00000000000E+00 -0.14827582100E+02  0.14827582100E+02  0.00000000000E+00 0. -1.
         23    2    1    2    0    0  0.00000000000E+00  0.00000000000E+00  0.13357286385E+03  0.16322802805E+03  0.93817264850E+02 0.  0.
        -13    1    3    3    0    0  0.22415300528E+01  0.46651867849E+02  0.59202885180E+02  0.75408241223E+02  0.00000000000E+00 0.  1.
         13    1    3    3    0    0 -0.22415300528E+01 -0.46651867849E+02  0.74369978674E+02  0.87819786830E+02  0.00000000000E+00 0. -1.
<mgrwt>
<rscale>  0 0.93817265E+02</rscale>
<asrwt>0</asrwt>
<pdfrwt beam="2">  1        1 0.22811666E-02 0.93817265E+02</pdfrwt>
<pdfrwt beam="1">  1       -1 0.22830837E-01 0.93817265E+02</pdfrwt>
<totfact> 0.69614104E+04</totfact>
</mgrwt>
</event>
<event>
 5    1  0.6046470E+000  0.9185364E+02  0.7546771E-02  0.1298424E+00
          2   -1    0    0  501    0  0.00000000000E+00  0.00000000000E+00  0.56595503174E+01  0.56595503174E+01  0.00000000000E+00 0. -1.
         -2   -1    0    0    0  501 -0.00000000000E+00 -0.00000000000E+00 -0.37269263696E+03  0.37269263696E+03  0.00000000000E+00 0.  1.
         23    2    1    2    0    0  0.00000000000E+00  0.00000000000E+00 -0.36703308665E+03  0.37835218728E+03  0.91853638618E+02 0.  0.
        -13    1    3    3    0    0 -0.44641215258E+02  0.96824514875E+01 -0.20313509893E+03  0.20820772412E+03  0.00000000000E+00 0.  1.
         13    1    3    3    0    0  0.44641215258E+02 -0.96824514875E+01 -0.16389798772E+03  0.17014446316E+03  0.00000000000E+00 0. -1.
<mgrwt>
<rscale>  0 0.91853639E+02</rscale>
<asrwt>0</asrwt>
<pdfrwt beam="1">  1        2 0.87069972E-03 0.91853639E+02</pdfrwt>
<pdfrwt beam="2">  1       -2 0.57337350E-01 0.91853639E+02</pdfrwt>
<totfact> 0.43889284E+04</totfact>
</mgrwt>
</event>
<event>
 5    1  0.6046470E+000  0.9214764E+02  0.7546771E-02  0.1297733E+00
          4   -1    0    0  501    0  0.00000000000E+00  0.00000000000E+00  0.75060395841E+01  0.75060395841E+01  0.00000000000E+00 0. -1.
         -4   -1    0    0    0  501 -0.00000000000E+00 -0.00000000000E+00 -0.28281186258E+03  0.28281186258E+03  0.00000000000E+00 0.  1.
         23    2    1    2    0    0  0.00000000000E+00  0.00000000000E+00 -0.27530582300E+03  0.29031790217E+03  0.92147643169E+02 0.  0.
        -13    1    3    3    0    0 -0.20938905211E+02 -0.36310180231E+02 -0.77384651991E+02  0.88007109393E+02  0.00000000000E+00 0. -1.
         13    1    3    3    0    0  0.20938905211E+02  0.36310180231E+02 -0.19792117101E+03  0.20231079277E+03  0.00000000000E+00 0.  1.
<mgrwt>
<rscale>  0 0.92147643E+02</rscale>
<asrwt>0</asrwt>
<pdfrwt beam="1">  1        4 0.11547755E-02 0.92147643E+02</pdfrwt>
<pdfrwt beam="2">  1       -4 0.43509511E-01 0.92147643E+02</pdfrwt>
<totfact> 0.17615197E+04</totfact>
</mgrwt>
</event>
<event>
 5    1  0.6046470E+000  0.9105983E+02  0.7546771E-02  0.1300305E+00
          3   -1    0    0  501    0  0.00000000000E+00  0.00000000000E+00  0.25879420071E+02  0.25879420071E+02  0.00000000000E+00 0. -1.
         -3   -1    0    0    0  501 -0.00000000000E+00 -0.00000000000E+00 -0.80101226329E+02  0.80101226329E+02  0.00000000000E+00 0.  1.
         23    2    1    2    0    0  0.00000000000E+00  0.00000000000E+00 -0.54221806257E+02  0.10598064640E+03  0.91059832734E+02 0.  0.
        -13    1    3    3    0    0  0.25196411361E+02 -0.12601820584E+02 -0.68739072920E+02  0.74288122694E+02  0.00000000000E+00 0.  1.
         13    1    3    3    0    0 -0.25196411361E+02  0.12601820584E+02  0.14517266663E+02  0.31692523706E+02  0.00000000000E+00 0. -1.
<mgrwt>
<rscale>  0 0.91059833E+02</rscale>
<asrwt>0</asrwt>
<pdfrwt beam="1">  1        3 0.39814493E-02 0.91059833E+02</pdfrwt>
<pdfrwt beam="2">  1       -3 0.12323266E-01 0.91059833E+02</pdfrwt>
<totfact> 0.34354796E+04</totfact>
</mgrwt>
</event>
<event>
 5    1  0.6046470E+000  0.1020657E+03  0.7546771E-02  0.1276011E+00
          2   -1    0    0  501    0  0.00000000000E+00  0.00000000000E+00  0.77226945499E+02  0.77226945499E+02  0.00000000000E+00 0. -1.
         -2   -1    0    0    0  501 -0.00000000000E+00 -0.00000000000E+00 -0.33723377656E+02  0.33723377656E+02  0.00000000000E+00 0.  1.
         23    2    1    2    0    0  0.00000000000E+00  0.00000000000E+00  0.43503567844E+02  0.11095032316E+03  0.10206573271E+03 0.  0.
        -13    1    3    3    0    0 -0.87605001535E+01 -0.44904948296E+02 -0.28249374064E+01  0.45838641077E+02  0.00000000000E+00 0.  1.
         13    1    3    3    0    0  0.87605001535E+01  0.44904948296E+02  0.46328505250E+02  0.65111682079E+02  0.00000000000E+00 0. -1.
<mgrwt>
<rscale>  0 0.10206573E+03</rscale>
<asrwt>0</asrwt>
<pdfrwt beam="1">  1        2 0.11881068E-01 0.10206573E+03</pdfrwt>
<pdfrwt beam="2">  1       -2 0.51882120E-02 0.10206573E+03</pdfrwt>
<totfact> 0.82794869E+04</totfact>
</mgrwt>
</event>
<event>
 5    1  0.6046470E+000  0.9205871E+02  0.7546771E-02  0.1297941E+00
          1   -1    0    0  501    0  0.00000000000E+00  0.00000000000E+00  0.16974043524E+02  0.16974043524E+02  0.00000000000E+00 0. -1.
         -1   -1    0    0    0  501 -0.00000000000E+00 -0.00000000000E+00 -0.12482007922E+03  0.12482007922E+03  0.00000000000E+00 0.  1.
         23    2    1    2    0    0  0.00000000000E+00  0.00000000000E+00 -0.10784603569E+03  0.14179412274E+03  0.92058708600E+02 0.  0.
        -13    1    3    3    0    0 -0.25066437735E+02  0.24871740297E+02 -0.84457115429E+01  0.36307847769E+02  0.00000000000E+00 0.  1.
         13    1    3    3    0    0  0.25066437735E+02 -0.24871740297E+02 -0.99400324151E+02  0.10548627497E+03  0.00000000000E+00 0. -1.
<mgrwt>
<rscale>  0 0.92058709E+02</rscale>
<asrwt>0</asrwt>
<pdfrwt beam="1">  1        1 0.26113913E-02 0.92058709E+02</pdfrwt>
<pdfrwt beam="2">  1       -1 0.19203089E-01 0.92058709E+02</pdfrwt>
<totfact> 0.75975104E+04</totfact>
</mgrwt>
</event>
<event>
 5    1  0.6046470E+000  0.9000616E+02  0.7546771E-02  0.1302837E+00
          1   -1    0    0  501    0  0.00000000000E+00  0.00000000000E+00  0.41409300217E+02  0.41409300217E+02  0.00000000000E+00 0. -1.
         -1   -1    0    0    0  501 -0.00000000000E+00 -0.00000000000E+00 -0.48908749642E+02  0.48908749642E+02  0.00000000000E+00 0.  1.
         23    2    1    2    0    0  0.00000000000E+00  0.00000000000E+00 -0.74994494244E+01  0.90318049859E+02  0.90006157504E+02 0.  0.
        -13    1    3    3    0    0  0.38600284065E+02  0.14967023738E+02 -0.21454087019E+02  0.46629085121E+02  0.00000000000E+00 0.  1.
         13    1    3    3    0    0 -0.38600284065E+02 -0.14967023738E+02  0.13954637594E+02  0.43688964738E+02  0.00000000000E+00 0. -1.
<mgrwt>
<rscale>  0 0.90006158E+02</rscale>
<asrwt>0</asrwt>
<pdfrwt beam="1">  1        1 0.63706616E-02 0.90006158E+02</pdfrwt>
<pdfrwt beam="2">  1       -1 0.75244230E-02 0.90006158E+02</pdfrwt>
<totfact> 0.94517233E+04</totfact>
</mgrwt>
</event>
<event>
 5    1  0.6046470E+000  0.9138947E+02  0.7546771E-02  0.1299521E+00
         -2   -1    0    0    0  501 -0.00000000000E+00  0.00000000000E+00  0.74829654854E+02  0.74829654854E+02  0.00000000000E+00 0.  1.
          2   -1    0    0  501    0  0.00000000000E+00 -0.00000000000E+00 -0.27903496667E+02  0.27903496667E+02  0.00000000000E+00 0. -1.
         23    2    1    2    0    0  0.00000000000E+00  0.00000000000E+00  0.46926158187E+02  0.10273315152E+03  0.91389474774E+02 0.  0.
        -13    1    3    3    0    0 -0.10800140739E+02  0.64009019958E+01  0.72852900815E+02  0.73926718739E+02  0.00000000000E+00 0.  1.
         13    1    3    3    0    0  0.10800140739E+02 -0.64009019958E+01 -0.25926742628E+02  0.28806432783E+02  0.00000000000E+00 0. -1.
<mgrwt>
<rscale>  0 0.91389475E+02</rscale>
<asrwt>0</asrwt>
<pdfrwt beam="2">  1        2 0.42928457E-02 0.91389475E+02</pdfrwt>
<pdfrwt beam="1">  1       -2 0.11512254E-01 0.91389475E+02</pdfrwt>
<totfact> 0.86156318E+04</totfact>
</mgrwt>
</event>
<event>
 5    1  0.6046470E+000  0.9250793E+02  0.7546771E-02  0.1296890E+00
         -1   -1    0    0    0  501 -0.00000000000E+00  0.00000000000E+00  0.43548450099E+02  0.43548450099E+02  0.00000000000E+00 0.  1.
          1   -1    0    0  501    0  0.00000000000E+00 -0.00000000000E+00 -0.49127560970E+02  0.49127560970E+02  0.00000000000E+00 0. -1.
         23    2    1    2    0    0  0.00000000000E+00  0.00000000000E+00 -0.55791108709E+01  0.92676011069E+02  0.92507926955E+02 0.  0.
        -13    1    3    3    0    0  0.22145422538E+02 -0.20372054468E+02  0.32402448052E+02  0.44219441227E+02  0.00000000000E+00 0.  1.
         13    1    3    3    0    0 -0.22145422538E+02  0.20372054468E+02 -0.37981558923E+02  0.48456569842E+02  0.00000000000E+00 0. -1.
<mgrwt>
<rscale>  0 0.92507927E+02</rscale>
<asrwt>0</asrwt>
<pdfrwt beam="2">  1        1 0.75580863E-02 0.92507927E+02</pdfrwt>
<pdfrwt beam="1">  1       -1 0.66997615E-02 0.92507927E+02</pdfrwt>
<totfact> 0.89793043E+04</totfact>
</mgrwt>
</event>
<event>
 5    1  0.6046470E+000  0.9508423E+02  0.7546771E-02  0.1290986E+00
          1   -1    0    0  501    0  0.00000000000E+00  0.00000000000E+00  0.72215484956E+02  0.72215484956E+02  0.00000000000E+00 0. -1.
         -1   -1    0    0    0  501 -0.00000000000E+00 -0.00000000000E+00 -0.31298728563E+02  0.31298728563E+02  0.00000000000E+00 0.  1.
         23    2    1    2    0    0  0.00000000000E+00  0.00000000000E+00  0.40916756392E+02  0.10351421352E+03  0.95084233429E+02 0.  0.
        -13    1    3    3    0    0  0.41858355420E+02 -0.11279271847E+02 -0.78883996274E+00  0.43358576549E+02  0.00000000000E+00 0.  1.
         13    1    3    3    0    0 -0.41858355420E+02  0.11279271847E+02  0.41705596355E+02  0.60155636970E+02  0.00000000000E+00 0. -1.
<mgrwt>
<rscale>  0 0.95084233E+02</rscale>
<asrwt>0</asrwt>
<pdfrwt beam="1">  1        1 0.11110075E-01 0.95084233E+02</pdfrwt>
<pdfrwt beam="2">  1       -1 0.48151890E-02 0.95084233E+02</pdfrwt>
<totfact> 0.88281087E+04</totfact>
</mgrwt>
</event>
<event>
 5    1  0.6046470E+000  0.9159831E+02  0.7546771E-02  0.1299027E+00
          1   -1    0    0  501    0  0.00000000000E+00  0.00000000000E+00  0.27678422632E+03  0.27678422632E+03  0.00000000000E+00 0. -1.
         -1   -1    0    0    0  501 -0.00000000000E+00 -0.00000000000E+00 -0.75783321647E+01  0.75783321647E+01  0.00000000000E+00 0.  1.
         23    2    1    2    0    0  0.00000000000E+00  0.00000000000E+00  0.26920589415E+03  0.28436255848E+03  0.91598314504E+02 0.  0.
        -13    1    3    3    0    0 -0.30098927732E+02  0.23668110385E+02  0.21261294300E+03  0.21603330399E+03  0.00000000000E+00 0. -1.
         13    1    3    3    0    0  0.30098927732E+02 -0.23668110385E+02  0.56592951149E+02  0.68329254493E+02  0.00000000000E+00 0.  1.
<mgrwt>
<rscale>  0 0.91598315E+02</rscale>
<asrwt>0</asrwt>
<pdfrwt beam="1">  1        1 0.42582181E-01 0.91598315E+02</pdfrwt>
<pdfrwt beam="2">  1       -1 0.11658975E-02 0.91598315E+02</pdfrwt>
<totfact> 0.12460624E+05</totfact>
</mgrwt>
</event>
<event>
 5    1  0.6046470E+000  0.9116738E+02  0.7546771E-02  0.1300049E+00
         -2   -1    0    0    0  501 -0.00000000000E+00  0.00000000000E+00  0.14038675600E+03  0.14038675600E+03  0.00000000000E+00 0.  1.
          2   -1    0    0  501    0  0.00000000000E+00 -0.00000000000E+00 -0.14801061073E+02  0.14801061073E+02  0.00000000000E+00 0. -1.
         23    2    1    2    0    0  0.00000000000E+00  0.00000000000E+00  0.12558569493E+03  0.15518781707E+03  0.91167383408E+02 0.  0.
        -13    1    3    3    0    0  0.35251993944E+02  0.11850351425E+02  0.10766004948E+03  0.11390267845E+03  0.00000000000E+00 0.  1.
         13    1    3    3    0    0 -0.35251993944E+02 -0.11850351425E+02  0.17925645452E+02  0.41285138619E+02  0.00000000000E+00 0. -1.
<mgrwt>
<rscale>  0 0.91167383E+02</rscale>
<asrwt>0</asrwt>
<pdfrwt beam="2">  1        2 0.22770864E-02 0.91167383E+02</pdfrwt>
<pdfrwt beam="1">  1       -2 0.21597962E-01 0.91167383E+02</pdfrwt>
<totfact> 0.71549270E+04</totfact>
</mgrwt>
</event>
<event>
 4    1  0.6046470E+000  0.4443162E+02  0.7546771E-02  0.1477921E+00
          2   -1    0    0  501    0  0.00000000000E+00  0.00000000000E+00  0.81250383754E+02  0.81250383754E+02  0.00000000000E+00 0. -1.
         -2   -1    0    0    0  501 -0.00000000000E+00 -0.00000000000E+00 -0.60743369247E+01  0.60743369247E+01  0.00000000000E+00 0.  1.
        -13    1    1    2    0    0 -0.14427450323E+02  0.51957457336E+01  0.69180757017E+02  0.70859891603E+02  0.00000000000E+00 0. -1.
         13    1    1    2    0    0  0.14427450323E+02 -0.51957457336E+01  0.59952898115E+01  0.16464829075E+02  0.00000000000E+00 0.  1.
<mgrwt>
<rscale>  0 0.44431620E+02</rscale>
<asrwt>0</asrwt>
<pdfrwt beam="1">  1        2 0.12500058E-01 0.44431620E+02</pdfrwt>
<pdfrwt beam="2">  1       -2 0.93451343E-03 0.44431620E+02</pdfrwt>
<totfact> 0.76595073E+05</totfact>
</mgrwt>
</event>
<event>
 5    1  0.6046470E+000  0.8817535E+02  0.7546771E-02  0.1307331E+00
         -1   -1    0    0    0  501 -0.00000000000E+00  0.00000000000E+00  0.38377778886E+01  0.38377778886E+01  0.00000000000E+00 0.  1.
          1   -1    0    0  501    0  0.00000000000E+00 -0.00000000000E+00 -0.50647100641E+03  0.50647100641E+03  0.00000000000E+00 0. -1.
         23    2    1    2    0    0  0.00000000000E+00  0.00000000000E+00 -0.50263322852E+03  0.51030878430E+03  0.88175353237E+02 0.  0.
        -13    1    3    3    0    0 -0.73015882105E+01 -0.43459841387E+02 -0.24387751167E+03  0.24782718112E+03  0.00000000000E+00 0.  1.
         13    1    3    3    0    0  0.73015882105E+01  0.43459841387E+02 -0.25875571685E+03  0.26248160318E+03  0.00000000000E+00 0. -1.
<mgrwt>
<rscale>  0 0.88175353E+02</rscale>
<asrwt>0</asrwt>
<pdfrwt beam="2">  1        1 0.77918626E-01 0.88175353E+02</pdfrwt>
<pdfrwt beam="1">  1       -1 0.59042729E-03 0.88175353E+02</pdfrwt>
<totfact> 0.15238253E+05</totfact>
</mgrwt>
</event>
<event>
 5    1  0.6046470E+000  0.9184691E+02  0.7546771E-02  0.1298440E+00
          4   -1    0    0  501    0  0.00000000000E+00  0.00000000000E+00  0.53234180080E+02  0.53234180080E+02  0.00000000000E+00 0.  1.
         -4   -1    0    0    0  501 -0.00000000000E+00 -0.00000000000E+00 -0.39616726002E+02  0.39616726002E+02  0.00000000000E+00 0. -1.
         23    2    1    2    0    0  0.00000000000E+00  0.00000000000E+00  0.13617454079E+02  0.92850906082E+02  0.91846914508E+02 0.  0.
        -13    1    3    3    0    0  0.24294658893E+02 -0.34329543214E+02 -0.11837840669E+02  0.43690759432E+02  0.00000000000E+00 0. -1.
         13    1    3    3    0    0 -0.24294658893E+02  0.34329543214E+02  0.25455294747E+02  0.49160146650E+02  0.00000000000E+00 0.  1.
<mgrwt>
<rscale>  0 0.91846915E+02</rscale>
<asrwt>0</asrwt>
<pdfrwt beam="1">  1        4 0.81898738E-02 0.91846915E+02</pdfrwt>
<pdfrwt beam="2">  1       -4 0.60948809E-02 0.91846915E+02</pdfrwt>
<totfact> 0.26378369E+04</totfact>
</mgrwt>
</event>
<event>
 5    1  0.6046470E+000  0.8761059E+02  0.7546771E-02  0.1308743E+00
         -1   -1    0    0    0  501 -0.00000000000E+00  0.00000000000E+00  0.17972847429E+03  0.17972847429E+03  0.00000000000E+00 0.  1.
          1   -1    0    0  501    0  0.00000000000E+00 -0.00000000000E+00 -0.10676682341E+02  0.10676682341E+02  0.00000000000E+00 0. -1.
         23    2    1    2    0    0  0.00000000000E+00  0.00000000000E+00  0.16905179195E+03  0.19040515663E+03  0.87610589032E+02 0.  0.
        -13    1    3    3    0    0  0.25713069585E+02  0.26366180315E+02  0.13607356208E+03  0.14096932896E+03  0.00000000000E+00 0.  1.
         13    1    3    3    0    0 -0.25713069585E+02 -0.26366180315E+02  0.32978229874E+02  0.49435827671E+02  0.00000000000E+00 0. -1.
<mgrwt>
<rscale>  0 0.87610589E+02</rscale>
<asrwt>0</asrwt>
<pdfrwt beam="2">  1        1 0.16425666E-02 0.87610589E+02</pdfrwt>
<pdfrwt beam="1">  1       -1 0.27650532E-01 0.87610589E+02</pdfrwt>
<totfact> 0.79304394E+04</totfact>
</mgrwt>
</event>
<event>
 5    1  0.6046470E+000  0.8935198E+02  0.7546771E-02  0.1304429E+00
         -1   -1    0    0    0  501 -0.00000000000E+00  0.00000000000E+00  0.17657513832E+02  0.17657513832E+02  0.00000000000E+00 0.  1.
          1   -1    0    0  501    0  0.00000000000E+00 -0.00000000000E+00 -0.11303652649E+03  0.11303652649E+03  0.00000000000E+00 0. -1.
         23    2    1    2    0    0  0.00000000000E+00  0.00000000000E+00 -0.95379012661E+02  0.13069404033E+03  0.89351978828E+02 0.  0.
        -13    1    3    3    0    0  0.40026611614E+02  0.11925938579E+01 -0.76663725685E+02  0.86492073356E+02  0.00000000000E+00 0. -1.
         13    1    3    3    0    0 -0.40026611614E+02 -0.11925938579E+01 -0.18715286976E+02  0.44201966970E+02  0.00000000000E+00 0.  1.
<mgrwt>
<rscale>  0 0.89351979E+02</rscale>
<asrwt>0</asrwt>
<pdfrwt beam="2">  1        1 0.17390235E-01 0.89351979E+02</pdfrwt>
<pdfrwt beam="1">  1       -1 0.27165405E-02 0.89351979E+02</pdfrwt>
<totfact> 0.11264118E+05</totfact>
</mgrwt>
</event>
<event>
 5    1  0.6046470E+000  0.9012399E+02  0.7546771E-02  0.1302552E+00
         -1   -1    0    0    0  501 -0.00000000000E+00  0.00000000000E+00  0.51054692457E+03  0.51054692457E+03  0.00000000000E+00 0. -1.
          1   -1    0    0  501    0  0.00000000000E+00 -0.00000000000E+00 -0.39772710578E+01  0.39772710578E+01  0.00000000000E+00 0.  1.
         23    2    1    2    0    0  0.00000000000E+00  0.00000000000E+00  0.50656965351E+03  0.51452419563E+03  0.90123992515E+02 0.  0.
        -13    1    3    3    0    0 -0.42446394630E+02 -0.14887800926E+02  0.23792278800E+03  0.24213755612E+03  0.00000000000E+00 0.  1.
         13    1    3    3    0    0  0.42446394630E+02  0.14887800926E+02  0.26864686551E+03  0.27238663951E+03  0.00000000000E+00 0. -1.
<mgrwt>
<rscale>  0 0.90123993E+02</rscale>
<asrwt>0</asrwt>
<pdfrwt beam="2">  1        1 0.61188826E-03 0.90123993E+02</pdfrwt>
<pdfrwt beam="1">  1       -1 0.78545629E-01 0.90123993E+02</pdfrwt>
<totfact> 0.47870310E+04</totfact>
</mgrwt>
</event>
<event>
 5    1  0.6046470E+000  0.9266587E+02  0.7546771E-02  0.1296521E+00
         -2   -1    0    0    0  501 -0.00000000000E+00  0.00000000000E+00  0.31404005631E+02  0.31404005631E+02  0.00000000000E+00 0.  1.
          2   -1    0    0  501    0  0.00000000000E+00 -0.00000000000E+00 -0.68358829124E+02  0.68358829124E+02  0.00000000000E+00 0. -1.
         23    2    1    2    0    0  0.00000000000E+00  0.00000000000E+00 -0.36954823492E+02  0.99762834755E+02  0.92665874080E+02 0.  0.
        -13    1    3    3    0    0  0.34305709337E+02 -0.29599220771E+02 -0.80536578469E+01  0.46020180010E+02  0.00000000000E+00 0.  1.
         13    1    3    3    0    0 -0.34305709337E+02  0.29599220771E+02 -0.28901165646E+02  0.53742654745E+02  0.00000000000E+00 0. -1.
<mgrwt>
<rscale>  0 0.92665874E+02</rscale>
<asrwt>0</asrwt>
<pdfrwt beam="2">  1        2 0.10516743E-01 0.92665874E+02</pdfrwt>
<pdfrwt beam="1">  1       -2 0.48313855E-02 0.92665874E+02</pdfrwt>
<totfact> 0.10501059E+05</totfact>
</mgrwt>
</event>
<event>
 5    1  0.6046470E+000  0.8914047E+02  0.7546771E-02  0.1304947E+00
         -2   -1    0    0    0  501 -0.00000000000E+00  0.00000000000E+00  0.23926836857E+02  0.23926836857E+02  0.00000000000E+00 0.  1.
          2   -1    0    0  501    0  0.00000000000E+00 -0.00000000000E+00 -0.83024174507E+02  0.83024174507E+02  0.00000000000E+00 0. -1.
         23    2    1    2    0    0  0.00000000000E+00  0.00000000000E+00 -0.59097337650E+02  0.10695101136E+03  0.89140470688E+02 0.  0.
        -13    1    3    3    0    0  0.70696266705E+00  0.44245223039E+02 -0.35938825057E+02  0.57006479496E+02  0.00000000000E+00 0.  1.
         13    1    3    3    0    0 -0.70696266705E+00 -0.44245223039E+02 -0.23158512593E+02  0.49944531868E+02  0.00000000000E+00 0. -1.
<mgrwt>
<rscale>  0 0.89140471E+02</rscale>
<asrwt>0</asrwt>
<pdfrwt beam="2">  1        2 0.12772950E-01 0.89140471E+02</pdfrwt>
<pdfrwt beam="1">  1       -2 0.36810518E-02 0.89140471E+02</pdfrwt>
<totfact> 0.12357544E+05</totfact>
</mgrwt>
</event>
<event>
 5    1  0.6046470E+000  0.9238128E+02  0.7546771E-02  0.1297185E+00
         -1   -1    0    0    0  501 -0.00000000000E+00  0.00000000000E+00  0.33081790847E+02  0.33081790847E+02  0.00000000000E+00 0.  1.
          1   -1    0    0  501    0  0.00000000000E+00 -0.00000000000E+00 -0.64493944369E+02  0.64493944369E+02  0.00000000000E+00 0. -1.
         23    2    1    2    0    0  0.00000000000E+00  0.00000000000E+00 -0.31412153522E+02  0.97575735216E+02  0.92381279024E+02 0.  0.
        -13    1    3    3    0    0 -0.27564630513E+01  0.24810648868E+02  0.25343162601E+02  0.35573055483E+02  0.00000000000E+00 0.  1.
         13    1    3    3    0    0  0.27564630513E+01 -0.24810648868E+02 -0.56755316123E+02  0.62002679733E+02  0.00000000000E+00 0. -1.
<mgrwt>
<rscale>  0 0.92381279E+02</rscale>
<asrwt>0</asrwt>
<pdfrwt beam="2">  1        1 0.99221452E-02 0.92381279E+02</pdfrwt>
<pdfrwt beam="1">  1       -1 0.50895063E-02 0.92381279E+02</pdfrwt>
<totfact> 0.93954413E+04</totfact>
</mgrwt>
</event>
<event>
 5    1  0.6046470E+000  0.8982596E+02  0.7546771E-02  0.1303274E+00
         -1   -1    0    0    0  501 -0.00000000000E+00  0.00000000000E+00  0.17182304428E+02  0.17182304428E+02  0.00000000000E+00 0.  1.
          1   -1    0    0  501    0  0.00000000000E+00 -0.00000000000E+00 -0.11739843204E+03  0.11739843204E+03  0.00000000000E+00 0. -1.
         23    2    1    2    0    0  0.00000000000E+00  0.00000000000E+00 -0.10021612761E+03  0.13458073647E+03  0.89825956130E+02 0.  0.
        -13    1    3    3    0    0 -0.27450674264E+02 -0.11933985119E+02 -0.10027593940E+03  0.10464809382E+03  0.00000000000E+00 0. -1.
         13    1    3    3    0    0  0.27450674264E+02  0.11933985119E+02  0.59811785356E-01  0.29932642647E+02  0.00000000000E+00 0.  1.
<mgrwt>
<rscale>  0 0.89825956E+02</rscale>
<asrwt>0</asrwt>
<pdfrwt beam="2">  1        1 0.18061297E-01 0.89825956E+02</pdfrwt>
<pdfrwt beam="1">  1       -1 0.26434315E-02 0.89825956E+02</pdfrwt>
<totfact> 0.11175975E+05</totfact>
</mgrwt>
</event>
<event>
 5    1  0.6046470E+000  0.9330475E+02  0.7546771E-02  0.1295041E+00
         -3   -1    0    0    0  501 -0.00000000000E+00  0.00000000000E+00  0.67685646355E+02  0.67685646355E+02  0.00000000000E+00 0.  1.
          3   -1    0    0  501    0  0.00000000000E+00 -0.00000000000E+00 -0.32155176249E+02  0.32155176249E+02  0.00000000000E+00 0. -1.
         23    2    1    2    0    0  0.00000000000E+00  0.00000000000E+00  0.35530470105E+02  0.99840822604E+02  0.93304745605E+02 0.  0.
        -13    1    3    3    0    0 -0.35641268394E+02 -0.23273073220E+02  0.38194743295E+02  0.57190684252E+02  0.00000000000E+00 0.  1.
         13    1    3    3    0    0  0.35641268394E+02  0.23273073220E+02 -0.26642731903E+01  0.42650138352E+02  0.00000000000E+00 0. -1.
<mgrwt>
<rscale>  0 0.93304746E+02</rscale>
<asrwt>0</asrwt>
<pdfrwt beam="2">  1        3 0.49469502E-02 0.93304746E+02</pdfrwt>
<pdfrwt beam="1">  1       -3 0.10413176E-01 0.93304746E+02</pdfrwt>
<totfact> 0.32566949E+04</totfact>
</mgrwt>
</event>
<event>
 5    1  0.6046470E+000  0.9059482E+02  0.7546771E-02  0.1301418E+00
         -2   -1    0    0    0  501 -0.00000000000E+00  0.00000000000E+00  0.48273213060E+02  0.48273213060E+02  0.00000000000E+00 0.  1.
          2   -1    0    0  501    0  0.00000000000E+00 -0.00000000000E+00 -0.42505054785E+02  0.42505054785E+02  0.00000000000E+00 0. -1.
         23    2    1    2    0    0  0.00000000000E+00  0.00000000000E+00  0.57681582746E+01  0.90778267845E+02  0.90594824704E+02 0.  0.
        -13    1    3    3    0    0  0.27696515854E+02  0.14386850137E+02  0.35780070748E+02  0.47479384053E+02  0.00000000000E+00 0.  1.
         13    1    3    3    0    0 -0.27696515854E+02 -0.14386850137E+02 -0.30011912474E+02  0.43298883792E+02  0.00000000000E+00 0. -1.
<mgrwt>
<rscale>  0 0.90594825E+02</rscale>
<asrwt>0</asrwt>
<pdfrwt beam="2">  1        2 0.65392392E-02 0.90594825E+02</pdfrwt>
<pdfrwt beam="1">  1       -2 0.74266481E-02 0.90594825E+02</pdfrwt>
<totfact> 0.98703867E+04</totfact>
</mgrwt>
</event>
<event>
 5    1  0.6046470E+000  0.8958391E+02  0.7546771E-02  0.1303862E+00
         -1   -1    0    0    0  501 -0.00000000000E+00  0.00000000000E+00  0.31382415413E+02  0.31382415413E+02  0.00000000000E+00 0.  1.
          1   -1    0    0  501    0  0.00000000000E+00 -0.00000000000E+00 -0.63931319207E+02  0.63931319207E+02  0.00000000000E+00 0. -1.
         23    2    1    2    0    0  0.00000000000E+00  0.00000000000E+00 -0.32548903794E+02  0.95313734621E+02  0.89583909656E+02 0.  0.
        -13    1    3    3    0    0 -0.11673188051E+02 -0.42217519833E+02 -0.63085488071E+01  0.44253588421E+02  0.00000000000E+00 0.  1.
         13    1    3    3    0    0  0.11673188051E+02  0.42217519833E+02 -0.26240354987E+02  0.51060146200E+02  0.00000000000E+00 0. -1.
<mgrwt>
<rscale>  0 0.89583910E+02</rscale>
<asrwt>0</asrwt>
<pdfrwt beam="2">  1        1 0.98355876E-02 0.89583910E+02</pdfrwt>
<pdfrwt beam="1">  1       -1 0.48280639E-02 0.89583910E+02</pdfrwt>
<totfact> 0.10215718E+05</totfact>
</mgrwt>
</event>
<event>
 5    1  0.6046470E+000  0.9414186E+02  0.7546771E-02  0.1293121E+00
         -2   -1    0    0    0  501 -0.00000000000E+00  0.00000000000E+00  0.61088454167E+02  0.61088454167E+02  0.00000000000E+00 0.  1.
          2   -1    0    0  501    0  0.00000000000E+00 -0.00000000000E+00 -0.36269908573E+02  0.36269908573E+02  0.00000000000E+00 0. -1.
         23    2    1    2    0    0  0.00000000000E+00  0.00000000000E+00  0.24818545593E+02  0.97358362740E+02  0.94141864173E+02 0.  0.
        -13    1    3    3    0    0  0.29814056424E+02  0.23451835352E+02  0.41232777291E+02  0.56026854855E+02  0.00000000000E+00 0.  1.
         13    1    3    3    0    0 -0.29814056424E+02 -0.23451835352E+02 -0.16414231698E+02  0.41331507885E+02  0.00000000000E+00 0. -1.
<mgrwt>
<rscale>  0 0.94141864E+02</rscale>
<asrwt>0</asrwt>
<pdfrwt beam="2">  1        2 0.55799860E-02 0.94141864E+02</pdfrwt>
<pdfrwt beam="1">  1       -2 0.93982237E-02 0.94141864E+02</pdfrwt>
<totfact> 0.84666340E+04</totfact>
</mgrwt>
</event>
<event>
 5    1  0.6046470E+000  0.9118314E+02  0.7546771E-02  0.1300012E+00
         -1   -1    0    0    0  501 -0.00000000000E+00  0.00000000000E+00  0.78452119628E+01  0.78452119628E+01  0.00000000000E+00 0.  1.
          1   -1    0    0  501    0  0.00000000000E+00 -0.00000000000E+00 -0.26495027113E+03  0.26495027113E+03  0.00000000000E+00 0. -1.
         23    2    1    2    0    0  0.00000000000E+00  0.00000000000E+00 -0.25710505917E+03  0.27279548309E+03  0.91183135209E+02 0.  0.
        -13    1    3    3    0    0 -0.17393298976E+02  0.39842743114E+02 -0.16964067455E+03  0.17512261273E+03  0.00000000000E+00 0.  1.
         13    1    3    3    0    0  0.17393298976E+02 -0.39842743114E+02 -0.87464384614E+02  0.97672870358E+02  0.00000000000E+00 0. -1.
<mgrwt>
<rscale>  0 0.91183135E+02</rscale>
<asrwt>0</asrwt>
<pdfrwt beam="2">  1        1 0.40761576E-01 0.91183135E+02</pdfrwt>
<pdfrwt beam="1">  1       -1 0.12069558E-02 0.91183135E+02</pdfrwt>
<totfact> 0.12505739E+05</totfact>
</mgrwt>
</event>
<event>
 5    1  0.6046470E+000  0.9225750E+02  0.7546771E-02  0.1297475E+00
          2   -1    0    0  501    0  0.00000000000E+00  0.00000000000E+00  0.85753255596E+02  0.85753255596E+02  0.00000000000E+00 0.  1.
         -2   -1    0    0    0  501 -0.00000000000E+00 -0.00000000000E+00 -0.24813768246E+02  0.24813768246E+02  0.00000000000E+00 0. -1.
         23    2    1    2    0    0  0.00000000000E+00  0.00000000000E+00  0.60939487350E+02  0.11056702384E+03  0.92257496405E+02 0.  0.
        -13    1    3    3    0    0  0.29752152053E+02  0.34371488243E+02  0.39850843556E+02  0.60453945181E+02  0.00000000000E+00 0.  1.
         13    1    3    3    0    0 -0.29752152053E+02 -0.34371488243E+02  0.21088643795E+02  0.50113078661E+02  0.00000000000E+00 0. -1.
<mgrwt>
<rscale>  0 0.92257496E+02</rscale>
<asrwt>0</asrwt>
<pdfrwt beam="1">  1        2 0.13192808E-01 0.92257496E+02</pdfrwt>
<pdfrwt beam="2">  1       -2 0.38175029E-02 0.92257496E+02</pdfrwt>
<totfact> 0.11341217E+05</totfact>
</mgrwt>
</event>
<event>
 5    1  0.6046470E+000  0.9121695E+02  0.7546771E-02  0.1299931E+00
         -2   -1    0    0    0  501 -0.00000000000E+00  0.00000000000E+00  0.25019862393E+03  0.25019862393E+03  0.00000000000E+00 0. -1.
          2   -1    0    0  501    0  0.00000000000E+00 -0.00000000000E+00 -0.83139273477E+01  0.83139273477E+01  0.00000000000E+00 0.  1.
         23    2    1    2    0    0  0.00000000000E+00  0.00000000000E+00  0.24188469659E+03  0.25851255128E+03  0.91216954167E+02 0.  0.
        -13    1    3    3    0    0 -0.10771597347E+02  0.43148934384E+02  0.92281336335E+02  0.10243877627E+03  0.00000000000E+00 0.  1.
         13    1    3    3    0    0  0.10771597347E+02 -0.43148934384E+02  0.14960336025E+03  0.15607377501E+03  0.00000000000E+00 0. -1.
<mgrwt>
<rscale>  0 0.91216954E+02</rscale>
<asrwt>0</asrwt>
<pdfrwt beam="2">  1        2 0.12790659E-02 0.91216954E+02</pdfrwt>
<pdfrwt beam="1">  1       -2 0.38492090E-01 0.91216954E+02</pdfrwt>
<totfact> 0.56091341E+04</totfact>
</mgrwt>
</event>
<event>
 5    1  0.6046470E+000  0.9429517E+02  0.7546771E-02  0.1292771E+00
         -2   -1    0    0    0  501 -0.00000000000E+00  0.00000000000E+00  0.59376070116E+01  0.59376070116E+01  0.00000000000E+00 0. -1.
          2   -1    0    0  501    0  0.00000000000E+00 -0.00000000000E+00 -0.37437555841E+03  0.37437555841E+03  0.00000000000E+00 0.  1.
         23    2    1    2    0    0  0.00000000000E+00  0.00000000000E+00 -0.36843795140E+03  0.38031316542E+03  0.94295173590E+02 0.  0.
        -13    1    3    3    0    0 -0.61599981903E+01 -0.46106390738E+02 -0.21523810638E+03  0.22020714630E+03  0.00000000000E+00 0.  1.
         13    1    3    3    0    0  0.61599981903E+01  0.46106390738E+02 -0.15319984503E+03  0.16010601913E+03  0.00000000000E+00 0. -1.
<mgrwt>
<rscale>  0 0.94295174E+02</rscale>
<asrwt>0</asrwt>
<pdfrwt beam="2">  1        2 0.57596234E-01 0.94295174E+02</pdfrwt>
<pdfrwt beam="1">  1       -2 0.91347809E-03 0.94295174E+02</pdfrwt>
<totfact> 0.17821404E+05</totfact>
</mgrwt>
</event>
<event>
 5    1  0.6046470E+000  0.9056136E+02  0.7546771E-02  0.1301498E+00
         -3   -1    0    0    0  501 -0.00000000000E+00  0.00000000000E+00  0.20272789173E+03  0.20272789173E+03  0.00000000000E+00 0.  1.
          3   -1    0    0  501    0  0.00000000000E+00 -0.00000000000E+00 -0.10113753540E+02  0.10113753540E+02  0.00000000000E+00 0. -1.
         23    2    1    2    0    0  0.00000000000E+00  0.00000000000E+00  0.19261413819E+03  0.21284164527E+03  0.90561358925E+02 0.  0.
        -13    1    3    3    0    0  0.30041276143E+02  0.23052789387E+02  0.15465907068E+03  0.15922731397E+03  0.00000000000E+00 0.  1.
         13    1    3    3    0    0 -0.30041276143E+02 -0.23052789387E+02  0.37955067508E+02  0.53614331296E+02  0.00000000000E+00 0. -1.
<mgrwt>
<rscale>  0 0.90561359E+02</rscale>
<asrwt>0</asrwt>
<pdfrwt beam="2">  1        3 0.15559622E-02 0.90561359E+02</pdfrwt>
<pdfrwt beam="1">  1       -3 0.31188904E-01 0.90561359E+02</pdfrwt>
<totfact> 0.28358500E+04</totfact>
</mgrwt>
</event>
<event>
 5    1  0.6046470E+000  0.9240127E+02  0.7546771E-02  0.1297139E+00
         -2   -1    0    0    0  501 -0.00000000000E+00  0.00000000000E+00  0.13050892991E+02  0.13050892991E+02  0.00000000000E+00 0.  1.
          2   -1    0    0  501    0  0.00000000000E+00 -0.00000000000E+00 -0.16355194154E+03  0.16355194154E+03  0.00000000000E+00 0. -1.
         23    2    1    2    0    0  0.00000000000E+00  0.00000000000E+00 -0.15050104855E+03  0.17660283453E+03  0.92401274611E+02 0.  0.
        -13    1    3    3    0    0 -0.15941074132E+01 -0.29788390739E+02 -0.78231479374E+01  0.30839764022E+02  0.00000000000E+00 0.  1.
         13    1    3    3    0    0  0.15941074132E+01  0.29788390739E+02 -0.14267790061E+03  0.14576307051E+03  0.00000000000E+00 0. -1.
<mgrwt>
<rscale>  0 0.92401275E+02</rscale>
<asrwt>0</asrwt>
<pdfrwt beam="2">  1        2 0.25161836E-01 0.92401275E+02</pdfrwt>
<pdfrwt beam="1">  1       -2 0.20078297E-02 0.92401275E+02</pdfrwt>
<totfact> 0.13890984E+05</totfact>
</mgrwt>
</event>
<event>
 5    1  0.6046470E+000  0.8818161E+02  0.7546771E-02  0.1307316E+00
          2   -1    0    0  501    0  0.00000000000E+00  0.00000000000E+00  0.67635749742E+02  0.67635749742E+02  0.00000000000E+00 0. -1.
         -2   -1    0    0    0  501 -0.00000000000E+00 -0.00000000000E+00 -0.28742185456E+02  0.28742185456E+02  0.00000000000E+00 0.  1.
         23    2    1    2    0    0  0.00000000000E+00  0.00000000000E+00  0.38893564286E+02  0.96377935198E+02  0.88181614014E+02 0.  0.
        -13    1    3    3    0    0 -0.30116906626E+02 -0.22495340917E+02 -0.57368605206E+01  0.38026043659E+02  0.00000000000E+00 0.  1.
         13    1    3    3    0    0  0.30116906626E+02  0.22495340917E+02  0.44630424807E+02  0.58351891539E+02  0.00000000000E+00 0. -1.
<mgrwt>
<rscale>  0 0.88181614E+02</rscale>
<asrwt>0</asrwt>
<pdfrwt beam="1">  1        2 0.10405500E-01 0.88181614E+02</pdfrwt>
<pdfrwt beam="2">  1       -2 0.44218747E-02 0.88181614E+02</pdfrwt>
<totfact> 0.12028752E+05</totfact>
</mgrwt>
</event>
<event>
 5    1  0.6046470E+000  0.9131498E+02  0.7546771E-02  0.1299698E+00
         -4   -1    0    0    0  501 -0.00000000000E+00  0.00000000000E+00  0.55119216654E+02  0.55119216654E+02  0.00000000000E+00 0.  1.
          4   -1    0    0  501    0  0.00000000000E+00 -0.00000000000E+00 -0.37819957811E+02  0.37819957811E+02  0.00000000000E+00 0. -1.
         23    2    1    2    0    0  0.00000000000E+00  0.00000000000E+00  0.17299258844E+02  0.92939174465E+02  0.91314981211E+02 0.  0.
        -13    1    3    3    0    0 -0.42262682229E+02  0.16228585019E+02  0.14679976396E+02  0.47592047528E+02  0.00000000000E+00 0.  1.
         13    1    3    3    0    0  0.42262682229E+02 -0.16228585019E+02  0.26192824479E+01  0.45347126937E+02  0.00000000000E+00 0. -1.
<mgrwt>
<rscale>  0 0.91314981E+02</rscale>
<asrwt>0</asrwt>
<pdfrwt beam="2">  1        4 0.58184551E-02 0.91314981E+02</pdfrwt>
<pdfrwt beam="1">  1       -4 0.84798794E-02 0.91314981E+02</pdfrwt>
<totfact> 0.26792821E+04</totfact>
</mgrwt>
</event>
<event>
 5    1  0.6046470E+000  0.9335068E+02  0.7546771E-02  0.1294935E+00
         -3   -1    0    0    0  501 -0.00000000000E+00  0.00000000000E+00  0.63044982605E+02  0.63044982605E+02  0.00000000000E+00 0.  1.
          3   -1    0    0  501    0  0.00000000000E+00 -0.00000000000E+00 -0.34556080772E+02  0.34556080772E+02  0.00000000000E+00 0. -1.
         23    2    1    2    0    0  0.00000000000E+00  0.00000000000E+00  0.28488901833E+02  0.97601063376E+02  0.93350683150E+02 0.  0.
        -13    1    3    3    0    0 -0.14096806290E+02  0.42468481939E+02  0.28126634779E+02  0.52852620462E+02  0.00000000000E+00 0. -1.
         13    1    3    3    0    0  0.14096806290E+02 -0.42468481939E+02  0.36226705448E+00  0.44748442914E+02  0.00000000000E+00 0.  1.
<mgrwt>
<rscale>  0 0.93350683E+02</rscale>
<asrwt>0</asrwt>
<pdfrwt beam="2">  1        3 0.53163201E-02 0.93350683E+02</pdfrwt>
<pdfrwt beam="1">  1       -3 0.96992281E-02 0.93350683E+02</pdfrwt>
<totfact> 0.32679428E+04</totfact>
</mgrwt>
</event>
<event>
 5    1  0.6046470E+000  0.9141339E+02  0.7546771E-02  0.1299465E+00
          2   -1    0    0  501    0  0.00000000000E+00  0.00000000000E+00  0.14394127066E+02  0.14394127066E+02  0.00000000000E+00 0. -1.
         -2   -1    0    0    0  501 -0.00000000000E+00 -0.00000000000E+00 -0.14513570848E+03  0.14513570848E+03  0.00000000000E+00 0.  1.
         23    2    1    2    0    0  0.00000000000E+00  0.00000000000E+00 -0.13074158141E+03  0.15952983555E+03  0.91413386979E+02 0.  0.
        -13    1    3    3    0    0  0.23197664123E+02 -0.25512885872E+02 -0.13014539999E+02  0.36856711976E+02  0.00000000000E+00 0. -1.
         13    1    3    3    0    0 -0.23197664123E+02  0.25512885872E+02 -0.11772704141E+03  0.12267312357E+03  0.00000000000E+00 0.  1.
<mgrwt>
<rscale>  0 0.91413387E+02</rscale>
<asrwt>0</asrwt>
<pdfrwt beam="1">  1        2 0.22144811E-02 0.91413387E+02</pdfrwt>
<pdfrwt beam="2">  1       -2 0.22328570E-01 0.91413387E+02</pdfrwt>
<totfact> 0.70230210E+04</totfact>
</mgrwt>
</event>
<event>
 5    1  0.6046470E+000  0.9084892E+02  0.7546771E-02  0.1300809E+00
         -1   -1    0    0    0  501 -0.00000000000E+00  0.00000000000E+00  0.13253244764E+02  0.13253244764E+02  0.00000000000E+00 0.  1.
          1   -1    0    0  501    0  0.00000000000E+00 -0.00000000000E+00 -0.15568879194E+03  0.15568879194E+03  0.00000000000E+00 0. -1.
         23    2    1    2    0    0  0.00000000000E+00  0.00000000000E+00 -0.14243554718E+03  0.16894203671E+03  0.90848922208E+02 0.  0.
        -13    1    3    3    0    0  0.27710509710E+02 -0.33859046472E+02 -0.93922659362E+02  0.10361357690E+03  0.00000000000E+00 0. -1.
         13    1    3    3    0    0 -0.27710509710E+02  0.33859046472E+02 -0.48512887817E+02  0.65328459807E+02  0.00000000000E+00 0.  1.
<mgrwt>
<rscale>  0 0.90848922E+02</rscale>
<asrwt>0</asrwt>
<pdfrwt beam="2">  1        1 0.23952123E-01 0.90848922E+02</pdfrwt>
<pdfrwt beam="1">  1       -1 0.20389606E-02 0.90848922E+02</pdfrwt>
<totfact> 0.11400732E+05</totfact>
</mgrwt>
</event>
<event>
 5    1  0.6046470E+000  0.9366957E+02  0.7546771E-02  0.1294201E+00
         -1   -1    0    0    0  501 -0.00000000000E+00  0.00000000000E+00  0.27939561553E+03  0.27939561553E+03  0.00000000000E+00 0.  1.
          1   -1    0    0  501    0  0.00000000000E+00 -0.00000000000E+00 -0.78508649874E+01  0.78508649874E+01  0.00000000000E+00 0. -1.
         23    2    1    2    0    0  0.00000000000E+00  0.00000000000E+00  0.27154475054E+03  0.28724648051E+03  0.93669573621E+02 0.  0.
        -13    1    3    3    0    0 -0.46656435094E+02  0.19370516764E+01  0.12474877203E+03  0.13320221931E+03  0.00000000000E+00 0. -1.
         13    1    3    3    0    0  0.46656435094E+02 -0.19370516764E+01  0.14679597851E+03  0.15404426120E+03  0.00000000000E+00 0.  1.
<mgrwt>
<rscale>  0 0.93669574E+02</rscale>
<asrwt>0</asrwt>
<pdfrwt beam="2">  1        1 0.12078256E-02 0.93669574E+02</pdfrwt>
<pdfrwt beam="1">  1       -1 0.42983933E-01 0.93669574E+02</pdfrwt>
<totfact> 0.58013456E+04</totfact>
</mgrwt>
</event>
<event>
 5    1  0.6046470E+000  0.8994417E+02  0.7546771E-02  0.1302987E+00
          1   -1    0    0  501    0  0.00000000000E+00  0.00000000000E+00  0.12873168139E+02  0.12873168139E+02  0.00000000000E+00 0. -1.
         -1   -1    0    0    0  501 -0.00000000000E+00 -0.00000000000E+00 -0.15710883756E+03  0.15710883756E+03  0.00000000000E+00 0.  1.
         23    2    1    2    0    0  0.00000000000E+00  0.00000000000E+00 -0.14423566942E+03  0.16998200570E+03  0.89944171174E+02 0.  0.
        -13    1    3    3    0    0  0.34016730692E+02 -0.11042828179E+02 -0.12364581154E+03  0.12871429109E+03  0.00000000000E+00 0.  1.
         13    1    3    3    0    0 -0.34016730692E+02  0.11042828179E+02 -0.20589857887E+02  0.41267714608E+02  0.00000000000E+00 0. -1.
<mgrwt>
<rscale>  0 0.89944171E+02</rscale>
<asrwt>0</asrwt>
<pdfrwt beam="1">  1        1 0.19804875E-02 0.89944171E+02</pdfrwt>
<pdfrwt beam="2">  1       -1 0.24170590E-01 0.89944171E+02</pdfrwt>
<totfact> 0.76628894E+04</totfact>
</mgrwt>
</event>
<event>
 5    1  0.6046470E+000  0.8613114E+02  0.7546771E-02  0.1312501E+00
          1   -1    0    0  501    0  0.00000000000E+00  0.00000000000E+00  0.66402045059E+02  0.66402045059E+02  0.00000000000E+00 0. -1.
         -1   -1    0    0    0  501 -0.00000000000E+00 -0.00000000000E+00 -0.27930512125E+02  0.27930512125E+02  0.00000000000E+00 0.  1.
         23    2    1    2    0    0  0.00000000000E+00  0.00000000000E+00  0.38471532934E+02  0.94332557184E+02  0.86131135477E+02 0.  0.
        -13    1    3    3    0    0 -0.90275983528E+01 -0.12699981200E+02  0.63206586440E+02  0.65098845028E+02  0.00000000000E+00 0. -1.
         13    1    3    3    0    0  0.90275983528E+01  0.12699981200E+02 -0.24735053506E+02  0.29233712156E+02  0.00000000000E+00 0.  1.
<mgrwt>
<rscale>  0 0.86131135E+02</rscale>
<asrwt>0</asrwt>
<pdfrwt beam="1">  1        1 0.10215699E-01 0.86131135E+02</pdfrwt>
<pdfrwt beam="2">  1       -1 0.42970019E-02 0.86131135E+02</pdfrwt>
<totfact> 0.11445396E+05</totfact>
</mgrwt>
</event>
<event>
 5    1  0.6046470E+000  0.9243106E+02  0.7546771E-02  0.1297069E+00
         -2   -1    0    0    0  501 -0.00000000000E+00  0.00000000000E+00  0.62073266806E+02  0.62073266806E+02  0.00000000000E+00 0.  1.
          2   -1    0    0  501    0  0.00000000000E+00 -0.00000000000E+00 -0.34408940967E+02  0.34408940967E+02  0.00000000000E+00 0. -1.
         23    2    1    2    0    0  0.00000000000E+00  0.00000000000E+00  0.27664325839E+02  0.96482207774E+02  0.92431063462E+02 0.  0.
        -13    1    3    3    0    0  0.30794901132E+02  0.14612123392E+02  0.46409578521E+02  0.57582020321E+02  0.00000000000E+00 0.  1.
         13    1    3    3    0    0 -0.30794901132E+02 -0.14612123392E+02 -0.18745252682E+02  0.38900187453E+02  0.00000000000E+00 0. -1.
<mgrwt>
<rscale>  0 0.92431063E+02</rscale>
<asrwt>0</asrwt>
<pdfrwt beam="2">  1        2 0.52936833E-02 0.92431063E+02</pdfrwt>
<pdfrwt beam="1">  1       -2 0.95497333E-02 0.92431063E+02</pdfrwt>
<totfact> 0.88117184E+04</totfact>
</mgrwt>
</event>
<event>
 5    1  0.6046470E+000  0.9290344E+02  0.7546771E-02  0.1295969E+00
          4   -1    0    0  501    0  0.00000000000E+00  0.00000000000E+00  0.21314427915E+03  0.21314427915E+03  0.00000000000E+00 0. -1.
         -4   -1    0    0    0  501 -0.00000000000E+00 -0.00000000000E+00 -0.10123481060E+02  0.10123481060E+02  0.00000000000E+00 0.  1.
         23    2    1    2    0    0  0.00000000000E+00  0.00000000000E+00  0.20302079809E+03  0.22326776021E+03  0.92903435310E+02 0.  0.
        -13    1    3    3    0    0 -0.22906358860E+02  0.33543877964E+02  0.47351464109E+02  0.62386330060E+02  0.00000000000E+00 0. -1.
         13    1    3    3    0    0  0.22906358860E+02 -0.33543877964E+02  0.15566933398E+03  0.16088143015E+03  0.00000000000E+00 0.  1.
<mgrwt>
<rscale>  0 0.92903435E+02</rscale>
<asrwt>0</asrwt>
<pdfrwt beam="1">  1        4 0.32791424E-01 0.92903435E+02</pdfrwt>
<pdfrwt beam="2">  1       -4 0.15574588E-02 0.92903435E+02</pdfrwt>
<totfact> 0.19449220E+04</totfact>
</mgrwt>
</event>
<event>
 5    1  0.6046470E+000  0.9504186E+02  0.7546771E-02  0.1291082E+00
          4   -1    0    0  501    0  0.00000000000E+00  0.00000000000E+00  0.82385505701E+02  0.82385505701E+02  0.00000000000E+00 0. -1.
         -4   -1    0    0    0  501 -0.00000000000E+00 -0.00000000000E+00 -0.27410633049E+02  0.27410633049E+02  0.00000000000E+00 0.  1.
         23    2    1    2    0    0  0.00000000000E+00  0.00000000000E+00  0.54974872651E+02  0.10979613875E+03  0.95041861626E+02 0.  0.
        -13    1    3    3    0    0  0.55440102793E+00 -0.46704229016E+02  0.37601327772E+02  0.59962089846E+02  0.00000000000E+00 0. -1.
         13    1    3    3    0    0 -0.55440102793E+00  0.46704229016E+02  0.17373544880E+02  0.49834048904E+02  0.00000000000E+00 0.  1.
<mgrwt>
<rscale>  0 0.95041862E+02</rscale>
<asrwt>0</asrwt>
<pdfrwt beam="1">  1        4 0.12674693E-01 0.95041862E+02</pdfrwt>
<pdfrwt beam="2">  1       -4 0.42170205E-02 0.95041862E+02</pdfrwt>
<totfact> 0.23104946E+04</totfact>
</mgrwt>
</event>
<event>
 5    1  0.6046470E+000  0.9228920E+02  0.7546771E-02  0.1297401E+00
          2   -1    0    0  501    0  0.00000000000E+00  0.00000000000E+00  0.55382076767E+01  0.55382076767E+01  0.00000000000E+00 0. -1.
         -2   -1    0    0    0  501 -0.00000000000E+00 -0.00000000000E+00 -0.38447892533E+03  0.38447892533E+03  0.00000000000E+00 0.  1.
         23    2    1    2    0    0  0.00000000000E+00  0.00000000000E+00 -0.37894071765E+03  0.39001713300E+03  0.92289200577E+02 0.  0.
        -13    1    3    3    0    0  0.33945912934E+02 -0.30907615140E+02 -0.20916496439E+03  0.21414384887E+03  0.00000000000E+00 0.  1.
         13    1    3    3    0    0 -0.33945912934E+02  0.30907615140E+02 -0.16977575325E+03  0.17587328413E+03  0.00000000000E+00 0. -1.
<mgrwt>
<rscale>  0 0.92289201E+02</rscale>
<asrwt>0</asrwt>
<pdfrwt beam="1">  1        2 0.85203180E-03 0.92289201E+02</pdfrwt>
<pdfrwt beam="2">  1       -2 0.59150614E-01 0.92289201E+02</pdfrwt>
<totfact> 0.42482580E+04</totfact>
</mgrwt>
</event>
<event>
 5    1  0.6046470E+000  0.9228128E+02  0.7546771E-02  0.1297419E+00
         -1   -1    0    0    0  501 -0.00000000000E+00  0.00000000000E+00  0.47473600333E+02  0.47473600333E+02  0.00000000000E+00 0.  1.
          1   -1    0    0  501    0  0.00000000000E+00 -0.00000000000E+00 -0.44845103771E+02  0.44845103771E+02  0.00000000000E+00 0. -1.
         23    2    1    2    0    0  0.00000000000E+00  0.00000000000E+00  0.26284965621E+01  0.92318704104E+02  0.92281277263E+02 0.  0.
        -13    1    3    3    0    0 -0.15039746869E+02 -0.40808896321E+02 -0.14099743177E+02  0.45720485151E+02  0.00000000000E+00 0.  1.
         13    1    3    3    0    0  0.15039746869E+02  0.40808896321E+02  0.16728239739E+02  0.46598218953E+02  0.00000000000E+00 0. -1.
<mgrwt>
<rscale>  0 0.92281277E+02</rscale>
<asrwt>0</asrwt>
<pdfrwt beam="2">  1        1 0.68992467E-02 0.92281277E+02</pdfrwt>
<pdfrwt beam="1">  1       -1 0.73036308E-02 0.92281277E+02</pdfrwt>
<totfact> 0.89170223E+04</totfact>
</mgrwt>
</event>
<event>
 5    1  0.6046470E+000  0.8809187E+02  0.7546771E-02  0.1307539E+00
          1   -1    0    0  501    0  0.00000000000E+00  0.00000000000E+00  0.15595261628E+02  0.15595261628E+02  0.00000000000E+00 0. -1.
         -1   -1    0    0    0  501 -0.00000000000E+00 -0.00000000000E+00 -0.12439960845E+03  0.12439960845E+03  0.00000000000E+00 0.  1.
         23    2    1    2    0    0  0.00000000000E+00  0.00000000000E+00 -0.10880434683E+03  0.13999487008E+03  0.88091871142E+02 0.  0.
        -13    1    3    3    0    0 -0.22539985904E+02  0.23657497368E+02 -0.10133895201E+03  0.10647681128E+03  0.00000000000E+00 0.  1.
         13    1    3    3    0    0  0.22539985904E+02 -0.23657497368E+02 -0.74653948200E+01  0.33518058805E+02  0.00000000000E+00 0. -1.
<mgrwt>
<rscale>  0 0.88091871E+02</rscale>
<asrwt>0</asrwt>
<pdfrwt beam="1">  1        1 0.23992711E-02 0.88091871E+02</pdfrwt>
<pdfrwt beam="2">  1       -1 0.19138401E-01 0.88091871E+02</pdfrwt>
<totfact> 0.85195667E+04</totfact>
</mgrwt>
</event>
<event>
 5    1  0.6046470E+000  0.9164968E+02  0.7546771E-02  0.1298905E+00
          3   -1    0    0  501    0  0.00000000000E+00  0.00000000000E+00  0.42692467746E+02  0.42692467746E+02  0.00000000000E+00 0. -1.
         -3   -1    0    0    0  501 -0.00000000000E+00 -0.00000000000E+00 -0.49187036977E+02  0.49187036977E+02  0.00000000000E+00 0.  1.
         23    2    1    2    0    0  0.00000000000E+00  0.00000000000E+00 -0.64945692309E+01  0.91879504722E+02  0.91649680624E+02 0.  0.
        -13    1    3    3    0    0 -0.34454356461E+02 -0.18475046739E+02 -0.27213004099E+02  0.47633786573E+02  0.00000000000E+00 0.  1.
         13    1    3    3    0    0  0.34454356461E+02  0.18475046739E+02  0.20718434868E+02  0.44245718149E+02  0.00000000000E+00 0. -1.
<mgrwt>
<rscale>  0 0.91649681E+02</rscale>
<asrwt>0</asrwt>
<pdfrwt beam="1">  1        3 0.65680720E-02 0.91649681E+02</pdfrwt>
<pdfrwt beam="2">  1       -3 0.75672364E-02 0.91649681E+02</pdfrwt>
<totfact> 0.34790098E+04</totfact>
</mgrwt>
</event>
<event>
 5    1  0.6046470E+000  0.8931368E+02  0.7546771E-02  0.1304522E+00
          2   -1    0    0  501    0  0.00000000000E+00  0.00000000000E+00  0.33333063561E+03  0.33333063561E+03  0.00000000000E+00 0.  1.
         -2   -1    0    0    0  501 -0.00000000000E+00 -0.00000000000E+00 -0.59827478649E+01  0.59827478649E+01  0.00000000000E+00 0. -1.
         23    2    1    2    0    0  0.00000000000E+00  0.00000000000E+00  0.32734788775E+03  0.33931338348E+03  0.89313675291E+02 0.  0.
        -13    1    3    3    0    0  0.42178535673E+02 -0.10613559484E+02  0.20214772799E+03  0.20677374216E+03  0.00000000000E+00 0.  1.
         13    1    3    3    0    0 -0.42178535673E+02  0.10613559484E+02  0.12520015976E+03  0.13253964131E+03  0.00000000000E+00 0. -1.
<mgrwt>
<rscale>  0 0.89313675E+02</rscale>
<asrwt>0</asrwt>
<pdfrwt beam="1">  1        2 0.51281622E-01 0.89313675E+02</pdfrwt>
<pdfrwt beam="2">  1       -2 0.92042301E-03 0.89313675E+02</pdfrwt>
<totfact> 0.19735804E+05</totfact>
</mgrwt>
</event>
<event>
 5    1  0.6046470E+000  0.9227626E+02  0.7546771E-02  0.1297431E+00
          1   -1    0    0  501    0  0.00000000000E+00  0.00000000000E+00  0.72078811595E+02  0.72078811595E+02  0.00000000000E+00 0. -1.
         -1   -1    0    0    0  501 -0.00000000000E+00 -0.00000000000E+00 -0.29533327859E+02  0.29533327859E+02  0.00000000000E+00 0.  1.
         23    2    1    2    0    0  0.00000000000E+00  0.00000000000E+00  0.42545483735E+02  0.10161213945E+03  0.92276262918E+02 0.  0.
        -13    1    3    3    0    0 -0.25829469943E+02  0.36290256452E+02  0.80319448123E+01  0.45262085329E+02  0.00000000000E+00 0.  1.
         13    1    3    3    0    0  0.25829469943E+02 -0.36290256452E+02  0.34513538923E+02  0.56350054125E+02  0.00000000000E+00 0. -1.
<mgrwt>
<rscale>  0 0.92276263E+02</rscale>
<asrwt>0</asrwt>
<pdfrwt beam="1">  1        1 0.11089048E-01 0.92276263E+02</pdfrwt>
<pdfrwt beam="2">  1       -1 0.45435889E-02 0.92276263E+02</pdfrwt>
<totfact> 0.95889439E+04</totfact>
</mgrwt>
</event>
<event>
 5    1  0.6046470E+000  0.9248645E+02  0.7546771E-02  0.1296940E+00
         -3   -1    0    0    0  501 -0.00000000000E+00  0.00000000000E+00  0.94122691983E+02  0.94122691983E+02  0.00000000000E+00 0.  1.
          3   -1    0    0  501    0  0.00000000000E+00 -0.00000000000E+00 -0.22719661611E+02  0.22719661611E+02  0.00000000000E+00 0. -1.
         23    2    1    2    0    0  0.00000000000E+00  0.00000000000E+00  0.71403030373E+02  0.11684235359E+03  0.92486446828E+02 0.  0.
        -13    1    3    3    0    0  0.28816039618E+02  0.32655079857E+02  0.16059949776E+02  0.46418103866E+02  0.00000000000E+00 0. -1.
         13    1    3    3    0    0 -0.28816039618E+02 -0.32655079857E+02  0.55343080597E+02  0.70424249728E+02  0.00000000000E+00 0.  1.
<mgrwt>
<rscale>  0 0.92486447E+02</rscale>
<asrwt>0</asrwt>
<pdfrwt beam="2">  1        3 0.34953326E-02 0.92486447E+02</pdfrwt>
<pdfrwt beam="1">  1       -3 0.14480414E-01 0.92486447E+02</pdfrwt>
<totfact> 0.32190561E+04</totfact>
</mgrwt>
</event>
<event>
 5    1  0.6046470E+000  0.9122880E+02  0.7546771E-02  0.1299903E+00
          2   -1    0    0  501    0  0.00000000000E+00  0.00000000000E+00  0.15629712006E+02  0.15629712006E+02  0.00000000000E+00 0. -1.
         -2   -1    0    0    0  501 -0.00000000000E+00 -0.00000000000E+00 -0.13312296099E+03  0.13312296099E+03  0.00000000000E+00 0.  1.
         23    2    1    2    0    0  0.00000000000E+00  0.00000000000E+00 -0.11749324898E+03  0.14875267299E+03  0.91228801191E+02 0.  0.
        -13    1    3    3    0    0  0.79877116721E+01  0.26424898582E+02  0.46247824916E+00  0.27609648476E+02  0.00000000000E+00 0. -1.
         13    1    3    3    0    0 -0.79877116721E+01 -0.26424898582E+02 -0.11795572723E+03  0.12114302452E+03  0.00000000000E+00 0.  1.
<mgrwt>
<rscale>  0 0.91228801E+02</rscale>
<asrwt>0</asrwt>
<pdfrwt beam="1">  1        2 0.24045710E-02 0.91228801E+02</pdfrwt>
<pdfrwt beam="2">  1       -2 0.20480456E-01 0.91228801E+02</pdfrwt>
<totfact> 0.72753882E+04</totfact>
</mgrwt>
</event>
<event>
 5    1  0.6046470E+000  0.9235310E+02  0.7546771E-02  0.1297251E+00
         -3   -1    0    0    0  501 -0.00000000000E+00  0.00000000000E+00  0.17671894118E+02  0.17671894118E+02  0.00000000000E+00 0.  1.
          3   -1    0    0  501    0  0.00000000000E+00 -0.00000000000E+00 -0.12065904895E+03  0.12065904895E+03  0.00000000000E+00 0. -1.
         23    2    1    2    0    0  0.00000000000E+00  0.00000000000E+00 -0.10298715483E+03  0.13833094306E+03  0.92353103625E+02 0.  0.
        -13    1    3    3    0    0 -0.39776752831E+02  0.98714244289E+01 -0.19626388369E+02  0.45440402798E+02  0.00000000000E+00 0.  1.
         13    1    3    3    0    0  0.39776752831E+02 -0.98714244289E+01 -0.83360766458E+02  0.92890540264E+02  0.00000000000E+00 0. -1.
<mgrwt>
<rscale>  0 0.92353104E+02</rscale>
<asrwt>0</asrwt>
<pdfrwt beam="2">  1        3 0.18562931E-01 0.92353104E+02</pdfrwt>
<pdfrwt beam="1">  1       -3 0.27187529E-02 0.92353104E+02</pdfrwt>
<totfact> 0.30939832E+04</totfact>
</mgrwt>
</event>
<event>
 5    1  0.6046470E+000  0.8742649E+02  0.7546771E-02  0.1309206E+00
          1   -1    0    0  501    0  0.00000000000E+00  0.00000000000E+00  0.11268560020E+03  0.11268560020E+03  0.00000000000E+00 0. -1.
         -1   -1    0    0    0  501 -0.00000000000E+00 -0.00000000000E+00 -0.16957337228E+02  0.16957337228E+02  0.00000000000E+00 0.  1.
         23    2    1    2    0    0  0.00000000000E+00  0.00000000000E+00  0.95728262969E+02  0.12964293742E+03  0.87426488508E+02 0.  0.
        -13    1    3    3    0    0 -0.14038188408E+02  0.35884378213E+02  0.78473592160E+02  0.87423475108E+02  0.00000000000E+00 0. -1.
         13    1    3    3    0    0  0.14038188408E+02 -0.35884378213E+02  0.17254670809E+02  0.42219462316E+02  0.00000000000E+00 0.  1.
<mgrwt>
<rscale>  0 0.87426489E+02</rscale>
<asrwt>0</asrwt>
<pdfrwt beam="1">  1        1 0.17336246E-01 0.87426489E+02</pdfrwt>
<pdfrwt beam="2">  1       -1 0.26088212E-02 0.87426489E+02</pdfrwt>
<totfact> 0.11941260E+05</totfact>
</mgrwt>
</event>
<event>
 5    1  0.6046470E+000  0.9195801E+02  0.7546771E-02  0.1298178E+00
         -2   -1    0    0    0  501 -0.00000000000E+00  0.00000000000E+00  0.49840418032E+02  0.49840418032E+02  0.00000000000E+00 0. -1.
          2   -1    0    0  501    0  0.00000000000E+00 -0.00000000000E+00 -0.42416754257E+02  0.42416754257E+02  0.00000000000E+00 0.  1.
         23    2    1    2    0    0  0.00000000000E+00  0.00000000000E+00  0.74236637749E+01  0.92257172288E+02  0.91958007018E+02 0.  0.
        -13    1    3    3    0    0 -0.29543203622E+02 -0.13624409738E+02  0.36308198634E+02  0.48751520069E+02  0.00000000000E+00 0. -1.
         13    1    3    3    0    0  0.29543203622E+02  0.13624409738E+02 -0.28884534860E+02  0.43505652219E+02  0.00000000000E+00 0.  1.
<mgrwt>
<rscale>  0 0.91958007E+02</rscale>
<asrwt>0</asrwt>
<pdfrwt beam="2">  1        2 0.65256545E-02 0.91958007E+02</pdfrwt>
<pdfrwt beam="1">  1       -2 0.76677566E-02 0.91958007E+02</pdfrwt>
<totfact> 0.94489453E+04</totfact>
</mgrwt>
</event>
<event>
 5    1  0.6046470E+000  0.9369056E+02  0.7546771E-02  0.1294153E+00
         -3   -1    0    0    0  501 -0.00000000000E+00  0.00000000000E+00  0.20144482776E+02  0.20144482776E+02  0.00000000000E+00 0.  1.
          3   -1    0    0  501    0  0.00000000000E+00 -0.00000000000E+00 -0.10893704739E+03  0.10893704739E+03  0.00000000000E+00 0. -1.
         23    2    1    2    0    0  0.00000000000E+00  0.00000000000E+00 -0.88792564618E+02  0.12908153017E+03  0.93690564623E+02 0.  0.
        -13    1    3    3    0    0 -0.26463179028E+02  0.16065530856E+02  0.40423000406E+01  0.31220847451E+02  0.00000000000E+00 0.  1.
         13    1    3    3    0    0  0.26463179028E+02 -0.16065530856E+02 -0.92834864659E+02  0.97860682718E+02  0.00000000000E+00 0. -1.
<mgrwt>
<rscale>  0 0.93690565E+02</rscale>
<asrwt>0</asrwt>
<pdfrwt beam="2">  1        3 0.16759546E-01 0.93690565E+02</pdfrwt>
<pdfrwt beam="1">  1       -3 0.30991511E-02 0.93690565E+02</pdfrwt>
<totfact> 0.30307611E+04</totfact>
</mgrwt>
</event>
<event>
 4    1  0.6046470E+000  0.4035675E+02  0.7546771E-02  0.1505602E+00
         -3   -1    0    0    0  501 -0.00000000000E+00  0.00000000000E+00  0.11803911175E+03  0.11803911175E+03  0.00000000000E+00 0.  1.
          3   -1    0    0  501    0  0.00000000000E+00 -0.00000000000E+00 -0.34494226318E+01  0.34494226318E+01  0.00000000000E+00 0. -1.
        -13    1    1    2    0    0 -0.64853510287E+00  0.17027003931E+02  0.89832880839E+02  0.91434599252E+02  0.00000000000E+00 0.  1.
         13    1    1    2    0    0  0.64853510287E+00 -0.17027003931E+02  0.24756808284E+02  0.30053935134E+02  0.00000000000E+00 0. -1.
<mgrwt>
<rscale>  0 0.40356748E+02</rscale>
<asrwt>0</asrwt>
<pdfrwt beam="2">  1        3 0.53068050E-03 0.40356748E+02</pdfrwt>
<pdfrwt beam="1">  1       -3 0.18159860E-01 0.40356748E+02</pdfrwt>
<totfact> 0.26983294E+05</totfact>
</mgrwt>
</event>
<event>
 5    1  0.6046470E+000  0.9383674E+02  0.7546771E-02  0.1293818E+00
         -1   -1    0    0    0  501 -0.00000000000E+00  0.00000000000E+00  0.48833840429E+01  0.48833840429E+01  0.00000000000E+00 0.  1.
          1   -1    0    0  501    0  0.00000000000E+00 -0.00000000000E+00 -0.45078035586E+03  0.45078035586E+03  0.00000000000E+00 0. -1.
         23    2    1    2    0    0  0.00000000000E+00  0.00000000000E+00 -0.44589697182E+03  0.45566373991E+03  0.93836743265E+02 0.  0.
        -13    1    3    3    0    0 -0.42490312934E+02  0.19046009771E+02 -0.19498731664E+03  0.20047002477E+03  0.00000000000E+00 0. -1.
         13    1    3    3    0    0  0.42490312934E+02 -0.19046009771E+02 -0.25090965518E+03  0.25519371514E+03  0.00000000000E+00 0.  1.
<mgrwt>
<rscale>  0 0.93836743E+02</rscale>
<asrwt>0</asrwt>
<pdfrwt beam="2">  1        1 0.69350812E-01 0.93836743E+02</pdfrwt>
<pdfrwt beam="1">  1       -1 0.75128998E-03 0.93836743E+02</pdfrwt>
<totfact> 0.12728450E+05</totfact>
</mgrwt>
</event>
<event>
 5    1  0.6046470E+000  0.9165203E+02  0.7546771E-02  0.1298900E+00
          1   -1    0    0  501    0  0.00000000000E+00  0.00000000000E+00  0.14904020472E+02  0.14904020472E+02  0.00000000000E+00 0. -1.
         -1   -1    0    0    0  501 -0.00000000000E+00 -0.00000000000E+00 -0.14090316751E+03  0.14090316751E+03  0.00000000000E+00 0.  1.
         23    2    1    2    0    0  0.00000000000E+00  0.00000000000E+00 -0.12599914704E+03  0.15580718798E+03  0.91652030925E+02 0.  0.
        -13    1    3    3    0    0  0.24376888822E+02 -0.38437954053E+02 -0.72045460762E+02  0.85218879579E+02  0.00000000000E+00 0.  1.
         13    1    3    3    0    0 -0.24376888822E+02  0.38437954053E+02 -0.53953686274E+02  0.70588308401E+02  0.00000000000E+00 0. -1.
<mgrwt>
<rscale>  0 0.91652031E+02</rscale>
<asrwt>0</asrwt>
<pdfrwt beam="1">  1        1 0.22929262E-02 0.91652031E+02</pdfrwt>
<pdfrwt beam="2">  1       -1 0.21677410E-01 0.91652031E+02</pdfrwt>
<totfact> 0.74853566E+04</totfact>
</mgrwt>
</event>
<event>
 5    1  0.6046470E+000  0.8627386E+02  0.7546771E-02  0.1312134E+00
         -4   -1    0    0    0  501 -0.00000000000E+00  0.00000000000E+00  0.81972659991E+02  0.81972659991E+02  0.00000000000E+00 0.  1.
          4   -1    0    0  501    0  0.00000000000E+00 -0.00000000000E+00 -0.22700189748E+02  0.22700189748E+02  0.00000000000E+00 0. -1.
         23    2    1    2    0    0  0.00000000000E+00  0.00000000000E+00  0.59272470243E+02  0.10467284974E+03  0.86273864777E+02 0.  0.
        -13    1    3    3    0    0  0.12096239392E+02  0.23485787441E+02 -0.11737507330E+02  0.28907962527E+02  0.00000000000E+00 0. -1.
         13    1    3    3    0    0 -0.12096239392E+02 -0.23485787441E+02  0.71009977573E+02  0.75764887211E+02  0.00000000000E+00 0.  1.
<mgrwt>
<rscale>  0 0.86273865E+02</rscale>
<asrwt>0</asrwt>
<pdfrwt beam="2">  1        4 0.34923369E-02 0.86273865E+02</pdfrwt>
<pdfrwt beam="1">  1       -4 0.12611178E-01 0.86273865E+02</pdfrwt>
<totfact> 0.30372608E+04</totfact>
</mgrwt>
</event>
<event>
 4    1  0.6046470E+000  0.5408016E+02  0.7546771E-02  0.1424500E+00
          1   -1    0    0  501    0  0.00000000000E+00  0.00000000000E+00  0.59917542430E+02  0.59917542430E+02  0.00000000000E+00 0. -1.
         -1   -1    0    0    0  501 -0.00000000000E+00 -0.00000000000E+00 -0.12202870805E+02  0.12202870805E+02  0.00000000000E+00 0.  1.
        -13    1    1    2    0    0  0.19175871267E+02  0.13020351118E+02  0.52863803018E+01  0.23773712348E+02  0.00000000000E+00 0.  1.
         13    1    1    2    0    0 -0.19175871267E+02 -0.13020351118E+02  0.42428291323E+02  0.48346700887E+02  0.00000000000E+00 0. -1.
<mgrwt>
<rscale>  0 0.54080164E+02</rscale>
<asrwt>0</asrwt>
<pdfrwt beam="1">  1        1 0.92180833E-02 0.54080164E+02</pdfrwt>
<pdfrwt beam="2">  1       -1 0.18773648E-02 0.54080164E+02</pdfrwt>
<totfact> 0.38859943E+05</totfact>
</mgrwt>
</event>
<event>
 5    1  0.6046470E+000  0.9147681E+02  0.7546771E-02  0.1299314E+00
         -2   -1    0    0    0  501 -0.00000000000E+00  0.00000000000E+00  0.63961089794E+02  0.63961089794E+02  0.00000000000E+00 0.  1.
          2   -1    0    0  501    0  0.00000000000E+00 -0.00000000000E+00 -0.32707409023E+02  0.32707409023E+02  0.00000000000E+00 0. -1.
         23    2    1    2    0    0  0.00000000000E+00  0.00000000000E+00  0.31253680771E+02  0.96668498817E+02  0.91476806359E+02 0.  0.
        -13    1    3    3    0    0  0.13959280089E+02  0.36569359759E+02  0.40630233107E+02  0.56418041583E+02  0.00000000000E+00 0.  1.
         13    1    3    3    0    0 -0.13959280089E+02 -0.36569359759E+02 -0.93765523360E+01  0.40250457233E+02  0.00000000000E+00 0. -1.
<mgrwt>
<rscale>  0 0.91476806E+02</rscale>
<asrwt>0</asrwt>
<pdfrwt beam="2">  1        2 0.50319091E-02 0.91476806E+02</pdfrwt>
<pdfrwt beam="1">  1       -2 0.98401676E-02 0.91476806E+02</pdfrwt>
<totfact> 0.89642939E+04</totfact>
</mgrwt>
</event>
<event>
 5    1  0.6046470E+000  0.9074509E+02  0.7546771E-02  0.1301057E+00
         -2   -1    0    0    0  501 -0.00000000000E+00  0.00000000000E+00  0.27866414233E+03  0.27866414233E+03  0.00000000000E+00 0.  1.
          2   -1    0    0  501    0  0.00000000000E+00 -0.00000000000E+00 -0.73876301876E+01  0.73876301876E+01  0.00000000000E+00 0. -1.
         23    2    1    2    0    0  0.00000000000E+00  0.00000000000E+00  0.27127651214E+03  0.28605177252E+03  0.90745085378E+02 0.  0.
        -13    1    3    3    0    0 -0.25967152397E+02  0.37184126109E+02  0.13150965218E+03  0.13911053466E+03  0.00000000000E+00 0. -1.
         13    1    3    3    0    0  0.25967152397E+02 -0.37184126109E+02  0.13976685997E+03  0.14694123786E+03  0.00000000000E+00 0.  1.
<mgrwt>
<rscale>  0 0.90745085E+02</rscale>
<asrwt>0</asrwt>
<pdfrwt beam="2">  1        2 0.11365587E-02 0.90745085E+02</pdfrwt>
<pdfrwt beam="1">  1       -2 0.42871399E-01 0.90745085E+02</pdfrwt>
<totfact> 0.53761466E+04</totfact>
</mgrwt>
</event>
<event>
 5    1  0.6046470E+000  0.9209819E+02  0.7546771E-02  0.1297849E+00
          1   -1    0    0  501    0  0.00000000000E+00  0.00000000000E+00  0.32270336074E+03  0.32270336074E+03  0.00000000000E+00 0. -1.
         -1   -1    0    0    0  501 -0.00000000000E+00 -0.00000000000E+00 -0.65711089401E+01  0.65711089401E+01  0.00000000000E+00 0.  1.
         23    2    1    2    0    0  0.00000000000E+00  0.00000000000E+00  0.31613225180E+03  0.32927446968E+03  0.92098185406E+02 0.  0.
        -13    1    3    3    0    0 -0.41587774784E+02  0.11659292126E+02  0.10096976353E+03  0.10981973981E+03  0.00000000000E+00 0.  1.
         13    1    3    3    0    0  0.41587774784E+02 -0.11659292126E+02  0.21516248827E+03  0.21945472988E+03  0.00000000000E+00 0. -1.
<mgrwt>
<rscale>  0 0.92098185E+02</rscale>
<asrwt>0</asrwt>
<pdfrwt beam="1">  1        1 0.49646658E-01 0.92098185E+02</pdfrwt>
<pdfrwt beam="2">  1       -1 0.10109401E-02 0.92098185E+02</pdfrwt>
<totfact> 0.12646039E+05</totfact>
</mgrwt>
</event>
<event>
 5    1  0.6046470E+000  0.9443498E+02  0.7546771E-02  0.1292454E+00
         -2   -1    0    0    0  501 -0.00000000000E+00  0.00000000000E+00  0.75436869643E+02  0.75436869643E+02  0.00000000000E+00 0.  1.
          2   -1    0    0  501    0  0.00000000000E+00 -0.00000000000E+00 -0.29554399643E+02  0.29554399643E+02  0.00000000000E+00 0. -1.
         23    2    1    2    0    0  0.00000000000E+00  0.00000000000E+00  0.45882470000E+02  0.10499126929E+03  0.94434980664E+02 0.  0.
        -13    1    3    3    0    0  0.22743790943E+02 -0.23241327310E+02  0.61003422456E+02  0.69129276526E+02  0.00000000000E+00 0.  1.
         13    1    3    3    0    0 -0.22743790943E+02  0.23241327310E+02 -0.15120952456E+02  0.35861992761E+02  0.00000000000E+00 0. -1.
<mgrwt>
<rscale>  0 0.94434981E+02</rscale>
<asrwt>0</asrwt>
<pdfrwt beam="2">  1        2 0.45468307E-02 0.94434981E+02</pdfrwt>
<pdfrwt beam="1">  1       -2 0.11605672E-01 0.94434981E+02</pdfrwt>
<totfact> 0.79338168E+04</totfact>
</mgrwt>
</event>
<event>
 5    1  0.6046470E+000  0.9323892E+02  0.7546771E-02  0.1295192E+00
         -1   -1    0    0    0  501 -0.00000000000E+00  0.00000000000E+00  0.12520864794E+02  0.12520864794E+02  0.00000000000E+00 0.  1.
          1   -1    0    0  501    0  0.00000000000E+00 -0.00000000000E+00 -0.17358020143E+03  0.17358020143E+03  0.00000000000E+00 0. -1.
         23    2    1    2    0    0  0.00000000000E+00  0.00000000000E+00 -0.16105933664E+03  0.18610106622E+03  0.93238923909E+02 0.  0.
        -13    1    3    3    0    0  0.31486140557E+01 -0.38257643988E+02 -0.27728606671E+02  0.47354373841E+02  0.00000000000E+00 0.  1.
         13    1    3    3    0    0 -0.31486140557E+01  0.38257643988E+02 -0.13333072996E+03  0.13874669238E+03  0.00000000000E+00 0. -1.
<mgrwt>
<rscale>  0 0.93238924E+02</rscale>
<asrwt>0</asrwt>
<pdfrwt beam="2">  1        1 0.26704646E-01 0.93238924E+02</pdfrwt>
<pdfrwt beam="1">  1       -1 0.19262869E-02 0.93238924E+02</pdfrwt>
<totfact> 0.10848877E+05</totfact>
</mgrwt>
</event>
<event>
 5    1  0.6046470E+000  0.9024127E+02  0.7546771E-02  0.1302268E+00
          2   -1    0    0  501    0  0.00000000000E+00  0.00000000000E+00  0.10717256451E+03  0.10717256451E+03  0.00000000000E+00 0. -1.
         -2   -1    0    0    0  501 -0.00000000000E+00 -0.00000000000E+00 -0.18996203198E+02  0.18996203198E+02  0.00000000000E+00 0.  1.
         23    2    1    2    0    0  0.00000000000E+00  0.00000000000E+00  0.88176361311E+02  0.12616876771E+03  0.90241272435E+02 0.  0.
        -13    1    3    3    0    0 -0.23655048247E+02  0.32623669277E+02  0.15709069149E+02  0.43250895461E+02  0.00000000000E+00 0.  1.
         13    1    3    3    0    0  0.23655048247E+02 -0.32623669277E+02  0.72467292162E+02  0.82917872247E+02  0.00000000000E+00 0. -1.
<mgrwt>
<rscale>  0 0.90241272E+02</rscale>
<asrwt>0</asrwt>
<pdfrwt beam="1">  1        2 0.16488086E-01 0.90241272E+02</pdfrwt>
<pdfrwt beam="2">  1       -2 0.29224929E-02 0.90241272E+02</pdfrwt>
<totfact> 0.12891155E+05</totfact>
</mgrwt>
</event>
<event>
 5    1  0.6046470E+000  0.9338615E+02  0.7546771E-02  0.1294853E+00
         -3   -1    0    0    0  501 -0.00000000000E+00  0.00000000000E+00  0.10467283524E+02  0.10467283524E+02  0.00000000000E+00 0.  1.
          3   -1    0    0  501    0  0.00000000000E+00 -0.00000000000E+00 -0.20829120920E+03  0.20829120920E+03  0.00000000000E+00 0. -1.
         23    2    1    2    0    0  0.00000000000E+00  0.00000000000E+00 -0.19782392568E+03  0.21875849273E+03  0.93386147630E+02 0.  0.
        -13    1    3    3    0    0  0.42465700395E+02 -0.53371420186E+01 -0.55186394484E+02  0.69838090832E+02  0.00000000000E+00 0.  1.
         13    1    3    3    0    0 -0.42465700395E+02  0.53371420186E+01 -0.14263753120E+03  0.14892040190E+03  0.00000000000E+00 0. -1.
<mgrwt>
<rscale>  0 0.93386148E+02</rscale>
<asrwt>0</asrwt>
<pdfrwt beam="2">  1        3 0.32044799E-01 0.93386148E+02</pdfrwt>
<pdfrwt beam="1">  1       -3 0.16103514E-02 0.93386148E+02</pdfrwt>
<totfact> 0.25830489E+04</totfact>
</mgrwt>
</event>
<event>
 4    1  0.6046470E+000  0.5360120E+02  0.7546771E-02  0.1426832E+00
          3   -1    0    0  501    0  0.00000000000E+00  0.00000000000E+00  0.10813737783E+03  0.10813737783E+03  0.00000000000E+00 0. -1.
         -3   -1    0    0    0  501 -0.00000000000E+00 -0.00000000000E+00 -0.66422191007E+01  0.66422191007E+01  0.00000000000E+00 0.  1.
        -13    1    1    2    0    0  0.16028324962E+02 -0.11545808253E+02  0.89532806498E+02  0.91686074890E+02  0.00000000000E+00 0.  1.
         13    1    1    2    0    0 -0.16028324962E+02  0.11545808253E+02  0.11962352230E+02  0.23093522040E+02  0.00000000000E+00 0. -1.
<mgrwt>
<rscale>  0 0.53601200E+02</rscale>
<asrwt>0</asrwt>
<pdfrwt beam="1">  1        3 0.16636518E-01 0.53601200E+02</pdfrwt>
<pdfrwt beam="2">  1       -3 0.10218799E-02 0.53601200E+02</pdfrwt>
<totfact> 0.13550160E+05</totfact>
</mgrwt>
</event>
<event>
 5    1  0.6046470E+000  0.8749928E+02  0.7546771E-02  0.1309023E+00
         -1   -1    0    0    0  501 -0.00000000000E+00  0.00000000000E+00  0.39263298716E+02  0.39263298716E+02  0.00000000000E+00 0.  1.
          1   -1    0    0  501    0  0.00000000000E+00 -0.00000000000E+00 -0.48748609468E+02  0.48748609468E+02  0.00000000000E+00 0. -1.
         23    2    1    2    0    0  0.00000000000E+00  0.00000000000E+00 -0.94853107519E+01  0.88011908184E+02  0.87499284924E+02 0.  0.
        -13    1    3    3    0    0  0.26782587240E+02 -0.25996867428E+01  0.29955324035E+02  0.40266447428E+02  0.00000000000E+00 0.  1.
         13    1    3    3    0    0 -0.26782587240E+02  0.25996867428E+01 -0.39440634787E+02  0.47745460756E+02  0.00000000000E+00 0. -1.
<mgrwt>
<rscale>  0 0.87499285E+02</rscale>
<asrwt>0</asrwt>
<pdfrwt beam="2">  1        1 0.74997861E-02 0.87499285E+02</pdfrwt>
<pdfrwt beam="1">  1       -1 0.60405075E-02 0.87499285E+02</pdfrwt>
<totfact> 0.10476363E+05</totfact>
</mgrwt>
</event>
<event>
 5    1  0.6046470E+000  0.8685852E+02  0.7546771E-02  0.1310643E+00
          3   -1    0    0  501    0  0.00000000000E+00  0.00000000000E+00  0.17994595577E+02  0.17994595577E+02  0.00000000000E+00 0. -1.
         -3   -1    0    0    0  501 -0.00000000000E+00 -0.00000000000E+00 -0.10481484088E+03  0.10481484088E+03  0.00000000000E+00 0.  1.
         23    2    1    2    0    0  0.00000000000E+00  0.00000000000E+00 -0.86820245301E+02  0.12280943645E+03  0.86858521102E+02 0.  0.
        -13    1    3    3    0    0 -0.22276113112E+02  0.27554558532E+02 -0.79039562314E+01  0.36303600860E+02  0.00000000000E+00 0. -1.
         13    1    3    3    0    0  0.22276113112E+02 -0.27554558532E+02 -0.78916289070E+02  0.86505835594E+02  0.00000000000E+00 0.  1.
<mgrwt>
<rscale>  0 0.86858521E+02</rscale>
<asrwt>0</asrwt>
<pdfrwt beam="1">  1        3 0.27683993E-02 0.86858521E+02</pdfrwt>
<pdfrwt beam="2">  1       -3 0.16125360E-01 0.86858521E+02</pdfrwt>
<totfact> 0.37690111E+04</totfact>
</mgrwt>
</event>
<event>
 5    1  0.6046470E+000  0.9222608E+02  0.7546771E-02  0.1297549E+00
         -2   -1    0    0    0  501 -0.00000000000E+00  0.00000000000E+00  0.10119867471E+03  0.10119867471E+03  0.00000000000E+00 0.  1.
          2   -1    0    0  501    0  0.00000000000E+00 -0.00000000000E+00 -0.21012256686E+02  0.21012256686E+02  0.00000000000E+00 0. -1.
         23    2    1    2    0    0  0.00000000000E+00  0.00000000000E+00  0.80186418020E+02  0.12221093139E+03  0.92226081544E+02 0.  0.
        -13    1    3    3    0    0 -0.41265216564E+02 -0.20281669866E+02  0.35455599481E+02  0.58062584899E+02  0.00000000000E+00 0.  1.
         13    1    3    3    0    0  0.41265216564E+02  0.20281669866E+02  0.44730818539E+02  0.64148346493E+02  0.00000000000E+00 0. -1.
<mgrwt>
<rscale>  0 0.92226082E+02</rscale>
<asrwt>0</asrwt>
<pdfrwt beam="2">  1        2 0.32326549E-02 0.92226082E+02</pdfrwt>
<pdfrwt beam="1">  1       -2 0.15569027E-01 0.92226082E+02</pdfrwt>
<totfact> 0.77286781E+04</totfact>
</mgrwt>
</event>
<event>
 5    1  0.6046470E+000  0.8912905E+02  0.7546771E-02  0.1304975E+00
          2   -1    0    0  501    0  0.00000000000E+00  0.00000000000E+00  0.45944912475E+02  0.45944912475E+02  0.00000000000E+00 0. -1.
         -2   -1    0    0    0  501 -0.00000000000E+00 -0.00000000000E+00 -0.43225613830E+02  0.43225613830E+02  0.00000000000E+00 0.  1.
         23    2    1    2    0    0  0.00000000000E+00  0.00000000000E+00  0.27192986447E+01  0.89170526305E+02  0.89129053492E+02 0.  0.
        -13    1    3    3    0    0 -0.39012897274E+02 -0.15042826277E+01 -0.20138206833E+02  0.43929675555E+02  0.00000000000E+00 0.  1.
         13    1    3    3    0    0  0.39012897274E+02  0.15042826277E+01  0.22857505477E+02  0.45240850750E+02  0.00000000000E+00 0. -1.
<mgrwt>
<rscale>  0 0.89129053E+02</rscale>
<asrwt>0</asrwt>
<pdfrwt beam="1">  1        2 0.70684481E-02 0.89129053E+02</pdfrwt>
<pdfrwt beam="2">  1       -2 0.66500944E-02 0.89129053E+02</pdfrwt>
<totfact> 0.10550948E+05</totfact>
</mgrwt>
</event>
<event>
 4    1  0.6046470E+000  0.3122157E+02  0.7546771E-02  0.1584965E+00
          1   -1    0    0  501    0  0.00000000000E+00  0.00000000000E+00  0.48197446068E+01  0.48197446068E+01  0.00000000000E+00 0. -1.
         -1   -1    0    0    0  501 -0.00000000000E+00 -0.00000000000E+00 -0.50562143719E+02  0.50562143719E+02  0.00000000000E+00 0.  1.
        -13    1    1    2    0    0 -0.10825438121E+02 -0.48824068014E+01 -0.48977325571E+01  0.12845847223E+02  0.00000000000E+00 0. -1.
         13    1    1    2    0    0  0.10825438121E+02  0.48824068014E+01 -0.40844666555E+02  0.42536041102E+02  0.00000000000E+00 0.  1.
<mgrwt>
<rscale>  0 0.31221571E+02</rscale>
<asrwt>0</asrwt>
<pdfrwt beam="1">  1        1 0.74149914E-03 0.31221571E+02</pdfrwt>
<pdfrwt beam="2">  1       -1 0.77787916E-02 0.31221571E+02</pdfrwt>
<totfact> 0.12666097E+06</totfact>
</mgrwt>
</event>
<event>
 5    1  0.6046470E+000  0.8884428E+02  0.7546771E-02  0.1305675E+00
          4   -1    0    0  501    0  0.00000000000E+00  0.00000000000E+00  0.80150545046E+01  0.80150545046E+01  0.00000000000E+00 0. -1.
         -4   -1    0    0    0  501 -0.00000000000E+00 -0.00000000000E+00 -0.24620248749E+03  0.24620248749E+03  0.00000000000E+00 0.  1.
         23    2    1    2    0    0  0.00000000000E+00  0.00000000000E+00 -0.23818743298E+03  0.25421754199E+03  0.88844276268E+02 0.  0.
        -13    1    3    3    0    0  0.33407599255E+02  0.58976539385E+01 -0.37032534188E+02  0.50222092732E+02  0.00000000000E+00 0. -1.
         13    1    3    3    0    0 -0.33407599255E+02 -0.58976539385E+01 -0.20115489879E+03  0.20399544926E+03  0.00000000000E+00 0.  1.
<mgrwt>
<rscale>  0 0.88844276E+02</rscale>
<asrwt>0</asrwt>
<pdfrwt beam="1">  1        4 0.12330854E-02 0.88844276E+02</pdfrwt>
<pdfrwt beam="2">  1       -4 0.37877303E-01 0.88844276E+02</pdfrwt>
<totfact> 0.20691886E+04</totfact>
</mgrwt>
</event>
<event>
 5    1  0.6046470E+000  0.9435651E+02  0.7546771E-02  0.1292632E+00
          1   -1    0    0  501    0  0.00000000000E+00  0.00000000000E+00  0.10333211748E+03  0.10333211748E+03  0.00000000000E+00 0. -1.
         -1   -1    0    0    0  501 -0.00000000000E+00 -0.00000000000E+00 -0.21540133563E+02  0.21540133563E+02  0.00000000000E+00 0.  1.
         23    2    1    2    0    0  0.00000000000E+00  0.00000000000E+00  0.81791983921E+02  0.12487225105E+03  0.94356507184E+02 0.  0.
        -13    1    3    3    0    0 -0.24172927276E+02  0.10454329459E+02  0.92698017193E+02  0.96366725632E+02  0.00000000000E+00 0. -1.
         13    1    3    3    0    0  0.24172927276E+02 -0.10454329459E+02 -0.10906033272E+02  0.28505525416E+02  0.00000000000E+00 0.  1.
<mgrwt>
<rscale>  0 0.94356507E+02</rscale>
<asrwt>0</asrwt>
<pdfrwt beam="1">  1        1 0.15897249E-01 0.94356507E+02</pdfrwt>
<pdfrwt beam="2">  1       -1 0.33138668E-02 0.94356507E+02</pdfrwt>
<totfact> 0.95636067E+04</totfact>
</mgrwt>
</event>
<event>
 5    1  0.6046470E+000  0.8746504E+02  0.7546771E-02  0.1309109E+00
          1   -1    0    0  501    0  0.00000000000E+00  0.00000000000E+00  0.57853112322E+02  0.57853112322E+02  0.00000000000E+00 0. -1.
         -1   -1    0    0    0  501 -0.00000000000E+00 -0.00000000000E+00 -0.33058430586E+02  0.33058430586E+02  0.00000000000E+00 0.  1.
         23    2    1    2    0    0  0.00000000000E+00  0.00000000000E+00  0.24794681735E+02  0.90911542908E+02  0.87465035252E+02 0.  0.
        -13    1    3    3    0    0 -0.12322850319E+02  0.11922254700E+02 -0.29419027390E+02  0.34051020098E+02  0.00000000000E+00 0.  1.
         13    1    3    3    0    0  0.12322850319E+02 -0.11922254700E+02  0.54213709125E+02  0.56860522810E+02  0.00000000000E+00 0. -1.
<mgrwt>
<rscale>  0 0.87465035E+02</rscale>
<asrwt>0</asrwt>
<pdfrwt beam="1">  1        1 0.89004788E-02 0.87465035E+02</pdfrwt>
<pdfrwt beam="2">  1       -1 0.50859124E-02 0.87465035E+02</pdfrwt>
<totfact> 0.10752188E+05</totfact>
</mgrwt>
</event>
<event>
 5    1  0.6046470E+000  0.9208520E+02  0.7546771E-02  0.1297879E+00
          1   -1    0    0  501    0  0.00000000000E+00  0.00000000000E+00  0.89322604743E+01  0.89322604743E+01  0.00000000000E+00 0. -1.
         -1   -1    0    0    0  501 -0.00000000000E+00 -0.00000000000E+00 -0.23733308075E+03  0.23733308075E+03  0.00000000000E+00 0.  1.
         23    2    1    2    0    0  0.00000000000E+00  0.00000000000E+00 -0.22840082027E+03  0.24626534122E+03  0.92085197430E+02 0.  0.
        -13    1    3    3    0    0  0.23284167273E+02  0.26934529642E+02 -0.19227498070E+03  0.19554357452E+03  0.00000000000E+00 0.  1.
         13    1    3    3    0    0 -0.23284167273E+02 -0.26934529642E+02 -0.36125839577E+02  0.50721766706E+02  0.00000000000E+00 0. -1.
<mgrwt>
<rscale>  0 0.92085197E+02</rscale>
<asrwt>0</asrwt>
<pdfrwt beam="1">  1        1 0.13741936E-02 0.92085197E+02</pdfrwt>
<pdfrwt beam="2">  1       -1 0.36512789E-01 0.92085197E+02</pdfrwt>
<totfact> 0.64208116E+04</totfact>
</mgrwt>
</event>
<event>
 5    1  0.6046470E+000  0.9132884E+02  0.7546771E-02  0.1299665E+00
          1   -1    0    0  501    0  0.00000000000E+00  0.00000000000E+00  0.14172276493E+02  0.14172276493E+02  0.00000000000E+00 0. -1.
         -1   -1    0    0    0  501 -0.00000000000E+00 -0.00000000000E+00 -0.14713509530E+03  0.14713509530E+03  0.00000000000E+00 0.  1.
         23    2    1    2    0    0  0.00000000000E+00  0.00000000000E+00 -0.13296281880E+03  0.16130737179E+03  0.91328839966E+02 0.  0.
        -13    1    3    3    0    0  0.20650341101E+02  0.33837428346E+02 -0.26444875651E+02  0.47652277939E+02  0.00000000000E+00 0. -1.
         13    1    3    3    0    0 -0.20650341101E+02 -0.33837428346E+02 -0.10651794315E+03  0.11365509385E+03  0.00000000000E+00 0.  1.
<mgrwt>
<rscale>  0 0.91328840E+02</rscale>
<asrwt>0</asrwt>
<pdfrwt beam="1">  1        1 0.21803502E-02 0.91328840E+02</pdfrwt>
<pdfrwt beam="2">  1       -1 0.22636169E-01 0.91328840E+02</pdfrwt>
<totfact> 0.74800555E+04</totfact>
</mgrwt>
</event>
<event>
 5    1  0.6046470E+000  0.8667301E+02  0.7546771E-02  0.1311115E+00
          2   -1    0    0  501    0  0.00000000000E+00  0.00000000000E+00  0.49745725939E+02  0.49745725939E+02  0.00000000000E+00 0. -1.
         -2   -1    0    0    0  501 -0.00000000000E+00 -0.00000000000E+00 -0.37753047658E+02  0.37753047658E+02  0.00000000000E+00 0.  1.
         23    2    1    2    0    0  0.00000000000E+00  0.00000000000E+00  0.11992678281E+02  0.87498773597E+02  0.86673012228E+02 0.  0.
        -13    1    3    3    0    0 -0.10755954967E+02 -0.37920225696E+02 -0.12186889545E+02  0.41257173448E+02  0.00000000000E+00 0.  1.
         13    1    3    3    0    0  0.10755954967E+02  0.37920225696E+02  0.24179567826E+02  0.46241600149E+02  0.00000000000E+00 0. -1.
<mgrwt>
<rscale>  0 0.86673012E+02</rscale>
<asrwt>0</asrwt>
<pdfrwt beam="1">  1        2 0.76531886E-02 0.86673012E+02</pdfrwt>
<pdfrwt beam="2">  1       -2 0.58081612E-02 0.86673012E+02</pdfrwt>
<totfact> 0.11654161E+05</totfact>
</mgrwt>
</event>
<event>
 5    1  0.6046470E+000  0.8441618E+02  0.7546771E-02  0.1316966E+00
         -1   -1    0    0    0  501 -0.00000000000E+00  0.00000000000E+00  0.21797265881E+02  0.21797265881E+02  0.00000000000E+00 0.  1.
          1   -1    0    0  501    0  0.00000000000E+00 -0.00000000000E+00 -0.81731476510E+02  0.81731476510E+02  0.00000000000E+00 0. -1.
         23    2    1    2    0    0  0.00000000000E+00  0.00000000000E+00 -0.59934210629E+02  0.10352874239E+03  0.84416176752E+02 0.  0.
        -13    1    3    3    0    0 -0.11889033548E+02 -0.27666471914E+02  0.63051648286E+01  0.30765855918E+02  0.00000000000E+00 0.  1.
         13    1    3    3    0    0  0.11889033548E+02  0.27666471914E+02 -0.66239375458E+02  0.72762886473E+02  0.00000000000E+00 0. -1.
<mgrwt>
<rscale>  0 0.84416177E+02</rscale>
<asrwt>0</asrwt>
<pdfrwt beam="2">  1        1 0.12574073E-01 0.84416177E+02</pdfrwt>
<pdfrwt beam="1">  1       -1 0.33534255E-02 0.84416177E+02</pdfrwt>
<totfact> 0.12471507E+05</totfact>
</mgrwt>
</event>
<event>
 5    1  0.6046470E+000  0.9237491E+02  0.7546771E-02  0.1297200E+00
         -1   -1    0    0    0  501 -0.00000000000E+00  0.00000000000E+00  0.22405565519E+02  0.22405565519E+02  0.00000000000E+00 0.  1.
          1   -1    0    0  501    0  0.00000000000E+00 -0.00000000000E+00 -0.95212111349E+02  0.95212111349E+02  0.00000000000E+00 0. -1.
         23    2    1    2    0    0  0.00000000000E+00  0.00000000000E+00 -0.72806545830E+02  0.11761767687E+03  0.92374914322E+02 0.  0.
        -13    1    3    3    0    0  0.35363753821E+02  0.96623405131E+01 -0.72175547657E+02  0.80952242638E+02  0.00000000000E+00 0. -1.
         13    1    3    3    0    0 -0.35363753821E+02 -0.96623405131E+01 -0.63099817258E+00  0.36665434229E+02  0.00000000000E+00 0.  1.
<mgrwt>
<rscale>  0 0.92374914E+02</rscale>
<asrwt>0</asrwt>
<pdfrwt beam="2">  1        1 0.14648017E-01 0.92374914E+02</pdfrwt>
<pdfrwt beam="1">  1       -1 0.34470101E-02 0.92374914E+02</pdfrwt>
<totfact> 0.99974360E+04</totfact>
</mgrwt>
</event>
<event>
 5    1  0.6046470E+000  0.9177912E+02  0.7546771E-02  0.1298600E+00
          2   -1    0    0  501    0  0.00000000000E+00  0.00000000000E+00  0.16274012519E+03  0.16274012519E+03  0.00000000000E+00 0. -1.
         -2   -1    0    0    0  501 -0.00000000000E+00 -0.00000000000E+00 -0.12939966390E+02  0.12939966390E+02  0.00000000000E+00 0.  1.
         23    2    1    2    0    0  0.00000000000E+00  0.00000000000E+00  0.14980015880E+03  0.17568009158E+03  0.91779120723E+02 0.  0.
        -13    1    3    3    0    0 -0.42879008353E+02  0.59555069864E+01  0.45758618279E+02  0.62991495994E+02  0.00000000000E+00 0.  1.
         13    1    3    3    0    0  0.42879008353E+02 -0.59555069864E+01  0.10404154052E+03  0.11268859558E+03  0.00000000000E+00 0. -1.
<mgrwt>
<rscale>  0 0.91779121E+02</rscale>
<asrwt>0</asrwt>
<pdfrwt beam="1">  1        2 0.25036941E-01 0.91779121E+02</pdfrwt>
<pdfrwt beam="2">  1       -2 0.19907642E-02 0.91779121E+02</pdfrwt>
<totfact> 0.14123474E+05</totfact>
</mgrwt>
</event>
<event>
 5    1  0.6046470E+000  0.9209893E+02  0.7546771E-02  0.1297847E+00
         -1   -1    0    0    0  501 -0.00000000000E+00  0.00000000000E+00  0.45141893949E+02  0.45141893949E+02  0.00000000000E+00 0.  1.
          1   -1    0    0  501    0  0.00000000000E+00 -0.00000000000E+00 -0.46975283304E+02  0.46975283304E+02  0.00000000000E+00 0. -1.
         23    2    1    2    0    0  0.00000000000E+00  0.00000000000E+00 -0.18333893551E+01  0.92117177254E+02  0.92098930660E+02 0.  0.
        -13    1    3    3    0    0  0.24917220768E+02 -0.17820019165E+02  0.33472267747E+02  0.45374152135E+02  0.00000000000E+00 0.  1.
         13    1    3    3    0    0 -0.24917220768E+02  0.17820019165E+02 -0.35305657102E+02  0.46743025119E+02  0.00000000000E+00 0. -1.
<mgrwt>
<rscale>  0 0.92098931E+02</rscale>
<asrwt>0</asrwt>
<pdfrwt beam="2">  1        1 0.72269666E-02 0.92098931E+02</pdfrwt>
<pdfrwt beam="1">  1       -1 0.69449068E-02 0.92098931E+02</pdfrwt>
<totfact> 0.90301673E+04</totfact>
</mgrwt>
</event>
<event>
 5    1  0.6046470E+000  0.9278898E+02  0.7546771E-02  0.1296235E+00
          2   -1    0    0  501    0  0.00000000000E+00  0.00000000000E+00  0.87638593537E+02  0.87638593537E+02  0.00000000000E+00 0. -1.
         -2   -1    0    0    0  501 -0.00000000000E+00 -0.00000000000E+00 -0.24560511775E+02  0.24560511775E+02  0.00000000000E+00 0.  1.
         23    2    1    2    0    0  0.00000000000E+00  0.00000000000E+00  0.63078081762E+02  0.11219910531E+03  0.92788980133E+02 0.  0.
        -13    1    3    3    0    0  0.13095626447E+02  0.44485039387E+02  0.29814288021E+02  0.55129900522E+02  0.00000000000E+00 0.  1.
         13    1    3    3    0    0 -0.13095626447E+02 -0.44485039387E+02  0.33263793741E+02  0.57069204790E+02  0.00000000000E+00 0. -1.
<mgrwt>
<rscale>  0 0.92788980E+02</rscale>
<asrwt>0</asrwt>
<pdfrwt beam="1">  1        2 0.13482860E-01 0.92788980E+02</pdfrwt>
<pdfrwt beam="2">  1       -2 0.37785403E-02 0.92788980E+02</pdfrwt>
<totfact> 0.11233376E+05</totfact>
</mgrwt>
</event>
<event>
 5    1  0.6046470E+000  0.8923944E+02  0.7546771E-02  0.1304704E+00
         -2   -1    0    0    0  501 -0.00000000000E+00  0.00000000000E+00  0.23136653108E+03  0.23136653108E+03  0.00000000000E+00 0.  1.
          2   -1    0    0  501    0  0.00000000000E+00 -0.00000000000E+00 -0.86050449701E+01  0.86050449701E+01  0.00000000000E+00 0. -1.
         23    2    1    2    0    0  0.00000000000E+00  0.00000000000E+00  0.22276148611E+03  0.23997157605E+03  0.89239439813E+02 0.  0.
        -13    1    3    3    0    0  0.38640128224E+02 -0.15701768319E+02  0.68751106813E+02  0.80413430007E+02  0.00000000000E+00 0. -1.
         13    1    3    3    0    0 -0.38640128224E+02  0.15701768319E+02  0.15401037930E+03  0.15955814605E+03  0.00000000000E+00 0.  1.
<mgrwt>
<rscale>  0 0.89239440E+02</rscale>
<asrwt>0</asrwt>
<pdfrwt beam="2">  1        2 0.13238533E-02 0.89239440E+02</pdfrwt>
<pdfrwt beam="1">  1       -2 0.35594846E-01 0.89239440E+02</pdfrwt>
<totfact> 0.61632374E+04</totfact>
</mgrwt>
</event>
<event>
 5    1  0.6046470E+000  0.9124556E+02  0.7546771E-02  0.1299863E+00
         -1   -1    0    0    0  501 -0.00000000000E+00  0.00000000000E+00  0.75905378308E+02  0.75905378308E+02  0.00000000000E+00 0.  1.
          1   -1    0    0  501    0  0.00000000000E+00 -0.00000000000E+00 -0.27421481459E+02  0.27421481459E+02  0.00000000000E+00 0. -1.
         23    2    1    2    0    0  0.00000000000E+00  0.00000000000E+00  0.48483896849E+02  0.10332685977E+03  0.91245557129E+02 0.  0.
        -13    1    3    3    0    0 -0.86600766017E+01  0.16201560475E+02 -0.23047970827E+02  0.29473656845E+02  0.00000000000E+00 0. -1.
         13    1    3    3    0    0  0.86600766017E+01 -0.16201560475E+02  0.71531867677E+02  0.73853202922E+02  0.00000000000E+00 0.  1.
<mgrwt>
<rscale>  0 0.91245557E+02</rscale>
<asrwt>0</asrwt>
<pdfrwt beam="2">  1        1 0.42186895E-02 0.91245557E+02</pdfrwt>
<pdfrwt beam="1">  1       -1 0.11677750E-01 0.91245557E+02</pdfrwt>
<totfact> 0.85234514E+04</totfact>
</mgrwt>
</event>
<event>
 5    1  0.6046470E+000  0.8920935E+02  0.7546771E-02  0.1304778E+00
          3   -1    0    0  501    0  0.00000000000E+00  0.00000000000E+00  0.97339281512E+02  0.97339281512E+02  0.00000000000E+00 0. -1.
         -3   -1    0    0    0  501 -0.00000000000E+00 -0.00000000000E+00 -0.20439612202E+02  0.20439612202E+02  0.00000000000E+00 0.  1.
         23    2    1    2    0    0  0.00000000000E+00  0.00000000000E+00  0.76899669310E+02  0.11777889371E+03  0.89209353011E+02 0.  0.
        -13    1    3    3    0    0 -0.62777022895E+01  0.35131552562E+02  0.73775950643E+02  0.81954416749E+02  0.00000000000E+00 0. -1.
         13    1    3    3    0    0  0.62777022895E+01 -0.35131552562E+02  0.31237186667E+01  0.35824476965E+02  0.00000000000E+00 0.  1.
<mgrwt>
<rscale>  0 0.89209353E+02</rscale>
<asrwt>0</asrwt>
<pdfrwt beam="1">  1        3 0.14975274E-01 0.89209353E+02</pdfrwt>
<pdfrwt beam="2">  1       -3 0.31445558E-02 0.89209353E+02</pdfrwt>
<totfact> 0.35432124E+04</totfact>
</mgrwt>
</event>
<event>
 5    1  0.6046470E+000  0.9182882E+02  0.7546771E-02  0.1298482E+00
         -2   -1    0    0    0  501 -0.00000000000E+00  0.00000000000E+00  0.77790524110E+01  0.77790524110E+01  0.00000000000E+00 0.  1.
          2   -1    0    0  501    0  0.00000000000E+00 -0.00000000000E+00 -0.27100129434E+03  0.27100129434E+03  0.00000000000E+00 0. -1.
         23    2    1    2    0    0  0.00000000000E+00  0.00000000000E+00 -0.26322224193E+03  0.27878034675E+03  0.91828824933E+02 0.  0.
        -13    1    3    3    0    0 -0.28754057174E+02  0.35597191085E+02 -0.14304206941E+03  0.15018318627E+03  0.00000000000E+00 0.  1.
         13    1    3    3    0    0  0.28754057174E+02 -0.35597191085E+02 -0.12018017252E+03  0.12859716048E+03  0.00000000000E+00 0. -1.
<mgrwt>
<rscale>  0 0.91828825E+02</rscale>
<asrwt>0</asrwt>
<pdfrwt beam="2">  1        2 0.41692509E-01 0.91828825E+02</pdfrwt>
<pdfrwt beam="1">  1       -2 0.11967772E-02 0.91828825E+02</pdfrwt>
<totfact> 0.16970784E+05</totfact>
</mgrwt>
</event>
<event>
 5    1  0.6046470E+000  0.9113988E+02  0.7546771E-02  0.1300115E+00
          3   -1    0    0  501    0  0.00000000000E+00  0.00000000000E+00  0.11244726058E+03  0.11244726058E+03  0.00000000000E+00 0. -1.
         -3   -1    0    0    0  501 -0.00000000000E+00 -0.00000000000E+00 -0.18467496595E+02  0.18467496595E+02  0.00000000000E+00 0.  1.
         23    2    1    2    0    0  0.00000000000E+00  0.00000000000E+00  0.93979763985E+02  0.13091475718E+03  0.91139879349E+02 0.  0.
        -13    1    3    3    0    0  0.35500459210E+02 -0.18109018787E+02  0.15245411455E+02  0.42668978615E+02  0.00000000000E+00 0. -1.
         13    1    3    3    0    0 -0.35500459210E+02  0.18109018787E+02  0.78734352529E+02  0.88245778561E+02  0.00000000000E+00 0.  1.
<mgrwt>
<rscale>  0 0.91139879E+02</rscale>
<asrwt>0</asrwt>
<pdfrwt beam="1">  1        3 0.17299578E-01 0.91139879E+02</pdfrwt>
<pdfrwt beam="2">  1       -3 0.28411534E-02 0.91139879E+02</pdfrwt>
<totfact> 0.32551595E+04</totfact>
</mgrwt>
</event>
<event>
 5    1  0.6046470E+000  0.9207454E+02  0.7546771E-02  0.1297904E+00
          3   -1    0    0  501    0  0.00000000000E+00  0.00000000000E+00  0.39502498578E+02  0.39502498578E+02  0.00000000000E+00 0. -1.
         -3   -1    0    0    0  501 -0.00000000000E+00 -0.00000000000E+00 -0.53653062841E+02  0.53653062841E+02  0.00000000000E+00 0.  1.
         23    2    1    2    0    0  0.00000000000E+00  0.00000000000E+00 -0.14150564263E+02  0.93155561419E+02  0.92074535863E+02 0.  0.
        -13    1    3    3    0    0  0.70911388361E+01 -0.17343991286E+02 -0.49620536266E+02  0.53040511904E+02  0.00000000000E+00 0.  1.
         13    1    3    3    0    0 -0.70911388361E+01  0.17343991286E+02  0.35469972003E+02  0.40115049515E+02  0.00000000000E+00 0. -1.
<mgrwt>
<rscale>  0 0.92074536E+02</rscale>
<asrwt>0</asrwt>
<pdfrwt beam="1">  1        3 0.60773075E-02 0.92074536E+02</pdfrwt>
<pdfrwt beam="2">  1       -3 0.82543174E-02 0.92074536E+02</pdfrwt>
<totfact> 0.34259138E+04</totfact>
</mgrwt>
</event>
<event>
 5    1  0.6046470E+000  0.9269111E+02  0.7546771E-02  0.1296463E+00
          4   -1    0    0  501    0  0.00000000000E+00  0.00000000000E+00  0.23325745244E+02  0.23325745244E+02  0.00000000000E+00 0. -1.
         -4   -1    0    0    0  501 -0.00000000000E+00 -0.00000000000E+00 -0.92083258636E+02  0.92083258636E+02  0.00000000000E+00 0.  1.
         23    2    1    2    0    0  0.00000000000E+00  0.00000000000E+00 -0.68757513391E+02  0.11540900388E+03  0.92691113537E+02 0.  0.
        -13    1    3    3    0    0 -0.94819574025E+01 -0.34997703915E+02  0.15603103247E+01  0.36292993315E+02  0.00000000000E+00 0. -1.
         13    1    3    3    0    0  0.94819574025E+01  0.34997703915E+02 -0.70317823716E+02  0.79116010565E+02  0.00000000000E+00 0.  1.
<mgrwt>
<rscale>  0 0.92691114E+02</rscale>
<asrwt>0</asrwt>
<pdfrwt beam="1">  1        4 0.35885762E-02 0.92691114E+02</pdfrwt>
<pdfrwt beam="2">  1       -4 0.14166655E-01 0.92691114E+02</pdfrwt>
<totfact> 0.24420291E+04</totfact>
</mgrwt>
</event>
<event>
 5    1  0.6046470E+000  0.9054922E+02  0.7546771E-02  0.1301527E+00
          1   -1    0    0  501    0  0.00000000000E+00  0.00000000000E+00  0.11679199012E+02  0.11679199012E+02  0.00000000000E+00 0. -1.
         -1   -1    0    0    0  501 -0.00000000000E+00 -0.00000000000E+00 -0.17550776803E+03  0.17550776803E+03  0.00000000000E+00 0.  1.
         23    2    1    2    0    0  0.00000000000E+00  0.00000000000E+00 -0.16382856902E+03  0.18718696704E+03  0.90549216471E+02 0.  0.
        -13    1    3    3    0    0 -0.23626852089E+02  0.13955813117E+02 -0.74707545587E+01  0.28439497764E+02  0.00000000000E+00 0. -1.
         13    1    3    3    0    0  0.23626852089E+02 -0.13955813117E+02 -0.15635781446E+03  0.15874746927E+03  0.00000000000E+00 0.  1.
<mgrwt>
<rscale>  0 0.90549216E+02</rscale>
<asrwt>0</asrwt>
<pdfrwt beam="1">  1        1 0.17967999E-02 0.90549216E+02</pdfrwt>
<pdfrwt beam="2">  1       -1 0.27001195E-01 0.90549216E+02</pdfrwt>
<totfact> 0.73249150E+04</totfact>
</mgrwt>
</event>
<event>
 5    1  0.6046470E+000  0.9125763E+02  0.7546771E-02  0.1299834E+00
          2   -1    0    0  501    0  0.00000000000E+00  0.00000000000E+00  0.67352580516E+02  0.67352580516E+02  0.00000000000E+00 0. -1.
         -2   -1    0    0    0  501 -0.00000000000E+00 -0.00000000000E+00 -0.30911790697E+02  0.30911790697E+02  0.00000000000E+00 0.  1.
         23    2    1    2    0    0  0.00000000000E+00  0.00000000000E+00  0.36440789819E+02  0.98264371212E+02  0.91257632487E+02 0.  0.
        -13    1    3    3    0    0  0.21636653580E+02 -0.26466066337E+02 -0.14322437318E+02  0.37063859165E+02  0.00000000000E+00 0.  1.
         13    1    3    3    0    0 -0.21636653580E+02  0.26466066337E+02  0.50763227137E+02  0.61200512047E+02  0.00000000000E+00 0. -1.
<mgrwt>
<rscale>  0 0.91257632E+02</rscale>
<asrwt>0</asrwt>
<pdfrwt beam="1">  1        2 0.10361935E-01 0.91257632E+02</pdfrwt>
<pdfrwt beam="2">  1       -2 0.47556601E-02 0.91257632E+02</pdfrwt>
<totfact> 0.10917767E+05</totfact>
</mgrwt>
</event>
<event>
 5    1  0.6046470E+000  0.9086177E+02  0.7546771E-02  0.1300778E+00
          2   -1    0    0  501    0  0.00000000000E+00  0.00000000000E+00  0.27064507242E+03  0.27064507242E+03  0.00000000000E+00 0. -1.
         -2   -1    0    0    0  501 -0.00000000000E+00 -0.00000000000E+00 -0.76260960799E+01  0.76260960799E+01  0.00000000000E+00 0.  1.
         23    2    1    2    0    0  0.00000000000E+00  0.00000000000E+00  0.26301897634E+03  0.27827116850E+03  0.90861770307E+02 0.  0.
        -13    1    3    3    0    0 -0.29543768790E+02  0.31701038611E+02  0.89721839476E+02  0.99638339019E+02  0.00000000000E+00 0.  1.
         13    1    3    3    0    0  0.29543768790E+02 -0.31701038611E+02  0.17329713687E+03  0.17863282948E+03  0.00000000000E+00 0. -1.
<mgrwt>
<rscale>  0 0.90861770E+02</rscale>
<asrwt>0</asrwt>
<pdfrwt beam="1">  1        2 0.41637696E-01 0.90861770E+02</pdfrwt>
<pdfrwt beam="2">  1       -2 0.11732458E-02 0.90861770E+02</pdfrwt>
<totfact> 0.17449750E+05</totfact>
</mgrwt>
</event>
<event>
 5    1  0.6046470E+000  0.9235535E+02  0.7546771E-02  0.1297246E+00
          1   -1    0    0  501    0  0.00000000000E+00  0.00000000000E+00  0.28374366178E+02  0.28374366178E+02  0.00000000000E+00 0. -1.
         -1   -1    0    0    0  501 -0.00000000000E+00 -0.00000000000E+00 -0.75151558984E+02  0.75151558984E+02  0.00000000000E+00 0.  1.
         23    2    1    2    0    0  0.00000000000E+00  0.00000000000E+00 -0.46777192806E+02  0.10352592516E+03  0.92355354007E+02 0.  0.
        -13    1    3    3    0    0  0.15883511875E+02 -0.55035289487E+01  0.24822808946E+02  0.29979103128E+02  0.00000000000E+00 0. -1.
         13    1    3    3    0    0 -0.15883511875E+02  0.55035289487E+01 -0.71600001752E+02  0.73546822034E+02  0.00000000000E+00 0.  1.
<mgrwt>
<rscale>  0 0.92355354E+02</rscale>
<asrwt>0</asrwt>
<pdfrwt beam="1">  1        1 0.43652871E-02 0.92355354E+02</pdfrwt>
<pdfrwt beam="2">  1       -1 0.11561778E-01 0.92355354E+02</pdfrwt>
<totfact> 0.82775645E+04</totfact>
</mgrwt>
</event>
<event>
 5    1  0.6046470E+000  0.9113772E+02  0.7546771E-02  0.1300120E+00
          2   -1    0    0  501    0  0.00000000000E+00  0.00000000000E+00  0.61014624396E+02  0.61014624396E+02  0.00000000000E+00 0. -1.
         -2   -1    0    0    0  501 -0.00000000000E+00 -0.00000000000E+00 -0.34033165321E+02  0.34033165321E+02  0.00000000000E+00 0.  1.
         23    2    1    2    0    0  0.00000000000E+00  0.00000000000E+00  0.26981459075E+02  0.95047789717E+02  0.91137715553E+02 0.  0.
        -13    1    3    3    0    0 -0.20684917130E+01 -0.45213557846E+02  0.79745392513E+01  0.45957999819E+02  0.00000000000E+00 0.  1.
         13    1    3    3    0    0  0.20684917130E+01  0.45213557846E+02  0.19006919823E+02  0.49089789898E+02  0.00000000000E+00 0. -1.
<mgrwt>
<rscale>  0 0.91137716E+02</rscale>
<asrwt>0</asrwt>
<pdfrwt beam="1">  1        2 0.93868653E-02 0.91137716E+02</pdfrwt>
<pdfrwt beam="2">  1       -2 0.52358716E-02 0.91137716E+02</pdfrwt>
<totfact> 0.10667744E+05</totfact>
</mgrwt>
</event>
<event>
 5    1  0.6046470E+000  0.9427137E+02  0.7546771E-02  0.1292826E+00
         -1   -1    0    0    0  501 -0.00000000000E+00  0.00000000000E+00  0.43818568753E+01  0.43818568753E+01  0.00000000000E+00 0.  1.
          1   -1    0    0  501    0  0.00000000000E+00 -0.00000000000E+00 -0.50703915956E+03  0.50703915956E+03  0.00000000000E+00 0. -1.
         23    2    1    2    0    0  0.00000000000E+00  0.00000000000E+00 -0.50265730268E+03  0.51142101644E+03  0.94271374815E+02 0.  0.
        -13    1    3    3    0    0 -0.47037154640E+02  0.29821204432E+01 -0.25469943477E+03  0.25902352988E+03  0.00000000000E+00 0.  1.
         13    1    3    3    0    0  0.47037154640E+02 -0.29821204432E+01 -0.24795786792E+03  0.25239748656E+03  0.00000000000E+00 0. -1.
<mgrwt>
<rscale>  0 0.94271375E+02</rscale>
<asrwt>0</asrwt>
<pdfrwt beam="2">  1        1 0.78006016E-01 0.94271375E+02</pdfrwt>
<pdfrwt beam="1">  1       -1 0.67413190E-03 0.94271375E+02</pdfrwt>
<totfact> 0.12766266E+05</totfact>
</mgrwt>
</event>
<event>
 5    1  0.6046470E+000  0.9201342E+02  0.7546771E-02  0.1298048E+00
         -2   -1    0    0    0  501 -0.00000000000E+00  0.00000000000E+00  0.52610826540E+02  0.52610826540E+02  0.00000000000E+00 0.  1.
          2   -1    0    0  501    0  0.00000000000E+00 -0.00000000000E+00 -0.40231589170E+02  0.40231589170E+02  0.00000000000E+00 0. -1.
         23    2    1    2    0    0  0.00000000000E+00  0.00000000000E+00  0.12379237370E+02  0.92842415709E+02  0.92013415527E+02 0.  0.
        -13    1    3    3    0    0  0.76514945175E+01 -0.39189191232E+02  0.29248943980E+02  0.49495846308E+02  0.00000000000E+00 0.  1.
         13    1    3    3    0    0 -0.76514945175E+01  0.39189191232E+02 -0.16869706609E+02  0.43346569402E+02  0.00000000000E+00 0. -1.
<mgrwt>
<rscale>  0 0.92013416E+02</rscale>
<asrwt>0</asrwt>
<pdfrwt beam="2">  1        2 0.61894752E-02 0.92013416E+02</pdfrwt>
<pdfrwt beam="1">  1       -2 0.80939734E-02 0.92013416E+02</pdfrwt>
<totfact> 0.93033046E+04</totfact>
</mgrwt>
</event>
<event>
 5    1  0.6046470E+000  0.9191764E+02  0.7546771E-02  0.1298273E+00
          1   -1    0    0  501    0  0.00000000000E+00  0.00000000000E+00  0.40531190035E+02  0.40531190035E+02  0.00000000000E+00 0. -1.
         -1   -1    0    0    0  501 -0.00000000000E+00 -0.00000000000E+00 -0.52113274249E+02  0.52113274249E+02  0.00000000000E+00 0.  1.
         23    2    1    2    0    0  0.00000000000E+00  0.00000000000E+00 -0.11582084215E+02  0.92644464284E+02  0.91917637523E+02 0.  0.
        -13    1    3    3    0    0 -0.35950936636E-01  0.37914440111E+02  0.20389474745E+02  0.43049236251E+02  0.00000000000E+00 0. -1.
         13    1    3    3    0    0  0.35950936636E-01 -0.37914440111E+02 -0.31971558959E+02  0.49595228034E+02  0.00000000000E+00 0.  1.
<mgrwt>
<rscale>  0 0.91917638E+02</rscale>
<asrwt>0</asrwt>
<pdfrwt beam="1">  1        1 0.62355677E-02 0.91917638E+02</pdfrwt>
<pdfrwt beam="2">  1       -1 0.80174268E-02 0.91917638E+02</pdfrwt>
<totfact> 0.88790467E+04</totfact>
</mgrwt>
</event>
<event>
 5    1  0.6046470E+000  0.7949322E+02  0.7546771E-02  0.1330496E+00
         -2   -1    0    0    0  501 -0.00000000000E+00  0.00000000000E+00  0.18941400400E+02  0.18941400400E+02  0.00000000000E+00 0. -1.
          2   -1    0    0  501    0  0.00000000000E+00 -0.00000000000E+00 -0.83404243674E+02  0.83404243674E+02  0.00000000000E+00 0.  1.
         23    2    1    2    0    0  0.00000000000E+00  0.00000000000E+00 -0.64462843274E+02  0.10234564407E+03  0.79493224226E+02 0.  0.
        -13    1    3    3    0    0 -0.17163745192E+02  0.32866359052E+02 -0.50665343268E+02  0.62783506710E+02  0.00000000000E+00 0.  1.
         13    1    3    3    0    0  0.17163745192E+02 -0.32866359052E+02 -0.13797500006E+02  0.39562137363E+02  0.00000000000E+00 0. -1.
<mgrwt>
<rscale>  0 0.79493224E+02</rscale>
<asrwt>0</asrwt>
<pdfrwt beam="2">  1        2 0.12831422E-01 0.79493224E+02</pdfrwt>
<pdfrwt beam="1">  1       -2 0.29140616E-02 0.79493224E+02</pdfrwt>
<totfact> 0.16933480E+05</totfact>
</mgrwt>
</event>
<event>
 5    1  0.6046470E+000  0.9587159E+02  0.7546771E-02  0.1289225E+00
         -1   -1    0    0    0  501 -0.00000000000E+00  0.00000000000E+00  0.16604521892E+02  0.16604521892E+02  0.00000000000E+00 0.  1.
          1   -1    0    0  501    0  0.00000000000E+00 -0.00000000000E+00 -0.13838641813E+03  0.13838641813E+03  0.00000000000E+00 0. -1.
         23    2    1    2    0    0  0.00000000000E+00  0.00000000000E+00 -0.12178189624E+03  0.15499094003E+03  0.95871587229E+02 0.  0.
        -13    1    3    3    0    0 -0.42287334309E+01  0.40141930882E+02 -0.19089221121E+02  0.44650365781E+02  0.00000000000E+00 0.  1.
         13    1    3    3    0    0  0.42287334309E+01 -0.40141930882E+02 -0.10269267512E+03  0.11034057425E+03  0.00000000000E+00 0. -1.
<mgrwt>
<rscale>  0 0.95871587E+02</rscale>
<asrwt>0</asrwt>
<pdfrwt beam="2">  1        1 0.21290217E-01 0.95871587E+02</pdfrwt>
<pdfrwt beam="1">  1       -1 0.25545419E-02 0.95871587E+02</pdfrwt>
<totfact> 0.96427210E+04</totfact>
</mgrwt>
</event>
<event>
 5    1  0.6046470E+000  0.9108431E+02  0.7546771E-02  0.1300247E+00
         -2   -1    0    0    0  501 -0.00000000000E+00  0.00000000000E+00  0.14341548729E+03  0.14341548729E+03  0.00000000000E+00 0.  1.
          2   -1    0    0  501    0  0.00000000000E+00 -0.00000000000E+00 -0.14462092209E+02  0.14462092209E+02  0.00000000000E+00 0. -1.
         23    2    1    2    0    0  0.00000000000E+00  0.00000000000E+00  0.12895339508E+03  0.15787757950E+03  0.91084312620E+02 0.  0.
        -13    1    3    3    0    0  0.32806067642E+02 -0.26787374090E+02  0.93495399184E+02  0.10264107927E+03  0.00000000000E+00 0.  1.
         13    1    3    3    0    0 -0.32806067642E+02  0.26787374090E+02  0.35457995899E+02  0.55236500232E+02  0.00000000000E+00 0. -1.
<mgrwt>
<rscale>  0 0.91084313E+02</rscale>
<asrwt>0</asrwt>
<pdfrwt beam="2">  1        2 0.22249374E-02 0.91084313E+02</pdfrwt>
<pdfrwt beam="1">  1       -2 0.22063920E-01 0.91084313E+02</pdfrwt>
<totfact> 0.71175939E+04</totfact>
</mgrwt>
</event>
<event>
 5    1  0.6046470E+000  0.9803066E+02  0.7546771E-02  0.1284493E+00
         -1   -1    0    0    0  501 -0.00000000000E+00  0.00000000000E+00  0.34564421305E+02  0.34564421305E+02  0.00000000000E+00 0.  1.
          1   -1    0    0  501    0  0.00000000000E+00 -0.00000000000E+00 -0.69507968613E+02  0.69507968613E+02  0.00000000000E+00 0. -1.
         23    2    1    2    0    0  0.00000000000E+00  0.00000000000E+00 -0.34943547309E+02  0.10407238992E+03  0.98030662778E+02 0.  0.
        -13    1    3    3    0    0  0.10679284238E+02  0.47750031014E+02 -0.14396681548E+02  0.51003696075E+02  0.00000000000E+00 0. -1.
         13    1    3    3    0    0 -0.10679284238E+02 -0.47750031014E+02 -0.20546865760E+02  0.53068693843E+02  0.00000000000E+00 0.  1.
<mgrwt>
<rscale>  0 0.98030663E+02</rscale>
<asrwt>0</asrwt>
<pdfrwt beam="2">  1        1 0.10693534E-01 0.98030663E+02</pdfrwt>
<pdfrwt beam="1">  1       -1 0.53176033E-02 0.98030663E+02</pdfrwt>
<totfact> 0.80601579E+04</totfact>
</mgrwt>
</event>
<event>
 5    1  0.6046470E+000  0.7297044E+02  0.7546771E-02  0.1350274E+00
         -4   -1    0    0    0  501 -0.00000000000E+00  0.00000000000E+00  0.33664263963E+02  0.33664263963E+02  0.00000000000E+00 0.  1.
          4   -1    0    0  501    0  0.00000000000E+00 -0.00000000000E+00 -0.39542564464E+02  0.39542564464E+02  0.00000000000E+00 0. -1.
         23    2    1    2    0    0  0.00000000000E+00  0.00000000000E+00 -0.58783005012E+01  0.73206828428E+02  0.72970441356E+02 0.  0.
        -13    1    3    3    0    0 -0.27028423714E+02 -0.21215823043E+02  0.93694368787E+01  0.35615069609E+02  0.00000000000E+00 0.  1.
         13    1    3    3    0    0  0.27028423714E+02  0.21215823043E+02 -0.15247737380E+02  0.37591758818E+02  0.00000000000E+00 0. -1.
<mgrwt>
<rscale>  0 0.72970441E+02</rscale>
<asrwt>0</asrwt>
<pdfrwt beam="2">  1        4 0.60834714E-02 0.72970441E+02</pdfrwt>
<pdfrwt beam="1">  1       -4 0.51791176E-02 0.72970441E+02</pdfrwt>
<totfact> 0.51258735E+04</totfact>
</mgrwt>
</event>
<event>
 5    1  0.6046470E+000  0.9114043E+02  0.7546771E-02  0.1300113E+00
         -2   -1    0    0    0  501 -0.00000000000E+00  0.00000000000E+00  0.92135290432E+01  0.92135290432E+01  0.00000000000E+00 0.  1.
          2   -1    0    0  501    0  0.00000000000E+00 -0.00000000000E+00 -0.22539080324E+03  0.22539080324E+03  0.00000000000E+00 0. -1.
         23    2    1    2    0    0  0.00000000000E+00  0.00000000000E+00 -0.21617727420E+03  0.23460433228E+03  0.91140434753E+02 0.  0.
        -13    1    3    3    0    0  0.40342079209E+02 -0.77368816785E+01 -0.57299801090E+02  0.70502552422E+02  0.00000000000E+00 0.  1.
         13    1    3    3    0    0 -0.40342079209E+02  0.77368816785E+01 -0.15887747311E+03  0.16410177986E+03  0.00000000000E+00 0. -1.
<mgrwt>
<rscale>  0 0.91140435E+02</rscale>
<asrwt>0</asrwt>
<pdfrwt beam="2">  1        2 0.34675509E-01 0.91140435E+02</pdfrwt>
<pdfrwt beam="1">  1       -2 0.14174660E-02 0.91140435E+02</pdfrwt>
<totfact> 0.16174149E+05</totfact>
</mgrwt>
</event>
<event>
 5    1  0.6046470E+000  0.9295267E+02  0.7546771E-02  0.1295855E+00
          1   -1    0    0  501    0  0.00000000000E+00  0.00000000000E+00  0.10368390710E+02  0.10368390710E+02  0.00000000000E+00 0. -1.
         -1   -1    0    0    0  501 -0.00000000000E+00 -0.00000000000E+00 -0.20833029753E+03  0.20833029753E+03  0.00000000000E+00 0.  1.
         23    2    1    2    0    0  0.00000000000E+00  0.00000000000E+00 -0.19796190682E+03  0.21869868824E+03  0.92952674441E+02 0.  0.
        -13    1    3    3    0    0  0.14963820907E+02 -0.40002888382E+02 -0.14210218627E+03  0.14838186667E+03  0.00000000000E+00 0.  1.
         13    1    3    3    0    0 -0.14963820907E+02  0.40002888382E+02 -0.55859720548E+02  0.70316821563E+02  0.00000000000E+00 0. -1.
<mgrwt>
<rscale>  0 0.92952674E+02</rscale>
<asrwt>0</asrwt>
<pdfrwt beam="1">  1        1 0.15951370E-02 0.92952674E+02</pdfrwt>
<pdfrwt beam="2">  1       -1 0.32050816E-01 0.92952674E+02</pdfrwt>
<totfact> 0.65237963E+04</totfact>
</mgrwt>
</event>
<event>
 5    1  0.6046470E+000  0.9127354E+02  0.7546771E-02  0.1299797E+00
          1   -1    0    0  501    0  0.00000000000E+00  0.00000000000E+00  0.10468620576E+03  0.10468620576E+03  0.00000000000E+00 0. -1.
         -1   -1    0    0    0  501 -0.00000000000E+00 -0.00000000000E+00 -0.19894833420E+02  0.19894833420E+02  0.00000000000E+00 0.  1.
         23    2    1    2    0    0  0.00000000000E+00  0.00000000000E+00  0.84791372335E+02  0.12458103918E+03  0.91273536688E+02 0.  0.
        -13    1    3    3    0    0  0.26198380770E+02 -0.35073048265E+02  0.24797179302E+02  0.50312761511E+02  0.00000000000E+00 0.  1.
         13    1    3    3    0    0 -0.26198380770E+02  0.35073048265E+02  0.59994193033E+02  0.74268277664E+02  0.00000000000E+00 0. -1.
<mgrwt>
<rscale>  0 0.91273537E+02</rscale>
<asrwt>0</asrwt>
<pdfrwt beam="1">  1        1 0.16105570E-01 0.91273537E+02</pdfrwt>
<pdfrwt beam="2">  1       -1 0.30607437E-02 0.91273537E+02</pdfrwt>
<totfact> 0.10495095E+05</totfact>
</mgrwt>
</event>
<event>
 5    1  0.6046470E+000  0.9098950E+02  0.7546771E-02  0.1300473E+00
         -1   -1    0    0    0  501 -0.00000000000E+00  0.00000000000E+00  0.14854309513E+02  0.14854309513E+02  0.00000000000E+00 0.  1.
          1   -1    0    0  501    0  0.00000000000E+00 -0.00000000000E+00 -0.13933816518E+03  0.13933816518E+03  0.00000000000E+00 0. -1.
         23    2    1    2    0    0  0.00000000000E+00  0.00000000000E+00 -0.12448385567E+03  0.15419247470E+03  0.90989499011E+02 0.  0.
        -13    1    3    3    0    0  0.17798620049E+01 -0.44372747728E+02 -0.45494881138E+02  0.63575882687E+02  0.00000000000E+00 0.  1.
         13    1    3    3    0    0 -0.17798620049E+01  0.44372747728E+02 -0.78988974532E+02  0.90616592008E+02  0.00000000000E+00 0. -1.
<mgrwt>
<rscale>  0 0.90989499E+02</rscale>
<asrwt>0</asrwt>
<pdfrwt beam="2">  1        1 0.21436642E-01 0.90989499E+02</pdfrwt>
<pdfrwt beam="1">  1       -1 0.22852783E-02 0.90989499E+02</pdfrwt>
<totfact> 0.11125200E+05</totfact>
</mgrwt>
</event>
<event>
 5    1  0.6046470E+000  0.9104359E+02  0.7546771E-02  0.1300344E+00
         -1   -1    0    0    0  501 -0.00000000000E+00  0.00000000000E+00  0.17758722449E+02  0.17758722449E+02  0.00000000000E+00 0.  1.
          1   -1    0    0  501    0  0.00000000000E+00 -0.00000000000E+00 -0.11668821911E+03  0.11668821911E+03  0.00000000000E+00 0. -1.
         23    2    1    2    0    0  0.00000000000E+00  0.00000000000E+00 -0.98929496660E+02  0.13444694156E+03  0.91043587279E+02 0.  0.
        -13    1    3    3    0    0  0.39047477468E+02  0.15316249653E+02 -0.23341174635E+02  0.48001077419E+02  0.00000000000E+00 0.  1.
         13    1    3    3    0    0 -0.39047477468E+02 -0.15316249653E+02 -0.75588322024E+02  0.86445864138E+02  0.00000000000E+00 0. -1.
<mgrwt>
<rscale>  0 0.91043587E+02</rscale>
<asrwt>0</asrwt>
<pdfrwt beam="2">  1        1 0.17952034E-01 0.91043587E+02</pdfrwt>
<pdfrwt beam="1">  1       -1 0.27321111E-02 0.91043587E+02</pdfrwt>
<totfact> 0.10764481E+05</totfact>
</mgrwt>
</event>
<event>
 5    1  0.6046470E+000  0.9173415E+02  0.7546771E-02  0.1298706E+00
         -3   -1    0    0    0  501 -0.00000000000E+00  0.00000000000E+00  0.29847515222E+02  0.29847515222E+02  0.00000000000E+00 0.  1.
          3   -1    0    0  501    0  0.00000000000E+00 -0.00000000000E+00 -0.70484552189E+02  0.70484552189E+02  0.00000000000E+00 0. -1.
         23    2    1    2    0    0  0.00000000000E+00  0.00000000000E+00 -0.40637036967E+02  0.10033206741E+03  0.91734153822E+02 0.  0.
        -13    1    3    3    0    0  0.32486932681E+02  0.31215815595E+02 -0.10912420035E+02  0.46356324804E+02  0.00000000000E+00 0.  1.
         13    1    3    3    0    0 -0.32486932681E+02 -0.31215815595E+02 -0.29724616932E+02  0.53975742607E+02  0.00000000000E+00 0. -1.
<mgrwt>
<rscale>  0 0.91734154E+02</rscale>
<asrwt>0</asrwt>
<pdfrwt beam="2">  1        3 0.10843777E-01 0.91734154E+02</pdfrwt>
<pdfrwt beam="1">  1       -3 0.45919255E-02 0.91734154E+02</pdfrwt>
<totfact> 0.34075342E+04</totfact>
</mgrwt>
</event>
<event>
 5    1  0.6046470E+000  0.9259581E+02  0.7546771E-02  0.1296685E+00
          4   -1    0    0  501    0  0.00000000000E+00  0.00000000000E+00  0.16838376131E+02  0.16838376131E+02  0.00000000000E+00 0. -1.
         -4   -1    0    0    0  501 -0.00000000000E+00 -0.00000000000E+00 -0.12729826933E+03  0.12729826933E+03  0.00000000000E+00 0.  1.
         23    2    1    2    0    0  0.00000000000E+00  0.00000000000E+00 -0.11045989320E+03  0.14413664546E+03  0.92595812861E+02 0.  0.
        -13    1    3    3    0    0 -0.97708452979E+01 -0.28973333054E+02 -0.10934516938E+03  0.11353981466E+03  0.00000000000E+00 0.  1.
         13    1    3    3    0    0  0.97708452979E+01  0.28973333054E+02 -0.11147238215E+01  0.30596830804E+02  0.00000000000E+00 0. -1.
<mgrwt>
<rscale>  0 0.92595813E+02</rscale>
<asrwt>0</asrwt>
<pdfrwt beam="1">  1        4 0.25905193E-02 0.92595813E+02</pdfrwt>
<pdfrwt beam="2">  1       -4 0.19584350E-01 0.92595813E+02</pdfrwt>
<totfact> 0.22991792E+04</totfact>
</mgrwt>
</event>
<event>
 5    1  0.6046470E+000  0.9238487E+02  0.7546771E-02  0.1297177E+00
          2   -1    0    0  501    0  0.00000000000E+00  0.00000000000E+00  0.12199595910E+03  0.12199595910E+03  0.00000000000E+00 0.  1.
         -2   -1    0    0    0  501 -0.00000000000E+00 -0.00000000000E+00 -0.17490260192E+02  0.17490260192E+02  0.00000000000E+00 0. -1.
         23    2    1    2    0    0  0.00000000000E+00  0.00000000000E+00  0.10450569891E+03  0.13948621930E+03  0.92384870342E+02 0.  0.
        -13    1    3    3    0    0 -0.34109880901E+01  0.46046996578E+02  0.50238285183E+02  0.68233760205E+02  0.00000000000E+00 0.  1.
         13    1    3    3    0    0  0.34109880901E+01 -0.46046996578E+02  0.54267413730E+02  0.71252459091E+02  0.00000000000E+00 0. -1.
<mgrwt>
<rscale>  0 0.92384870E+02</rscale>
<asrwt>0</asrwt>
<pdfrwt beam="1">  1        2 0.18768609E-01 0.92384870E+02</pdfrwt>
<pdfrwt beam="2">  1       -2 0.26908093E-02 0.92384870E+02</pdfrwt>
<totfact> 0.12593374E+05</totfact>
</mgrwt>
</event>
<event>
 5    1  0.6046470E+000  0.9077731E+02  0.7546771E-02  0.1300980E+00
         -4   -1    0    0    0  501 -0.00000000000E+00  0.00000000000E+00  0.29029578585E+03  0.29029578585E+03  0.00000000000E+00 0.  1.
          4   -1    0    0  501    0  0.00000000000E+00 -0.00000000000E+00 -0.70966582469E+01  0.70966582469E+01  0.00000000000E+00 0. -1.
         23    2    1    2    0    0  0.00000000000E+00  0.00000000000E+00  0.28319912760E+03  0.29739244409E+03  0.90777309558E+02 0.  0.
        -13    1    3    3    0    0  0.33938710504E+02 -0.27740861900E+02  0.18018746070E+03  0.18544247756E+03  0.00000000000E+00 0.  1.
         13    1    3    3    0    0 -0.33938710504E+02  0.27740861900E+02  0.10301166690E+03  0.11194996653E+03  0.00000000000E+00 0. -1.
<mgrwt>
<rscale>  0 0.90777310E+02</rscale>
<asrwt>0</asrwt>
<pdfrwt beam="2">  1        4 0.10917938E-02 0.90777310E+02</pdfrwt>
<pdfrwt beam="1">  1       -4 0.44660881E-01 0.90777310E+02</pdfrwt>
<totfact> 0.18110019E+04</totfact>
</mgrwt>
</event>
<event>
 5    1  0.6046470E+000  0.8916197E+02  0.7546771E-02  0.1304894E+00
          1   -1    0    0  501    0  0.00000000000E+00  0.00000000000E+00  0.47150404786E+03  0.47150404786E+03  0.00000000000E+00 0. -1.
         -1   -1    0    0    0  501 -0.00000000000E+00 -0.00000000000E+00 -0.42151585267E+01  0.42151585267E+01  0.00000000000E+00 0.  1.
         23    2    1    2    0    0  0.00000000000E+00  0.00000000000E+00  0.46728888934E+03  0.47571920639E+03  0.89161971888E+02 0.  0.
        -13    1    3    3    0    0 -0.20720273328E+02  0.39005455328E+02  0.26597085701E+03  0.26961315259E+03  0.00000000000E+00 0.  1.
         13    1    3    3    0    0  0.20720273328E+02 -0.39005455328E+02  0.20131803233E+03  0.20610605380E+03  0.00000000000E+00 0. -1.
<mgrwt>
<rscale>  0 0.89161972E+02</rscale>
<asrwt>0</asrwt>
<pdfrwt beam="1">  1        1 0.72539043E-01 0.89161972E+02</pdfrwt>
<pdfrwt beam="2">  1       -1 0.64848630E-03 0.89161972E+02</pdfrwt>
<totfact> 0.14666882E+05</totfact>
</mgrwt>
</event>
<event>
 5    1  0.6046470E+000  0.9048379E+02  0.7546771E-02  0.1301684E+00
          2   -1    0    0  501    0  0.00000000000E+00  0.00000000000E+00  0.17059737105E+03  0.17059737105E+03  0.00000000000E+00 0. -1.
         -2   -1    0    0    0  501 -0.00000000000E+00 -0.00000000000E+00 -0.11998009372E+02  0.11998009372E+02  0.00000000000E+00 0.  1.
         23    2    1    2    0    0  0.00000000000E+00  0.00000000000E+00  0.15859936168E+03  0.18259538042E+03  0.90483785434E+02 0.  0.
        -13    1    3    3    0    0  0.66360566257E+01 -0.34891174534E+02  0.22745619909E+02  0.42175757645E+02  0.00000000000E+00 0.  1.
         13    1    3    3    0    0 -0.66360566257E+01  0.34891174534E+02  0.13585374177E+03  0.14041962277E+03  0.00000000000E+00 0. -1.
<mgrwt>
<rscale>  0 0.90483785E+02</rscale>
<asrwt>0</asrwt>
<pdfrwt beam="1">  1        2 0.26245748E-01 0.90483785E+02</pdfrwt>
<pdfrwt beam="2">  1       -2 0.18458477E-02 0.90483785E+02</pdfrwt>
<totfact> 0.14920123E+05</totfact>
</mgrwt>
</event>
<event>
 5    1  0.6046470E+000  0.9168766E+02  0.7546771E-02  0.1298816E+00
          1   -1    0    0  501    0  0.00000000000E+00  0.00000000000E+00  0.85667633507E+02  0.85667633507E+02  0.00000000000E+00 0. -1.
         -1   -1    0    0    0  501 -0.00000000000E+00 -0.00000000000E+00 -0.24532679815E+02  0.24532679815E+02  0.00000000000E+00 0.  1.
         23    2    1    2    0    0  0.00000000000E+00  0.00000000000E+00  0.61134953692E+02  0.11020031332E+03  0.91687657257E+02 0.  0.
        -13    1    3    3    0    0  0.12686659514E+02  0.41736881696E+02  0.13623614648E+02  0.45700344631E+02  0.00000000000E+00 0.  1.
         13    1    3    3    0    0 -0.12686659514E+02 -0.41736881696E+02  0.47511339044E+02  0.64499968691E+02  0.00000000000E+00 0. -1.
<mgrwt>
<rscale>  0 0.91687657E+02</rscale>
<asrwt>0</asrwt>
<pdfrwt beam="1">  1        1 0.13179636E-01 0.91687657E+02</pdfrwt>
<pdfrwt beam="2">  1       -1 0.37742585E-02 0.91687657E+02</pdfrwt>
<totfact> 0.10029830E+05</totfact>
</mgrwt>
</event>
<event>
 5    1  0.6046470E+000  0.9891624E+02  0.7546771E-02  0.1282592E+00
         -2   -1    0    0    0  501 -0.00000000000E+00  0.00000000000E+00  0.10997147270E+02  0.10997147270E+02  0.00000000000E+00 0.  1.
          2   -1    0    0  501    0  0.00000000000E+00 -0.00000000000E+00 -0.22243091815E+03  0.22243091815E+03  0.00000000000E+00 0. -1.
         23    2    1    2    0    0  0.00000000000E+00  0.00000000000E+00 -0.21143377088E+03  0.23342806542E+03  0.98916238592E+02 0.  0.
        -13    1    3    3    0    0 -0.33781091834E+02  0.35291947880E+02 -0.12390796314E+03  0.13319109234E+03  0.00000000000E+00 0. -1.
         13    1    3    3    0    0  0.33781091834E+02 -0.35291947880E+02 -0.87525807749E+02  0.10023697308E+03  0.00000000000E+00 0.  1.
<mgrwt>
<rscale>  0 0.98916239E+02</rscale>
<asrwt>0</asrwt>
<pdfrwt beam="2">  1        2 0.34220141E-01 0.98916239E+02</pdfrwt>
<pdfrwt beam="1">  1       -2 0.16918688E-02 0.98916239E+02</pdfrwt>
<totfact> 0.12903875E+05</totfact>
</mgrwt>
</event>
<event>
 5    1  0.6046470E+000  0.9631141E+02  0.7546771E-02  0.1288249E+00
          4   -1    0    0  501    0  0.00000000000E+00  0.00000000000E+00  0.94693855469E+02  0.94693855469E+02  0.00000000000E+00 0. -1.
         -4   -1    0    0    0  501 -0.00000000000E+00 -0.00000000000E+00 -0.24489149875E+02  0.24489149875E+02  0.00000000000E+00 0.  1.
         23    2    1    2    0    0  0.00000000000E+00  0.00000000000E+00  0.70204705594E+02  0.11918300534E+03  0.96311411967E+02 0.  0.
        -13    1    3    3    0    0  0.46088362894E+02  0.11823790006E+02  0.44282453481E+02  0.64999037613E+02  0.00000000000E+00 0. -1.
         13    1    3    3    0    0 -0.46088362894E+02 -0.11823790006E+02  0.25922252113E+02  0.54183967730E+02  0.00000000000E+00 0.  1.
<mgrwt>
<rscale>  0 0.96311412E+02</rscale>
<asrwt>0</asrwt>
<pdfrwt beam="1">  1        4 0.14568285E-01 0.96311412E+02</pdfrwt>
<pdfrwt beam="2">  1       -4 0.37675616E-02 0.96311412E+02</pdfrwt>
<totfact> 0.21817955E+04</totfact>
</mgrwt>
</event>
<event>
 5    1  0.6046470E+000  0.8610960E+02  0.7546771E-02  0.1312556E+00
         -2   -1    0    0    0  501 -0.00000000000E+00  0.00000000000E+00  0.12867714460E+02  0.12867714460E+02  0.00000000000E+00 0.  1.
          2   -1    0    0  501    0  0.00000000000E+00 -0.00000000000E+00 -0.14405945837E+03  0.14405945837E+03  0.00000000000E+00 0. -1.
         23    2    1    2    0    0  0.00000000000E+00  0.00000000000E+00 -0.13119174391E+03  0.15692717283E+03  0.86109604007E+02 0.  0.
        -13    1    3    3    0    0  0.68512581673E+01  0.32500428207E+02 -0.15670484386E+02  0.36725762796E+02  0.00000000000E+00 0.  1.
         13    1    3    3    0    0 -0.68512581673E+01 -0.32500428207E+02 -0.11552125952E+03  0.12020141003E+03  0.00000000000E+00 0. -1.
<mgrwt>
<rscale>  0 0.86109604E+02</rscale>
<asrwt>0</asrwt>
<pdfrwt beam="2">  1        2 0.22162993E-01 0.86109604E+02</pdfrwt>
<pdfrwt beam="1">  1       -2 0.19796484E-02 0.86109604E+02</pdfrwt>
<totfact> 0.16098414E+05</totfact>
</mgrwt>
</event>
<event>
 5    1  0.6046470E+000  0.8850904E+02  0.7546771E-02  0.1306503E+00
          2   -1    0    0  501    0  0.00000000000E+00  0.00000000000E+00  0.42970385330E+03  0.42970385330E+03  0.00000000000E+00 0. -1.
         -2   -1    0    0    0  501 -0.00000000000E+00 -0.00000000000E+00 -0.45577031642E+01  0.45577031642E+01  0.00000000000E+00 0.  1.
         23    2    1    2    0    0  0.00000000000E+00  0.00000000000E+00  0.42514615014E+03  0.43426155647E+03  0.88509041614E+02 0.  0.
        -13    1    3    3    0    0  0.25327308334E+02 -0.35275143496E+02  0.17075207105E+03  0.17618762177E+03  0.00000000000E+00 0.  1.
         13    1    3    3    0    0 -0.25327308334E+02  0.35275143496E+02  0.25439407909E+03  0.25807393470E+03  0.00000000000E+00 0. -1.
<mgrwt>
<rscale>  0 0.88509042E+02</rscale>
<asrwt>0</asrwt>
<pdfrwt beam="1">  1        2 0.66108253E-01 0.88509042E+02</pdfrwt>
<pdfrwt beam="2">  1       -2 0.70118544E-03 0.88509042E+02</pdfrwt>
<totfact> 0.22148636E+05</totfact>
</mgrwt>
</event>
<event>
 5    1  0.6046470E+000  0.9322643E+02  0.7546771E-02  0.1295221E+00
          3   -1    0    0  501    0  0.00000000000E+00  0.00000000000E+00  0.67734875187E+02  0.67734875187E+02  0.00000000000E+00 0.  1.
         -3   -1    0    0    0  501 -0.00000000000E+00 -0.00000000000E+00 -0.32077887265E+02  0.32077887265E+02  0.00000000000E+00 0. -1.
         23    2    1    2    0    0  0.00000000000E+00  0.00000000000E+00  0.35656987922E+02  0.99812762451E+02  0.93226427372E+02 0.  0.
        -13    1    3    3    0    0  0.35996475913E+02 -0.27251717383E+02  0.54168474362E+01  0.45472459958E+02  0.00000000000E+00 0. -1.
         13    1    3    3    0    0 -0.35996475913E+02  0.27251717383E+02  0.30240140486E+02  0.54340302493E+02  0.00000000000E+00 0.  1.
<mgrwt>
<rscale>  0 0.93226427E+02</rscale>
<asrwt>0</asrwt>
<pdfrwt beam="1">  1        3 0.10420750E-01 0.93226427E+02</pdfrwt>
<pdfrwt beam="2">  1       -3 0.49350596E-02 0.93226427E+02</pdfrwt>
<totfact> 0.32642656E+04</totfact>
</mgrwt>
</event>
<event>
 5    1  0.6046470E+000  0.9155073E+02  0.7546771E-02  0.1299139E+00
          1   -1    0    0  501    0  0.00000000000E+00  0.00000000000E+00  0.61317780229E+02  0.61317780229E+02  0.00000000000E+00 0. -1.
         -1   -1    0    0    0  501 -0.00000000000E+00 -0.00000000000E+00 -0.34172538543E+02  0.34172538543E+02  0.00000000000E+00 0.  1.
         23    2    1    2    0    0  0.00000000000E+00  0.00000000000E+00  0.27145241686E+02  0.95490318772E+02  0.91550733656E+02 0.  0.
        -13    1    3    3    0    0  0.99740347888E+01 -0.13262967977E+02 -0.30924590335E+02  0.35095839881E+02  0.00000000000E+00 0.  1.
         13    1    3    3    0    0 -0.99740347888E+01  0.13262967977E+02  0.58069832021E+02  0.60394478891E+02  0.00000000000E+00 0. -1.
<mgrwt>
<rscale>  0 0.91550734E+02</rscale>
<asrwt>0</asrwt>
<pdfrwt beam="1">  1        1 0.94335047E-02 0.91550734E+02</pdfrwt>
<pdfrwt beam="2">  1       -1 0.52573136E-02 0.91550734E+02</pdfrwt>
<totfact> 0.95597143E+04</totfact>
</mgrwt>
</event>
<event>
 5    1  0.6046470E+000  0.9311085E+02  0.7546771E-02  0.1295489E+00
          1   -1    0    0  501    0  0.00000000000E+00  0.00000000000E+00  0.24234880987E+03  0.24234880987E+03  0.00000000000E+00 0. -1.
         -1   -1    0    0    0  501 -0.00000000000E+00 -0.00000000000E+00 -0.89433393648E+01  0.89433393648E+01  0.00000000000E+00 0.  1.
         23    2    1    2    0    0  0.00000000000E+00  0.00000000000E+00  0.23340547051E+03  0.25129214924E+03  0.93110851168E+02 0.  0.
        -13    1    3    3    0    0  0.14776403886E+02  0.39262425052E+02  0.17118524360E+03  0.17625058229E+03  0.00000000000E+00 0.  1.
         13    1    3    3    0    0 -0.14776403886E+02 -0.39262425052E+02  0.62220226906E+02  0.75041566941E+02  0.00000000000E+00 0. -1.
<mgrwt>
<rscale>  0 0.93110851E+02</rscale>
<asrwt>0</asrwt>
<pdfrwt beam="1">  1        1 0.37284427E-01 0.93110851E+02</pdfrwt>
<pdfrwt beam="2">  1       -1 0.13758986E-02 0.93110851E+02</pdfrwt>
<totfact> 0.11620508E+05</totfact>
</mgrwt>
</event>
<event>
 5    1  0.6046470E+000  0.8334786E+02  0.7546771E-02  0.1319810E+00
         -2   -1    0    0    0  501 -0.00000000000E+00  0.00000000000E+00  0.53821989769E+02  0.53821989769E+02  0.00000000000E+00 0.  1.
          2   -1    0    0  501    0  0.00000000000E+00 -0.00000000000E+00 -0.32267787058E+02  0.32267787058E+02  0.00000000000E+00 0. -1.
         23    2    1    2    0    0  0.00000000000E+00  0.00000000000E+00  0.21554202711E+02  0.86089776827E+02  0.83347861518E+02 0.  0.
        -13    1    3    3    0    0  0.24522104902E+02  0.33663576010E+01 -0.23852702724E+02  0.34374662464E+02  0.00000000000E+00 0. -1.
         13    1    3    3    0    0 -0.24522104902E+02 -0.33663576010E+01  0.45406905435E+02  0.51715114362E+02  0.00000000000E+00 0.  1.
<mgrwt>
<rscale>  0 0.83347862E+02</rscale>
<asrwt>0</asrwt>
<pdfrwt beam="2">  1        2 0.49642749E-02 0.83347862E+02</pdfrwt>
<pdfrwt beam="1">  1       -2 0.82803061E-02 0.83347862E+02</pdfrwt>
<totfact> 0.11717432E+05</totfact>
</mgrwt>
</event>
<event>
 5    1  0.6046470E+000  0.1274072E+03  0.7546771E-02  0.1231355E+00
         -2   -1    0    0    0  501 -0.00000000000E+00  0.00000000000E+00  0.31878864684E+03  0.31878864684E+03  0.00000000000E+00 0. -1.
          2   -1    0    0  501    0  0.00000000000E+00 -0.00000000000E+00 -0.12729898309E+02  0.12729898309E+02  0.00000000000E+00 0.  1.
         23    2    1    2    0    0  0.00000000000E+00  0.00000000000E+00  0.30605874854E+03  0.33151854515E+03  0.12740717494E+03 0.  0.
        -13    1    3    3    0    0  0.31947956384E+02  0.46487803700E+02  0.76000237932E+02  0.94645781605E+02  0.00000000000E+00 0.  1.
         13    1    3    3    0    0 -0.31947956384E+02 -0.46487803700E+02  0.23005851060E+03  0.23687276355E+03  0.00000000000E+00 0. -1.
<mgrwt>
<rscale>  0 0.12740717E+03</rscale>
<asrwt>0</asrwt>
<pdfrwt beam="2">  1        2 0.19584461E-02 0.12740717E+03</pdfrwt>
<pdfrwt beam="1">  1       -2 0.49044401E-01 0.12740717E+03</pdfrwt>
<totfact> 0.20672964E+04</totfact>
</mgrwt>
</event>
<event>
 5    1  0.6046470E+000  0.9089201E+02  0.7546771E-02  0.1300706E+00
          2   -1    0    0  501    0  0.00000000000E+00  0.00000000000E+00  0.48988272263E+02  0.48988272263E+02  0.00000000000E+00 0. -1.
         -2   -1    0    0    0  501 -0.00000000000E+00 -0.00000000000E+00 -0.42159869548E+02  0.42159869548E+02  0.00000000000E+00 0.  1.
         23    2    1    2    0    0  0.00000000000E+00  0.00000000000E+00  0.68284027153E+01  0.91148141811E+02  0.90892005545E+02 0.  0.
        -13    1    3    3    0    0 -0.22478656272E+02 -0.39180749207E+02  0.84200688515E+01  0.45949087648E+02  0.00000000000E+00 0.  1.
         13    1    3    3    0    0  0.22478656272E+02  0.39180749207E+02 -0.15916661362E+01  0.45199054164E+02  0.00000000000E+00 0. -1.
<mgrwt>
<rscale>  0 0.90892006E+02</rscale>
<asrwt>0</asrwt>
<pdfrwt beam="1">  1        2 0.75366572E-02 0.90892006E+02</pdfrwt>
<pdfrwt beam="2">  1       -2 0.64861338E-02 0.90892006E+02</pdfrwt>
<totfact> 0.10144103E+05</totfact>
</mgrwt>
</event>
<event>
 5    1  0.6046470E+000  0.9095394E+02  0.7546771E-02  0.1300558E+00
          2   -1    0    0  501    0  0.00000000000E+00  0.00000000000E+00  0.53470506106E+02  0.53470506106E+02  0.00000000000E+00 0. -1.
         -2   -1    0    0    0  501 -0.00000000000E+00 -0.00000000000E+00 -0.38678424838E+02  0.38678424838E+02  0.00000000000E+00 0.  1.
         23    2    1    2    0    0  0.00000000000E+00  0.00000000000E+00  0.14792081268E+02  0.92148930945E+02  0.90953943323E+02 0.  0.
        -13    1    3    3    0    0  0.96771656721E+01 -0.88765728587E+01 -0.36715798226E+02  0.38993472794E+02  0.00000000000E+00 0.  1.
         13    1    3    3    0    0 -0.96771656721E+01  0.88765728587E+01  0.51507879495E+02  0.53155458150E+02  0.00000000000E+00 0. -1.
<mgrwt>
<rscale>  0 0.90953943E+02</rscale>
<asrwt>0</asrwt>
<pdfrwt beam="1">  1        2 0.82262318E-02 0.90953943E+02</pdfrwt>
<pdfrwt beam="2">  1       -2 0.59505269E-02 0.90953943E+02</pdfrwt>
<totfact> 0.10359004E+05</totfact>
</mgrwt>
</event>
<event>
 5    1  0.6046470E+000  0.9129447E+02  0.7546771E-02  0.1299747E+00
         -1   -1    0    0    0  501 -0.00000000000E+00  0.00000000000E+00  0.62649238817E+02  0.62649238817E+02  0.00000000000E+00 0.  1.
          1   -1    0    0  501    0  0.00000000000E+00 -0.00000000000E+00 -0.33259303029E+02  0.33259303029E+02  0.00000000000E+00 0. -1.
         23    2    1    2    0    0  0.00000000000E+00  0.00000000000E+00  0.29389935788E+02  0.95908541847E+02  0.91294469019E+02 0.  0.
        -13    1    3    3    0    0  0.26555921282E+02  0.93678894019E+01 -0.23047018582E+02  0.36388725898E+02  0.00000000000E+00 0. -1.
         13    1    3    3    0    0 -0.26555921282E+02 -0.93678894019E+01  0.52436954370E+02  0.59519815949E+02  0.00000000000E+00 0.  1.
<mgrwt>
<rscale>  0 0.91294469E+02</rscale>
<asrwt>0</asrwt>
<pdfrwt beam="2">  1        1 0.51168159E-02 0.91294469E+02</pdfrwt>
<pdfrwt beam="1">  1       -1 0.96383444E-02 0.91294469E+02</pdfrwt>
<totfact> 0.87794824E+04</totfact>
</mgrwt>
</event>
<event>
 5    1  0.6046470E+000  0.8957968E+02  0.7546771E-02  0.1303873E+00
         -1   -1    0    0    0  501 -0.00000000000E+00  0.00000000000E+00  0.18335166276E+03  0.18335166276E+03  0.00000000000E+00 0.  1.
          1   -1    0    0  501    0  0.00000000000E+00 -0.00000000000E+00 -0.10941432160E+02  0.10941432160E+02  0.00000000000E+00 0. -1.
         23    2    1    2    0    0  0.00000000000E+00  0.00000000000E+00  0.17241023060E+03  0.19429309492E+03  0.89579680273E+02 0.  0.
        -13    1    3    3    0    0 -0.53264650139E+01  0.43618509347E+02  0.67398478934E+02  0.80458067027E+02  0.00000000000E+00 0.  1.
         13    1    3    3    0    0  0.53264650139E+01 -0.43618509347E+02  0.10501175167E+03  0.11383502789E+03  0.00000000000E+00 0. -1.
<mgrwt>
<rscale>  0 0.89579680E+02</rscale>
<asrwt>0</asrwt>
<pdfrwt beam="2">  1        1 0.16832974E-02 0.89579680E+02</pdfrwt>
<pdfrwt beam="1">  1       -1 0.28207946E-01 0.89579680E+02</pdfrwt>
<totfact> 0.74461429E+04</totfact>
</mgrwt>
</event>
<event>
 5    1  0.6046470E+000  0.9442890E+02  0.7546771E-02  0.1292468E+00
          1   -1    0    0  501    0  0.00000000000E+00  0.00000000000E+00  0.14791637923E+03  0.14791637923E+03  0.00000000000E+00 0. -1.
         -1   -1    0    0    0  501 -0.00000000000E+00 -0.00000000000E+00 -0.15070707696E+02  0.15070707696E+02  0.00000000000E+00 0.  1.
         23    2    1    2    0    0  0.00000000000E+00  0.00000000000E+00  0.13284567153E+03  0.16298708692E+03  0.94428904786E+02 0.  0.
        -13    1    3    3    0    0 -0.29779975234E+02 -0.16944511989E+02  0.12249200156E+03  0.12719376502E+03  0.00000000000E+00 0. -1.
         13    1    3    3    0    0  0.29779975234E+02  0.16944511989E+02  0.10353669968E+02  0.35793321909E+02  0.00000000000E+00 0.  1.
<mgrwt>
<rscale>  0 0.94428905E+02</rscale>
<asrwt>0</asrwt>
<pdfrwt beam="1">  1        1 0.22756365E-01 0.94428905E+02</pdfrwt>
<pdfrwt beam="2">  1       -1 0.23185705E-02 0.94428905E+02</pdfrwt>
<totfact> 0.10172457E+05</totfact>
</mgrwt>
</event>
<event>
 5    1  0.6046470E+000  0.9230494E+02  0.7546771E-02  0.1297364E+00
          2   -1    0    0  501    0  0.00000000000E+00  0.00000000000E+00  0.33369998994E+03  0.33369998994E+03  0.00000000000E+00 0. -1.
         -2   -1    0    0    0  501 -0.00000000000E+00 -0.00000000000E+00 -0.63831308674E+01  0.63831308674E+01  0.00000000000E+00 0.  1.
         23    2    1    2    0    0  0.00000000000E+00  0.00000000000E+00  0.32731685907E+03  0.34008312081E+03  0.92304944748E+02 0.  0.
        -13    1    3    3    0    0  0.24849057809E+02 -0.38456138130E+02  0.14227003903E+03  0.14945606123E+03  0.00000000000E+00 0.  1.
         13    1    3    3    0    0 -0.24849057809E+02  0.38456138130E+02  0.18504682005E+03  0.19062705958E+03  0.00000000000E+00 0. -1.
<mgrwt>
<rscale>  0 0.92304945E+02</rscale>
<asrwt>0</asrwt>
<pdfrwt beam="1">  1        2 0.51338446E-01 0.92304945E+02</pdfrwt>
<pdfrwt beam="2">  1       -2 0.98202039E-03 0.92304945E+02</pdfrwt>
<totfact> 0.18086533E+05</totfact>
</mgrwt>
</event>
<event>
 5    1  0.6046470E+000  0.7762006E+02  0.7546771E-02  0.1335944E+00
         -1   -1    0    0    0  501 -0.00000000000E+00  0.00000000000E+00  0.12403964064E+03  0.12403964064E+03  0.00000000000E+00 0. -1.
          1   -1    0    0  501    0  0.00000000000E+00 -0.00000000000E+00 -0.12143042051E+02  0.12143042051E+02  0.00000000000E+00 0.  1.
         23    2    1    2    0    0  0.00000000000E+00  0.00000000000E+00  0.11189659859E+03  0.13618268269E+03  0.77620063705E+02 0.  0.
        -13    1    3    3    0    0  0.31084358322E+02  0.23217226359E+02  0.54245786441E+02  0.66692445440E+02  0.00000000000E+00 0.  1.
         13    1    3    3    0    0 -0.31084358322E+02 -0.23217226359E+02  0.57650812151E+02  0.69490237255E+02  0.00000000000E+00 0. -1.
<mgrwt>
<rscale>  0 0.77620064E+02</rscale>
<asrwt>0</asrwt>
<pdfrwt beam="2">  1        1 0.18681604E-02 0.77620064E+02</pdfrwt>
<pdfrwt beam="1">  1       -1 0.19083021E-01 0.77620064E+02</pdfrwt>
<totfact> 0.11807323E+05</totfact>
</mgrwt>
</event>
<event>
 5    1  0.6046470E+000  0.9053476E+02  0.7546771E-02  0.1301562E+00
         -2   -1    0    0    0  501 -0.00000000000E+00  0.00000000000E+00  0.40589590082E+01  0.40589590082E+01  0.00000000000E+00 0.  1.
          2   -1    0    0  501    0  0.00000000000E+00 -0.00000000000E+00 -0.50484268726E+03  0.50484268726E+03  0.00000000000E+00 0. -1.
         23    2    1    2    0    0  0.00000000000E+00  0.00000000000E+00 -0.50078372825E+03  0.50890164627E+03  0.90534761792E+02 0.  0.
        -13    1    3    3    0    0 -0.23399630419E+02  0.38635773121E+02 -0.23365080746E+03  0.23797681714E+03  0.00000000000E+00 0.  1.
         13    1    3    3    0    0  0.23399630419E+02 -0.38635773121E+02 -0.26713292079E+03  0.27092482913E+03  0.00000000000E+00 0. -1.
<mgrwt>
<rscale>  0 0.90534762E+02</rscale>
<asrwt>0</asrwt>
<pdfrwt beam="2">  1        2 0.77668090E-01 0.90534762E+02</pdfrwt>
<pdfrwt beam="1">  1       -2 0.62445536E-03 0.90534762E+02</pdfrwt>
<totfact> 0.22024911E+05</totfact>
</mgrwt>
</event>
<event>
 5    1  0.6046470E+000  0.8780048E+02  0.7546771E-02  0.1308267E+00
          1   -1    0    0  501    0  0.00000000000E+00  0.00000000000E+00  0.63376709117E+02  0.63376709117E+02  0.00000000000E+00 0. -1.
         -1   -1    0    0    0  501 -0.00000000000E+00 -0.00000000000E+00 -0.30409136680E+02  0.30409136680E+02  0.00000000000E+00 0.  1.
         23    2    1    2    0    0  0.00000000000E+00  0.00000000000E+00  0.32967572436E+02  0.93785845797E+02  0.87800478584E+02 0.  0.
        -13    1    3    3    0    0 -0.22961529901E+02  0.34396593997E+02  0.75324604254E+00  0.41363328126E+02  0.00000000000E+00 0.  1.
         13    1    3    3    0    0  0.22961529901E+02 -0.34396593997E+02  0.32214326394E+02  0.52422517672E+02  0.00000000000E+00 0. -1.
<mgrwt>
<rscale>  0 0.87800479E+02</rscale>
<asrwt>0</asrwt>
<pdfrwt beam="1">  1        1 0.97502629E-02 0.87800479E+02</pdfrwt>
<pdfrwt beam="2">  1       -1 0.46783288E-02 0.87800479E+02</pdfrwt>
<totfact> 0.10783344E+05</totfact>
</mgrwt>
</event>
<event>
 5    1  0.6046470E+000  0.9088647E+02  0.7546771E-02  0.1300719E+00
          1   -1    0    0  501    0  0.00000000000E+00  0.00000000000E+00  0.50085138153E+02  0.50085138153E+02  0.00000000000E+00 0. -1.
         -1   -1    0    0    0  501 -0.00000000000E+00 -0.00000000000E+00 -0.41231545642E+02  0.41231545642E+02  0.00000000000E+00 0.  1.
         23    2    1    2    0    0  0.00000000000E+00  0.00000000000E+00  0.88535925111E+01  0.91316683795E+02  0.90886471155E+02 0.  0.
        -13    1    3    3    0    0  0.32472303708E+02 -0.25110140667E+02  0.24015698575E+02  0.47557580368E+02  0.00000000000E+00 0. -1.
         13    1    3    3    0    0 -0.32472303708E+02  0.25110140667E+02 -0.15162106064E+02  0.43759103427E+02  0.00000000000E+00 0.  1.
<mgrwt>
<rscale>  0 0.90886471E+02</rscale>
<asrwt>0</asrwt>
<pdfrwt beam="1">  1        1 0.77054059E-02 0.90886471E+02</pdfrwt>
<pdfrwt beam="2">  1       -1 0.63433147E-02 0.90886471E+02</pdfrwt>
<totfact> 0.94627525E+04</totfact>
</mgrwt>
</event>
<event>
 5    1  0.6046470E+000  0.9040715E+02  0.7546771E-02  0.1301869E+00
          2   -1    0    0  501    0  0.00000000000E+00  0.00000000000E+00  0.71428702209E+02  0.71428702209E+02  0.00000000000E+00 0. -1.
         -2   -1    0    0    0  501 -0.00000000000E+00 -0.00000000000E+00 -0.28607035026E+02  0.28607035026E+02  0.00000000000E+00 0.  1.
         23    2    1    2    0    0  0.00000000000E+00  0.00000000000E+00  0.42821667183E+02  0.10003573723E+03  0.90407154273E+02 0.  0.
        -13    1    3    3    0    0 -0.25236331502E+02 -0.24629715505E+02 -0.98832010335E+01  0.36622028565E+02  0.00000000000E+00 0.  1.
         13    1    3    3    0    0  0.25236331502E+02  0.24629715505E+02  0.52704868217E+02  0.63413708670E+02  0.00000000000E+00 0. -1.
<mgrwt>
<rscale>  0 0.90407154E+02</rscale>
<asrwt>0</asrwt>
<pdfrwt beam="1">  1        2 0.10989031E-01 0.90407154E+02</pdfrwt>
<pdfrwt beam="2">  1       -2 0.44010823E-02 0.90407154E+02</pdfrwt>
<totfact> 0.11390546E+05</totfact>
</mgrwt>
</event>
<event>
 5    1  0.6046470E+000  0.9122384E+02  0.7546771E-02  0.1299915E+00
         -2   -1    0    0    0  501 -0.00000000000E+00  0.00000000000E+00  0.70502473889E+02  0.70502473889E+02  0.00000000000E+00 0.  1.
          2   -1    0    0  501    0  0.00000000000E+00 -0.00000000000E+00 -0.29508852464E+02  0.29508852464E+02  0.00000000000E+00 0. -1.
         23    2    1    2    0    0  0.00000000000E+00  0.00000000000E+00  0.40993621425E+02  0.10001132635E+03  0.91223836804E+02 0.  0.
        -13    1    3    3    0    0 -0.38057687833E+02 -0.14582466868E+02  0.42949111010E+02  0.59208631801E+02  0.00000000000E+00 0.  1.
         13    1    3    3    0    0  0.38057687833E+02  0.14582466868E+02 -0.19554895846E+01  0.40802694552E+02  0.00000000000E+00 0. -1.
<mgrwt>
<rscale>  0 0.91223837E+02</rscale>
<asrwt>0</asrwt>
<pdfrwt beam="2">  1        2 0.45398235E-02 0.91223837E+02</pdfrwt>
<pdfrwt beam="1">  1       -2 0.10846534E-01 0.91223837E+02</pdfrwt>
<totfact> 0.87941413E+04</totfact>
</mgrwt>
</event>
<event>
 5    1  0.6046470E+000  0.9036625E+02  0.7546771E-02  0.1301967E+00
          3   -1    0    0  501    0  0.00000000000E+00  0.00000000000E+00  0.68278178288E+01  0.68278178288E+01  0.00000000000E+00 0. -1.
         -3   -1    0    0    0  501 -0.00000000000E+00 -0.00000000000E+00 -0.29899956815E+03  0.29899956815E+03  0.00000000000E+00 0.  1.
         23    2    1    2    0    0  0.00000000000E+00  0.00000000000E+00 -0.29217175033E+03  0.30582738598E+03  0.90366245518E+02 0.  0.
        -13    1    3    3    0    0  0.36806344266E+02 -0.14180649926E+02 -0.71499125185E+02  0.81657349410E+02  0.00000000000E+00 0. -1.
         13    1    3    3    0    0 -0.36806344266E+02  0.14180649926E+02 -0.22067262514E+03  0.22417003657E+03  0.00000000000E+00 0.  1.
<mgrwt>
<rscale>  0 0.90366246E+02</rscale>
<asrwt>0</asrwt>
<pdfrwt beam="1">  1        3 0.10504336E-02 0.90366246E+02</pdfrwt>
<pdfrwt beam="2">  1       -3 0.45999932E-01 0.90366246E+02</pdfrwt>
<totfact> 0.24375718E+04</totfact>
</mgrwt>
</event>
<event>
 5    1  0.6046470E+000  0.9056880E+02  0.7546771E-02  0.1301480E+00
          3   -1    0    0  501    0  0.00000000000E+00  0.00000000000E+00  0.11941143536E+03  0.11941143536E+03  0.00000000000E+00 0. -1.
         -3   -1    0    0    0  501 -0.00000000000E+00 -0.00000000000E+00 -0.17173204974E+02  0.17173204974E+02  0.00000000000E+00 0.  1.
         23    2    1    2    0    0  0.00000000000E+00  0.00000000000E+00  0.10223823039E+03  0.13658464034E+03  0.90568803807E+02 0.  0.
        -13    1    3    3    0    0  0.22753318273E+01 -0.44816694807E+02  0.60287893317E+02  0.75155461206E+02  0.00000000000E+00 0. -1.
         13    1    3    3    0    0 -0.22753318273E+01  0.44816694807E+02  0.41950337071E+02  0.61429179131E+02  0.00000000000E+00 0.  1.
<mgrwt>
<rscale>  0 0.90568804E+02</rscale>
<asrwt>0</asrwt>
<pdfrwt beam="1">  1        3 0.18370990E-01 0.90568804E+02</pdfrwt>
<pdfrwt beam="2">  1       -3 0.26420316E-02 0.90568804E+02</pdfrwt>
<totfact> 0.32735770E+04</totfact>
</mgrwt>
</event>
<event>
 5    1  0.6046470E+000  0.9060834E+02  0.7546771E-02  0.1301385E+00
          2   -1    0    0  501    0  0.00000000000E+00  0.00000000000E+00  0.36162334750E+02  0.36162334750E+02  0.00000000000E+00 0.  1.
         -2   -1    0    0    0  501 -0.00000000000E+00 -0.00000000000E+00 -0.56757058572E+02  0.56757058572E+02  0.00000000000E+00 0. -1.
         23    2    1    2    0    0  0.00000000000E+00  0.00000000000E+00 -0.20594723822E+02  0.92919393322E+02  0.90608338501E+02 0.  0.
        -13    1    3    3    0    0  0.11466474283E+02  0.23228182627E+02 -0.48413078983E+02  0.54907692696E+02  0.00000000000E+00 0. -1.
         13    1    3    3    0    0 -0.11466474283E+02 -0.23228182627E+02  0.27818355161E+02  0.38011700626E+02  0.00000000000E+00 0.  1.
<mgrwt>
<rscale>  0 0.90608339E+02</rscale>
<asrwt>0</asrwt>
<pdfrwt beam="1">  1        2 0.55634361E-02 0.90608339E+02</pdfrwt>
<pdfrwt beam="2">  1       -2 0.87318552E-02 0.90608339E+02</pdfrwt>
<totfact> 0.94636303E+04</totfact>
</mgrwt>
</event>
<event>
 5    1  0.6046470E+000  0.9093715E+02  0.7546771E-02  0.1300598E+00
          1   -1    0    0  501    0  0.00000000000E+00  0.00000000000E+00  0.14517100244E+02  0.14517100244E+02  0.00000000000E+00 0. -1.
         -1   -1    0    0    0  501 -0.00000000000E+00 -0.00000000000E+00 -0.14241075789E+03  0.14241075789E+03  0.00000000000E+00 0.  1.
         23    2    1    2    0    0  0.00000000000E+00  0.00000000000E+00 -0.12789365765E+03  0.15692785813E+03  0.90937148585E+02 0.  0.
        -13    1    3    3    0    0 -0.21745960186E+02 -0.23755811120E+02 -0.85592603157E+01  0.33323959602E+02  0.00000000000E+00 0. -1.
         13    1    3    3    0    0  0.21745960186E+02  0.23755811120E+02 -0.11933439733E+03  0.12360389853E+03  0.00000000000E+00 0.  1.
<mgrwt>
<rscale>  0 0.90937149E+02</rscale>
<asrwt>0</asrwt>
<pdfrwt beam="1">  1        1 0.22334000E-02 0.90937149E+02</pdfrwt>
<pdfrwt beam="2">  1       -1 0.21909348E-01 0.90937149E+02</pdfrwt>
<totfact> 0.76206775E+04</totfact>
</mgrwt>
</event>
<event>
 5    1  0.6046470E+000  0.9095218E+02  0.7546771E-02  0.1300562E+00
         -3   -1    0    0    0  501 -0.00000000000E+00  0.00000000000E+00  0.11452069839E+03  0.11452069839E+03  0.00000000000E+00 0.  1.
          3   -1    0    0  501    0  0.00000000000E+00 -0.00000000000E+00 -0.18058522139E+02  0.18058522139E+02  0.00000000000E+00 0. -1.
         23    2    1    2    0    0  0.00000000000E+00  0.00000000000E+00  0.96462176256E+02  0.13257922053E+03  0.90952175726E+02 0.  0.
        -13    1    3    3    0    0 -0.42672243280E+02 -0.28149009223E+01  0.70777149841E+02  0.82693705645E+02  0.00000000000E+00 0.  1.
         13    1    3    3    0    0  0.42672243280E+02  0.28149009223E+01  0.25685026415E+02  0.49885514888E+02  0.00000000000E+00 0. -1.
<mgrwt>
<rscale>  0 0.90952176E+02</rscale>
<asrwt>0</asrwt>
<pdfrwt beam="2">  1        3 0.27782343E-02 0.90952176E+02</pdfrwt>
<pdfrwt beam="1">  1       -3 0.17618568E-01 0.90952176E+02</pdfrwt>
<totfact> 0.32626203E+04</totfact>
</mgrwt>
</event>
<event>
 5    1  0.6046470E+000  0.8828489E+02  0.7546771E-02  0.1307059E+00
         -2   -1    0    0    0  501 -0.00000000000E+00  0.00000000000E+00  0.83526431678E+02  0.83526431678E+02  0.00000000000E+00 0.  1.
          2   -1    0    0  501    0  0.00000000000E+00 -0.00000000000E+00 -0.23328609578E+02  0.23328609578E+02  0.00000000000E+00 0. -1.
         23    2    1    2    0    0  0.00000000000E+00  0.00000000000E+00  0.60197822100E+02  0.10685504126E+03  0.88284891437E+02 0.  0.
        -13    1    3    3    0    0  0.42626425657E+02  0.41391852645E+01  0.43045088678E+02  0.60720875144E+02  0.00000000000E+00 0.  1.
         13    1    3    3    0    0 -0.42626425657E+02 -0.41391852645E+01  0.17152733422E+02  0.46134166111E+02  0.00000000000E+00 0. -1.
<mgrwt>
<rscale>  0 0.88284891E+02</rscale>
<asrwt>0</asrwt>
<pdfrwt beam="2">  1        2 0.35890169E-02 0.88284891E+02</pdfrwt>
<pdfrwt beam="1">  1       -2 0.12850220E-01 0.88284891E+02</pdfrwt>
<totfact> 0.91009325E+04</totfact>
</mgrwt>
</event>
<event>
 5    1  0.6046470E+000  0.9078548E+02  0.7546771E-02  0.1300961E+00
         -1   -1    0    0    0  501 -0.00000000000E+00  0.00000000000E+00  0.14651262178E+02  0.14651262178E+02  0.00000000000E+00 0.  1.
          1   -1    0    0  501    0  0.00000000000E+00 -0.00000000000E+00 -0.14063642016E+03  0.14063642016E+03  0.00000000000E+00 0. -1.
         23    2    1    2    0    0  0.00000000000E+00  0.00000000000E+00 -0.12598515798E+03  0.15528768234E+03  0.90785484822E+02 0.  0.
        -13    1    3    3    0    0 -0.35899696265E+02  0.60383959660E+01 -0.10937338572E+03  0.11527266771E+03  0.00000000000E+00 0. -1.
         13    1    3    3    0    0  0.35899696265E+02 -0.60383959660E+01 -0.16611772261E+02  0.40015014625E+02  0.00000000000E+00 0.  1.
<mgrwt>
<rscale>  0 0.90785485E+02</rscale>
<asrwt>0</asrwt>
<pdfrwt beam="2">  1        1 0.21636373E-01 0.90785485E+02</pdfrwt>
<pdfrwt beam="1">  1       -1 0.22540403E-02 0.90785485E+02</pdfrwt>
<totfact> 0.11211580E+05</totfact>
</mgrwt>
</event>
<event>
 5    1  0.6046470E+000  0.8872647E+02  0.7546771E-02  0.1305965E+00
         -3   -1    0    0    0  501 -0.00000000000E+00  0.00000000000E+00  0.13032411000E+03  0.13032411000E+03  0.00000000000E+00 0.  1.
          3   -1    0    0  501    0  0.00000000000E+00 -0.00000000000E+00 -0.15101554952E+02  0.15101554952E+02  0.00000000000E+00 0. -1.
         23    2    1    2    0    0  0.00000000000E+00  0.00000000000E+00  0.11522255505E+03  0.14542566495E+03  0.88726472008E+02 0.  0.
        -13    1    3    3    0    0 -0.19394575402E+02 -0.96977243318E+01 -0.58237953915E+01  0.22452438732E+02  0.00000000000E+00 0. -1.
         13    1    3    3    0    0  0.19394575402E+02  0.96977243318E+01  0.12104635044E+03  0.12297322622E+03  0.00000000000E+00 0.  1.
<mgrwt>
<rscale>  0 0.88726472E+02</rscale>
<asrwt>0</asrwt>
<pdfrwt beam="2">  1        3 0.23233162E-02 0.88726472E+02</pdfrwt>
<pdfrwt beam="1">  1       -3 0.20049862E-01 0.88726472E+02</pdfrwt>
<totfact> 0.34002522E+04</totfact>
</mgrwt>
</event>
<event>
 5    1  0.6046470E+000  0.9340776E+02  0.7546771E-02  0.1294803E+00
          4   -1    0    0  501    0  0.00000000000E+00  0.00000000000E+00  0.67937068985E+02  0.67937068985E+02  0.00000000000E+00 0. -1.
         -4   -1    0    0    0  501 -0.00000000000E+00 -0.00000000000E+00 -0.32106957345E+02  0.32106957345E+02  0.00000000000E+00 0.  1.
         23    2    1    2    0    0  0.00000000000E+00  0.00000000000E+00  0.35830111640E+02  0.10004402633E+03  0.93407763619E+02 0.  0.
        -13    1    3    3    0    0 -0.56246965167E+01  0.35582693385E+02  0.49750311503E+02  0.61423601117E+02  0.00000000000E+00 0. -1.
         13    1    3    3    0    0  0.56246965167E+01 -0.35582693385E+02 -0.13920199863E+02  0.38620425214E+02  0.00000000000E+00 0.  1.
<mgrwt>
<rscale>  0 0.93407764E+02</rscale>
<asrwt>0</asrwt>
<pdfrwt beam="1">  1        4 0.10451857E-01 0.93407764E+02</pdfrwt>
<pdfrwt beam="2">  1       -4 0.49395319E-02 0.93407764E+02</pdfrwt>
<totfact> 0.24771934E+04</totfact>
</mgrwt>
</event>
<event>
 5    1  0.6046470E+000  0.7984698E+02  0.7546771E-02  0.1329486E+00
          1   -1    0    0  501    0  0.00000000000E+00  0.00000000000E+00  0.23014587985E+02  0.23014587985E+02  0.00000000000E+00 0. -1.
         -1   -1    0    0    0  501 -0.00000000000E+00 -0.00000000000E+00 -0.69255429956E+02  0.69255429956E+02  0.00000000000E+00 0.  1.
         23    2    1    2    0    0  0.00000000000E+00  0.00000000000E+00 -0.46240841971E+02  0.92270017941E+02  0.79846983316E+02 0.  0.
        -13    1    3    3    0    0 -0.23718955347E+02  0.18745173569E+02 -0.53252517044E+02  0.61235618282E+02  0.00000000000E+00 0.  1.
         13    1    3    3    0    0  0.23718955347E+02 -0.18745173569E+02  0.70116750722E+01  0.31034399659E+02  0.00000000000E+00 0. -1.
<mgrwt>
<rscale>  0 0.79846983E+02</rscale>
<asrwt>0</asrwt>
<pdfrwt beam="1">  1        1 0.35407058E-02 0.79846983E+02</pdfrwt>
<pdfrwt beam="2">  1       -1 0.10654682E-01 0.79846983E+02</pdfrwt>
<totfact> 0.12148981E+05</totfact>
</mgrwt>
</event>
<event>
 5    1  0.6046470E+000  0.9858877E+02  0.7546771E-02  0.1283292E+00
         -3   -1    0    0    0  501 -0.00000000000E+00  0.00000000000E+00  0.59907447310E+02  0.59907447310E+02  0.00000000000E+00 0.  1.
          3   -1    0    0  501    0  0.00000000000E+00 -0.00000000000E+00 -0.40561507252E+02  0.40561507252E+02  0.00000000000E+00 0. -1.
         23    2    1    2    0    0  0.00000000000E+00  0.00000000000E+00  0.19345940059E+02  0.10046895456E+03  0.98588769310E+02 0.  0.
        -13    1    3    3    0    0  0.86880287301E+01 -0.10937221857E+02  0.57848538577E+02  0.59510991260E+02  0.00000000000E+00 0.  1.
         13    1    3    3    0    0 -0.86880287301E+01  0.10937221857E+02 -0.38502598519E+02  0.40957963302E+02  0.00000000000E+00 0. -1.
<mgrwt>
<rscale>  0 0.98588769E+02</rscale>
<asrwt>0</asrwt>
<pdfrwt beam="2">  1        3 0.62402319E-02 0.98588769E+02</pdfrwt>
<pdfrwt beam="1">  1       -3 0.92165304E-02 0.98588769E+02</pdfrwt>
<totfact> 0.27965942E+04</totfact>
</mgrwt>
</event>
<event>
 5    1  0.6046470E+000  0.8949908E+02  0.7546771E-02  0.1304069E+00
         -1   -1    0    0    0  501 -0.00000000000E+00  0.00000000000E+00  0.34477100735E+02  0.34477100735E+02  0.00000000000E+00 0.  1.
          1   -1    0    0  501    0  0.00000000000E+00 -0.00000000000E+00 -0.58082643220E+02  0.58082643220E+02  0.00000000000E+00 0. -1.
         23    2    1    2    0    0  0.00000000000E+00  0.00000000000E+00 -0.23605542485E+02  0.92559743955E+02  0.89499075778E+02 0.  0.
        -13    1    3    3    0    0 -0.36561125680E+02  0.23919648009E+02 -0.21811308960E+02  0.48832352702E+02  0.00000000000E+00 0. -1.
         13    1    3    3    0    0  0.36561125680E+02 -0.23919648009E+02 -0.17942335247E+01  0.43727391253E+02  0.00000000000E+00 0.  1.
<mgrwt>
<rscale>  0 0.89499076E+02</rscale>
<asrwt>0</asrwt>
<pdfrwt beam="2">  1        1 0.89357912E-02 0.89499076E+02</pdfrwt>
<pdfrwt beam="1">  1       -1 0.53041694E-02 0.89499076E+02</pdfrwt>
<totfact> 0.10096440E+05</totfact>
</mgrwt>
</event>
<event>
 5    1  0.6046470E+000  0.8141114E+02  0.7546771E-02  0.1325094E+00
          1   -1    0    0  501    0  0.00000000000E+00  0.00000000000E+00  0.97569166584E+02  0.97569166584E+02  0.00000000000E+00 0. -1.
         -1   -1    0    0    0  501 -0.00000000000E+00 -0.00000000000E+00 -0.16982242998E+02  0.16982242998E+02  0.00000000000E+00 0.  1.
         23    2    1    2    0    0  0.00000000000E+00  0.00000000000E+00  0.80586923585E+02  0.11455140958E+03  0.81411136733E+02 0.  0.
        -13    1    3    3    0    0 -0.31417741321E+02  0.93550316956E+01  0.74248911152E+02  0.81163365474E+02  0.00000000000E+00 0. -1.
         13    1    3    3    0    0  0.31417741321E+02 -0.93550316956E+01  0.63380124331E+01  0.33388044108E+02  0.00000000000E+00 0.  1.
<mgrwt>
<rscale>  0 0.81411137E+02</rscale>
<asrwt>0</asrwt>
<pdfrwt beam="1">  1        1 0.15010641E-01 0.81411137E+02</pdfrwt>
<pdfrwt beam="2">  1       -1 0.26126528E-02 0.81411137E+02</pdfrwt>
<totfact> 0.14134953E+05</totfact>
</mgrwt>
</event>
<event>
 5    1  0.6046470E+000  0.6241928E+02  0.7546771E-02  0.1387951E+00
         -2   -1    0    0    0  501 -0.00000000000E+00  0.00000000000E+00  0.58037665916E+02  0.58037665916E+02  0.00000000000E+00 0.  1.
          2   -1    0    0  501    0  0.00000000000E+00 -0.00000000000E+00 -0.16782924678E+02  0.16782924678E+02  0.00000000000E+00 0. -1.
         23    2    1    2    0    0  0.00000000000E+00  0.00000000000E+00  0.41254741238E+02  0.74820590594E+02  0.62419284698E+02 0.  0.
        -13    1    3    3    0    0 -0.18186440837E+02  0.23568979377E+00  0.51028430833E+02  0.54172898512E+02  0.00000000000E+00 0.  1.
         13    1    3    3    0    0  0.18186440837E+02 -0.23568979377E+00 -0.97736895949E+01  0.20647692082E+02  0.00000000000E+00 0. -1.
<mgrwt>
<rscale>  0 0.62419285E+02</rscale>
<asrwt>0</asrwt>
<pdfrwt beam="2">  1        2 0.25819884E-02 0.62419285E+02</pdfrwt>
<pdfrwt beam="1">  1       -2 0.89288716E-02 0.62419285E+02</pdfrwt>
<totfact> 0.23199282E+05</totfact>
</mgrwt>
</event>
<event>
 5    1  0.6046470E+000  0.8718553E+02  0.7546771E-02  0.1309814E+00
          2   -1    0    0  501    0  0.00000000000E+00  0.00000000000E+00  0.19190123490E+03  0.19190123490E+03  0.00000000000E+00 0. -1.
         -2   -1    0    0    0  501 -0.00000000000E+00 -0.00000000000E+00 -0.99026408423E+01  0.99026408423E+01  0.00000000000E+00 0.  1.
         23    2    1    2    0    0  0.00000000000E+00  0.00000000000E+00  0.18199859405E+03  0.20180387574E+03  0.87185526468E+02 0.  0.
        -13    1    3    3    0    0 -0.28664286227E+02  0.12551599361E+02  0.16124974871E+03  0.16425792343E+03  0.00000000000E+00 0. -1.
         13    1    3    3    0    0  0.28664286227E+02 -0.12551599361E+02  0.20748845343E+02  0.37545952305E+02  0.00000000000E+00 0.  1.
<mgrwt>
<rscale>  0 0.87185526E+02</rscale>
<asrwt>0</asrwt>
<pdfrwt beam="1">  1        2 0.29523264E-01 0.87185526E+02</pdfrwt>
<pdfrwt beam="2">  1       -2 0.15234834E-02 0.87185526E+02</pdfrwt>
<totfact> 0.17186272E+05</totfact>
</mgrwt>
</event>
<event>
 5    1  0.6046470E+000  0.9193234E+02  0.7546771E-02  0.1298239E+00
          1   -1    0    0  501    0  0.00000000000E+00  0.00000000000E+00  0.12124686294E+03  0.12124686294E+03  0.00000000000E+00 0. -1.
         -1   -1    0    0    0  501 -0.00000000000E+00 -0.00000000000E+00 -0.17426338047E+02  0.17426338047E+02  0.00000000000E+00 0.  1.
         23    2    1    2    0    0  0.00000000000E+00  0.00000000000E+00  0.10382052490E+03  0.13867320099E+03  0.91932340791E+02 0.  0.
        -13    1    3    3    0    0  0.21555303133E+02 -0.12108973408E+02 -0.65425969992E+01  0.25574673128E+02  0.00000000000E+00 0.  1.
         13    1    3    3    0    0 -0.21555303133E+02  0.12108973408E+02  0.11036312189E+03  0.11309852786E+03  0.00000000000E+00 0. -1.
<mgrwt>
<rscale>  0 0.91932341E+02</rscale>
<asrwt>0</asrwt>
<pdfrwt beam="1">  1        1 0.18653363E-01 0.91932341E+02</pdfrwt>
<pdfrwt beam="2">  1       -1 0.26809752E-02 0.91932341E+02</pdfrwt>
<totfact> 0.10554123E+05</totfact>
</mgrwt>
</event>
<event>
 5    1  0.6046470E+000  0.9142252E+02  0.7546771E-02  0.1299443E+00
         -2   -1    0    0    0  501 -0.00000000000E+00  0.00000000000E+00  0.12936759274E+02  0.12936759274E+02  0.00000000000E+00 0.  1.
          2   -1    0    0  501    0  0.00000000000E+00 -0.00000000000E+00 -0.16151797310E+03  0.16151797310E+03  0.00000000000E+00 0. -1.
         23    2    1    2    0    0  0.00000000000E+00  0.00000000000E+00 -0.14858121382E+03  0.17445473237E+03  0.91422516623E+02 0.  0.
        -13    1    3    3    0    0 -0.28413774719E+02  0.35538378808E+02 -0.65929145901E+02  0.80106000033E+02  0.00000000000E+00 0.  1.
         13    1    3    3    0    0  0.28413774719E+02 -0.35538378808E+02 -0.82652067921E+02  0.94348732337E+02  0.00000000000E+00 0. -1.
<mgrwt>
<rscale>  0 0.91422517E+02</rscale>
<asrwt>0</asrwt>
<pdfrwt beam="2">  1        2 0.24848919E-01 0.91422517E+02</pdfrwt>
<pdfrwt beam="1">  1       -2 0.19902707E-02 0.91422517E+02</pdfrwt>
<totfact> 0.14236118E+05</totfact>
</mgrwt>
</event>
<event>
 5    1  0.6046470E+000  0.8961490E+02  0.7546771E-02  0.1303787E+00
          1   -1    0    0  501    0  0.00000000000E+00  0.00000000000E+00  0.17600784109E+03  0.17600784109E+03  0.00000000000E+00 0. -1.
         -1   -1    0    0    0  501 -0.00000000000E+00 -0.00000000000E+00 -0.11406920592E+02  0.11406920592E+02  0.00000000000E+00 0.  1.
         23    2    1    2    0    0  0.00000000000E+00  0.00000000000E+00  0.16460092050E+03  0.18741476169E+03  0.89614897579E+02 0.  0.
        -13    1    3    3    0    0 -0.24447858241E+01  0.33648645772E+02  0.14396821796E+03  0.14786837431E+03  0.00000000000E+00 0. -1.
         13    1    3    3    0    0  0.24447858241E+01 -0.33648645772E+02  0.20632702542E+02  0.39546387372E+02  0.00000000000E+00 0.  1.
<mgrwt>
<rscale>  0 0.89614898E+02</rscale>
<asrwt>0</asrwt>
<pdfrwt beam="1">  1        1 0.27078127E-01 0.89614898E+02</pdfrwt>
<pdfrwt beam="2">  1       -1 0.17549110E-02 0.89614898E+02</pdfrwt>
<totfact> 0.12101505E+05</totfact>
</mgrwt>
</event>
<event>
 5    1  0.6046470E+000  0.8987960E+02  0.7546771E-02  0.1303144E+00
         -2   -1    0    0    0  501 -0.00000000000E+00  0.00000000000E+00  0.35516153069E+02  0.35516153069E+02  0.00000000000E+00 0. -1.
          2   -1    0    0  501    0  0.00000000000E+00 -0.00000000000E+00 -0.56863861278E+02  0.56863861278E+02  0.00000000000E+00 0.  1.
         23    2    1    2    0    0  0.00000000000E+00  0.00000000000E+00 -0.21347708209E+02  0.92380014346E+02  0.89879599492E+02 0.  0.
        -13    1    3    3    0    0 -0.12799476618E+02  0.41887040619E+02 -0.33239376111E+00  0.43800242683E+02  0.00000000000E+00 0. -1.
         13    1    3    3    0    0  0.12799476618E+02 -0.41887040619E+02 -0.21015314448E+02  0.48579771663E+02  0.00000000000E+00 0.  1.
<mgrwt>
<rscale>  0 0.89879599E+02</rscale>
<asrwt>0</asrwt>
<pdfrwt beam="2">  1        2 0.87482864E-02 0.89879599E+02</pdfrwt>
<pdfrwt beam="1">  1       -2 0.54640235E-02 0.89879599E+02</pdfrwt>
<totfact> 0.10887706E+05</totfact>
</mgrwt>
</event>
<event>
 5    1  0.6046470E+000  0.9083720E+02  0.7546771E-02  0.1300837E+00
          3   -1    0    0  501    0  0.00000000000E+00  0.00000000000E+00  0.83898305720E+02  0.83898305720E+02  0.00000000000E+00 0. -1.
         -3   -1    0    0    0  501 -0.00000000000E+00 -0.00000000000E+00 -0.24587494541E+02  0.24587494541E+02  0.00000000000E+00 0.  1.
         23    2    1    2    0    0  0.00000000000E+00  0.00000000000E+00  0.59310811179E+02  0.10848580026E+03  0.90837197973E+02 0.  0.
        -13    1    3    3    0    0  0.69039708735E+01  0.44220014878E+02  0.38888930445E+02  0.59291006407E+02  0.00000000000E+00 0. -1.
         13    1    3    3    0    0 -0.69039708735E+01 -0.44220014878E+02  0.20421880734E+02  0.49194793854E+02  0.00000000000E+00 0.  1.
<mgrwt>
<rscale>  0 0.90837198E+02</rscale>
<asrwt>0</asrwt>
<pdfrwt beam="1">  1        3 0.12907431E-01 0.90837198E+02</pdfrwt>
<pdfrwt beam="2">  1       -3 0.37826915E-02 0.90837198E+02</pdfrwt>
<totfact> 0.34400193E+04</totfact>
</mgrwt>
</event>
<event>
 5    1  0.6046470E+000  0.9307458E+02  0.7546771E-02  0.1295572E+00
         -2   -1    0    0    0  501 -0.00000000000E+00  0.00000000000E+00  0.94205346877E+02  0.94205346877E+02  0.00000000000E+00 0.  1.
          2   -1    0    0  501    0  0.00000000000E+00 -0.00000000000E+00 -0.22989344538E+02  0.22989344538E+02  0.00000000000E+00 0. -1.
         23    2    1    2    0    0  0.00000000000E+00  0.00000000000E+00  0.71216002339E+02  0.11719469142E+03  0.93074576049E+02 0.  0.
        -13    1    3    3    0    0 -0.37699361305E+02  0.22483565743E+02  0.55072601029E+02  0.70425449629E+02  0.00000000000E+00 0.  1.
         13    1    3    3    0    0  0.37699361305E+02 -0.22483565743E+02  0.16143401310E+02  0.46769241786E+02  0.00000000000E+00 0. -1.
<mgrwt>
<rscale>  0 0.93074576E+02</rscale>
<asrwt>0</asrwt>
<pdfrwt beam="2">  1        2 0.35368223E-02 0.93074576E+02</pdfrwt>
<pdfrwt beam="1">  1       -2 0.14493130E-01 0.93074576E+02</pdfrwt>
<totfact> 0.77175030E+04</totfact>
</mgrwt>
</event>
<event>
 5    1  0.6046470E+000  0.8996114E+02  0.7546771E-02  0.1302946E+00
         -3   -1    0    0    0  501 -0.00000000000E+00  0.00000000000E+00  0.92969802381E+01  0.92969802381E+01  0.00000000000E+00 0.  1.
          3   -1    0    0  501    0  0.00000000000E+00 -0.00000000000E+00 -0.21762461290E+03  0.21762461290E+03  0.00000000000E+00 0. -1.
         23    2    1    2    0    0  0.00000000000E+00  0.00000000000E+00 -0.20832763266E+03  0.22692159313E+03  0.89961141065E+02 0.  0.
        -13    1    3    3    0    0  0.20938049663E+02 -0.33085110206E+02 -0.48314389278E+02  0.62187672832E+02  0.00000000000E+00 0.  1.
         13    1    3    3    0    0 -0.20938049663E+02  0.33085110206E+02 -0.16001324338E+03  0.16473392030E+03  0.00000000000E+00 0. -1.
<mgrwt>
<rscale>  0 0.89961141E+02</rscale>
<asrwt>0</asrwt>
<pdfrwt beam="2">  1        3 0.33480707E-01 0.89961141E+02</pdfrwt>
<pdfrwt beam="1">  1       -3 0.14303048E-02 0.89961141E+02</pdfrwt>
<totfact> 0.28162233E+04</totfact>
</mgrwt>
</event>
<event>
 5    1  0.6046470E+000  0.9264291E+02  0.7546771E-02  0.1296575E+00
          2   -1    0    0  501    0  0.00000000000E+00  0.00000000000E+00  0.15409407782E+03  0.15409407782E+03  0.00000000000E+00 0.  1.
         -2   -1    0    0    0  501 -0.00000000000E+00 -0.00000000000E+00 -0.13924462687E+02  0.13924462687E+02  0.00000000000E+00 0. -1.
         23    2    1    2    0    0  0.00000000000E+00  0.00000000000E+00  0.14016961514E+03  0.16801854051E+03  0.92642910943E+02 0.  0.
        -13    1    3    3    0    0  0.23656573987E+02  0.11171659909E+02  0.13941229461E+03  0.14184578727E+03  0.00000000000E+00 0.  1.
         13    1    3    3    0    0 -0.23656573987E+02 -0.11171659909E+02  0.75732052817E+00  0.26172753243E+02  0.00000000000E+00 0. -1.
<mgrwt>
<rscale>  0 0.92642911E+02</rscale>
<asrwt>0</asrwt>
<pdfrwt beam="1">  1        2 0.23706780E-01 0.92642911E+02</pdfrwt>
<pdfrwt beam="2">  1       -2 0.21422251E-02 0.92642911E+02</pdfrwt>
<totfact> 0.13511555E+05</totfact>
</mgrwt>
</event>
<event>
 5    1  0.6046470E+000  0.9124240E+02  0.7546771E-02  0.1299871E+00
          3   -1    0    0  501    0  0.00000000000E+00  0.00000000000E+00  0.98561226856E+02  0.98561226856E+02  0.00000000000E+00 0. -1.
         -3   -1    0    0    0  501 -0.00000000000E+00 -0.00000000000E+00 -0.21116759923E+02  0.21116759923E+02  0.00000000000E+00 0.  1.
         23    2    1    2    0    0  0.00000000000E+00  0.00000000000E+00  0.77444466933E+02  0.11967798678E+03  0.91242397278E+02 0.  0.
        -13    1    3    3    0    0  0.25674103694E+02  0.31882548756E+02  0.12305050615E+02  0.42744248576E+02  0.00000000000E+00 0.  1.
         13    1    3    3    0    0 -0.25674103694E+02 -0.31882548756E+02  0.65139416318E+02  0.76933738203E+02  0.00000000000E+00 0. -1.
<mgrwt>
<rscale>  0 0.91242397E+02</rscale>
<asrwt>0</asrwt>
<pdfrwt beam="1">  1        3 0.15163265E-01 0.91242397E+02</pdfrwt>
<pdfrwt beam="2">  1       -3 0.32487323E-02 0.91242397E+02</pdfrwt>
<totfact> 0.33203317E+04</totfact>
</mgrwt>
</event>
<event>
 5    1  0.6046470E+000  0.9302786E+02  0.7546771E-02  0.1295681E+00
          2   -1    0    0  501    0  0.00000000000E+00  0.00000000000E+00  0.45202433863E+02  0.45202433863E+02  0.00000000000E+00 0. -1.
         -2   -1    0    0    0  501 -0.00000000000E+00 -0.00000000000E+00 -0.47863475700E+02  0.47863475700E+02  0.00000000000E+00 0.  1.
         23    2    1    2    0    0  0.00000000000E+00  0.00000000000E+00 -0.26610418367E+01  0.93065909563E+02  0.93027858081E+02 0.  0.
        -13    1    3    3    0    0 -0.83762810003E+01 -0.45408329389E+02  0.42813309131E+01  0.46372494602E+02  0.00000000000E+00 0. -1.
         13    1    3    3    0    0  0.83762810003E+01  0.45408329389E+02 -0.69423727498E+01  0.46693414960E+02  0.00000000000E+00 0.  1.
<mgrwt>
<rscale>  0 0.93027858E+02</rscale>
<asrwt>0</asrwt>
<pdfrwt beam="1">  1        2 0.69542206E-02 0.93027858E+02</pdfrwt>
<pdfrwt beam="2">  1       -2 0.73636117E-02 0.93027858E+02</pdfrwt>
<totfact> 0.92919928E+04</totfact>
</mgrwt>
</event>
<event>
 5    1  0.6046470E+000  0.8916305E+02  0.7546771E-02  0.1304891E+00
          2   -1    0    0  501    0  0.00000000000E+00  0.00000000000E+00  0.41262931018E+02  0.41262931018E+02  0.00000000000E+00 0. -1.
         -2   -1    0    0    0  501 -0.00000000000E+00 -0.00000000000E+00 -0.48167020881E+02  0.48167020881E+02  0.00000000000E+00 0.  1.
         23    2    1    2    0    0  0.00000000000E+00  0.00000000000E+00 -0.69040898633E+01  0.89429951899E+02  0.89163051988E+02 0.  0.
        -13    1    3    3    0    0 -0.27130982023E+02  0.31033014250E+02 -0.20484464584E+02  0.46029897331E+02  0.00000000000E+00 0.  1.
         13    1    3    3    0    0  0.27130982023E+02 -0.31033014250E+02  0.13580374720E+02  0.43400054568E+02  0.00000000000E+00 0. -1.
<mgrwt>
<rscale>  0 0.89163052E+02</rscale>
<asrwt>0</asrwt>
<pdfrwt beam="1">  1        2 0.63481432E-02 0.89163052E+02</pdfrwt>
<pdfrwt beam="2">  1       -2 0.74103109E-02 0.89163052E+02</pdfrwt>
<totfact> 0.10254923E+05</totfact>
</mgrwt>
</event>
<event>
 5    1  0.6046470E+000  0.8669267E+02  0.7546771E-02  0.1311064E+00
          1   -1    0    0  501    0  0.00000000000E+00  0.00000000000E+00  0.11869782425E+03  0.11869782425E+03  0.00000000000E+00 0. -1.
         -1   -1    0    0    0  501 -0.00000000000E+00 -0.00000000000E+00 -0.15829311766E+02  0.15829311766E+02  0.00000000000E+00 0.  1.
         23    2    1    2    0    0  0.00000000000E+00  0.00000000000E+00  0.10286851248E+03  0.13452713602E+03  0.86692672494E+02 0.  0.
        -13    1    3    3    0    0  0.17702661891E+02  0.13104253676E+02 -0.64989553844E+01  0.22963930925E+02  0.00000000000E+00 0.  1.
         13    1    3    3    0    0 -0.17702661891E+02 -0.13104253676E+02  0.10936746787E+03  0.11156320509E+03  0.00000000000E+00 0. -1.
<mgrwt>
<rscale>  0 0.86692672E+02</rscale>
<asrwt>0</asrwt>
<pdfrwt beam="1">  1        1 0.18261203E-01 0.86692672E+02</pdfrwt>
<pdfrwt beam="2">  1       -1 0.24352788E-02 0.86692672E+02</pdfrwt>
<totfact> 0.12323635E+05</totfact>
</mgrwt>
</event>
<event>
 5    1  0.6046470E+000  0.9629883E+02  0.7546771E-02  0.1288277E+00
         -2   -1    0    0    0  501 -0.00000000000E+00  0.00000000000E+00  0.12287033573E+03  0.12287033573E+03  0.00000000000E+00 0.  1.
          2   -1    0    0  501    0  0.00000000000E+00 -0.00000000000E+00 -0.18868395543E+02  0.18868395543E+02  0.00000000000E+00 0. -1.
         23    2    1    2    0    0  0.00000000000E+00  0.00000000000E+00  0.10400194019E+03  0.14173873128E+03  0.96298828552E+02 0.  0.
        -13    1    3    3    0    0 -0.29480816776E+02  0.81760321999E+01  0.10672579806E+03  0.11102415067E+03  0.00000000000E+00 0.  1.
         13    1    3    3    0    0  0.29480816776E+02 -0.81760321999E+01 -0.27238578667E+01  0.30714580609E+02  0.00000000000E+00 0. -1.
<mgrwt>
<rscale>  0 0.96298829E+02</rscale>
<asrwt>0</asrwt>
<pdfrwt beam="2">  1        2 0.29028302E-02 0.96298829E+02</pdfrwt>
<pdfrwt beam="1">  1       -2 0.18903128E-01 0.96298829E+02</pdfrwt>
<totfact> 0.65232007E+04</totfact>
</mgrwt>
</event>
<event>
 5    1  0.6046470E+000  0.8927423E+02  0.7546771E-02  0.1304619E+00
          2   -1    0    0  501    0  0.00000000000E+00  0.00000000000E+00  0.92843073161E+02  0.92843073161E+02  0.00000000000E+00 0.  1.
         -2   -1    0    0    0  501 -0.00000000000E+00 -0.00000000000E+00 -0.21460641247E+02  0.21460641247E+02  0.00000000000E+00 0. -1.
         23    2    1    2    0    0  0.00000000000E+00  0.00000000000E+00  0.71382431914E+02  0.11430371441E+03  0.89274226636E+02 0.  0.
        -13    1    3    3    0    0 -0.67777195934E+01  0.43014065462E+02  0.48257382095E+02  0.64999401821E+02  0.00000000000E+00 0.  1.
         13    1    3    3    0    0  0.67777195934E+01 -0.43014065462E+02  0.23125049819E+02  0.49304312586E+02  0.00000000000E+00 0. -1.
<mgrwt>
<rscale>  0 0.89274227E+02</rscale>
<asrwt>0</asrwt>
<pdfrwt beam="1">  1        2 0.14283549E-01 0.89274227E+02</pdfrwt>
<pdfrwt beam="2">  1       -2 0.33016372E-02 0.89274227E+02</pdfrwt>
<totfact> 0.12713644E+05</totfact>
</mgrwt>
</event>
<event>
 5    1  0.6046470E+000  0.9086188E+02  0.7546771E-02  0.1300778E+00
          2   -1    0    0  501    0  0.00000000000E+00  0.00000000000E+00  0.48431998351E+02  0.48431998351E+02  0.00000000000E+00 0. -1.
         -2   -1    0    0    0  501 -0.00000000000E+00 -0.00000000000E+00 -0.42615837552E+02  0.42615837552E+02  0.00000000000E+00 0.  1.
         23    2    1    2    0    0  0.00000000000E+00  0.00000000000E+00  0.58161607991E+01  0.91047835903E+02  0.90861877023E+02 0.  0.
        -13    1    3    3    0    0  0.14432399982E+02  0.77903056676E+01  0.45362078330E+02  0.48235891016E+02  0.00000000000E+00 0. -1.
         13    1    3    3    0    0 -0.14432399982E+02 -0.77903056676E+01 -0.39545917531E+02  0.42811944887E+02  0.00000000000E+00 0.  1.
<mgrwt>
<rscale>  0 0.90861877E+02</rscale>
<asrwt>0</asrwt>
<pdfrwt beam="1">  1        2 0.74510767E-02 0.90861877E+02</pdfrwt>
<pdfrwt beam="2">  1       -2 0.65562827E-02 0.90861877E+02</pdfrwt>
<totfact> 0.10123570E+05</totfact>
</mgrwt>
</event>
<event>
 5    1  0.6046470E+000  0.9221331E+02  0.7546771E-02  0.1297579E+00
          4   -1    0    0  501    0  0.00000000000E+00  0.00000000000E+00  0.62394803776E+02  0.62394803776E+02  0.00000000000E+00 0. -1.
         -4   -1    0    0    0  501 -0.00000000000E+00 -0.00000000000E+00 -0.34070520539E+02  0.34070520539E+02  0.00000000000E+00 0.  1.
         23    2    1    2    0    0  0.00000000000E+00  0.00000000000E+00  0.28324283237E+02  0.96465324315E+02  0.92213305843E+02 0.  0.
        -13    1    3    3    0    0 -0.37260321135E+02  0.26589249186E+02  0.19939830927E+02  0.49929115361E+02  0.00000000000E+00 0. -1.
         13    1    3    3    0    0  0.37260321135E+02 -0.26589249186E+02  0.83844523093E+01  0.46536208954E+02  0.00000000000E+00 0.  1.
<mgrwt>
<rscale>  0 0.92213306E+02</rscale>
<asrwt>0</asrwt>
<pdfrwt beam="1">  1        4 0.95992006E-02 0.92213306E+02</pdfrwt>
<pdfrwt beam="2">  1       -4 0.52416186E-02 0.92213306E+02</pdfrwt>
<totfact> 0.25871512E+04</totfact>
</mgrwt>
</event>
<event>
 5    1  0.6046470E+000  0.9034203E+02  0.7546771E-02  0.1302026E+00
          2   -1    0    0  501    0  0.00000000000E+00  0.00000000000E+00  0.12220369758E+02  0.12220369758E+02  0.00000000000E+00 0. -1.
         -2   -1    0    0    0  501 -0.00000000000E+00 -0.00000000000E+00 -0.16696881755E+03  0.16696881755E+03  0.00000000000E+00 0.  1.
         23    2    1    2    0    0  0.00000000000E+00  0.00000000000E+00 -0.15474844779E+03  0.17918918731E+03  0.90342032046E+02 0.  0.
        -13    1    3    3    0    0  0.35169101536E+02 -0.14030311292E+02 -0.12622943087E+03  0.13178613188E+03  0.00000000000E+00 0.  1.
         13    1    3    3    0    0 -0.35169101536E+02  0.14030311292E+02 -0.28519016922E+02  0.47403055429E+02  0.00000000000E+00 0. -1.
<mgrwt>
<rscale>  0 0.90342032E+02</rscale>
<asrwt>0</asrwt>
<pdfrwt beam="1">  1        2 0.18800570E-02 0.90342032E+02</pdfrwt>
<pdfrwt beam="2">  1       -2 0.25687509E-01 0.90342032E+02</pdfrwt>
<totfact> 0.68687136E+04</totfact>
</mgrwt>
</event>
<event>
 5    1  0.6046470E+000  0.9000011E+02  0.7546771E-02  0.1302851E+00
         -4   -1    0    0    0  501 -0.00000000000E+00  0.00000000000E+00  0.66820007814E+02  0.66820007814E+02  0.00000000000E+00 0.  1.
          4   -1    0    0  501    0  0.00000000000E+00 -0.00000000000E+00 -0.30305368408E+02  0.30305368408E+02  0.00000000000E+00 0. -1.
         23    2    1    2    0    0  0.00000000000E+00  0.00000000000E+00  0.36514639406E+02  0.97125376221E+02  0.90000110084E+02 0.  0.
        -13    1    3    3    0    0 -0.32259073421E+02 -0.26336099617E+02 -0.14456163426E+00  0.41644433710E+02  0.00000000000E+00 0. -1.
         13    1    3    3    0    0  0.32259073421E+02  0.26336099617E+02  0.36659201040E+02  0.55480942511E+02  0.00000000000E+00 0.  1.
<mgrwt>
<rscale>  0 0.90000110E+02</rscale>
<asrwt>0</asrwt>
<pdfrwt beam="2">  1        4 0.46623644E-02 0.90000110E+02</pdfrwt>
<pdfrwt beam="1">  1       -4 0.10280001E-01 0.90000110E+02</pdfrwt>
<totfact> 0.27590003E+04</totfact>
</mgrwt>
</event>
<event>
 5    1  0.6046470E+000  0.9101224E+02  0.7546771E-02  0.1300419E+00
         -1   -1    0    0    0  501 -0.00000000000E+00  0.00000000000E+00  0.13312654466E+02  0.13312654466E+02  0.00000000000E+00 0.  1.
          1   -1    0    0  501    0  0.00000000000E+00 -0.00000000000E+00 -0.15555175621E+03  0.15555175621E+03  0.00000000000E+00 0. -1.
         23    2    1    2    0    0  0.00000000000E+00  0.00000000000E+00 -0.14223910174E+03  0.16886441067E+03  0.91012236144E+02 0.  0.
        -13    1    3    3    0    0  0.30500195711E+02  0.60659081584E+01 -0.94779905129E+01  0.32509836732E+02  0.00000000000E+00 0.  1.
         13    1    3    3    0    0 -0.30500195711E+02 -0.60659081584E+01 -0.13276111123E+03  0.13635457394E+03  0.00000000000E+00 0. -1.
<mgrwt>
<rscale>  0 0.91012236E+02</rscale>
<asrwt>0</asrwt>
<pdfrwt beam="2">  1        1 0.23931040E-01 0.91012236E+02</pdfrwt>
<pdfrwt beam="1">  1       -1 0.20481006E-02 0.91012236E+02</pdfrwt>
<totfact> 0.11343887E+05</totfact>
</mgrwt>
</event>
<event>
 5    1  0.6046470E+000  0.8422313E+02  0.7546771E-02  0.1317477E+00
          1   -1    0    0  501    0  0.00000000000E+00  0.00000000000E+00  0.13629953421E+03  0.13629953421E+03  0.00000000000E+00 0. -1.
         -1   -1    0    0    0  501 -0.00000000000E+00 -0.00000000000E+00 -0.13010930780E+02  0.13010930780E+02  0.00000000000E+00 0.  1.
         23    2    1    2    0    0  0.00000000000E+00  0.00000000000E+00  0.12328860343E+03  0.14931046499E+03  0.84223127583E+02 0.  0.
        -13    1    3    3    0    0 -0.30411665544E+02  0.22468421741E+02  0.28778910143E+02  0.47517628789E+02  0.00000000000E+00 0.  1.
         13    1    3    3    0    0  0.30411665544E+02 -0.22468421741E+02  0.94509693287E+02  0.10179283620E+03  0.00000000000E+00 0. -1.
<mgrwt>
<rscale>  0 0.84223128E+02</rscale>
<asrwt>0</asrwt>
<pdfrwt beam="1">  1        1 0.20969158E-01 0.84223128E+02</pdfrwt>
<pdfrwt beam="2">  1       -1 0.20016818E-02 0.84223128E+02</pdfrwt>
<totfact> 0.13640073E+05</totfact>
</mgrwt>
</event>
<event>
 5    1  0.6046470E+000  0.8823091E+02  0.7546771E-02  0.1307193E+00
         -1   -1    0    0    0  501 -0.00000000000E+00  0.00000000000E+00  0.29180655320E+03  0.29180655320E+03  0.00000000000E+00 0.  1.
          1   -1    0    0  501    0  0.00000000000E+00 -0.00000000000E+00 -0.66693958074E+01  0.66693958074E+01  0.00000000000E+00 0. -1.
         23    2    1    2    0    0  0.00000000000E+00  0.00000000000E+00  0.28513715739E+03  0.29847594901E+03  0.88230910740E+02 0.  0.
        -13    1    3    3    0    0  0.16472639968E+02  0.40160643018E+02  0.16919441341E+03  0.17467390945E+03  0.00000000000E+00 0.  1.
         13    1    3    3    0    0 -0.16472639968E+02 -0.40160643018E+02  0.11594274399E+03  0.12380203956E+03  0.00000000000E+00 0. -1.
<mgrwt>
<rscale>  0 0.88230911E+02</rscale>
<asrwt>0</asrwt>
<pdfrwt beam="2">  1        1 0.10260611E-02 0.88230911E+02</pdfrwt>
<pdfrwt beam="1">  1       -1 0.44893306E-01 0.88230911E+02</pdfrwt>
<totfact> 0.66724908E+04</totfact>
</mgrwt>
</event>
<event>
 5    1  0.6046470E+000  0.9043849E+02  0.7546771E-02  0.1301793E+00
         -3   -1    0    0    0  501 -0.00000000000E+00  0.00000000000E+00  0.15519839879E+03  0.15519839879E+03  0.00000000000E+00 0.  1.
          3   -1    0    0  501    0  0.00000000000E+00 -0.00000000000E+00 -0.13175264440E+02  0.13175264440E+02  0.00000000000E+00 0. -1.
         23    2    1    2    0    0  0.00000000000E+00  0.00000000000E+00  0.14202313435E+03  0.16837366323E+03  0.90438486157E+02 0.  0.
        -13    1    3    3    0    0 -0.13868744886E+02 -0.42774278665E+02  0.79901085872E+02  0.91685137965E+02  0.00000000000E+00 0.  1.
         13    1    3    3    0    0  0.13868744886E+02  0.42774278665E+02  0.62122048474E+02  0.76688525261E+02  0.00000000000E+00 0. -1.
<mgrwt>
<rscale>  0 0.90438486E+02</rscale>
<asrwt>0</asrwt>
<pdfrwt beam="2">  1        3 0.20269639E-02 0.90438486E+02</pdfrwt>
<pdfrwt beam="1">  1       -3 0.23876675E-01 0.90438486E+02</pdfrwt>
<totfact> 0.30890636E+04</totfact>
</mgrwt>
</event>
<event>
 5    1  0.6046470E+000  0.8596329E+02  0.7546771E-02  0.1312932E+00
         -4   -1    0    0    0  501 -0.00000000000E+00  0.00000000000E+00  0.30654562988E+02  0.30654562988E+02  0.00000000000E+00 0.  1.
          4   -1    0    0  501    0  0.00000000000E+00 -0.00000000000E+00 -0.60265798200E+02  0.60265798200E+02  0.00000000000E+00 0. -1.
         23    2    1    2    0    0  0.00000000000E+00  0.00000000000E+00 -0.29611235212E+02  0.90920361187E+02  0.85963287674E+02 0.  0.
        -13    1    3    3    0    0 -0.42400356336E+02  0.66164138100E+01 -0.17364764326E+02  0.46293651716E+02  0.00000000000E+00 0.  1.
         13    1    3    3    0    0  0.42400356336E+02 -0.66164138100E+01 -0.12246470886E+02  0.44626709471E+02  0.00000000000E+00 0. -1.
<mgrwt>
<rscale>  0 0.85963288E+02</rscale>
<asrwt>0</asrwt>
<pdfrwt beam="2">  1        4 0.92716612E-02 0.85963288E+02</pdfrwt>
<pdfrwt beam="1">  1       -4 0.47160866E-02 0.85963288E+02</pdfrwt>
<totfact> 0.31688941E+04</totfact>
</mgrwt>
</event>
<event>
 4    1  0.6046470E+000  0.5304389E+02  0.7546771E-02  0.1429583E+00
         -1   -1    0    0    0  501 -0.00000000000E+00  0.00000000000E+00  0.45155204368E+02  0.45155204368E+02  0.00000000000E+00 0.  1.
          1   -1    0    0  501    0  0.00000000000E+00 -0.00000000000E+00 -0.15577685660E+02  0.15577685660E+02  0.00000000000E+00 0. -1.
        -13    1    1    2    0    0  0.14111344651E+02  0.17298048768E+02 -0.16069479422E+01  0.22381573241E+02  0.00000000000E+00 0. -1.
         13    1    1    2    0    0 -0.14111344651E+02 -0.17298048768E+02  0.31184466650E+02  0.38351316787E+02  0.00000000000E+00 0.  1.
<mgrwt>
<rscale>  0 0.53043890E+02</rscale>
<asrwt>0</asrwt>
<pdfrwt beam="2">  1        1 0.23965670E-02 0.53043890E+02</pdfrwt>
<pdfrwt beam="1">  1       -1 0.69469545E-02 0.53043890E+02</pdfrwt>
<totfact> 0.35734591E+05</totfact>
</mgrwt>
</event>
<event>
 5    1  0.6046470E+000  0.9061523E+02  0.7546771E-02  0.1301369E+00
          1   -1    0    0  501    0  0.00000000000E+00  0.00000000000E+00  0.25320890599E+03  0.25320890599E+03  0.00000000000E+00 0. -1.
         -1   -1    0    0    0  501 -0.00000000000E+00 -0.00000000000E+00 -0.81070609887E+01  0.81070609887E+01  0.00000000000E+00 0.  1.
         23    2    1    2    0    0  0.00000000000E+00  0.00000000000E+00  0.24510184500E+03  0.26131596698E+03  0.90615231473E+02 0.  0.
        -13    1    3    3    0    0 -0.43691512933E+02 -0.28055933249E+01  0.15617659195E+03  0.16219724884E+03  0.00000000000E+00 0.  1.
         13    1    3    3    0    0  0.43691512933E+02  0.28055933249E+01  0.88925253047E+02  0.99118718140E+02  0.00000000000E+00 0. -1.
<mgrwt>
<rscale>  0 0.90615231E+02</rscale>
<asrwt>0</asrwt>
<pdfrwt beam="1">  1        1 0.38955210E-01 0.90615231E+02</pdfrwt>
<pdfrwt beam="2">  1       -1 0.12472403E-02 0.90615231E+02</pdfrwt>
<totfact> 0.12603892E+05</totfact>
</mgrwt>
</event>
<event>
 5    1  0.6046470E+000  0.9187414E+02  0.7546771E-02  0.1298376E+00
         -4   -1    0    0    0  501 -0.00000000000E+00  0.00000000000E+00  0.68931430664E+01  0.68931430664E+01  0.00000000000E+00 0.  1.
          4   -1    0    0  501    0  0.00000000000E+00 -0.00000000000E+00 -0.30613236842E+03  0.30613236842E+03  0.00000000000E+00 0. -1.
         23    2    1    2    0    0  0.00000000000E+00  0.00000000000E+00 -0.29923922535E+03  0.31302551149E+03  0.91874135920E+02 0.  0.
        -13    1    3    3    0    0  0.33447542202E+02  0.28059587628E+02 -0.10094013368E+03  0.10997722093E+03  0.00000000000E+00 0. -1.
         13    1    3    3    0    0 -0.33447542202E+02 -0.28059587628E+02 -0.19829909168E+03  0.20304829055E+03  0.00000000000E+00 0.  1.
<mgrwt>
<rscale>  0 0.91874136E+02</rscale>
<asrwt>0</asrwt>
<pdfrwt beam="2">  1        4 0.47097289E-01 0.91874136E+02</pdfrwt>
<pdfrwt beam="1">  1       -4 0.10604835E-02 0.91874136E+02</pdfrwt>
<totfact> 0.17080113E+04</totfact>
</mgrwt>
</event>
<event>
 5    1  0.6046470E+000  0.9123186E+02  0.7546771E-02  0.1299896E+00
         -2   -1    0    0    0  501 -0.00000000000E+00  0.00000000000E+00  0.67880930149E+01  0.67880930149E+01  0.00000000000E+00 0.  1.
          2   -1    0    0  501    0  0.00000000000E+00 -0.00000000000E+00 -0.30653865263E+03  0.30653865263E+03  0.00000000000E+00 0. -1.
         23    2    1    2    0    0  0.00000000000E+00  0.00000000000E+00 -0.29975055962E+03  0.31332674565E+03  0.91231855987E+02 0.  0.
        -13    1    3    3    0    0 -0.29410319942E+02  0.34867642640E+02 -0.14882531698E+03  0.15565890401E+03  0.00000000000E+00 0.  1.
         13    1    3    3    0    0  0.29410319942E+02 -0.34867642640E+02 -0.15092524264E+03  0.15766784164E+03  0.00000000000E+00 0. -1.
<mgrwt>
<rscale>  0 0.91231856E+02</rscale>
<asrwt>0</asrwt>
<pdfrwt beam="2">  1        2 0.47159800E-01 0.91231856E+02</pdfrwt>
<pdfrwt beam="1">  1       -2 0.10443218E-02 0.91231856E+02</pdfrwt>
<totfact> 0.18081616E+05</totfact>
</mgrwt>
</event>
<event>
 5    1  0.6046470E+000  0.1058953E+03  0.7546771E-02  0.1268366E+00
         -2   -1    0    0    0  501 -0.00000000000E+00  0.00000000000E+00  0.26092602628E+02  0.26092602628E+02  0.00000000000E+00 0.  1.
          2   -1    0    0  501    0  0.00000000000E+00 -0.00000000000E+00 -0.10744249984E+03  0.10744249984E+03  0.00000000000E+00 0. -1.
         23    2    1    2    0    0  0.00000000000E+00  0.00000000000E+00 -0.81349897214E+02  0.13353510247E+03  0.10589531536E+03 0.  0.
        -13    1    3    3    0    0  0.34916530504E+02 -0.21103556275E+02  0.18816846404E+01  0.40841950577E+02  0.00000000000E+00 0.  1.
         13    1    3    3    0    0 -0.34916530504E+02  0.21103556275E+02 -0.83231581855E+02  0.92693151893E+02  0.00000000000E+00 0. -1.
<mgrwt>
<rscale>  0 0.10589532E+03</rscale>
<asrwt>0</asrwt>
<pdfrwt beam="2">  1        2 0.16529615E-01 0.10589532E+03</pdfrwt>
<pdfrwt beam="1">  1       -2 0.40142466E-02 0.10589532E+03</pdfrwt>
<totfact> 0.82766680E+04</totfact>
</mgrwt>
</event>
<event>
 5    1  0.6046470E+000  0.9068823E+02  0.7546771E-02  0.1301194E+00
          3   -1    0    0  501    0  0.00000000000E+00  0.00000000000E+00  0.48679198710E+02  0.48679198710E+02  0.00000000000E+00 0. -1.
         -3   -1    0    0    0  501 -0.00000000000E+00 -0.00000000000E+00 -0.42237525829E+02  0.42237525829E+02  0.00000000000E+00 0.  1.
         23    2    1    2    0    0  0.00000000000E+00  0.00000000000E+00  0.64416728810E+01  0.90916724539E+02  0.90688233257E+02 0.  0.
        -13    1    3    3    0    0 -0.25004132503E+02 -0.20957069109E+02 -0.28349512992E+02  0.43221525595E+02  0.00000000000E+00 0.  1.
         13    1    3    3    0    0  0.25004132503E+02  0.20957069109E+02  0.34791185873E+02  0.47695198944E+02  0.00000000000E+00 0. -1.
<mgrwt>
<rscale>  0 0.90688233E+02</rscale>
<asrwt>0</asrwt>
<pdfrwt beam="1">  1        3 0.74891074E-02 0.90688233E+02</pdfrwt>
<pdfrwt beam="2">  1       -3 0.64980809E-02 0.90688233E+02</pdfrwt>
<totfact> 0.35879632E+04</totfact>
</mgrwt>
</event>
<event>
 5    1  0.6046470E+000  0.9269634E+02  0.7546771E-02  0.1296450E+00
         -3   -1    0    0    0  501 -0.00000000000E+00  0.00000000000E+00  0.62575877141E+02  0.62575877141E+02  0.00000000000E+00 0.  1.
          3   -1    0    0  501    0  0.00000000000E+00 -0.00000000000E+00 -0.34328768509E+02  0.34328768509E+02  0.00000000000E+00 0. -1.
         23    2    1    2    0    0  0.00000000000E+00  0.00000000000E+00  0.28247108631E+02  0.96904645650E+02  0.92696338668E+02 0.  0.
        -13    1    3    3    0    0 -0.29451257114E+02  0.91753577089E+00 -0.23276813217E+02  0.37550345551E+02  0.00000000000E+00 0. -1.
         13    1    3    3    0    0  0.29451257114E+02 -0.91753577089E+00  0.51523921849E+02  0.59354300098E+02  0.00000000000E+00 0.  1.
<mgrwt>
<rscale>  0 0.92696339E+02</rscale>
<asrwt>0</asrwt>
<pdfrwt beam="2">  1        3 0.52813490E-02 0.92696339E+02</pdfrwt>
<pdfrwt beam="1">  1       -3 0.96270580E-02 0.92696339E+02</pdfrwt>
<totfact> 0.33363629E+04</totfact>
</mgrwt>
</event>
<event>
 5    1  0.6046470E+000  0.9239422E+02  0.7546771E-02  0.1297155E+00
          3   -1    0    0  501    0  0.00000000000E+00  0.00000000000E+00  0.14621537345E+02  0.14621537345E+02  0.00000000000E+00 0. -1.
         -3   -1    0    0    0  501 -0.00000000000E+00 -0.00000000000E+00 -0.14596090231E+03  0.14596090231E+03  0.00000000000E+00 0.  1.
         23    2    1    2    0    0  0.00000000000E+00  0.00000000000E+00 -0.13133936497E+03  0.16058243966E+03  0.92394215925E+02 0.  0.
        -13    1    3    3    0    0  0.44925976656E+02 -0.79983121534E+01 -0.78185363445E+02  0.90527716379E+02  0.00000000000E+00 0. -1.
         13    1    3    3    0    0 -0.44925976656E+02  0.79983121534E+01 -0.53154001524E+02  0.70054723280E+02  0.00000000000E+00 0.  1.
<mgrwt>
<rscale>  0 0.92394216E+02</rscale>
<asrwt>0</asrwt>
<pdfrwt beam="1">  1        3 0.22494674E-02 0.92394216E+02</pdfrwt>
<pdfrwt beam="2">  1       -3 0.22455523E-01 0.92394216E+02</pdfrwt>
<totfact> 0.29588869E+04</totfact>
</mgrwt>
</event>
<event>
 5    1  0.6046470E+000  0.1185498E+03  0.7546771E-02  0.1245509E+00
          1   -1    0    0  501    0  0.00000000000E+00  0.00000000000E+00  0.20431627580E+03  0.20431627580E+03  0.00000000000E+00 0. -1.
         -1   -1    0    0    0  501 -0.00000000000E+00 -0.00000000000E+00 -0.17196451972E+02  0.17196451972E+02  0.00000000000E+00 0.  1.
         23    2    1    2    0    0  0.00000000000E+00  0.00000000000E+00  0.18711982383E+03  0.22151272777E+03  0.11854982115E+03 0.  0.
        -13    1    3    3    0    0 -0.26890366773E+02 -0.18684903688E+02  0.12372874535E+01  0.32768099293E+02  0.00000000000E+00 0.  1.
         13    1    3    3    0    0  0.26890366773E+02  0.18684903688E+02  0.18588253638E+03  0.18874462848E+03  0.00000000000E+00 0. -1.
<mgrwt>
<rscale>  0 0.11854982E+03</rscale>
<asrwt>0</asrwt>
<pdfrwt beam="1">  1        1 0.31433272E-01 0.11854982E+03</pdfrwt>
<pdfrwt beam="2">  1       -1 0.26456081E-02 0.11854982E+03</pdfrwt>
<totfact> 0.58185494E+04</totfact>
</mgrwt>
</event>
<event>
 5    1  0.6046470E+000  0.9096708E+02  0.7546771E-02  0.1300527E+00
          1   -1    0    0  501    0  0.00000000000E+00  0.00000000000E+00  0.17161357007E+03  0.17161357007E+03  0.00000000000E+00 0. -1.
         -1   -1    0    0    0  501 -0.00000000000E+00 -0.00000000000E+00 -0.12054713443E+02  0.12054713443E+02  0.00000000000E+00 0.  1.
         23    2    1    2    0    0  0.00000000000E+00  0.00000000000E+00  0.15955885663E+03  0.18366828352E+03  0.90967079982E+02 0.  0.
        -13    1    3    3    0    0 -0.34318534139E+02  0.29706355317E+02  0.85673944367E+02  0.96954907432E+02  0.00000000000E+00 0.  1.
         13    1    3    3    0    0  0.34318534139E+02 -0.29706355317E+02  0.73884912263E+02  0.86713376084E+02  0.00000000000E+00 0. -1.
<mgrwt>
<rscale>  0 0.90967080E+02</rscale>
<asrwt>0</asrwt>
<pdfrwt beam="1">  1        1 0.26402086E-01 0.90967080E+02</pdfrwt>
<pdfrwt beam="2">  1       -1 0.18545714E-02 0.90967080E+02</pdfrwt>
<totfact> 0.11569469E+05</totfact>
</mgrwt>
</event>
<event>
 5    1  0.6046470E+000  0.9033099E+02  0.7546771E-02  0.1302052E+00
          2   -1    0    0  501    0  0.00000000000E+00  0.00000000000E+00  0.80211644541E+02  0.80211644541E+02  0.00000000000E+00 0. -1.
         -2   -1    0    0    0  501 -0.00000000000E+00 -0.00000000000E+00 -0.25431745029E+02  0.25431745029E+02  0.00000000000E+00 0.  1.
         23    2    1    2    0    0  0.00000000000E+00  0.00000000000E+00  0.54779899512E+02  0.10564338957E+03  0.90330993404E+02 0.  0.
        -13    1    3    3    0    0  0.18587791716E+02  0.11947749058E+02 -0.18678633478E+02  0.28933476407E+02  0.00000000000E+00 0.  1.
         13    1    3    3    0    0 -0.18587791716E+02 -0.11947749058E+02  0.73458532990E+02  0.76709913163E+02  0.00000000000E+00 0. -1.
<mgrwt>
<rscale>  0 0.90330993E+02</rscale>
<asrwt>0</asrwt>
<pdfrwt beam="1">  1        2 0.12340253E-01 0.90330993E+02</pdfrwt>
<pdfrwt beam="2">  1       -2 0.39125762E-02 0.90330993E+02</pdfrwt>
<totfact> 0.11795426E+05</totfact>
</mgrwt>
</event>
<event>
 5    1  0.6046470E+000  0.9002879E+02  0.7546771E-02  0.1302782E+00
         -2   -1    0    0    0  501 -0.00000000000E+00  0.00000000000E+00  0.75470101650E+01  0.75470101650E+01  0.00000000000E+00 0.  1.
          2   -1    0    0  501    0  0.00000000000E+00 -0.00000000000E+00 -0.26848984714E+03  0.26848984714E+03  0.00000000000E+00 0. -1.
         23    2    1    2    0    0  0.00000000000E+00  0.00000000000E+00 -0.26094283697E+03  0.27603685730E+03  0.90028786630E+02 0.  0.
        -13    1    3    3    0    0 -0.30790393379E+02 -0.25304724200E+02 -0.66308784836E+02  0.77364283346E+02  0.00000000000E+00 0.  1.
         13    1    3    3    0    0  0.30790393379E+02  0.25304724200E+02 -0.19463405213E+03  0.19867257395E+03  0.00000000000E+00 0. -1.
<mgrwt>
<rscale>  0 0.90028787E+02</rscale>
<asrwt>0</asrwt>
<pdfrwt beam="2">  1        2 0.41306125E-01 0.90028787E+02</pdfrwt>
<pdfrwt beam="1">  1       -2 0.11610786E-02 0.90028787E+02</pdfrwt>
<totfact> 0.17830871E+05</totfact>
</mgrwt>
</event>
<event>
 5    1  0.6046470E+000  0.8976856E+02  0.7546771E-02  0.1303413E+00
         -1   -1    0    0    0  501 -0.00000000000E+00  0.00000000000E+00  0.32328954466E+02  0.32328954466E+02  0.00000000000E+00 0.  1.
          1   -1    0    0  501    0  0.00000000000E+00 -0.00000000000E+00 -0.62315605900E+02  0.62315605900E+02  0.00000000000E+00 0. -1.
         23    2    1    2    0    0  0.00000000000E+00  0.00000000000E+00 -0.29986651434E+02  0.94644560367E+02  0.89768555423E+02 0.  0.
        -13    1    3    3    0    0  0.35980251705E+02 -0.10525410251E+02  0.11030075797E+02  0.39077171671E+02  0.00000000000E+00 0.  1.
         13    1    3    3    0    0 -0.35980251705E+02  0.10525410251E+02 -0.41016727232E+02  0.55567388696E+02  0.00000000000E+00 0. -1.
<mgrwt>
<rscale>  0 0.89768555E+02</rscale>
<asrwt>0</asrwt>
<pdfrwt beam="2">  1        1 0.95870163E-02 0.89768555E+02</pdfrwt>
<pdfrwt beam="1">  1       -1 0.49736853E-02 0.89768555E+02</pdfrwt>
<totfact> 0.10118804E+05</totfact>
</mgrwt>
</event>
<event>
 5    1  0.6046470E+000  0.9154284E+02  0.7546771E-02  0.1299158E+00
         -1   -1    0    0    0  501 -0.00000000000E+00  0.00000000000E+00  0.81492991526E+02  0.81492991526E+02  0.00000000000E+00 0.  1.
          1   -1    0    0  501    0  0.00000000000E+00 -0.00000000000E+00 -0.25708011195E+02  0.25708011195E+02  0.00000000000E+00 0. -1.
         23    2    1    2    0    0  0.00000000000E+00  0.00000000000E+00  0.55784980331E+02  0.10720100272E+03  0.91542836715E+02 0.  0.
        -13    1    3    3    0    0 -0.54753577956E+01 -0.17816148707E+02 -0.21062727249E+02  0.28125312032E+02  0.00000000000E+00 0. -1.
         13    1    3    3    0    0  0.54753577956E+01  0.17816148707E+02  0.76847707580E+02  0.79075690689E+02  0.00000000000E+00 0.  1.
<mgrwt>
<rscale>  0 0.91542837E+02</rscale>
<asrwt>0</asrwt>
<pdfrwt beam="2">  1        1 0.39550787E-02 0.91542837E+02</pdfrwt>
<pdfrwt beam="1">  1       -1 0.12537383E-01 0.91542837E+02</pdfrwt>
<totfact> 0.83523114E+04</totfact>
</mgrwt>
</event>
<event>
 5    1  0.6046470E+000  0.9088827E+02  0.7546771E-02  0.1300715E+00
         -1   -1    0    0    0  501 -0.00000000000E+00  0.00000000000E+00  0.31723719670E+02  0.31723719670E+02  0.00000000000E+00 0.  1.
          1   -1    0    0  501    0  0.00000000000E+00 -0.00000000000E+00 -0.65098584498E+02  0.65098584498E+02  0.00000000000E+00 0. -1.
         23    2    1    2    0    0  0.00000000000E+00  0.00000000000E+00 -0.33374864828E+02  0.96822304168E+02  0.90888266471E+02 0.  0.
        -13    1    3    3    0    0  0.77821980215E+01  0.44096958662E+02 -0.84312764812E+01  0.45565236666E+02  0.00000000000E+00 0.  1.
         13    1    3    3    0    0 -0.77821980215E+01 -0.44096958662E+02 -0.24943588347E+02  0.51257067502E+02  0.00000000000E+00 0. -1.
<mgrwt>
<rscale>  0 0.90888266E+02</rscale>
<asrwt>0</asrwt>
<pdfrwt beam="2">  1        1 0.10015167E-01 0.90888266E+02</pdfrwt>
<pdfrwt beam="1">  1       -1 0.48805723E-02 0.90888266E+02</pdfrwt>
<totfact> 0.98432344E+04</totfact>
</mgrwt>
</event>
<event>
 5    1  0.6046470E+000  0.9078320E+02  0.7546771E-02  0.1300966E+00
         -1   -1    0    0    0  501 -0.00000000000E+00  0.00000000000E+00  0.39884454227E+02  0.39884454227E+02  0.00000000000E+00 0.  1.
          1   -1    0    0  501    0  0.00000000000E+00 -0.00000000000E+00 -0.51659163404E+02  0.51659163404E+02  0.00000000000E+00 0. -1.
         23    2    1    2    0    0  0.00000000000E+00  0.00000000000E+00 -0.11774709177E+02  0.91543617631E+02  0.90783204134E+02 0.  0.
        -13    1    3    3    0    0 -0.10878159605E+02  0.26454208105E+02 -0.41427972881E+02  0.50343186430E+02  0.00000000000E+00 0. -1.
         13    1    3    3    0    0  0.10878159605E+02 -0.26454208105E+02  0.29653263704E+02  0.41200431201E+02  0.00000000000E+00 0.  1.
<mgrwt>
<rscale>  0 0.90783204E+02</rscale>
<asrwt>0</asrwt>
<pdfrwt beam="2">  1        1 0.79475636E-02 0.90783204E+02</pdfrwt>
<pdfrwt beam="1">  1       -1 0.61360699E-02 0.90783204E+02</pdfrwt>
<totfact> 0.95368606E+04</totfact>
</mgrwt>
</event>
<event>
 5    1  0.6046470E+000  0.9323616E+02  0.7546771E-02  0.1295199E+00
          2   -1    0    0  501    0  0.00000000000E+00  0.00000000000E+00  0.31897949953E+03  0.31897949953E+03  0.00000000000E+00 0. -1.
         -2   -1    0    0    0  501 -0.00000000000E+00 -0.00000000000E+00 -0.68131192138E+01  0.68131192138E+01  0.00000000000E+00 0.  1.
         23    2    1    2    0    0  0.00000000000E+00  0.00000000000E+00  0.31216638031E+03  0.32579261874E+03  0.93236159446E+02 0.  0.
        -13    1    3    3    0    0 -0.18386465612E+02 -0.36961194378E+02  0.80405479532E+02  0.90383810201E+02  0.00000000000E+00 0.  1.
         13    1    3    3    0    0  0.18386465612E+02  0.36961194378E+02  0.23176090078E+03  0.23540880854E+03  0.00000000000E+00 0. -1.
<mgrwt>
<rscale>  0 0.93236159E+02</rscale>
<asrwt>0</asrwt>
<pdfrwt beam="1">  1        2 0.49073757E-01 0.93236159E+02</pdfrwt>
<pdfrwt beam="2">  1       -2 0.10481724E-02 0.93236159E+02</pdfrwt>
<totfact> 0.17316200E+05</totfact>
</mgrwt>
</event>
<event>
 5    1  0.6046470E+000  0.8708916E+02  0.7546771E-02  0.1310058E+00
          2   -1    0    0  501    0  0.00000000000E+00  0.00000000000E+00  0.14903059809E+03  0.14903059809E+03  0.00000000000E+00 0. -1.
         -2   -1    0    0    0  501 -0.00000000000E+00 -0.00000000000E+00 -0.12723094853E+02  0.12723094853E+02  0.00000000000E+00 0.  1.
         23    2    1    2    0    0  0.00000000000E+00  0.00000000000E+00  0.13630750324E+03  0.16175369294E+03  0.87089159727E+02 0.  0.
        -13    1    3    3    0    0 -0.14554193918E+02  0.40820639764E+02  0.60277855614E+02  0.74239942543E+02  0.00000000000E+00 0.  1.
         13    1    3    3    0    0  0.14554193918E+02 -0.40820639764E+02  0.76029647625E+02  0.87513750402E+02  0.00000000000E+00 0. -1.
<mgrwt>
<rscale>  0 0.87089160E+02</rscale>
<asrwt>0</asrwt>
<pdfrwt beam="1">  1        2 0.22927783E-01 0.87089160E+02</pdfrwt>
<pdfrwt beam="2">  1       -2 0.19573993E-02 0.87089160E+02</pdfrwt>
<totfact> 0.15792771E+05</totfact>
</mgrwt>
</event>
<event>
 5    1  0.6046470E+000  0.9085831E+02  0.7546771E-02  0.1300786E+00
          1   -1    0    0  501    0  0.00000000000E+00  0.00000000000E+00  0.22403013009E+02  0.22403013009E+02  0.00000000000E+00 0. -1.
         -1   -1    0    0    0  501 -0.00000000000E+00 -0.00000000000E+00 -0.92121896159E+02  0.92121896159E+02  0.00000000000E+00 0.  1.
         23    2    1    2    0    0  0.00000000000E+00  0.00000000000E+00 -0.69718883150E+02  0.11452490917E+03  0.90858308107E+02 0.  0.
        -13    1    3    3    0    0 -0.23314831138E+01  0.29817739693E+02  0.82421763574E+01  0.31023650414E+02  0.00000000000E+00 0. -1.
         13    1    3    3    0    0  0.23314831138E+01 -0.29817739693E+02 -0.77961059508E+02  0.83501258754E+02  0.00000000000E+00 0.  1.
<mgrwt>
<rscale>  0 0.90858308E+02</rscale>
<asrwt>0</asrwt>
<pdfrwt beam="1">  1        1 0.34466174E-02 0.90858308E+02</pdfrwt>
<pdfrwt beam="2">  1       -1 0.14172599E-01 0.90858308E+02</pdfrwt>
<totfact> 0.83344383E+04</totfact>
</mgrwt>
</event>
<event>
 5    1  0.6046470E+000  0.9294508E+02  0.7546771E-02  0.1295872E+00
          1   -1    0    0  501    0  0.00000000000E+00  0.00000000000E+00  0.32941559579E+03  0.32941559579E+03  0.00000000000E+00 0. -1.
         -1   -1    0    0    0  501 -0.00000000000E+00 -0.00000000000E+00 -0.65561473997E+01  0.65561473997E+01  0.00000000000E+00 0.  1.
         23    2    1    2    0    0  0.00000000000E+00  0.00000000000E+00  0.32285944839E+03  0.33597174319E+03  0.92945084899E+02 0.  0.
        -13    1    3    3    0    0  0.17146384882E+01 -0.46409421192E+02  0.16760958845E+03  0.17392454830E+03  0.00000000000E+00 0.  1.
         13    1    3    3    0    0 -0.17146384882E+01  0.46409421192E+02  0.15524985994E+03  0.16204719489E+03  0.00000000000E+00 0. -1.
<mgrwt>
<rscale>  0 0.92945085E+02</rscale>
<asrwt>0</asrwt>
<pdfrwt beam="1">  1        1 0.50679310E-01 0.92945085E+02</pdfrwt>
<pdfrwt beam="2">  1       -1 0.10086383E-02 0.92945085E+02</pdfrwt>
<totfact> 0.12388271E+05</totfact>
</mgrwt>
</event>
<event>
 5    1  0.6046470E+000  0.9091007E+02  0.7546771E-02  0.1300663E+00
         -1   -1    0    0    0  501 -0.00000000000E+00  0.00000000000E+00  0.85083485048E+01  0.85083485048E+01  0.00000000000E+00 0.  1.
          1   -1    0    0  501    0  0.00000000000E+00 -0.00000000000E+00 -0.24283915626E+03  0.24283915626E+03  0.00000000000E+00 0. -1.
         23    2    1    2    0    0  0.00000000000E+00  0.00000000000E+00 -0.23433080775E+03  0.25134750476E+03  0.90910069234E+02 0.  0.
        -13    1    3    3    0    0  0.11567490587E+01  0.34515231148E+02 -0.35450881713E+02  0.49491456473E+02  0.00000000000E+00 0. -1.
         13    1    3    3    0    0 -0.11567490587E+01 -0.34515231148E+02 -0.19887992604E+03  0.20185604829E+03  0.00000000000E+00 0.  1.
<mgrwt>
<rscale>  0 0.90910069E+02</rscale>
<asrwt>0</asrwt>
<pdfrwt beam="2">  1        1 0.37359874E-01 0.90910069E+02</pdfrwt>
<pdfrwt beam="1">  1       -1 0.13089765E-02 0.90910069E+02</pdfrwt>
<totfact> 0.12393833E+05</totfact>
</mgrwt>
</event>
<event>
 5    1  0.6046470E+000  0.9124037E+02  0.7546771E-02  0.1299875E+00
         -4   -1    0    0    0  501 -0.00000000000E+00  0.00000000000E+00  0.90106852359E+02  0.90106852359E+02  0.00000000000E+00 0.  1.
          4   -1    0    0  501    0  0.00000000000E+00 -0.00000000000E+00 -0.23097037591E+02  0.23097037591E+02  0.00000000000E+00 0. -1.
         23    2    1    2    0    0  0.00000000000E+00  0.00000000000E+00  0.67009814768E+02  0.11320388995E+03  0.91240371680E+02 0.  0.
        -13    1    3    3    0    0  0.12317009366E+02  0.16515152552E+02 -0.16996303867E+02  0.26708300745E+02  0.00000000000E+00 0. -1.
         13    1    3    3    0    0 -0.12317009366E+02 -0.16515152552E+02  0.84006118636E+02  0.86495589204E+02  0.00000000000E+00 0.  1.
<mgrwt>
<rscale>  0 0.91240372E+02</rscale>
<asrwt>0</asrwt>
<pdfrwt beam="2">  1        4 0.35533904E-02 0.91240372E+02</pdfrwt>
<pdfrwt beam="1">  1       -4 0.13862592E-01 0.91240372E+02</pdfrwt>
<totfact> 0.25615607E+04</totfact>
</mgrwt>
</event>
<event>
 5    1  0.6046470E+000  0.9228785E+02  0.7546771E-02  0.1297404E+00
          1   -1    0    0  501    0  0.00000000000E+00  0.00000000000E+00  0.18216790848E+02  0.18216790848E+02  0.00000000000E+00 0. -1.
         -1   -1    0    0    0  501 -0.00000000000E+00 -0.00000000000E+00 -0.11688456771E+03  0.11688456771E+03  0.00000000000E+00 0.  1.
         23    2    1    2    0    0  0.00000000000E+00  0.00000000000E+00 -0.98667776860E+02  0.13510135856E+03  0.92287848025E+02 0.  0.
        -13    1    3    3    0    0 -0.18301878874E+02 -0.21102793419E+01 -0.11126708209E+03  0.11278198263E+03  0.00000000000E+00 0.  1.
         13    1    3    3    0    0  0.18301878874E+02  0.21102793419E+01  0.12599305233E+02  0.22319375922E+02  0.00000000000E+00 0. -1.
<mgrwt>
<rscale>  0 0.92287848E+02</rscale>
<asrwt>0</asrwt>
<pdfrwt beam="1">  1        1 0.28025833E-02 0.92287848E+02</pdfrwt>
<pdfrwt beam="2">  1       -1 0.17982241E-01 0.92287848E+02</pdfrwt>
<totfact> 0.76515877E+04</totfact>
</mgrwt>
</event>
<event>
 5    1  0.6046470E+000  0.8828459E+02  0.7546771E-02  0.1307060E+00
         -1   -1    0    0    0  501 -0.00000000000E+00  0.00000000000E+00  0.16261780221E+02  0.16261780221E+02  0.00000000000E+00 0.  1.
          1   -1    0    0  501    0  0.00000000000E+00 -0.00000000000E+00 -0.11982343449E+03  0.11982343449E+03  0.00000000000E+00 0. -1.
         23    2    1    2    0    0  0.00000000000E+00  0.00000000000E+00 -0.10356165427E+03  0.13608521471E+03  0.88284593379E+02 0.  0.
        -13    1    3    3    0    0  0.41753229955E+01 -0.39094135964E+02 -0.20845986949E+02  0.44501010784E+02  0.00000000000E+00 0.  1.
         13    1    3    3    0    0 -0.41753229955E+01  0.39094135964E+02 -0.82715667317E+02  0.91584203925E+02  0.00000000000E+00 0. -1.
<mgrwt>
<rscale>  0 0.88284593E+02</rscale>
<asrwt>0</asrwt>
<pdfrwt beam="2">  1        1 0.18434374E-01 0.88284593E+02</pdfrwt>
<pdfrwt beam="1">  1       -1 0.25018124E-02 0.88284593E+02</pdfrwt>
<totfact> 0.11752393E+05</totfact>
</mgrwt>
</event>
<event>
 5    1  0.6046470E+000  0.8855277E+02  0.7546771E-02  0.1306395E+00
         -1   -1    0    0    0  501 -0.00000000000E+00  0.00000000000E+00  0.18603117946E+02  0.18603117946E+02  0.00000000000E+00 0.  1.
          1   -1    0    0  501    0  0.00000000000E+00 -0.00000000000E+00 -0.10538010282E+03  0.10538010282E+03  0.00000000000E+00 0. -1.
         23    2    1    2    0    0  0.00000000000E+00  0.00000000000E+00 -0.86776984875E+02  0.12398322077E+03  0.88552774817E+02 0.  0.
        -13    1    3    3    0    0 -0.10071661934E+02 -0.36246106945E+02 -0.10697309704E+02  0.39110753990E+02  0.00000000000E+00 0.  1.
         13    1    3    3    0    0  0.10071661934E+02  0.36246106945E+02 -0.76079675170E+02  0.84872466777E+02  0.00000000000E+00 0. -1.
<mgrwt>
<rscale>  0 0.88552775E+02</rscale>
<asrwt>0</asrwt>
<pdfrwt beam="2">  1        1 0.16212324E-01 0.88552775E+02</pdfrwt>
<pdfrwt beam="1">  1       -1 0.28620181E-02 0.88552775E+02</pdfrwt>
<totfact> 0.11406483E+05</totfact>
</mgrwt>
</event>
<event>
 5    1  0.6046470E+000  0.9102591E+02  0.7546771E-02  0.1300386E+00
          4   -1    0    0  501    0  0.00000000000E+00  0.00000000000E+00  0.61526968722E+02  0.61526968722E+02  0.00000000000E+00 0. -1.
         -4   -1    0    0    0  501 -0.00000000000E+00 -0.00000000000E+00 -0.33667013392E+02  0.33667013392E+02  0.00000000000E+00 0.  1.
         23    2    1    2    0    0  0.00000000000E+00  0.00000000000E+00  0.27859955331E+02  0.95193982114E+02  0.91025914551E+02 0.  0.
        -13    1    3    3    0    0 -0.12698026441E+02 -0.39595944489E+02 -0.54199782622E+01  0.41933934467E+02  0.00000000000E+00 0.  1.
         13    1    3    3    0    0  0.12698026441E+02  0.39595944489E+02  0.33279933593E+02  0.53260047648E+02  0.00000000000E+00 0. -1.
<mgrwt>
<rscale>  0 0.91025915E+02</rscale>
<asrwt>0</asrwt>
<pdfrwt beam="1">  1        4 0.94656875E-02 0.91025915E+02</pdfrwt>
<pdfrwt beam="2">  1       -4 0.51795405E-02 0.91025915E+02</pdfrwt>
<totfact> 0.26880179E+04</totfact>
</mgrwt>
</event>
<event>
 5    1  0.6046470E+000  0.9166794E+02  0.7546771E-02  0.1298862E+00
         -4   -1    0    0    0  501 -0.00000000000E+00  0.00000000000E+00  0.80907835248E+01  0.80907835248E+01  0.00000000000E+00 0.  1.
          4   -1    0    0  501    0  0.00000000000E+00 -0.00000000000E+00 -0.25964764495E+03  0.25964764495E+03  0.00000000000E+00 0. -1.
         23    2    1    2    0    0  0.00000000000E+00  0.00000000000E+00 -0.25155686142E+03  0.26773842847E+03  0.91667941789E+02 0.  0.
        -13    1    3    3    0    0  0.36461988099E+02 -0.23718651060E+02 -0.16797298804E+03  0.17351361818E+03  0.00000000000E+00 0. -1.
         13    1    3    3    0    0 -0.36461988099E+02  0.23718651060E+02 -0.83583873383E+02  0.94224810288E+02  0.00000000000E+00 0.  1.
<mgrwt>
<rscale>  0 0.91667942E+02</rscale>
<asrwt>0</asrwt>
<pdfrwt beam="2">  1        4 0.39945791E-01 0.91667942E+02</pdfrwt>
<pdfrwt beam="1">  1       -4 0.12447360E-02 0.91667942E+02</pdfrwt>
<totfact> 0.18583882E+04</totfact>
</mgrwt>
</event>
<event>
 5    1  0.6046470E+000  0.9112260E+02  0.7546771E-02  0.1300156E+00
         -1   -1    0    0    0  501 -0.00000000000E+00  0.00000000000E+00  0.54068835024E+02  0.54068835024E+02  0.00000000000E+00 0.  1.
          1   -1    0    0  501    0  0.00000000000E+00 -0.00000000000E+00 -0.38392395045E+02  0.38392395045E+02  0.00000000000E+00 0. -1.
         23    2    1    2    0    0  0.00000000000E+00  0.00000000000E+00  0.15676439978E+02  0.92461230069E+02  0.91122600355E+02 0.  0.
        -13    1    3    3    0    0  0.24703628873E+02  0.50556620192E+01 -0.30666615485E+02  0.39702270757E+02  0.00000000000E+00 0. -1.
         13    1    3    3    0    0 -0.24703628873E+02 -0.50556620192E+01  0.46343055464E+02  0.52758959312E+02  0.00000000000E+00 0.  1.
<mgrwt>
<rscale>  0 0.91122600E+02</rscale>
<asrwt>0</asrwt>
<pdfrwt beam="2">  1        1 0.59065223E-02 0.91122600E+02</pdfrwt>
<pdfrwt beam="1">  1       -1 0.83182823E-02 0.91122600E+02</pdfrwt>
<totfact> 0.90250715E+04</totfact>
</mgrwt>
</event>
<event>
 5    1  0.6046470E+000  0.9688276E+02  0.7546771E-02  0.1286991E+00
          2   -1    0    0  501    0  0.00000000000E+00  0.00000000000E+00  0.21483073799E+02  0.21483073799E+02  0.00000000000E+00 0. -1.
         -2   -1    0    0    0  501 -0.00000000000E+00 -0.00000000000E+00 -0.10922866718E+03  0.10922866718E+03  0.00000000000E+00 0.  1.
         23    2    1    2    0    0  0.00000000000E+00  0.00000000000E+00 -0.87745593382E+02  0.13071174098E+03  0.96882764576E+02 0.  0.
        -13    1    3    3    0    0  0.19852745765E+02  0.84585292735E+00 -0.10347700064E+03  0.10536762616E+03  0.00000000000E+00 0.  1.
         13    1    3    3    0    0 -0.19852745765E+02 -0.84585292735E+00  0.15731407257E+02  0.25344114818E+02  0.00000000000E+00 0. -1.
<mgrwt>
<rscale>  0 0.96882765E+02</rscale>
<asrwt>0</asrwt>
<pdfrwt beam="1">  1        2 0.33050883E-02 0.96882765E+02</pdfrwt>
<pdfrwt beam="2">  1       -2 0.16804410E-01 0.96882765E+02</pdfrwt>
<totfact> 0.66755387E+04</totfact>
</mgrwt>
</event>
<event>
 5    1  0.6046470E+000  0.8993338E+02  0.7546771E-02  0.1303013E+00
          1   -1    0    0  501    0  0.00000000000E+00  0.00000000000E+00  0.12523727319E+03  0.12523727319E+03  0.00000000000E+00 0. -1.
         -1   -1    0    0    0  501 -0.00000000000E+00 -0.00000000000E+00 -0.16145380448E+02  0.16145380448E+02  0.00000000000E+00 0.  1.
         23    2    1    2    0    0  0.00000000000E+00  0.00000000000E+00  0.10909189274E+03  0.14138265363E+03  0.89933384722E+02 0.  0.
        -13    1    3    3    0    0 -0.43506768385E+02  0.67061190447E+01  0.68970815344E+02  0.81821661540E+02  0.00000000000E+00 0. -1.
         13    1    3    3    0    0  0.43506768385E+02 -0.67061190447E+01  0.40121077395E+02  0.59560992095E+02  0.00000000000E+00 0.  1.
<mgrwt>
<rscale>  0 0.89933385E+02</rscale>
<asrwt>0</asrwt>
<pdfrwt beam="1">  1        1 0.19267272E-01 0.89933385E+02</pdfrwt>
<pdfrwt beam="2">  1       -1 0.24839048E-02 0.89933385E+02</pdfrwt>
<totfact> 0.11265532E+05</totfact>
</mgrwt>
</event>
<event>
 5    1  0.6046470E+000  0.9043306E+02  0.7546771E-02  0.1301806E+00
         -1   -1    0    0    0  501 -0.00000000000E+00  0.00000000000E+00  0.76952958724E+02  0.76952958724E+02  0.00000000000E+00 0.  1.
          1   -1    0    0  501    0  0.00000000000E+00 -0.00000000000E+00 -0.26568630476E+02  0.26568630476E+02  0.00000000000E+00 0. -1.
         23    2    1    2    0    0  0.00000000000E+00  0.00000000000E+00  0.50384328248E+02  0.10352158920E+03  0.90433063078E+02 0.  0.
        -13    1    3    3    0    0 -0.15219132962E+02  0.13237981280E+02 -0.21132971135E+02  0.29214185347E+02  0.00000000000E+00 0. -1.
         13    1    3    3    0    0  0.15219132962E+02 -0.13237981280E+02  0.71517299383E+02  0.74307403854E+02  0.00000000000E+00 0.  1.
<mgrwt>
<rscale>  0 0.90433063E+02</rscale>
<asrwt>0</asrwt>
<pdfrwt beam="2">  1        1 0.40874817E-02 0.90433063E+02</pdfrwt>
<pdfrwt beam="1">  1       -1 0.11838917E-01 0.90433063E+02</pdfrwt>
<totfact> 0.87006280E+04</totfact>
</mgrwt>
</event>
<event>
 5    1  0.6046470E+000  0.9204965E+02  0.7546771E-02  0.1297963E+00
          1   -1    0    0  501    0  0.00000000000E+00  0.00000000000E+00  0.16860276834E+03  0.16860276834E+03  0.00000000000E+00 0. -1.
         -1   -1    0    0    0  501 -0.00000000000E+00 -0.00000000000E+00 -0.12563758399E+02  0.12563758399E+02  0.00000000000E+00 0.  1.
         23    2    1    2    0    0  0.00000000000E+00  0.00000000000E+00  0.15603900994E+03  0.18116652674E+03  0.92049648489E+02 0.  0.
        -13    1    3    3    0    0  0.39533869444E+02  0.15551782360E+02  0.11286722541E+03  0.12059765893E+03  0.00000000000E+00 0. -1.
         13    1    3    3    0    0 -0.39533869444E+02 -0.15551782360E+02  0.43171784526E+02  0.60568867803E+02  0.00000000000E+00 0.  1.
<mgrwt>
<rscale>  0 0.92049648E+02</rscale>
<asrwt>0</asrwt>
<pdfrwt beam="1">  1        1 0.25938886E-01 0.92049648E+02</pdfrwt>
<pdfrwt beam="2">  1       -1 0.19328860E-02 0.92049648E+02</pdfrwt>
<totfact> 0.11169318E+05</totfact>
</mgrwt>
</event>
<event>
 5    1  0.6046470E+000  0.9107163E+02  0.7546771E-02  0.1300277E+00
         -1   -1    0    0    0  501 -0.00000000000E+00  0.00000000000E+00  0.11187345588E+02  0.11187345588E+02  0.00000000000E+00 0.  1.
          1   -1    0    0  501    0  0.00000000000E+00 -0.00000000000E+00 -0.18534428076E+03  0.18534428076E+03  0.00000000000E+00 0. -1.
         23    2    1    2    0    0  0.00000000000E+00  0.00000000000E+00 -0.17415693517E+03  0.19653162634E+03  0.91071631623E+02 0.  0.
        -13    1    3    3    0    0 -0.66248894443E+01 -0.44856152064E+02 -0.78038839459E+02  0.90255326725E+02  0.00000000000E+00 0. -1.
         13    1    3    3    0    0  0.66248894443E+01  0.44856152064E+02 -0.96118095709E+02  0.10627629962E+03  0.00000000000E+00 0.  1.
<mgrwt>
<rscale>  0 0.91071632E+02</rscale>
<asrwt>0</asrwt>
<pdfrwt beam="2">  1        1 0.28514503E-01 0.91071632E+02</pdfrwt>
<pdfrwt beam="1">  1       -1 0.17211302E-02 0.91071632E+02</pdfrwt>
<totfact> 0.11704142E+05</totfact>
</mgrwt>
</event>
<event>
 5    1  0.6046470E+000  0.9485453E+02  0.7546771E-02  0.1291504E+00
         -1   -1    0    0    0  501 -0.00000000000E+00  0.00000000000E+00  0.11943919255E+03  0.11943919255E+03  0.00000000000E+00 0.  1.
          1   -1    0    0  501    0  0.00000000000E+00 -0.00000000000E+00 -0.18832556910E+02  0.18832556910E+02  0.00000000000E+00 0. -1.
         23    2    1    2    0    0  0.00000000000E+00  0.00000000000E+00  0.10060663564E+03  0.13827174946E+03  0.94854528430E+02 0.  0.
        -13    1    3    3    0    0  0.24786200607E+02  0.18963181010E+02 -0.17557577921E+01  0.31257649623E+02  0.00000000000E+00 0. -1.
         13    1    3    3    0    0 -0.24786200607E+02 -0.18963181010E+02  0.10236239343E+03  0.10701409983E+03  0.00000000000E+00 0.  1.
<mgrwt>
<rscale>  0 0.94854528E+02</rscale>
<asrwt>0</asrwt>
<pdfrwt beam="2">  1        1 0.28973165E-02 0.94854528E+02</pdfrwt>
<pdfrwt beam="1">  1       -1 0.18375260E-01 0.94854528E+02</pdfrwt>
<totfact> 0.70956194E+04</totfact>
</mgrwt>
</event>
<event>
 5    1  0.6046470E+000  0.9032039E+02  0.7546771E-02  0.1302078E+00
         -1   -1    0    0    0  501 -0.00000000000E+00  0.00000000000E+00  0.13684177867E+03  0.13684177867E+03  0.00000000000E+00 0.  1.
          1   -1    0    0  501    0  0.00000000000E+00 -0.00000000000E+00 -0.14903658658E+02  0.14903658658E+02  0.00000000000E+00 0. -1.
         23    2    1    2    0    0  0.00000000000E+00  0.00000000000E+00  0.12193812001E+03  0.15174543733E+03  0.90320388827E+02 0.  0.
        -13    1    3    3    0    0 -0.15984296443E+02  0.27377437343E+02  0.69336338256E+01  0.32451457383E+02  0.00000000000E+00 0. -1.
         13    1    3    3    0    0  0.15984296443E+02 -0.27377437343E+02  0.11500448618E+03  0.11929397994E+03  0.00000000000E+00 0.  1.
<mgrwt>
<rscale>  0 0.90320389E+02</rscale>
<asrwt>0</asrwt>
<pdfrwt beam="2">  1        1 0.22928707E-02 0.90320389E+02</pdfrwt>
<pdfrwt beam="1">  1       -1 0.21052580E-01 0.90320389E+02</pdfrwt>
<totfact> 0.78256268E+04</totfact>
</mgrwt>
</event>
<event>
 5    1  0.6046470E+000  0.9283744E+02  0.7546771E-02  0.1296122E+00
         -4   -1    0    0    0  501 -0.00000000000E+00  0.00000000000E+00  0.58178464205E+01  0.58178464205E+01  0.00000000000E+00 0.  1.
          4   -1    0    0  501    0  0.00000000000E+00 -0.00000000000E+00 -0.37035999412E+03  0.37035999412E+03  0.00000000000E+00 0. -1.
         23    2    1    2    0    0  0.00000000000E+00  0.00000000000E+00 -0.36454214770E+03  0.37617784054E+03  0.92837439992E+02 0.  0.
        -13    1    3    3    0    0 -0.41930802983E+02 -0.16928529538E+02 -0.13978676168E+03  0.14691870572E+03  0.00000000000E+00 0.  1.
         13    1    3    3    0    0  0.41930802983E+02  0.16928529538E+02 -0.22475538602E+03  0.22925913482E+03  0.00000000000E+00 0. -1.
<mgrwt>
<rscale>  0 0.92837440E+02</rscale>
<asrwt>0</asrwt>
<pdfrwt beam="2">  1        4 0.56978469E-01 0.92837440E+02</pdfrwt>
<pdfrwt beam="1">  1       -4 0.89505316E-03 0.92837440E+02</pdfrwt>
<totfact> 0.14988154E+04</totfact>
</mgrwt>
</event>
<event>
 5    1  0.6046470E+000  0.9243676E+02  0.7546771E-02  0.1297056E+00
          1   -1    0    0  501    0  0.00000000000E+00  0.00000000000E+00  0.15357174623E+03  0.15357174623E+03  0.00000000000E+00 0. -1.
         -1   -1    0    0    0  501 -0.00000000000E+00 -0.00000000000E+00 -0.13909710858E+02  0.13909710858E+02  0.00000000000E+00 0.  1.
         23    2    1    2    0    0  0.00000000000E+00  0.00000000000E+00  0.13966203537E+03  0.16748145709E+03  0.92436758618E+02 0.  0.
        -13    1    3    3    0    0  0.15700720055E+02  0.38938322808E+02  0.10484394038E+03  0.11293784764E+03  0.00000000000E+00 0. -1.
         13    1    3    3    0    0 -0.15700720055E+02 -0.38938322808E+02  0.34818094986E+02  0.54543609450E+02  0.00000000000E+00 0.  1.
<mgrwt>
<rscale>  0 0.92436759E+02</rscale>
<asrwt>0</asrwt>
<pdfrwt beam="1">  1        1 0.23626421E-01 0.92436759E+02</pdfrwt>
<pdfrwt beam="2">  1       -1 0.21399556E-02 0.92436759E+02</pdfrwt>
<totfact> 0.10852222E+05</totfact>
</mgrwt>
</event>
<event>
 5    1  0.6046470E+000  0.9002641E+02  0.7546771E-02  0.1302788E+00
         -3   -1    0    0    0  501 -0.00000000000E+00  0.00000000000E+00  0.17207976085E+02  0.17207976085E+02  0.00000000000E+00 0.  1.
          3   -1    0    0  501    0  0.00000000000E+00 -0.00000000000E+00 -0.11774704942E+03  0.11774704942E+03  0.00000000000E+00 0. -1.
         23    2    1    2    0    0  0.00000000000E+00  0.00000000000E+00 -0.10053907333E+03  0.13495502550E+03  0.90026405247E+02 0.  0.
        -13    1    3    3    0    0 -0.38089153158E+02  0.19874201186E+02 -0.70405046677E+02  0.82478106541E+02  0.00000000000E+00 0.  1.
         13    1    3    3    0    0  0.38089153158E+02 -0.19874201186E+02 -0.30134026655E+02  0.52476918960E+02  0.00000000000E+00 0. -1.
<mgrwt>
<rscale>  0 0.90026405E+02</rscale>
<asrwt>0</asrwt>
<pdfrwt beam="2">  1        3 0.18114931E-01 0.90026405E+02</pdfrwt>
<pdfrwt beam="1">  1       -3 0.26473809E-02 0.90026405E+02</pdfrwt>
<totfact> 0.33380403E+04</totfact>
</mgrwt>
</event>
<event>
 5    1  0.6046470E+000  0.8959309E+02  0.7546771E-02  0.1303840E+00
          1   -1    0    0  501    0  0.00000000000E+00  0.00000000000E+00  0.88276480106E+02  0.88276480106E+02  0.00000000000E+00 0. -1.
         -1   -1    0    0    0  501 -0.00000000000E+00 -0.00000000000E+00 -0.22732331986E+02  0.22732331986E+02  0.00000000000E+00 0.  1.
         23    2    1    2    0    0  0.00000000000E+00  0.00000000000E+00  0.65544148120E+02  0.11100881209E+03  0.89593085722E+02 0.  0.
        -13    1    3    3    0    0  0.37795775740E+02 -0.18826803084E+02  0.14237814969E+02  0.44561020559E+02  0.00000000000E+00 0.  1.
         13    1    3    3    0    0 -0.37795775740E+02  0.18826803084E+02  0.51306333151E+02  0.66447791533E+02  0.00000000000E+00 0. -1.
<mgrwt>
<rscale>  0 0.89593086E+02</rscale>
<asrwt>0</asrwt>
<pdfrwt beam="1">  1        1 0.13580997E-01 0.89593086E+02</pdfrwt>
<pdfrwt beam="2">  1       -1 0.34972819E-02 0.89593086E+02</pdfrwt>
<totfact> 0.10735590E+05</totfact>
</mgrwt>
</event>
<event>
 5    1  0.6046470E+000  0.8265025E+02  0.7546771E-02  0.1321694E+00
          2   -1    0    0  501    0  0.00000000000E+00  0.00000000000E+00  0.39102320983E+03  0.39102320983E+03  0.00000000000E+00 0. -1.
         -2   -1    0    0    0  501 -0.00000000000E+00 -0.00000000000E+00 -0.43674289833E+01  0.43674289833E+01  0.00000000000E+00 0.  1.
         23    2    1    2    0    0  0.00000000000E+00  0.00000000000E+00  0.38665578085E+03  0.39539063882E+03  0.82650253472E+02 0.  0.
        -13    1    3    3    0    0 -0.20678370550E+02 -0.34330773445E+02  0.24154075820E+03  0.24484308217E+03  0.00000000000E+00 0. -1.
         13    1    3    3    0    0  0.20678370550E+02  0.34330773445E+02  0.14511502265E+03  0.15054755665E+03  0.00000000000E+00 0.  1.
<mgrwt>
<rscale>  0 0.82650253E+02</rscale>
<asrwt>0</asrwt>
<pdfrwt beam="1">  1        2 0.60157389E-01 0.82650253E+02</pdfrwt>
<pdfrwt beam="2">  1       -2 0.67191246E-03 0.82650253E+02</pdfrwt>
<totfact> 0.25662254E+05</totfact>
</mgrwt>
</event>
<event>
 5    1  0.6046470E+000  0.8467005E+02  0.7546771E-02  0.1316298E+00
          1   -1    0    0  501    0  0.00000000000E+00  0.00000000000E+00  0.57773852765E+02  0.57773852765E+02  0.00000000000E+00 0. -1.
         -1   -1    0    0    0  501 -0.00000000000E+00 -0.00000000000E+00 -0.31021892807E+02  0.31021892807E+02  0.00000000000E+00 0.  1.
         23    2    1    2    0    0  0.00000000000E+00  0.00000000000E+00  0.26751959958E+02  0.88795745572E+02  0.84670048247E+02 0.  0.
        -13    1    3    3    0    0 -0.40071454313E+02 -0.11089744322E+02  0.50156878521E+01  0.41879123731E+02  0.00000000000E+00 0.  1.
         13    1    3    3    0    0  0.40071454313E+02  0.11089744322E+02  0.21736272106E+02  0.46916621841E+02  0.00000000000E+00 0. -1.
<mgrwt>
<rscale>  0 0.84670048E+02</rscale>
<asrwt>0</asrwt>
<pdfrwt beam="1">  1        1 0.88882850E-02 0.84670048E+02</pdfrwt>
<pdfrwt beam="2">  1       -1 0.47725989E-02 0.84670048E+02</pdfrwt>
<totfact> 0.11755142E+05</totfact>
</mgrwt>
</event>
<event>
 5    1  0.6046470E+000  0.9292488E+02  0.7546771E-02  0.1295919E+00
          1   -1    0    0  501    0  0.00000000000E+00  0.00000000000E+00  0.52837776428E+01  0.52837776428E+01  0.00000000000E+00 0. -1.
         -1   -1    0    0    0  501 -0.00000000000E+00 -0.00000000000E+00 -0.40856343735E+03  0.40856343735E+03  0.00000000000E+00 0.  1.
         23    2    1    2    0    0  0.00000000000E+00  0.00000000000E+00 -0.40327965971E+03  0.41384721499E+03  0.92924880542E+02 0.  0.
        -13    1    3    3    0    0 -0.48726506426E+01 -0.45387817137E+02 -0.24019900208E+03  0.24449817436E+03  0.00000000000E+00 0.  1.
         13    1    3    3    0    0  0.48726506426E+01  0.45387817137E+02 -0.16308065763E+03  0.16934904063E+03  0.00000000000E+00 0. -1.
<mgrwt>
<rscale>  0 0.92924881E+02</rscale>
<asrwt>0</asrwt>
<pdfrwt beam="1">  1        1 0.81288872E-03 0.92924881E+02</pdfrwt>
<pdfrwt beam="2">  1       -1 0.62855925E-01 0.92924881E+02</pdfrwt>
<totfact> 0.50155217E+04</totfact>
</mgrwt>
</event>
<event>
 5    1  0.6046470E+000  0.9866146E+02  0.7546771E-02  0.1283136E+00
          4   -1    0    0  501    0  0.00000000000E+00  0.00000000000E+00  0.42686103635E+02  0.42686103635E+02  0.00000000000E+00 0. -1.
         -4   -1    0    0    0  501 -0.00000000000E+00 -0.00000000000E+00 -0.57009679116E+02  0.57009679116E+02  0.00000000000E+00 0.  1.
         23    2    1    2    0    0  0.00000000000E+00  0.00000000000E+00 -0.14323575482E+02  0.99695782751E+02  0.98661463013E+02 0.  0.
        -13    1    3    3    0    0  0.17605843435E+02  0.15220601979E+02  0.36790048017E+02  0.43533206645E+02  0.00000000000E+00 0. -1.
         13    1    3    3    0    0 -0.17605843435E+02 -0.15220601979E+02 -0.51113623499E+02  0.56162576106E+02  0.00000000000E+00 0.  1.
<mgrwt>
<rscale>  0 0.98661463E+02</rscale>
<asrwt>0</asrwt>
<pdfrwt beam="1">  1        4 0.65670928E-02 0.98661463E+02</pdfrwt>
<pdfrwt beam="2">  1       -4 0.87707199E-02 0.98661463E+02</pdfrwt>
<totfact> 0.21348510E+04</totfact>
</mgrwt>
</event>
<event>
 5    1  0.6046470E+000  0.9122602E+02  0.7546771E-02  0.1299910E+00
         -2   -1    0    0    0  501 -0.00000000000E+00  0.00000000000E+00  0.22759608914E+02  0.22759608914E+02  0.00000000000E+00 0.  1.
          2   -1    0    0  501    0  0.00000000000E+00 -0.00000000000E+00 -0.91413995991E+02  0.91413995991E+02  0.00000000000E+00 0. -1.
         23    2    1    2    0    0  0.00000000000E+00  0.00000000000E+00 -0.68654387077E+02  0.11417360491E+03  0.91226022560E+02 0.  0.
        -13    1    3    3    0    0  0.31947362905E+02  0.96855023229E+01 -0.73228024562E+02  0.80478484908E+02  0.00000000000E+00 0. -1.
         13    1    3    3    0    0 -0.31947362905E+02 -0.96855023229E+01  0.45736374847E+01  0.33695119998E+02  0.00000000000E+00 0.  1.
<mgrwt>
<rscale>  0 0.91226023E+02</rscale>
<asrwt>0</asrwt>
<pdfrwt beam="2">  1        2 0.14063692E-01 0.91226023E+02</pdfrwt>
<pdfrwt beam="1">  1       -2 0.35014783E-02 0.91226023E+02</pdfrwt>
<totfact> 0.11923074E+05</totfact>
</mgrwt>
</event>
<event>
 5    1  0.6046470E+000  0.8952513E+02  0.7546771E-02  0.1304006E+00
         -2   -1    0    0    0  501 -0.00000000000E+00  0.00000000000E+00  0.18019682483E+03  0.18019682483E+03  0.00000000000E+00 0.  1.
          2   -1    0    0  501    0  0.00000000000E+00 -0.00000000000E+00 -0.11119437801E+02  0.11119437801E+02  0.00000000000E+00 0. -1.
         23    2    1    2    0    0  0.00000000000E+00  0.00000000000E+00  0.16907738702E+03  0.19131626263E+03  0.89525133579E+02 0.  0.
        -13    1    3    3    0    0 -0.38827693254E+02 -0.56957613914E+01  0.38523122323E+02  0.54991475837E+02  0.00000000000E+00 0. -1.
         13    1    3    3    0    0  0.38827693254E+02  0.56957613914E+01  0.13055426470E+03  0.13632478679E+03  0.00000000000E+00 0.  1.
<mgrwt>
<rscale>  0 0.89525134E+02</rscale>
<asrwt>0</asrwt>
<pdfrwt beam="2">  1        2 0.17106829E-02 0.89525134E+02</pdfrwt>
<pdfrwt beam="1">  1       -2 0.27722586E-01 0.89525134E+02</pdfrwt>
<totfact> 0.68203827E+04</totfact>
</mgrwt>
</event>
<event>
 5    1  0.6046470E+000  0.9075082E+02  0.7546771E-02  0.1301044E+00
          1   -1    0    0  501    0  0.00000000000E+00  0.00000000000E+00  0.18766000507E+03  0.18766000507E+03  0.00000000000E+00 0.  1.
         -1   -1    0    0    0  501 -0.00000000000E+00 -0.00000000000E+00 -0.10971586557E+02  0.10971586557E+02  0.00000000000E+00 0. -1.
         23    2    1    2    0    0  0.00000000000E+00  0.00000000000E+00  0.17668841851E+03  0.19863159163E+03  0.90750823444E+02 0.  0.
        -13    1    3    3    0    0 -0.23890862805E+02 -0.22088333259E+02  0.19120599568E+02  0.37739437192E+02  0.00000000000E+00 0. -1.
         13    1    3    3    0    0  0.23890862805E+02  0.22088333259E+02  0.15756781894E+03  0.16089215443E+03  0.00000000000E+00 0.  1.
<mgrwt>
<rscale>  0 0.90750823E+02</rscale>
<asrwt>0</asrwt>
<pdfrwt beam="1">  1        1 0.28870768E-01 0.90750823E+02</pdfrwt>
<pdfrwt beam="2">  1       -1 0.16879365E-02 0.90750823E+02</pdfrwt>
<totfact> 0.11843697E+05</totfact>
</mgrwt>
</event>
<event>
 5    1  0.6046470E+000  0.9205245E+02  0.7546771E-02  0.1297956E+00
         -2   -1    0    0    0  501 -0.00000000000E+00  0.00000000000E+00  0.23662191145E+02  0.23662191145E+02  0.00000000000E+00 0.  1.
          2   -1    0    0  501    0  0.00000000000E+00 -0.00000000000E+00 -0.89527364703E+02  0.89527364703E+02  0.00000000000E+00 0. -1.
         23    2    1    2    0    0  0.00000000000E+00  0.00000000000E+00 -0.65865173558E+02  0.11318955585E+03  0.92052454966E+02 0.  0.
        -13    1    3    3    0    0 -0.44779292942E+02 -0.35962197918E+01 -0.45246957699E+02  0.63760528968E+02  0.00000000000E+00 0. -1.
         13    1    3    3    0    0  0.44779292942E+02  0.35962197918E+01 -0.20618215859E+02  0.49429026881E+02  0.00000000000E+00 0.  1.
<mgrwt>
<rscale>  0 0.92052455E+02</rscale>
<asrwt>0</asrwt>
<pdfrwt beam="2">  1        2 0.13773441E-01 0.92052455E+02</pdfrwt>
<pdfrwt beam="1">  1       -2 0.36403371E-02 0.92052455E+02</pdfrwt>
<totfact> 0.11557285E+05</totfact>
</mgrwt>
</event>
<event>
 5    1  0.6046470E+000  0.9036346E+02  0.7546771E-02  0.1301974E+00
          2   -1    0    0  501    0  0.00000000000E+00  0.00000000000E+00  0.66105018265E+02  0.66105018265E+02  0.00000000000E+00 0. -1.
         -2   -1    0    0    0  501 -0.00000000000E+00 -0.00000000000E+00 -0.30880993085E+02  0.30880993085E+02  0.00000000000E+00 0.  1.
         23    2    1    2    0    0  0.00000000000E+00  0.00000000000E+00  0.35224025180E+02  0.96986011350E+02  0.90363457480E+02 0.  0.
        -13    1    3    3    0    0 -0.37971287730E+02 -0.18470170096E+02  0.34865687863E+02  0.54759310308E+02  0.00000000000E+00 0. -1.
         13    1    3    3    0    0  0.37971287730E+02  0.18470170096E+02  0.35833731641E+00  0.42226701042E+02  0.00000000000E+00 0.  1.
<mgrwt>
<rscale>  0 0.90363457E+02</rscale>
<asrwt>0</asrwt>
<pdfrwt beam="1">  1        2 0.10170003E-01 0.90363457E+02</pdfrwt>
<pdfrwt beam="2">  1       -2 0.47509220E-02 0.90363457E+02</pdfrwt>
<totfact> 0.11165857E+05</totfact>
</mgrwt>
</event>
<event>
 5    1  0.6046470E+000  0.9184243E+02  0.7546771E-02  0.1298450E+00
          1   -1    0    0  501    0  0.00000000000E+00  0.00000000000E+00  0.77379212402E+02  0.77379212402E+02  0.00000000000E+00 0. -1.
         -1   -1    0    0    0  501 -0.00000000000E+00 -0.00000000000E+00 -0.27252253085E+02  0.27252253085E+02  0.00000000000E+00 0.  1.
         23    2    1    2    0    0  0.00000000000E+00  0.00000000000E+00  0.50126959317E+02  0.10463146549E+03  0.91842427667E+02 0.  0.
        -13    1    3    3    0    0  0.17245869203E+02 -0.27259986297E+02 -0.12171536475E+02  0.34477139638E+02  0.00000000000E+00 0.  1.
         13    1    3    3    0    0 -0.17245869203E+02  0.27259986297E+02  0.62298495792E+02  0.70154325849E+02  0.00000000000E+00 0. -1.
<mgrwt>
<rscale>  0 0.91842428E+02</rscale>
<asrwt>0</asrwt>
<pdfrwt beam="1">  1        1 0.11904494E-01 0.91842428E+02</pdfrwt>
<pdfrwt beam="2">  1       -1 0.41926543E-02 0.91842428E+02</pdfrwt>
<totfact> 0.98231647E+04</totfact>
</mgrwt>
</event>
<event>
 5    1  0.6046470E+000  0.9136924E+02  0.7546771E-02  0.1299569E+00
          3   -1    0    0  501    0  0.00000000000E+00  0.00000000000E+00  0.17212381234E+03  0.17212381234E+03  0.00000000000E+00 0. -1.
         -3   -1    0    0    0  501 -0.00000000000E+00 -0.00000000000E+00 -0.12125484700E+02  0.12125484700E+02  0.00000000000E+00 0.  1.
         23    2    1    2    0    0  0.00000000000E+00  0.00000000000E+00  0.15999832764E+03  0.18424929704E+03  0.91369243250E+02 0.  0.
        -13    1    3    3    0    0 -0.30231216146E+02 -0.16510185014E+02  0.19483885494E+02  0.39574416393E+02  0.00000000000E+00 0.  1.
         13    1    3    3    0    0  0.30231216146E+02  0.16510185014E+02  0.14051444214E+03  0.14467488065E+03  0.00000000000E+00 0. -1.
<mgrwt>
<rscale>  0 0.91369243E+02</rscale>
<asrwt>0</asrwt>
<pdfrwt beam="1">  1        3 0.26480585E-01 0.91369243E+02</pdfrwt>
<pdfrwt beam="2">  1       -3 0.18654593E-02 0.91369243E+02</pdfrwt>
<totfact> 0.29166800E+04</totfact>
</mgrwt>
</event>
<event>
 5    1  0.6046470E+000  0.9183500E+02  0.7546771E-02  0.1298468E+00
          1   -1    0    0  501    0  0.00000000000E+00  0.00000000000E+00  0.31729981165E+02  0.31729981165E+02  0.00000000000E+00 0. -1.
         -1   -1    0    0    0  501 -0.00000000000E+00 -0.00000000000E+00 -0.66448732092E+02  0.66448732092E+02  0.00000000000E+00 0.  1.
         23    2    1    2    0    0  0.00000000000E+00  0.00000000000E+00 -0.34718750927E+02  0.98178713257E+02  0.91835004605E+02 0.  0.
        -13    1    3    3    0    0 -0.16693813613E+02 -0.23898545733E+02 -0.55286660878E+02  0.62501510159E+02  0.00000000000E+00 0.  1.
         13    1    3    3    0    0  0.16693813613E+02  0.23898545733E+02  0.20567909951E+02  0.35677203098E+02  0.00000000000E+00 0. -1.
<mgrwt>
<rscale>  0 0.91835005E+02</rscale>
<asrwt>0</asrwt>
<pdfrwt beam="1">  1        1 0.48815356E-02 0.91835005E+02</pdfrwt>
<pdfrwt beam="2">  1       -1 0.10222882E-01 0.91835005E+02</pdfrwt>
<totfact> 0.85681334E+04</totfact>
</mgrwt>
</event>
<event>
 5    1  0.6046470E+000  0.9110247E+02  0.7546771E-02  0.1300204E+00
         -2   -1    0    0    0  501 -0.00000000000E+00  0.00000000000E+00  0.65294269050E+02  0.65294269050E+02  0.00000000000E+00 0.  1.
          2   -1    0    0  501    0  0.00000000000E+00 -0.00000000000E+00 -0.31777902269E+02  0.31777902269E+02  0.00000000000E+00 0. -1.
         23    2    1    2    0    0  0.00000000000E+00  0.00000000000E+00  0.33516366781E+02  0.97072171319E+02  0.91102467597E+02 0.  0.
        -13    1    3    3    0    0 -0.37940212200E+02 -0.88432988162E+01  0.41911203332E+02  0.57220735756E+02  0.00000000000E+00 0. -1.
         13    1    3    3    0    0  0.37940212200E+02  0.88432988162E+01 -0.83948365514E+01  0.39851435563E+02  0.00000000000E+00 0.  1.
<mgrwt>
<rscale>  0 0.91102468E+02</rscale>
<asrwt>0</asrwt>
<pdfrwt beam="2">  1        2 0.48889081E-02 0.91102468E+02</pdfrwt>
<pdfrwt beam="1">  1       -2 0.10045272E-01 0.91102468E+02</pdfrwt>
<totfact> 0.90046404E+04</totfact>
</mgrwt>
</event>
<event>
 5    1  0.6046470E+000  0.9615800E+02  0.7546771E-02  0.1288589E+00
          2   -1    0    0  501    0  0.00000000000E+00  0.00000000000E+00  0.39304818214E+03  0.39304818214E+03  0.00000000000E+00 0. -1.
         -2   -1    0    0    0  501 -0.00000000000E+00 -0.00000000000E+00 -0.58811877258E+01  0.58811877258E+01  0.00000000000E+00 0.  1.
         23    2    1    2    0    0  0.00000000000E+00  0.00000000000E+00  0.38716699442E+03  0.39892936987E+03  0.96157997992E+02 0.  0.
        -13    1    3    3    0    0 -0.30752110329E+01 -0.44906184411E+02  0.12347587563E+03  0.13142417656E+03  0.00000000000E+00 0.  1.
         13    1    3    3    0    0  0.30752110329E+01  0.44906184411E+02  0.26369111879E+03  0.26750519331E+03  0.00000000000E+00 0. -1.
<mgrwt>
<rscale>  0 0.96157998E+02</rscale>
<asrwt>0</asrwt>
<pdfrwt beam="1">  1        2 0.60468931E-01 0.96157998E+02</pdfrwt>
<pdfrwt beam="2">  1       -2 0.90479842E-03 0.96157998E+02</pdfrwt>
<totfact> 0.17216257E+05</totfact>
</mgrwt>
</event>
<event>
 5    1  0.6046470E+000  0.9395207E+02  0.7546771E-02  0.1293554E+00
          2   -1    0    0  501    0  0.00000000000E+00  0.00000000000E+00  0.26633265594E+03  0.26633265594E+03  0.00000000000E+00 0. -1.
         -2   -1    0    0    0  501 -0.00000000000E+00 -0.00000000000E+00 -0.82856826748E+01  0.82856826748E+01  0.00000000000E+00 0.  1.
         23    2    1    2    0    0  0.00000000000E+00  0.00000000000E+00  0.25804697327E+03  0.27461833862E+03  0.93952070186E+02 0.  0.
        -13    1    3    3    0    0  0.98691758942E-01 -0.45744498169E+02  0.16025667623E+03  0.16665764647E+03  0.00000000000E+00 0. -1.
         13    1    3    3    0    0 -0.98691758942E-01  0.45744498169E+02  0.97790297043E+02  0.10796069215E+03  0.00000000000E+00 0.  1.
<mgrwt>
<rscale>  0 0.93952070E+02</rscale>
<asrwt>0</asrwt>
<pdfrwt beam="1">  1        2 0.40974248E-01 0.93952070E+02</pdfrwt>
<pdfrwt beam="2">  1       -2 0.12747206E-02 0.93952070E+02</pdfrwt>
<totfact> 0.15858432E+05</totfact>
</mgrwt>
</event>
<event>
 5    1  0.6046470E+000  0.9163423E+02  0.7546771E-02  0.1298942E+00
          3   -1    0    0  501    0  0.00000000000E+00  0.00000000000E+00  0.77331635337E+02  0.77331635337E+02  0.00000000000E+00 0. -1.
         -3   -1    0    0    0  501 -0.00000000000E+00 -0.00000000000E+00 -0.27145524592E+02  0.27145524592E+02  0.00000000000E+00 0.  1.
         23    2    1    2    0    0  0.00000000000E+00  0.00000000000E+00  0.50186110745E+02  0.10447715993E+03  0.91634225238E+02 0.  0.
        -13    1    3    3    0    0  0.15586308882E+02 -0.41709334995E+02  0.12781174915E+02  0.46324508443E+02  0.00000000000E+00 0.  1.
         13    1    3    3    0    0 -0.15586308882E+02  0.41709334995E+02  0.37404935831E+02  0.58152651486E+02  0.00000000000E+00 0. -1.
<mgrwt>
<rscale>  0 0.91634225E+02</rscale>
<asrwt>0</asrwt>
<pdfrwt beam="1">  1        3 0.11897175E-01 0.91634225E+02</pdfrwt>
<pdfrwt beam="2">  1       -3 0.41762346E-02 0.91634225E+02</pdfrwt>
<totfact> 0.33877198E+04</totfact>
</mgrwt>
</event>
<event>
 5    1  0.6046470E+000  0.1195172E+03  0.7546771E-02  0.1243896E+00
         -1   -1    0    0    0  501 -0.00000000000E+00  0.00000000000E+00  0.11939652768E+02  0.11939652768E+02  0.00000000000E+00 0.  1.
          1   -1    0    0  501    0  0.00000000000E+00 -0.00000000000E+00 -0.29909480212E+03  0.29909480212E+03  0.00000000000E+00 0. -1.
         23    2    1    2    0    0  0.00000000000E+00  0.00000000000E+00 -0.28715514936E+03  0.31103445489E+03  0.11951716332E+03 0.  0.
        -13    1    3    3    0    0  0.30504187296E+02 -0.46938785751E+02 -0.19800081105E+03  0.20576218367E+03  0.00000000000E+00 0.  1.
         13    1    3    3    0    0 -0.30504187296E+02  0.46938785751E+02 -0.89154338304E+02  0.10527227122E+03  0.00000000000E+00 0. -1.
<mgrwt>
<rscale>  0 0.11951716E+03</rscale>
<asrwt>0</asrwt>
<pdfrwt beam="2">  1        1 0.46014582E-01 0.11951716E+03</pdfrwt>
<pdfrwt beam="1">  1       -1 0.18368698E-02 0.11951716E+03</pdfrwt>
<totfact> 0.61597641E+04</totfact>
</mgrwt>
</event>
<event>
 5    1  0.6046470E+000  0.9157721E+02  0.7546771E-02  0.1299077E+00
         -1   -1    0    0    0  501 -0.00000000000E+00  0.00000000000E+00  0.38818499617E+02  0.38818499617E+02  0.00000000000E+00 0.  1.
          1   -1    0    0  501    0  0.00000000000E+00 -0.00000000000E+00 -0.54010240347E+02  0.54010240347E+02  0.00000000000E+00 0. -1.
         23    2    1    2    0    0  0.00000000000E+00  0.00000000000E+00 -0.15191740730E+02  0.92828739965E+02  0.91577213198E+02 0.  0.
        -13    1    3    3    0    0  0.32795061933E+02 -0.26347736922E+02 -0.25922699223E+02  0.49413618195E+02  0.00000000000E+00 0. -1.
         13    1    3    3    0    0 -0.32795061933E+02  0.26347736922E+02  0.10730958493E+02  0.43415121770E+02  0.00000000000E+00 0.  1.
<mgrwt>
<rscale>  0 0.91577213E+02</rscale>
<asrwt>0</asrwt>
<pdfrwt beam="2">  1        1 0.83092678E-02 0.91577213E+02</pdfrwt>
<pdfrwt beam="1">  1       -1 0.59720769E-02 0.91577213E+02</pdfrwt>
<totfact> 0.93703772E+04</totfact>
</mgrwt>
</event>
<event>
 5    1  0.6046470E+000  0.9194411E+02  0.7546771E-02  0.1298211E+00
         -3   -1    0    0    0  501 -0.00000000000E+00  0.00000000000E+00  0.54858692273E+02  0.54858692273E+02  0.00000000000E+00 0.  1.
          3   -1    0    0  501    0  0.00000000000E+00 -0.00000000000E+00 -0.38524975058E+02  0.38524975058E+02  0.00000000000E+00 0. -1.
         23    2    1    2    0    0  0.00000000000E+00  0.00000000000E+00  0.16333717215E+02  0.93383667331E+02  0.91944108056E+02 0.  0.
        -13    1    3    3    0    0  0.39408659209E+02 -0.21636383735E+02 -0.15884309551E+01  0.44985538061E+02  0.00000000000E+00 0. -1.
         13    1    3    3    0    0 -0.39408659209E+02  0.21636383735E+02  0.17922148170E+02  0.48398129270E+02  0.00000000000E+00 0.  1.
<mgrwt>
<rscale>  0 0.91944108E+02</rscale>
<asrwt>0</asrwt>
<pdfrwt beam="2">  1        3 0.59269192E-02 0.91944108E+02</pdfrwt>
<pdfrwt beam="1">  1       -3 0.84397988E-02 0.91944108E+02</pdfrwt>
<totfact> 0.34375046E+04</totfact>
</mgrwt>
</event>
<event>
 5    1  0.6046470E+000  0.9070192E+02  0.7546771E-02  0.1301161E+00
         -1   -1    0    0    0  501 -0.00000000000E+00  0.00000000000E+00  0.27702833448E+03  0.27702833448E+03  0.00000000000E+00 0.  1.
          1   -1    0    0  501    0  0.00000000000E+00 -0.00000000000E+00 -0.74241848425E+01  0.74241848425E+01  0.00000000000E+00 0. -1.
         23    2    1    2    0    0  0.00000000000E+00  0.00000000000E+00  0.26960414964E+03  0.28445251932E+03  0.90701919754E+02 0.  0.
        -13    1    3    3    0    0 -0.42631376326E+02  0.11509781991E+02  0.16721210273E+03  0.17294449002E+03  0.00000000000E+00 0.  1.
         13    1    3    3    0    0  0.42631376326E+02 -0.11509781991E+02  0.10239204690E+03  0.11150802930E+03  0.00000000000E+00 0. -1.
<mgrwt>
<rscale>  0 0.90701920E+02</rscale>
<asrwt>0</asrwt>
<pdfrwt beam="2">  1        1 0.11421825E-02 0.90701920E+02</pdfrwt>
<pdfrwt beam="1">  1       -1 0.42619736E-01 0.90701920E+02</pdfrwt>
<totfact> 0.63312103E+04</totfact>
</mgrwt>
</event>
<event>
 5    1  0.6046470E+000  0.9311300E+02  0.7546771E-02  0.1295484E+00
         -2   -1    0    0    0  501 -0.00000000000E+00  0.00000000000E+00  0.20171467870E+02  0.20171467870E+02  0.00000000000E+00 0.  1.
          2   -1    0    0  501    0  0.00000000000E+00 -0.00000000000E+00 -0.10745413560E+03  0.10745413560E+03  0.00000000000E+00 0. -1.
         23    2    1    2    0    0  0.00000000000E+00  0.00000000000E+00 -0.87282667733E+02  0.12762560347E+03  0.93112998960E+02 0.  0.
        -13    1    3    3    0    0 -0.23379372555E+02 -0.32997144994E+02 -0.75258615934E+02  0.85435741415E+02  0.00000000000E+00 0. -1.
         13    1    3    3    0    0  0.23379372555E+02  0.32997144994E+02 -0.12024051799E+02  0.42189862058E+02  0.00000000000E+00 0.  1.
<mgrwt>
<rscale>  0 0.93112999E+02</rscale>
<asrwt>0</asrwt>
<pdfrwt beam="2">  1        2 0.16531405E-01 0.93112999E+02</pdfrwt>
<pdfrwt beam="1">  1       -2 0.31033028E-02 0.93112999E+02</pdfrwt>
<totfact> 0.11837252E+05</totfact>
</mgrwt>
</event>
<event>
 5    1  0.6046470E+000  0.8835525E+02  0.7546771E-02  0.1306884E+00
         -1   -1    0    0    0  501 -0.00000000000E+00  0.00000000000E+00  0.10531608065E+03  0.10531608065E+03  0.00000000000E+00 0.  1.
          1   -1    0    0  501    0  0.00000000000E+00 -0.00000000000E+00 -0.18531477712E+02  0.18531477712E+02  0.00000000000E+00 0. -1.
         23    2    1    2    0    0  0.00000000000E+00  0.00000000000E+00  0.86784602934E+02  0.12384755836E+03  0.88355251144E+02 0.  0.
        -13    1    3    3    0    0 -0.38277883836E+02  0.11153533668E+02  0.70063853835E+02  0.80613530617E+02  0.00000000000E+00 0.  1.
         13    1    3    3    0    0  0.38277883836E+02 -0.11153533668E+02  0.16720749099E+02  0.43234027741E+02  0.00000000000E+00 0. -1.
<mgrwt>
<rscale>  0 0.88355251E+02</rscale>
<asrwt>0</asrwt>
<pdfrwt beam="2">  1        1 0.28509966E-02 0.88355251E+02</pdfrwt>
<pdfrwt beam="1">  1       -1 0.16202474E-01 0.88355251E+02</pdfrwt>
<totfact> 0.87373275E+04</totfact>
</mgrwt>
</event>
<event>
 5    1  0.6046470E+000  0.9054961E+02  0.7546771E-02  0.1301526E+00
         -1   -1    0    0    0  501 -0.00000000000E+00  0.00000000000E+00  0.10744933268E+02  0.10744933268E+02  0.00000000000E+00 0.  1.
          1   -1    0    0  501    0  0.00000000000E+00 -0.00000000000E+00 -0.19076973515E+03  0.19076973515E+03  0.00000000000E+00 0. -1.
         23    2    1    2    0    0  0.00000000000E+00  0.00000000000E+00 -0.18002480188E+03  0.20151466842E+03  0.90549612339E+02 0.  0.
        -13    1    3    3    0    0  0.85469660304E+01 -0.43102616305E+02 -0.11428135236E+03  0.12243820343E+03  0.00000000000E+00 0. -1.
         13    1    3    3    0    0 -0.85469660304E+01  0.43102616305E+02 -0.65743449523E+02  0.79076464993E+02  0.00000000000E+00 0.  1.
<mgrwt>
<rscale>  0 0.90549612E+02</rscale>
<asrwt>0</asrwt>
<pdfrwt beam="2">  1        1 0.29349189E-01 0.90549612E+02</pdfrwt>
<pdfrwt beam="1">  1       -1 0.16530667E-02 0.90549612E+02</pdfrwt>
<totfact> 0.11952114E+05</totfact>
</mgrwt>
</event>
<event>
 5    1  0.6046470E+000  0.8800465E+02  0.7546771E-02  0.1307757E+00
         -1   -1    0    0    0  501 -0.00000000000E+00  0.00000000000E+00  0.25648841614E+02  0.25648841614E+02  0.00000000000E+00 0.  1.
          1   -1    0    0  501    0  0.00000000000E+00 -0.00000000000E+00 -0.75488966195E+02  0.75488966195E+02  0.00000000000E+00 0. -1.
         23    2    1    2    0    0  0.00000000000E+00  0.00000000000E+00 -0.49840124581E+02  0.10113780781E+03  0.88004648457E+02 0.  0.
        -13    1    3    3    0    0  0.26514865163E+02  0.19641490289E+02 -0.58373950266E+02  0.67054785698E+02  0.00000000000E+00 0. -1.
         13    1    3    3    0    0 -0.26514865163E+02 -0.19641490289E+02  0.85338256852E+01  0.34083022110E+02  0.00000000000E+00 0.  1.
<mgrwt>
<rscale>  0 0.88004648E+02</rscale>
<asrwt>0</asrwt>
<pdfrwt beam="2">  1        1 0.11613687E-01 0.88004648E+02</pdfrwt>
<pdfrwt beam="1">  1       -1 0.39459757E-02 0.88004648E+02</pdfrwt>
<totfact> 0.11000644E+05</totfact>
</mgrwt>
</event>
<event>
 5    1  0.6046470E+000  0.8754278E+02  0.7546771E-02  0.1308914E+00
          1   -1    0    0  501    0  0.00000000000E+00  0.00000000000E+00  0.19206638957E+03  0.19206638957E+03  0.00000000000E+00 0. -1.
         -1   -1    0    0    0  501 -0.00000000000E+00 -0.00000000000E+00 -0.99753778023E+01  0.99753778023E+01  0.00000000000E+00 0.  1.
         23    2    1    2    0    0  0.00000000000E+00  0.00000000000E+00  0.18209101177E+03  0.20204176737E+03  0.87542784947E+02 0.  0.
        -13    1    3    3    0    0  0.68517406408E+01 -0.37572172506E+02  0.14040049283E+03  0.14550227794E+03  0.00000000000E+00 0. -1.
         13    1    3    3    0    0 -0.68517406408E+01  0.37572172506E+02  0.41690518932E+02  0.56539489434E+02  0.00000000000E+00 0.  1.
<mgrwt>
<rscale>  0 0.87542785E+02</rscale>
<asrwt>0</asrwt>
<pdfrwt beam="1">  1        1 0.29548673E-01 0.87542785E+02</pdfrwt>
<pdfrwt beam="2">  1       -1 0.15346736E-02 0.87542785E+02</pdfrwt>
<totfact> 0.13099120E+05</totfact>
</mgrwt>
</event>
<event>
 5    1  0.6046470E+000  0.9216487E+02  0.7546771E-02  0.1297692E+00
          2   -1    0    0  501    0  0.00000000000E+00  0.00000000000E+00  0.58893148669E+01  0.58893148669E+01  0.00000000000E+00 0. -1.
         -2   -1    0    0    0  501 -0.00000000000E+00 -0.00000000000E+00 -0.36058367752E+03  0.36058367752E+03  0.00000000000E+00 0.  1.
         23    2    1    2    0    0  0.00000000000E+00  0.00000000000E+00 -0.35469436265E+03  0.36647299239E+03  0.92164869940E+02 0.  0.
        -13    1    3    3    0    0 -0.23499924606E+01  0.45134885085E+02 -0.21311389130E+03  0.21785364578E+03  0.00000000000E+00 0.  1.
         13    1    3    3    0    0  0.23499924606E+01 -0.45134885085E+02 -0.14158047135E+03  0.14861934660E+03  0.00000000000E+00 0. -1.
<mgrwt>
<rscale>  0 0.92164870E+02</rscale>
<asrwt>0</asrwt>
<pdfrwt beam="1">  1        2 0.90604838E-03 0.92164870E+02</pdfrwt>
<pdfrwt beam="2">  1       -2 0.55474416E-01 0.92164870E+02</pdfrwt>
<totfact> 0.44438103E+04</totfact>
</mgrwt>
</event>
<event>
 5    1  0.6046470E+000  0.9204158E+02  0.7546771E-02  0.1297982E+00
         -2   -1    0    0    0  501 -0.00000000000E+00  0.00000000000E+00  0.12865265716E+03  0.12865265716E+03  0.00000000000E+00 0. -1.
          2   -1    0    0  501    0  0.00000000000E+00 -0.00000000000E+00 -0.16462258588E+02  0.16462258588E+02  0.00000000000E+00 0.  1.
         23    2    1    2    0    0  0.00000000000E+00  0.00000000000E+00  0.11219039857E+03  0.14511491574E+03  0.92041584301E+02 0.  0.
        -13    1    3    3    0    0 -0.15674282510E+02 -0.19091770223E+02 -0.51243887779E+01  0.25227726469E+02  0.00000000000E+00 0.  1.
         13    1    3    3    0    0  0.15674282510E+02  0.19091770223E+02  0.11731478735E+03  0.11988718928E+03  0.00000000000E+00 0. -1.
<mgrwt>
<rscale>  0 0.92041584E+02</rscale>
<asrwt>0</asrwt>
<pdfrwt beam="2">  1        2 0.25326552E-02 0.92041584E+02</pdfrwt>
<pdfrwt beam="1">  1       -2 0.19792716E-01 0.92041584E+02</pdfrwt>
<totfact> 0.71973553E+04</totfact>
</mgrwt>
</event>
<event>
 4    1  0.6046470E+000  0.2693933E+03  0.7546771E-02  0.1101627E+00
          2   -1    0    0  501    0  0.00000000000E+00  0.00000000000E+00  0.96517097849E+02  0.96517097849E+02  0.00000000000E+00 0.  1.
         -2   -1    0    0    0  501 -0.00000000000E+00 -0.00000000000E+00 -0.18797905993E+03  0.18797905993E+03  0.00000000000E+00 0. -1.
        -13    1    1    2    0    0 -0.33105737046E+02 -0.93092233450E+02  0.50949430682E+02  0.11116653382E+03  0.00000000000E+00 0.  1.
         13    1    1    2    0    0  0.33105737046E+02  0.93092233450E+02 -0.14241139277E+03  0.17332962396E+03  0.00000000000E+00 0. -1.
<mgrwt>
<rscale>  0 0.26939334E+03</rscale>
<asrwt>0</asrwt>
<pdfrwt beam="1">  1        2 0.14848784E-01 0.26939334E+03</pdfrwt>
<pdfrwt beam="2">  1       -2 0.28919855E-01 0.26939334E+03</pdfrwt>
<totfact> 0.42837924E+03</totfact>
</mgrwt>
</event>
<event>
 5    1  0.6046470E+000  0.9516046E+02  0.7546771E-02  0.1290815E+00
          2   -1    0    0  501    0  0.00000000000E+00  0.00000000000E+00  0.15693750478E+03  0.15693750478E+03  0.00000000000E+00 0. -1.
         -2   -1    0    0    0  501 -0.00000000000E+00 -0.00000000000E+00 -0.14425349640E+02  0.14425349640E+02  0.00000000000E+00 0.  1.
         23    2    1    2    0    0  0.00000000000E+00  0.00000000000E+00  0.14251215514E+03  0.17136285442E+03  0.95160461917E+02 0.  0.
        -13    1    3    3    0    0 -0.36872568611E+02 -0.12197632428E+02  0.21758926303E+02  0.44517630515E+02  0.00000000000E+00 0.  1.
         13    1    3    3    0    0  0.36872568611E+02  0.12197632428E+02  0.12075322884E+03  0.12684522391E+03  0.00000000000E+00 0. -1.
<mgrwt>
<rscale>  0 0.95160462E+02</rscale>
<asrwt>0</asrwt>
<pdfrwt beam="1">  1        2 0.24144230E-01 0.95160462E+02</pdfrwt>
<pdfrwt beam="2">  1       -2 0.22192847E-02 0.95160462E+02</pdfrwt>
<totfact> 0.12639683E+05</totfact>
</mgrwt>
</event>
<event>
 5    1  0.6046470E+000  0.9253396E+02  0.7546771E-02  0.1296829E+00
          2   -1    0    0  501    0  0.00000000000E+00  0.00000000000E+00  0.36397682393E+02  0.36397682393E+02  0.00000000000E+00 0. -1.
         -2   -1    0    0    0  501 -0.00000000000E+00 -0.00000000000E+00 -0.58812355631E+02  0.58812355631E+02  0.00000000000E+00 0.  1.
         23    2    1    2    0    0  0.00000000000E+00  0.00000000000E+00 -0.22414673238E+02  0.95210038024E+02  0.92533960059E+02 0.  0.
        -13    1    3    3    0    0 -0.22976613768E+02  0.37234096732E+02 -0.26686708168E+02  0.51249225678E+02  0.00000000000E+00 0.  1.
         13    1    3    3    0    0  0.22976613768E+02 -0.37234096732E+02  0.42720349303E+01  0.43960812346E+02  0.00000000000E+00 0. -1.
<mgrwt>
<rscale>  0 0.92533960E+02</rscale>
<asrwt>0</asrwt>
<pdfrwt beam="1">  1        2 0.55996434E-02 0.92533960E+02</pdfrwt>
<pdfrwt beam="2">  1       -2 0.90480547E-02 0.92533960E+02</pdfrwt>
<totfact> 0.89144361E+04</totfact>
</mgrwt>
</event>
<event>
 5    1  0.6046470E+000  0.9065611E+02  0.7546771E-02  0.1301271E+00
         -2   -1    0    0    0  501 -0.00000000000E+00  0.00000000000E+00  0.60223871061E+01  0.60223871061E+01  0.00000000000E+00 0. -1.
          2   -1    0    0  501    0  0.00000000000E+00 -0.00000000000E+00 -0.34116578649E+03  0.34116578649E+03  0.00000000000E+00 0.  1.
         23    2    1    2    0    0  0.00000000000E+00  0.00000000000E+00 -0.33514339938E+03  0.34718817359E+03  0.90656106988E+02 0.  0.
        -13    1    3    3    0    0 -0.21565963151E+02  0.35893627145E+02 -0.23403586474E+03  0.23775245366E+03  0.00000000000E+00 0. -1.
         13    1    3    3    0    0  0.21565963151E+02 -0.35893627145E+02 -0.10110753464E+03  0.10943571993E+03  0.00000000000E+00 0.  1.
<mgrwt>
<rscale>  0 0.90656107E+02</rscale>
<asrwt>0</asrwt>
<pdfrwt beam="2">  1        2 0.52487047E-01 0.90656107E+02</pdfrwt>
<pdfrwt beam="1">  1       -2 0.92652104E-03 0.90656107E+02</pdfrwt>
<totfact> 0.19131481E+05</totfact>
</mgrwt>
</event>
<event>
 5    1  0.6046470E+000  0.9364421E+02  0.7546771E-02  0.1294259E+00
          1   -1    0    0  501    0  0.00000000000E+00  0.00000000000E+00  0.15525417803E+03  0.15525417803E+03  0.00000000000E+00 0. -1.
         -1   -1    0    0    0  501 -0.00000000000E+00 -0.00000000000E+00 -0.14120776099E+02  0.14120776099E+02  0.00000000000E+00 0.  1.
         23    2    1    2    0    0  0.00000000000E+00  0.00000000000E+00  0.14113340193E+03  0.16937495413E+03  0.93644209354E+02 0.  0.
        -13    1    3    3    0    0 -0.31657013823E+02  0.34242715313E+02  0.62983188358E+02  0.78368438111E+02  0.00000000000E+00 0. -1.
         13    1    3    3    0    0  0.31657013823E+02 -0.34242715313E+02  0.78150213570E+02  0.91006516015E+02  0.00000000000E+00 0.  1.
<mgrwt>
<rscale>  0 0.93644209E+02</rscale>
<asrwt>0</asrwt>
<pdfrwt beam="1">  1        1 0.23885257E-01 0.93644209E+02</pdfrwt>
<pdfrwt beam="2">  1       -1 0.21724272E-02 0.93644209E+02</pdfrwt>
<totfact> 0.10499212E+05</totfact>
</mgrwt>
</event>
<event>
 5    1  0.6046470E+000  0.9369715E+02  0.7546771E-02  0.1294138E+00
          3   -1    0    0  501    0  0.00000000000E+00  0.00000000000E+00  0.12427313215E+02  0.12427313215E+02  0.00000000000E+00 0. -1.
         -3   -1    0    0    0  501 -0.00000000000E+00 -0.00000000000E+00 -0.17661009578E+03  0.17661009578E+03  0.00000000000E+00 0.  1.
         23    2    1    2    0    0  0.00000000000E+00  0.00000000000E+00 -0.16418278257E+03  0.18903740900E+03  0.93697149951E+02 0.  0.
        -13    1    3    3    0    0 -0.15282936344E+02 -0.42006413281E+02 -0.11038600495E+03  0.11909314417E+03  0.00000000000E+00 0.  1.
         13    1    3    3    0    0  0.15282936344E+02  0.42006413281E+02 -0.53796777618E+02  0.69944264826E+02  0.00000000000E+00 0. -1.
<mgrwt>
<rscale>  0 0.93697150E+02</rscale>
<asrwt>0</asrwt>
<pdfrwt beam="1">  1        3 0.19118944E-02 0.93697150E+02</pdfrwt>
<pdfrwt beam="2">  1       -3 0.27170783E-01 0.93697150E+02</pdfrwt>
<totfact> 0.27005384E+04</totfact>
</mgrwt>
</event>
<event>
 5    1  0.6046470E+000  0.9004175E+02  0.7546771E-02  0.1302751E+00
          2   -1    0    0  501    0  0.00000000000E+00  0.00000000000E+00  0.10962991975E+03  0.10962991975E+03  0.00000000000E+00 0. -1.
         -2   -1    0    0    0  501 -0.00000000000E+00 -0.00000000000E+00 -0.18488377392E+02  0.18488377392E+02  0.00000000000E+00 0.  1.
         23    2    1    2    0    0  0.00000000000E+00  0.00000000000E+00  0.91141542356E+02  0.12811829714E+03  0.90041753199E+02 0.  0.
        -13    1    3    3    0    0 -0.11554279526E+02 -0.22838341659E+02 -0.71292429267E+01  0.26569104799E+02  0.00000000000E+00 0.  1.
         13    1    3    3    0    0  0.11554279526E+02  0.22838341659E+02  0.98270785282E+02  0.10154919234E+03  0.00000000000E+00 0. -1.
<mgrwt>
<rscale>  0 0.90041753E+02</rscale>
<asrwt>0</asrwt>
<pdfrwt beam="1">  1        2 0.16866141E-01 0.90041753E+02</pdfrwt>
<pdfrwt beam="2">  1       -2 0.28443658E-02 0.90041753E+02</pdfrwt>
<totfact> 0.13060991E+05</totfact>
</mgrwt>
</event>
<event>
 5    1  0.6046470E+000  0.1042226E+03  0.7546771E-02  0.1271659E+00
          1   -1    0    0  501    0  0.00000000000E+00  0.00000000000E+00  0.62145826225E+01  0.62145826225E+01  0.00000000000E+00 0. -1.
         -1   -1    0    0    0  501 -0.00000000000E+00 -0.00000000000E+00 -0.43696983011E+03  0.43696983011E+03  0.00000000000E+00 0.  1.
         23    2    1    2    0    0  0.00000000000E+00  0.00000000000E+00 -0.43075524749E+03  0.44318441273E+03  0.10422255251E+03 0.  0.
        -13    1    3    3    0    0 -0.54707836292E+01 -0.49874339841E+02 -0.27524373141E+03  0.27977936116E+03  0.00000000000E+00 0.  1.
         13    1    3    3    0    0  0.54707836292E+01  0.49874339841E+02 -0.15551151608E+03  0.16340505157E+03  0.00000000000E+00 0. -1.
<mgrwt>
<rscale>  0 0.10422255E+03</rscale>
<asrwt>0</asrwt>
<pdfrwt beam="1">  1        1 0.95608942E-03 0.10422255E+03</pdfrwt>
<pdfrwt beam="2">  1       -1 0.67226143E-01 0.10422255E+03</pdfrwt>
<totfact> 0.35765313E+04</totfact>
</mgrwt>
</event>
<event>
 5    1  0.6046470E+000  0.8440390E+02  0.7546771E-02  0.1316999E+00
          2   -1    0    0  501    0  0.00000000000E+00  0.00000000000E+00  0.25430738028E+03  0.25430738028E+03  0.00000000000E+00 0. -1.
         -2   -1    0    0    0  501 -0.00000000000E+00 -0.00000000000E+00 -0.70033532679E+01  0.70033532679E+01  0.00000000000E+00 0.  1.
         23    2    1    2    0    0  0.00000000000E+00  0.00000000000E+00  0.24730402701E+03  0.26131073355E+03  0.84403896184E+02 0.  0.
        -13    1    3    3    0    0  0.41073090062E+02  0.96336741816E+01  0.12704066021E+03  0.13386237616E+03  0.00000000000E+00 0.  1.
         13    1    3    3    0    0 -0.41073090062E+02 -0.96336741816E+01  0.12026336681E+03  0.12744835739E+03  0.00000000000E+00 0. -1.
<mgrwt>
<rscale>  0 0.84403896E+02</rscale>
<asrwt>0</asrwt>
<pdfrwt beam="1">  1        2 0.39124205E-01 0.84403896E+02</pdfrwt>
<pdfrwt beam="2">  1       -2 0.10774392E-02 0.84403896E+02</pdfrwt>
<totfact> 0.20749032E+05</totfact>
</mgrwt>
</event>
<event>
 5    1  0.6046470E+000  0.9031489E+02  0.7546771E-02  0.1302091E+00
          2   -1    0    0  501    0  0.00000000000E+00  0.00000000000E+00  0.10221835902E+03  0.10221835902E+03  0.00000000000E+00 0. -1.
         -2   -1    0    0    0  501 -0.00000000000E+00 -0.00000000000E+00 -0.19949399815E+02  0.19949399815E+02  0.00000000000E+00 0.  1.
         23    2    1    2    0    0  0.00000000000E+00  0.00000000000E+00  0.82268959207E+02  0.12216775884E+03  0.90314891630E+02 0.  0.
        -13    1    3    3    0    0  0.55904861421E+01 -0.41462461668E+02  0.64122421144E+02  0.76564183247E+02  0.00000000000E+00 0. -1.
         13    1    3    3    0    0 -0.55904861421E+01  0.41462461668E+02  0.18146538063E+02  0.45603575590E+02  0.00000000000E+00 0.  1.
<mgrwt>
<rscale>  0 0.90314892E+02</rscale>
<asrwt>0</asrwt>
<pdfrwt beam="1">  1        2 0.15725901E-01 0.90314892E+02</pdfrwt>
<pdfrwt beam="2">  1       -2 0.30691385E-02 0.90314892E+02</pdfrwt>
<totfact> 0.12676594E+05</totfact>
</mgrwt>
</event>
<event>
 5    1  0.6046470E+000  0.9928279E+02  0.7546771E-02  0.1281811E+00
          3   -1    0    0  501    0  0.00000000000E+00  0.00000000000E+00  0.30816783660E+02  0.30816783660E+02  0.00000000000E+00 0. -1.
         -3   -1    0    0    0  501 -0.00000000000E+00 -0.00000000000E+00 -0.79965125941E+02  0.79965125941E+02  0.00000000000E+00 0.  1.
         23    2    1    2    0    0  0.00000000000E+00  0.00000000000E+00 -0.49148342281E+02  0.11078190960E+03  0.99282787762E+02 0.  0.
        -13    1    3    3    0    0  0.36891070923E+01  0.15564097775E+02  0.27862541561E+02  0.32127431782E+02  0.00000000000E+00 0. -1.
         13    1    3    3    0    0 -0.36891070923E+01 -0.15564097775E+02 -0.77010883842E+02  0.78654477818E+02  0.00000000000E+00 0.  1.
<mgrwt>
<rscale>  0 0.99282788E+02</rscale>
<asrwt>0</asrwt>
<pdfrwt beam="1">  1        3 0.47410437E-02 0.99282788E+02</pdfrwt>
<pdfrwt beam="2">  1       -3 0.12302327E-01 0.99282788E+02</pdfrwt>
<totfact> 0.26846725E+04</totfact>
</mgrwt>
</event>
<event>
 5    1  0.6046470E+000  0.9721095E+02  0.7546771E-02  0.1286273E+00
          2   -1    0    0  501    0  0.00000000000E+00  0.00000000000E+00  0.23999131812E+02  0.23999131812E+02  0.00000000000E+00 0. -1.
         -2   -1    0    0    0  501 -0.00000000000E+00 -0.00000000000E+00 -0.98440735412E+02  0.98440735412E+02  0.00000000000E+00 0.  1.
         23    2    1    2    0    0  0.00000000000E+00  0.00000000000E+00 -0.74441603600E+02  0.12243986722E+03  0.97210949689E+02 0.  0.
        -13    1    3    3    0    0 -0.25539162168E+02  0.59000918221E+01 -0.88775839118E+02  0.92564623366E+02  0.00000000000E+00 0.  1.
         13    1    3    3    0    0  0.25539162168E+02 -0.59000918221E+01  0.14334235517E+02  0.29875243859E+02  0.00000000000E+00 0. -1.
<mgrwt>
<rscale>  0 0.97210950E+02</rscale>
<asrwt>0</asrwt>
<pdfrwt beam="1">  1        2 0.36921741E-02 0.97210950E+02</pdfrwt>
<pdfrwt beam="2">  1       -2 0.15144729E-01 0.97210950E+02</pdfrwt>
<totfact> 0.68371646E+04</totfact>
</mgrwt>
</event>
<event>
 5    1  0.6046470E+000  0.9940661E+02  0.7546771E-02  0.1281549E+00
          2   -1    0    0  501    0  0.00000000000E+00  0.00000000000E+00  0.20189575695E+03  0.20189575695E+03  0.00000000000E+00 0. -1.
         -2   -1    0    0    0  501 -0.00000000000E+00 -0.00000000000E+00 -0.12236109830E+02  0.12236109830E+02  0.00000000000E+00 0.  1.
         23    2    1    2    0    0  0.00000000000E+00  0.00000000000E+00  0.18965964712E+03  0.21413186678E+03  0.99406612580E+02 0.  0.
        -13    1    3    3    0    0  0.41195182000E+02  0.27769284049E+02  0.98055584737E+02  0.10992303605E+03  0.00000000000E+00 0. -1.
         13    1    3    3    0    0 -0.41195182000E+02 -0.27769284049E+02  0.91604062382E+02  0.10420883073E+03  0.00000000000E+00 0.  1.
<mgrwt>
<rscale>  0 0.99406613E+02</rscale>
<asrwt>0</asrwt>
<pdfrwt beam="1">  1        2 0.31060883E-01 0.99406613E+02</pdfrwt>
<pdfrwt beam="2">  1       -2 0.18824786E-02 0.99406613E+02</pdfrwt>
<totfact> 0.12283113E+05</totfact>
</mgrwt>
</event>
<event>
 5    1  0.6046470E+000  0.9295106E+02  0.7546771E-02  0.1295859E+00
         -1   -1    0    0    0  501 -0.00000000000E+00  0.00000000000E+00  0.90008784700E+02  0.90008784700E+02  0.00000000000E+00 0.  1.
          1   -1    0    0  501    0  0.00000000000E+00 -0.00000000000E+00 -0.23997380397E+02  0.23997380397E+02  0.00000000000E+00 0. -1.
         23    2    1    2    0    0  0.00000000000E+00  0.00000000000E+00  0.66011404303E+02  0.11400616510E+03  0.92951063372E+02 0.  0.
        -13    1    3    3    0    0  0.41197628269E+02  0.16333997733E+01  0.59313371866E+02  0.72235646685E+02  0.00000000000E+00 0.  1.
         13    1    3    3    0    0 -0.41197628269E+02 -0.16333997733E+01  0.66980324367E+01  0.41770518411E+02  0.00000000000E+00 0. -1.
<mgrwt>
<rscale>  0 0.92951063E+02</rscale>
<asrwt>0</asrwt>
<pdfrwt beam="2">  1        1 0.36919047E-02 0.92951063E+02</pdfrwt>
<pdfrwt beam="1">  1       -1 0.13847505E-01 0.92951063E+02</pdfrwt>
<totfact> 0.78930394E+04</totfact>
</mgrwt>
</event>
<event>
 5    1  0.6046470E+000  0.9044888E+02  0.7546771E-02  0.1301768E+00
         -2   -1    0    0    0  501 -0.00000000000E+00  0.00000000000E+00  0.92883764218E+02  0.92883764218E+02  0.00000000000E+00 0.  1.
          2   -1    0    0  501    0  0.00000000000E+00 -0.00000000000E+00 -0.22019456089E+02  0.22019456089E+02  0.00000000000E+00 0. -1.
         23    2    1    2    0    0  0.00000000000E+00  0.00000000000E+00  0.70864308129E+02  0.11490322031E+03  0.90448879873E+02 0.  0.
        -13    1    3    3    0    0  0.17454747962E+02 -0.40931485574E+02  0.25174762890E+02  0.51125565272E+02  0.00000000000E+00 0. -1.
         13    1    3    3    0    0 -0.17454747962E+02  0.40931485574E+02  0.45689545238E+02  0.63777655035E+02  0.00000000000E+00 0.  1.
<mgrwt>
<rscale>  0 0.90448880E+02</rscale>
<asrwt>0</asrwt>
<pdfrwt beam="2">  1        2 0.33876087E-02 0.90448880E+02</pdfrwt>
<pdfrwt beam="1">  1       -2 0.14289810E-01 0.90448880E+02</pdfrwt>
<totfact> 0.83194303E+04</totfact>
</mgrwt>
</event>
<event>
 5    1  0.6046470E+000  0.9037567E+02  0.7546771E-02  0.1301944E+00
          3   -1    0    0  501    0  0.00000000000E+00  0.00000000000E+00  0.31062558773E+03  0.31062558773E+03  0.00000000000E+00 0. -1.
         -3   -1    0    0    0  501 -0.00000000000E+00 -0.00000000000E+00 -0.65736389005E+01  0.65736389005E+01  0.00000000000E+00 0.  1.
         23    2    1    2    0    0  0.00000000000E+00  0.00000000000E+00  0.30405194883E+03  0.31719922663E+03  0.90375670332E+02 0.  0.
        -13    1    3    3    0    0  0.37820152241E+01 -0.44860967460E+02  0.13837367250E+03  0.14551317219E+03  0.00000000000E+00 0.  1.
         13    1    3    3    0    0 -0.37820152241E+01  0.44860967460E+02  0.16567827633E+03  0.17168605444E+03  0.00000000000E+00 0. -1.
<mgrwt>
<rscale>  0 0.90375670E+02</rscale>
<asrwt>0</asrwt>
<pdfrwt beam="1">  1        3 0.47788541E-01 0.90375670E+02</pdfrwt>
<pdfrwt beam="2">  1       -3 0.10113293E-02 0.90375670E+02</pdfrwt>
<totfact> 0.23939994E+04</totfact>
</mgrwt>
</event>
<event>
 5    1  0.6046470E+000  0.9163567E+02  0.7546771E-02  0.1298938E+00
          1   -1    0    0  501    0  0.00000000000E+00  0.00000000000E+00  0.75521740393E+02  0.75521740393E+02  0.00000000000E+00 0. -1.
         -1   -1    0    0    0  501 -0.00000000000E+00 -0.00000000000E+00 -0.27796948074E+02  0.27796948074E+02  0.00000000000E+00 0.  1.
         23    2    1    2    0    0  0.00000000000E+00  0.00000000000E+00  0.47724792319E+02  0.10331868847E+03  0.91635667644E+02 0.  0.
        -13    1    3    3    0    0 -0.64003672731E+01  0.43724090204E+02  0.10214911637E+02  0.45355321464E+02  0.00000000000E+00 0.  1.
         13    1    3    3    0    0  0.64003672731E+01 -0.43724090204E+02  0.37509880682E+02  0.57963367002E+02  0.00000000000E+00 0. -1.
<mgrwt>
<rscale>  0 0.91635668E+02</rscale>
<asrwt>0</asrwt>
<pdfrwt beam="1">  1        1 0.11618729E-01 0.91635668E+02</pdfrwt>
<pdfrwt beam="2">  1       -1 0.42764536E-02 0.91635668E+02</pdfrwt>
<totfact> 0.98466575E+04</totfact>
</mgrwt>
</event>
<event>
 5    1  0.6046470E+000  0.9332214E+02  0.7546771E-02  0.1295000E+00
         -1   -1    0    0    0  501 -0.00000000000E+00  0.00000000000E+00  0.67583121007E+01  0.67583121007E+01  0.00000000000E+00 0.  1.
          1   -1    0    0  501    0  0.00000000000E+00 -0.00000000000E+00 -0.32215963820E+03  0.32215963820E+03  0.00000000000E+00 0. -1.
         23    2    1    2    0    0  0.00000000000E+00  0.00000000000E+00 -0.31540132610E+03  0.32891795030E+03  0.93322138450E+02 0.  0.
        -13    1    3    3    0    0  0.17991436168E+02  0.37238637176E+02 -0.81547067122E+02  0.91434851290E+02  0.00000000000E+00 0.  1.
         13    1    3    3    0    0 -0.17991436168E+02 -0.37238637176E+02 -0.23385425898E+03  0.23748309901E+03  0.00000000000E+00 0. -1.
<mgrwt>
<rscale>  0 0.93322138E+02</rscale>
<asrwt>0</asrwt>
<pdfrwt beam="2">  1        1 0.49563020E-01 0.93322138E+02</pdfrwt>
<pdfrwt beam="1">  1       -1 0.10397403E-02 0.93322138E+02</pdfrwt>
<totfact> 0.12204512E+05</totfact>
</mgrwt>
</event>
<event>
 5    1  0.6046470E+000  0.9159563E+02  0.7546771E-02  0.1299033E+00
         -3   -1    0    0    0  501 -0.00000000000E+00  0.00000000000E+00  0.18446171022E+03  0.18446171022E+03  0.00000000000E+00 0.  1.
          3   -1    0    0  501    0  0.00000000000E+00 -0.00000000000E+00 -0.11370597926E+02  0.11370597926E+02  0.00000000000E+00 0. -1.
         23    2    1    2    0    0  0.00000000000E+00  0.00000000000E+00  0.17309111229E+03  0.19583230814E+03  0.91595631767E+02 0.  0.
        -13    1    3    3    0    0  0.19974969394E+02 -0.40280281787E+02  0.10517686072E+03  0.11438388232E+03  0.00000000000E+00 0.  1.
         13    1    3    3    0    0 -0.19974969394E+02  0.40280281787E+02  0.67914251570E+02  0.81448425825E+02  0.00000000000E+00 0. -1.
<mgrwt>
<rscale>  0 0.91595632E+02</rscale>
<asrwt>0</asrwt>
<pdfrwt beam="2">  1        3 0.17493229E-02 0.91595632E+02</pdfrwt>
<pdfrwt beam="1">  1       -3 0.28378722E-01 0.91595632E+02</pdfrwt>
<totfact> 0.28360902E+04</totfact>
</mgrwt>
</event>
<event>
 5    1  0.6046470E+000  0.9284262E+02  0.7546771E-02  0.1296110E+00
          3   -1    0    0  501    0  0.00000000000E+00  0.00000000000E+00  0.19841230610E+02  0.19841230610E+02  0.00000000000E+00 0. -1.
         -3   -1    0    0    0  501 -0.00000000000E+00 -0.00000000000E+00 -0.10860908150E+03  0.10860908150E+03  0.00000000000E+00 0.  1.
         23    2    1    2    0    0  0.00000000000E+00  0.00000000000E+00 -0.88767850888E+02  0.12845031211E+03  0.92842615913E+02 0.  0.
        -13    1    3    3    0    0 -0.15204457428E+02  0.14794512801E+02 -0.10151012093E+03  0.10370321974E+03  0.00000000000E+00 0.  1.
         13    1    3    3    0    0  0.15204457428E+02 -0.14794512801E+02  0.12742270039E+02  0.24747092364E+02  0.00000000000E+00 0. -1.
<mgrwt>
<rscale>  0 0.92842616E+02</rscale>
<asrwt>0</asrwt>
<pdfrwt beam="1">  1        3 0.30524970E-02 0.92842616E+02</pdfrwt>
<pdfrwt beam="2">  1       -3 0.16709089E-01 0.92842616E+02</pdfrwt>
<totfact> 0.31108870E+04</totfact>
</mgrwt>
</event>
<event>
 5    1  0.6046470E+000  0.9193439E+02  0.7546771E-02  0.1298234E+00
         -3   -1    0    0    0  501 -0.00000000000E+00  0.00000000000E+00  0.38172871910E+02  0.38172871910E+02  0.00000000000E+00 0.  1.
          3   -1    0    0  501    0  0.00000000000E+00 -0.00000000000E+00 -0.55353006272E+02  0.55353006272E+02  0.00000000000E+00 0. -1.
         23    2    1    2    0    0  0.00000000000E+00  0.00000000000E+00 -0.17180134361E+02  0.93525878182E+02  0.91934394396E+02 0.  0.
        -13    1    3    3    0    0  0.45644017643E+02  0.20709960851E+01 -0.13708855377E+02  0.47703229315E+02  0.00000000000E+00 0.  1.
         13    1    3    3    0    0 -0.45644017643E+02 -0.20709960851E+01 -0.34712789842E+01  0.45822648867E+02  0.00000000000E+00 0. -1.
<mgrwt>
<rscale>  0 0.91934394E+02</rscale>
<asrwt>0</asrwt>
<pdfrwt beam="2">  1        3 0.85158471E-02 0.91934394E+02</pdfrwt>
<pdfrwt beam="1">  1       -3 0.58727495E-02 0.91934394E+02</pdfrwt>
<totfact> 0.34373786E+04</totfact>
</mgrwt>
</event>
<event>
 5    1  0.6046470E+000  0.8754290E+02  0.7546771E-02  0.1308913E+00
          3   -1    0    0  501    0  0.00000000000E+00  0.00000000000E+00  0.56137805591E+02  0.56137805591E+02  0.00000000000E+00 0. -1.
         -3   -1    0    0    0  501 -0.00000000000E+00 -0.00000000000E+00 -0.34129224205E+02  0.34129224205E+02  0.00000000000E+00 0.  1.
         23    2    1    2    0    0  0.00000000000E+00  0.00000000000E+00  0.22008581385E+02  0.90267029796E+02  0.87542898134E+02 0.  0.
        -13    1    3    3    0    0  0.30631931429E+02 -0.23575135463E+02  0.32182090278E+02  0.50297009551E+02  0.00000000000E+00 0. -1.
         13    1    3    3    0    0 -0.30631931429E+02  0.23575135463E+02 -0.10173508893E+02  0.39970020245E+02  0.00000000000E+00 0.  1.
<mgrwt>
<rscale>  0 0.87542898E+02</rscale>
<asrwt>0</asrwt>
<pdfrwt beam="1">  1        3 0.86365855E-02 0.87542898E+02</pdfrwt>
<pdfrwt beam="2">  1       -3 0.52506498E-02 0.87542898E+02</pdfrwt>
<totfact> 0.39541582E+04</totfact>
</mgrwt>
</event>
<event>
 5    1  0.6046470E+000  0.9010438E+02  0.7546771E-02  0.1302599E+00
          1   -1    0    0  501    0  0.00000000000E+00  0.00000000000E+00  0.33032977089E+02  0.33032977089E+02  0.00000000000E+00 0. -1.
         -1   -1    0    0    0  501 -0.00000000000E+00 -0.00000000000E+00 -0.61444650223E+02  0.61444650223E+02  0.00000000000E+00 0.  1.
         23    2    1    2    0    0  0.00000000000E+00  0.00000000000E+00 -0.28411673134E+02  0.94477627312E+02  0.90104377763E+02 0.  0.
        -13    1    3    3    0    0  0.20049791643E+02 -0.27571796191E+02  0.16677074909E+02  0.37951586497E+02  0.00000000000E+00 0. -1.
         13    1    3    3    0    0 -0.20049791643E+02  0.27571796191E+02 -0.45088748043E+02  0.56526040815E+02  0.00000000000E+00 0.  1.
<mgrwt>
<rscale>  0 0.90104378E+02</rscale>
<asrwt>0</asrwt>
<pdfrwt beam="1">  1        1 0.50819966E-02 0.90104378E+02</pdfrwt>
<pdfrwt beam="2">  1       -1 0.94530229E-02 0.90104378E+02</pdfrwt>
<totfact> 0.91042446E+04</totfact>
</mgrwt>
</event>
<event>
 5    1  0.6046470E+000  0.9722143E+02  0.7546771E-02  0.1286250E+00
          2   -1    0    0  501    0  0.00000000000E+00  0.00000000000E+00  0.35281670457E+02  0.35281670457E+02  0.00000000000E+00 0. -1.
         -2   -1    0    0    0  501 -0.00000000000E+00 -0.00000000000E+00 -0.66975328896E+02  0.66975328896E+02  0.00000000000E+00 0.  1.
         23    2    1    2    0    0  0.00000000000E+00  0.00000000000E+00 -0.31693658439E+02  0.10225699935E+03  0.97221427327E+02 0.  0.
        -13    1    3    3    0    0  0.31910063198E+02 -0.70774647950E+01 -0.53691847785E+02  0.62858230645E+02  0.00000000000E+00 0.  1.
         13    1    3    3    0    0 -0.31910063198E+02  0.70774647950E+01  0.21998189346E+02  0.39398768708E+02  0.00000000000E+00 0. -1.
<mgrwt>
<rscale>  0 0.97221427E+02</rscale>
<asrwt>0</asrwt>
<pdfrwt beam="1">  1        2 0.54279493E-02 0.97221427E+02</pdfrwt>
<pdfrwt beam="2">  1       -2 0.10303897E-01 0.97221427E+02</pdfrwt>
<totfact> 0.76399105E+04</totfact>
</mgrwt>
</event>
<event>
 5    1  0.6046470E+000  0.9145988E+02  0.7546771E-02  0.1299354E+00
         -1   -1    0    0    0  501 -0.00000000000E+00  0.00000000000E+00  0.67785386718E+01  0.67785386718E+01  0.00000000000E+00 0.  1.
          1   -1    0    0  501    0  0.00000000000E+00 -0.00000000000E+00 -0.30850708305E+03  0.30850708305E+03  0.00000000000E+00 0. -1.
         23    2    1    2    0    0  0.00000000000E+00  0.00000000000E+00 -0.30172854438E+03  0.31528562172E+03  0.91459875202E+02 0.  0.
        -13    1    3    3    0    0  0.16257195387E+02 -0.37309620782E+02 -0.78972408391E+02  0.88842250601E+02  0.00000000000E+00 0.  1.
         13    1    3    3    0    0 -0.16257195387E+02  0.37309620782E+02 -0.22275613599E+03  0.22644337112E+03  0.00000000000E+00 0. -1.
<mgrwt>
<rscale>  0 0.91459875E+02</rscale>
<asrwt>0</asrwt>
<pdfrwt beam="2">  1        1 0.47462646E-01 0.91459875E+02</pdfrwt>
<pdfrwt beam="1">  1       -1 0.10428517E-02 0.91459875E+02</pdfrwt>
<totfact> 0.12774397E+05</totfact>
</mgrwt>
</event>
<event>
 5    1  0.6046470E+000  0.8995425E+02  0.7546771E-02  0.1302963E+00
          1   -1    0    0  501    0  0.00000000000E+00  0.00000000000E+00  0.87360111371E+02  0.87360111371E+02  0.00000000000E+00 0. -1.
         -1   -1    0    0    0  501 -0.00000000000E+00 -0.00000000000E+00 -0.23156356428E+02  0.23156356428E+02  0.00000000000E+00 0.  1.
         23    2    1    2    0    0  0.00000000000E+00  0.00000000000E+00  0.64203754944E+02  0.11051646780E+03  0.89954252295E+02 0.  0.
        -13    1    3    3    0    0  0.33693964148E+02  0.57043851369E+01  0.68028673341E+02  0.76129650113E+02  0.00000000000E+00 0. -1.
         13    1    3    3    0    0 -0.33693964148E+02 -0.57043851369E+01 -0.38249183973E+01  0.34386817686E+02  0.00000000000E+00 0.  1.
<mgrwt>
<rscale>  0 0.89954252E+02</rscale>
<asrwt>0</asrwt>
<pdfrwt beam="1">  1        1 0.13440017E-01 0.89954252E+02</pdfrwt>
<pdfrwt beam="2">  1       -1 0.35625164E-02 0.89954252E+02</pdfrwt>
<totfact> 0.10600683E+05</totfact>
</mgrwt>
</event>
<event>
 5    1  0.6046470E+000  0.8471051E+02  0.7546771E-02  0.1316191E+00
          4   -1    0    0  501    0  0.00000000000E+00  0.00000000000E+00  0.13794422350E+03  0.13794422350E+03  0.00000000000E+00 0. -1.
         -4   -1    0    0    0  501 -0.00000000000E+00 -0.00000000000E+00 -0.13005022176E+02  0.13005022176E+02  0.00000000000E+00 0.  1.
         23    2    1    2    0    0  0.00000000000E+00  0.00000000000E+00  0.12493920133E+03  0.15094924568E+03  0.84710511408E+02 0.  0.
        -13    1    3    3    0    0 -0.36311666215E+02 -0.30819783448E+01  0.24005559655E+02  0.43638315597E+02  0.00000000000E+00 0. -1.
         13    1    3    3    0    0  0.36311666215E+02  0.30819783448E+01  0.10093364167E+03  0.10731093008E+03  0.00000000000E+00 0.  1.
<mgrwt>
<rscale>  0 0.84710511E+02</rscale>
<asrwt>0</asrwt>
<pdfrwt beam="1">  1        4 0.21222187E-01 0.84710511E+02</pdfrwt>
<pdfrwt beam="2">  1       -4 0.20007727E-02 0.84710511E+02</pdfrwt>
<totfact> 0.28758851E+04</totfact>
</mgrwt>
</event>
<event>
 5    1  0.6046470E+000  0.8567506E+02  0.7546771E-02  0.1313677E+00
          2   -1    0    0  501    0  0.00000000000E+00  0.00000000000E+00  0.66945815668E+02  0.66945815668E+02  0.00000000000E+00 0. -1.
         -2   -1    0    0    0  501 -0.00000000000E+00 -0.00000000000E+00 -0.27411033729E+02  0.27411033729E+02  0.00000000000E+00 0.  1.
         23    2    1    2    0    0  0.00000000000E+00  0.00000000000E+00  0.39534781939E+02  0.94356849397E+02  0.85675060812E+02 0.  0.
        -13    1    3    3    0    0 -0.23308016141E+02 -0.29421041392E+01  0.59218124897E+02  0.63707973672E+02  0.00000000000E+00 0. -1.
         13    1    3    3    0    0  0.23308016141E+02  0.29421041392E+01 -0.19683342958E+02  0.30648875724E+02  0.00000000000E+00 0.  1.
<mgrwt>
<rscale>  0 0.85675061E+02</rscale>
<asrwt>0</asrwt>
<pdfrwt beam="1">  1        2 0.10299356E-01 0.85675061E+02</pdfrwt>
<pdfrwt beam="2">  1       -2 0.42170821E-02 0.85675061E+02</pdfrwt>
<totfact> 0.12996511E+05</totfact>
</mgrwt>
</event>
<event>
 5    1  0.6046470E+000  0.9130907E+02  0.7546771E-02  0.1299712E+00
         -1   -1    0    0    0  501 -0.00000000000E+00  0.00000000000E+00  0.22865245462E+03  0.22865245462E+03  0.00000000000E+00 0.  1.
          1   -1    0    0  501    0  0.00000000000E+00 -0.00000000000E+00 -0.91157415258E+01  0.91157415258E+01  0.00000000000E+00 0. -1.
         23    2    1    2    0    0  0.00000000000E+00  0.00000000000E+00  0.21953671310E+03  0.23776819615E+03  0.91309072399E+02 0.  0.
        -13    1    3    3    0    0  0.42419162749E+02 -0.11934178021E+02  0.78680702496E+02  0.90180169209E+02  0.00000000000E+00 0. -1.
         13    1    3    3    0    0 -0.42419162749E+02  0.11934178021E+02  0.14085601060E+03  0.14758802694E+03  0.00000000000E+00 0.  1.
<mgrwt>
<rscale>  0 0.91309072E+02</rscale>
<asrwt>0</asrwt>
<pdfrwt beam="2">  1        1 0.14024219E-02 0.91309072E+02</pdfrwt>
<pdfrwt beam="1">  1       -1 0.35177296E-01 0.91309072E+02</pdfrwt>
<totfact> 0.66433200E+04</totfact>
</mgrwt>
</event>
<event>
 5    1  0.6046470E+000  0.9198125E+02  0.7546771E-02  0.1298124E+00
         -2   -1    0    0    0  501 -0.00000000000E+00  0.00000000000E+00  0.54253456853E+02  0.54253456853E+02  0.00000000000E+00 0.  1.
          2   -1    0    0  501    0  0.00000000000E+00 -0.00000000000E+00 -0.38986227520E+02  0.38986227520E+02  0.00000000000E+00 0. -1.
         23    2    1    2    0    0  0.00000000000E+00  0.00000000000E+00  0.15267229334E+02  0.93239684373E+02  0.91981250538E+02 0.  0.
        -13    1    3    3    0    0 -0.36638822655E+02 -0.12163557694E+02  0.32971233120E+02  0.50768668239E+02  0.00000000000E+00 0.  1.
         13    1    3    3    0    0  0.36638822655E+02  0.12163557694E+02 -0.17704003786E+02  0.42471016134E+02  0.00000000000E+00 0. -1.
<mgrwt>
<rscale>  0 0.91981251E+02</rscale>
<asrwt>0</asrwt>
<pdfrwt beam="2">  1        2 0.59978812E-02 0.91981251E+02</pdfrwt>
<pdfrwt beam="1">  1       -2 0.83466856E-02 0.91981251E+02</pdfrwt>
<totfact> 0.92366870E+04</totfact>
</mgrwt>
</event>
<event>
 5    1  0.6046470E+000  0.9204940E+02  0.7546771E-02  0.1297963E+00
         -1   -1    0    0    0  501 -0.00000000000E+00  0.00000000000E+00  0.22585717246E+02  0.22585717246E+02  0.00000000000E+00 0.  1.
          1   -1    0    0  501    0  0.00000000000E+00 -0.00000000000E+00 -0.93788165299E+02  0.93788165299E+02  0.00000000000E+00 0. -1.
         23    2    1    2    0    0  0.00000000000E+00  0.00000000000E+00 -0.71202448053E+02  0.11637388255E+03  0.92049399400E+02 0.  0.
        -13    1    3    3    0    0 -0.11867014409E+02 -0.31747265115E+02  0.37647939209E+01  0.34101151690E+02  0.00000000000E+00 0.  1.
         13    1    3    3    0    0  0.11867014409E+02  0.31747265115E+02 -0.74967241974E+02  0.82272730856E+02  0.00000000000E+00 0. -1.
<mgrwt>
<rscale>  0 0.92049399E+02</rscale>
<asrwt>0</asrwt>
<pdfrwt beam="2">  1        1 0.14428949E-01 0.92049399E+02</pdfrwt>
<pdfrwt beam="1">  1       -1 0.34747257E-02 0.92049399E+02</pdfrwt>
<totfact> 0.10069442E+05</totfact>
</mgrwt>
</event>
<event>
 5    1  0.6046470E+000  0.9245887E+02  0.7546771E-02  0.1297004E+00
          1   -1    0    0  501    0  0.00000000000E+00  0.00000000000E+00  0.94964895611E+02  0.94964895611E+02  0.00000000000E+00 0. -1.
         -1   -1    0    0    0  501 -0.00000000000E+00 -0.00000000000E+00 -0.22504742452E+02  0.22504742452E+02  0.00000000000E+00 0.  1.
         23    2    1    2    0    0  0.00000000000E+00  0.00000000000E+00  0.72460153159E+02  0.11746963806E+03  0.92458866914E+02 0.  0.
        -13    1    3    3    0    0  0.21418702104E+02 -0.93621323963E+01 -0.14443091406E+02  0.27477503747E+02  0.00000000000E+00 0.  1.
         13    1    3    3    0    0 -0.21418702104E+02  0.93621323963E+01  0.86903244565E+02  0.89992134316E+02  0.00000000000E+00 0. -1.
<mgrwt>
<rscale>  0 0.92458867E+02</rscale>
<asrwt>0</asrwt>
<pdfrwt beam="1">  1        1 0.14609984E-01 0.92458867E+02</pdfrwt>
<pdfrwt beam="2">  1       -1 0.34622681E-02 0.92458867E+02</pdfrwt>
<totfact> 0.99683204E+04</totfact>
</mgrwt>
</event>
<event>
 5    1  0.6046470E+000  0.9037095E+02  0.7546771E-02  0.1301956E+00
          2   -1    0    0  501    0  0.00000000000E+00  0.00000000000E+00  0.27038726341E+02  0.27038726341E+02  0.00000000000E+00 0. -1.
         -2   -1    0    0    0  501 -0.00000000000E+00 -0.00000000000E+00 -0.75511209936E+02  0.75511209936E+02  0.00000000000E+00 0.  1.
         23    2    1    2    0    0  0.00000000000E+00  0.00000000000E+00 -0.48472483595E+02  0.10254993628E+03  0.90370945356E+02 0.  0.
        -13    1    3    3    0    0  0.32331610848E+02  0.93856887849E+01 -0.58435908887E+02  0.67440193219E+02  0.00000000000E+00 0.  1.
         13    1    3    3    0    0 -0.32331610848E+02 -0.93856887849E+01  0.99634252922E+01  0.35109743058E+02  0.00000000000E+00 0. -1.
<mgrwt>
<rscale>  0 0.90370945E+02</rscale>
<asrwt>0</asrwt>
<pdfrwt beam="1">  1        2 0.41598041E-02 0.90370945E+02</pdfrwt>
<pdfrwt beam="2">  1       -2 0.11617109E-01 0.90370945E+02</pdfrwt>
<totfact> 0.88334032E+04</totfact>
</mgrwt>
</event>
<event>
 5    1  0.6046470E+000  0.9023842E+02  0.7546771E-02  0.1302275E+00
         -1   -1    0    0    0  501 -0.00000000000E+00  0.00000000000E+00  0.17381694302E+02  0.17381694302E+02  0.00000000000E+00 0.  1.
          1   -1    0    0  501    0  0.00000000000E+00 -0.00000000000E+00 -0.11711993698E+03  0.11711993698E+03  0.00000000000E+00 0. -1.
         23    2    1    2    0    0  0.00000000000E+00  0.00000000000E+00 -0.99738242676E+02  0.13450163128E+03  0.90238416235E+02 0.  0.
        -13    1    3    3    0    0 -0.31466388131E+02 -0.50198067114E+01 -0.22563312514E+01  0.31944061610E+02  0.00000000000E+00 0.  1.
         13    1    3    3    0    0  0.31466388131E+02  0.50198067114E+01 -0.97481911425E+02  0.10255756967E+03  0.00000000000E+00 0. -1.
<mgrwt>
<rscale>  0 0.90238416E+02</rscale>
<asrwt>0</asrwt>
<pdfrwt beam="2">  1        1 0.18018451E-01 0.90238416E+02</pdfrwt>
<pdfrwt beam="1">  1       -1 0.26741069E-02 0.90238416E+02</pdfrwt>
<totfact> 0.11033726E+05</totfact>
</mgrwt>
</event>
<event>
 5    1  0.6046470E+000  0.8913305E+02  0.7546771E-02  0.1304965E+00
          3   -1    0    0  501    0  0.00000000000E+00  0.00000000000E+00  0.10954994539E+02  0.10954994539E+02  0.00000000000E+00 0. -1.
         -3   -1    0    0    0  501 -0.00000000000E+00 -0.00000000000E+00 -0.18130314577E+03  0.18130314577E+03  0.00000000000E+00 0.  1.
         23    2    1    2    0    0  0.00000000000E+00  0.00000000000E+00 -0.17034815124E+03  0.19225814031E+03  0.89133045989E+02 0.  0.
        -13    1    3    3    0    0  0.10513891986E+02  0.42891894983E+02 -0.98101274523E+02  0.10758306857E+03  0.00000000000E+00 0.  1.
         13    1    3    3    0    0 -0.10513891986E+02 -0.42891894983E+02 -0.72246876712E+02  0.84675071743E+02  0.00000000000E+00 0. -1.
<mgrwt>
<rscale>  0 0.89133046E+02</rscale>
<asrwt>0</asrwt>
<pdfrwt beam="1">  1        3 0.16853838E-02 0.89133046E+02</pdfrwt>
<pdfrwt beam="2">  1       -3 0.27892791E-01 0.89133046E+02</pdfrwt>
<totfact> 0.30721914E+04</totfact>
</mgrwt>
</event>
<event>
 5    1  0.6046470E+000  0.8559275E+02  0.7546771E-02  0.1313890E+00
         -2   -1    0    0    0  501 -0.00000000000E+00  0.00000000000E+00  0.28202016273E+02  0.28202016273E+02  0.00000000000E+00 0.  1.
          2   -1    0    0  501    0  0.00000000000E+00 -0.00000000000E+00 -0.64943223150E+02  0.64943223150E+02  0.00000000000E+00 0. -1.
         23    2    1    2    0    0  0.00000000000E+00  0.00000000000E+00 -0.36741206877E+02  0.93145239422E+02  0.85592752872E+02 0.  0.
        -13    1    3    3    0    0 -0.32241145251E+02 -0.27519424314E+02 -0.24782868859E+02  0.49101942432E+02  0.00000000000E+00 0.  1.
         13    1    3    3    0    0  0.32241145251E+02  0.27519424314E+02 -0.11958338018E+02  0.44043296991E+02  0.00000000000E+00 0. -1.
<mgrwt>
<rscale>  0 0.85592753E+02</rscale>
<asrwt>0</asrwt>
<pdfrwt beam="2">  1        2 0.99912651E-02 0.85592753E+02</pdfrwt>
<pdfrwt beam="1">  1       -2 0.43387717E-02 0.85592753E+02</pdfrwt>
<totfact> 0.12926935E+05</totfact>
</mgrwt>
</event>
<event>
 5    1  0.6046470E+000  0.9093176E+02  0.7546771E-02  0.1300611E+00
         -1   -1    0    0    0  501 -0.00000000000E+00  0.00000000000E+00  0.12309067305E+03  0.12309067305E+03  0.00000000000E+00 0.  1.
          1   -1    0    0  501    0  0.00000000000E+00 -0.00000000000E+00 -0.16793685956E+02  0.16793685956E+02  0.00000000000E+00 0. -1.
         23    2    1    2    0    0  0.00000000000E+00  0.00000000000E+00  0.10629698710E+03  0.13988435901E+03  0.90931756990E+02 0.  0.
        -13    1    3    3    0    0  0.79613910638E+01 -0.28720349924E+02  0.10596780911E+03  0.11007914796E+03  0.00000000000E+00 0.  1.
         13    1    3    3    0    0 -0.79613910638E+01  0.28720349924E+02  0.32917798228E+00  0.29805211047E+02  0.00000000000E+00 0. -1.
<mgrwt>
<rscale>  0 0.90931757E+02</rscale>
<asrwt>0</asrwt>
<pdfrwt beam="2">  1        1 0.25836441E-02 0.90931757E+02</pdfrwt>
<pdfrwt beam="1">  1       -1 0.18937026E-01 0.90931757E+02</pdfrwt>
<totfact> 0.78666018E+04</totfact>
</mgrwt>
</event>
<event>
 5    1  0.6046470E+000  0.8523459E+02  0.7546771E-02  0.1314820E+00
          2   -1    0    0  501    0  0.00000000000E+00  0.00000000000E+00  0.19744897833E+03  0.19744897833E+03  0.00000000000E+00 0. -1.
         -2   -1    0    0    0  501 -0.00000000000E+00 -0.00000000000E+00 -0.91984972726E+01  0.91984972726E+01  0.00000000000E+00 0.  1.
         23    2    1    2    0    0  0.00000000000E+00  0.00000000000E+00  0.18825048106E+03  0.20664747560E+03  0.85234591303E+02 0.  0.
        -13    1    3    3    0    0 -0.27641968622E+02  0.66789279722E+01  0.17168447669E+02  0.33218099035E+02  0.00000000000E+00 0.  1.
         13    1    3    3    0    0  0.27641968622E+02 -0.66789279722E+01  0.17108203339E+03  0.17342937657E+03  0.00000000000E+00 0. -1.
<mgrwt>
<rscale>  0 0.85234591E+02</rscale>
<asrwt>0</asrwt>
<pdfrwt beam="1">  1        2 0.30376763E-01 0.85234591E+02</pdfrwt>
<pdfrwt beam="2">  1       -2 0.14151536E-02 0.85234591E+02</pdfrwt>
<totfact> 0.18445127E+05</totfact>
</mgrwt>
</event>
<event>
 5    1  0.6046470E+000  0.8934430E+02  0.7546771E-02  0.1304447E+00
          3   -1    0    0  501    0  0.00000000000E+00  0.00000000000E+00  0.13623782009E+03  0.13623782009E+03  0.00000000000E+00 0. -1.
         -3   -1    0    0    0  501 -0.00000000000E+00 -0.00000000000E+00 -0.14647921458E+02  0.14647921458E+02  0.00000000000E+00 0.  1.
         23    2    1    2    0    0  0.00000000000E+00  0.00000000000E+00  0.12158989864E+03  0.15088574155E+03  0.89344297821E+02 0.  0.
        -13    1    3    3    0    0 -0.12889788689E+02 -0.42756402081E+02  0.58836861372E+02  0.73864963463E+02  0.00000000000E+00 0.  1.
         13    1    3    3    0    0  0.12889788689E+02  0.42756402081E+02  0.62753037264E+02  0.77020778087E+02  0.00000000000E+00 0. -1.
<mgrwt>
<rscale>  0 0.89344298E+02</rscale>
<asrwt>0</asrwt>
<pdfrwt beam="1">  1        3 0.20959664E-01 0.89344298E+02</pdfrwt>
<pdfrwt beam="2">  1       -3 0.22535265E-02 0.89344298E+02</pdfrwt>
<totfact> 0.33014577E+04</totfact>
</mgrwt>
</event>
<event>
 5    1  0.6046470E+000  0.9028869E+02  0.7546771E-02  0.1302154E+00
          2   -1    0    0  501    0  0.00000000000E+00  0.00000000000E+00  0.11898691329E+03  0.11898691329E+03  0.00000000000E+00 0. -1.
         -2   -1    0    0    0  501 -0.00000000000E+00 -0.00000000000E+00 -0.17128032790E+02  0.17128032790E+02  0.00000000000E+00 0.  1.
         23    2    1    2    0    0  0.00000000000E+00  0.00000000000E+00  0.10185888050E+03  0.13611494608E+03  0.90288687050E+02 0.  0.
        -13    1    3    3    0    0  0.10357517965E+02  0.27711907544E+02  0.10233640418E+03  0.10652683990E+03  0.00000000000E+00 0. -1.
         13    1    3    3    0    0 -0.10357517965E+02 -0.27711907544E+02 -0.47752368661E+00  0.29588106175E+02  0.00000000000E+00 0.  1.
<mgrwt>
<rscale>  0 0.90288687E+02</rscale>
<asrwt>0</asrwt>
<pdfrwt beam="1">  1        2 0.18305678E-01 0.90288687E+02</pdfrwt>
<pdfrwt beam="2">  1       -2 0.26350820E-02 0.90288687E+02</pdfrwt>
<totfact> 0.13302170E+05</totfact>
</mgrwt>
</event>
<event>
 5    1  0.6046470E+000  0.8999647E+02  0.7546771E-02  0.1302860E+00
         -2   -1    0    0    0  501 -0.00000000000E+00  0.00000000000E+00  0.12281238776E+02  0.12281238776E+02  0.00000000000E+00 0.  1.
          2   -1    0    0  501    0  0.00000000000E+00 -0.00000000000E+00 -0.16487273034E+03  0.16487273034E+03  0.00000000000E+00 0. -1.
         23    2    1    2    0    0  0.00000000000E+00  0.00000000000E+00 -0.15259149156E+03  0.17715396912E+03  0.89996474798E+02 0.  0.
        -13    1    3    3    0    0  0.38849851274E+02  0.22687216516E+02 -0.78078943747E+02  0.90112941323E+02  0.00000000000E+00 0. -1.
         13    1    3    3    0    0 -0.38849851274E+02 -0.22687216516E+02 -0.74512547817E+02  0.87041027794E+02  0.00000000000E+00 0.  1.
<mgrwt>
<rscale>  0 0.89996475E+02</rscale>
<asrwt>0</asrwt>
<pdfrwt beam="2">  1        2 0.25365036E-01 0.89996475E+02</pdfrwt>
<pdfrwt beam="1">  1       -2 0.18894213E-02 0.89996475E+02</pdfrwt>
<totfact> 0.14960509E+05</totfact>
</mgrwt>
</event>
<event>
 5    1  0.6046470E+000  0.9013519E+02  0.7546771E-02  0.1302525E+00
         -2   -1    0    0    0  501 -0.00000000000E+00  0.00000000000E+00  0.43374306751E+02  0.43374306751E+02  0.00000000000E+00 0.  1.
          2   -1    0    0  501    0  0.00000000000E+00 -0.00000000000E+00 -0.46826983260E+02  0.46826983260E+02  0.00000000000E+00 0. -1.
         23    2    1    2    0    0  0.00000000000E+00  0.00000000000E+00 -0.34526765092E+01  0.90201290011E+02  0.90135185941E+02 0.  0.
        -13    1    3    3    0    0 -0.24059019420E+02 -0.48351241672E+01  0.36101821897E+02  0.43652679018E+02  0.00000000000E+00 0.  1.
         13    1    3    3    0    0  0.24059019420E+02  0.48351241672E+01 -0.39554498407E+02  0.46548610993E+02  0.00000000000E+00 0. -1.
<mgrwt>
<rscale>  0 0.90135186E+02</rscale>
<asrwt>0</asrwt>
<pdfrwt beam="2">  1        2 0.72041512E-02 0.90135186E+02</pdfrwt>
<pdfrwt beam="1">  1       -2 0.66729703E-02 0.90135186E+02</pdfrwt>
<totfact> 0.10268279E+05</totfact>
</mgrwt>
</event>
<event>
 5    1  0.6046470E+000  0.8689346E+02  0.7546771E-02  0.1310554E+00
         -3   -1    0    0    0  501 -0.00000000000E+00  0.00000000000E+00  0.21291709914E+02  0.21291709914E+02  0.00000000000E+00 0.  1.
          3   -1    0    0  501    0  0.00000000000E+00 -0.00000000000E+00 -0.88655089592E+02  0.88655089592E+02  0.00000000000E+00 0. -1.
         23    2    1    2    0    0  0.00000000000E+00  0.00000000000E+00 -0.67363379678E+02  0.10994679951E+03  0.86893462354E+02 0.  0.
        -13    1    3    3    0    0 -0.19465609231E+02 -0.97692816914E+01 -0.81248935473E+02  0.84117407967E+02  0.00000000000E+00 0. -1.
         13    1    3    3    0    0  0.19465609231E+02  0.97692816914E+01  0.13885555795E+02  0.25829391539E+02  0.00000000000E+00 0.  1.
<mgrwt>
<rscale>  0 0.86893462E+02</rscale>
<asrwt>0</asrwt>
<pdfrwt beam="2">  1        3 0.13639245E-01 0.86893462E+02</pdfrwt>
<pdfrwt beam="1">  1       -3 0.32756477E-02 0.86893462E+02</pdfrwt>
<totfact> 0.38670868E+04</totfact>
</mgrwt>
</event>
<event>
 5    1  0.6046470E+000  0.9544632E+02  0.7546771E-02  0.1290174E+00
          2   -1    0    0  501    0  0.00000000000E+00  0.00000000000E+00  0.43408047814E+03  0.43408047814E+03  0.00000000000E+00 0. -1.
         -2   -1    0    0    0  501 -0.00000000000E+00 -0.00000000000E+00 -0.52467233637E+01  0.52467233637E+01  0.00000000000E+00 0.  1.
         23    2    1    2    0    0  0.00000000000E+00  0.00000000000E+00  0.42883375477E+03  0.43932720150E+03  0.95446323897E+02 0.  0.
        -13    1    3    3    0    0  0.16377989804E+02  0.42890709091E+02  0.15446480936E+03  0.16114350377E+03  0.00000000000E+00 0.  1.
         13    1    3    3    0    0 -0.16377989804E+02 -0.42890709091E+02  0.27436894542E+03  0.27818369773E+03  0.00000000000E+00 0. -1.
<mgrwt>
<rscale>  0 0.95446324E+02</rscale>
<asrwt>0</asrwt>
<pdfrwt beam="1">  1        2 0.66781584E-01 0.95446324E+02</pdfrwt>
<pdfrwt beam="2">  1       -2 0.80718855E-03 0.95446324E+02</pdfrwt>
<totfact> 0.18192576E+05</totfact>
</mgrwt>
</event>
<event>
 5    1  0.6046470E+000  0.9047510E+02  0.7546771E-02  0.1301705E+00
         -1   -1    0    0    0  501 -0.00000000000E+00  0.00000000000E+00  0.29317843586E+02  0.29317843586E+02  0.00000000000E+00 0.  1.
          1   -1    0    0  501    0  0.00000000000E+00 -0.00000000000E+00 -0.69801723070E+02  0.69801723070E+02  0.00000000000E+00 0. -1.
         23    2    1    2    0    0  0.00000000000E+00  0.00000000000E+00 -0.40483879485E+02  0.99119566656E+02  0.90475101525E+02 0.  0.
        -13    1    3    3    0    0  0.44488341171E+02  0.66320458057E+01 -0.14960608590E+02  0.47402703943E+02  0.00000000000E+00 0. -1.
         13    1    3    3    0    0 -0.44488341171E+02 -0.66320458057E+01 -0.25523270895E+02  0.51716862713E+02  0.00000000000E+00 0.  1.
<mgrwt>
<rscale>  0 0.90475102E+02</rscale>
<asrwt>0</asrwt>
<pdfrwt beam="2">  1        1 0.10738727E-01 0.90475102E+02</pdfrwt>
<pdfrwt beam="1">  1       -1 0.45104375E-02 0.90475102E+02</pdfrwt>
<totfact> 0.10074556E+05</totfact>
</mgrwt>
</event>
<event>
 5    1  0.6046470E+000  0.9195498E+02  0.7546771E-02  0.1298185E+00
          1   -1    0    0  501    0  0.00000000000E+00  0.00000000000E+00  0.10197525816E+03  0.10197525816E+03  0.00000000000E+00 0. -1.
         -1   -1    0    0    0  501 -0.00000000000E+00 -0.00000000000E+00 -0.20729827548E+02  0.20729827548E+02  0.00000000000E+00 0.  1.
         23    2    1    2    0    0  0.00000000000E+00  0.00000000000E+00  0.81245430616E+02  0.12270508571E+03  0.91954978461E+02 0.  0.
        -13    1    3    3    0    0 -0.95385649392E+01 -0.26985688213E+02 -0.73920595461E+01  0.29561023896E+02  0.00000000000E+00 0.  1.
         13    1    3    3    0    0  0.95385649392E+01  0.26985688213E+02  0.88637490163E+02  0.93144061817E+02  0.00000000000E+00 0. -1.
<mgrwt>
<rscale>  0 0.91954978E+02</rscale>
<asrwt>0</asrwt>
<pdfrwt beam="1">  1        1 0.15688501E-01 0.91954978E+02</pdfrwt>
<pdfrwt beam="2">  1       -1 0.31892043E-02 0.91954978E+02</pdfrwt>
<totfact> 0.10239079E+05</totfact>
</mgrwt>
</event>
<event>
 5    1  0.6046470E+000  0.8922550E+02  0.7546771E-02  0.1304738E+00
          1   -1    0    0  501    0  0.00000000000E+00  0.00000000000E+00  0.16602449536E+03  0.16602449536E+03  0.00000000000E+00 0. -1.
         -1   -1    0    0    0  501 -0.00000000000E+00 -0.00000000000E+00 -0.11987973889E+02  0.11987973889E+02  0.00000000000E+00 0.  1.
         23    2    1    2    0    0  0.00000000000E+00  0.00000000000E+00  0.15403652147E+03  0.17801246925E+03  0.89225496700E+02 0.  0.
        -13    1    3    3    0    0 -0.13531352058E+02  0.41491131907E+02  0.58550430321E+02  0.73025779053E+02  0.00000000000E+00 0.  1.
         13    1    3    3    0    0  0.13531352058E+02 -0.41491131907E+02  0.95486091148E+02  0.10498669020E+03  0.00000000000E+00 0. -1.
<mgrwt>
<rscale>  0 0.89225497E+02</rscale>
<asrwt>0</asrwt>
<pdfrwt beam="1">  1        1 0.25542228E-01 0.89225497E+02</pdfrwt>
<pdfrwt beam="2">  1       -1 0.18443038E-02 0.89225497E+02</pdfrwt>
<totfact> 0.12110387E+05</totfact>
</mgrwt>
</event>
<event>
 5    1  0.6046470E+000  0.9652246E+02  0.7546771E-02  0.1287783E+00
          2   -1    0    0  501    0  0.00000000000E+00  0.00000000000E+00  0.26551255784E+02  0.26551255784E+02  0.00000000000E+00 0. -1.
         -2   -1    0    0    0  501 -0.00000000000E+00 -0.00000000000E+00 -0.87722644777E+02  0.87722644777E+02  0.00000000000E+00 0.  1.
         23    2    1    2    0    0  0.00000000000E+00  0.00000000000E+00 -0.61171388993E+02  0.11427390056E+03  0.96522461210E+02 0.  0.
        -13    1    3    3    0    0 -0.18919224926E+02 -0.38662024987E+02 -0.47434292295E+01  0.43303456776E+02  0.00000000000E+00 0. -1.
         13    1    3    3    0    0  0.18919224926E+02  0.38662024987E+02 -0.56427959763E+02  0.70970443784E+02  0.00000000000E+00 0.  1.
<mgrwt>
<rscale>  0 0.96522461E+02</rscale>
<asrwt>0</asrwt>
<pdfrwt beam="1">  1        2 0.40848085E-02 0.96522461E+02</pdfrwt>
<pdfrwt beam="2">  1       -2 0.13495792E-01 0.96522461E+02</pdfrwt>
<totfact> 0.72025678E+04</totfact>
</mgrwt>
</event>
<event>
 5    1  0.6046470E+000  0.9227188E+02  0.7546771E-02  0.1297441E+00
          2   -1    0    0  501    0  0.00000000000E+00  0.00000000000E+00  0.45858362599E+02  0.45858362599E+02  0.00000000000E+00 0.  1.
         -2   -1    0    0    0  501 -0.00000000000E+00 -0.00000000000E+00 -0.46415199065E+02  0.46415199065E+02  0.00000000000E+00 0. -1.
         23    2    1    2    0    0  0.00000000000E+00  0.00000000000E+00 -0.55683646578E+00  0.92273561664E+02  0.92271881498E+02 0.  0.
        -13    1    3    3    0    0 -0.42582090297E+02  0.10181611058E+02  0.14269197310E+02  0.46048991408E+02  0.00000000000E+00 0.  1.
         13    1    3    3    0    0  0.42582090297E+02 -0.10181611058E+02 -0.14826033776E+02  0.46224570256E+02  0.00000000000E+00 0. -1.
<mgrwt>
<rscale>  0 0.92271881E+02</rscale>
<asrwt>0</asrwt>
<pdfrwt beam="1">  1        2 0.70551327E-02 0.92271881E+02</pdfrwt>
<pdfrwt beam="2">  1       -2 0.71407998E-02 0.92271881E+02</pdfrwt>
<totfact> 0.95491674E+04</totfact>
</mgrwt>
</event>
<event>
 5    1  0.6046470E+000  0.9271191E+02  0.7546771E-02  0.1296414E+00
         -2   -1    0    0    0  501 -0.00000000000E+00  0.00000000000E+00  0.17074519301E+02  0.17074519301E+02  0.00000000000E+00 0.  1.
          2   -1    0    0  501    0  0.00000000000E+00 -0.00000000000E+00 -0.12585272165E+03  0.12585272165E+03  0.00000000000E+00 0. -1.
         23    2    1    2    0    0  0.00000000000E+00  0.00000000000E+00 -0.10877820235E+03  0.14292724095E+03  0.92711913470E+02 0.  0.
        -13    1    3    3    0    0 -0.14739395345E+02  0.41671169172E+02 -0.32853794099E+02  0.55073658876E+02  0.00000000000E+00 0.  1.
         13    1    3    3    0    0  0.14739395345E+02 -0.41671169172E+02 -0.75924408246E+02  0.87853582071E+02  0.00000000000E+00 0. -1.
<mgrwt>
<rscale>  0 0.92711913E+02</rscale>
<asrwt>0</asrwt>
<pdfrwt beam="2">  1        2 0.19361957E-01 0.92711913E+02</pdfrwt>
<pdfrwt beam="1">  1       -2 0.26268491E-02 0.92711913E+02</pdfrwt>
<totfact> 0.12598997E+05</totfact>
</mgrwt>
</event>
<event>
 5    1  0.6046470E+000  0.9255264E+02  0.7546771E-02  0.1296785E+00
          1   -1    0    0  501    0  0.00000000000E+00  0.00000000000E+00  0.23173866154E+03  0.23173866154E+03  0.00000000000E+00 0. -1.
         -1   -1    0    0    0  501 -0.00000000000E+00 -0.00000000000E+00 -0.92410035493E+01  0.92410035493E+01  0.00000000000E+00 0.  1.
         23    2    1    2    0    0  0.00000000000E+00  0.00000000000E+00  0.22249765799E+03  0.24097966509E+03  0.92552640023E+02 0.  0.
        -13    1    3    3    0    0 -0.45678647415E+02  0.62331264493E+01  0.12169844296E+03  0.13013801026E+03  0.00000000000E+00 0.  1.
         13    1    3    3    0    0  0.45678647415E+02 -0.62331264493E+01  0.10079921503E+03  0.11084165483E+03  0.00000000000E+00 0. -1.
<mgrwt>
<rscale>  0 0.92552640E+02</rscale>
<asrwt>0</asrwt>
<pdfrwt beam="1">  1        1 0.35652098E-01 0.92552640E+02</pdfrwt>
<pdfrwt beam="2">  1       -1 0.14216930E-02 0.92552640E+02</pdfrwt>
<totfact> 0.11706162E+05</totfact>
</mgrwt>
</event>
<event>
 5    1  0.6046470E+000  0.9527835E+02  0.7546771E-02  0.1290550E+00
          4   -1    0    0  501    0  0.00000000000E+00  0.00000000000E+00  0.97527697797E+02  0.97527697797E+02  0.00000000000E+00 0. -1.
         -4   -1    0    0    0  501 -0.00000000000E+00 -0.00000000000E+00 -0.23270221062E+02  0.23270221062E+02  0.00000000000E+00 0.  1.
         23    2    1    2    0    0  0.00000000000E+00  0.00000000000E+00  0.74257476735E+02  0.12079791886E+03  0.95278351946E+02 0.  0.
        -13    1    3    3    0    0 -0.40209316118E+02  0.24662955446E+02  0.45580655650E+02  0.65594562606E+02  0.00000000000E+00 0. -1.
         13    1    3    3    0    0  0.40209316118E+02 -0.24662955446E+02  0.28676821084E+02  0.55203356252E+02  0.00000000000E+00 0.  1.
<mgrwt>
<rscale>  0 0.95278352E+02</rscale>
<asrwt>0</asrwt>
<pdfrwt beam="1">  1        4 0.15004261E-01 0.95278352E+02</pdfrwt>
<pdfrwt beam="2">  1       -4 0.35800341E-02 0.95278352E+02</pdfrwt>
<totfact> 0.22387642E+04</totfact>
</mgrwt>
</event>
<event>
 5    1  0.6046470E+000  0.9143415E+02  0.7546771E-02  0.1299415E+00
         -2   -1    0    0    0  501 -0.00000000000E+00  0.00000000000E+00  0.43129224194E+02  0.43129224194E+02  0.00000000000E+00 0.  1.
          2   -1    0    0  501    0  0.00000000000E+00 -0.00000000000E+00 -0.48460198283E+02  0.48460198283E+02  0.00000000000E+00 0. -1.
         23    2    1    2    0    0  0.00000000000E+00  0.00000000000E+00 -0.53309740888E+01  0.91589422476E+02  0.91434145836E+02 0.  0.
        -13    1    3    3    0    0  0.37047292827E+02  0.24223354369E+02 -0.14120726630E+02  0.46461464928E+02  0.00000000000E+00 0.  1.
         13    1    3    3    0    0 -0.37047292827E+02 -0.24223354369E+02  0.87897525413E+01  0.45127957548E+02  0.00000000000E+00 0. -1.
<mgrwt>
<rscale>  0 0.91434146E+02</rscale>
<asrwt>0</asrwt>
<pdfrwt beam="2">  1        2 0.74554151E-02 0.91434146E+02</pdfrwt>
<pdfrwt beam="1">  1       -2 0.66352653E-02 0.91434146E+02</pdfrwt>
<totfact> 0.99449748E+04</totfact>
</mgrwt>
</event>
<event>
 5    1  0.6046470E+000  0.8196573E+02  0.7546771E-02  0.1323564E+00
         -4   -1    0    0    0  501 -0.00000000000E+00  0.00000000000E+00  0.10936646542E+02  0.10936646542E+02  0.00000000000E+00 0.  1.
          4   -1    0    0  501    0  0.00000000000E+00 -0.00000000000E+00 -0.15357499312E+03  0.15357499312E+03  0.00000000000E+00 0. -1.
         23    2    1    2    0    0  0.00000000000E+00  0.00000000000E+00 -0.14263834658E+03  0.16451163966E+03  0.81965734730E+02 0.  0.
        -13    1    3    3    0    0 -0.30344922202E+02  0.22400621454E+02 -0.10349466348E+03  0.11015329098E+03  0.00000000000E+00 0. -1.
         13    1    3    3    0    0  0.30344922202E+02 -0.22400621454E+02 -0.39143683101E+02  0.54358348685E+02  0.00000000000E+00 0.  1.
<mgrwt>
<rscale>  0 0.81965735E+02</rscale>
<asrwt>0</asrwt>
<pdfrwt beam="2">  1        4 0.23626923E-01 0.81965735E+02</pdfrwt>
<pdfrwt beam="1">  1       -4 0.16825610E-02 0.81965735E+02</pdfrwt>
<totfact> 0.30495860E+04</totfact>
</mgrwt>
</event>
<event>
 5    1  0.6046470E+000  0.9205911E+02  0.7546771E-02  0.1297941E+00
          1   -1    0    0  501    0  0.00000000000E+00  0.00000000000E+00  0.18339586486E+02  0.18339586486E+02  0.00000000000E+00 0. -1.
         -1   -1    0    0    0  501 -0.00000000000E+00 -0.00000000000E+00 -0.11552713678E+03  0.11552713678E+03  0.00000000000E+00 0.  1.
         23    2    1    2    0    0  0.00000000000E+00  0.00000000000E+00 -0.97187550292E+02  0.13386672326E+03  0.92059109628E+02 0.  0.
        -13    1    3    3    0    0  0.63094569061E+01  0.45589244118E+02 -0.49653891840E+02  0.67703008800E+02  0.00000000000E+00 0.  1.
         13    1    3    3    0    0 -0.63094569061E+01 -0.45589244118E+02 -0.47533658451E+02  0.66163714462E+02  0.00000000000E+00 0. -1.
<mgrwt>
<rscale>  0 0.92059110E+02</rscale>
<asrwt>0</asrwt>
<pdfrwt beam="1">  1        1 0.28214749E-02 0.92059110E+02</pdfrwt>
<pdfrwt beam="2">  1       -1 0.17773405E-01 0.92059110E+02</pdfrwt>
<totfact> 0.77190150E+04</totfact>
</mgrwt>
</event>
<event>
 5    1  0.6046470E+000  0.9105039E+02  0.7546771E-02  0.1300328E+00
         -1   -1    0    0    0  501 -0.00000000000E+00  0.00000000000E+00  0.86548619563E+01  0.86548619563E+01  0.00000000000E+00 0.  1.
          1   -1    0    0  501    0  0.00000000000E+00 -0.00000000000E+00 -0.23946578085E+03  0.23946578085E+03  0.00000000000E+00 0. -1.
         23    2    1    2    0    0  0.00000000000E+00  0.00000000000E+00 -0.23081091889E+03  0.24812064280E+03  0.91050387731E+02 0.  0.
        -13    1    3    3    0    0 -0.35820173768E+02  0.74607548253E+01 -0.18922454133E+03  0.19272953783E+03  0.00000000000E+00 0. -1.
         13    1    3    3    0    0  0.35820173768E+02 -0.74607548253E+01 -0.41586377562E+02  0.55391104972E+02  0.00000000000E+00 0.  1.
<mgrwt>
<rscale>  0 0.91050388E+02</rscale>
<asrwt>0</asrwt>
<pdfrwt beam="2">  1        1 0.36840891E-01 0.91050388E+02</pdfrwt>
<pdfrwt beam="1">  1       -1 0.13315172E-02 0.91050388E+02</pdfrwt>
<totfact> 0.12309266E+05</totfact>
</mgrwt>
</event>
<event>
 5    1  0.6046470E+000  0.9231622E+02  0.7546771E-02  0.1297338E+00
          2   -1    0    0  501    0  0.00000000000E+00  0.00000000000E+00  0.95254740659E+02  0.95254740659E+02  0.00000000000E+00 0. -1.
         -2   -1    0    0    0  501 -0.00000000000E+00 -0.00000000000E+00 -0.22367088790E+02  0.22367088790E+02  0.00000000000E+00 0.  1.
         23    2    1    2    0    0  0.00000000000E+00  0.00000000000E+00  0.72887651869E+02  0.11762182945E+03  0.92316222669E+02 0.  0.
        -13    1    3    3    0    0  0.31982206118E+01  0.20773860975E+02 -0.15915933409E+02  0.26364727406E+02  0.00000000000E+00 0.  1.
         13    1    3    3    0    0 -0.31982206118E+01 -0.20773860975E+02  0.88803585278E+02  0.91257102042E+02  0.00000000000E+00 0. -1.
<mgrwt>
<rscale>  0 0.92316223E+02</rscale>
<asrwt>0</asrwt>
<pdfrwt beam="1">  1        2 0.14654575E-01 0.92316223E+02</pdfrwt>
<pdfrwt beam="2">  1       -2 0.34410906E-02 0.92316223E+02</pdfrwt>
<totfact> 0.11680728E+05</totfact>
</mgrwt>
</event>
<event>
 5    1  0.6046470E+000  0.9030916E+02  0.7546771E-02  0.1302105E+00
          2   -1    0    0  501    0  0.00000000000E+00  0.00000000000E+00  0.18943884976E+03  0.18943884976E+03  0.00000000000E+00 0. -1.
         -2   -1    0    0    0  501 -0.00000000000E+00 -0.00000000000E+00 -0.10763029320E+02  0.10763029320E+02  0.00000000000E+00 0.  1.
         23    2    1    2    0    0  0.00000000000E+00  0.00000000000E+00  0.17867582044E+03  0.20020187908E+03  0.90309155555E+02 0.  0.
        -13    1    3    3    0    0  0.30204005409E+01  0.32271028613E+02  0.19642950495E+02  0.37899704634E+02  0.00000000000E+00 0.  1.
         13    1    3    3    0    0 -0.30204005409E+01 -0.32271028613E+02  0.15903286994E+03  0.16230217444E+03  0.00000000000E+00 0. -1.
<mgrwt>
<rscale>  0 0.90309156E+02</rscale>
<asrwt>0</asrwt>
<pdfrwt beam="1">  1        2 0.29144436E-01 0.90309156E+02</pdfrwt>
<pdfrwt beam="2">  1       -2 0.16558508E-02 0.90309156E+02</pdfrwt>
<totfact> 0.15564438E+05</totfact>
</mgrwt>
</event>
<event>
 5    1  0.6046470E+000  0.8894973E+02  0.7546771E-02  0.1305415E+00
          1   -1    0    0  501    0  0.00000000000E+00  0.00000000000E+00  0.30589913680E+02  0.30589913680E+02  0.00000000000E+00 0. -1.
         -1   -1    0    0    0  501 -0.00000000000E+00 -0.00000000000E+00 -0.64662276214E+02  0.64662276214E+02  0.00000000000E+00 0.  1.
         23    2    1    2    0    0  0.00000000000E+00  0.00000000000E+00 -0.34072362534E+02  0.95252189894E+02  0.88949726199E+02 0.  0.
        -13    1    3    3    0    0 -0.42991812781E+02  0.64353412622E+01 -0.27099012946E+02  0.51225638952E+02  0.00000000000E+00 0.  1.
         13    1    3    3    0    0  0.42991812781E+02 -0.64353412622E+01 -0.69733495878E+01  0.44026550942E+02  0.00000000000E+00 0. -1.
<mgrwt>
<rscale>  0 0.88949726E+02</rscale>
<asrwt>0</asrwt>
<pdfrwt beam="1">  1        1 0.47061406E-02 0.88949726E+02</pdfrwt>
<pdfrwt beam="2">  1       -1 0.99480424E-02 0.88949726E+02</pdfrwt>
<totfact> 0.93325766E+04</totfact>
</mgrwt>
</event>
<event>
 5    1  0.6046470E+000  0.9102825E+02  0.7546771E-02  0.1300381E+00
         -1   -1    0    0    0  501 -0.00000000000E+00  0.00000000000E+00  0.16347555956E+02  0.16347555956E+02  0.00000000000E+00 0.  1.
          1   -1    0    0  501    0  0.00000000000E+00 -0.00000000000E+00 -0.12671836350E+03  0.12671836350E+03  0.00000000000E+00 0. -1.
         23    2    1    2    0    0  0.00000000000E+00  0.00000000000E+00 -0.11037080755E+03  0.14306591946E+03  0.91028249198E+02 0.  0.
        -13    1    3    3    0    0  0.18808953161E+02  0.36821923262E+02 -0.25286369297E+02  0.48466805382E+02  0.00000000000E+00 0.  1.
         13    1    3    3    0    0 -0.18808953161E+02 -0.36821923262E+02 -0.85084438252E+02  0.94599114078E+02  0.00000000000E+00 0. -1.
<mgrwt>
<rscale>  0 0.91028249E+02</rscale>
<asrwt>0</asrwt>
<pdfrwt beam="2">  1        1 0.19495133E-01 0.91028249E+02</pdfrwt>
<pdfrwt beam="1">  1       -1 0.25150087E-02 0.91028249E+02</pdfrwt>
<totfact> 0.10925491E+05</totfact>
</mgrwt>
</event>
<event>
 5    1  0.6046470E+000  0.7769899E+02  0.7546771E-02  0.1335711E+00
          1   -1    0    0  501    0  0.00000000000E+00  0.00000000000E+00  0.64184868298E+02  0.64184868298E+02  0.00000000000E+00 0. -1.
         -1   -1    0    0    0  501 -0.00000000000E+00 -0.00000000000E+00 -0.23514626198E+02  0.23514626198E+02  0.00000000000E+00 0.  1.
         23    2    1    2    0    0  0.00000000000E+00  0.00000000000E+00  0.40670242100E+02  0.87699494496E+02  0.77698988039E+02 0.  0.
        -13    1    3    3    0    0  0.71051549029E+00 -0.31501940276E+02  0.45984533105E+02  0.55744545547E+02  0.00000000000E+00 0. -1.
         13    1    3    3    0    0 -0.71051549029E+00  0.31501940276E+02 -0.53142910045E+01  0.31954948949E+02  0.00000000000E+00 0.  1.
<mgrwt>
<rscale>  0 0.77698988E+02</rscale>
<asrwt>0</asrwt>
<pdfrwt beam="1">  1        1 0.98745951E-02 0.77698988E+02</pdfrwt>
<pdfrwt beam="2">  1       -1 0.36176348E-02 0.77698988E+02</pdfrwt>
<totfact> 0.15075942E+05</totfact>
</mgrwt>
</event>
<event>
 5    1  0.6046470E+000  0.9081285E+02  0.7546771E-02  0.1300895E+00
          3   -1    0    0  501    0  0.00000000000E+00  0.00000000000E+00  0.51915739884E+02  0.51915739884E+02  0.00000000000E+00 0. -1.
         -3   -1    0    0    0  501 -0.00000000000E+00 -0.00000000000E+00 -0.39713258935E+02  0.39713258935E+02  0.00000000000E+00 0.  1.
         23    2    1    2    0    0  0.00000000000E+00  0.00000000000E+00  0.12202480949E+02  0.91628998819E+02  0.90812845365E+02 0.  0.
        -13    1    3    3    0    0  0.29780558162E+02 -0.90222754936E+01  0.39465933422E+02  0.50257765573E+02  0.00000000000E+00 0. -1.
         13    1    3    3    0    0 -0.29780558162E+02  0.90222754936E+01 -0.27263452473E+02  0.41371233246E+02  0.00000000000E+00 0.  1.
<mgrwt>
<rscale>  0 0.90812845E+02</rscale>
<asrwt>0</asrwt>
<pdfrwt beam="1">  1        3 0.79870370E-02 0.90812845E+02</pdfrwt>
<pdfrwt beam="2">  1       -3 0.61097321E-02 0.90812845E+02</pdfrwt>
<totfact> 0.35690841E+04</totfact>
</mgrwt>
</event>
<event>
 5    1  0.6046470E+000  0.9029451E+02  0.7546771E-02  0.1302140E+00
          2   -1    0    0  501    0  0.00000000000E+00  0.00000000000E+00  0.67042658061E+02  0.67042658061E+02  0.00000000000E+00 0. -1.
         -2   -1    0    0    0  501 -0.00000000000E+00 -0.00000000000E+00 -0.30402655321E+02  0.30402655321E+02  0.00000000000E+00 0.  1.
         23    2    1    2    0    0  0.00000000000E+00  0.00000000000E+00  0.36640002739E+02  0.97445313382E+02  0.90294514226E+02 0.  0.
        -13    1    3    3    0    0 -0.18011188628E+02  0.19834170899E+01  0.62946187065E+02  0.65502361218E+02  0.00000000000E+00 0. -1.
         13    1    3    3    0    0  0.18011188628E+02 -0.19834170899E+01 -0.26306184326E+02  0.31942952164E+02  0.00000000000E+00 0.  1.
<mgrwt>
<rscale>  0 0.90294514E+02</rscale>
<asrwt>0</asrwt>
<pdfrwt beam="1">  1        2 0.10314255E-01 0.90294514E+02</pdfrwt>
<pdfrwt beam="2">  1       -2 0.46773316E-02 0.90294514E+02</pdfrwt>
<totfact> 0.11232769E+05</totfact>
</mgrwt>
</event>
<event>
 5    1  0.6046470E+000  0.9192299E+02  0.7546771E-02  0.1298261E+00
         -1   -1    0    0    0  501 -0.00000000000E+00  0.00000000000E+00  0.46144771070E+02  0.46144771070E+02  0.00000000000E+00 0.  1.
          1   -1    0    0  501    0  0.00000000000E+00 -0.00000000000E+00 -0.45778945472E+02  0.45778945472E+02  0.00000000000E+00 0. -1.
         23    2    1    2    0    0  0.00000000000E+00  0.00000000000E+00  0.36582559789E+00  0.91923716542E+02  0.91922988607E+02 0.  0.
        -13    1    3    3    0    0  0.29540017803E+02  0.24293546388E+02  0.25671737805E+02  0.46063295256E+02  0.00000000000E+00 0.  1.
         13    1    3    3    0    0 -0.29540017803E+02 -0.24293546388E+02 -0.25305912207E+02  0.45860421286E+02  0.00000000000E+00 0. -1.
<mgrwt>
<rscale>  0 0.91922989E+02</rscale>
<asrwt>0</asrwt>
<pdfrwt beam="2">  1        1 0.70429147E-02 0.91922989E+02</pdfrwt>
<pdfrwt beam="1">  1       -1 0.70991956E-02 0.91922989E+02</pdfrwt>
<totfact> 0.90434462E+04</totfact>
</mgrwt>
</event>
<event>
 5    1  0.6046470E+000  0.8463821E+02  0.7546771E-02  0.1316381E+00
          2   -1    0    0  501    0  0.00000000000E+00  0.00000000000E+00  0.40820834304E+02  0.40820834304E+02  0.00000000000E+00 0. -1.
         -2   -1    0    0    0  501 -0.00000000000E+00 -0.00000000000E+00 -0.43872362416E+02  0.43872362416E+02  0.00000000000E+00 0.  1.
         23    2    1    2    0    0  0.00000000000E+00  0.00000000000E+00 -0.30515281119E+01  0.84693196720E+02  0.84638205007E+02 0.  0.
        -13    1    3    3    0    0  0.28839650494E+02 -0.19431137091E+01 -0.32455478141E+02  0.43461007730E+02  0.00000000000E+00 0.  1.
         13    1    3    3    0    0 -0.28839650494E+02  0.19431137091E+01  0.29403950030E+02  0.41232188990E+02  0.00000000000E+00 0. -1.
<mgrwt>
<rscale>  0 0.84638205E+02</rscale>
<asrwt>0</asrwt>
<pdfrwt beam="1">  1        2 0.62801284E-02 0.84638205E+02</pdfrwt>
<pdfrwt beam="2">  1       -2 0.67495942E-02 0.84638205E+02</pdfrwt>
<totfact> 0.11870075E+05</totfact>
</mgrwt>
</event>
<event>
 5    1  0.6046470E+000  0.8918675E+02  0.7546771E-02  0.1304833E+00
          2   -1    0    0  501    0  0.00000000000E+00  0.00000000000E+00  0.31122066574E+02  0.31122066574E+02  0.00000000000E+00 0.  1.
         -2   -1    0    0    0  501 -0.00000000000E+00 -0.00000000000E+00 -0.63895795877E+02  0.63895795877E+02  0.00000000000E+00 0. -1.
         23    2    1    2    0    0  0.00000000000E+00  0.00000000000E+00 -0.32773729303E+02  0.95017862451E+02  0.89186752673E+02 0.  0.
        -13    1    3    3    0    0  0.38627243872E+02 -0.89402100922E+01  0.53578148775E+01  0.40008717873E+02  0.00000000000E+00 0.  1.
         13    1    3    3    0    0 -0.38627243872E+02  0.89402100922E+01 -0.38131544181E+02  0.55009144578E+02  0.00000000000E+00 0. -1.
<mgrwt>
<rscale>  0 0.89186753E+02</rscale>
<asrwt>0</asrwt>
<pdfrwt beam="1">  1        2 0.47880103E-02 0.89186753E+02</pdfrwt>
<pdfrwt beam="2">  1       -2 0.98301223E-02 0.89186753E+02</pdfrwt>
<totfact> 0.95339085E+04</totfact>
</mgrwt>
</event>
<event>
 5    1  0.6046470E+000  0.9737372E+02  0.7546771E-02  0.1285918E+00
         -2   -1    0    0    0  501 -0.00000000000E+00  0.00000000000E+00  0.68510481823E+01  0.68510481823E+01  0.00000000000E+00 0.  1.
          2   -1    0    0  501    0  0.00000000000E+00 -0.00000000000E+00 -0.34599235324E+03  0.34599235324E+03  0.00000000000E+00 0. -1.
         23    2    1    2    0    0  0.00000000000E+00  0.00000000000E+00 -0.33914130506E+03  0.35284340142E+03  0.97373718893E+02 0.  0.
        -13    1    3    3    0    0 -0.14271698330E+02  0.44915643014E+02 -0.12529240794E+03  0.13386292933E+03  0.00000000000E+00 0.  1.
         13    1    3    3    0    0  0.14271698330E+02 -0.44915643014E+02 -0.21384889712E+03  0.21898047210E+03  0.00000000000E+00 0. -1.
<mgrwt>
<rscale>  0 0.97373719E+02</rscale>
<asrwt>0</asrwt>
<pdfrwt beam="2">  1        2 0.53229586E-01 0.97373719E+02</pdfrwt>
<pdfrwt beam="1">  1       -2 0.10540075E-02 0.97373719E+02</pdfrwt>
<totfact> 0.15887897E+05</totfact>
</mgrwt>
</event>
<event>
 5    1  0.6046470E+000  0.8250313E+02  0.7546771E-02  0.1322094E+00
          1   -1    0    0  501    0  0.00000000000E+00  0.00000000000E+00  0.14761897814E+03  0.14761897814E+03  0.00000000000E+00 0. -1.
         -1   -1    0    0    0  501 -0.00000000000E+00 -0.00000000000E+00 -0.11527593926E+02  0.11527593926E+02  0.00000000000E+00 0.  1.
         23    2    1    2    0    0  0.00000000000E+00  0.00000000000E+00  0.13609138422E+03  0.15914657207E+03  0.82503130504E+02 0.  0.
        -13    1    3    3    0    0 -0.40212354986E+02  0.29575051132E+01  0.51239083301E+02  0.65201410932E+02  0.00000000000E+00 0. -1.
         13    1    3    3    0    0  0.40212354986E+02 -0.29575051132E+01  0.84852300916E+02  0.93945161136E+02  0.00000000000E+00 0.  1.
<mgrwt>
<rscale>  0 0.82503131E+02</rscale>
<asrwt>0</asrwt>
<pdfrwt beam="1">  1        1 0.22710611E-01 0.82503131E+02</pdfrwt>
<pdfrwt beam="2">  1       -1 0.17734761E-02 0.82503131E+02</pdfrwt>
<totfact> 0.14617080E+05</totfact>
</mgrwt>
</event>
<event>
 5    1  0.6046470E+000  0.9376320E+02  0.7546771E-02  0.1293986E+00
          2   -1    0    0  501    0  0.00000000000E+00  0.00000000000E+00  0.11499245003E+03  0.11499245003E+03  0.00000000000E+00 0. -1.
         -2   -1    0    0    0  501 -0.00000000000E+00 -0.00000000000E+00 -0.19113293195E+02  0.19113293195E+02  0.00000000000E+00 0.  1.
         23    2    1    2    0    0  0.00000000000E+00  0.00000000000E+00  0.95879156831E+02  0.13410574322E+03  0.93763199873E+02 0.  0.
        -13    1    3    3    0    0  0.24729843946E+02 -0.16035364743E+02  0.10008400389E+03  0.10433362803E+03  0.00000000000E+00 0. -1.
         13    1    3    3    0    0 -0.24729843946E+02  0.16035364743E+02 -0.42048470575E+01  0.29772115189E+02  0.00000000000E+00 0.  1.
<mgrwt>
<rscale>  0 0.93763200E+02</rscale>
<asrwt>0</asrwt>
<pdfrwt beam="1">  1        2 0.17691146E-01 0.93763200E+02</pdfrwt>
<pdfrwt beam="2">  1       -2 0.29405067E-02 0.93763200E+02</pdfrwt>
<totfact> 0.11864240E+05</totfact>
</mgrwt>
</event>
<event>
 5    1  0.6046470E+000  0.9352477E+02  0.7546771E-02  0.1294534E+00
          2   -1    0    0  501    0  0.00000000000E+00  0.00000000000E+00  0.34117156903E+02  0.34117156903E+02  0.00000000000E+00 0. -1.
         -2   -1    0    0    0  501 -0.00000000000E+00 -0.00000000000E+00 -0.64094452413E+02  0.64094452413E+02  0.00000000000E+00 0.  1.
         23    2    1    2    0    0  0.00000000000E+00  0.00000000000E+00 -0.29977295510E+02  0.98211609316E+02  0.93524766551E+02 0.  0.
        -13    1    3    3    0    0  0.17008532630E+02  0.26972660927E+02 -0.50906607115E+02  0.60069104102E+02  0.00000000000E+00 0.  1.
         13    1    3    3    0    0 -0.17008532630E+02 -0.26972660927E+02  0.20929311605E+02  0.38142505214E+02  0.00000000000E+00 0. -1.
<mgrwt>
<rscale>  0 0.93524767E+02</rscale>
<asrwt>0</asrwt>
<pdfrwt beam="1">  1        2 0.52487934E-02 0.93524767E+02</pdfrwt>
<pdfrwt beam="2">  1       -2 0.98606849E-02 0.93524767E+02</pdfrwt>
<totfact> 0.84919317E+04</totfact>
</mgrwt>
</event>
<event>
 5    1  0.6046470E+000  0.9329315E+02  0.7546771E-02  0.1295067E+00
         -1   -1    0    0    0  501 -0.00000000000E+00  0.00000000000E+00  0.11053565144E+02  0.11053565144E+02  0.00000000000E+00 0.  1.
          1   -1    0    0  501    0  0.00000000000E+00 -0.00000000000E+00 -0.19685079612E+03  0.19685079612E+03  0.00000000000E+00 0. -1.
         23    2    1    2    0    0  0.00000000000E+00  0.00000000000E+00 -0.18579723098E+03  0.20790436127E+03  0.93293152989E+02 0.  0.
        -13    1    3    3    0    0 -0.12975316283E+02 -0.37785347486E+02 -0.14655944064E+03  0.15190708001E+03  0.00000000000E+00 0. -1.
         13    1    3    3    0    0  0.12975316283E+02  0.37785347486E+02 -0.39237790341E+02  0.55997281256E+02  0.00000000000E+00 0.  1.
<mgrwt>
<rscale>  0 0.93293153E+02</rscale>
<asrwt>0</asrwt>
<pdfrwt beam="2">  1        1 0.30284735E-01 0.93293153E+02</pdfrwt>
<pdfrwt beam="1">  1       -1 0.17005486E-02 0.93293153E+02</pdfrwt>
<totfact> 0.11098166E+05</totfact>
</mgrwt>
</event>
<event>
 4    1  0.6046470E+000  0.4734729E+02  0.7546771E-02  0.1460198E+00
          1   -1    0    0  501    0  0.00000000000E+00  0.00000000000E+00  0.38699896944E+02  0.38699896944E+02  0.00000000000E+00 0. -1.
         -1   -1    0    0    0  501 -0.00000000000E+00 -0.00000000000E+00 -0.14481732671E+02  0.14481732671E+02  0.00000000000E+00 0.  1.
        -13    1    1    2    0    0 -0.21886970046E+02 -0.68414054993E+01  0.55023389680E+01  0.23582197123E+02  0.00000000000E+00 0.  1.
         13    1    1    2    0    0  0.21886970046E+02  0.68414054993E+01  0.18715825306E+02  0.29599432493E+02  0.00000000000E+00 0. -1.
<mgrwt>
<rscale>  0 0.47347294E+02</rscale>
<asrwt>0</asrwt>
<pdfrwt beam="1">  1        1 0.59538303E-02 0.47347294E+02</pdfrwt>
<pdfrwt beam="2">  1       -1 0.22279589E-02 0.47347294E+02</pdfrwt>
<totfact> 0.52305124E+05</totfact>
</mgrwt>
</event>
<event>
 5    1  0.6046470E+000  0.9200068E+02  0.7546771E-02  0.1298078E+00
         -1   -1    0    0    0  501 -0.00000000000E+00  0.00000000000E+00  0.11135921193E+03  0.11135921193E+03  0.00000000000E+00 0.  1.
          1   -1    0    0  501    0  0.00000000000E+00 -0.00000000000E+00 -0.19001853338E+02  0.19001853338E+02  0.00000000000E+00 0. -1.
         23    2    1    2    0    0  0.00000000000E+00  0.00000000000E+00  0.92357358587E+02  0.13036106526E+03  0.92000682886E+02 0.  0.
        -13    1    3    3    0    0 -0.41230865818E+02  0.12251219327E+02  0.69286592023E+02  0.81551876161E+02  0.00000000000E+00 0.  1.
         13    1    3    3    0    0  0.41230865818E+02 -0.12251219327E+02  0.23070766564E+02  0.48809189103E+02  0.00000000000E+00 0. -1.
<mgrwt>
<rscale>  0 0.92000683E+02</rscale>
<asrwt>0</asrwt>
<pdfrwt beam="2">  1        1 0.29233621E-02 0.92000683E+02</pdfrwt>
<pdfrwt beam="1">  1       -1 0.17132186E-01 0.92000683E+02</pdfrwt>
<totfact> 0.77883863E+04</totfact>
</mgrwt>
</event>
<event>
 5    1  0.6046470E+000  0.9094062E+02  0.7546771E-02  0.1300590E+00
         -1   -1    0    0    0  501 -0.00000000000E+00  0.00000000000E+00  0.36625882434E+02  0.36625882434E+02  0.00000000000E+00 0.  1.
          1   -1    0    0  501    0  0.00000000000E+00 -0.00000000000E+00 -0.56450492166E+02  0.56450492166E+02  0.00000000000E+00 0. -1.
         23    2    1    2    0    0  0.00000000000E+00  0.00000000000E+00 -0.19824609731E+02  0.93076374600E+02  0.90940619954E+02 0.  0.
        -13    1    3    3    0    0  0.41584439661E+02 -0.17283061171E+02 -0.16351260096E+02  0.47909639240E+02  0.00000000000E+00 0.  1.
         13    1    3    3    0    0 -0.41584439661E+02  0.17283061171E+02 -0.34733496351E+01  0.45166735360E+02  0.00000000000E+00 0. -1.
<mgrwt>
<rscale>  0 0.90940620E+02</rscale>
<asrwt>0</asrwt>
<pdfrwt beam="2">  1        1 0.86846910E-02 0.90940620E+02</pdfrwt>
<pdfrwt beam="1">  1       -1 0.56347512E-02 0.90940620E+02</pdfrwt>
<totfact> 0.96179641E+04</totfact>
</mgrwt>
</event>
<event>
 5    1  0.6046470E+000  0.9511626E+02  0.7546771E-02  0.1290914E+00
          2   -1    0    0  501    0  0.00000000000E+00  0.00000000000E+00  0.26794858741E+03  0.26794858741E+03  0.00000000000E+00 0. -1.
         -2   -1    0    0    0  501 -0.00000000000E+00 -0.00000000000E+00 -0.84410812837E+01  0.84410812837E+01  0.00000000000E+00 0.  1.
         23    2    1    2    0    0  0.00000000000E+00  0.00000000000E+00  0.25950750613E+03  0.27638966869E+03  0.95116261621E+02 0.  0.
        -13    1    3    3    0    0  0.41196354831E+01  0.45408079381E+02  0.90454288635E+02  0.10129582125E+03  0.00000000000E+00 0.  1.
         13    1    3    3    0    0 -0.41196354831E+01 -0.45408079381E+02  0.16905321749E+03  0.17509384745E+03  0.00000000000E+00 0. -1.
<mgrwt>
<rscale>  0 0.95116262E+02</rscale>
<asrwt>0</asrwt>
<pdfrwt beam="1">  1        2 0.41222853E-01 0.95116262E+02</pdfrwt>
<pdfrwt beam="2">  1       -2 0.12986281E-02 0.95116262E+02</pdfrwt>
<totfact> 0.15377166E+05</totfact>
</mgrwt>
</event>
<event>
 5    1  0.6046470E+000  0.9010617E+02  0.7546771E-02  0.1302595E+00
         -2   -1    0    0    0  501 -0.00000000000E+00  0.00000000000E+00  0.13981255877E+03  0.13981255877E+03  0.00000000000E+00 0.  1.
          2   -1    0    0  501    0  0.00000000000E+00 -0.00000000000E+00 -0.14517870980E+02  0.14517870980E+02  0.00000000000E+00 0. -1.
         23    2    1    2    0    0  0.00000000000E+00  0.00000000000E+00  0.12529468779E+03  0.15433042975E+03  0.90106174918E+02 0.  0.
        -13    1    3    3    0    0  0.38689845599E+02  0.23081264489E+02  0.63269071149E+02  0.77669970303E+02  0.00000000000E+00 0.  1.
         13    1    3    3    0    0 -0.38689845599E+02 -0.23081264489E+02  0.62025616639E+02  0.76660459445E+02  0.00000000000E+00 0. -1.
<mgrwt>
<rscale>  0 0.90106175E+02</rscale>
<asrwt>0</asrwt>
<pdfrwt beam="2">  1        2 0.22335187E-02 0.90106175E+02</pdfrwt>
<pdfrwt beam="1">  1       -2 0.21509623E-01 0.90106175E+02</pdfrwt>
<totfact> 0.73800574E+04</totfact>
</mgrwt>
</event>
<event>
 5    1  0.6046470E+000  0.9025568E+02  0.7546771E-02  0.1302234E+00
         -2   -1    0    0    0  501 -0.00000000000E+00  0.00000000000E+00  0.18258370930E+02  0.18258370930E+02  0.00000000000E+00 0.  1.
          2   -1    0    0  501    0  0.00000000000E+00 -0.00000000000E+00 -0.11153907142E+03  0.11153907142E+03  0.00000000000E+00 0. -1.
         23    2    1    2    0    0  0.00000000000E+00  0.00000000000E+00 -0.93280700493E+02  0.12979744235E+03  0.90255675484E+02 0.  0.
        -13    1    3    3    0    0 -0.32459789840E+02  0.47893662261E+01 -0.91197249457E+02  0.96920143901E+02  0.00000000000E+00 0. -1.
         13    1    3    3    0    0  0.32459789840E+02 -0.47893662261E+01 -0.20834510358E+01  0.32877298452E+02  0.00000000000E+00 0.  1.
<mgrwt>
<rscale>  0 0.90255675E+02</rscale>
<asrwt>0</asrwt>
<pdfrwt beam="2">  1        2 0.17159858E-01 0.90255675E+02</pdfrwt>
<pdfrwt beam="1">  1       -2 0.28089801E-02 0.90255675E+02</pdfrwt>
<totfact> 0.13046551E+05</totfact>
</mgrwt>
</event>
<event>
 5    1  0.6046470E+000  0.9051860E+02  0.7546771E-02  0.1301601E+00
         -1   -1    0    0    0  501 -0.00000000000E+00  0.00000000000E+00  0.97724246430E+02  0.97724246430E+02  0.00000000000E+00 0.  1.
          1   -1    0    0  501    0  0.00000000000E+00 -0.00000000000E+00 -0.20961062277E+02  0.20961062277E+02  0.00000000000E+00 0. -1.
         23    2    1    2    0    0  0.00000000000E+00  0.00000000000E+00  0.76763184153E+02  0.11868530871E+03  0.90518595115E+02 0.  0.
        -13    1    3    3    0    0  0.36332424770E+02  0.12703610852E+02  0.71609410337E+01  0.39149787928E+02  0.00000000000E+00 0. -1.
         13    1    3    3    0    0 -0.36332424770E+02 -0.12703610852E+02  0.69602243119E+02  0.79535520779E+02  0.00000000000E+00 0.  1.
<mgrwt>
<rscale>  0 0.90518595E+02</rscale>
<asrwt>0</asrwt>
<pdfrwt beam="2">  1        1 0.32247789E-02 0.90518595E+02</pdfrwt>
<pdfrwt beam="1">  1       -1 0.15034499E-01 0.90518595E+02</pdfrwt>
<totfact> 0.83254885E+04</totfact>
</mgrwt>
</event>
<event>
 5    1  0.6046470E+000  0.9226418E+02  0.7546771E-02  0.1297459E+00
          1   -1    0    0  501    0  0.00000000000E+00  0.00000000000E+00  0.49052196971E+02  0.49052196971E+02  0.00000000000E+00 0. -1.
         -1   -1    0    0    0  501 -0.00000000000E+00 -0.00000000000E+00 -0.43385823395E+02  0.43385823395E+02  0.00000000000E+00 0.  1.
         23    2    1    2    0    0  0.00000000000E+00  0.00000000000E+00  0.56663735758E+01  0.92438020366E+02  0.92264184924E+02 0.  0.
        -13    1    3    3    0    0 -0.16250538893E+02 -0.38187161625E+02  0.23016380875E+02  0.47456223152E+02  0.00000000000E+00 0. -1.
         13    1    3    3    0    0  0.16250538893E+02  0.38187161625E+02 -0.17350007299E+02  0.44981797214E+02  0.00000000000E+00 0.  1.
<mgrwt>
<rscale>  0 0.92264185E+02</rscale>
<asrwt>0</asrwt>
<pdfrwt beam="1">  1        1 0.75464918E-02 0.92264185E+02</pdfrwt>
<pdfrwt beam="2">  1       -1 0.66747421E-02 0.92264185E+02</pdfrwt>
<totfact> 0.90439188E+04</totfact>
</mgrwt>
</event>
<event>
 5    1  0.6046470E+000  0.9016846E+02  0.7546771E-02  0.1302444E+00
          1   -1    0    0  501    0  0.00000000000E+00  0.00000000000E+00  0.53879363286E+02  0.53879363286E+02  0.00000000000E+00 0. -1.
         -1   -1    0    0    0  501 -0.00000000000E+00 -0.00000000000E+00 -0.37724795199E+02  0.37724795199E+02  0.00000000000E+00 0.  1.
         23    2    1    2    0    0  0.00000000000E+00  0.00000000000E+00  0.16154568087E+02  0.91604158485E+02  0.90168463343E+02 0.  0.
        -13    1    3    3    0    0 -0.10297715749E+02 -0.21063576570E+02 -0.31043916022E+02  0.38902980986E+02  0.00000000000E+00 0.  1.
         13    1    3    3    0    0  0.10297715749E+02  0.21063576570E+02  0.47198484110E+02  0.52701177499E+02  0.00000000000E+00 0. -1.
<mgrwt>
<rscale>  0 0.90168463E+02</rscale>
<asrwt>0</asrwt>
<pdfrwt beam="1">  1        1 0.82891328E-02 0.90168463E+02</pdfrwt>
<pdfrwt beam="2">  1       -1 0.58038147E-02 0.90168463E+02</pdfrwt>
<totfact> 0.97800426E+04</totfact>
</mgrwt>
</event>
<event>
 5    1  0.6046470E+000  0.9050201E+02  0.7546771E-02  0.1301641E+00
         -2   -1    0    0    0  501 -0.00000000000E+00  0.00000000000E+00  0.16639607701E+02  0.16639607701E+02  0.00000000000E+00 0.  1.
          2   -1    0    0  501    0  0.00000000000E+00 -0.00000000000E+00 -0.12305900270E+03  0.12305900270E+03  0.00000000000E+00 0. -1.
         23    2    1    2    0    0  0.00000000000E+00  0.00000000000E+00 -0.10641939500E+03  0.13969861040E+03  0.90502011670E+02 0.  0.
        -13    1    3    3    0    0 -0.11569158584E+02 -0.29209376961E+02 -0.29391238991E+01  0.31554264088E+02  0.00000000000E+00 0.  1.
         13    1    3    3    0    0  0.11569158584E+02  0.29209376961E+02 -0.10348027110E+03  0.10814434632E+03  0.00000000000E+00 0. -1.
<mgrwt>
<rscale>  0 0.90502012E+02</rscale>
<asrwt>0</asrwt>
<pdfrwt beam="2">  1        2 0.18932153E-01 0.90502012E+02</pdfrwt>
<pdfrwt beam="1">  1       -2 0.25599398E-02 0.90502012E+02</pdfrwt>
<totfact> 0.13360094E+05</totfact>
</mgrwt>
</event>
<event>
 5    1  0.6046470E+000  0.9194923E+02  0.7546771E-02  0.1298199E+00
          1   -1    0    0  501    0  0.00000000000E+00  0.00000000000E+00  0.59526209999E+02  0.59526209999E+02  0.00000000000E+00 0. -1.
         -1   -1    0    0    0  501 -0.00000000000E+00 -0.00000000000E+00 -0.35508146145E+02  0.35508146145E+02  0.00000000000E+00 0.  1.
         23    2    1    2    0    0  0.00000000000E+00  0.00000000000E+00  0.24018063854E+02  0.95034356144E+02  0.91949233039E+02 0.  0.
        -13    1    3    3    0    0 -0.39135175735E+02  0.20912808838E+02  0.24444253529E+02  0.50659935687E+02  0.00000000000E+00 0. -1.
         13    1    3    3    0    0  0.39135175735E+02 -0.20912808838E+02 -0.42618967446E+00  0.44374420457E+02  0.00000000000E+00 0.  1.
<mgrwt>
<rscale>  0 0.91949233E+02</rscale>
<asrwt>0</asrwt>
<pdfrwt beam="1">  1        1 0.91578784E-02 0.91949233E+02</pdfrwt>
<pdfrwt beam="2">  1       -1 0.54627917E-02 0.91949233E+02</pdfrwt>
<totfact> 0.94025358E+04</totfact>
</mgrwt>
</event>
<event>
 5    1  0.6046470E+000  0.8398400E+02  0.7546771E-02  0.1318111E+00
         -1   -1    0    0    0  501 -0.00000000000E+00  0.00000000000E+00  0.52132539473E+02  0.52132539473E+02  0.00000000000E+00 0.  1.
          1   -1    0    0  501    0  0.00000000000E+00 -0.00000000000E+00 -0.33823943249E+02  0.33823943249E+02  0.00000000000E+00 0. -1.
         23    2    1    2    0    0  0.00000000000E+00  0.00000000000E+00  0.18308596224E+02  0.85956482722E+02  0.83983999823E+02 0.  0.
        -13    1    3    3    0    0  0.30065712020E+02  0.20142213599E+02 -0.12645535994E+02  0.38334910832E+02  0.00000000000E+00 0. -1.
         13    1    3    3    0    0 -0.30065712020E+02 -0.20142213599E+02  0.30954132217E+02  0.47621571890E+02  0.00000000000E+00 0.  1.
<mgrwt>
<rscale>  0 0.83984000E+02</rscale>
<asrwt>0</asrwt>
<pdfrwt beam="2">  1        1 0.52036836E-02 0.83984000E+02</pdfrwt>
<pdfrwt beam="1">  1       -1 0.80203907E-02 0.83984000E+02</pdfrwt>
<totfact> 0.11145845E+05</totfact>
</mgrwt>
</event>
<event>
 5    1  0.6046470E+000  0.8780353E+02  0.7546771E-02  0.1308260E+00
          1   -1    0    0  501    0  0.00000000000E+00  0.00000000000E+00  0.27569507998E+03  0.27569507998E+03  0.00000000000E+00 0. -1.
         -1   -1    0    0    0  501 -0.00000000000E+00 -0.00000000000E+00 -0.69909296602E+01  0.69909296602E+01  0.00000000000E+00 0.  1.
         23    2    1    2    0    0  0.00000000000E+00  0.00000000000E+00  0.26870415032E+03  0.28268600964E+03  0.87803528672E+02 0.  0.
        -13    1    3    3    0    0  0.73467992412E+01 -0.43277459063E+02  0.13218997571E+03  0.13928784441E+03  0.00000000000E+00 0.  1.
         13    1    3    3    0    0 -0.73467992412E+01  0.43277459063E+02  0.13651417460E+03  0.14339816522E+03  0.00000000000E+00 0. -1.
<mgrwt>
<rscale>  0 0.87803529E+02</rscale>
<asrwt>0</asrwt>
<pdfrwt beam="1">  1        1 0.42414619E-01 0.87803529E+02</pdfrwt>
<pdfrwt beam="2">  1       -1 0.10755279E-02 0.87803529E+02</pdfrwt>
<totfact> 0.13935445E+05</totfact>
</mgrwt>
</event>
<event>
 5    1  0.6046470E+000  0.9026940E+02  0.7546771E-02  0.1302201E+00
         -2   -1    0    0    0  501 -0.00000000000E+00  0.00000000000E+00  0.11354226227E+02  0.11354226227E+02  0.00000000000E+00 0.  1.
          2   -1    0    0  501    0  0.00000000000E+00 -0.00000000000E+00 -0.17941698349E+03  0.17941698349E+03  0.00000000000E+00 0. -1.
         23    2    1    2    0    0  0.00000000000E+00  0.00000000000E+00 -0.16806275726E+03  0.19077120972E+03  0.90269397241E+02 0.  0.
        -13    1    3    3    0    0 -0.16070557156E+02  0.33295754296E+02 -0.29317501308E+02  0.47184594354E+02  0.00000000000E+00 0.  1.
         13    1    3    3    0    0  0.16070557156E+02 -0.33295754296E+02 -0.13874525596E+03  0.14358661537E+03  0.00000000000E+00 0. -1.
<mgrwt>
<rscale>  0 0.90269397E+02</rscale>
<asrwt>0</asrwt>
<pdfrwt beam="2">  1        2 0.27602611E-01 0.90269397E+02</pdfrwt>
<pdfrwt beam="1">  1       -2 0.17468041E-02 0.90269397E+02</pdfrwt>
<totfact> 0.15284281E+05</totfact>
</mgrwt>
</event>
<event>
 5    1  0.6046470E+000  0.8874631E+02  0.7546771E-02  0.1305916E+00
         -1   -1    0    0    0  501 -0.00000000000E+00  0.00000000000E+00  0.74774061022E+01  0.74774061022E+01  0.00000000000E+00 0.  1.
          1   -1    0    0  501    0  0.00000000000E+00 -0.00000000000E+00 -0.26332353196E+03  0.26332353196E+03  0.00000000000E+00 0. -1.
         23    2    1    2    0    0  0.00000000000E+00  0.00000000000E+00 -0.25584612585E+03  0.27080093806E+03  0.88746312255E+02 0.  0.
        -13    1    3    3    0    0 -0.58831167846E+01  0.39666862578E+02 -0.69953922483E+02  0.80632638061E+02  0.00000000000E+00 0.  1.
         13    1    3    3    0    0  0.58831167846E+01 -0.39666862578E+02 -0.18589220337E+03  0.19016830000E+03  0.00000000000E+00 0. -1.
<mgrwt>
<rscale>  0 0.88746312E+02</rscale>
<asrwt>0</asrwt>
<pdfrwt beam="2">  1        1 0.40511318E-01 0.88746312E+02</pdfrwt>
<pdfrwt beam="1">  1       -1 0.11503700E-02 0.88746312E+02</pdfrwt>
<totfact> 0.13425408E+05</totfact>
</mgrwt>
</event>
<event>
 5    1  0.6046470E+000  0.9108228E+02  0.7546771E-02  0.1300252E+00
         -2   -1    0    0    0  501 -0.00000000000E+00  0.00000000000E+00  0.66362919723E+02  0.66362919723E+02  0.00000000000E+00 0.  1.
          2   -1    0    0  501    0  0.00000000000E+00 -0.00000000000E+00 -0.31252324032E+02  0.31252324032E+02  0.00000000000E+00 0. -1.
         23    2    1    2    0    0  0.00000000000E+00  0.00000000000E+00  0.35110595691E+02  0.97615243755E+02  0.91082280843E+02 0.  0.
        -13    1    3    3    0    0  0.27877136282E+02  0.29309623265E+01  0.56022201226E+02  0.62643533566E+02  0.00000000000E+00 0.  1.
         13    1    3    3    0    0 -0.27877136282E+02 -0.29309623265E+01 -0.20911605535E+02  0.34971710189E+02  0.00000000000E+00 0. -1.
<mgrwt>
<rscale>  0 0.91082281E+02</rscale>
<asrwt>0</asrwt>
<pdfrwt beam="2">  1        2 0.48080499E-02 0.91082281E+02</pdfrwt>
<pdfrwt beam="1">  1       -2 0.10209680E-01 0.91082281E+02</pdfrwt>
<totfact> 0.89708820E+04</totfact>
</mgrwt>
</event>
<event>
 5    1  0.6046470E+000  0.8789328E+02  0.7546771E-02  0.1308035E+00
         -1   -1    0    0    0  501 -0.00000000000E+00  0.00000000000E+00  0.31417970523E+02  0.31417970523E+02  0.00000000000E+00 0.  1.
          1   -1    0    0  501    0  0.00000000000E+00 -0.00000000000E+00 -0.61471417988E+02  0.61471417988E+02  0.00000000000E+00 0. -1.
         23    2    1    2    0    0  0.00000000000E+00  0.00000000000E+00 -0.30053447466E+02  0.92889388511E+02  0.87893280707E+02 0.  0.
        -13    1    3    3    0    0 -0.42443401375E+02 -0.29736970424E+01 -0.26653052473E+02  0.50206278497E+02  0.00000000000E+00 0. -1.
         13    1    3    3    0    0  0.42443401375E+02  0.29736970424E+01 -0.34003949923E+01  0.42683110014E+02  0.00000000000E+00 0.  1.
<mgrwt>
<rscale>  0 0.87893281E+02</rscale>
<asrwt>0</asrwt>
<pdfrwt beam="2">  1        1 0.94571412E-02 0.87893281E+02</pdfrwt>
<pdfrwt beam="1">  1       -1 0.48335340E-02 0.87893281E+02</pdfrwt>
<totfact> 0.10703526E+05</totfact>
</mgrwt>
</event>
<event>
 5    1  0.6046470E+000  0.9194213E+02  0.7546771E-02  0.1298216E+00
          4   -1    0    0  501    0  0.00000000000E+00  0.00000000000E+00  0.21871987388E+02  0.21871987388E+02  0.00000000000E+00 0. -1.
         -4   -1    0    0    0  501 -0.00000000000E+00 -0.00000000000E+00 -0.96623084274E+02  0.96623084274E+02  0.00000000000E+00 0.  1.
         23    2    1    2    0    0  0.00000000000E+00  0.00000000000E+00 -0.74751096886E+02  0.11849507166E+03  0.91942131378E+02 0.  0.
        -13    1    3    3    0    0  0.20937333678E+02 -0.25957745824E+02 -0.78154680662E+02  0.84972528615E+02  0.00000000000E+00 0.  1.
         13    1    3    3    0    0 -0.20937333678E+02  0.25957745824E+02  0.34035837755E+01  0.33522543047E+02  0.00000000000E+00 0. -1.
<mgrwt>
<rscale>  0 0.91942131E+02</rscale>
<asrwt>0</asrwt>
<pdfrwt beam="1">  1        4 0.33649211E-02 0.91942131E+02</pdfrwt>
<pdfrwt beam="2">  1       -4 0.14865090E-01 0.91942131E+02</pdfrwt>
<totfact> 0.24790567E+04</totfact>
</mgrwt>
</event>
<event>
 5    1  0.6046470E+000  0.9230456E+02  0.7546771E-02  0.1297365E+00
          4   -1    0    0  501    0  0.00000000000E+00  0.00000000000E+00  0.38511255054E+02  0.38511255054E+02  0.00000000000E+00 0. -1.
         -4   -1    0    0    0  501 -0.00000000000E+00 -0.00000000000E+00 -0.55309359063E+02  0.55309359063E+02  0.00000000000E+00 0.  1.
         23    2    1    2    0    0  0.00000000000E+00  0.00000000000E+00 -0.16798104009E+02  0.93820614117E+02  0.92304557498E+02 0.  0.
        -13    1    3    3    0    0  0.15262011587E+02  0.34735165029E+02 -0.35109406716E+02  0.51692660284E+02  0.00000000000E+00 0.  1.
         13    1    3    3    0    0 -0.15262011587E+02 -0.34735165029E+02  0.18311302707E+02  0.42127953833E+02  0.00000000000E+00 0. -1.
<mgrwt>
<rscale>  0 0.92304557E+02</rscale>
<asrwt>0</asrwt>
<pdfrwt beam="1">  1        4 0.59248085E-02 0.92304557E+02</pdfrwt>
<pdfrwt beam="2">  1       -4 0.85091322E-02 0.92304557E+02</pdfrwt>
<totfact> 0.25964074E+04</totfact>
</mgrwt>
</event>
<event>
 5    1  0.6046470E+000  0.9889207E+02  0.7546771E-02  0.1282643E+00
          1   -1    0    0  501    0  0.00000000000E+00  0.00000000000E+00  0.30753959624E+02  0.30753959624E+02  0.00000000000E+00 0. -1.
         -1   -1    0    0    0  501 -0.00000000000E+00 -0.00000000000E+00 -0.79499046362E+02  0.79499046362E+02  0.00000000000E+00 0.  1.
         23    2    1    2    0    0  0.00000000000E+00  0.00000000000E+00 -0.48745086738E+02  0.11025300599E+03  0.98892071714E+02 0.  0.
        -13    1    3    3    0    0  0.25398795903E+02 -0.16413315193E+02  0.19242220957E+02  0.35843532419E+02  0.00000000000E+00 0. -1.
         13    1    3    3    0    0 -0.25398795903E+02  0.16413315193E+02 -0.67987307695E+02  0.74409473567E+02  0.00000000000E+00 0.  1.
<mgrwt>
<rscale>  0 0.98892072E+02</rscale>
<asrwt>0</asrwt>
<pdfrwt beam="1">  1        1 0.47313784E-02 0.98892072E+02</pdfrwt>
<pdfrwt beam="2">  1       -1 0.12230622E-01 0.98892072E+02</pdfrwt>
<totfact> 0.68812775E+04</totfact>
</mgrwt>
</event>
<event>
 5    1  0.6046470E+000  0.9389198E+02  0.7546771E-02  0.1293691E+00
         -3   -1    0    0    0  501 -0.00000000000E+00  0.00000000000E+00  0.45519551329E+03  0.45519551329E+03  0.00000000000E+00 0.  1.
          3   -1    0    0  501    0  0.00000000000E+00 -0.00000000000E+00 -0.48417131790E+01  0.48417131790E+01  0.00000000000E+00 0. -1.
         23    2    1    2    0    0  0.00000000000E+00  0.00000000000E+00  0.45035380011E+03  0.46003722647E+03  0.93891982952E+02 0.  0.
        -13    1    3    3    0    0 -0.45348024539E+02  0.90913392175E+01  0.26462749944E+03  0.26863880814E+03  0.00000000000E+00 0.  1.
         13    1    3    3    0    0  0.45348024539E+02 -0.90913392175E+01  0.18572630067E+03  0.19139841833E+03  0.00000000000E+00 0. -1.
<mgrwt>
<rscale>  0 0.93891983E+02</rscale>
<asrwt>0</asrwt>
<pdfrwt beam="2">  1        3 0.74487931E-03 0.93891983E+02</pdfrwt>
<pdfrwt beam="1">  1       -3 0.70030045E-01 0.93891983E+02</pdfrwt>
<totfact> 0.17474209E+04</totfact>
</mgrwt>
</event>
<event>
 5    1  0.6046470E+000  0.9180087E+02  0.7546771E-02  0.1298548E+00
         -2   -1    0    0    0  501 -0.00000000000E+00  0.00000000000E+00  0.23284213111E+03  0.23284213111E+03  0.00000000000E+00 0.  1.
          2   -1    0    0  501    0  0.00000000000E+00 -0.00000000000E+00 -0.90484041441E+01  0.90484041441E+01  0.00000000000E+00 0. -1.
         23    2    1    2    0    0  0.00000000000E+00  0.00000000000E+00  0.22379372696E+03  0.24189053525E+03  0.91800865008E+02 0.  0.
        -13    1    3    3    0    0 -0.52835388415E+00  0.42689959958E+02  0.67481148398E+02  0.79852471647E+02  0.00000000000E+00 0.  1.
         13    1    3    3    0    0  0.52835388415E+00 -0.42689959958E+02  0.15631257856E+03  0.16203806360E+03  0.00000000000E+00 0. -1.
<mgrwt>
<rscale>  0 0.91800865E+02</rscale>
<asrwt>0</asrwt>
<pdfrwt beam="2">  1        2 0.13920624E-02 0.91800865E+02</pdfrwt>
<pdfrwt beam="1">  1       -2 0.35821862E-01 0.91800865E+02</pdfrwt>
<totfact> 0.57150774E+04</totfact>
</mgrwt>
</event>
<event>
 5    1  0.6046470E+000  0.8966422E+02  0.7546771E-02  0.1303667E+00
         -4   -1    0    0    0  501 -0.00000000000E+00  0.00000000000E+00  0.21260741111E+02  0.21260741111E+02  0.00000000000E+00 0.  1.
          4   -1    0    0  501    0  0.00000000000E+00 -0.00000000000E+00 -0.94536600427E+02  0.94536600427E+02  0.00000000000E+00 0. -1.
         23    2    1    2    0    0  0.00000000000E+00  0.00000000000E+00 -0.73275859316E+02  0.11579734154E+03  0.89664222233E+02 0.  0.
        -13    1    3    3    0    0  0.10213382468E+02  0.39604921090E+02 -0.60347841505E+02  0.72902159984E+02  0.00000000000E+00 0. -1.
         13    1    3    3    0    0 -0.10213382468E+02 -0.39604921090E+02 -0.12928017811E+02  0.42895181554E+02  0.00000000000E+00 0.  1.
<mgrwt>
<rscale>  0 0.89664222E+02</rscale>
<asrwt>0</asrwt>
<pdfrwt beam="2">  1        4 0.14544093E-01 0.89664222E+02</pdfrwt>
<pdfrwt beam="1">  1       -4 0.32708832E-02 0.89664222E+02</pdfrwt>
<totfact> 0.26690114E+04</totfact>
</mgrwt>
</event>
<event>
 5    1  0.6046470E+000  0.9204097E+02  0.7546771E-02  0.1297983E+00
          3   -1    0    0  501    0  0.00000000000E+00  0.00000000000E+00  0.18861701269E+03  0.18861701269E+03  0.00000000000E+00 0. -1.
         -3   -1    0    0    0  501 -0.00000000000E+00 -0.00000000000E+00 -0.11228494492E+02  0.11228494492E+02  0.00000000000E+00 0.  1.
         23    2    1    2    0    0  0.00000000000E+00  0.00000000000E+00  0.17738851820E+03  0.19984550718E+03  0.92040971053E+02 0.  0.
        -13    1    3    3    0    0  0.31563347590E+02  0.15986891512E+01  0.16132903689E+03  0.16439543443E+03  0.00000000000E+00 0. -1.
         13    1    3    3    0    0 -0.31563347590E+02 -0.15986891512E+01  0.16059481306E+02  0.35450072749E+02  0.00000000000E+00 0.  1.
<mgrwt>
<rscale>  0 0.92040971E+02</rscale>
<asrwt>0</asrwt>
<pdfrwt beam="1">  1        3 0.29018000E-01 0.92040971E+02</pdfrwt>
<pdfrwt beam="2">  1       -3 0.17274608E-02 0.92040971E+02</pdfrwt>
<totfact> 0.27788781E+04</totfact>
</mgrwt>
</event>
<event>
 5    1  0.6046470E+000  0.9452028E+02  0.7546771E-02  0.1292260E+00
         -1   -1    0    0    0  501 -0.00000000000E+00  0.00000000000E+00  0.24378932556E+03  0.24378932556E+03  0.00000000000E+00 0.  1.
          1   -1    0    0  501    0  0.00000000000E+00 -0.00000000000E+00 -0.91616840299E+01  0.91616840299E+01  0.00000000000E+00 0. -1.
         23    2    1    2    0    0  0.00000000000E+00  0.00000000000E+00  0.23462764153E+03  0.25295100959E+03  0.94520278684E+02 0.  0.
        -13    1    3    3    0    0 -0.36196078710E+02 -0.43613573393E+01  0.36835655489E+02  0.51827049570E+02  0.00000000000E+00 0. -1.
         13    1    3    3    0    0  0.36196078710E+02  0.43613573393E+01  0.19779198604E+03  0.20112396002E+03  0.00000000000E+00 0.  1.
<mgrwt>
<rscale>  0 0.94520279E+02</rscale>
<asrwt>0</asrwt>
<pdfrwt beam="2">  1        1 0.14094900E-02 0.94520279E+02</pdfrwt>
<pdfrwt beam="1">  1       -1 0.37506045E-01 0.94520279E+02</pdfrwt>
<totfact> 0.59442920E+04</totfact>
</mgrwt>
</event>
<event>
 5    1  0.6046470E+000  0.9193619E+02  0.7546771E-02  0.1298230E+00
          2   -1    0    0  501    0  0.00000000000E+00  0.00000000000E+00  0.23744754330E+02  0.23744754330E+02  0.00000000000E+00 0. -1.
         -2   -1    0    0    0  501 -0.00000000000E+00 -0.00000000000E+00 -0.88990847983E+02  0.88990847983E+02  0.00000000000E+00 0.  1.
         23    2    1    2    0    0  0.00000000000E+00  0.00000000000E+00 -0.65246093653E+02  0.11273560231E+03  0.91936191414E+02 0.  0.
        -13    1    3    3    0    0  0.35348948690E+02 -0.55848583337E+01  0.27539998205E+01  0.35893221242E+02  0.00000000000E+00 0. -1.
         13    1    3    3    0    0 -0.35348948690E+02  0.55848583337E+01 -0.68000093474E+02  0.76842381070E+02  0.00000000000E+00 0.  1.
<mgrwt>
<rscale>  0 0.91936191E+02</rscale>
<asrwt>0</asrwt>
<pdfrwt beam="1">  1        2 0.36530391E-02 0.91936191E+02</pdfrwt>
<pdfrwt beam="2">  1       -2 0.13690900E-01 0.91936191E+02</pdfrwt>
<totfact> 0.80893147E+04</totfact>
</mgrwt>
</event>
<event>
 5    1  0.6046470E+000  0.9290670E+02  0.7546771E-02  0.1295962E+00
         -2   -1    0    0    0  501 -0.00000000000E+00  0.00000000000E+00  0.44622284764E+01  0.44622284764E+01  0.00000000000E+00 0.  1.
          2   -1    0    0  501    0  0.00000000000E+00 -0.00000000000E+00 -0.48359552010E+03  0.48359552010E+03  0.00000000000E+00 0. -1.
         23    2    1    2    0    0  0.00000000000E+00  0.00000000000E+00 -0.47913329162E+03  0.48805774857E+03  0.92906699453E+02 0.  0.
        -13    1    3    3    0    0 -0.31424158055E+02 -0.33506766712E+02 -0.27586037680E+03  0.27965895054E+03  0.00000000000E+00 0.  1.
         13    1    3    3    0    0  0.31424158055E+02  0.33506766712E+02 -0.20327291482E+03  0.20839879803E+03  0.00000000000E+00 0. -1.
<mgrwt>
<rscale>  0 0.92906699E+02</rscale>
<asrwt>0</asrwt>
<pdfrwt beam="2">  1        2 0.74399304E-01 0.92906699E+02</pdfrwt>
<pdfrwt beam="1">  1       -2 0.68649675E-03 0.92906699E+02</pdfrwt>
<totfact> 0.20278917E+05</totfact>
</mgrwt>
</event>
<event>
 5    1  0.6046470E+000  0.9232648E+02  0.7546771E-02  0.1297314E+00
          2   -1    0    0  501    0  0.00000000000E+00  0.00000000000E+00  0.10951437789E+02  0.10951437789E+02  0.00000000000E+00 0. -1.
         -2   -1    0    0    0  501 -0.00000000000E+00 -0.00000000000E+00 -0.19459041469E+03  0.19459041469E+03  0.00000000000E+00 0.  1.
         23    2    1    2    0    0  0.00000000000E+00  0.00000000000E+00 -0.18363897690E+03  0.20554185248E+03  0.92326482025E+02 0.  0.
        -13    1    3    3    0    0  0.29119376122E+02 -0.51285436809E+01 -0.12895705578E+02  0.32257390601E+02  0.00000000000E+00 0. -1.
         13    1    3    3    0    0 -0.29119376122E+02  0.51285436809E+01 -0.17074327133E+03  0.17328446188E+03  0.00000000000E+00 0.  1.
<mgrwt>
<rscale>  0 0.92326482E+02</rscale>
<asrwt>0</asrwt>
<pdfrwt beam="1">  1        2 0.16848367E-02 0.92326482E+02</pdfrwt>
<pdfrwt beam="2">  1       -2 0.29936985E-01 0.92326482E+02</pdfrwt>
<totfact> 0.61070889E+04</totfact>
</mgrwt>
</event>
<event>
 5    1  0.6046470E+000  0.8707695E+02  0.7546771E-02  0.1310089E+00
         -2   -1    0    0    0  501 -0.00000000000E+00  0.00000000000E+00  0.26394930641E+03  0.26394930641E+03  0.00000000000E+00 0.  1.
          2   -1    0    0  501    0  0.00000000000E+00 -0.00000000000E+00 -0.71816771840E+01  0.71816771840E+01  0.00000000000E+00 0. -1.
         23    2    1    2    0    0  0.00000000000E+00  0.00000000000E+00  0.25676762923E+03  0.27113098359E+03  0.87076947847E+02 0.  0.
        -13    1    3    3    0    0 -0.40937550295E+02  0.13561548300E+02  0.10975359211E+03  0.11792221842E+03  0.00000000000E+00 0. -1.
         13    1    3    3    0    0  0.40937550295E+02 -0.13561548300E+02  0.14701403712E+03  0.15320876517E+03  0.00000000000E+00 0.  1.
<mgrwt>
<rscale>  0 0.87076948E+02</rscale>
<asrwt>0</asrwt>
<pdfrwt beam="2">  1        2 0.11048736E-02 0.87076948E+02</pdfrwt>
<pdfrwt beam="1">  1       -2 0.40607578E-01 0.87076948E+02</pdfrwt>
<totfact> 0.61493751E+04</totfact>
</mgrwt>
</event>
<event>
 5    1  0.6046470E+000  0.8839692E+02  0.7546771E-02  0.1306781E+00
         -2   -1    0    0    0  501 -0.00000000000E+00  0.00000000000E+00  0.17550027050E+02  0.17550027050E+02  0.00000000000E+00 0.  1.
          2   -1    0    0  501    0  0.00000000000E+00 -0.00000000000E+00 -0.11131060134E+03  0.11131060134E+03  0.00000000000E+00 0. -1.
         23    2    1    2    0    0  0.00000000000E+00  0.00000000000E+00 -0.93760574288E+02  0.12886062839E+03  0.88396924482E+02 0.  0.
        -13    1    3    3    0    0 -0.40559738478E+02 -0.15661002126E+00 -0.21280802173E+02  0.45803814833E+02  0.00000000000E+00 0.  1.
         13    1    3    3    0    0  0.40559738478E+02  0.15661002126E+00 -0.72479772115E+02  0.83056813555E+02  0.00000000000E+00 0. -1.
<mgrwt>
<rscale>  0 0.88396924E+02</rscale>
<asrwt>0</asrwt>
<pdfrwt beam="2">  1        2 0.17124708E-01 0.88396924E+02</pdfrwt>
<pdfrwt beam="1">  1       -2 0.27000042E-02 0.88396924E+02</pdfrwt>
<totfact> 0.13800636E+05</totfact>
</mgrwt>
</event>
<event>
 5    1  0.6046470E+000  0.9035229E+02  0.7546771E-02  0.1302001E+00
          1   -1    0    0  501    0  0.00000000000E+00  0.00000000000E+00  0.54801556939E+02  0.54801556939E+02  0.00000000000E+00 0. -1.
         -1   -1    0    0    0  501 -0.00000000000E+00 -0.00000000000E+00 -0.37241351219E+02  0.37241351219E+02  0.00000000000E+00 0.  1.
         23    2    1    2    0    0  0.00000000000E+00  0.00000000000E+00  0.17560205720E+02  0.92042908157E+02  0.90352288943E+02 0.  0.
        -13    1    3    3    0    0  0.25237827607E+02 -0.44570335663E+01  0.46679329479E+02  0.53251975467E+02  0.00000000000E+00 0. -1.
         13    1    3    3    0    0 -0.25237827607E+02  0.44570335663E+01 -0.29119123759E+02  0.38790932691E+02  0.00000000000E+00 0.  1.
<mgrwt>
<rscale>  0 0.90352289E+02</rscale>
<asrwt>0</asrwt>
<pdfrwt beam="1">  1        1 0.84310088E-02 0.90352289E+02</pdfrwt>
<pdfrwt beam="2">  1       -1 0.57294386E-02 0.90352289E+02</pdfrwt>
<totfact> 0.97495028E+04</totfact>
</mgrwt>
</event>
<event>
 5    1  0.6046470E+000  0.9333613E+02  0.7546771E-02  0.1294968E+00
         -2   -1    0    0    0  501 -0.00000000000E+00  0.00000000000E+00  0.27270913063E+03  0.27270913063E+03  0.00000000000E+00 0.  1.
          2   -1    0    0  501    0  0.00000000000E+00 -0.00000000000E+00 -0.79861953361E+01  0.79861953361E+01  0.00000000000E+00 0. -1.
         23    2    1    2    0    0  0.00000000000E+00  0.00000000000E+00  0.26472293530E+03  0.28069532597E+03  0.93336132065E+02 0.  0.
        -13    1    3    3    0    0 -0.42662335794E+02 -0.18321562531E+02  0.14651646758E+03  0.15369720174E+03  0.00000000000E+00 0.  1.
         13    1    3    3    0    0  0.42662335794E+02  0.18321562531E+02  0.11820646772E+03  0.12699812423E+03  0.00000000000E+00 0. -1.
<mgrwt>
<rscale>  0 0.93336132E+02</rscale>
<asrwt>0</asrwt>
<pdfrwt beam="2">  1        2 0.12286456E-02 0.93336132E+02</pdfrwt>
<pdfrwt beam="1">  1       -2 0.41955244E-01 0.93336132E+02</pdfrwt>
<totfact> 0.50582210E+04</totfact>
</mgrwt>
</event>
<event>
 5    1  0.6046470E+000  0.9609857E+02  0.7546771E-02  0.1288721E+00
          1   -1    0    0  501    0  0.00000000000E+00  0.00000000000E+00  0.27059226878E+03  0.27059226878E+03  0.00000000000E+00 0. -1.
         -1   -1    0    0    0  501 -0.00000000000E+00 -0.00000000000E+00 -0.85321499242E+01  0.85321499242E+01  0.00000000000E+00 0.  1.
         23    2    1    2    0    0  0.00000000000E+00  0.00000000000E+00  0.26206011886E+03  0.27912441871E+03  0.96098570345E+02 0.  0.
        -13    1    3    3    0    0  0.32274994500E+02 -0.33896004462E+02  0.16259765852E+03  0.16919992005E+03  0.00000000000E+00 0. -1.
         13    1    3    3    0    0 -0.32274994500E+02  0.33896004462E+02  0.99462460333E+02  0.10992449865E+03  0.00000000000E+00 0.  1.
<mgrwt>
<rscale>  0 0.96098570E+02</rscale>
<asrwt>0</asrwt>
<pdfrwt beam="1">  1        1 0.41629573E-01 0.96098570E+02</pdfrwt>
<pdfrwt beam="2">  1       -1 0.13126387E-02 0.96098570E+02</pdfrwt>
<totfact> 0.10910597E+05</totfact>
</mgrwt>
</event>
<event>
 5    1  0.6046470E+000  0.9132988E+02  0.7546771E-02  0.1299663E+00
         -2   -1    0    0    0  501 -0.00000000000E+00  0.00000000000E+00  0.40555454872E+02  0.40555454872E+02  0.00000000000E+00 0.  1.
          2   -1    0    0  501    0  0.00000000000E+00 -0.00000000000E+00 -0.51418153386E+02  0.51418153386E+02  0.00000000000E+00 0. -1.
         23    2    1    2    0    0  0.00000000000E+00  0.00000000000E+00 -0.10862698514E+02  0.91973608258E+02  0.91329876804E+02 0.  0.
        -13    1    3    3    0    0 -0.17987210219E+02  0.40836305615E+02 -0.15202470370E+02  0.47140838909E+02  0.00000000000E+00 0. -1.
         13    1    3    3    0    0  0.17987210219E+02 -0.40836305615E+02  0.43397718563E+01  0.44832769349E+02  0.00000000000E+00 0.  1.
<mgrwt>
<rscale>  0 0.91329877E+02</rscale>
<asrwt>0</asrwt>
<pdfrwt beam="2">  1        2 0.79104851E-02 0.91329877E+02</pdfrwt>
<pdfrwt beam="1">  1       -2 0.62393008E-02 0.91329877E+02</pdfrwt>
<totfact> 0.10133458E+05</totfact>
</mgrwt>
</event>
<event>
 5    1  0.6046470E+000  0.8528080E+02  0.7546771E-02  0.1314700E+00
         -2   -1    0    0    0  501 -0.00000000000E+00  0.00000000000E+00  0.10836873113E+03  0.10836873113E+03  0.00000000000E+00 0. -1.
          2   -1    0    0  501    0  0.00000000000E+00 -0.00000000000E+00 -0.16777936208E+02  0.16777936208E+02  0.00000000000E+00 0.  1.
         23    2    1    2    0    0  0.00000000000E+00  0.00000000000E+00  0.91590794920E+02  0.12514666734E+03  0.85280798726E+02 0.  0.
        -13    1    3    3    0    0  0.33525629621E+02  0.13140777496E+02  0.79308791452E+02  0.87100701928E+02  0.00000000000E+00 0. -1.
         13    1    3    3    0    0 -0.33525629621E+02 -0.13140777496E+02  0.12282003468E+02  0.38045965409E+02  0.00000000000E+00 0.  1.
<mgrwt>
<rscale>  0 0.85280799E+02</rscale>
<asrwt>0</asrwt>
<pdfrwt beam="2">  1        2 0.25812210E-02 0.85280799E+02</pdfrwt>
<pdfrwt beam="1">  1       -2 0.16672112E-01 0.85280799E+02</pdfrwt>
<totfact> 0.92031999E+04</totfact>
</mgrwt>
</event>
<event>
 5    1  0.6046470E+000  0.9144445E+02  0.7546771E-02  0.1299391E+00
         -1   -1    0    0    0  501 -0.00000000000E+00  0.00000000000E+00  0.14292720481E+03  0.14292720481E+03  0.00000000000E+00 0.  1.
          1   -1    0    0  501    0  0.00000000000E+00 -0.00000000000E+00 -0.14626480787E+02  0.14626480787E+02  0.00000000000E+00 0. -1.
         23    2    1    2    0    0  0.00000000000E+00  0.00000000000E+00  0.12830072403E+03  0.15755368560E+03  0.91444453415E+02 0.  0.
        -13    1    3    3    0    0  0.25638767919E+01  0.27143097055E+02  0.91101601799E+00  0.27279133640E+02  0.00000000000E+00 0. -1.
         13    1    3    3    0    0 -0.25638767919E+01 -0.27143097055E+02  0.12738970801E+03  0.13027455196E+03  0.00000000000E+00 0.  1.
<mgrwt>
<rscale>  0 0.91444453E+02</rscale>
<asrwt>0</asrwt>
<pdfrwt beam="2">  1        1 0.22502279E-02 0.91444453E+02</pdfrwt>
<pdfrwt beam="1">  1       -1 0.21988800E-01 0.91444453E+02</pdfrwt>
<totfact> 0.75052872E+04</totfact>
</mgrwt>
</event>
<event>
 5    1  0.6046470E+000  0.9038613E+02  0.7546771E-02  0.1301919E+00
          1   -1    0    0  501    0  0.00000000000E+00  0.00000000000E+00  0.10572236886E+02  0.10572236886E+02  0.00000000000E+00 0. -1.
         -1   -1    0    0    0  501 -0.00000000000E+00 -0.00000000000E+00 -0.19318646387E+03  0.19318646387E+03  0.00000000000E+00 0.  1.
         23    2    1    2    0    0  0.00000000000E+00  0.00000000000E+00 -0.18261422698E+03  0.20375870075E+03  0.90386128564E+02 0.  0.
        -13    1    3    3    0    0 -0.25536198769E+01 -0.44514072237E+02 -0.10793249965E+03  0.11677948485E+03  0.00000000000E+00 0.  1.
         13    1    3    3    0    0  0.25536198769E+01  0.44514072237E+02 -0.74681727328E+02  0.86979215899E+02  0.00000000000E+00 0. -1.
<mgrwt>
<rscale>  0 0.90386129E+02</rscale>
<asrwt>0</asrwt>
<pdfrwt beam="1">  1        1 0.16264980E-02 0.90386129E+02</pdfrwt>
<pdfrwt beam="2">  1       -1 0.29720994E-01 0.90386129E+02</pdfrwt>
<totfact> 0.71714937E+04</totfact>
</mgrwt>
</event>
<event>
 5    1  0.6046470E+000  0.8352460E+02  0.7546771E-02  0.1319337E+00
         -2   -1    0    0    0  501 -0.00000000000E+00  0.00000000000E+00  0.12184164032E+03  0.12184164032E+03  0.00000000000E+00 0.  1.
          2   -1    0    0  501    0  0.00000000000E+00 -0.00000000000E+00 -0.14314399336E+02  0.14314399336E+02  0.00000000000E+00 0. -1.
         23    2    1    2    0    0  0.00000000000E+00  0.00000000000E+00  0.10752724098E+03  0.13615603965E+03  0.83524604644E+02 0.  0.
        -13    1    3    3    0    0  0.23890269391E+02 -0.18805056458E+02  0.10043534666E+03  0.10493633297E+03  0.00000000000E+00 0.  1.
         13    1    3    3    0    0 -0.23890269391E+02  0.18805056458E+02  0.70918943229E+01  0.31219706678E+02  0.00000000000E+00 0. -1.
<mgrwt>
<rscale>  0 0.83524605E+02</rscale>
<asrwt>0</asrwt>
<pdfrwt beam="2">  1        2 0.22022154E-02 0.83524605E+02</pdfrwt>
<pdfrwt beam="1">  1       -2 0.18744867E-01 0.83524605E+02</pdfrwt>
<totfact> 0.93509134E+04</totfact>
</mgrwt>
</event>
<event>
 5    1  0.6046470E+000  0.9200499E+02  0.7546771E-02  0.1298068E+00
         -1   -1    0    0    0  501 -0.00000000000E+00  0.00000000000E+00  0.16630024401E+02  0.16630024401E+02  0.00000000000E+00 0.  1.
          1   -1    0    0  501    0  0.00000000000E+00 -0.00000000000E+00 -0.12725353572E+03  0.12725353572E+03  0.00000000000E+00 0. -1.
         23    2    1    2    0    0  0.00000000000E+00  0.00000000000E+00 -0.11062351132E+03  0.14388356012E+03  0.92004986912E+02 0.  0.
        -13    1    3    3    0    0  0.27934125815E+02  0.69856921170E+01  0.79411875954E+00  0.28805310344E+02  0.00000000000E+00 0.  1.
         13    1    3    3    0    0 -0.27934125815E+02 -0.69856921170E+01 -0.11141763008E+03  0.11507824978E+03  0.00000000000E+00 0. -1.
<mgrwt>
<rscale>  0 0.92004987E+02</rscale>
<asrwt>0</asrwt>
<pdfrwt beam="2">  1        1 0.19577468E-01 0.92004987E+02</pdfrwt>
<pdfrwt beam="1">  1       -1 0.25584652E-02 0.92004987E+02</pdfrwt>
<totfact> 0.10621719E+05</totfact>
</mgrwt>
</event>
<event>
 5    1  0.6046470E+000  0.9127425E+02  0.7546771E-02  0.1299795E+00
         -1   -1    0    0    0  501 -0.00000000000E+00  0.00000000000E+00  0.84263325975E+01  0.84263325975E+01  0.00000000000E+00 0.  1.
          1   -1    0    0  501    0  0.00000000000E+00 -0.00000000000E+00 -0.24717124700E+03  0.24717124700E+03  0.00000000000E+00 0. -1.
         23    2    1    2    0    0  0.00000000000E+00  0.00000000000E+00 -0.23874491440E+03  0.25559757959E+03  0.91274249068E+02 0.  0.
        -13    1    3    3    0    0  0.28267564209E+01  0.34275260164E+02 -0.35364422331E+02  0.49329771720E+02  0.00000000000E+00 0.  1.
         13    1    3    3    0    0 -0.28267564209E+01 -0.34275260164E+02 -0.20338049207E+03  0.20626780787E+03  0.00000000000E+00 0. -1.
<mgrwt>
<rscale>  0 0.91274249E+02</rscale>
<asrwt>0</asrwt>
<pdfrwt beam="2">  1        1 0.38026343E-01 0.91274249E+02</pdfrwt>
<pdfrwt beam="1">  1       -1 0.12963590E-02 0.91274249E+02</pdfrwt>
<totfact> 0.12304434E+05</totfact>
</mgrwt>
</event>
<event>
 5    1  0.6046470E+000  0.9093806E+02  0.7546771E-02  0.1300596E+00
         -3   -1    0    0    0  501 -0.00000000000E+00  0.00000000000E+00  0.11267138298E+03  0.11267138298E+03  0.00000000000E+00 0.  1.
          3   -1    0    0  501    0  0.00000000000E+00 -0.00000000000E+00 -0.18349224966E+02  0.18349224966E+02  0.00000000000E+00 0. -1.
         23    2    1    2    0    0  0.00000000000E+00  0.00000000000E+00  0.94322158013E+02  0.13102060795E+03  0.90938057019E+02 0.  0.
        -13    1    3    3    0    0  0.34210770713E+02  0.24605536007E+02  0.22557116114E+02  0.47797831774E+02  0.00000000000E+00 0. -1.
         13    1    3    3    0    0 -0.34210770713E+02 -0.24605536007E+02  0.71765041900E+02  0.83222776172E+02  0.00000000000E+00 0.  1.
<mgrwt>
<rscale>  0 0.90938057E+02</rscale>
<asrwt>0</asrwt>
<pdfrwt beam="2">  1        3 0.28229578E-02 0.90938057E+02</pdfrwt>
<pdfrwt beam="1">  1       -3 0.17334058E-01 0.90938057E+02</pdfrwt>
<totfact> 0.32742548E+04</totfact>
</mgrwt>
</event>
<event>
 5    1  0.6046470E+000  0.8924765E+02  0.7546771E-02  0.1304684E+00
         -1   -1    0    0    0  501 -0.00000000000E+00  0.00000000000E+00  0.95748291922E+02  0.95748291922E+02  0.00000000000E+00 0.  1.
          1   -1    0    0  501    0  0.00000000000E+00 -0.00000000000E+00 -0.20797089499E+02  0.20797089499E+02  0.00000000000E+00 0. -1.
         23    2    1    2    0    0  0.00000000000E+00  0.00000000000E+00  0.74951202423E+02  0.11654538142E+03  0.89247650871E+02 0.  0.
        -13    1    3    3    0    0  0.32501388163E+02 -0.26812308503E+02  0.56669847535E+02  0.70616653414E+02  0.00000000000E+00 0.  1.
         13    1    3    3    0    0 -0.32501388163E+02  0.26812308503E+02  0.18281354888E+02  0.45928728007E+02  0.00000000000E+00 0. -1.
<mgrwt>
<rscale>  0 0.89247651E+02</rscale>
<asrwt>0</asrwt>
<pdfrwt beam="2">  1        1 0.31995523E-02 0.89247651E+02</pdfrwt>
<pdfrwt beam="1">  1       -1 0.14730506E-01 0.89247651E+02</pdfrwt>
<totfact> 0.86657168E+04</totfact>
</mgrwt>
</event>
<event>
 5    1  0.6046470E+000  0.9161635E+02  0.7546771E-02  0.1298984E+00
         -3   -1    0    0    0  501 -0.00000000000E+00  0.00000000000E+00  0.41101199903E+02  0.41101199903E+02  0.00000000000E+00 0.  1.
          3   -1    0    0  501    0  0.00000000000E+00 -0.00000000000E+00 -0.51054204566E+02  0.51054204566E+02  0.00000000000E+00 0. -1.
         23    2    1    2    0    0  0.00000000000E+00  0.00000000000E+00 -0.99530046623E+01  0.92155404469E+02  0.91616353732E+02 0.  0.
        -13    1    3    3    0    0 -0.41735456755E+02  0.12855764339E+02 -0.18887916524E+02  0.47580168326E+02  0.00000000000E+00 0. -1.
         13    1    3    3    0    0  0.41735456755E+02 -0.12855764339E+02  0.89349118618E+01  0.44575236144E+02  0.00000000000E+00 0.  1.
<mgrwt>
<rscale>  0 0.91616354E+02</rscale>
<asrwt>0</asrwt>
<pdfrwt beam="2">  1        3 0.78544930E-02 0.91616354E+02</pdfrwt>
<pdfrwt beam="1">  1       -3 0.63232615E-02 0.91616354E+02</pdfrwt>
<totfact> 0.34803767E+04</totfact>
</mgrwt>
</event>
<event>
 5    1  0.6046470E+000  0.8170759E+02  0.7546771E-02  0.1324274E+00
          1   -1    0    0  501    0  0.00000000000E+00  0.00000000000E+00  0.20875675932E+02  0.20875675932E+02  0.00000000000E+00 0. -1.
         -1   -1    0    0    0  501 -0.00000000000E+00 -0.00000000000E+00 -0.79951075985E+02  0.79951075985E+02  0.00000000000E+00 0.  1.
         23    2    1    2    0    0  0.00000000000E+00  0.00000000000E+00 -0.59075400053E+02  0.10082675192E+03  0.81707594571E+02 0.  0.
        -13    1    3    3    0    0  0.52190278738E+01  0.36737886334E+02 -0.50628625602E+02  0.62770759710E+02  0.00000000000E+00 0.  1.
         13    1    3    3    0    0 -0.52190278738E+01 -0.36737886334E+02 -0.84467744510E+01  0.38055992207E+02  0.00000000000E+00 0. -1.
<mgrwt>
<rscale>  0 0.81707595E+02</rscale>
<asrwt>0</asrwt>
<pdfrwt beam="1">  1        1 0.32116425E-02 0.81707595E+02</pdfrwt>
<pdfrwt beam="2">  1       -1 0.12300165E-01 0.81707595E+02</pdfrwt>
<totfact> 0.11202777E+05</totfact>
</mgrwt>
</event>
<event>
 5    1  0.6046470E+000  0.9103929E+02  0.7546771E-02  0.1300354E+00
         -3   -1    0    0    0  501 -0.00000000000E+00  0.00000000000E+00  0.88185645048E+02  0.88185645048E+02  0.00000000000E+00 0.  1.
          3   -1    0    0  501    0  0.00000000000E+00 -0.00000000000E+00 -0.23496317172E+02  0.23496317172E+02  0.00000000000E+00 0. -1.
         23    2    1    2    0    0  0.00000000000E+00  0.00000000000E+00  0.64689327876E+02  0.11168196222E+03  0.91039285720E+02 0.  0.
        -13    1    3    3    0    0 -0.58716425309E+01  0.34969684624E+02  0.67359208604E+02  0.76122388379E+02  0.00000000000E+00 0.  1.
         13    1    3    3    0    0  0.58716425309E+01 -0.34969684624E+02 -0.26698807284E+01  0.35559573842E+02  0.00000000000E+00 0. -1.
<mgrwt>
<rscale>  0 0.91039286E+02</rscale>
<asrwt>0</asrwt>
<pdfrwt beam="2">  1        3 0.36148181E-02 0.91039286E+02</pdfrwt>
<pdfrwt beam="1">  1       -3 0.13567022E-01 0.91039286E+02</pdfrwt>
<totfact> 0.33966184E+04</totfact>
</mgrwt>
</event>
<event>
 5    1  0.6046470E+000  0.9043381E+02  0.7546771E-02  0.1301805E+00
          1   -1    0    0  501    0  0.00000000000E+00  0.00000000000E+00  0.11409887683E+03  0.11409887683E+03  0.00000000000E+00 0. -1.
         -1   -1    0    0    0  501 -0.00000000000E+00 -0.00000000000E+00 -0.17919267372E+02  0.17919267372E+02  0.00000000000E+00 0.  1.
         23    2    1    2    0    0  0.00000000000E+00  0.00000000000E+00  0.96179609453E+02  0.13201814420E+03  0.90433805199E+02 0.  0.
        -13    1    3    3    0    0 -0.42850867999E+02  0.10080065032E+02  0.63173737518E+02  0.76998218884E+02  0.00000000000E+00 0. -1.
         13    1    3    3    0    0  0.42850867999E+02 -0.10080065032E+02  0.33005871935E+02  0.55019925314E+02  0.00000000000E+00 0.  1.
<mgrwt>
<rscale>  0 0.90433805E+02</rscale>
<asrwt>0</asrwt>
<pdfrwt beam="1">  1        1 0.17553673E-01 0.90433805E+02</pdfrwt>
<pdfrwt beam="2">  1       -1 0.27568104E-02 0.90433805E+02</pdfrwt>
<totfact> 0.10920222E+05</totfact>
</mgrwt>
</event>
<event>
 5    1  0.6046470E+000  0.9285168E+02  0.7546771E-02  0.1296089E+00
          1   -1    0    0  501    0  0.00000000000E+00  0.00000000000E+00  0.49336614674E+02  0.49336614674E+02  0.00000000000E+00 0. -1.
         -1   -1    0    0    0  501 -0.00000000000E+00 -0.00000000000E+00 -0.43686795115E+02  0.43686795115E+02  0.00000000000E+00 0.  1.
         23    2    1    2    0    0  0.00000000000E+00  0.00000000000E+00  0.56498195595E+01  0.93023409789E+02  0.92851679078E+02 0.  0.
        -13    1    3    3    0    0 -0.98989335895E+01  0.23427351448E+02  0.41736529550E+02  0.48875020010E+02  0.00000000000E+00 0. -1.
         13    1    3    3    0    0  0.98989335895E+01 -0.23427351448E+02 -0.36086709991E+02  0.44148389779E+02  0.00000000000E+00 0.  1.
<mgrwt>
<rscale>  0 0.92851679E+02</rscale>
<asrwt>0</asrwt>
<pdfrwt beam="1">  1        1 0.75902483E-02 0.92851679E+02</pdfrwt>
<pdfrwt beam="2">  1       -1 0.67210455E-02 0.92851679E+02</pdfrwt>
<totfact> 0.88920452E+04</totfact>
</mgrwt>
</event>
<event>
 5    1  0.6046470E+000  0.9087977E+02  0.7546771E-02  0.1300735E+00
         -2   -1    0    0    0  501 -0.00000000000E+00  0.00000000000E+00  0.89646885490E+01  0.89646885490E+01  0.00000000000E+00 0.  1.
          2   -1    0    0  501    0  0.00000000000E+00 -0.00000000000E+00 -0.23032400080E+03  0.23032400080E+03  0.00000000000E+00 0. -1.
         23    2    1    2    0    0  0.00000000000E+00  0.00000000000E+00 -0.22135931225E+03  0.23928868935E+03  0.90879765240E+02 0.  0.
        -13    1    3    3    0    0 -0.36153571487E+02  0.22865321037E+02 -0.70326515403E+02  0.82314776353E+02  0.00000000000E+00 0.  1.
         13    1    3    3    0    0  0.36153571487E+02 -0.22865321037E+02 -0.15103279685E+03  0.15697391299E+03  0.00000000000E+00 0. -1.
<mgrwt>
<rscale>  0 0.90879765E+02</rscale>
<asrwt>0</asrwt>
<pdfrwt beam="2">  1        2 0.35434456E-01 0.90879765E+02</pdfrwt>
<pdfrwt beam="1">  1       -2 0.13791831E-02 0.90879765E+02</pdfrwt>
<totfact> 0.16429084E+05</totfact>
</mgrwt>
</event>
<event>
 5    1  0.6046470E+000  0.9058691E+02  0.7546771E-02  0.1301437E+00
          3   -1    0    0  501    0  0.00000000000E+00  0.00000000000E+00  0.29995458233E+02  0.29995458233E+02  0.00000000000E+00 0. -1.
         -3   -1    0    0    0  501 -0.00000000000E+00 -0.00000000000E+00 -0.68393593383E+02  0.68393593383E+02  0.00000000000E+00 0.  1.
         23    2    1    2    0    0  0.00000000000E+00  0.00000000000E+00 -0.38398135151E+02  0.98389051616E+02  0.90586912382E+02 0.  0.
        -13    1    3    3    0    0 -0.21887959919E+02  0.25657282001E+02 -0.52037507031E+02  0.62010330165E+02  0.00000000000E+00 0.  1.
         13    1    3    3    0    0  0.21887959919E+02 -0.25657282001E+02  0.13639371881E+02  0.36378721451E+02  0.00000000000E+00 0. -1.
<mgrwt>
<rscale>  0 0.90586912E+02</rscale>
<asrwt>0</asrwt>
<pdfrwt beam="1">  1        3 0.46146860E-02 0.90586912E+02</pdfrwt>
<pdfrwt beam="2">  1       -3 0.10522091E-01 0.90586912E+02</pdfrwt>
<totfact> 0.35411624E+04</totfact>
</mgrwt>
</event>
<event>
 5    1  0.6046470E+000  0.8605339E+02  0.7546771E-02  0.1312701E+00
          1   -1    0    0  501    0  0.00000000000E+00  0.00000000000E+00  0.26624281553E+02  0.26624281553E+02  0.00000000000E+00 0. -1.
         -1   -1    0    0    0  501 -0.00000000000E+00 -0.00000000000E+00 -0.69534134192E+02  0.69534134192E+02  0.00000000000E+00 0.  1.
         23    2    1    2    0    0  0.00000000000E+00  0.00000000000E+00 -0.42909852639E+02  0.96158415746E+02  0.86053387297E+02 0.  0.
        -13    1    3    3    0    0  0.30412365659E+02  0.30423090717E+02 -0.20443094347E+02  0.47627686698E+02  0.00000000000E+00 0.  1.
         13    1    3    3    0    0 -0.30412365659E+02 -0.30423090717E+02 -0.22466758291E+02  0.48530729047E+02  0.00000000000E+00 0. -1.
<mgrwt>
<rscale>  0 0.86053387E+02</rscale>
<asrwt>0</asrwt>
<pdfrwt beam="1">  1        1 0.40960434E-02 0.86053387E+02</pdfrwt>
<pdfrwt beam="2">  1       -1 0.10697559E-01 0.86053387E+02</pdfrwt>
<totfact> 0.10037188E+05</totfact>
</mgrwt>
</event>
<event>
 5    1  0.6046470E+000  0.9105084E+02  0.7546771E-02  0.1300327E+00
         -3   -1    0    0    0  501 -0.00000000000E+00  0.00000000000E+00  0.34365388335E+02  0.34365388335E+02  0.00000000000E+00 0.  1.
          3   -1    0    0  501    0  0.00000000000E+00 -0.00000000000E+00 -0.60309624067E+02  0.60309624067E+02  0.00000000000E+00 0. -1.
         23    2    1    2    0    0  0.00000000000E+00  0.00000000000E+00 -0.25944235733E+02  0.94675012402E+02  0.91050835282E+02 0.  0.
        -13    1    3    3    0    0 -0.30901302853E+02 -0.19732985839E+02  0.15088765894E+02  0.39647851194E+02  0.00000000000E+00 0.  1.
         13    1    3    3    0    0  0.30901302853E+02  0.19732985839E+02 -0.41033001627E+02  0.55027161208E+02  0.00000000000E+00 0. -1.
<mgrwt>
<rscale>  0 0.91050835E+02</rscale>
<asrwt>0</asrwt>
<pdfrwt beam="2">  1        3 0.92784037E-02 0.91050835E+02</pdfrwt>
<pdfrwt beam="1">  1       -3 0.52869828E-02 0.91050835E+02</pdfrwt>
<totfact> 0.35203640E+04</totfact>
</mgrwt>
</event>
<event>
 5    1  0.6046470E+000  0.9267330E+02  0.7546771E-02  0.1296504E+00
         -2   -1    0    0    0  501 -0.00000000000E+00  0.00000000000E+00  0.30575180745E+02  0.30575180745E+02  0.00000000000E+00 0.  1.
          2   -1    0    0  501    0  0.00000000000E+00 -0.00000000000E+00 -0.70223138427E+02  0.70223138427E+02  0.00000000000E+00 0. -1.
         23    2    1    2    0    0  0.00000000000E+00  0.00000000000E+00 -0.39647957682E+02  0.10079831917E+03  0.92673300360E+02 0.  0.
        -13    1    3    3    0    0  0.69473050128E+01 -0.31792412639E+02  0.16053804429E+02  0.36287011244E+02  0.00000000000E+00 0.  1.
         13    1    3    3    0    0 -0.69473050128E+01  0.31792412639E+02 -0.55701762111E+02  0.64511307928E+02  0.00000000000E+00 0. -1.
<mgrwt>
<rscale>  0 0.92673300E+02</rscale>
<asrwt>0</asrwt>
<pdfrwt beam="2">  1        2 0.10803560E-01 0.92673300E+02</pdfrwt>
<pdfrwt beam="1">  1       -2 0.47038740E-02 0.92673300E+02</pdfrwt>
<totfact> 0.10577730E+05</totfact>
</mgrwt>
</event>
<event>
 5    1  0.6046470E+000  0.9034168E+02  0.7546771E-02  0.1302026E+00
         -2   -1    0    0    0  501 -0.00000000000E+00  0.00000000000E+00  0.70837603941E+01  0.70837603941E+01  0.00000000000E+00 0.  1.
          2   -1    0    0  501    0  0.00000000000E+00 -0.00000000000E+00 -0.28803975654E+03  0.28803975654E+03  0.00000000000E+00 0. -1.
         23    2    1    2    0    0  0.00000000000E+00  0.00000000000E+00 -0.28095599615E+03  0.29512351694E+03  0.90341676303E+02 0.  0.
        -13    1    3    3    0    0 -0.40848666371E+02  0.75753351489E+01 -0.82553717010E+02  0.92418155354E+02  0.00000000000E+00 0.  1.
         13    1    3    3    0    0  0.40848666371E+02 -0.75753351489E+01 -0.19840227914E+03  0.20270536158E+03  0.00000000000E+00 0. -1.
<mgrwt>
<rscale>  0 0.90341676E+02</rscale>
<asrwt>0</asrwt>
<pdfrwt beam="2">  1        2 0.44313809E-01 0.90341676E+02</pdfrwt>
<pdfrwt beam="1">  1       -2 0.10898093E-02 0.90341676E+02</pdfrwt>
<totfact> 0.18135409E+05</totfact>
</mgrwt>
</event>
<event>
 5    1  0.6046470E+000  0.9109949E+02  0.7546771E-02  0.1300211E+00
         -1   -1    0    0    0  501 -0.00000000000E+00  0.00000000000E+00  0.63092289500E+02  0.63092289500E+02  0.00000000000E+00 0. -1.
          1   -1    0    0  501    0  0.00000000000E+00 -0.00000000000E+00 -0.32884832271E+02  0.32884832271E+02  0.00000000000E+00 0.  1.
         23    2    1    2    0    0  0.00000000000E+00  0.00000000000E+00  0.30207457228E+02  0.95977121771E+02  0.91099491937E+02 0.  0.
        -13    1    3    3    0    0  0.21970169545E+02  0.15221831382E+01 -0.26903057683E+02  0.34767512192E+02  0.00000000000E+00 0.  1.
         13    1    3    3    0    0 -0.21970169545E+02 -0.15221831382E+01  0.57110514911E+02  0.61209609579E+02  0.00000000000E+00 0. -1.
<mgrwt>
<rscale>  0 0.91099492E+02</rscale>
<asrwt>0</asrwt>
<pdfrwt beam="2">  1        1 0.50592050E-02 0.91099492E+02</pdfrwt>
<pdfrwt beam="1">  1       -1 0.97065061E-02 0.91099492E+02</pdfrwt>
<totfact> 0.88175559E+04</totfact>
</mgrwt>
</event>
<event>
 5    1  0.6046470E+000  0.9102829E+02  0.7546771E-02  0.1300380E+00
         -2   -1    0    0    0  501 -0.00000000000E+00  0.00000000000E+00  0.29587163116E+02  0.29587163116E+02  0.00000000000E+00 0.  1.
          2   -1    0    0  501    0  0.00000000000E+00 -0.00000000000E+00 -0.70014728193E+02  0.70014728193E+02  0.00000000000E+00 0. -1.
         23    2    1    2    0    0  0.00000000000E+00  0.00000000000E+00 -0.40427565077E+02  0.99601891309E+02  0.91028285353E+02 0.  0.
        -13    1    3    3    0    0 -0.16342218877E+02 -0.34254618195E+02  0.72738249323E+01  0.38643958320E+02  0.00000000000E+00 0.  1.
         13    1    3    3    0    0  0.16342218877E+02  0.34254618195E+02 -0.47701390009E+02  0.60957932989E+02  0.00000000000E+00 0. -1.
<mgrwt>
<rscale>  0 0.91028285E+02</rscale>
<asrwt>0</asrwt>
<pdfrwt beam="2">  1        2 0.10771497E-01 0.91028285E+02</pdfrwt>
<pdfrwt beam="1">  1       -2 0.45518713E-02 0.91028285E+02</pdfrwt>
<totfact> 0.11113219E+05</totfact>
</mgrwt>
</event>
<event>
 5    1  0.6046470E+000  0.9146208E+02  0.7546771E-02  0.1299349E+00
         -1   -1    0    0    0  501 -0.00000000000E+00  0.00000000000E+00  0.58378281473E+02  0.58378281473E+02  0.00000000000E+00 0.  1.
          1   -1    0    0  501    0  0.00000000000E+00 -0.00000000000E+00 -0.35823735773E+02  0.35823735773E+02  0.00000000000E+00 0. -1.
         23    2    1    2    0    0  0.00000000000E+00  0.00000000000E+00  0.22554545699E+02  0.94202017246E+02  0.91462082425E+02 0.  0.
        -13    1    3    3    0    0 -0.26955839475E+02 -0.31904819646E+02  0.30457532710E+02  0.51693288706E+02  0.00000000000E+00 0.  1.
         13    1    3    3    0    0  0.26955839475E+02  0.31904819646E+02 -0.79029870106E+01  0.42508728540E+02  0.00000000000E+00 0. -1.
<mgrwt>
<rscale>  0 0.91462082E+02</rscale>
<asrwt>0</asrwt>
<pdfrwt beam="2">  1        1 0.55113440E-02 0.91462082E+02</pdfrwt>
<pdfrwt beam="1">  1       -1 0.89812741E-02 0.91462082E+02</pdfrwt>
<totfact> 0.88356254E+04</totfact>
</mgrwt>
</event>
<event>
 5    1  0.6046470E+000  0.9171803E+02  0.7546771E-02  0.1298744E+00
          2   -1    0    0  501    0  0.00000000000E+00  0.00000000000E+00  0.53960389905E+02  0.53960389905E+02  0.00000000000E+00 0. -1.
         -2   -1    0    0    0  501 -0.00000000000E+00 -0.00000000000E+00 -0.38973943115E+02  0.38973943115E+02  0.00000000000E+00 0.  1.
         23    2    1    2    0    0  0.00000000000E+00  0.00000000000E+00  0.14986446790E+02  0.92934333020E+02  0.91718028034E+02 0.  0.
        -13    1    3    3    0    0  0.32875762652E+02 -0.25380474223E+02 -0.12208520594E+02  0.43290093750E+02  0.00000000000E+00 0.  1.
         13    1    3    3    0    0 -0.32875762652E+02  0.25380474223E+02  0.27194967384E+02  0.49644239271E+02  0.00000000000E+00 0. -1.
<mgrwt>
<rscale>  0 0.91718028E+02</rscale>
<asrwt>0</asrwt>
<pdfrwt beam="1">  1        2 0.83015984E-02 0.91718028E+02</pdfrwt>
<pdfrwt beam="2">  1       -2 0.59959913E-02 0.91718028E+02</pdfrwt>
<totfact> 0.10139972E+05</totfact>
</mgrwt>
</event>
<event>
 5    1  0.6046470E+000  0.8973644E+02  0.7546771E-02  0.1303491E+00
         -1   -1    0    0    0  501 -0.00000000000E+00  0.00000000000E+00  0.82485202954E+01  0.82485202954E+01  0.00000000000E+00 0.  1.
          1   -1    0    0  501    0  0.00000000000E+00 -0.00000000000E+00 -0.24406283007E+03  0.24406283007E+03  0.00000000000E+00 0. -1.
         23    2    1    2    0    0  0.00000000000E+00  0.00000000000E+00 -0.23581430977E+03  0.25231135036E+03  0.89736440918E+02 0.  0.
        -13    1    3    3    0    0 -0.44079721818E+02 -0.14125671687E+01 -0.94697484877E+02  0.10446353844E+03  0.00000000000E+00 0.  1.
         13    1    3    3    0    0  0.44079721818E+02  0.14125671687E+01 -0.14111682489E+03  0.14784781192E+03  0.00000000000E+00 0. -1.
<mgrwt>
<rscale>  0 0.89736441E+02</rscale>
<asrwt>0</asrwt>
<pdfrwt beam="2">  1        1 0.37548122E-01 0.89736441E+02</pdfrwt>
<pdfrwt beam="1">  1       -1 0.12690033E-02 0.89736441E+02</pdfrwt>
<totfact> 0.12843590E+05</totfact>
</mgrwt>
</event>
<event>
 5    1  0.6046470E+000  0.9174104E+02  0.7546771E-02  0.1298689E+00
         -1   -1    0    0    0  501 -0.00000000000E+00  0.00000000000E+00  0.68002275105E+01  0.68002275105E+01  0.00000000000E+00 0.  1.
          1   -1    0    0  501    0  0.00000000000E+00 -0.00000000000E+00 -0.30941678576E+03  0.30941678576E+03  0.00000000000E+00 0. -1.
         23    2    1    2    0    0  0.00000000000E+00  0.00000000000E+00 -0.30261655825E+03  0.31621701327E+03  0.91741038554E+02 0.  0.
        -13    1    3    3    0    0  0.44352885810E+02  0.60985301448E+01 -0.18573083989E+03  0.19105055728E+03  0.00000000000E+00 0. -1.
         13    1    3    3    0    0 -0.44352885810E+02 -0.60985301448E+01 -0.11688571836E+03  0.12516645599E+03  0.00000000000E+00 0.  1.
<mgrwt>
<rscale>  0 0.91741039E+02</rscale>
<asrwt>0</asrwt>
<pdfrwt beam="2">  1        1 0.47602586E-01 0.91741039E+02</pdfrwt>
<pdfrwt beam="1">  1       -1 0.10461888E-02 0.91741039E+02</pdfrwt>
<totfact> 0.12677326E+05</totfact>
</mgrwt>
</event>
<event>
 5    1  0.6046470E+000  0.9102243E+02  0.7546771E-02  0.1300394E+00
          1   -1    0    0  501    0  0.00000000000E+00  0.00000000000E+00  0.92845438386E+01  0.92845438386E+01  0.00000000000E+00 0. -1.
         -1   -1    0    0    0  501 -0.00000000000E+00 -0.00000000000E+00 -0.22308805723E+03  0.22308805723E+03  0.00000000000E+00 0.  1.
         23    2    1    2    0    0  0.00000000000E+00  0.00000000000E+00 -0.21380351339E+03  0.23237260107E+03  0.91022433438E+02 0.  0.
        -13    1    3    3    0    0 -0.95738349777E+01 -0.34759946587E+02 -0.35998749900E+02  0.50949211940E+02  0.00000000000E+00 0. -1.
         13    1    3    3    0    0  0.95738349777E+01  0.34759946587E+02 -0.17780476349E+03  0.18142338913E+03  0.00000000000E+00 0.  1.
<mgrwt>
<rscale>  0 0.91022433E+02</rscale>
<asrwt>0</asrwt>
<pdfrwt beam="1">  1        1 0.14283913E-02 0.91022433E+02</pdfrwt>
<pdfrwt beam="2">  1       -1 0.34321241E-01 0.91022433E+02</pdfrwt>
<totfact> 0.67499515E+04</totfact>
</mgrwt>
</event>
<event>
 5    1  0.6046470E+000  0.8664349E+02  0.7546771E-02  0.1311190E+00
         -3   -1    0    0    0  501 -0.00000000000E+00  0.00000000000E+00  0.44751655044E+02  0.44751655044E+02  0.00000000000E+00 0.  1.
          3   -1    0    0  501    0  0.00000000000E+00 -0.00000000000E+00 -0.41937528424E+02  0.41937528424E+02  0.00000000000E+00 0. -1.
         23    2    1    2    0    0  0.00000000000E+00  0.00000000000E+00  0.28141266198E+01  0.86689183468E+02  0.86643494977E+02 0.  0.
        -13    1    3    3    0    0 -0.18666636975E+02 -0.91677284891E+00  0.40510788980E+02  0.44613986957E+02  0.00000000000E+00 0.  1.
         13    1    3    3    0    0  0.18666636975E+02  0.91677284891E+00 -0.37696662360E+02  0.42075196512E+02  0.00000000000E+00 0. -1.
<mgrwt>
<rscale>  0 0.86643495E+02</rscale>
<asrwt>0</asrwt>
<pdfrwt beam="2">  1        3 0.64519275E-02 0.86643495E+02</pdfrwt>
<pdfrwt beam="1">  1       -3 0.68848700E-02 0.86643495E+02</pdfrwt>
<totfact> 0.40985554E+04</totfact>
</mgrwt>
</event>
<event>
 5    1  0.6046470E+000  0.5695293E+02  0.7546771E-02  0.1411083E+00
          1   -1    0    0  501    0  0.00000000000E+00  0.00000000000E+00  0.11773886126E+03  0.11773886126E+03  0.00000000000E+00 0. -1.
         -1   -1    0    0    0  501 -0.00000000000E+00 -0.00000000000E+00 -0.68873524767E+01  0.68873524767E+01  0.00000000000E+00 0.  1.
         23    2    1    2    0    0  0.00000000000E+00  0.00000000000E+00  0.11085150878E+03  0.12462621373E+03  0.56952929255E+02 0.  0.
        -13    1    3    3    0    0  0.22820506478E+02 -0.46752172584E+01  0.91267086044E+02  0.94192962408E+02  0.00000000000E+00 0. -1.
         13    1    3    3    0    0 -0.22820506478E+02  0.46752172584E+01  0.19584422738E+02  0.30433251327E+02  0.00000000000E+00 0.  1.
<mgrwt>
<rscale>  0 0.56952929E+02</rscale>
<asrwt>0</asrwt>
<pdfrwt beam="1">  1        1 0.18113669E-01 0.56952929E+02</pdfrwt>
<pdfrwt beam="2">  1       -1 0.10595928E-02 0.56952929E+02</pdfrwt>
<totfact> 0.37107058E+05</totfact>
</mgrwt>
</event>
<event>
 5    1  0.6046470E+000  0.8833739E+02  0.7546771E-02  0.1306929E+00
         -3   -1    0    0    0  501 -0.00000000000E+00  0.00000000000E+00  0.12321422875E+03  0.12321422875E+03  0.00000000000E+00 0.  1.
          3   -1    0    0  501    0  0.00000000000E+00 -0.00000000000E+00 -0.15833185718E+02  0.15833185718E+02  0.00000000000E+00 0. -1.
         23    2    1    2    0    0  0.00000000000E+00  0.00000000000E+00  0.10738104303E+03  0.13904741447E+03  0.88337393372E+02 0.  0.
        -13    1    3    3    0    0  0.12772440369E+02 -0.42182778141E+02  0.49141610940E+02  0.66010756172E+02  0.00000000000E+00 0. -1.
         13    1    3    3    0    0 -0.12772440369E+02  0.42182778141E+02  0.58239432091E+02  0.73036658296E+02  0.00000000000E+00 0.  1.
<mgrwt>
<rscale>  0 0.88337393E+02</rscale>
<asrwt>0</asrwt>
<pdfrwt beam="2">  1        3 0.24358748E-02 0.88337393E+02</pdfrwt>
<pdfrwt beam="1">  1       -3 0.18956035E-01 0.88337393E+02</pdfrwt>
<totfact> 0.34846887E+04</totfact>
</mgrwt>
</event>
<event>
 5    1  0.6046470E+000  0.8882461E+02  0.7546771E-02  0.1305723E+00
          2   -1    0    0  501    0  0.00000000000E+00  0.00000000000E+00  0.15171129668E+02  0.15171129668E+02  0.00000000000E+00 0. -1.
         -2   -1    0    0    0  501 -0.00000000000E+00 -0.00000000000E+00 -0.13001356357E+03  0.13001356357E+03  0.00000000000E+00 0.  1.
         23    2    1    2    0    0  0.00000000000E+00  0.00000000000E+00 -0.11484243390E+03  0.14518469324E+03  0.88824605409E+02 0.  0.
        -13    1    3    3    0    0  0.10101799251E+02  0.25206481965E+02 -0.11486300857E+03  0.11802933457E+03  0.00000000000E+00 0.  1.
         13    1    3    3    0    0 -0.10101799251E+02 -0.25206481965E+02  0.20574665935E-01  0.27155358670E+02  0.00000000000E+00 0. -1.
<mgrwt>
<rscale>  0 0.88824605E+02</rscale>
<asrwt>0</asrwt>
<pdfrwt beam="1">  1        2 0.23340200E-02 0.88824605E+02</pdfrwt>
<pdfrwt beam="2">  1       -2 0.20002087E-01 0.88824605E+02</pdfrwt>
<totfact> 0.78437122E+04</totfact>
</mgrwt>
</event>
<event>
 5    1  0.6046470E+000  0.9080052E+02  0.7546771E-02  0.1300925E+00
          1   -1    0    0  501    0  0.00000000000E+00  0.00000000000E+00  0.54547046039E+02  0.54547046039E+02  0.00000000000E+00 0. -1.
         -1   -1    0    0    0  501 -0.00000000000E+00 -0.00000000000E+00 -0.37787264049E+02  0.37787264049E+02  0.00000000000E+00 0.  1.
         23    2    1    2    0    0  0.00000000000E+00  0.00000000000E+00  0.16759781989E+02  0.92334310088E+02  0.90800520522E+02 0.  0.
        -13    1    3    3    0    0  0.96769272330E+01 -0.34599574129E+02  0.36605009701E+02  0.51290351781E+02  0.00000000000E+00 0. -1.
         13    1    3    3    0    0 -0.96769272330E+01  0.34599574129E+02 -0.19845227712E+02  0.41043958307E+02  0.00000000000E+00 0.  1.
<mgrwt>
<rscale>  0 0.90800521E+02</rscale>
<asrwt>0</asrwt>
<pdfrwt beam="1">  1        1 0.83918533E-02 0.90800521E+02</pdfrwt>
<pdfrwt beam="2">  1       -1 0.58134252E-02 0.90800521E+02</pdfrwt>
<totfact> 0.96096754E+04</totfact>
</mgrwt>
</event>
<event>
 5    1  0.6046470E+000  0.9140537E+02  0.7546771E-02  0.1299484E+00
          1   -1    0    0  501    0  0.00000000000E+00  0.00000000000E+00  0.43960986294E+02  0.43960986294E+02  0.00000000000E+00 0. -1.
         -1   -1    0    0    0  501 -0.00000000000E+00 -0.00000000000E+00 -0.47513387374E+02  0.47513387374E+02  0.00000000000E+00 0.  1.
         23    2    1    2    0    0  0.00000000000E+00  0.00000000000E+00 -0.35524010799E+01  0.91474373667E+02  0.91405369013E+02 0.  0.
        -13    1    3    3    0    0 -0.18649830198E+02  0.21504227510E+02 -0.37559135991E+02  0.47126814698E+02  0.00000000000E+00 0.  1.
         13    1    3    3    0    0  0.18649830198E+02 -0.21504227510E+02  0.34006734911E+02  0.44347558969E+02  0.00000000000E+00 0. -1.
<mgrwt>
<rscale>  0 0.91405369E+02</rscale>
<asrwt>0</asrwt>
<pdfrwt beam="1">  1        1 0.67632287E-02 0.91405369E+02</pdfrwt>
<pdfrwt beam="2">  1       -1 0.73097519E-02 0.91405369E+02</pdfrwt>
<totfact> 0.91321934E+04</totfact>
</mgrwt>
</event>
<event>
 5    1  0.6046470E+000  0.9073809E+02  0.7546771E-02  0.1301074E+00
          2   -1    0    0  501    0  0.00000000000E+00  0.00000000000E+00  0.77335337383E+01  0.77335337383E+01  0.00000000000E+00 0.  1.
         -2   -1    0    0    0  501 -0.00000000000E+00 -0.00000000000E+00 -0.26615908196E+03  0.26615908196E+03  0.00000000000E+00 0. -1.
         23    2    1    2    0    0  0.00000000000E+00  0.00000000000E+00 -0.25842554822E+03  0.27389261570E+03  0.90738089910E+02 0.  0.
        -13    1    3    3    0    0 -0.26480135586E+02  0.35226639202E+02 -0.16175610832E+03  0.16765187822E+03  0.00000000000E+00 0. -1.
         13    1    3    3    0    0  0.26480135586E+02 -0.35226639202E+02 -0.96669439902E+02  0.10624073748E+03  0.00000000000E+00 0.  1.
<mgrwt>
<rscale>  0 0.90738090E+02</rscale>
<asrwt>0</asrwt>
<pdfrwt beam="1">  1        2 0.11897744E-02 0.90738090E+02</pdfrwt>
<pdfrwt beam="2">  1       -2 0.40947554E-01 0.90738090E+02</pdfrwt>
<totfact> 0.55090912E+04</totfact>
</mgrwt>
</event>
<event>
 5    1  0.6046470E+000  0.9255097E+02  0.7546771E-02  0.1296789E+00
         -2   -1    0    0    0  501 -0.00000000000E+00  0.00000000000E+00  0.63841045151E+02  0.63841045151E+02  0.00000000000E+00 0.  1.
          2   -1    0    0  501    0  0.00000000000E+00 -0.00000000000E+00 -0.33543007297E+02  0.33543007297E+02  0.00000000000E+00 0. -1.
         23    2    1    2    0    0  0.00000000000E+00  0.00000000000E+00  0.30298037854E+02  0.97384052447E+02  0.92550972838E+02 0.  0.
        -13    1    3    3    0    0 -0.22576297733E+02  0.39422599789E+02  0.24417527804E+02  0.51575636279E+02  0.00000000000E+00 0.  1.
         13    1    3    3    0    0  0.22576297733E+02 -0.39422599789E+02  0.58805100495E+01  0.45808416169E+02  0.00000000000E+00 0. -1.
<mgrwt>
<rscale>  0 0.92550973E+02</rscale>
<asrwt>0</asrwt>
<pdfrwt beam="2">  1        2 0.51604626E-02 0.92550973E+02</pdfrwt>
<pdfrwt beam="1">  1       -2 0.98216993E-02 0.92550973E+02</pdfrwt>
<totfact> 0.87188721E+04</totfact>
</mgrwt>
</event>
<event>
 5    1  0.6046470E+000  0.9174724E+02  0.7546771E-02  0.1298675E+00
         -1   -1    0    0    0  501 -0.00000000000E+00  0.00000000000E+00  0.16811849177E+02  0.16811849177E+02  0.00000000000E+00 0.  1.
          1   -1    0    0  501    0  0.00000000000E+00 -0.00000000000E+00 -0.12517296171E+03  0.12517296171E+03  0.00000000000E+00 0. -1.
         23    2    1    2    0    0  0.00000000000E+00  0.00000000000E+00 -0.10836111253E+03  0.14198481088E+03  0.91747238722E+02 0.  0.
        -13    1    3    3    0    0  0.65487625235E+00  0.45100955411E+02 -0.41245291183E+02  0.61120365564E+02  0.00000000000E+00 0. -1.
         13    1    3    3    0    0 -0.65487625235E+00 -0.45100955411E+02 -0.67115821347E+02  0.80864445321E+02  0.00000000000E+00 0.  1.
<mgrwt>
<rscale>  0 0.91747239E+02</rscale>
<asrwt>0</asrwt>
<pdfrwt beam="2">  1        1 0.19257380E-01 0.91747239E+02</pdfrwt>
<pdfrwt beam="1">  1       -1 0.25864382E-02 0.91747239E+02</pdfrwt>
<totfact> 0.10671690E+05</totfact>
</mgrwt>
</event>
<event>
 5    1  0.6046470E+000  0.9033085E+02  0.7546771E-02  0.1302052E+00
         -2   -1    0    0    0  501 -0.00000000000E+00  0.00000000000E+00  0.41698017642E+02  0.41698017642E+02  0.00000000000E+00 0.  1.
          2   -1    0    0  501    0  0.00000000000E+00 -0.00000000000E+00 -0.48921161734E+02  0.48921161734E+02  0.00000000000E+00 0. -1.
         23    2    1    2    0    0  0.00000000000E+00  0.00000000000E+00 -0.72231440916E+01  0.90619179376E+02  0.90330846671E+02 0.  0.
        -13    1    3    3    0    0 -0.44684645392E+02 -0.65714835736E+01 -0.34948610769E+01  0.45300286799E+02  0.00000000000E+00 0. -1.
         13    1    3    3    0    0  0.44684645392E+02  0.65714835736E+01 -0.37282830148E+01  0.45318892577E+02  0.00000000000E+00 0.  1.
<mgrwt>
<rscale>  0 0.90330847E+02</rscale>
<asrwt>0</asrwt>
<pdfrwt beam="2">  1        2 0.75263325E-02 0.90330847E+02</pdfrwt>
<pdfrwt beam="1">  1       -2 0.64150797E-02 0.90330847E+02</pdfrwt>
<totfact> 0.10321050E+05</totfact>
</mgrwt>
</event>
<event>
 5    1  0.6046470E+000  0.9471848E+02  0.7546771E-02  0.1291811E+00
          2   -1    0    0  501    0  0.00000000000E+00  0.00000000000E+00  0.21105814162E+02  0.21105814162E+02  0.00000000000E+00 0. -1.
         -2   -1    0    0    0  501 -0.00000000000E+00 -0.00000000000E+00 -0.10626918784E+03  0.10626918784E+03  0.00000000000E+00 0.  1.
         23    2    1    2    0    0  0.00000000000E+00  0.00000000000E+00 -0.85163373678E+02  0.12737500200E+03  0.94718482456E+02 0.  0.
        -13    1    3    3    0    0 -0.12696545940E+02 -0.25701426622E+02 -0.93276870439E+02  0.97582478797E+02  0.00000000000E+00 0.  1.
         13    1    3    3    0    0  0.12696545940E+02  0.25701426622E+02  0.81134967613E+01  0.29792523205E+02  0.00000000000E+00 0. -1.
<mgrwt>
<rscale>  0 0.94718482E+02</rscale>
<asrwt>0</asrwt>
<pdfrwt beam="1">  1        2 0.32470483E-02 0.94718482E+02</pdfrwt>
<pdfrwt beam="2">  1       -2 0.16349106E-01 0.94718482E+02</pdfrwt>
<totfact> 0.71240771E+04</totfact>
</mgrwt>
</event>
<event>
 5    1  0.6046470E+000  0.9014265E+02  0.7546771E-02  0.1302507E+00
          1   -1    0    0  501    0  0.00000000000E+00  0.00000000000E+00  0.49090234370E+02  0.49090234370E+02  0.00000000000E+00 0. -1.
         -1   -1    0    0    0  501 -0.00000000000E+00 -0.00000000000E+00 -0.41381431822E+02  0.41381431822E+02  0.00000000000E+00 0.  1.
         23    2    1    2    0    0  0.00000000000E+00  0.00000000000E+00  0.77088025477E+01  0.90471666192E+02  0.90142646660E+02 0.  0.
        -13    1    3    3    0    0  0.35828990108E+02 -0.27330063425E+02  0.29706831833E+01  0.45160534292E+02  0.00000000000E+00 0.  1.
         13    1    3    3    0    0 -0.35828990108E+02  0.27330063425E+02  0.47381193644E+01  0.45311131900E+02  0.00000000000E+00 0. -1.
<mgrwt>
<rscale>  0 0.90142647E+02</rscale>
<asrwt>0</asrwt>
<pdfrwt beam="1">  1        1 0.75523438E-02 0.90142647E+02</pdfrwt>
<pdfrwt beam="2">  1       -1 0.63663741E-02 0.90142647E+02</pdfrwt>
<totfact> 0.96532897E+04</totfact>
</mgrwt>
</event>
<event>
 5    1  0.6046470E+000  0.9948762E+02  0.7546771E-02  0.1281377E+00
          4   -1    0    0  501    0  0.00000000000E+00  0.00000000000E+00  0.22651654932E+02  0.22651654932E+02  0.00000000000E+00 0. -1.
         -4   -1    0    0    0  501 -0.00000000000E+00 -0.00000000000E+00 -0.10923910530E+03  0.10923910530E+03  0.00000000000E+00 0.  1.
         23    2    1    2    0    0  0.00000000000E+00  0.00000000000E+00 -0.86587450369E+02  0.13189076023E+03  0.99487617688E+02 0.  0.
        -13    1    3    3    0    0  0.43137741415E+02 -0.17524890297E+02 -0.20086017715E+02  0.50709314943E+02  0.00000000000E+00 0. -1.
         13    1    3    3    0    0 -0.43137741415E+02  0.17524890297E+02 -0.66501432654E+02  0.81181445290E+02  0.00000000000E+00 0.  1.
<mgrwt>
<rscale>  0 0.99487618E+02</rscale>
<asrwt>0</asrwt>
<pdfrwt beam="1">  1        4 0.34848700E-02 0.99487618E+02</pdfrwt>
<pdfrwt beam="2">  1       -4 0.16806016E-01 0.99487618E+02</pdfrwt>
<totfact> 0.19420715E+04</totfact>
</mgrwt>
</event>
<event>
 5    1  0.6046470E+000  0.9014891E+02  0.7546771E-02  0.1302491E+00
          3   -1    0    0  501    0  0.00000000000E+00  0.00000000000E+00  0.54590248879E+02  0.54590248879E+02  0.00000000000E+00 0.  1.
         -3   -1    0    0    0  501 -0.00000000000E+00 -0.00000000000E+00 -0.37217389313E+02  0.37217389313E+02  0.00000000000E+00 0. -1.
         23    2    1    2    0    0  0.00000000000E+00  0.00000000000E+00  0.17372859566E+02  0.91807638192E+02  0.90148911147E+02 0.  0.
        -13    1    3    3    0    0  0.47707765779E+01 -0.28297953841E+02 -0.26711895908E+02  0.39205355295E+02  0.00000000000E+00 0. -1.
         13    1    3    3    0    0 -0.47707765779E+01  0.28297953841E+02  0.44084755475E+02  0.52602282898E+02  0.00000000000E+00 0.  1.
<mgrwt>
<rscale>  0 0.90148911E+02</rscale>
<asrwt>0</asrwt>
<pdfrwt beam="1">  1        3 0.83984998E-02 0.90148911E+02</pdfrwt>
<pdfrwt beam="2">  1       -3 0.57257522E-02 0.90148911E+02</pdfrwt>
<totfact> 0.36395138E+04</totfact>
</mgrwt>
</event>
<event>
 5    1  0.6046470E+000  0.8840908E+02  0.7546771E-02  0.1306751E+00
         -4   -1    0    0    0  501 -0.00000000000E+00  0.00000000000E+00  0.13905139404E+03  0.13905139404E+03  0.00000000000E+00 0.  1.
          4   -1    0    0  501    0  0.00000000000E+00 -0.00000000000E+00 -0.14052655910E+02  0.14052655910E+02  0.00000000000E+00 0. -1.
         23    2    1    2    0    0  0.00000000000E+00  0.00000000000E+00  0.12499873813E+03  0.15310404995E+03  0.88409080850E+02 0.  0.
        -13    1    3    3    0    0  0.14927783389E+02 -0.17804377115E+02  0.12762414905E+03  0.12972184851E+03  0.00000000000E+00 0.  1.
         13    1    3    3    0    0 -0.14927783389E+02  0.17804377115E+02 -0.26254109215E+01  0.23382201434E+02  0.00000000000E+00 0. -1.
<mgrwt>
<rscale>  0 0.88409081E+02</rscale>
<asrwt>0</asrwt>
<pdfrwt beam="2">  1        4 0.21619472E-02 0.88409081E+02</pdfrwt>
<pdfrwt beam="1">  1       -4 0.21392521E-01 0.88409081E+02</pdfrwt>
<totfact> 0.25543432E+04</totfact>
</mgrwt>
</event>
<event>
 5    1  0.6046470E+000  0.9244926E+02  0.7546771E-02  0.1297027E+00
          1   -1    0    0  501    0  0.00000000000E+00  0.00000000000E+00  0.99378324105E+01  0.99378324105E+01  0.00000000000E+00 0. -1.
         -1   -1    0    0    0  501 -0.00000000000E+00 -0.00000000000E+00 -0.21500831433E+03  0.21500831433E+03  0.00000000000E+00 0.  1.
         23    2    1    2    0    0  0.00000000000E+00  0.00000000000E+00 -0.20507048192E+03  0.22494614674E+03  0.92449263807E+02 0.  0.
        -13    1    3    3    0    0 -0.17128547130E+02  0.35760377657E+02 -0.16034706019E+03  0.16517678847E+03  0.00000000000E+00 0.  1.
         13    1    3    3    0    0  0.17128547130E+02 -0.35760377657E+02 -0.44723421725E+02  0.59769358268E+02  0.00000000000E+00 0. -1.
<mgrwt>
<rscale>  0 0.92449264E+02</rscale>
<asrwt>0</asrwt>
<pdfrwt beam="1">  1        1 0.15288973E-02 0.92449264E+02</pdfrwt>
<pdfrwt beam="2">  1       -1 0.33078201E-01 0.92449264E+02</pdfrwt>
<totfact> 0.65549111E+04</totfact>
</mgrwt>
</event>
<event>
 5    1  0.6046470E+000  0.9101760E+02  0.7546771E-02  0.1300406E+00
         -2   -1    0    0    0  501 -0.00000000000E+00  0.00000000000E+00  0.10655234687E+03  0.10655234687E+03  0.00000000000E+00 0.  1.
          2   -1    0    0  501    0  0.00000000000E+00 -0.00000000000E+00 -0.19436934098E+02  0.19436934098E+02  0.00000000000E+00 0. -1.
         23    2    1    2    0    0  0.00000000000E+00  0.00000000000E+00  0.87115412774E+02  0.12598928097E+03  0.91017601465E+02 0.  0.
        -13    1    3    3    0    0 -0.44295238776E+02 -0.37733546858E+01  0.30084053549E+02  0.53678269922E+02  0.00000000000E+00 0.  1.
         13    1    3    3    0    0  0.44295238776E+02  0.37733546858E+01  0.57031359224E+02  0.72311011048E+02  0.00000000000E+00 0. -1.
<mgrwt>
<rscale>  0 0.91017601E+02</rscale>
<asrwt>0</asrwt>
<pdfrwt beam="2">  1        2 0.29902976E-02 0.91017601E+02</pdfrwt>
<pdfrwt beam="1">  1       -2 0.16392668E-01 0.91017601E+02</pdfrwt>
<totfact> 0.78632686E+04</totfact>
</mgrwt>
</event>
<event>
 5    1  0.6046470E+000  0.8217445E+02  0.7546771E-02  0.1322991E+00
         -2   -1    0    0    0  501 -0.00000000000E+00  0.00000000000E+00  0.18610631656E+03  0.18610631656E+03  0.00000000000E+00 0.  1.
          2   -1    0    0  501    0  0.00000000000E+00 -0.00000000000E+00 -0.90709451647E+01  0.90709451647E+01  0.00000000000E+00 0. -1.
         23    2    1    2    0    0  0.00000000000E+00  0.00000000000E+00  0.17703537140E+03  0.19517726173E+03  0.82174453265E+02 0.  0.
        -13    1    3    3    0    0 -0.80005799186E+01  0.28823634030E+02  0.21617927779E+02  0.36907261605E+02  0.00000000000E+00 0. -1.
         13    1    3    3    0    0  0.80005799186E+01 -0.28823634030E+02  0.15541744362E+03  0.15827000012E+03  0.00000000000E+00 0.  1.
<mgrwt>
<rscale>  0 0.82174453E+02</rscale>
<asrwt>0</asrwt>
<pdfrwt beam="2">  1        2 0.13955302E-02 0.82174453E+02</pdfrwt>
<pdfrwt beam="1">  1       -2 0.28631738E-01 0.82174453E+02</pdfrwt>
<totfact> 0.83693879E+04</totfact>
</mgrwt>
</event>
<event>
 5    1  0.6046470E+000  0.9573674E+02  0.7546771E-02  0.1289525E+00
         -2   -1    0    0    0  501 -0.00000000000E+00  0.00000000000E+00  0.24190697260E+02  0.24190697260E+02  0.00000000000E+00 0.  1.
          2   -1    0    0  501    0  0.00000000000E+00 -0.00000000000E+00 -0.94721565019E+02  0.94721565019E+02  0.00000000000E+00 0. -1.
         23    2    1    2    0    0  0.00000000000E+00  0.00000000000E+00 -0.70530867759E+02  0.11891226228E+03  0.95736737012E+02 0.  0.
        -13    1    3    3    0    0 -0.27757267731E+02  0.20703135810E+02 -0.76315889799E+02  0.83804539137E+02  0.00000000000E+00 0. -1.
         13    1    3    3    0    0  0.27757267731E+02 -0.20703135810E+02  0.57850220403E+01  0.35107723142E+02  0.00000000000E+00 0.  1.
<mgrwt>
<rscale>  0 0.95736737E+02</rscale>
<asrwt>0</asrwt>
<pdfrwt beam="2">  1        2 0.14572548E-01 0.95736737E+02</pdfrwt>
<pdfrwt beam="1">  1       -2 0.37216457E-02 0.95736737E+02</pdfrwt>
<totfact> 0.10541570E+05</totfact>
</mgrwt>
</event>
<event>
 5    1  0.6046470E+000  0.9063312E+02  0.7546771E-02  0.1301326E+00
          2   -1    0    0  501    0  0.00000000000E+00  0.00000000000E+00  0.21822485695E+03  0.21822485695E+03  0.00000000000E+00 0. -1.
         -2   -1    0    0    0  501 -0.00000000000E+00 -0.00000000000E+00 -0.94104350145E+01  0.94104350145E+01  0.00000000000E+00 0.  1.
         23    2    1    2    0    0  0.00000000000E+00  0.00000000000E+00  0.20881442193E+03  0.22763529196E+03  0.90633124957E+02 0.  0.
        -13    1    3    3    0    0 -0.40117332504E+02  0.13968560461E+02  0.14404534159E+03  0.15017849873E+03  0.00000000000E+00 0. -1.
         13    1    3    3    0    0  0.40117332504E+02 -0.13968560461E+02  0.64769080346E+02  0.77456793229E+02  0.00000000000E+00 0.  1.
<mgrwt>
<rscale>  0 0.90633125E+02</rscale>
<asrwt>0</asrwt>
<pdfrwt beam="1">  1        2 0.33573051E-01 0.90633125E+02</pdfrwt>
<pdfrwt beam="2">  1       -2 0.14477594E-02 0.90633125E+02</pdfrwt>
<totfact> 0.16225062E+05</totfact>
</mgrwt>
</event>
<event>
 5    1  0.6046470E+000  0.8984938E+02  0.7546771E-02  0.1303217E+00
         -2   -1    0    0    0  501 -0.00000000000E+00  0.00000000000E+00  0.53869551454E+02  0.53869551454E+02  0.00000000000E+00 0. -1.
          2   -1    0    0  501    0  0.00000000000E+00 -0.00000000000E+00 -0.37465093157E+02  0.37465093157E+02  0.00000000000E+00 0.  1.
         23    2    1    2    0    0  0.00000000000E+00  0.00000000000E+00  0.16404458298E+02  0.91334644611E+02  0.89849379821E+02 0.  0.
        -13    1    3    3    0    0 -0.26261831920E+02  0.36437477925E+02  0.72627490418E+01  0.45498583901E+02  0.00000000000E+00 0. -1.
         13    1    3    3    0    0  0.26261831920E+02 -0.36437477925E+02  0.91417092560E+01  0.45836060710E+02  0.00000000000E+00 0.  1.
<mgrwt>
<rscale>  0 0.89849380E+02</rscale>
<asrwt>0</asrwt>
<pdfrwt beam="2">  1        2 0.57638605E-02 0.89849380E+02</pdfrwt>
<pdfrwt beam="1">  1       -2 0.82876233E-02 0.89849380E+02</pdfrwt>
<totfact> 0.97865054E+04</totfact>
</mgrwt>
</event>
<event>
 5    1  0.6046470E+000  0.9481185E+02  0.7546771E-02  0.1291600E+00
         -2   -1    0    0    0  501 -0.00000000000E+00  0.00000000000E+00  0.13966321434E+02  0.13966321434E+02  0.00000000000E+00 0. -1.
          2   -1    0    0  501    0  0.00000000000E+00 -0.00000000000E+00 -0.16091006554E+03  0.16091006554E+03  0.00000000000E+00 0.  1.
         23    2    1    2    0    0  0.00000000000E+00  0.00000000000E+00 -0.14694374411E+03  0.17487638698E+03  0.94811849414E+02 0.  0.
        -13    1    3    3    0    0  0.99640819677E+01  0.40291017196E+02 -0.31223226735E+02  0.51937836727E+02  0.00000000000E+00 0.  1.
         13    1    3    3    0    0 -0.99640819677E+01 -0.40291017196E+02 -0.11572051737E+03  0.12293855025E+03  0.00000000000E+00 0. -1.
<mgrwt>
<rscale>  0 0.94811849E+02</rscale>
<asrwt>0</asrwt>
<pdfrwt beam="2">  1        2 0.24755394E-01 0.94811849E+02</pdfrwt>
<pdfrwt beam="1">  1       -2 0.21486649E-02 0.94811849E+02</pdfrwt>
<totfact> 0.12878323E+05</totfact>
</mgrwt>
</event>
<event>
 5    1  0.6046470E+000  0.9082781E+02  0.7546771E-02  0.1300859E+00
         -1   -1    0    0    0  501 -0.00000000000E+00  0.00000000000E+00  0.47193256815E+02  0.47193256815E+02  0.00000000000E+00 0.  1.
          1   -1    0    0  501    0  0.00000000000E+00 -0.00000000000E+00 -0.43701636851E+02  0.43701636851E+02  0.00000000000E+00 0. -1.
         23    2    1    2    0    0  0.00000000000E+00  0.00000000000E+00  0.34916199642E+01  0.90894893667E+02  0.90827805680E+02 0.  0.
        -13    1    3    3    0    0 -0.28259571705E+01 -0.45096432461E+02  0.63042064543E+01  0.45622552249E+02  0.00000000000E+00 0.  1.
         13    1    3    3    0    0  0.28259571705E+01  0.45096432461E+02 -0.28125864900E+01  0.45272341418E+02  0.00000000000E+00 0. -1.
<mgrwt>
<rscale>  0 0.90827806E+02</rscale>
<asrwt>0</asrwt>
<pdfrwt beam="2">  1        1 0.67233287E-02 0.90827806E+02</pdfrwt>
<pdfrwt beam="1">  1       -1 0.72605011E-02 0.90827806E+02</pdfrwt>
<totfact> 0.92881869E+04</totfact>
</mgrwt>
</event>
<event>
 5    1  0.6046470E+000  0.8831637E+02  0.7546771E-02  0.1306981E+00
         -2   -1    0    0    0  501 -0.00000000000E+00  0.00000000000E+00  0.13757889427E+03  0.13757889427E+03  0.00000000000E+00 0.  1.
          2   -1    0    0  501    0  0.00000000000E+00 -0.00000000000E+00 -0.14173287583E+02  0.14173287583E+02  0.00000000000E+00 0. -1.
         23    2    1    2    0    0  0.00000000000E+00  0.00000000000E+00  0.12340560668E+03  0.15175218185E+03  0.88316368443E+02 0.  0.
        -13    1    3    3    0    0 -0.41321416957E+02  0.59519808487E+01  0.36977508000E+02  0.55769361420E+02  0.00000000000E+00 0. -1.
         13    1    3    3    0    0  0.41321416957E+02 -0.59519808487E+01  0.86428098684E+02  0.95982820429E+02  0.00000000000E+00 0.  1.
<mgrwt>
<rscale>  0 0.88316368E+02</rscale>
<asrwt>0</asrwt>
<pdfrwt beam="2">  1        2 0.21805059E-02 0.88316368E+02</pdfrwt>
<pdfrwt beam="1">  1       -2 0.21165983E-01 0.88316368E+02</pdfrwt>
<totfact> 0.78065393E+04</totfact>
</mgrwt>
</event>
<event>
 5    1  0.6046470E+000  0.9147359E+02  0.7546771E-02  0.1299322E+00
         -1   -1    0    0    0  501 -0.00000000000E+00  0.00000000000E+00  0.62640252593E+02  0.62640252593E+02  0.00000000000E+00 0.  1.
          1   -1    0    0  501    0  0.00000000000E+00 -0.00000000000E+00 -0.33394730349E+02  0.33394730349E+02  0.00000000000E+00 0. -1.
         23    2    1    2    0    0  0.00000000000E+00  0.00000000000E+00  0.29245522244E+02  0.96034982942E+02  0.91473588414E+02 0.  0.
        -13    1    3    3    0    0  0.16775943301E+02 -0.67678526349E+01  0.58724846879E+02  0.61447894544E+02  0.00000000000E+00 0.  1.
         13    1    3    3    0    0 -0.16775943301E+02  0.67678526349E+01 -0.29479324635E+02  0.34587088398E+02  0.00000000000E+00 0. -1.
<mgrwt>
<rscale>  0 0.91473588E+02</rscale>
<asrwt>0</asrwt>
<pdfrwt beam="2">  1        1 0.51376509E-02 0.91473588E+02</pdfrwt>
<pdfrwt beam="1">  1       -1 0.96369619E-02 0.91473588E+02</pdfrwt>
<totfact> 0.87360396E+04</totfact>
</mgrwt>
</event>
<event>
 5    1  0.6046470E+000  0.9184053E+02  0.7546771E-02  0.1298455E+00
         -2   -1    0    0    0  501 -0.00000000000E+00  0.00000000000E+00  0.28367213192E+02  0.28367213192E+02  0.00000000000E+00 0.  1.
          2   -1    0    0  501    0  0.00000000000E+00 -0.00000000000E+00 -0.74334788741E+02  0.74334788741E+02  0.00000000000E+00 0. -1.
         23    2    1    2    0    0  0.00000000000E+00  0.00000000000E+00 -0.45967575548E+02  0.10270200193E+03  0.91840531353E+02 0.  0.
        -13    1    3    3    0    0 -0.65291568344E+01 -0.15300449477E+02  0.24879200211E+02  0.29928385294E+02  0.00000000000E+00 0.  1.
         13    1    3    3    0    0  0.65291568344E+01  0.15300449477E+02 -0.70846775759E+02  0.72773616639E+02  0.00000000000E+00 0. -1.
<mgrwt>
<rscale>  0 0.91840531E+02</rscale>
<asrwt>0</asrwt>
<pdfrwt beam="2">  1        2 0.11436121E-01 0.91840531E+02</pdfrwt>
<pdfrwt beam="1">  1       -2 0.43641866E-02 0.91840531E+02</pdfrwt>
<totfact> 0.11023314E+05</totfact>
</mgrwt>
</event>
<event>
 5    1  0.6046470E+000  0.9030479E+02  0.7546771E-02  0.1302115E+00
         -2   -1    0    0    0  501 -0.00000000000E+00  0.00000000000E+00  0.42864068360E+02  0.42864068360E+02  0.00000000000E+00 0.  1.
          2   -1    0    0  501    0  0.00000000000E+00 -0.00000000000E+00 -0.47562888076E+02  0.47562888076E+02  0.00000000000E+00 0. -1.
         23    2    1    2    0    0  0.00000000000E+00  0.00000000000E+00 -0.46988197157E+01  0.90426956436E+02  0.90304792472E+02 0.  0.
        -13    1    3    3    0    0  0.42634246034E+02  0.14083108594E+02 -0.71230386854E+01  0.45461528380E+02  0.00000000000E+00 0.  1.
         13    1    3    3    0    0 -0.42634246034E+02 -0.14083108594E+02  0.24242189697E+01  0.44965428055E+02  0.00000000000E+00 0. -1.
<mgrwt>
<rscale>  0 0.90304792E+02</rscale>
<asrwt>0</asrwt>
<pdfrwt beam="2">  1        2 0.73173674E-02 0.90304792E+02</pdfrwt>
<pdfrwt beam="1">  1       -2 0.65944720E-02 0.90304792E+02</pdfrwt>
<totfact> 0.10254527E+05</totfact>
</mgrwt>
</event>
<event>
 5    1  0.6046470E+000  0.9061009E+02  0.7546771E-02  0.1301381E+00
         -3   -1    0    0    0  501 -0.00000000000E+00  0.00000000000E+00  0.50094056156E+02  0.50094056156E+02  0.00000000000E+00 0.  1.
          3   -1    0    0  501    0  0.00000000000E+00 -0.00000000000E+00 -0.40973861898E+02  0.40973861898E+02  0.00000000000E+00 0. -1.
         23    2    1    2    0    0  0.00000000000E+00  0.00000000000E+00  0.91201942579E+01  0.91067918054E+02  0.90610086389E+02 0.  0.
        -13    1    3    3    0    0 -0.34340207152E+02  0.21757363256E+02 -0.15538803661E+02  0.43521110996E+02  0.00000000000E+00 0.  1.
         13    1    3    3    0    0  0.34340207152E+02 -0.21757363256E+02  0.24658997919E+02  0.47546807058E+02  0.00000000000E+00 0. -1.
<mgrwt>
<rscale>  0 0.90610086E+02</rscale>
<asrwt>0</asrwt>
<pdfrwt beam="2">  1        3 0.63036711E-02 0.90610086E+02</pdfrwt>
<pdfrwt beam="1">  1       -3 0.77067778E-02 0.90610086E+02</pdfrwt>
<totfact> 0.35952449E+04</totfact>
</mgrwt>
</event>
<event>
 5    1  0.6046470E+000  0.8915536E+02  0.7546771E-02  0.1304910E+00
          1   -1    0    0  501    0  0.00000000000E+00  0.00000000000E+00  0.76238212304E+02  0.76238212304E+02  0.00000000000E+00 0.  1.
         -1   -1    0    0    0  501 -0.00000000000E+00 -0.00000000000E+00 -0.26065268347E+02  0.26065268347E+02  0.00000000000E+00 0. -1.
         23    2    1    2    0    0  0.00000000000E+00  0.00000000000E+00  0.50172943957E+02  0.10230348065E+03  0.89155357932E+02 0.  0.
        -13    1    3    3    0    0 -0.17109192147E+02  0.15258944743E+01  0.72288223207E+02  0.74301009578E+02  0.00000000000E+00 0.  1.
         13    1    3    3    0    0  0.17109192147E+02 -0.15258944743E+01 -0.22115279250E+02  0.28002471073E+02  0.00000000000E+00 0. -1.
<mgrwt>
<rscale>  0 0.89155358E+02</rscale>
<asrwt>0</asrwt>
<pdfrwt beam="1">  1        1 0.11728956E-01 0.89155358E+02</pdfrwt>
<pdfrwt beam="2">  1       -1 0.40100413E-02 0.89155358E+02</pdfrwt>
<totfact> 0.10632595E+05</totfact>
</mgrwt>
</event>
<event>
 5    1  0.6046470E+000  0.8619196E+02  0.7546771E-02  0.1312345E+00
         -1   -1    0    0    0  501 -0.00000000000E+00  0.00000000000E+00  0.36206377581E+02  0.36206377581E+02  0.00000000000E+00 0.  1.
          1   -1    0    0  501    0  0.00000000000E+00 -0.00000000000E+00 -0.51296586487E+02  0.51296586487E+02  0.00000000000E+00 0. -1.
         23    2    1    2    0    0  0.00000000000E+00  0.00000000000E+00 -0.15090208906E+02  0.87502964068E+02  0.86191962014E+02 0.  0.
        -13    1    3    3    0    0 -0.12688685597E+02 -0.15574782579E+02 -0.46252277024E+02  0.50426676714E+02  0.00000000000E+00 0. -1.
         13    1    3    3    0    0  0.12688685597E+02  0.15574782579E+02  0.31162068117E+02  0.37076287353E+02  0.00000000000E+00 0.  1.
<mgrwt>
<rscale>  0 0.86191962E+02</rscale>
<asrwt>0</asrwt>
<pdfrwt beam="2">  1        1 0.78917825E-02 0.86191962E+02</pdfrwt>
<pdfrwt beam="1">  1       -1 0.55702119E-02 0.86191962E+02</pdfrwt>
<totfact> 0.11003191E+05</totfact>
</mgrwt>
</event>
<event>
 5    1  0.6046470E+000  0.5763974E+02  0.7546771E-02  0.1408012E+00
          2   -1    0    0  501    0  0.00000000000E+00  0.00000000000E+00  0.69474372319E+01  0.69474372319E+01  0.00000000000E+00 0. -1.
         -2   -1    0    0    0  501 -0.00000000000E+00 -0.00000000000E+00 -0.11955269275E+03  0.11955269275E+03  0.00000000000E+00 0.  1.
         23    2    1    2    0    0  0.00000000000E+00  0.00000000000E+00 -0.11260525552E+03  0.12650012998E+03  0.57639737292E+02 0.  0.
        -13    1    3    3    0    0  0.64672256408E+01  0.22468384343E+02 -0.93283383957E+02  0.96168825639E+02  0.00000000000E+00 0. -1.
         13    1    3    3    0    0 -0.64672256408E+01 -0.22468384343E+02 -0.19321871561E+02  0.30331304342E+02  0.00000000000E+00 0.  1.
<mgrwt>
<rscale>  0 0.57639737E+02</rscale>
<asrwt>0</asrwt>
<pdfrwt beam="1">  1        2 0.10688366E-02 0.57639737E+02</pdfrwt>
<pdfrwt beam="2">  1       -2 0.18392721E-01 0.57639737E+02</pdfrwt>
<totfact> 0.23719539E+05</totfact>
</mgrwt>
</event>
<event>
 5    1  0.6046470E+000  0.9486634E+02  0.7546771E-02  0.1291477E+00
          3   -1    0    0  501    0  0.00000000000E+00  0.00000000000E+00  0.74289381562E+02  0.74289381562E+02  0.00000000000E+00 0. -1.
         -3   -1    0    0    0  501 -0.00000000000E+00 -0.00000000000E+00 -0.30285693626E+02  0.30285693626E+02  0.00000000000E+00 0.  1.
         23    2    1    2    0    0  0.00000000000E+00  0.00000000000E+00  0.44003687936E+02  0.10457507519E+03  0.94866336488E+02 0.  0.
        -13    1    3    3    0    0  0.35530792368E+02  0.69214666632E+01  0.55791103308E+02  0.66505572063E+02  0.00000000000E+00 0. -1.
         13    1    3    3    0    0 -0.35530792368E+02 -0.69214666632E+01 -0.11787415372E+02  0.38069503126E+02  0.00000000000E+00 0.  1.
<mgrwt>
<rscale>  0 0.94866336E+02</rscale>
<asrwt>0</asrwt>
<pdfrwt beam="1">  1        3 0.11429136E-01 0.94866336E+02</pdfrwt>
<pdfrwt beam="2">  1       -3 0.46593375E-02 0.94866336E+02</pdfrwt>
<totfact> 0.30809970E+04</totfact>
</mgrwt>
</event>
<event>
 5    1  0.6046470E+000  0.9036567E+02  0.7546771E-02  0.1301969E+00
          2   -1    0    0  501    0  0.00000000000E+00  0.00000000000E+00  0.26123840196E+03  0.26123840196E+03  0.00000000000E+00 0.  1.
         -2   -1    0    0    0  501 -0.00000000000E+00 -0.00000000000E+00 -0.78146571458E+01  0.78146571458E+01  0.00000000000E+00 0. -1.
         23    2    1    2    0    0  0.00000000000E+00  0.00000000000E+00  0.25342374482E+03  0.26905305911E+03  0.90365669247E+02 0.  0.
        -13    1    3    3    0    0 -0.24177519421E+02  0.30902573034E+02  0.19341897578E+03  0.19735861182E+03  0.00000000000E+00 0.  1.
         13    1    3    3    0    0  0.24177519421E+02 -0.30902573034E+02  0.60004769032E+02  0.71694447289E+02  0.00000000000E+00 0. -1.
<mgrwt>
<rscale>  0 0.90365669E+02</rscale>
<asrwt>0</asrwt>
<pdfrwt beam="1">  1        2 0.40190517E-01 0.90365669E+02</pdfrwt>
<pdfrwt beam="2">  1       -2 0.12022551E-02 0.90365669E+02</pdfrwt>
<totfact> 0.17474862E+05</totfact>
</mgrwt>
</event>
<event>
 5    1  0.6046470E+000  0.9036529E+02  0.7546771E-02  0.1301969E+00
         -1   -1    0    0    0  501 -0.00000000000E+00  0.00000000000E+00  0.58334003355E+01  0.58334003355E+01  0.00000000000E+00 0.  1.
          1   -1    0    0  501    0  0.00000000000E+00 -0.00000000000E+00 -0.34996252076E+03  0.34996252076E+03  0.00000000000E+00 0. -1.
         23    2    1    2    0    0  0.00000000000E+00  0.00000000000E+00 -0.34412912043E+03  0.35579592110E+03  0.90365291701E+02 0.  0.
        -13    1    3    3    0    0  0.43411030030E+02  0.38255741549E+01 -0.12509346782E+03  0.13246708359E+03  0.00000000000E+00 0.  1.
         13    1    3    3    0    0 -0.43411030030E+02 -0.38255741549E+01 -0.21903565261E+03  0.22332883750E+03  0.00000000000E+00 0. -1.
<mgrwt>
<rscale>  0 0.90365292E+02</rscale>
<asrwt>0</asrwt>
<pdfrwt beam="2">  1        1 0.53840420E-01 0.90365292E+02</pdfrwt>
<pdfrwt beam="1">  1       -1 0.89744567E-03 0.90365292E+02</pdfrwt>
<totfact> 0.13499911E+05</totfact>
</mgrwt>
</event>
<event>
 5    1  0.6046470E+000  0.9043707E+02  0.7546771E-02  0.1301797E+00
         -3   -1    0    0    0  501 -0.00000000000E+00  0.00000000000E+00  0.56950757463E+02  0.56950757463E+02  0.00000000000E+00 0.  1.
          3   -1    0    0  501    0  0.00000000000E+00 -0.00000000000E+00 -0.35903222062E+02  0.35903222062E+02  0.00000000000E+00 0. -1.
         23    2    1    2    0    0  0.00000000000E+00  0.00000000000E+00  0.21047535401E+02  0.92853979525E+02  0.90437065228E+02 0.  0.
        -13    1    3    3    0    0 -0.10332525054E+02  0.77851471503E+01  0.55010062285E+02  0.56510853318E+02  0.00000000000E+00 0.  1.
         13    1    3    3    0    0  0.10332525054E+02 -0.77851471503E+01 -0.33962526884E+02  0.36343126207E+02  0.00000000000E+00 0. -1.
<mgrwt>
<rscale>  0 0.90437065E+02</rscale>
<asrwt>0</asrwt>
<pdfrwt beam="2">  1        3 0.55235726E-02 0.90437065E+02</pdfrwt>
<pdfrwt beam="1">  1       -3 0.87616550E-02 0.90437065E+02</pdfrwt>
<totfact> 0.35999789E+04</totfact>
</mgrwt>
</event>
<event>
 5    1  0.6046470E+000  0.9100269E+02  0.7546771E-02  0.1300442E+00
          4   -1    0    0  501    0  0.00000000000E+00  0.00000000000E+00  0.17804610928E+03  0.17804610928E+03  0.00000000000E+00 0.  1.
         -4   -1    0    0    0  501 -0.00000000000E+00 -0.00000000000E+00 -0.11628294199E+02  0.11628294199E+02  0.00000000000E+00 0. -1.
         23    2    1    2    0    0  0.00000000000E+00  0.00000000000E+00  0.16641781509E+03  0.18967440348E+03  0.91002693139E+02 0.  0.
        -13    1    3    3    0    0 -0.24106012065E+02  0.36769360227E+02  0.10763021911E+03  0.11626413778E+03  0.00000000000E+00 0.  1.
         13    1    3    3    0    0  0.24106012065E+02 -0.36769360227E+02  0.58787595976E+02  0.73410265698E+02  0.00000000000E+00 0. -1.
<mgrwt>
<rscale>  0 0.91002693E+02</rscale>
<asrwt>0</asrwt>
<pdfrwt beam="1">  1        4 0.27391707E-01 0.91002693E+02</pdfrwt>
<pdfrwt beam="2">  1       -4 0.17889685E-02 0.91002693E+02</pdfrwt>
<totfact> 0.21937630E+04</totfact>
</mgrwt>
</event>
<event>
 5    1  0.6046470E+000  0.9029722E+02  0.7546771E-02  0.1302134E+00
          2   -1    0    0  501    0  0.00000000000E+00  0.00000000000E+00  0.66383603922E+02  0.66383603922E+02  0.00000000000E+00 0. -1.
         -2   -1    0    0    0  501 -0.00000000000E+00 -0.00000000000E+00 -0.30706330972E+02  0.30706330972E+02  0.00000000000E+00 0.  1.
         23    2    1    2    0    0  0.00000000000E+00  0.00000000000E+00  0.35677272950E+02  0.97089934895E+02  0.90297218410E+02 0.  0.
        -13    1    3    3    0    0  0.37502391269E+02 -0.10914023264E+02  0.42188454495E+02  0.57492703428E+02  0.00000000000E+00 0. -1.
         13    1    3    3    0    0 -0.37502391269E+02  0.10914023264E+02 -0.65111815451E+01  0.39597231467E+02  0.00000000000E+00 0.  1.
<mgrwt>
<rscale>  0 0.90297218E+02</rscale>
<asrwt>0</asrwt>
<pdfrwt beam="1">  1        2 0.10212862E-01 0.90297218E+02</pdfrwt>
<pdfrwt beam="2">  1       -2 0.47240510E-02 0.90297218E+02</pdfrwt>
<totfact> 0.11201613E+05</totfact>
</mgrwt>
</event>
<event>
 5    1  0.6046470E+000  0.9067783E+02  0.7546771E-02  0.1301218E+00
          1   -1    0    0  501    0  0.00000000000E+00  0.00000000000E+00  0.13077863091E+03  0.13077863091E+03  0.00000000000E+00 0. -1.
         -1   -1    0    0    0  501 -0.00000000000E+00 -0.00000000000E+00 -0.15718296700E+02  0.15718296700E+02  0.00000000000E+00 0.  1.
         23    2    1    2    0    0  0.00000000000E+00  0.00000000000E+00  0.11506033421E+03  0.14649692761E+03  0.90677832411E+02 0.  0.
        -13    1    3    3    0    0 -0.23401174327E+02  0.29892470121E+02  0.97576987786E+02  0.10470168707E+03  0.00000000000E+00 0. -1.
         13    1    3    3    0    0  0.23401174327E+02 -0.29892470121E+02  0.17483346429E+02  0.41795240544E+02  0.00000000000E+00 0.  1.
<mgrwt>
<rscale>  0 0.90677832E+02</rscale>
<asrwt>0</asrwt>
<pdfrwt beam="1">  1        1 0.20119789E-01 0.90677832E+02</pdfrwt>
<pdfrwt beam="2">  1       -1 0.24181996E-02 0.90677832E+02</pdfrwt>
<totfact> 0.11101889E+05</totfact>
</mgrwt>
</event>
<event>
 5    1  0.6046470E+000  0.9498186E+02  0.7546771E-02  0.1291217E+00
         -2   -1    0    0    0  501 -0.00000000000E+00  0.00000000000E+00  0.99034317180E+02  0.99034317180E+02  0.00000000000E+00 0. -1.
          2   -1    0    0  501    0  0.00000000000E+00 -0.00000000000E+00 -0.22773805819E+02  0.22773805819E+02  0.00000000000E+00 0.  1.
         23    2    1    2    0    0  0.00000000000E+00  0.00000000000E+00  0.76260511361E+02  0.12180812300E+03  0.94981857401E+02 0.  0.
        -13    1    3    3    0    0  0.28487322214E+02 -0.35147850042E+02  0.56647553128E+02  0.72497201083E+02  0.00000000000E+00 0. -1.
         13    1    3    3    0    0 -0.28487322214E+02  0.35147850042E+02  0.19612958234E+02  0.49310921916E+02  0.00000000000E+00 0.  1.
<mgrwt>
<rscale>  0 0.94981857E+02</rscale>
<asrwt>0</asrwt>
<pdfrwt beam="2">  1        2 0.35036625E-02 0.94981857E+02</pdfrwt>
<pdfrwt beam="1">  1       -2 0.15236049E-01 0.94981857E+02</pdfrwt>
<totfact> 0.72295842E+04</totfact>
</mgrwt>
</event>
<event>
 5    1  0.6046470E+000  0.9165254E+02  0.7546771E-02  0.1298898E+00
          1   -1    0    0  501    0  0.00000000000E+00  0.00000000000E+00  0.81347432988E+01  0.81347432988E+01  0.00000000000E+00 0. -1.
         -1   -1    0    0    0  501 -0.00000000000E+00 -0.00000000000E+00 -0.25815773284E+03  0.25815773284E+03  0.00000000000E+00 0.  1.
         23    2    1    2    0    0  0.00000000000E+00  0.00000000000E+00 -0.25002298954E+03  0.26629247614E+03  0.91652537057E+02 0.  0.
        -13    1    3    3    0    0  0.26152743892E+02  0.27185323392E+02 -0.20061140315E+03  0.20412727132E+03  0.00000000000E+00 0.  1.
         13    1    3    3    0    0 -0.26152743892E+02 -0.27185323392E+02 -0.49411586390E+02  0.62165204822E+02  0.00000000000E+00 0. -1.
<mgrwt>
<rscale>  0 0.91652537E+02</rscale>
<asrwt>0</asrwt>
<pdfrwt beam="1">  1        1 0.12514988E-02 0.91652537E+02</pdfrwt>
<pdfrwt beam="2">  1       -1 0.39716580E-01 0.91652537E+02</pdfrwt>
<totfact> 0.63189223E+04</totfact>
</mgrwt>
</event>
<event>
 5    1  0.6046470E+000  0.7995959E+02  0.7546771E-02  0.1329166E+00
          2   -1    0    0  501    0  0.00000000000E+00  0.00000000000E+00  0.47073501778E+02  0.47073501778E+02  0.00000000000E+00 0. -1.
         -2   -1    0    0    0  501 -0.00000000000E+00 -0.00000000000E+00 -0.33955070070E+02  0.33955070070E+02  0.00000000000E+00 0.  1.
         23    2    1    2    0    0  0.00000000000E+00  0.00000000000E+00  0.13118431708E+02  0.81028571848E+02  0.79959591077E+02 0.  0.
        -13    1    3    3    0    0  0.38106664848E+02  0.43516155318E+01  0.17994113629E+02  0.42365582598E+02  0.00000000000E+00 0. -1.
         13    1    3    3    0    0 -0.38106664848E+02 -0.43516155318E+01 -0.48756819207E+01  0.38662989250E+02  0.00000000000E+00 0.  1.
<mgrwt>
<rscale>  0 0.79959591E+02</rscale>
<asrwt>0</asrwt>
<pdfrwt beam="1">  1        2 0.72420772E-02 0.79959591E+02</pdfrwt>
<pdfrwt beam="2">  1       -2 0.52238569E-02 0.79959591E+02</pdfrwt>
<totfact> 0.14417726E+05</totfact>
</mgrwt>
</event>
<event>
 5    1  0.6046470E+000  0.9164566E+02  0.7546771E-02  0.1298915E+00
          2   -1    0    0  501    0  0.00000000000E+00  0.00000000000E+00  0.14323944587E+03  0.14323944587E+03  0.00000000000E+00 0. -1.
         -2   -1    0    0    0  501 -0.00000000000E+00 -0.00000000000E+00 -0.14658894501E+02  0.14658894501E+02  0.00000000000E+00 0.  1.
         23    2    1    2    0    0  0.00000000000E+00  0.00000000000E+00  0.12858055136E+03  0.15789834037E+03  0.91645663843E+02 0.  0.
        -13    1    3    3    0    0 -0.97615297732E+01 -0.23819820686E+02  0.12960381005E+03  0.13213560799E+03  0.00000000000E+00 0. -1.
         13    1    3    3    0    0  0.97615297732E+01  0.23819820686E+02 -0.10232586818E+01  0.25762732374E+02  0.00000000000E+00 0.  1.
<mgrwt>
<rscale>  0 0.91645664E+02</rscale>
<asrwt>0</asrwt>
<pdfrwt beam="1">  1        2 0.22036837E-01 0.91645664E+02</pdfrwt>
<pdfrwt beam="2">  1       -2 0.22552146E-02 0.91645664E+02</pdfrwt>
<totfact> 0.13573774E+05</totfact>
</mgrwt>
</event>
<event>
 5    1  0.6046470E+000  0.8979874E+02  0.7546771E-02  0.1303340E+00
         -1   -1    0    0    0  501 -0.00000000000E+00  0.00000000000E+00  0.10423057825E+03  0.10423057825E+03  0.00000000000E+00 0.  1.
          1   -1    0    0  501    0  0.00000000000E+00 -0.00000000000E+00 -0.19341288077E+02  0.19341288077E+02  0.00000000000E+00 0. -1.
         23    2    1    2    0    0  0.00000000000E+00  0.00000000000E+00  0.84889290174E+02  0.12357186633E+03  0.89798744765E+02 0.  0.
        -13    1    3    3    0    0  0.41320206799E+02 -0.10310439466E+02  0.62016656545E+02  0.75231179313E+02  0.00000000000E+00 0.  1.
         13    1    3    3    0    0 -0.41320206799E+02  0.10310439466E+02  0.22872633629E+02  0.48340687014E+02  0.00000000000E+00 0. -1.
<mgrwt>
<rscale>  0 0.89798745E+02</rscale>
<asrwt>0</asrwt>
<pdfrwt beam="2">  1        1 0.29755828E-02 0.89798745E+02</pdfrwt>
<pdfrwt beam="1">  1       -1 0.16035473E-01 0.89798745E+02</pdfrwt>
<totfact> 0.83968864E+04</totfact>
</mgrwt>
</event>
<event>
 5    1  0.6046470E+000  0.1026964E+03  0.7546771E-02  0.1274726E+00
         -2   -1    0    0    0  501 -0.00000000000E+00  0.00000000000E+00  0.12399149460E+02  0.12399149460E+02  0.00000000000E+00 0.  1.
          2   -1    0    0  501    0  0.00000000000E+00 -0.00000000000E+00 -0.21264683979E+03  0.21264683979E+03  0.00000000000E+00 0. -1.
         23    2    1    2    0    0  0.00000000000E+00  0.00000000000E+00 -0.20024769033E+03  0.22504598925E+03  0.10269644490E+03 0.  0.
        -13    1    3    3    0    0  0.21034279695E+02 -0.29790886522E+02 -0.17933824997E+03  0.18300859472E+03  0.00000000000E+00 0. -1.
         13    1    3    3    0    0 -0.21034279695E+02  0.29790886522E+02 -0.20909440364E+02  0.42037394524E+02  0.00000000000E+00 0.  1.
<mgrwt>
<rscale>  0 0.10269644E+03</rscale>
<asrwt>0</asrwt>
<pdfrwt beam="2">  1        2 0.32714897E-01 0.10269644E+03</pdfrwt>
<pdfrwt beam="1">  1       -2 0.19075616E-02 0.10269644E+03</pdfrwt>
<totfact> 0.11458881E+05</totfact>
</mgrwt>
</event>
<event>
 5    1  0.6046470E+000  0.9656464E+02  0.7546771E-02  0.1287691E+00
          2   -1    0    0  501    0  0.00000000000E+00  0.00000000000E+00  0.17267222380E+03  0.17267222380E+03  0.00000000000E+00 0. -1.
         -2   -1    0    0    0  501 -0.00000000000E+00 -0.00000000000E+00 -0.13500621860E+02  0.13500621860E+02  0.00000000000E+00 0.  1.
         23    2    1    2    0    0  0.00000000000E+00  0.00000000000E+00  0.15917160194E+03  0.18617284566E+03  0.96564639478E+02 0.  0.
        -13    1    3    3    0    0 -0.34750373202E+02 -0.33174150506E+02  0.70325626135E+02  0.85169280792E+02  0.00000000000E+00 0. -1.
         13    1    3    3    0    0  0.34750373202E+02  0.33174150506E+02  0.88845975807E+02  0.10100356487E+03  0.00000000000E+00 0.  1.
<mgrwt>
<rscale>  0 0.96564639E+02</rscale>
<asrwt>0</asrwt>
<pdfrwt beam="1">  1        2 0.26564956E-01 0.96564639E+02</pdfrwt>
<pdfrwt beam="2">  1       -2 0.20770189E-02 0.96564639E+02</pdfrwt>
<totfact> 0.12559721E+05</totfact>
</mgrwt>
</event>
<event>
 5    1  0.6046470E+000  0.9256246E+02  0.7546771E-02  0.1296762E+00
         -2   -1    0    0    0  501 -0.00000000000E+00  0.00000000000E+00  0.27066515781E+02  0.27066515781E+02  0.00000000000E+00 0. -1.
          2   -1    0    0  501    0  0.00000000000E+00 -0.00000000000E+00 -0.79136616005E+02  0.79136616005E+02  0.00000000000E+00 0.  1.
         23    2    1    2    0    0  0.00000000000E+00  0.00000000000E+00 -0.52070100224E+02  0.10620313179E+03  0.92562464660E+02 0.  0.
        -13    1    3    3    0    0  0.40345892865E+02 -0.21529803852E+02 -0.17871071935E+02  0.49098866964E+02  0.00000000000E+00 0. -1.
         13    1    3    3    0    0 -0.40345892865E+02  0.21529803852E+02 -0.34199028289E+02  0.57104264823E+02  0.00000000000E+00 0.  1.
<mgrwt>
<rscale>  0 0.92562465E+02</rscale>
<asrwt>0</asrwt>
<pdfrwt beam="2">  1        2 0.12174864E-01 0.92562465E+02</pdfrwt>
<pdfrwt beam="1">  1       -2 0.41640794E-02 0.92562465E+02</pdfrwt>
<totfact> 0.10978760E+05</totfact>
</mgrwt>
</event>
<event>
 5    1  0.6046470E+000  0.8853557E+02  0.7546771E-02  0.1306437E+00
          2   -1    0    0  501    0  0.00000000000E+00  0.00000000000E+00  0.18655764343E+02  0.18655764343E+02  0.00000000000E+00 0.  1.
         -2   -1    0    0    0  501 -0.00000000000E+00 -0.00000000000E+00 -0.10504190132E+03  0.10504190132E+03  0.00000000000E+00 0. -1.
         23    2    1    2    0    0  0.00000000000E+00  0.00000000000E+00 -0.86386136972E+02  0.12369766566E+03  0.88535573802E+02 0.  0.
        -13    1    3    3    0    0  0.16143925586E+02 -0.91089607074E+01 -0.99358540013E+02  0.10107283993E+03  0.00000000000E+00 0. -1.
         13    1    3    3    0    0 -0.16143925586E+02  0.91089607074E+01  0.12972403041E+02  0.22624825726E+02  0.00000000000E+00 0.  1.
<mgrwt>
<rscale>  0 0.88535574E+02</rscale>
<asrwt>0</asrwt>
<pdfrwt beam="1">  1        2 0.28701176E-02 0.88535574E+02</pdfrwt>
<pdfrwt beam="2">  1       -2 0.16160293E-01 0.88535574E+02</pdfrwt>
<totfact> 0.84610253E+04</totfact>
</mgrwt>
</event>
<event>
 5    1  0.6046470E+000  0.8921186E+02  0.7546771E-02  0.1304772E+00
         -3   -1    0    0    0  501 -0.00000000000E+00  0.00000000000E+00  0.26218671573E+02  0.26218671573E+02  0.00000000000E+00 0.  1.
          3   -1    0    0  501    0  0.00000000000E+00 -0.00000000000E+00 -0.75888249022E+02  0.75888249022E+02  0.00000000000E+00 0. -1.
         23    2    1    2    0    0  0.00000000000E+00  0.00000000000E+00 -0.49669577450E+02  0.10210692059E+03  0.89211861932E+02 0.  0.
        -13    1    3    3    0    0 -0.29368357069E+02  0.33058320511E+02 -0.18128098947E+02  0.47791012998E+02  0.00000000000E+00 0.  1.
         13    1    3    3    0    0  0.29368357069E+02 -0.33058320511E+02 -0.31541478503E+02  0.54315907597E+02  0.00000000000E+00 0. -1.
<mgrwt>
<rscale>  0 0.89211862E+02</rscale>
<asrwt>0</asrwt>
<pdfrwt beam="2">  1        3 0.11675115E-01 0.89211862E+02</pdfrwt>
<pdfrwt beam="1">  1       -3 0.40336418E-02 0.89211862E+02</pdfrwt>
<totfact> 0.36617578E+04</totfact>
</mgrwt>
</event>
<event>
 5    1  0.6046470E+000  0.9387364E+02  0.7546771E-02  0.1293733E+00
         -2   -1    0    0    0  501 -0.00000000000E+00  0.00000000000E+00  0.59325221155E+01  0.59325221155E+01  0.00000000000E+00 0.  1.
          2   -1    0    0  501    0  0.00000000000E+00 -0.00000000000E+00 -0.37135387573E+03  0.37135387573E+03  0.00000000000E+00 0. -1.
         23    2    1    2    0    0  0.00000000000E+00  0.00000000000E+00 -0.36542135361E+03  0.37728639784E+03  0.93873640186E+02 0.  0.
        -13    1    3    3    0    0 -0.23607878166E+02  0.38830118345E+02 -0.22991658255E+03  0.23436455563E+03  0.00000000000E+00 0.  1.
         13    1    3    3    0    0  0.23607878166E+02 -0.38830118345E+02 -0.13550477106E+03  0.14292184221E+03  0.00000000000E+00 0. -1.
<mgrwt>
<rscale>  0 0.93873640E+02</rscale>
<asrwt>0</asrwt>
<pdfrwt beam="2">  1        2 0.57131376E-01 0.93873640E+02</pdfrwt>
<pdfrwt beam="1">  1       -2 0.91269555E-03 0.93873640E+02</pdfrwt>
<totfact> 0.17982469E+05</totfact>
</mgrwt>
</event>
<event>
 5    1  0.6046470E+000  0.9039051E+02  0.7546771E-02  0.1301909E+00
         -4   -1    0    0    0  501 -0.00000000000E+00  0.00000000000E+00  0.84702418613E+02  0.84702418613E+02  0.00000000000E+00 0.  1.
          4   -1    0    0  501    0  0.00000000000E+00 -0.00000000000E+00 -0.24115143244E+02  0.24115143244E+02  0.00000000000E+00 0. -1.
         23    2    1    2    0    0  0.00000000000E+00  0.00000000000E+00  0.60587275369E+02  0.10881756186E+03  0.90390507422E+02 0.  0.
        -13    1    3    3    0    0 -0.18616357785E+02 -0.33504367797E+02  0.59123508458E+02  0.70460632207E+02  0.00000000000E+00 0.  1.
         13    1    3    3    0    0  0.18616357785E+02  0.33504367797E+02  0.14637669111E+01  0.38356929651E+02  0.00000000000E+00 0. -1.
<mgrwt>
<rscale>  0 0.90390507E+02</rscale>
<asrwt>0</asrwt>
<pdfrwt beam="2">  1        4 0.37100221E-02 0.90390507E+02</pdfrwt>
<pdfrwt beam="1">  1       -4 0.13031141E-01 0.90390507E+02</pdfrwt>
<totfact> 0.26536617E+04</totfact>
</mgrwt>
</event>
<event>
 5    1  0.6046470E+000  0.5983918E+02  0.7546771E-02  0.1398508E+00
          1   -1    0    0  501    0  0.00000000000E+00  0.00000000000E+00  0.25841914437E+02  0.25841914437E+02  0.00000000000E+00 0. -1.
         -1   -1    0    0    0  501 -0.00000000000E+00 -0.00000000000E+00 -0.34640692540E+02  0.34640692540E+02  0.00000000000E+00 0.  1.
         23    2    1    2    0    0  0.00000000000E+00  0.00000000000E+00 -0.87987781036E+01  0.60482606977E+02  0.59839178225E+02 0.  0.
        -13    1    3    3    0    0  0.20792470872E+02 -0.13802684752E+01 -0.26099987439E+02  0.33398223461E+02  0.00000000000E+00 0.  1.
         13    1    3    3    0    0 -0.20792470872E+02  0.13802684752E+01  0.17301209335E+02  0.27084383517E+02  0.00000000000E+00 0. -1.
<mgrwt>
<rscale>  0 0.59839178E+02</rscale>
<asrwt>0</asrwt>
<pdfrwt beam="1">  1        1 0.39756792E-02 0.59839178E+02</pdfrwt>
<pdfrwt beam="2">  1       -1 0.53293373E-02 0.59839178E+02</pdfrwt>
<totfact> 0.27308498E+05</totfact>
</mgrwt>
</event>
<event>
 4    1  0.6046470E+000  0.1667984E+03  0.7546771E-02  0.1181228E+00
         -3   -1    0    0    0  501 -0.00000000000E+00  0.00000000000E+00  0.14880497875E+02  0.14880497875E+02  0.00000000000E+00 0.  1.
          3   -1    0    0  501    0  0.00000000000E+00 -0.00000000000E+00 -0.46741878960E+03  0.46741878960E+03  0.00000000000E+00 0. -1.
        -13    1    1    2    0    0 -0.68343698403E+02  0.10284453498E+02 -0.36123776883E+03  0.36778982684E+03  0.00000000000E+00 0. -1.
         13    1    1    2    0    0  0.68343698403E+02 -0.10284453498E+02 -0.91300522899E+02  0.11450946064E+03  0.00000000000E+00 0.  1.
<mgrwt>
<rscale>  0 0.16679837E+03</rscale>
<asrwt>0</asrwt>
<pdfrwt beam="2">  1        3 0.71910570E-01 0.16679837E+03</pdfrwt>
<pdfrwt beam="1">  1       -3 0.22893078E-02 0.16679837E+03</pdfrwt>
<totfact> 0.34548788E+03</totfact>
</mgrwt>
</event>
<event>
 5    1  0.6046470E+000  0.9105951E+02  0.7546771E-02  0.1300306E+00
          2   -1    0    0  501    0  0.00000000000E+00  0.00000000000E+00  0.32856527298E+03  0.32856527298E+03  0.00000000000E+00 0. -1.
         -2   -1    0    0    0  501 -0.00000000000E+00 -0.00000000000E+00 -0.63091232199E+01  0.63091232199E+01  0.00000000000E+00 0.  1.
         23    2    1    2    0    0  0.00000000000E+00  0.00000000000E+00  0.32225614976E+03  0.33487439620E+03  0.91059514451E+02 0.  0.
        -13    1    3    3    0    0 -0.35222277294E+02 -0.21515701737E+02  0.90444339526E+02  0.99416863717E+02  0.00000000000E+00 0.  1.
         13    1    3    3    0    0  0.35222277294E+02  0.21515701737E+02  0.23181181023E+03  0.23545753248E+03  0.00000000000E+00 0. -1.
<mgrwt>
<rscale>  0 0.91059514E+02</rscale>
<asrwt>0</asrwt>
<pdfrwt beam="1">  1        2 0.50548490E-01 0.91059514E+02</pdfrwt>
<pdfrwt beam="2">  1       -2 0.97063460E-03 0.91059514E+02</pdfrwt>
<totfact> 0.18646604E+05</totfact>
</mgrwt>
</event>
<event>
 5    1  0.6046470E+000  0.9141034E+02  0.7546771E-02  0.1299472E+00
          2   -1    0    0  501    0  0.00000000000E+00  0.00000000000E+00  0.91872092969E+01  0.91872092969E+01  0.00000000000E+00 0. -1.
         -2   -1    0    0    0  501 -0.00000000000E+00 -0.00000000000E+00 -0.22737727470E+03  0.22737727470E+03  0.00000000000E+00 0.  1.
         23    2    1    2    0    0  0.00000000000E+00  0.00000000000E+00 -0.21819006540E+03  0.23656448400E+03  0.91410341035E+02 0.  0.
        -13    1    3    3    0    0 -0.25031606499E+02  0.37853731185E+02 -0.95044562083E+02  0.10532309846E+03  0.00000000000E+00 0. -1.
         13    1    3    3    0    0  0.25031606499E+02 -0.37853731185E+02 -0.12314550332E+03  0.13124138553E+03  0.00000000000E+00 0.  1.
<mgrwt>
<rscale>  0 0.91410341E+02</rscale>
<asrwt>0</asrwt>
<pdfrwt beam="1">  1        2 0.14134167E-02 0.91410341E+02</pdfrwt>
<pdfrwt beam="2">  1       -2 0.34981122E-01 0.91410341E+02</pdfrwt>
<totfact> 0.58432202E+04</totfact>
</mgrwt>
</event>
<event>
 5    1  0.6046470E+000  0.8303676E+02  0.7546771E-02  0.1320648E+00
         -1   -1    0    0    0  501 -0.00000000000E+00  0.00000000000E+00  0.22815944393E+02  0.22815944393E+02  0.00000000000E+00 0.  1.
          1   -1    0    0  501    0  0.00000000000E+00 -0.00000000000E+00 -0.75551373383E+02  0.75551373383E+02  0.00000000000E+00 0. -1.
         23    2    1    2    0    0  0.00000000000E+00  0.00000000000E+00 -0.52735428991E+02  0.98367317776E+02  0.83036761351E+02 0.  0.
        -13    1    3    3    0    0 -0.17520247713E+02  0.19747010644E+02 -0.64328804401E+02  0.69534873157E+02  0.00000000000E+00 0. -1.
         13    1    3    3    0    0  0.17520247713E+02 -0.19747010644E+02  0.11593375410E+02  0.28832444619E+02  0.00000000000E+00 0.  1.
<mgrwt>
<rscale>  0 0.83036761E+02</rscale>
<asrwt>0</asrwt>
<pdfrwt beam="2">  1        1 0.11623288E-01 0.83036761E+02</pdfrwt>
<pdfrwt beam="1">  1       -1 0.35101453E-02 0.83036761E+02</pdfrwt>
<totfact> 0.12888819E+05</totfact>
</mgrwt>
</event>
<event>
 5    1  0.6046470E+000  0.1187613E+03  0.7546771E-02  0.1245155E+00
         -1   -1    0    0    0  501 -0.00000000000E+00  0.00000000000E+00  0.13332619817E+03  0.13332619817E+03  0.00000000000E+00 0.  1.
          1   -1    0    0  501    0  0.00000000000E+00 -0.00000000000E+00 -0.26446871747E+02  0.26446871747E+02  0.00000000000E+00 0. -1.
         23    2    1    2    0    0  0.00000000000E+00  0.00000000000E+00  0.10687932642E+03  0.15977306992E+03  0.11876128769E+03 0.  0.
        -13    1    3    3    0    0 -0.49810682479E+02  0.58343231931E+01  0.10665006963E+02  0.51272661230E+02  0.00000000000E+00 0. -1.
         13    1    3    3    0    0  0.49810682479E+02 -0.58343231931E+01  0.96214319458E+02  0.10850040869E+03  0.00000000000E+00 0.  1.
<mgrwt>
<rscale>  0 0.11876129E+03</rscale>
<asrwt>0</asrwt>
<pdfrwt beam="2">  1        1 0.40687496E-02 0.11876129E+03</pdfrwt>
<pdfrwt beam="1">  1       -1 0.20511722E-01 0.11876129E+03</pdfrwt>
<totfact> 0.38589474E+04</totfact>
</mgrwt>
</event>
<event>
 5    1  0.6046470E+000  0.9189434E+02  0.7546771E-02  0.1298328E+00
          2   -1    0    0  501    0  0.00000000000E+00  0.00000000000E+00  0.28730482031E+03  0.28730482031E+03  0.00000000000E+00 0.  1.
         -2   -1    0    0    0  501 -0.00000000000E+00 -0.00000000000E+00 -0.73480924610E+01  0.73480924610E+01  0.00000000000E+00 0. -1.
         23    2    1    2    0    0  0.00000000000E+00  0.00000000000E+00  0.27995672785E+03  0.29465291277E+03  0.91894338979E+02 0.  0.
        -13    1    3    3    0    0  0.45599536380E+02  0.34497670660E+01  0.15429060939E+03  0.16092486059E+03  0.00000000000E+00 0.  1.
         13    1    3    3    0    0 -0.45599536380E+02 -0.34497670660E+01  0.12566611846E+03  0.13372805218E+03  0.00000000000E+00 0. -1.
<mgrwt>
<rscale>  0 0.91894339E+02</rscale>
<asrwt>0</asrwt>
<pdfrwt beam="1">  1        2 0.44200733E-01 0.91894339E+02</pdfrwt>
<pdfrwt beam="2">  1       -2 0.11304760E-02 0.91894339E+02</pdfrwt>
<totfact> 0.17312172E+05</totfact>
</mgrwt>
</event>
<event>
 5    1  0.6046470E+000  0.8975412E+02  0.7546771E-02  0.1303448E+00
         -1   -1    0    0    0  501 -0.00000000000E+00  0.00000000000E+00  0.14253144605E+03  0.14253144605E+03  0.00000000000E+00 0. -1.
          1   -1    0    0  501    0  0.00000000000E+00 -0.00000000000E+00 -0.14129869463E+02  0.14129869463E+02  0.00000000000E+00 0.  1.
         23    2    1    2    0    0  0.00000000000E+00  0.00000000000E+00  0.12840157659E+03  0.15666131552E+03  0.89754124742E+02 0.  0.
        -13    1    3    3    0    0  0.17766438840E+02  0.34163067402E+02  0.23972461204E+02  0.45359016960E+02  0.00000000000E+00 0. -1.
         13    1    3    3    0    0 -0.17766438840E+02 -0.34163067402E+02  0.10442911539E+03  0.11130229856E+03  0.00000000000E+00 0.  1.
<mgrwt>
<rscale>  0 0.89754125E+02</rscale>
<asrwt>0</asrwt>
<pdfrwt beam="2">  1        1 0.21738262E-02 0.89754125E+02</pdfrwt>
<pdfrwt beam="1">  1       -1 0.21927914E-01 0.89754125E+02</pdfrwt>
<totfact> 0.78820280E+04</totfact>
</mgrwt>
</event>
<event>
 5    1  0.6046470E+000  0.9587790E+02  0.7546771E-02  0.1289211E+00
          2   -1    0    0  501    0  0.00000000000E+00  0.00000000000E+00  0.18402724482E+02  0.18402724482E+02  0.00000000000E+00 0. -1.
         -2   -1    0    0    0  501 -0.00000000000E+00 -0.00000000000E+00 -0.12488057976E+03  0.12488057976E+03  0.00000000000E+00 0.  1.
         23    2    1    2    0    0  0.00000000000E+00  0.00000000000E+00 -0.10647785528E+03  0.14328330424E+03  0.95877899484E+02 0.  0.
        -13    1    3    3    0    0 -0.24701648385E+02 -0.27630467250E+02 -0.77990359441E+01  0.37873989954E+02  0.00000000000E+00 0.  1.
         13    1    3    3    0    0  0.24701648385E+02  0.27630467250E+02 -0.98678819332E+02  0.10540931429E+03  0.00000000000E+00 0. -1.
<mgrwt>
<rscale>  0 0.95877899E+02</rscale>
<asrwt>0</asrwt>
<pdfrwt beam="1">  1        2 0.28311884E-02 0.95877899E+02</pdfrwt>
<pdfrwt beam="2">  1       -2 0.19212397E-01 0.95877899E+02</pdfrwt>
<totfact> 0.65596536E+04</totfact>
</mgrwt>
</event>
<event>
 5    1  0.6046470E+000  0.9104689E+02  0.7546771E-02  0.1300336E+00
         -1   -1    0    0    0  501 -0.00000000000E+00  0.00000000000E+00  0.34916409050E+03  0.34916409050E+03  0.00000000000E+00 0.  1.
          1   -1    0    0  501    0  0.00000000000E+00 -0.00000000000E+00 -0.59352720705E+01  0.59352720705E+01  0.00000000000E+00 0. -1.
         23    2    1    2    0    0  0.00000000000E+00  0.00000000000E+00  0.34322881843E+03  0.35509936257E+03  0.91046886258E+02 0.  0.
        -13    1    3    3    0    0  0.19946354575E+02 -0.38635993637E+02  0.11902891277E+03  0.12672205467E+03  0.00000000000E+00 0. -1.
         13    1    3    3    0    0 -0.19946354575E+02  0.38635993637E+02  0.22419990565E+03  0.22837730789E+03  0.00000000000E+00 0.  1.
<mgrwt>
<rscale>  0 0.91046886E+02</rscale>
<asrwt>0</asrwt>
<pdfrwt beam="2">  1        1 0.91311905E-03 0.91046886E+02</pdfrwt>
<pdfrwt beam="1">  1       -1 0.53717536E-01 0.91046886E+02</pdfrwt>
<totfact> 0.57060650E+04</totfact>
</mgrwt>
</event>
<event>
 5    1  0.6046470E+000  0.9100102E+02  0.7546771E-02  0.1300446E+00
         -1   -1    0    0    0  501 -0.00000000000E+00  0.00000000000E+00  0.30680961133E+02  0.30680961133E+02  0.00000000000E+00 0.  1.
          1   -1    0    0  501    0  0.00000000000E+00 -0.00000000000E+00 -0.67478206118E+02  0.67478206118E+02  0.00000000000E+00 0. -1.
         23    2    1    2    0    0  0.00000000000E+00  0.00000000000E+00 -0.36797244986E+02  0.98159167251E+02  0.91001015801E+02 0.  0.
        -13    1    3    3    0    0 -0.31898306677E+02  0.31422977660E+02 -0.96760878606E+01  0.45809738814E+02  0.00000000000E+00 0. -1.
         13    1    3    3    0    0  0.31898306677E+02 -0.31422977660E+02 -0.27121157125E+02  0.52349428437E+02  0.00000000000E+00 0.  1.
<mgrwt>
<rscale>  0 0.91001016E+02</rscale>
<asrwt>0</asrwt>
<pdfrwt beam="2">  1        1 0.10381262E-01 0.91001016E+02</pdfrwt>
<pdfrwt beam="1">  1       -1 0.47201479E-02 0.91001016E+02</pdfrwt>
<totfact> 0.98635995E+04</totfact>
</mgrwt>
</event>
<event>
 5    1  0.6046470E+000  0.9214073E+02  0.7546771E-02  0.1297749E+00
          1   -1    0    0  501    0  0.00000000000E+00  0.00000000000E+00  0.26044180205E+02  0.26044180205E+02  0.00000000000E+00 0. -1.
         -1   -1    0    0    0  501 -0.00000000000E+00 -0.00000000000E+00 -0.81495309662E+02  0.81495309662E+02  0.00000000000E+00 0.  1.
         23    2    1    2    0    0  0.00000000000E+00  0.00000000000E+00 -0.55451129456E+02  0.10753948987E+03  0.92140729989E+02 0.  0.
        -13    1    3    3    0    0  0.30293133418E+02 -0.18261860334E+01 -0.68180613066E+02  0.74629785513E+02  0.00000000000E+00 0.  1.
         13    1    3    3    0    0 -0.30293133418E+02  0.18261860334E+01  0.12729483609E+02  0.32909704354E+02  0.00000000000E+00 0. -1.
<mgrwt>
<rscale>  0 0.92140730E+02</rscale>
<asrwt>0</asrwt>
<pdfrwt beam="1">  1        1 0.40067970E-02 0.92140730E+02</pdfrwt>
<pdfrwt beam="2">  1       -1 0.12537740E-01 0.92140730E+02</pdfrwt>
<totfact> 0.82140005E+04</totfact>
</mgrwt>
</event>
<event>
 5    1  0.6046470E+000  0.9057867E+02  0.7546771E-02  0.1301456E+00
          4   -1    0    0  501    0  0.00000000000E+00  0.00000000000E+00  0.13306112192E+03  0.13306112192E+03  0.00000000000E+00 0. -1.
         -4   -1    0    0    0  501 -0.00000000000E+00 -0.00000000000E+00 -0.15414899058E+02  0.15414899058E+02  0.00000000000E+00 0.  1.
         23    2    1    2    0    0  0.00000000000E+00  0.00000000000E+00  0.11764622286E+03  0.14847602097E+03  0.90578667750E+02 0.  0.
        -13    1    3    3    0    0 -0.30244423286E+02 -0.33306691514E+02  0.67350533223E+02  0.80994784801E+02  0.00000000000E+00 0.  1.
         13    1    3    3    0    0  0.30244423286E+02  0.33306691514E+02  0.50295689637E+02  0.67481236174E+02  0.00000000000E+00 0. -1.
<mgrwt>
<rscale>  0 0.90578668E+02</rscale>
<asrwt>0</asrwt>
<pdfrwt beam="1">  1        4 0.20470941E-01 0.90578668E+02</pdfrwt>
<pdfrwt beam="2">  1       -4 0.23715230E-02 0.90578668E+02</pdfrwt>
<totfact> 0.24173650E+04</totfact>
</mgrwt>
</event>
<event>
 5    1  0.6046470E+000  0.9147750E+02  0.7546771E-02  0.1299313E+00
          1   -1    0    0  501    0  0.00000000000E+00  0.00000000000E+00  0.20938779747E+03  0.20938779747E+03  0.00000000000E+00 0. -1.
         -1   -1    0    0    0  501 -0.00000000000E+00 -0.00000000000E+00 -0.99911891377E+01  0.99911891377E+01  0.00000000000E+00 0.  1.
         23    2    1    2    0    0  0.00000000000E+00  0.00000000000E+00  0.19939660833E+03  0.21937898660E+03  0.91477496416E+02 0.  0.
        -13    1    3    3    0    0  0.21340892274E+02  0.36053413195E+02  0.14370665304E+03  0.14968929292E+03  0.00000000000E+00 0.  1.
         13    1    3    3    0    0 -0.21340892274E+02 -0.36053413195E+02  0.55689955288E+02  0.69689693686E+02  0.00000000000E+00 0. -1.
<mgrwt>
<rscale>  0 0.91477496E+02</rscale>
<asrwt>0</asrwt>
<pdfrwt beam="1">  1        1 0.32213504E-01 0.91477496E+02</pdfrwt>
<pdfrwt beam="2">  1       -1 0.15371062E-02 0.91477496E+02</pdfrwt>
<totfact> 0.11841597E+05</totfact>
</mgrwt>
</event>
<event>
 5    1  0.6046470E+000  0.9474195E+02  0.7546771E-02  0.1291758E+00
          1   -1    0    0  501    0  0.00000000000E+00  0.00000000000E+00  0.18765304707E+02  0.18765304707E+02  0.00000000000E+00 0. -1.
         -1   -1    0    0    0  501 -0.00000000000E+00 -0.00000000000E+00 -0.11958289151E+03  0.11958289151E+03  0.00000000000E+00 0.  1.
         23    2    1    2    0    0  0.00000000000E+00  0.00000000000E+00 -0.10081758680E+03  0.13834819621E+03  0.94741952626E+02 0.  0.
        -13    1    3    3    0    0 -0.21873481096E+02  0.41181649269E+02 -0.38223512135E+02  0.60294396851E+02  0.00000000000E+00 0.  1.
         13    1    3    3    0    0  0.21873481096E+02 -0.41181649269E+02 -0.62594074664E+02  0.78053799362E+02  0.00000000000E+00 0. -1.
<mgrwt>
<rscale>  0 0.94741953E+02</rscale>
<asrwt>0</asrwt>
<pdfrwt beam="1">  1        1 0.28869700E-02 0.94741953E+02</pdfrwt>
<pdfrwt beam="2">  1       -1 0.18397368E-01 0.94741953E+02</pdfrwt>
<totfact> 0.71157186E+04</totfact>
</mgrwt>
</event>
<event>
 5    1  0.6046470E+000  0.8859226E+02  0.7546771E-02  0.1306297E+00
          1   -1    0    0  501    0  0.00000000000E+00  0.00000000000E+00  0.13367554892E+03  0.13367554892E+03  0.00000000000E+00 0. -1.
         -1   -1    0    0    0  501 -0.00000000000E+00 -0.00000000000E+00 -0.14678429090E+02  0.14678429090E+02  0.00000000000E+00 0.  1.
         23    2    1    2    0    0  0.00000000000E+00  0.00000000000E+00  0.11899711983E+03  0.14835397801E+03  0.88592258487E+02 0.  0.
        -13    1    3    3    0    0  0.10045812438E+02 -0.36196044615E+02  0.20188038343E+02  0.42645385277E+02  0.00000000000E+00 0.  1.
         13    1    3    3    0    0 -0.10045812438E+02  0.36196044615E+02  0.98809081492E+02  0.10570859274E+03  0.00000000000E+00 0. -1.
<mgrwt>
<rscale>  0 0.88592258E+02</rscale>
<asrwt>0</asrwt>
<pdfrwt beam="1">  1        1 0.20565468E-01 0.88592258E+02</pdfrwt>
<pdfrwt beam="2">  1       -1 0.22582199E-02 0.88592258E+02</pdfrwt>
<totfact> 0.11867198E+05</totfact>
</mgrwt>
</event>
<event>
 5    1  0.6046470E+000  0.8969815E+02  0.7546771E-02  0.1303584E+00
          1   -1    0    0  501    0  0.00000000000E+00  0.00000000000E+00  0.81564028628E+02  0.81564028628E+02  0.00000000000E+00 0. -1.
         -1   -1    0    0    0  501 -0.00000000000E+00 -0.00000000000E+00 -0.24660866596E+02  0.24660866596E+02  0.00000000000E+00 0.  1.
         23    2    1    2    0    0  0.00000000000E+00  0.00000000000E+00  0.56903162032E+02  0.10622489522E+03  0.89698152245E+02 0.  0.
        -13    1    3    3    0    0 -0.54916221513E+01  0.21461962736E+02 -0.17729034175E+02  0.28374150404E+02  0.00000000000E+00 0.  1.
         13    1    3    3    0    0  0.54916221513E+01 -0.21461962736E+02  0.74632196207E+02  0.77850744820E+02  0.00000000000E+00 0. -1.
<mgrwt>
<rscale>  0 0.89698152E+02</rscale>
<asrwt>0</asrwt>
<pdfrwt beam="1">  1        1 0.12548312E-01 0.89698152E+02</pdfrwt>
<pdfrwt beam="2">  1       -1 0.37939795E-02 0.89698152E+02</pdfrwt>
<totfact> 0.10567961E+05</totfact>
</mgrwt>
</event>
<event>
 5    1  0.6046470E+000  0.8972231E+02  0.7546771E-02  0.1303526E+00
         -1   -1    0    0    0  501 -0.00000000000E+00  0.00000000000E+00  0.23970405781E+02  0.23970405781E+02  0.00000000000E+00 0.  1.
          1   -1    0    0  501    0  0.00000000000E+00 -0.00000000000E+00 -0.83958672003E+02  0.83958672003E+02  0.00000000000E+00 0. -1.
         23    2    1    2    0    0  0.00000000000E+00  0.00000000000E+00 -0.59988266223E+02  0.10792907778E+03  0.89722314654E+02 0.  0.
        -13    1    3    3    0    0 -0.34090426035E+02 -0.19870336072E+02 -0.43197885483E+01  0.39694432556E+02  0.00000000000E+00 0.  1.
         13    1    3    3    0    0  0.34090426035E+02  0.19870336072E+02 -0.55668477674E+02  0.68234645228E+02  0.00000000000E+00 0. -1.
<mgrwt>
<rscale>  0 0.89722315E+02</rscale>
<asrwt>0</asrwt>
<pdfrwt beam="2">  1        1 0.12916719E-01 0.89722315E+02</pdfrwt>
<pdfrwt beam="1">  1       -1 0.36877547E-02 0.89722315E+02</pdfrwt>
<totfact> 0.10608435E+05</totfact>
</mgrwt>
</event>
<event>
 5    1  0.6046470E+000  0.9157405E+02  0.7546771E-02  0.1299084E+00
         -2   -1    0    0    0  501 -0.00000000000E+00  0.00000000000E+00  0.65590659349E+02  0.65590659349E+02  0.00000000000E+00 0.  1.
          2   -1    0    0  501    0  0.00000000000E+00 -0.00000000000E+00 -0.31962653376E+02  0.31962653376E+02  0.00000000000E+00 0. -1.
         23    2    1    2    0    0  0.00000000000E+00  0.00000000000E+00  0.33628005973E+02  0.97553312725E+02  0.91574046749E+02 0.  0.
        -13    1    3    3    0    0  0.45601908761E+02  0.34962540284E+01  0.14506064375E+02  0.47981077297E+02  0.00000000000E+00 0.  1.
         13    1    3    3    0    0 -0.45601908761E+02 -0.34962540284E+01  0.19121941598E+02  0.49572235428E+02  0.00000000000E+00 0. -1.
<mgrwt>
<rscale>  0 0.91574047E+02</rscale>
<asrwt>0</asrwt>
<pdfrwt beam="2">  1        2 0.49173313E-02 0.91574047E+02</pdfrwt>
<pdfrwt beam="1">  1       -2 0.10090871E-01 0.91574047E+02</pdfrwt>
<totfact> 0.88818885E+04</totfact>
</mgrwt>
</event>
<event>
 5    1  0.6046470E+000  0.9255809E+02  0.7546771E-02  0.1296773E+00
          1   -1    0    0  501    0  0.00000000000E+00  0.00000000000E+00  0.39535441160E+02  0.39535441160E+02  0.00000000000E+00 0. -1.
         -1   -1    0    0    0  501 -0.00000000000E+00 -0.00000000000E+00 -0.54172914238E+02  0.54172914238E+02  0.00000000000E+00 0.  1.
         23    2    1    2    0    0  0.00000000000E+00  0.00000000000E+00 -0.14637473077E+02  0.93708355398E+02  0.92558091236E+02 0.  0.
        -13    1    3    3    0    0  0.16795122402E+02 -0.16636095243E+02  0.32961556571E+02  0.40562297925E+02  0.00000000000E+00 0. -1.
         13    1    3    3    0    0 -0.16795122402E+02  0.16636095243E+02 -0.47599029648E+02  0.53146057472E+02  0.00000000000E+00 0.  1.
<mgrwt>
<rscale>  0 0.92558091E+02</rscale>
<asrwt>0</asrwt>
<pdfrwt beam="1">  1        1 0.60823756E-02 0.92558091E+02</pdfrwt>
<pdfrwt beam="2">  1       -1 0.83342945E-02 0.92558091E+02</pdfrwt>
<totfact> 0.86728890E+04</totfact>
</mgrwt>
</event>
<event>
 5    1  0.6046470E+000  0.9262332E+02  0.7546771E-02  0.1296620E+00
          2   -1    0    0  501    0  0.00000000000E+00  0.00000000000E+00  0.98654861314E+02  0.98654861314E+02  0.00000000000E+00 0. -1.
         -2   -1    0    0    0  501 -0.00000000000E+00 -0.00000000000E+00 -0.21740135734E+02  0.21740135734E+02  0.00000000000E+00 0.  1.
         23    2    1    2    0    0  0.00000000000E+00  0.00000000000E+00  0.76914725580E+02  0.12039499705E+03  0.92623324833E+02 0.  0.
        -13    1    3    3    0    0  0.11271111823E+02 -0.26272610082E+02  0.85816350018E+02  0.90452937667E+02  0.00000000000E+00 0. -1.
         13    1    3    3    0    0 -0.11271111823E+02  0.26272610082E+02 -0.89016244383E+01  0.29942059380E+02  0.00000000000E+00 0.  1.
<mgrwt>
<rscale>  0 0.92623325E+02</rscale>
<asrwt>0</asrwt>
<pdfrwt beam="1">  1        2 0.15177671E-01 0.92623325E+02</pdfrwt>
<pdfrwt beam="2">  1       -2 0.33446363E-02 0.92623325E+02</pdfrwt>
<totfact> 0.11697812E+05</totfact>
</mgrwt>
</event>
<event>
 5    1  0.6046470E+000  0.1030765E+03  0.7546771E-02  0.1273956E+00
         -1   -1    0    0    0  501 -0.00000000000E+00  0.00000000000E+00  0.68861759686E+02  0.68861759686E+02  0.00000000000E+00 0.  1.
          1   -1    0    0  501    0  0.00000000000E+00 -0.00000000000E+00 -0.38572807817E+02  0.38572807817E+02  0.00000000000E+00 0. -1.
         23    2    1    2    0    0  0.00000000000E+00  0.00000000000E+00  0.30288951869E+02  0.10743456750E+03  0.10307650406E+03 0.  0.
        -13    1    3    3    0    0  0.39797148479E+01 -0.17835350348E+02 -0.35082748407E+02  0.39556757806E+02  0.00000000000E+00 0. -1.
         13    1    3    3    0    0 -0.39797148479E+01  0.17835350348E+02  0.65371700276E+02  0.67877809697E+02  0.00000000000E+00 0.  1.
<mgrwt>
<rscale>  0 0.10307650E+03</rscale>
<asrwt>0</asrwt>
<pdfrwt beam="2">  1        1 0.59342781E-02 0.10307650E+03</pdfrwt>
<pdfrwt beam="1">  1       -1 0.10594117E-01 0.10307650E+03</pdfrwt>
<totfact> 0.63457865E+04</totfact>
</mgrwt>
</event>
<event>
 5    1  0.6046470E+000  0.8991270E+02  0.7546771E-02  0.1303063E+00
          1   -1    0    0  501    0  0.00000000000E+00  0.00000000000E+00  0.31475473159E+02  0.31475473159E+02  0.00000000000E+00 0. -1.
         -1   -1    0    0    0  501 -0.00000000000E+00 -0.00000000000E+00 -0.64211057470E+02  0.64211057470E+02  0.00000000000E+00 0.  1.
         23    2    1    2    0    0  0.00000000000E+00  0.00000000000E+00 -0.32735584310E+02  0.95686530629E+02  0.89912700235E+02 0.  0.
        -13    1    3    3    0    0  0.23636521784E+02 -0.24676141687E+02 -0.47458133986E+02  0.58479668365E+02  0.00000000000E+00 0.  1.
         13    1    3    3    0    0 -0.23636521784E+02  0.24676141687E+02  0.14722549676E+02  0.37206862264E+02  0.00000000000E+00 0. -1.
<mgrwt>
<rscale>  0 0.89912700E+02</rscale>
<asrwt>0</asrwt>
<pdfrwt beam="1">  1        1 0.48423805E-02 0.89912700E+02</pdfrwt>
<pdfrwt beam="2">  1       -1 0.98786242E-02 0.89912700E+02</pdfrwt>
<totfact> 0.90908437E+04</totfact>
</mgrwt>
</event>
<event>
 5    1  0.6046470E+000  0.8908884E+02  0.7546771E-02  0.1305073E+00
         -4   -1    0    0    0  501 -0.00000000000E+00  0.00000000000E+00  0.11354640135E+03  0.11354640135E+03  0.00000000000E+00 0.  1.
          4   -1    0    0  501    0  0.00000000000E+00 -0.00000000000E+00 -0.17474843335E+02  0.17474843335E+02  0.00000000000E+00 0. -1.
         23    2    1    2    0    0  0.00000000000E+00  0.00000000000E+00  0.96071558015E+02  0.13102124468E+03  0.89088844976E+02 0.  0.
        -13    1    3    3    0    0 -0.33951954599E+00  0.27581234737E+02 -0.34036996852E+01  0.27792534154E+02  0.00000000000E+00 0. -1.
         13    1    3    3    0    0  0.33951954599E+00 -0.27581234737E+02  0.99475257700E+02  0.10322871053E+03  0.00000000000E+00 0.  1.
<mgrwt>
<rscale>  0 0.89088845E+02</rscale>
<asrwt>0</asrwt>
<pdfrwt beam="2">  1        4 0.26884375E-02 0.89088845E+02</pdfrwt>
<pdfrwt beam="1">  1       -4 0.17468677E-01 0.89088845E+02</pdfrwt>
<totfact> 0.26247105E+04</totfact>
</mgrwt>
</event>
<event>
 5    1  0.6046470E+000  0.9261903E+02  0.7546771E-02  0.1296630E+00
          3   -1    0    0  501    0  0.00000000000E+00  0.00000000000E+00  0.34265648358E+02  0.34265648358E+02  0.00000000000E+00 0. -1.
         -3   -1    0    0    0  501 -0.00000000000E+00 -0.00000000000E+00 -0.62586616470E+02  0.62586616470E+02  0.00000000000E+00 0.  1.
         23    2    1    2    0    0  0.00000000000E+00  0.00000000000E+00 -0.28320968112E+02  0.96852264827E+02  0.92619025947E+02 0.  0.
        -13    1    3    3    0    0 -0.26831311349E+02 -0.86837639710E+01  0.24250445194E+02  0.37194235004E+02  0.00000000000E+00 0.  1.
         13    1    3    3    0    0  0.26831311349E+02  0.86837639710E+01 -0.52571413306E+02  0.59658029823E+02  0.00000000000E+00 0. -1.
<mgrwt>
<rscale>  0 0.92619026E+02</rscale>
<asrwt>0</asrwt>
<pdfrwt beam="1">  1        3 0.52716382E-02 0.92619026E+02</pdfrwt>
<pdfrwt beam="2">  1       -3 0.96287102E-02 0.92619026E+02</pdfrwt>
<totfact> 0.33443534E+04</totfact>
</mgrwt>
</event>
<event>
 5    1  0.6046470E+000  0.8622213E+02  0.7546771E-02  0.1312267E+00
          2   -1    0    0  501    0  0.00000000000E+00  0.00000000000E+00  0.11451915868E+03  0.11451915868E+03  0.00000000000E+00 0. -1.
         -2   -1    0    0    0  501 -0.00000000000E+00 -0.00000000000E+00 -0.16229284337E+02  0.16229284337E+02  0.00000000000E+00 0.  1.
         23    2    1    2    0    0  0.00000000000E+00  0.00000000000E+00  0.98289874342E+02  0.13074844302E+03  0.86222131456E+02 0.  0.
        -13    1    3    3    0    0  0.52854224268E+01 -0.37563063620E+02  0.80209022076E+02  0.88726583734E+02  0.00000000000E+00 0. -1.
         13    1    3    3    0    0 -0.52854224268E+01  0.37563063620E+02  0.18080852265E+02  0.42021859281E+02  0.00000000000E+00 0.  1.
<mgrwt>
<rscale>  0 0.86222131E+02</rscale>
<asrwt>0</asrwt>
<pdfrwt beam="1">  1        2 0.17618332E-01 0.86222131E+02</pdfrwt>
<pdfrwt beam="2">  1       -2 0.24968130E-02 0.86222131E+02</pdfrwt>
<totfact> 0.14899605E+05</totfact>
</mgrwt>
</event>
<event>
 5    1  0.6046470E+000  0.9242500E+02  0.7546771E-02  0.1297083E+00
          1   -1    0    0  501    0  0.00000000000E+00  0.00000000000E+00  0.16395250473E+02  0.16395250473E+02  0.00000000000E+00 0. -1.
         -1   -1    0    0    0  501 -0.00000000000E+00 -0.00000000000E+00 -0.13025692797E+03  0.13025692797E+03  0.00000000000E+00 0.  1.
         23    2    1    2    0    0  0.00000000000E+00  0.00000000000E+00 -0.11386167750E+03  0.14665217844E+03  0.92424995752E+02 0.  0.
        -13    1    3    3    0    0  0.27078997716E+01  0.43562081057E+02 -0.32835355781E+02  0.54618204075E+02  0.00000000000E+00 0. -1.
         13    1    3    3    0    0 -0.27078997716E+01 -0.43562081057E+02 -0.81026321715E+02  0.92033974367E+02  0.00000000000E+00 0.  1.
<mgrwt>
<rscale>  0 0.92424996E+02</rscale>
<asrwt>0</asrwt>
<pdfrwt beam="1">  1        1 0.25223462E-02 0.92424996E+02</pdfrwt>
<pdfrwt beam="2">  1       -1 0.20039528E-01 0.92424996E+02</pdfrwt>
<totfact> 0.74518574E+04</totfact>
</mgrwt>
</event>
<event>
 5    1  0.6046470E+000  0.9069428E+02  0.7546771E-02  0.1301179E+00
         -1   -1    0    0    0  501 -0.00000000000E+00  0.00000000000E+00  0.24161702619E+03  0.24161702619E+03  0.00000000000E+00 0.  1.
          1   -1    0    0  501    0  0.00000000000E+00 -0.00000000000E+00 -0.85108378038E+01  0.85108378038E+01  0.00000000000E+00 0. -1.
         23    2    1    2    0    0  0.00000000000E+00  0.00000000000E+00  0.23310618839E+03  0.25012786400E+03  0.90694284728E+02 0.  0.
        -13    1    3    3    0    0  0.36737273190E+02 -0.20268710992E+02  0.16399541904E+03  0.16927771664E+03  0.00000000000E+00 0.  1.
         13    1    3    3    0    0 -0.36737273190E+02  0.20268710992E+02  0.69110769352E+02  0.80850147354E+02  0.00000000000E+00 0. -1.
<mgrwt>
<rscale>  0 0.90694285E+02</rscale>
<asrwt>0</asrwt>
<pdfrwt beam="2">  1        1 0.13093598E-02 0.90694285E+02</pdfrwt>
<pdfrwt beam="1">  1       -1 0.37171845E-01 0.90694285E+02</pdfrwt>
<totfact> 0.66421076E+04</totfact>
</mgrwt>
</event>
<event>
 5    1  0.6046470E+000  0.9101673E+02  0.7546771E-02  0.1300408E+00
          2   -1    0    0  501    0  0.00000000000E+00  0.00000000000E+00  0.80967666571E+02  0.80967666571E+02  0.00000000000E+00 0. -1.
         -2   -1    0    0    0  501 -0.00000000000E+00 -0.00000000000E+00 -0.25578251751E+02  0.25578251751E+02  0.00000000000E+00 0.  1.
         23    2    1    2    0    0  0.00000000000E+00  0.00000000000E+00  0.55389414820E+02  0.10654591832E+03  0.91016731633E+02 0.  0.
        -13    1    3    3    0    0 -0.39803195328E+02 -0.40239277924E+01  0.53087293602E+02  0.66473657152E+02  0.00000000000E+00 0. -1.
         13    1    3    3    0    0  0.39803195328E+02  0.40239277924E+01  0.23021212177E+01  0.40072261170E+02  0.00000000000E+00 0.  1.
<mgrwt>
<rscale>  0 0.91016732E+02</rscale>
<asrwt>0</asrwt>
<pdfrwt beam="1">  1        2 0.12456564E-01 0.91016732E+02</pdfrwt>
<pdfrwt beam="2">  1       -2 0.39351157E-02 0.91016732E+02</pdfrwt>
<totfact> 0.11581643E+05</totfact>
</mgrwt>
</event>
<event>
 5    1  0.6046470E+000  0.9153555E+02  0.7546771E-02  0.1299175E+00
          2   -1    0    0  501    0  0.00000000000E+00  0.00000000000E+00  0.90139123267E+02  0.90139123267E+02  0.00000000000E+00 0. -1.
         -2   -1    0    0    0  501 -0.00000000000E+00 -0.00000000000E+00 -0.23238402338E+02  0.23238402338E+02  0.00000000000E+00 0.  1.
         23    2    1    2    0    0  0.00000000000E+00  0.00000000000E+00  0.66900720929E+02  0.11337752561E+03  0.91535549660E+02 0.  0.
        -13    1    3    3    0    0 -0.42488068020E+02 -0.60936129412E+01  0.53125328063E+02  0.68298378638E+02  0.00000000000E+00 0. -1.
         13    1    3    3    0    0  0.42488068020E+02  0.60936129412E+01  0.13775392866E+02  0.45079146968E+02  0.00000000000E+00 0.  1.
<mgrwt>
<rscale>  0 0.91535550E+02</rscale>
<asrwt>0</asrwt>
<pdfrwt beam="1">  1        2 0.13867557E-01 0.91535550E+02</pdfrwt>
<pdfrwt beam="2">  1       -2 0.35751389E-02 0.91535550E+02</pdfrwt>
<totfact> 0.11762719E+05</totfact>
</mgrwt>
</event>
<event>
 5    1  0.6046470E+000  0.8771361E+02  0.7546771E-02  0.1308485E+00
         -1   -1    0    0    0  501 -0.00000000000E+00  0.00000000000E+00  0.10334582982E+02  0.10334582982E+02  0.00000000000E+00 0.  1.
          1   -1    0    0  501    0  0.00000000000E+00 -0.00000000000E+00 -0.18611483126E+03  0.18611483126E+03  0.00000000000E+00 0. -1.
         23    2    1    2    0    0  0.00000000000E+00  0.00000000000E+00 -0.17578024827E+03  0.19644941424E+03  0.87713605964E+02 0.  0.
        -13    1    3    3    0    0 -0.92316660162E+01 -0.28223778096E+02 -0.15606961228E+02  0.33546721840E+02  0.00000000000E+00 0.  1.
         13    1    3    3    0    0  0.92316660162E+01  0.28223778096E+02 -0.16017328705E+03  0.16290269240E+03  0.00000000000E+00 0. -1.
<mgrwt>
<rscale>  0 0.87713606E+02</rscale>
<asrwt>0</asrwt>
<pdfrwt beam="2">  1        1 0.28633048E-01 0.87713606E+02</pdfrwt>
<pdfrwt beam="1">  1       -1 0.15899360E-02 0.87713606E+02</pdfrwt>
<totfact> 0.12953084E+05</totfact>
</mgrwt>
</event>
<event>
 5    1  0.6046470E+000  0.9069115E+02  0.7546771E-02  0.1301187E+00
          1   -1    0    0  501    0  0.00000000000E+00  0.00000000000E+00  0.15059156600E+03  0.15059156600E+03  0.00000000000E+00 0. -1.
         -1   -1    0    0    0  501 -0.00000000000E+00 -0.00000000000E+00 -0.13654293172E+02  0.13654293172E+02  0.00000000000E+00 0.  1.
         23    2    1    2    0    0  0.00000000000E+00  0.00000000000E+00  0.13693727283E+03  0.16424585917E+03  0.90691154836E+02 0.  0.
        -13    1    3    3    0    0  0.23770213298E+02 -0.13499132643E+02  0.29455061126E+01  0.27494101706E+02  0.00000000000E+00 0.  1.
         13    1    3    3    0    0 -0.23770213298E+02  0.13499132643E+02  0.13399176672E+03  0.13675175747E+03  0.00000000000E+00 0. -1.
<mgrwt>
<rscale>  0 0.90691155E+02</rscale>
<asrwt>0</asrwt>
<pdfrwt beam="1">  1        1 0.23167932E-01 0.90691155E+02</pdfrwt>
<pdfrwt beam="2">  1       -1 0.21006606E-02 0.90691155E+02</pdfrwt>
<totfact> 0.11384127E+05</totfact>
</mgrwt>
</event>
<event>
 5    1  0.6046470E+000  0.9053063E+02  0.7546771E-02  0.1301572E+00
         -3   -1    0    0    0  501 -0.00000000000E+00  0.00000000000E+00  0.17399396193E+02  0.17399396193E+02  0.00000000000E+00 0.  1.
          3   -1    0    0  501    0  0.00000000000E+00 -0.00000000000E+00 -0.11775976749E+03  0.11775976749E+03  0.00000000000E+00 0. -1.
         23    2    1    2    0    0  0.00000000000E+00  0.00000000000E+00 -0.10036037129E+03  0.13515916368E+03  0.90530632388E+02 0.  0.
        -13    1    3    3    0    0  0.34291109781E+02  0.21046819621E+02 -0.19217781498E+02  0.44588921852E+02  0.00000000000E+00 0.  1.
         13    1    3    3    0    0 -0.34291109781E+02 -0.21046819621E+02 -0.81142589795E+02  0.90570241828E+02  0.00000000000E+00 0. -1.
<mgrwt>
<rscale>  0 0.90530632E+02</rscale>
<asrwt>0</asrwt>
<pdfrwt beam="2">  1        3 0.18116888E-01 0.90530632E+02</pdfrwt>
<pdfrwt beam="1">  1       -3 0.26768301E-02 0.90530632E+02</pdfrwt>
<totfact> 0.32866659E+04</totfact>
</mgrwt>
</event>
<event>
 5    1  0.6046470E+000  0.9223730E+02  0.7546771E-02  0.1297522E+00
          2   -1    0    0  501    0  0.00000000000E+00  0.00000000000E+00  0.53216455448E+02  0.53216455448E+02  0.00000000000E+00 0. -1.
         -2   -1    0    0    0  501 -0.00000000000E+00 -0.00000000000E+00 -0.39967525686E+02  0.39967525686E+02  0.00000000000E+00 0.  1.
         23    2    1    2    0    0  0.00000000000E+00  0.00000000000E+00  0.13248929762E+02  0.93183981134E+02  0.92237303735E+02 0.  0.
        -13    1    3    3    0    0  0.12693923394E+02 -0.12450853637E+02 -0.36365429626E+02  0.40479672915E+02  0.00000000000E+00 0.  1.
         13    1    3    3    0    0 -0.12693923394E+02  0.12450853637E+02  0.49614359388E+02  0.52704308220E+02  0.00000000000E+00 0. -1.
<mgrwt>
<rscale>  0 0.92237304E+02</rscale>
<asrwt>0</asrwt>
<pdfrwt beam="1">  1        2 0.81871470E-02 0.92237304E+02</pdfrwt>
<pdfrwt beam="2">  1       -2 0.61488501E-02 0.92237304E+02</pdfrwt>
<totfact> 0.99416801E+04</totfact>
</mgrwt>
</event>
<event>
 5    1  0.6046470E+000  0.8956230E+02  0.7546771E-02  0.1303915E+00
          1   -1    0    0  501    0  0.00000000000E+00  0.00000000000E+00  0.23028836344E+02  0.23028836344E+02  0.00000000000E+00 0. -1.
         -1   -1    0    0    0  501 -0.00000000000E+00 -0.00000000000E+00 -0.87080009740E+02  0.87080009740E+02  0.00000000000E+00 0.  1.
         23    2    1    2    0    0  0.00000000000E+00  0.00000000000E+00 -0.64051173395E+02  0.11010884608E+03  0.89562297719E+02 0.  0.
        -13    1    3    3    0    0  0.25906212951E+02 -0.35952861707E+02 -0.39956110805E+02  0.59667670686E+02  0.00000000000E+00 0.  1.
         13    1    3    3    0    0 -0.25906212951E+02  0.35952861707E+02 -0.24095062590E+02  0.50441175398E+02  0.00000000000E+00 0. -1.
<mgrwt>
<rscale>  0 0.89562298E+02</rscale>
<asrwt>0</asrwt>
<pdfrwt beam="1">  1        1 0.35428979E-02 0.89562298E+02</pdfrwt>
<pdfrwt beam="2">  1       -1 0.13396925E-01 0.89562298E+02</pdfrwt>
<totfact> 0.87334721E+04</totfact>
</mgrwt>
</event>
<event>
 5    1  0.6046470E+000  0.7762257E+02  0.7546771E-02  0.1335937E+00
          1   -1    0    0  501    0  0.00000000000E+00  0.00000000000E+00  0.13366785263E+02  0.13366785263E+02  0.00000000000E+00 0. -1.
         -1   -1    0    0    0  501 -0.00000000000E+00 -0.00000000000E+00 -0.11269095661E+03  0.11269095661E+03  0.00000000000E+00 0.  1.
         23    2    1    2    0    0  0.00000000000E+00  0.00000000000E+00 -0.99324171350E+02  0.12605774188E+03  0.77622569349E+02 0.  0.
        -13    1    3    3    0    0 -0.30248509256E+01  0.34475744252E+02 -0.78190119286E+02  0.85506850128E+02  0.00000000000E+00 0.  1.
         13    1    3    3    0    0  0.30248509256E+01 -0.34475744252E+02 -0.21134052064E+02  0.40550891747E+02  0.00000000000E+00 0. -1.
<mgrwt>
<rscale>  0 0.77622569E+02</rscale>
<asrwt>0</asrwt>
<pdfrwt beam="1">  1        1 0.20564284E-02 0.77622569E+02</pdfrwt>
<pdfrwt beam="2">  1       -1 0.17337071E-01 0.77622569E+02</pdfrwt>
<totfact> 0.12030375E+05</totfact>
</mgrwt>
</event>
<event>
 5    1  0.6046470E+000  0.9253733E+02  0.7546771E-02  0.1296821E+00
          2   -1    0    0  501    0  0.00000000000E+00  0.00000000000E+00  0.25885268448E+02  0.25885268448E+02  0.00000000000E+00 0. -1.
         -2   -1    0    0    0  501 -0.00000000000E+00 -0.00000000000E+00 -0.82702994369E+02  0.82702994369E+02  0.00000000000E+00 0.  1.
         23    2    1    2    0    0  0.00000000000E+00  0.00000000000E+00 -0.56817725921E+02  0.10858826282E+03  0.92537326753E+02 0.  0.
        -13    1    3    3    0    0  0.41906333683E+02 -0.16588656888E+02 -0.16131550186E+02  0.47870149900E+02  0.00000000000E+00 0. -1.
         13    1    3    3    0    0 -0.41906333683E+02  0.16588656888E+02 -0.40686175735E+02  0.60718112916E+02  0.00000000000E+00 0.  1.
<mgrwt>
<rscale>  0 0.92537327E+02</rscale>
<asrwt>0</asrwt>
<pdfrwt beam="1">  1        2 0.39823491E-02 0.92537327E+02</pdfrwt>
<pdfrwt beam="2">  1       -2 0.12723537E-01 0.92537327E+02</pdfrwt>
<totfact> 0.81277129E+04</totfact>
</mgrwt>
</event>
<event>
 5    1  0.6046470E+000  0.9282732E+02  0.7546771E-02  0.1296146E+00
         -2   -1    0    0    0  501 -0.00000000000E+00  0.00000000000E+00  0.13417277867E+03  0.13417277867E+03  0.00000000000E+00 0. -1.
          2   -1    0    0  501    0  0.00000000000E+00 -0.00000000000E+00 -0.16055626414E+02  0.16055626414E+02  0.00000000000E+00 0.  1.
         23    2    1    2    0    0  0.00000000000E+00  0.00000000000E+00  0.11811715225E+03  0.15022840508E+03  0.92827323761E+02 0.  0.
        -13    1    3    3    0    0 -0.24977824624E+02  0.24675024990E+02  0.99317113580E+01  0.36488182631E+02  0.00000000000E+00 0.  1.
         13    1    3    3    0    0  0.24977824624E+02 -0.24675024990E+02  0.10818544090E+03  0.11374022245E+03  0.00000000000E+00 0. -1.
<mgrwt>
<rscale>  0 0.92827324E+02</rscale>
<asrwt>0</asrwt>
<pdfrwt beam="2">  1        2 0.24700965E-02 0.92827324E+02</pdfrwt>
<pdfrwt beam="1">  1       -2 0.20641965E-01 0.92827324E+02</pdfrwt>
<totfact> 0.69446585E+04</totfact>
</mgrwt>
</event>
<event>
 5    1  0.6046470E+000  0.9792359E+02  0.7546771E-02  0.1284724E+00
          4   -1    0    0  501    0  0.00000000000E+00  0.00000000000E+00  0.10428070730E+02  0.10428070730E+02  0.00000000000E+00 0. -1.
         -4   -1    0    0    0  501 -0.00000000000E+00 -0.00000000000E+00 -0.22988502604E+03  0.22988502604E+03  0.00000000000E+00 0.  1.
         23    2    1    2    0    0  0.00000000000E+00  0.00000000000E+00 -0.21945695531E+03  0.24031309677E+03  0.97923588809E+02 0.  0.
        -13    1    3    3    0    0 -0.11402786496E+01 -0.48276175834E+02 -0.12956988441E+03  0.13827597165E+03  0.00000000000E+00 0.  1.
         13    1    3    3    0    0  0.11402786496E+01  0.48276175834E+02 -0.89887070898E+02  0.10203712512E+03  0.00000000000E+00 0. -1.
<mgrwt>
<rscale>  0 0.97923589E+02</rscale>
<asrwt>0</asrwt>
<pdfrwt beam="1">  1        4 0.16043187E-02 0.97923589E+02</pdfrwt>
<pdfrwt beam="2">  1       -4 0.35366924E-01 0.97923589E+02</pdfrwt>
<totfact> 0.16356426E+04</totfact>
</mgrwt>
</event>
<event>
 5    1  0.6046470E+000  0.9095389E+02  0.7546771E-02  0.1300558E+00
         -1   -1    0    0    0  501 -0.00000000000E+00  0.00000000000E+00  0.84895458957E+02  0.84895458957E+02  0.00000000000E+00 0.  1.
          1   -1    0    0  501    0  0.00000000000E+00 -0.00000000000E+00 -0.24361167278E+02  0.24361167278E+02  0.00000000000E+00 0. -1.
         23    2    1    2    0    0  0.00000000000E+00  0.00000000000E+00  0.60534291678E+02  0.10925662623E+03  0.90953888907E+02 0.  0.
        -13    1    3    3    0    0 -0.24557877522E+02  0.21827844157E+02  0.68036420932E+02  0.75554607418E+02  0.00000000000E+00 0.  1.
         13    1    3    3    0    0  0.24557877522E+02 -0.21827844157E+02 -0.75021292534E+01  0.33702018816E+02  0.00000000000E+00 0. -1.
<mgrwt>
<rscale>  0 0.90953889E+02</rscale>
<asrwt>0</asrwt>
<pdfrwt beam="2">  1        1 0.37478719E-02 0.90953889E+02</pdfrwt>
<pdfrwt beam="1">  1       -1 0.13060840E-01 0.90953889E+02</pdfrwt>
<totfact> 0.84322992E+04</totfact>
</mgrwt>
</event>
<event>
 5    1  0.6046470E+000  0.9064397E+02  0.7546771E-02  0.1301300E+00
         -1   -1    0    0    0  501 -0.00000000000E+00  0.00000000000E+00  0.76782063523E+02  0.76782063523E+02  0.00000000000E+00 0.  1.
          1   -1    0    0  501    0  0.00000000000E+00 -0.00000000000E+00 -0.26752111450E+02  0.26752111450E+02  0.00000000000E+00 0. -1.
         23    2    1    2    0    0  0.00000000000E+00  0.00000000000E+00  0.50029952073E+02  0.10353417497E+03  0.90643969920E+02 0.  0.
        -13    1    3    3    0    0  0.10674859692E+02 -0.16816638105E+02  0.71514590705E+02  0.74236706759E+02  0.00000000000E+00 0.  1.
         13    1    3    3    0    0 -0.10674859692E+02  0.16816638105E+02 -0.21484638632E+02  0.29297468214E+02  0.00000000000E+00 0. -1.
<mgrwt>
<rscale>  0 0.90643970E+02</rscale>
<asrwt>0</asrwt>
<pdfrwt beam="2">  1        1 0.41157095E-02 0.90643970E+02</pdfrwt>
<pdfrwt beam="1">  1       -1 0.11812625E-01 0.90643970E+02</pdfrwt>
<totfact> 0.86522218E+04</totfact>
</mgrwt>
</event>
<event>
 5    1  0.6046470E+000  0.9206113E+02  0.7546771E-02  0.1297936E+00
          2   -1    0    0  501    0  0.00000000000E+00  0.00000000000E+00  0.74817991166E+02  0.74817991166E+02  0.00000000000E+00 0. -1.
         -2   -1    0    0    0  501 -0.00000000000E+00 -0.00000000000E+00 -0.28319561565E+02  0.28319561565E+02  0.00000000000E+00 0.  1.
         23    2    1    2    0    0  0.00000000000E+00  0.00000000000E+00  0.46498429601E+02  0.10313755273E+03  0.92061125499E+02 0.  0.
        -13    1    3    3    0    0  0.15071021663E+02 -0.29359177921E+01  0.71864442178E+02  0.73486416138E+02  0.00000000000E+00 0. -1.
         13    1    3    3    0    0 -0.15071021663E+02  0.29359177921E+01 -0.25366012577E+02  0.29651136594E+02  0.00000000000E+00 0.  1.
<mgrwt>
<rscale>  0 0.92061125E+02</rscale>
<asrwt>0</asrwt>
<pdfrwt beam="1">  1        2 0.11510460E-01 0.92061125E+02</pdfrwt>
<pdfrwt beam="2">  1       -2 0.43568556E-02 0.92061125E+02</pdfrwt>
<totfact> 0.10969688E+05</totfact>
</mgrwt>
</event>
<event>
 5    1  0.6046470E+000  0.9338594E+02  0.7546771E-02  0.1294853E+00
         -2   -1    0    0    0  501 -0.00000000000E+00  0.00000000000E+00  0.24668507074E+02  0.24668507074E+02  0.00000000000E+00 0.  1.
          2   -1    0    0  501    0  0.00000000000E+00 -0.00000000000E+00 -0.88381246012E+02  0.88381246012E+02  0.00000000000E+00 0. -1.
         23    2    1    2    0    0  0.00000000000E+00  0.00000000000E+00 -0.63712738938E+02  0.11304975309E+03  0.93385938823E+02 0.  0.
        -13    1    3    3    0    0 -0.26545348072E+02  0.91015085441E+01  0.13321237254E+02  0.31063617368E+02  0.00000000000E+00 0.  1.
         13    1    3    3    0    0  0.26545348072E+02 -0.91015085441E+01 -0.77033976192E+02  0.81986135718E+02  0.00000000000E+00 0. -1.
<mgrwt>
<rscale>  0 0.93385939E+02</rscale>
<asrwt>0</asrwt>
<pdfrwt beam="2">  1        2 0.13597115E-01 0.93385939E+02</pdfrwt>
<pdfrwt beam="1">  1       -2 0.37951549E-02 0.93385939E+02</pdfrwt>
<totfact> 0.11062609E+05</totfact>
</mgrwt>
</event>
<event>
 5    1  0.6046470E+000  0.8180034E+02  0.7546771E-02  0.1324019E+00
         -2   -1    0    0    0  501 -0.00000000000E+00  0.00000000000E+00  0.14235050833E+03  0.14235050833E+03  0.00000000000E+00 0.  1.
          2   -1    0    0  501    0  0.00000000000E+00 -0.00000000000E+00 -0.11751443761E+02  0.11751443761E+02  0.00000000000E+00 0. -1.
         23    2    1    2    0    0  0.00000000000E+00  0.00000000000E+00  0.13059906457E+03  0.15410195209E+03  0.81800342128E+02 0.  0.
        -13    1    3    3    0    0 -0.97490058992E+01  0.32603192377E+02  0.10804377785E+03  0.11327607515E+03  0.00000000000E+00 0.  1.
         13    1    3    3    0    0  0.97490058992E+01 -0.32603192377E+02  0.22555286721E+02  0.40825876944E+02  0.00000000000E+00 0. -1.
<mgrwt>
<rscale>  0 0.81800342E+02</rscale>
<asrwt>0</asrwt>
<pdfrwt beam="2">  1        2 0.18079145E-02 0.81800342E+02</pdfrwt>
<pdfrwt beam="1">  1       -2 0.21900077E-01 0.81800342E+02</pdfrwt>
<totfact> 0.93603892E+04</totfact>
</mgrwt>
</event>
<event>
 5    1  0.6046470E+000  0.9216027E+02  0.7546771E-02  0.1297703E+00
         -1   -1    0    0    0  501 -0.00000000000E+00  0.00000000000E+00  0.42181370866E+02  0.42181370866E+02  0.00000000000E+00 0.  1.
          1   -1    0    0  501    0  0.00000000000E+00 -0.00000000000E+00 -0.50339253762E+02  0.50339253762E+02  0.00000000000E+00 0. -1.
         23    2    1    2    0    0  0.00000000000E+00  0.00000000000E+00 -0.81578828952E+01  0.92520624628E+02  0.92160267622E+02 0.  0.
        -13    1    3    3    0    0  0.16236438627E+02 -0.29814698760E+02 -0.35359087946E+02  0.49018397585E+02  0.00000000000E+00 0.  1.
         13    1    3    3    0    0 -0.16236438627E+02  0.29814698760E+02  0.27201205051E+02  0.43502227043E+02  0.00000000000E+00 0. -1.
<mgrwt>
<rscale>  0 0.92160268E+02</rscale>
<asrwt>0</asrwt>
<pdfrwt beam="2">  1        1 0.77445006E-02 0.92160268E+02</pdfrwt>
<pdfrwt beam="1">  1       -1 0.64894416E-02 0.92160268E+02</pdfrwt>
<totfact> 0.91082065E+04</totfact>
</mgrwt>
</event>
<event>
 5    1  0.6046470E+000  0.8986967E+02  0.7546771E-02  0.1303168E+00
         -1   -1    0    0    0  501 -0.00000000000E+00  0.00000000000E+00  0.46714766112E+02  0.46714766112E+02  0.00000000000E+00 0.  1.
          1   -1    0    0  501    0  0.00000000000E+00 -0.00000000000E+00 -0.43222723829E+02  0.43222723829E+02  0.00000000000E+00 0. -1.
         23    2    1    2    0    0  0.00000000000E+00  0.00000000000E+00  0.34920422826E+01  0.89937489942E+02  0.89869670844E+02 0.  0.
        -13    1    3    3    0    0  0.24087223303E+02 -0.36874608397E+01 -0.36036247137E+02  0.43501756305E+02  0.00000000000E+00 0. -1.
         13    1    3    3    0    0 -0.24087223303E+02  0.36874608397E+01  0.39528289420E+02  0.46435733636E+02  0.00000000000E+00 0.  1.
<mgrwt>
<rscale>  0 0.89869671E+02</rscale>
<asrwt>0</asrwt>
<pdfrwt beam="2">  1        1 0.66496498E-02 0.89869671E+02</pdfrwt>
<pdfrwt beam="1">  1       -1 0.71868871E-02 0.89869671E+02</pdfrwt>
<totfact> 0.95529927E+04</totfact>
</mgrwt>
</event>
<event>
 5    1  0.6046470E+000  0.9076476E+02  0.7546771E-02  0.1301010E+00
          2   -1    0    0  501    0  0.00000000000E+00  0.00000000000E+00  0.16886859813E+03  0.16886859813E+03  0.00000000000E+00 0. -1.
         -2   -1    0    0    0  501 -0.00000000000E+00 -0.00000000000E+00 -0.12196231618E+02  0.12196231618E+02  0.00000000000E+00 0.  1.
         23    2    1    2    0    0  0.00000000000E+00  0.00000000000E+00  0.15667236652E+03  0.18106482975E+03  0.90764762674E+02 0.  0.
        -13    1    3    3    0    0  0.12749987348E+02 -0.40203010093E+02  0.44912779984E+02  0.61611703465E+02  0.00000000000E+00 0.  1.
         13    1    3    3    0    0 -0.12749987348E+02  0.40203010093E+02  0.11175958653E+03  0.11945312629E+03  0.00000000000E+00 0. -1.
<mgrwt>
<rscale>  0 0.90764763E+02</rscale>
<asrwt>0</asrwt>
<pdfrwt beam="1">  1        2 0.25979783E-01 0.90764763E+02</pdfrwt>
<pdfrwt beam="2">  1       -2 0.18763434E-02 0.90764763E+02</pdfrwt>
<totfact> 0.14743245E+05</totfact>
</mgrwt>
</event>
<event>
 5    1  0.6046470E+000  0.9667929E+02  0.7546771E-02  0.1287438E+00
         -2   -1    0    0    0  501 -0.00000000000E+00  0.00000000000E+00  0.14477010358E+03  0.14477010358E+03  0.00000000000E+00 0.  1.
          2   -1    0    0  501    0  0.00000000000E+00 -0.00000000000E+00 -0.16140909530E+02  0.16140909530E+02  0.00000000000E+00 0. -1.
         23    2    1    2    0    0  0.00000000000E+00  0.00000000000E+00  0.12862919405E+03  0.16091101311E+03  0.96679287224E+02 0.  0.
        -13    1    3    3    0    0  0.39615107648E+01  0.40456046125E+02  0.20774740467E+02  0.45650575868E+02  0.00000000000E+00 0. -1.
         13    1    3    3    0    0 -0.39615107648E+01 -0.40456046125E+02  0.10785445358E+03  0.11526043724E+03  0.00000000000E+00 0.  1.
<mgrwt>
<rscale>  0 0.96679287E+02</rscale>
<asrwt>0</asrwt>
<pdfrwt beam="2">  1        2 0.24832170E-02 0.96679287E+02</pdfrwt>
<pdfrwt beam="1">  1       -2 0.22272323E-01 0.96679287E+02</pdfrwt>
<totfact> 0.61004028E+04</totfact>
</mgrwt>
</event>
<event>
 5    1  0.6046470E+000  0.8971219E+02  0.7546771E-02  0.1303550E+00
         -2   -1    0    0    0  501 -0.00000000000E+00  0.00000000000E+00  0.30302994488E+03  0.30302994488E+03  0.00000000000E+00 0.  1.
          2   -1    0    0  501    0  0.00000000000E+00 -0.00000000000E+00 -0.66398367596E+01  0.66398367596E+01  0.00000000000E+00 0. -1.
         23    2    1    2    0    0  0.00000000000E+00  0.00000000000E+00  0.29639010812E+03  0.30966978163E+03  0.89712192421E+02 0.  0.
        -13    1    3    3    0    0 -0.10676860375E+02  0.42869975668E+02  0.12140417418E+03  0.12919289326E+03  0.00000000000E+00 0. -1.
         13    1    3    3    0    0  0.10676860375E+02 -0.42869975668E+02  0.17498593394E+03  0.18047688838E+03  0.00000000000E+00 0.  1.
<mgrwt>
<rscale>  0 0.89712192E+02</rscale>
<asrwt>0</asrwt>
<pdfrwt beam="2">  1        2 0.10215136E-02 0.89712192E+02</pdfrwt>
<pdfrwt beam="1">  1       -2 0.46619981E-01 0.89712192E+02</pdfrwt>
<totfact> 0.52870726E+04</totfact>
</mgrwt>
</event>
<event>
 5    1  0.6046470E+000  0.9185786E+02  0.7546771E-02  0.1298414E+00
          1   -1    0    0  501    0  0.00000000000E+00  0.00000000000E+00  0.18643792669E+03  0.18643792669E+03  0.00000000000E+00 0. -1.
         -1   -1    0    0    0  501 -0.00000000000E+00 -0.00000000000E+00 -0.11314578425E+02  0.11314578425E+02  0.00000000000E+00 0.  1.
         23    2    1    2    0    0  0.00000000000E+00  0.00000000000E+00  0.17512334826E+03  0.19775250511E+03  0.91857858516E+02 0.  0.
        -13    1    3    3    0    0 -0.21762007137E+02 -0.32035234208E+02  0.34407522749E+02  0.51804621484E+02  0.00000000000E+00 0.  1.
         13    1    3    3    0    0  0.21762007137E+02  0.32035234208E+02  0.14071582551E+03  0.14594788363E+03  0.00000000000E+00 0. -1.
<mgrwt>
<rscale>  0 0.91857859E+02</rscale>
<asrwt>0</asrwt>
<pdfrwt beam="1">  1        1 0.28682756E-01 0.91857859E+02</pdfrwt>
<pdfrwt beam="2">  1       -1 0.17407045E-02 0.91857859E+02</pdfrwt>
<totfact> 0.11449697E+05</totfact>
</mgrwt>
</event>
<event>
 5    1  0.6046470E+000  0.9099159E+02  0.7546771E-02  0.1300468E+00
          2   -1    0    0  501    0  0.00000000000E+00  0.00000000000E+00  0.58763076527E+02  0.58763076527E+02  0.00000000000E+00 0. -1.
         -2   -1    0    0    0  501 -0.00000000000E+00 -0.00000000000E+00 -0.35223941974E+02  0.35223941974E+02  0.00000000000E+00 0.  1.
         23    2    1    2    0    0  0.00000000000E+00  0.00000000000E+00  0.23539134553E+02  0.93987018502E+02  0.90991586377E+02 0.  0.
        -13    1    3    3    0    0  0.37094586699E+01 -0.44486166452E+02  0.20838586687E+02  0.49264853438E+02  0.00000000000E+00 0. -1.
         13    1    3    3    0    0 -0.37094586699E+01  0.44486166452E+02  0.27005478662E+01  0.44722165064E+02  0.00000000000E+00 0.  1.
<mgrwt>
<rscale>  0 0.90991586E+02</rscale>
<asrwt>0</asrwt>
<pdfrwt beam="1">  1        2 0.90404733E-02 0.90991586E+02</pdfrwt>
<pdfrwt beam="2">  1       -2 0.54190680E-02 0.90991586E+02</pdfrwt>
<totfact> 0.10608706E+05</totfact>
</mgrwt>
</event>
<event>
 5    1  0.6046470E+000  0.9020643E+02  0.7546771E-02  0.1302353E+00
          4   -1    0    0  501    0  0.00000000000E+00  0.00000000000E+00  0.52978365853E+01  0.52978365853E+01  0.00000000000E+00 0. -1.
         -4   -1    0    0    0  501 -0.00000000000E+00 -0.00000000000E+00 -0.38398689908E+03  0.38398689908E+03  0.00000000000E+00 0.  1.
         23    2    1    2    0    0  0.00000000000E+00  0.00000000000E+00 -0.37868906249E+03  0.38928473566E+03  0.90206426428E+02 0.  0.
        -13    1    3    3    0    0 -0.41943698849E+02  0.16415592426E+02 -0.19951507903E+03  0.20453609048E+03  0.00000000000E+00 0.  1.
         13    1    3    3    0    0  0.41943698849E+02 -0.16415592426E+02 -0.17917398346E+03  0.18474864519E+03  0.00000000000E+00 0. -1.
<mgrwt>
<rscale>  0 0.90206426E+02</rscale>
<asrwt>0</asrwt>
<pdfrwt beam="1">  1        4 0.81505154E-03 0.90206426E+02</pdfrwt>
<pdfrwt beam="2">  1       -4 0.59074925E-01 0.90206426E+02</pdfrwt>
<totfact> 0.15845514E+04</totfact>
</mgrwt>
</event>
<event>
 5    1  0.6046470E+000  0.9064867E+02  0.7546771E-02  0.1301288E+00
         -1   -1    0    0    0  501 -0.00000000000E+00  0.00000000000E+00  0.13969596309E+03  0.13969596309E+03  0.00000000000E+00 0.  1.
          1   -1    0    0  501    0  0.00000000000E+00 -0.00000000000E+00 -0.14705473566E+02  0.14705473566E+02  0.00000000000E+00 0. -1.
         23    2    1    2    0    0  0.00000000000E+00  0.00000000000E+00  0.12499048952E+03  0.15440143665E+03  0.90648668881E+02 0.  0.
        -13    1    3    3    0    0 -0.22625750623E+02  0.38991638096E+02  0.54501932794E+02  0.70730001491E+02  0.00000000000E+00 0.  1.
         13    1    3    3    0    0  0.22625750623E+02 -0.38991638096E+02  0.70488556728E+02  0.83671435163E+02  0.00000000000E+00 0. -1.
<mgrwt>
<rscale>  0 0.90648669E+02</rscale>
<asrwt>0</asrwt>
<pdfrwt beam="2">  1        1 0.22623806E-02 0.90648669E+02</pdfrwt>
<pdfrwt beam="1">  1       -1 0.21491686E-01 0.90648669E+02</pdfrwt>
<totfact> 0.77170026E+04</totfact>
</mgrwt>
</event>
<event>
 5    1  0.6046470E+000  0.9093647E+02  0.7546771E-02  0.1300600E+00
          4   -1    0    0  501    0  0.00000000000E+00  0.00000000000E+00  0.18230925936E+02  0.18230925936E+02  0.00000000000E+00 0. -1.
         -4   -1    0    0    0  501 -0.00000000000E+00 -0.00000000000E+00 -0.11339854764E+03  0.11339854764E+03  0.00000000000E+00 0.  1.
         23    2    1    2    0    0  0.00000000000E+00  0.00000000000E+00 -0.95167621704E+02  0.13162947358E+03  0.90936472844E+02 0.  0.
        -13    1    3    3    0    0 -0.20311183128E+02  0.36181690598E+02 -0.20670585240E+02  0.46356574385E+02  0.00000000000E+00 0. -1.
         13    1    3    3    0    0  0.20311183128E+02 -0.36181690598E+02 -0.74497036464E+02  0.85272899191E+02  0.00000000000E+00 0.  1.
<mgrwt>
<rscale>  0 0.90936473E+02</rscale>
<asrwt>0</asrwt>
<pdfrwt beam="1">  1        4 0.28047579E-02 0.90936473E+02</pdfrwt>
<pdfrwt beam="2">  1       -4 0.17445930E-01 0.90936473E+02</pdfrwt>
<totfact> 0.24805542E+04</totfact>
</mgrwt>
</event>
<event>
 5    1  0.6046470E+000  0.8997532E+02  0.7546771E-02  0.1302911E+00
          1   -1    0    0  501    0  0.00000000000E+00  0.00000000000E+00  0.99034267398E+02  0.99034267398E+02  0.00000000000E+00 0. -1.
         -1   -1    0    0    0  501 -0.00000000000E+00 -0.00000000000E+00 -0.20436253458E+02  0.20436253458E+02  0.00000000000E+00 0.  1.
         23    2    1    2    0    0  0.00000000000E+00  0.00000000000E+00  0.78598013940E+02  0.11947052086E+03  0.89975316383E+02 0.  0.
        -13    1    3    3    0    0  0.86724947923E+01 -0.35192146869E+02  0.74684451671E+02  0.83014858240E+02  0.00000000000E+00 0. -1.
         13    1    3    3    0    0 -0.86724947923E+01  0.35192146869E+02  0.39135622691E+01  0.36455662616E+02  0.00000000000E+00 0.  1.
<mgrwt>
<rscale>  0 0.89975316E+02</rscale>
<asrwt>0</asrwt>
<pdfrwt beam="1">  1        1 0.15236041E-01 0.89975316E+02</pdfrwt>
<pdfrwt beam="2">  1       -1 0.31440391E-02 0.89975316E+02</pdfrwt>
<totfact> 0.10811862E+05</totfact>
</mgrwt>
</event>
<event>
 5    1  0.6046470E+000  0.9306907E+02  0.7546771E-02  0.1295585E+00
         -1   -1    0    0    0  501 -0.00000000000E+00  0.00000000000E+00  0.15408871568E+02  0.15408871568E+02  0.00000000000E+00 0.  1.
          1   -1    0    0  501    0  0.00000000000E+00 -0.00000000000E+00 -0.14053350723E+03  0.14053350723E+03  0.00000000000E+00 0. -1.
         23    2    1    2    0    0  0.00000000000E+00  0.00000000000E+00 -0.12512463566E+03  0.15594237879E+03  0.93069066049E+02 0.  0.
        -13    1    3    3    0    0 -0.19789001044E+02  0.18056972045E+02  0.11925983964E+01  0.26815687436E+02  0.00000000000E+00 0.  1.
         13    1    3    3    0    0  0.19789001044E+02 -0.18056972045E+02 -0.12631723405E+03  0.12912669136E+03  0.00000000000E+00 0. -1.
<mgrwt>
<rscale>  0 0.93069066E+02</rscale>
<asrwt>0</asrwt>
<pdfrwt beam="2">  1        1 0.21620539E-01 0.93069066E+02</pdfrwt>
<pdfrwt beam="1">  1       -1 0.23705957E-02 0.93069066E+02</pdfrwt>
<totfact> 0.10481247E+05</totfact>
</mgrwt>
</event>
<event>
 5    1  0.6046470E+000  0.8484292E+02  0.7546771E-02  0.1315844E+00
         -1   -1    0    0    0  501 -0.00000000000E+00  0.00000000000E+00  0.44341644176E+02  0.44341644176E+02  0.00000000000E+00 0.  1.
          1   -1    0    0  501    0  0.00000000000E+00 -0.00000000000E+00 -0.40584423814E+02  0.40584423814E+02  0.00000000000E+00 0. -1.
         23    2    1    2    0    0  0.00000000000E+00  0.00000000000E+00  0.37572203622E+01  0.84926067989E+02  0.84842915552E+02 0.  0.
        -13    1    3    3    0    0  0.31064967632E+02 -0.69393625690E+01  0.29948795737E+02  0.43704889119E+02  0.00000000000E+00 0.  1.
         13    1    3    3    0    0 -0.31064967632E+02  0.69393625690E+01 -0.26191575375E+02  0.41221178870E+02  0.00000000000E+00 0. -1.
<mgrwt>
<rscale>  0 0.84842916E+02</rscale>
<asrwt>0</asrwt>
<pdfrwt beam="2">  1        1 0.62437575E-02 0.84842916E+02</pdfrwt>
<pdfrwt beam="1">  1       -1 0.68217914E-02 0.84842916E+02</pdfrwt>
<totfact> 0.11118593E+05</totfact>
</mgrwt>
</event>
<event>
 5    1  0.6046470E+000  0.9314980E+02  0.7546771E-02  0.1295398E+00
          1   -1    0    0  501    0  0.00000000000E+00  0.00000000000E+00  0.84501445017E+02  0.84501445017E+02  0.00000000000E+00 0. -1.
         -1   -1    0    0    0  501 -0.00000000000E+00 -0.00000000000E+00 -0.25670821720E+02  0.25670821720E+02  0.00000000000E+00 0.  1.
         23    2    1    2    0    0  0.00000000000E+00  0.00000000000E+00  0.58830623297E+02  0.11017226674E+03  0.93149804726E+02 0.  0.
        -13    1    3    3    0    0 -0.30364043996E+02 -0.81922640105E+01 -0.11215532489E+02  0.33389766792E+02  0.00000000000E+00 0.  1.
         13    1    3    3    0    0  0.30364043996E+02  0.81922640105E+01  0.70046155787E+02  0.76782499945E+02  0.00000000000E+00 0. -1.
<mgrwt>
<rscale>  0 0.93149805E+02</rscale>
<asrwt>0</asrwt>
<pdfrwt beam="1">  1        1 0.13000222E-01 0.93149805E+02</pdfrwt>
<pdfrwt beam="2">  1       -1 0.39493572E-02 0.93149805E+02</pdfrwt>
<totfact> 0.95820778E+04</totfact>
</mgrwt>
</event>
<event>
 5    1  0.6046470E+000  0.8779098E+02  0.7546771E-02  0.1308291E+00
          1   -1    0    0  501    0  0.00000000000E+00  0.00000000000E+00  0.16544493999E+03  0.16544493999E+03  0.00000000000E+00 0. -1.
         -1   -1    0    0    0  501 -0.00000000000E+00 -0.00000000000E+00 -0.11646254304E+02  0.11646254304E+02  0.00000000000E+00 0.  1.
         23    2    1    2    0    0  0.00000000000E+00  0.00000000000E+00  0.15379868569E+03  0.17709119430E+03  0.87790975491E+02 0.  0.
        -13    1    3    3    0    0 -0.40713076204E+02 -0.89693089589E+01  0.49181433460E+02  0.64473378028E+02  0.00000000000E+00 0.  1.
         13    1    3    3    0    0  0.40713076204E+02  0.89693089589E+01  0.10461725223E+03  0.11261781627E+03  0.00000000000E+00 0. -1.
<mgrwt>
<rscale>  0 0.87790975E+02</rscale>
<asrwt>0</asrwt>
<pdfrwt beam="1">  1        1 0.25453066E-01 0.87790975E+02</pdfrwt>
<pdfrwt beam="2">  1       -1 0.17917316E-02 0.87790975E+02</pdfrwt>
<totfact> 0.12639935E+05</totfact>
</mgrwt>
</event>
<event>
 5    1  0.6046470E+000  0.9069055E+02  0.7546771E-02  0.1301188E+00
         -3   -1    0    0    0  501 -0.00000000000E+00  0.00000000000E+00  0.14515925105E+03  0.14515925105E+03  0.00000000000E+00 0.  1.
          3   -1    0    0  501    0  0.00000000000E+00 -0.00000000000E+00 -0.14165092136E+02  0.14165092136E+02  0.00000000000E+00 0. -1.
         23    2    1    2    0    0  0.00000000000E+00  0.00000000000E+00  0.13099415891E+03  0.15932434318E+03  0.90690554425E+02 0.  0.
        -13    1    3    3    0    0 -0.43798286822E+01 -0.43693571972E+02  0.85363816629E+02  0.95996314098E+02  0.00000000000E+00 0.  1.
         13    1    3    3    0    0  0.43798286822E+01  0.43693571972E+02  0.45630342282E+02  0.63328029085E+02  0.00000000000E+00 0. -1.
<mgrwt>
<rscale>  0 0.90690554E+02</rscale>
<asrwt>0</asrwt>
<pdfrwt beam="2">  1        3 0.21792450E-02 0.90690554E+02</pdfrwt>
<pdfrwt beam="1">  1       -3 0.22332192E-01 0.90690554E+02</pdfrwt>
<totfact> 0.31194657E+04</totfact>
</mgrwt>
</event>
<event>
 5    1  0.6046470E+000  0.8077782E+02  0.7546771E-02  0.1326858E+00
          4   -1    0    0  501    0  0.00000000000E+00  0.00000000000E+00  0.68494063357E+01  0.68494063357E+01  0.00000000000E+00 0. -1.
         -4   -1    0    0    0  501 -0.00000000000E+00 -0.00000000000E+00 -0.23816137061E+03  0.23816137061E+03  0.00000000000E+00 0.  1.
         23    2    1    2    0    0  0.00000000000E+00  0.00000000000E+00 -0.23131196427E+03  0.24501077694E+03  0.80777818756E+02 0.  0.
        -13    1    3    3    0    0 -0.17964004782E+02 -0.32034128974E+02 -0.16662482068E+03  0.17062450514E+03  0.00000000000E+00 0.  1.
         13    1    3    3    0    0  0.17964004782E+02  0.32034128974E+02 -0.64687143588E+02  0.74386271802E+02  0.00000000000E+00 0. -1.
<mgrwt>
<rscale>  0 0.80777819E+02</rscale>
<asrwt>0</asrwt>
<pdfrwt beam="1">  1        4 0.10537549E-02 0.80777819E+02</pdfrwt>
<pdfrwt beam="2">  1       -4 0.36640210E-01 0.80777819E+02</pdfrwt>
<totfact> 0.27048707E+04</totfact>
</mgrwt>
</event>
<event>
 5    1  0.6046470E+000  0.9205553E+02  0.7546771E-02  0.1297949E+00
          1   -1    0    0  501    0  0.00000000000E+00  0.00000000000E+00  0.15299358716E+03  0.15299358716E+03  0.00000000000E+00 0. -1.
         -1   -1    0    0    0  501 -0.00000000000E+00 -0.00000000000E+00 -0.13847345773E+02  0.13847345773E+02  0.00000000000E+00 0.  1.
         23    2    1    2    0    0  0.00000000000E+00  0.00000000000E+00  0.13914624139E+03  0.16684093293E+03  0.92055528947E+02 0.  0.
        -13    1    3    3    0    0 -0.19566073645E+02 -0.40128148570E+02  0.49273043788E+02  0.66490092417E+02  0.00000000000E+00 0.  1.
         13    1    3    3    0    0  0.19566073645E+02  0.40128148570E+02  0.89873197598E+02  0.10035084051E+03  0.00000000000E+00 0. -1.
<mgrwt>
<rscale>  0 0.92055529E+02</rscale>
<asrwt>0</asrwt>
<pdfrwt beam="1">  1        1 0.23537474E-01 0.92055529E+02</pdfrwt>
<pdfrwt beam="2">  1       -1 0.21303610E-02 0.92055529E+02</pdfrwt>
<totfact> 0.10966429E+05</totfact>
</mgrwt>
</event>
<event>
 5    1  0.6046470E+000  0.8948369E+02  0.7546771E-02  0.1304107E+00
         -2   -1    0    0    0  501 -0.00000000000E+00  0.00000000000E+00  0.30303567355E+02  0.30303567355E+02  0.00000000000E+00 0. -1.
          2   -1    0    0  501    0  0.00000000000E+00 -0.00000000000E+00 -0.66059305684E+02  0.66059305684E+02  0.00000000000E+00 0.  1.
         23    2    1    2    0    0  0.00000000000E+00  0.00000000000E+00 -0.35755738329E+02  0.96362873039E+02  0.89483688329E+02 0.  0.
        -13    1    3    3    0    0 -0.11118476162E+02 -0.46805557541E+01 -0.64274930324E+02  0.65397207757E+02  0.00000000000E+00 0.  1.
         13    1    3    3    0    0  0.11118476162E+02  0.46805557541E+01  0.28519191995E+02  0.30965665282E+02  0.00000000000E+00 0. -1.
<mgrwt>
<rscale>  0 0.89483688E+02</rscale>
<asrwt>0</asrwt>
<pdfrwt beam="2">  1        2 0.10162970E-01 0.89483688E+02</pdfrwt>
<pdfrwt beam="1">  1       -2 0.46620873E-02 0.89483688E+02</pdfrwt>
<totfact> 0.11473430E+05</totfact>
</mgrwt>
</event>
<event>
 5    1  0.6046470E+000  0.9100067E+02  0.7546771E-02  0.1300446E+00
          2   -1    0    0  501    0  0.00000000000E+00  0.00000000000E+00  0.29456695614E+02  0.29456695614E+02  0.00000000000E+00 0. -1.
         -2   -1    0    0    0  501 -0.00000000000E+00 -0.00000000000E+00 -0.70282168092E+02  0.70282168092E+02  0.00000000000E+00 0.  1.
         23    2    1    2    0    0  0.00000000000E+00  0.00000000000E+00 -0.40825472478E+02  0.99738863706E+02  0.91000668845E+02 0.  0.
        -13    1    3    3    0    0 -0.37153255730E+02  0.77055288321E+01  0.71090390481E+01  0.38604119238E+02  0.00000000000E+00 0.  1.
         13    1    3    3    0    0  0.37153255730E+02 -0.77055288321E+01 -0.47934511526E+02  0.61134744468E+02  0.00000000000E+00 0. -1.
<mgrwt>
<rscale>  0 0.91000669E+02</rscale>
<asrwt>0</asrwt>
<pdfrwt beam="1">  1        2 0.45317994E-02 0.91000669E+02</pdfrwt>
<pdfrwt beam="2">  1       -2 0.10812641E-01 0.91000669E+02</pdfrwt>
<totfact> 0.88542427E+04</totfact>
</mgrwt>
</event>
<event>
 5    1  0.6046470E+000  0.8996649E+02  0.7546771E-02  0.1302933E+00
          2   -1    0    0  501    0  0.00000000000E+00  0.00000000000E+00  0.19296020194E+03  0.19296020194E+03  0.00000000000E+00 0. -1.
         -2   -1    0    0    0  501 -0.00000000000E+00 -0.00000000000E+00 -0.10486579352E+02  0.10486579352E+02  0.00000000000E+00 0.  1.
         23    2    1    2    0    0  0.00000000000E+00  0.00000000000E+00  0.18247362259E+03  0.20344678129E+03  0.89966493082E+02 0.  0.
        -13    1    3    3    0    0  0.31272716995E+02 -0.30166369768E+02  0.11756004989E+03  0.12533298857E+03  0.00000000000E+00 0.  1.
         13    1    3    3    0    0 -0.31272716995E+02  0.30166369768E+02  0.64913572698E+02  0.78113792723E+02  0.00000000000E+00 0. -1.
<mgrwt>
<rscale>  0 0.89966493E+02</rscale>
<asrwt>0</asrwt>
<pdfrwt beam="1">  1        2 0.29686182E-01 0.89966493E+02</pdfrwt>
<pdfrwt beam="2">  1       -2 0.16133200E-02 0.89966493E+02</pdfrwt>
<totfact> 0.15828480E+05</totfact>
</mgrwt>
</event>
<event>
 5    1  0.6046470E+000  0.9555096E+02  0.7546771E-02  0.1289940E+00
          1   -1    0    0  501    0  0.00000000000E+00  0.00000000000E+00  0.23414344152E+03  0.23414344152E+03  0.00000000000E+00 0. -1.
         -1   -1    0    0    0  501 -0.00000000000E+00 -0.00000000000E+00 -0.97482826580E+01  0.97482826580E+01  0.00000000000E+00 0.  1.
         23    2    1    2    0    0  0.00000000000E+00  0.00000000000E+00  0.22439515886E+03  0.24389172418E+03  0.95550959188E+02 0.  0.
        -13    1    3    3    0    0 -0.21681633080E+02 -0.28351195001E+02  0.31134277614E+02  0.47362714381E+02  0.00000000000E+00 0.  1.
         13    1    3    3    0    0  0.21681633080E+02  0.28351195001E+02  0.19326088125E+03  0.19652900979E+03  0.00000000000E+00 0. -1.
<mgrwt>
<rscale>  0 0.95550959E+02</rscale>
<asrwt>0</asrwt>
<pdfrwt beam="1">  1        1 0.36022064E-01 0.95550959E+02</pdfrwt>
<pdfrwt beam="2">  1       -1 0.14997360E-02 0.95550959E+02</pdfrwt>
<totfact> 0.10767514E+05</totfact>
</mgrwt>
</event>
<event>
 5    1  0.6046470E+000  0.9135774E+02  0.7546771E-02  0.1299597E+00
         -1   -1    0    0    0  501 -0.00000000000E+00  0.00000000000E+00  0.17888957915E+02  0.17888957915E+02  0.00000000000E+00 0.  1.
          1   -1    0    0  501    0  0.00000000000E+00 -0.00000000000E+00 -0.11663949749E+03  0.11663949749E+03  0.00000000000E+00 0. -1.
         23    2    1    2    0    0  0.00000000000E+00  0.00000000000E+00 -0.98750539580E+02  0.13452845541E+03  0.91357737754E+02 0.  0.
        -13    1    3    3    0    0 -0.52336472006E+01  0.23700335594E+02  0.76079175249E+01  0.25435750026E+02  0.00000000000E+00 0.  1.
         13    1    3    3    0    0  0.52336472006E+01 -0.23700335594E+02 -0.10635845710E+03  0.10909270538E+03  0.00000000000E+00 0. -1.
<mgrwt>
<rscale>  0 0.91357738E+02</rscale>
<asrwt>0</asrwt>
<pdfrwt beam="2">  1        1 0.17944538E-01 0.91357738E+02</pdfrwt>
<pdfrwt beam="1">  1       -1 0.27521473E-02 0.91357738E+02</pdfrwt>
<totfact> 0.10663448E+05</totfact>
</mgrwt>
</event>
<event>
 5    1  0.6046470E+000  0.8360358E+02  0.7546771E-02  0.1319125E+00
         -2   -1    0    0    0  501 -0.00000000000E+00  0.00000000000E+00  0.64243113341E+02  0.64243113341E+02  0.00000000000E+00 0.  1.
          2   -1    0    0  501    0  0.00000000000E+00 -0.00000000000E+00 -0.27199638720E+02  0.27199638720E+02  0.00000000000E+00 0. -1.
         23    2    1    2    0    0  0.00000000000E+00  0.00000000000E+00  0.37043474621E+02  0.91442752061E+02  0.83603575836E+02 0.  0.
        -13    1    3    3    0    0  0.25004921654E+02 -0.33491206956E+02  0.17762043878E+02  0.45413624090E+02  0.00000000000E+00 0. -1.
         13    1    3    3    0    0 -0.25004921654E+02  0.33491206956E+02  0.19281430743E+02  0.46029127971E+02  0.00000000000E+00 0.  1.
<mgrwt>
<rscale>  0 0.83603576E+02</rscale>
<asrwt>0</asrwt>
<pdfrwt beam="2">  1        2 0.41845598E-02 0.83603576E+02</pdfrwt>
<pdfrwt beam="1">  1       -2 0.98835558E-02 0.83603576E+02</pdfrwt>
<totfact> 0.11137383E+05</totfact>
</mgrwt>
</event>
<event>
 5    1  0.6046470E+000  0.9183934E+02  0.7546771E-02  0.1298458E+00
         -2   -1    0    0    0  501 -0.00000000000E+00  0.00000000000E+00  0.97658311659E+01  0.97658311659E+01  0.00000000000E+00 0.  1.
          2   -1    0    0  501    0  0.00000000000E+00 -0.00000000000E+00 -0.21591773790E+03  0.21591773790E+03  0.00000000000E+00 0. -1.
         23    2    1    2    0    0  0.00000000000E+00  0.00000000000E+00 -0.20615190673E+03  0.22568356906E+03  0.91839341766E+02 0.  0.
        -13    1    3    3    0    0  0.25652940419E+02  0.19394631861E+02 -0.18362351082E+03  0.18641839723E+03  0.00000000000E+00 0. -1.
         13    1    3    3    0    0 -0.25652940419E+02 -0.19394631861E+02 -0.22528395906E+02  0.39265171836E+02  0.00000000000E+00 0.  1.
<mgrwt>
<rscale>  0 0.91839342E+02</rscale>
<asrwt>0</asrwt>
<pdfrwt beam="2">  1        2 0.33218112E-01 0.91839342E+02</pdfrwt>
<pdfrwt beam="1">  1       -2 0.15024356E-02 0.91839342E+02</pdfrwt>
<totfact> 0.15597873E+05</totfact>
</mgrwt>
</event>
<event>
 5    1  0.6046470E+000  0.9718057E+02  0.7546771E-02  0.1286339E+00
         -1   -1    0    0    0  501 -0.00000000000E+00  0.00000000000E+00  0.15998273425E+02  0.15998273425E+02  0.00000000000E+00 0.  1.
          1   -1    0    0  501    0  0.00000000000E+00 -0.00000000000E+00 -0.14757942731E+03  0.14757942731E+03  0.00000000000E+00 0. -1.
         23    2    1    2    0    0  0.00000000000E+00  0.00000000000E+00 -0.13158115388E+03  0.16357770073E+03  0.97180574807E+02 0.  0.
        -13    1    3    3    0    0 -0.41319520785E+02 -0.23446289111E+02 -0.48626143196E+02  0.67981858412E+02  0.00000000000E+00 0.  1.
         13    1    3    3    0    0  0.41319520785E+02  0.23446289111E+02 -0.82955010686E+02  0.95595842320E+02  0.00000000000E+00 0. -1.
<mgrwt>
<rscale>  0 0.97180575E+02</rscale>
<asrwt>0</asrwt>
<pdfrwt beam="2">  1        1 0.22704527E-01 0.97180575E+02</pdfrwt>
<pdfrwt beam="1">  1       -1 0.24612728E-02 0.97180575E+02</pdfrwt>
<totfact> 0.94050132E+04</totfact>
</mgrwt>
</event>
<event>
 5    1  0.6046470E+000  0.9079314E+02  0.7546771E-02  0.1300942E+00
          3   -1    0    0  501    0  0.00000000000E+00  0.00000000000E+00  0.11464016662E+03  0.11464016662E+03  0.00000000000E+00 0. -1.
         -3   -1    0    0    0  501 -0.00000000000E+00 -0.00000000000E+00 -0.17976671747E+02  0.17976671747E+02  0.00000000000E+00 0.  1.
         23    2    1    2    0    0  0.00000000000E+00  0.00000000000E+00  0.96663494869E+02  0.13261683836E+03  0.90793141685E+02 0.  0.
        -13    1    3    3    0    0 -0.28021473186E+02  0.90880348824E+01 -0.21199230128E+01  0.29534546062E+02  0.00000000000E+00 0.  1.
         13    1    3    3    0    0  0.28021473186E+02 -0.90880348824E+01  0.98783417882E+02  0.10308229230E+03  0.00000000000E+00 0. -1.
<mgrwt>
<rscale>  0 0.90793142E+02</rscale>
<asrwt>0</asrwt>
<pdfrwt beam="1">  1        3 0.17636948E-01 0.90793142E+02</pdfrwt>
<pdfrwt beam="2">  1       -3 0.27656419E-02 0.90793142E+02</pdfrwt>
<totfact> 0.32777004E+04</totfact>
</mgrwt>
</event>
<event>
 5    1  0.6046470E+000  0.7922768E+02  0.7546771E-02  0.1331258E+00
          1   -1    0    0  501    0  0.00000000000E+00  0.00000000000E+00  0.12657708385E+03  0.12657708385E+03  0.00000000000E+00 0. -1.
         -1   -1    0    0    0  501 -0.00000000000E+00 -0.00000000000E+00 -0.12397632742E+02  0.12397632742E+02  0.00000000000E+00 0.  1.
         23    2    1    2    0    0  0.00000000000E+00  0.00000000000E+00  0.11417945111E+03  0.13897471659E+03  0.79227676961E+02 0.  0.
        -13    1    3    3    0    0  0.31593748299E+02 -0.10861075955E+02  0.94429308826E+02  0.10016497525E+03  0.00000000000E+00 0. -1.
         13    1    3    3    0    0 -0.31593748299E+02  0.10861075955E+02  0.19750142280E+02  0.38809741336E+02  0.00000000000E+00 0.  1.
<mgrwt>
<rscale>  0 0.79227677E+02</rscale>
<asrwt>0</asrwt>
<pdfrwt beam="1">  1        1 0.19473397E-01 0.79227677E+02</pdfrwt>
<pdfrwt beam="2">  1       -1 0.19073282E-02 0.79227677E+02</pdfrwt>
<totfact> 0.15856176E+05</totfact>
</mgrwt>
</event>
<event>
 5    1  0.6046470E+000  0.9194301E+02  0.7546771E-02  0.1298213E+00
          2   -1    0    0  501    0  0.00000000000E+00  0.00000000000E+00  0.55057511396E+02  0.55057511396E+02  0.00000000000E+00 0. -1.
         -2   -1    0    0    0  501 -0.00000000000E+00 -0.00000000000E+00 -0.38384937726E+02  0.38384937726E+02  0.00000000000E+00 0.  1.
         23    2    1    2    0    0  0.00000000000E+00  0.00000000000E+00  0.16672573670E+02  0.93442449122E+02  0.91943007266E+02 0.  0.
        -13    1    3    3    0    0 -0.36693696303E+02 -0.25515124561E+02  0.19278970174E+02  0.48673685095E+02  0.00000000000E+00 0. -1.
         13    1    3    3    0    0  0.36693696303E+02  0.25515124561E+02 -0.26063965043E+01  0.44768764027E+02  0.00000000000E+00 0.  1.
<mgrwt>
<rscale>  0 0.91943007E+02</rscale>
<asrwt>0</asrwt>
<pdfrwt beam="1">  1        2 0.84703864E-02 0.91943007E+02</pdfrwt>
<pdfrwt beam="2">  1       -2 0.59053750E-02 0.91943007E+02</pdfrwt>
<totfact> 0.10123484E+05</totfact>
</mgrwt>
</event>
<event>
 5    1  0.6046470E+000  0.9234117E+02  0.7546771E-02  0.1297279E+00
         -2   -1    0    0    0  501 -0.00000000000E+00  0.00000000000E+00  0.46675732431E+02  0.46675732431E+02  0.00000000000E+00 0.  1.
          2   -1    0    0  501    0  0.00000000000E+00 -0.00000000000E+00 -0.45670905987E+02  0.45670905987E+02  0.00000000000E+00 0. -1.
         23    2    1    2    0    0  0.00000000000E+00  0.00000000000E+00  0.10048264437E+01  0.92346638418E+02  0.92341171484E+02 0.  0.
        -13    1    3    3    0    0 -0.15047669488E+02 -0.13758214515E+02  0.41929522188E+02  0.46624088780E+02  0.00000000000E+00 0.  1.
         13    1    3    3    0    0  0.15047669488E+02  0.13758214515E+02 -0.40924695744E+02  0.45722549638E+02  0.00000000000E+00 0. -1.
<mgrwt>
<rscale>  0 0.92341171E+02</rscale>
<asrwt>0</asrwt>
<pdfrwt beam="2">  1        2 0.70262932E-02 0.92341171E+02</pdfrwt>
<pdfrwt beam="1">  1       -2 0.71808819E-02 0.92341171E+02</pdfrwt>
<totfact> 0.95183315E+04</totfact>
</mgrwt>
</event>
<event>
 5    1  0.6046470E+000  0.9353154E+02  0.7546771E-02  0.1294518E+00
         -3   -1    0    0    0  501 -0.00000000000E+00  0.00000000000E+00  0.24151437053E+02  0.24151437053E+02  0.00000000000E+00 0.  1.
          3   -1    0    0  501    0  0.00000000000E+00 -0.00000000000E+00 -0.90555164961E+02  0.90555164961E+02  0.00000000000E+00 0. -1.
         23    2    1    2    0    0  0.00000000000E+00  0.00000000000E+00 -0.66403727907E+02  0.11470660201E+03  0.93531542623E+02 0.  0.
        -13    1    3    3    0    0 -0.35260019799E+02  0.24384005666E+02 -0.10284726512E+02  0.44086554957E+02  0.00000000000E+00 0.  1.
         13    1    3    3    0    0  0.35260019799E+02 -0.24384005666E+02 -0.56119001396E+02  0.70620047056E+02  0.00000000000E+00 0. -1.
<mgrwt>
<rscale>  0 0.93531543E+02</rscale>
<asrwt>0</asrwt>
<pdfrwt beam="2">  1        3 0.13931564E-01 0.93531543E+02</pdfrwt>
<pdfrwt beam="1">  1       -3 0.37156058E-02 0.93531543E+02</pdfrwt>
<totfact> 0.31355894E+04</totfact>
</mgrwt>
</event>
<event>
 5    1  0.6046470E+000  0.9306436E+02  0.7546771E-02  0.1295596E+00
         -3   -1    0    0    0  501 -0.00000000000E+00  0.00000000000E+00  0.10384572104E+03  0.10384572104E+03  0.00000000000E+00 0.  1.
          3   -1    0    0  501    0  0.00000000000E+00 -0.00000000000E+00 -0.20850580382E+02  0.20850580382E+02  0.00000000000E+00 0. -1.
         23    2    1    2    0    0  0.00000000000E+00  0.00000000000E+00  0.82995140660E+02  0.12469630142E+03  0.93064355236E+02 0.  0.
        -13    1    3    3    0    0  0.29692103349E+02  0.11336427339E+02  0.87036360566E+02  0.92657777044E+02  0.00000000000E+00 0.  1.
         13    1    3    3    0    0 -0.29692103349E+02 -0.11336427339E+02 -0.40412199057E+01  0.32038524380E+02  0.00000000000E+00 0. -1.
<mgrwt>
<rscale>  0 0.93064355E+02</rscale>
<asrwt>0</asrwt>
<pdfrwt beam="2">  1        3 0.32077817E-02 0.93064355E+02</pdfrwt>
<pdfrwt beam="1">  1       -3 0.15976264E-01 0.93064355E+02</pdfrwt>
<totfact> 0.31143277E+04</totfact>
</mgrwt>
</event>
<event>
 5    1  0.6046470E+000  0.9227288E+02  0.7546771E-02  0.1297439E+00
          1   -1    0    0  501    0  0.00000000000E+00  0.00000000000E+00  0.13226297890E+03  0.13226297890E+03  0.00000000000E+00 0. -1.
         -1   -1    0    0    0  501 -0.00000000000E+00 -0.00000000000E+00 -0.16093477186E+02  0.16093477186E+02  0.00000000000E+00 0.  1.
         23    2    1    2    0    0  0.00000000000E+00  0.00000000000E+00  0.11616950171E+03  0.14835645608E+03  0.92272882980E+02 0.  0.
        -13    1    3    3    0    0 -0.37508195145E+02 -0.20905716728E+02  0.30958254433E+02  0.52937011745E+02  0.00000000000E+00 0.  1.
         13    1    3    3    0    0  0.37508195145E+02  0.20905716728E+02  0.85211247278E+02  0.95419444337E+02  0.00000000000E+00 0. -1.
<mgrwt>
<rscale>  0 0.92272883E+02</rscale>
<asrwt>0</asrwt>
<pdfrwt beam="1">  1        1 0.20348150E-01 0.92272883E+02</pdfrwt>
<pdfrwt beam="2">  1       -1 0.24759196E-02 0.92272883E+02</pdfrwt>
<totfact> 0.10611141E+05</totfact>
</mgrwt>
</event>
<event>
 5    1  0.6046470E+000  0.9146504E+02  0.7546771E-02  0.1299342E+00
          4   -1    0    0  501    0  0.00000000000E+00  0.00000000000E+00  0.19161362086E+02  0.19161362086E+02  0.00000000000E+00 0. -1.
         -4   -1    0    0    0  501 -0.00000000000E+00 -0.00000000000E+00 -0.10915004188E+03  0.10915004188E+03  0.00000000000E+00 0.  1.
         23    2    1    2    0    0  0.00000000000E+00  0.00000000000E+00 -0.89988679794E+02  0.12831140396E+03  0.91465041937E+02 0.  0.
        -13    1    3    3    0    0  0.33688029421E+02  0.24398314352E+02 -0.71659582860E+02  0.82856845735E+02  0.00000000000E+00 0.  1.
         13    1    3    3    0    0 -0.33688029421E+02 -0.24398314352E+02 -0.18329096934E+02  0.45454558230E+02  0.00000000000E+00 0. -1.
<mgrwt>
<rscale>  0 0.91465042E+02</rscale>
<asrwt>0</asrwt>
<pdfrwt beam="1">  1        4 0.29479018E-02 0.91465042E+02</pdfrwt>
<pdfrwt beam="2">  1       -4 0.16792314E-01 0.91465042E+02</pdfrwt>
<totfact> 0.24599082E+04</totfact>
</mgrwt>
</event>
<event>
 5    1  0.6046470E+000  0.8972668E+02  0.7546771E-02  0.1303515E+00
          1   -1    0    0  501    0  0.00000000000E+00  0.00000000000E+00  0.67355756110E+02  0.67355756110E+02  0.00000000000E+00 0. -1.
         -1   -1    0    0    0  501 -0.00000000000E+00 -0.00000000000E+00 -0.29881917826E+02  0.29881917826E+02  0.00000000000E+00 0.  1.
         23    2    1    2    0    0  0.00000000000E+00  0.00000000000E+00  0.37473838285E+02  0.97237673936E+02  0.89726677620E+02 0.  0.
        -13    1    3    3    0    0  0.36118686203E+02  0.10438911420E+02  0.45264327286E+02  0.58842074142E+02  0.00000000000E+00 0. -1.
         13    1    3    3    0    0 -0.36118686203E+02 -0.10438911420E+02 -0.77904890017E+01  0.38395599794E+02  0.00000000000E+00 0.  1.
<mgrwt>
<rscale>  0 0.89726678E+02</rscale>
<asrwt>0</asrwt>
<pdfrwt beam="1">  1        1 0.10362424E-01 0.89726678E+02</pdfrwt>
<pdfrwt beam="2">  1       -1 0.45972181E-02 0.89726678E+02</pdfrwt>
<totfact> 0.10251567E+05</totfact>
</mgrwt>
</event>
<event>
 5    1  0.6046470E+000  0.9215365E+02  0.7546771E-02  0.1297719E+00
         -1   -1    0    0    0  501 -0.00000000000E+00  0.00000000000E+00  0.37141994112E+02  0.37141994112E+02  0.00000000000E+00 0.  1.
          1   -1    0    0  501    0  0.00000000000E+00 -0.00000000000E+00 -0.57161009619E+02  0.57161009619E+02  0.00000000000E+00 0. -1.
         23    2    1    2    0    0  0.00000000000E+00  0.00000000000E+00 -0.20019015507E+02  0.94303003731E+02  0.92153651749E+02 0.  0.
        -13    1    3    3    0    0  0.10013524509E+02 -0.21103981402E+01  0.35964371895E+02  0.37391984425E+02  0.00000000000E+00 0.  1.
         13    1    3    3    0    0 -0.10013524509E+02  0.21103981402E+01 -0.55983387402E+02  0.56911019306E+02  0.00000000000E+00 0. -1.
<mgrwt>
<rscale>  0 0.92153652E+02</rscale>
<asrwt>0</asrwt>
<pdfrwt beam="2">  1        1 0.87940015E-02 0.92153652E+02</pdfrwt>
<pdfrwt beam="1">  1       -1 0.57141530E-02 0.92153652E+02</pdfrwt>
<totfact> 0.92871750E+04</totfact>
</mgrwt>
</event>
<event>
 5    1  0.6046470E+000  0.9353564E+02  0.7546771E-02  0.1294509E+00
         -1   -1    0    0    0  501 -0.00000000000E+00  0.00000000000E+00  0.45084480408E+02  0.45084480408E+02  0.00000000000E+00 0.  1.
          1   -1    0    0  501    0  0.00000000000E+00 -0.00000000000E+00 -0.48514010448E+02  0.48514010448E+02  0.00000000000E+00 0. -1.
         23    2    1    2    0    0  0.00000000000E+00  0.00000000000E+00 -0.34295300399E+01  0.93598490856E+02  0.93535639273E+02 0.  0.
        -13    1    3    3    0    0  0.14162187021E+02 -0.10690363678E+02 -0.45014819093E+02  0.48385797036E+02  0.00000000000E+00 0. -1.
         13    1    3    3    0    0 -0.14162187021E+02  0.10690363678E+02  0.41585289054E+02  0.45212693820E+02  0.00000000000E+00 0.  1.
<mgrwt>
<rscale>  0 0.93535639E+02</rscale>
<asrwt>0</asrwt>
<pdfrwt beam="2">  1        1 0.74636939E-02 0.93535639E+02</pdfrwt>
<pdfrwt beam="1">  1       -1 0.69360739E-02 0.93535639E+02</pdfrwt>
<totfact> 0.86881688E+04</totfact>
</mgrwt>
</event>
<event>
 5    1  0.6046470E+000  0.7799348E+02  0.7546771E-02  0.1334844E+00
          1   -1    0    0  501    0  0.00000000000E+00  0.00000000000E+00  0.15366138308E+03  0.15366138308E+03  0.00000000000E+00 0. -1.
         -1   -1    0    0    0  501 -0.00000000000E+00 -0.00000000000E+00 -0.98967337810E+01  0.98967337810E+01  0.00000000000E+00 0.  1.
         23    2    1    2    0    0  0.00000000000E+00  0.00000000000E+00  0.14376464930E+03  0.16355811686E+03  0.77993481797E+02 0.  0.
        -13    1    3    3    0    0 -0.33851177215E+02  0.23596561211E+01  0.11218084625E+03  0.11720073567E+03  0.00000000000E+00 0.  1.
         13    1    3    3    0    0  0.33851177215E+02 -0.23596561211E+01  0.31583803045E+02  0.46357381188E+02  0.00000000000E+00 0. -1.
<mgrwt>
<rscale>  0 0.77993482E+02</rscale>
<asrwt>0</asrwt>
<pdfrwt beam="1">  1        1 0.23640211E-01 0.77993482E+02</pdfrwt>
<pdfrwt beam="2">  1       -1 0.15225745E-02 0.77993482E+02</pdfrwt>
<totfact> 0.17092694E+05</totfact>
</mgrwt>
</event>
<event>
 5    1  0.6046470E+000  0.9040679E+02  0.7546771E-02  0.1301870E+00
          2   -1    0    0  501    0  0.00000000000E+00  0.00000000000E+00  0.40412818365E+02  0.40412818365E+02  0.00000000000E+00 0.  1.
         -2   -1    0    0    0  501 -0.00000000000E+00 -0.00000000000E+00 -0.50561847644E+02  0.50561847644E+02  0.00000000000E+00 0. -1.
         23    2    1    2    0    0  0.00000000000E+00  0.00000000000E+00 -0.10149029279E+02  0.90974666009E+02  0.90406786583E+02 0.  0.
        -13    1    3    3    0    0 -0.42398542169E+02  0.15649669904E+02 -0.41754717016E+01  0.45387036807E+02  0.00000000000E+00 0.  1.
         13    1    3    3    0    0  0.42398542169E+02 -0.15649669904E+02 -0.59735575773E+01  0.45587629203E+02  0.00000000000E+00 0. -1.
<mgrwt>
<rscale>  0 0.90406787E+02</rscale>
<asrwt>0</asrwt>
<pdfrwt beam="1">  1        2 0.62173567E-02 0.90406787E+02</pdfrwt>
<pdfrwt beam="2">  1       -2 0.77787458E-02 0.90406787E+02</pdfrwt>
<totfact> 0.98015606E+04</totfact>
</mgrwt>
</event>
<event>
 5    1  0.6046470E+000  0.8876003E+02  0.7546771E-02  0.1305883E+00
         -4   -1    0    0    0  501 -0.00000000000E+00  0.00000000000E+00  0.14199453729E+03  0.14199453729E+03  0.00000000000E+00 0.  1.
          4   -1    0    0  501    0  0.00000000000E+00 -0.00000000000E+00 -0.13870856799E+02  0.13870856799E+02  0.00000000000E+00 0. -1.
         23    2    1    2    0    0  0.00000000000E+00  0.00000000000E+00  0.12812368049E+03  0.15586539409E+03  0.88760033640E+02 0.  0.
        -13    1    3    3    0    0  0.21242375573E+02  0.12149887584E+02  0.12907598042E+03  0.13137529071E+03  0.00000000000E+00 0.  1.
         13    1    3    3    0    0 -0.21242375573E+02 -0.12149887584E+02 -0.95229992801E+00  0.24490103378E+02  0.00000000000E+00 0. -1.
<mgrwt>
<rscale>  0 0.88760034E+02</rscale>
<asrwt>0</asrwt>
<pdfrwt beam="2">  1        4 0.21339781E-02 0.88760034E+02</pdfrwt>
<pdfrwt beam="1">  1       -4 0.21845312E-01 0.88760034E+02</pdfrwt>
<totfact> 0.25127336E+04</totfact>
</mgrwt>
</event>
<event>
 5    1  0.6046470E+000  0.8404113E+02  0.7546771E-02  0.1317959E+00
          2   -1    0    0  501    0  0.00000000000E+00  0.00000000000E+00  0.19467027427E+03  0.19467027427E+03  0.00000000000E+00 0. -1.
         -2   -1    0    0    0  501 -0.00000000000E+00 -0.00000000000E+00 -0.90703511074E+01  0.90703511074E+01  0.00000000000E+00 0.  1.
         23    2    1    2    0    0  0.00000000000E+00  0.00000000000E+00  0.18559992316E+03  0.20374062537E+03  0.84041126546E+02 0.  0.
        -13    1    3    3    0    0  0.16586741645E+02 -0.37664580132E+02  0.11336896441E+03  0.12060788816E+03  0.00000000000E+00 0. -1.
         13    1    3    3    0    0 -0.16586741645E+02  0.37664580132E+02  0.72230958745E+02  0.83132737211E+02  0.00000000000E+00 0.  1.
<mgrwt>
<rscale>  0 0.84041127E+02</rscale>
<asrwt>0</asrwt>
<pdfrwt beam="1">  1        2 0.29949270E-01 0.84041127E+02</pdfrwt>
<pdfrwt beam="2">  1       -2 0.13954388E-02 0.84041127E+02</pdfrwt>
<totfact> 0.19056183E+05</totfact>
</mgrwt>
</event>
<event>
 5    1  0.6046470E+000  0.9552037E+02  0.7546771E-02  0.1290008E+00
          2   -1    0    0  501    0  0.00000000000E+00  0.00000000000E+00  0.44199422449E+02  0.44199422449E+02  0.00000000000E+00 0. -1.
         -2   -1    0    0    0  501 -0.00000000000E+00 -0.00000000000E+00 -0.51607812210E+02  0.51607812210E+02  0.00000000000E+00 0.  1.
         23    2    1    2    0    0  0.00000000000E+00  0.00000000000E+00 -0.74083897605E+01  0.95807234659E+02  0.95520374655E+02 0.  0.
        -13    1    3    3    0    0 -0.45736250549E+01  0.46413114147E+02 -0.14027834874E+02  0.48701903066E+02  0.00000000000E+00 0.  1.
         13    1    3    3    0    0  0.45736250549E+01 -0.46413114147E+02  0.66194451136E+01  0.47105331594E+02  0.00000000000E+00 0. -1.
<mgrwt>
<rscale>  0 0.95520375E+02</rscale>
<asrwt>0</asrwt>
<pdfrwt beam="1">  1        2 0.67999112E-02 0.95520375E+02</pdfrwt>
<pdfrwt beam="2">  1       -2 0.79396634E-02 0.95520375E+02</pdfrwt>
<totfact> 0.85558204E+04</totfact>
</mgrwt>
</event>
<event>
 5    1  0.6046470E+000  0.9598697E+02  0.7546771E-02  0.1288969E+00
         -1   -1    0    0    0  501 -0.00000000000E+00  0.00000000000E+00  0.96975477417E+02  0.96975477417E+02  0.00000000000E+00 0.  1.
          1   -1    0    0  501    0  0.00000000000E+00 -0.00000000000E+00 -0.23752132675E+02  0.23752132675E+02  0.00000000000E+00 0. -1.
         23    2    1    2    0    0  0.00000000000E+00  0.00000000000E+00  0.73223344742E+02  0.12072761009E+03  0.95986965902E+02 0.  0.
        -13    1    3    3    0    0 -0.35692089095E+02 -0.24151707231E+02  0.10045317190E+02  0.44250859693E+02  0.00000000000E+00 0. -1.
         13    1    3    3    0    0  0.35692089095E+02  0.24151707231E+02  0.63178027552E+02  0.76476750398E+02  0.00000000000E+00 0.  1.
<mgrwt>
<rscale>  0 0.95986966E+02</rscale>
<asrwt>0</asrwt>
<pdfrwt beam="2">  1        1 0.36541743E-02 0.95986966E+02</pdfrwt>
<pdfrwt beam="1">  1       -1 0.14919304E-01 0.95986966E+02</pdfrwt>
<totfact> 0.71677740E+04</totfact>
</mgrwt>
</event>
<event>
 5    1  0.6046470E+000  0.9103234E+02  0.7546771E-02  0.1300371E+00
          2   -1    0    0  501    0  0.00000000000E+00  0.00000000000E+00  0.60873768979E+02  0.60873768979E+02  0.00000000000E+00 0.  1.
         -2   -1    0    0    0  501 -0.00000000000E+00 -0.00000000000E+00 -0.34033075909E+02  0.34033075909E+02  0.00000000000E+00 0. -1.
         23    2    1    2    0    0  0.00000000000E+00  0.00000000000E+00  0.26840693071E+02  0.94906844888E+02  0.91032337123E+02 0.  0.
        -13    1    3    3    0    0 -0.34529061082E+01 -0.44697042357E+02  0.52129642905E+01  0.45132285038E+02  0.00000000000E+00 0. -1.
         13    1    3    3    0    0  0.34529061082E+01  0.44697042357E+02  0.21627728780E+02  0.49774559850E+02  0.00000000000E+00 0.  1.
<mgrwt>
<rscale>  0 0.91032337E+02</rscale>
<asrwt>0</asrwt>
<pdfrwt beam="1">  1        2 0.93651952E-02 0.91032337E+02</pdfrwt>
<pdfrwt beam="2">  1       -2 0.52358578E-02 0.91032337E+02</pdfrwt>
<totfact> 0.10695961E+05</totfact>
</mgrwt>
</event>
<event>
 5    1  0.6046470E+000  0.8982573E+02  0.7546771E-02  0.1303274E+00
          1   -1    0    0  501    0  0.00000000000E+00  0.00000000000E+00  0.17172177113E+03  0.17172177113E+03  0.00000000000E+00 0. -1.
         -1   -1    0    0    0  501 -0.00000000000E+00 -0.00000000000E+00 -0.11746706985E+02  0.11746706985E+02  0.00000000000E+00 0.  1.
         23    2    1    2    0    0  0.00000000000E+00  0.00000000000E+00  0.15997506415E+03  0.18346847812E+03  0.89825727461E+02 0.  0.
        -13    1    3    3    0    0 -0.29483618440E+02 -0.30609904982E+02  0.50324554272E+02  0.65869650083E+02  0.00000000000E+00 0.  1.
         13    1    3    3    0    0  0.29483618440E+02  0.30609904982E+02  0.10965050988E+03  0.11759882804E+03  0.00000000000E+00 0. -1.
<mgrwt>
<rscale>  0 0.89825727E+02</rscale>
<asrwt>0</asrwt>
<pdfrwt beam="1">  1        1 0.26418732E-01 0.89825727E+02</pdfrwt>
<pdfrwt beam="2">  1       -1 0.18071858E-02 0.89825727E+02</pdfrwt>
<totfact> 0.11969810E+05</totfact>
</mgrwt>
</event>
<event>
 5    1  0.6046470E+000  0.9158461E+02  0.7546771E-02  0.1299059E+00
          2   -1    0    0  501    0  0.00000000000E+00  0.00000000000E+00  0.14559232441E+03  0.14559232441E+03  0.00000000000E+00 0. -1.
         -2   -1    0    0    0  501 -0.00000000000E+00 -0.00000000000E+00 -0.14402785163E+02  0.14402785163E+02  0.00000000000E+00 0.  1.
         23    2    1    2    0    0  0.00000000000E+00  0.00000000000E+00  0.13118953925E+03  0.15999510958E+03  0.91584605035E+02 0.  0.
        -13    1    3    3    0    0  0.31294657453E+02  0.17856486777E+02  0.11496702223E+03  0.12048081136E+03  0.00000000000E+00 0. -1.
         13    1    3    3    0    0 -0.31294657453E+02 -0.17856486777E+02  0.16222517020E+02  0.39514298217E+02  0.00000000000E+00 0.  1.
<mgrwt>
<rscale>  0 0.91584605E+02</rscale>
<asrwt>0</asrwt>
<pdfrwt beam="1">  1        2 0.22398818E-01 0.91584605E+02</pdfrwt>
<pdfrwt beam="2">  1       -2 0.22158132E-02 0.91584605E+02</pdfrwt>
<totfact> 0.13673387E+05</totfact>
</mgrwt>
</event>
<event>
 5    1  0.6046470E+000  0.9697843E+02  0.7546771E-02  0.1286781E+00
         -2   -1    0    0    0  501 -0.00000000000E+00  0.00000000000E+00  0.18909325702E+03  0.18909325702E+03  0.00000000000E+00 0.  1.
          2   -1    0    0  501    0  0.00000000000E+00 -0.00000000000E+00 -0.12434097959E+02  0.12434097959E+02  0.00000000000E+00 0. -1.
         23    2    1    2    0    0  0.00000000000E+00  0.00000000000E+00  0.17665915907E+03  0.20152735498E+03  0.96978432265E+02 0.  0.
        -13    1    3    3    0    0 -0.26867419641E+02 -0.35631514489E+02  0.48915278841E+02  0.66213046804E+02  0.00000000000E+00 0. -1.
         13    1    3    3    0    0  0.26867419641E+02  0.35631514489E+02  0.12774388022E+03  0.13531430818E+03  0.00000000000E+00 0.  1.
<mgrwt>
<rscale>  0 0.96978432E+02</rscale>
<asrwt>0</asrwt>
<pdfrwt beam="2">  1        2 0.19129383E-02 0.96978432E+02</pdfrwt>
<pdfrwt beam="1">  1       -2 0.29091268E-01 0.96978432E+02</pdfrwt>
<totfact> 0.54523364E+04</totfact>
</mgrwt>
</event>
<event>
 5    1  0.6046470E+000  0.9215364E+02  0.7546771E-02  0.1297719E+00
          2   -1    0    0  501    0  0.00000000000E+00  0.00000000000E+00  0.73597362550E+02  0.73597362550E+02  0.00000000000E+00 0. -1.
         -2   -1    0    0    0  501 -0.00000000000E+00 -0.00000000000E+00 -0.28847137704E+02  0.28847137704E+02  0.00000000000E+00 0.  1.
         23    2    1    2    0    0  0.00000000000E+00  0.00000000000E+00  0.44750224846E+02  0.10244450025E+03  0.92153638064E+02 0.  0.
        -13    1    3    3    0    0  0.45269855473E+02 -0.60288951736E+00  0.12854253956E+02  0.47063309861E+02  0.00000000000E+00 0.  1.
         13    1    3    3    0    0 -0.45269855473E+02  0.60288951736E+00  0.31895970890E+02  0.55381190393E+02  0.00000000000E+00 0. -1.
<mgrwt>
<rscale>  0 0.92153638E+02</rscale>
<asrwt>0</asrwt>
<pdfrwt beam="1">  1        2 0.11322671E-01 0.92153638E+02</pdfrwt>
<pdfrwt beam="2">  1       -2 0.44380212E-02 0.92153638E+02</pdfrwt>
<totfact> 0.10888240E+05</totfact>
</mgrwt>
</event>
<event>
 5    1  0.6046470E+000  0.9495851E+02  0.7546771E-02  0.1291270E+00
         -2   -1    0    0    0  501 -0.00000000000E+00  0.00000000000E+00  0.89261500930E+01  0.89261500930E+01  0.00000000000E+00 0.  1.
          2   -1    0    0  501    0  0.00000000000E+00 -0.00000000000E+00 -0.25254781618E+03  0.25254781618E+03  0.00000000000E+00 0. -1.
         23    2    1    2    0    0  0.00000000000E+00  0.00000000000E+00 -0.24362166609E+03  0.26147396627E+03  0.94958511212E+02 0.  0.
        -13    1    3    3    0    0  0.39132057395E+02  0.15948860808E+02 -0.18141734073E+03  0.18627381887E+03  0.00000000000E+00 0. -1.
         13    1    3    3    0    0 -0.39132057395E+02 -0.15948860808E+02 -0.62204325356E+02  0.75200147407E+02  0.00000000000E+00 0.  1.
<mgrwt>
<rscale>  0 0.94958511E+02</rscale>
<asrwt>0</asrwt>
<pdfrwt beam="2">  1        2 0.38853508E-01 0.94958511E+02</pdfrwt>
<pdfrwt beam="1">  1       -2 0.13732539E-02 0.94958511E+02</pdfrwt>
<totfact> 0.15107176E+05</totfact>
</mgrwt>
</event>
<event>
 5    1  0.6046470E+000  0.8813057E+02  0.7546771E-02  0.1307443E+00
          2   -1    0    0  501    0  0.00000000000E+00  0.00000000000E+00  0.13218592003E+03  0.13218592003E+03  0.00000000000E+00 0. -1.
         -2   -1    0    0    0  501 -0.00000000000E+00 -0.00000000000E+00 -0.14689531265E+02  0.14689531265E+02  0.00000000000E+00 0.  1.
         23    2    1    2    0    0  0.00000000000E+00  0.00000000000E+00  0.11749638877E+03  0.14687545130E+03  0.88130566891E+02 0.  0.
        -13    1    3    3    0    0  0.42317059129E+02 -0.49809092665E+01  0.40025726696E+02  0.58460257851E+02  0.00000000000E+00 0.  1.
         13    1    3    3    0    0 -0.42317059129E+02  0.49809092665E+01  0.77470662070E+02  0.88415193445E+02  0.00000000000E+00 0. -1.
<mgrwt>
<rscale>  0 0.88130567E+02</rscale>
<asrwt>0</asrwt>
<pdfrwt beam="1">  1        2 0.20336295E-01 0.88130567E+02</pdfrwt>
<pdfrwt beam="2">  1       -2 0.22599280E-02 0.88130567E+02</pdfrwt>
<totfact> 0.14697485E+05</totfact>
</mgrwt>
</event>
<event>
 5    1  0.6046470E+000  0.9121287E+02  0.7546771E-02  0.1299941E+00
          1   -1    0    0  501    0  0.00000000000E+00  0.00000000000E+00  0.38861516322E+03  0.38861516322E+03  0.00000000000E+00 0. -1.
         -1   -1    0    0    0  501 -0.00000000000E+00 -0.00000000000E+00 -0.53522017940E+01  0.53522017940E+01  0.00000000000E+00 0.  1.
         23    2    1    2    0    0  0.00000000000E+00  0.00000000000E+00  0.38326296143E+03  0.39396736502E+03  0.91212866939E+02 0.  0.
        -13    1    3    3    0    0  0.22767784185E+02  0.36436501222E+02  0.25769647165E+03  0.26125363561E+03  0.00000000000E+00 0. -1.
         13    1    3    3    0    0 -0.22767784185E+02 -0.36436501222E+02  0.12556648978E+03  0.13271372941E+03  0.00000000000E+00 0.  1.
<mgrwt>
<rscale>  0 0.91212867E+02</rscale>
<asrwt>0</asrwt>
<pdfrwt beam="1">  1        1 0.59786926E-01 0.91212867E+02</pdfrwt>
<pdfrwt beam="2">  1       -1 0.82341597E-03 0.91212867E+02</pdfrwt>
<totfact> 0.13410618E+05</totfact>
</mgrwt>
</event>
<event>
 5    1  0.6046470E+000  0.8843085E+02  0.7546771E-02  0.1306697E+00
         -1   -1    0    0    0  501 -0.00000000000E+00  0.00000000000E+00  0.21214321728E+03  0.21214321728E+03  0.00000000000E+00 0.  1.
          1   -1    0    0  501    0  0.00000000000E+00 -0.00000000000E+00 -0.92154902159E+01  0.92154902159E+01  0.00000000000E+00 0. -1.
         23    2    1    2    0    0  0.00000000000E+00  0.00000000000E+00  0.20292772707E+03  0.22135870750E+03  0.88430848537E+02 0.  0.
        -13    1    3    3    0    0  0.38481121579E+02 -0.11027516046E+02  0.54459894058E+02  0.67589073739E+02  0.00000000000E+00 0.  1.
         13    1    3    3    0    0 -0.38481121579E+02  0.11027516046E+02  0.14846783301E+03  0.15376963376E+03  0.00000000000E+00 0. -1.
<mgrwt>
<rscale>  0 0.88430849E+02</rscale>
<asrwt>0</asrwt>
<pdfrwt beam="2">  1        1 0.14177679E-02 0.88430849E+02</pdfrwt>
<pdfrwt beam="1">  1       -1 0.32637414E-01 0.88430849E+02</pdfrwt>
<totfact> 0.73892308E+04</totfact>
</mgrwt>
</event>
<event>
 5    1  0.6046470E+000  0.9221180E+02  0.7546771E-02  0.1297582E+00
         -2   -1    0    0    0  501 -0.00000000000E+00  0.00000000000E+00  0.90086847409E+01  0.90086847409E+01  0.00000000000E+00 0.  1.
          2   -1    0    0  501    0  0.00000000000E+00 -0.00000000000E+00 -0.23596716506E+03  0.23596716506E+03  0.00000000000E+00 0. -1.
         23    2    1    2    0    0  0.00000000000E+00  0.00000000000E+00 -0.22695848032E+03  0.24497584980E+03  0.92211795323E+02 0.  0.
        -13    1    3    3    0    0 -0.42494219058E+02  0.13027861719E+02 -0.14604587523E+03  0.15265936429E+03  0.00000000000E+00 0. -1.
         13    1    3    3    0    0  0.42494219058E+02 -0.13027861719E+02 -0.80912605088E+02  0.92316485507E+02  0.00000000000E+00 0.  1.
<mgrwt>
<rscale>  0 0.92211795E+02</rscale>
<asrwt>0</asrwt>
<pdfrwt beam="2">  1        2 0.36302641E-01 0.92211795E+02</pdfrwt>
<pdfrwt beam="1">  1       -2 0.13859515E-02 0.92211795E+02</pdfrwt>
<totfact> 0.15941135E+05</totfact>
</mgrwt>
</event>
<event>
 5    1  0.6046470E+000  0.9162909E+02  0.7546771E-02  0.1298954E+00
         -2   -1    0    0    0  501 -0.00000000000E+00  0.00000000000E+00  0.26279339738E+03  0.26279339738E+03  0.00000000000E+00 0.  1.
          2   -1    0    0  501    0  0.00000000000E+00 -0.00000000000E+00 -0.79871579215E+01  0.79871579215E+01  0.00000000000E+00 0. -1.
         23    2    1    2    0    0  0.00000000000E+00  0.00000000000E+00  0.25480623946E+03  0.27078055530E+03  0.91629086334E+02 0.  0.
        -13    1    3    3    0    0 -0.16606228834E+02 -0.34545791618E+02  0.53240798802E+02  0.65603057944E+02  0.00000000000E+00 0. -1.
         13    1    3    3    0    0  0.16606228834E+02  0.34545791618E+02  0.20156544066E+03  0.20517749736E+03  0.00000000000E+00 0.  1.
<mgrwt>
<rscale>  0 0.91629086E+02</rscale>
<asrwt>0</asrwt>
<pdfrwt beam="2">  1        2 0.12287937E-02 0.91629086E+02</pdfrwt>
<pdfrwt beam="1">  1       -2 0.40429747E-01 0.91629086E+02</pdfrwt>
<totfact> 0.54079913E+04</totfact>
</mgrwt>
</event>
<event>
 5    1  0.6046470E+000  0.9075164E+02  0.7546771E-02  0.1301042E+00
         -4   -1    0    0    0  501 -0.00000000000E+00  0.00000000000E+00  0.48634647910E+02  0.48634647910E+02  0.00000000000E+00 0.  1.
          4   -1    0    0  501    0  0.00000000000E+00 -0.00000000000E+00 -0.42335353693E+02  0.42335353693E+02  0.00000000000E+00 0. -1.
         23    2    1    2    0    0  0.00000000000E+00  0.00000000000E+00  0.62992942176E+01  0.90970001603E+02  0.90751639566E+02 0.  0.
        -13    1    3    3    0    0  0.61261402490E+00  0.34155708982E+02  0.33087497648E+02  0.47558072424E+02  0.00000000000E+00 0.  1.
         13    1    3    3    0    0 -0.61261402490E+00 -0.34155708982E+02 -0.26788203431E+02  0.43411929179E+02  0.00000000000E+00 0. -1.
<mgrwt>
<rscale>  0 0.90751640E+02</rscale>
<asrwt>0</asrwt>
<pdfrwt beam="2">  1        4 0.65131313E-02 0.90751640E+02</pdfrwt>
<pdfrwt beam="1">  1       -4 0.74822535E-02 0.90751640E+02</pdfrwt>
<totfact> 0.27374498E+04</totfact>
</mgrwt>
</event>
<event>
 5    1  0.6046470E+000  0.9090485E+02  0.7546771E-02  0.1300675E+00
          1   -1    0    0  501    0  0.00000000000E+00  0.00000000000E+00  0.74226548454E+01  0.74226548454E+01  0.00000000000E+00 0. -1.
         -1   -1    0    0    0  501 -0.00000000000E+00 -0.00000000000E+00 -0.27832668013E+03  0.27832668013E+03  0.00000000000E+00 0.  1.
         23    2    1    2    0    0  0.00000000000E+00  0.00000000000E+00 -0.27090402528E+03  0.28574933497E+03  0.90904848735E+02 0.  0.
        -13    1    3    3    0    0  0.36391719163E+02 -0.25094708645E+01 -0.22068762300E+03  0.22368209945E+03  0.00000000000E+00 0.  1.
         13    1    3    3    0    0 -0.36391719163E+02  0.25094708645E+01 -0.50216402281E+02  0.62067235525E+02  0.00000000000E+00 0. -1.
<mgrwt>
<rscale>  0 0.90904849E+02</rscale>
<asrwt>0</asrwt>
<pdfrwt beam="1">  1        1 0.11419467E-02 0.90904849E+02</pdfrwt>
<pdfrwt beam="2">  1       -1 0.42819496E-01 0.90904849E+02</pdfrwt>
<totfact> 0.62835075E+04</totfact>
</mgrwt>
</event>
<event>
 5    1  0.6046470E+000  0.9242720E+02  0.7546771E-02  0.1297078E+00
         -2   -1    0    0    0  501 -0.00000000000E+00  0.00000000000E+00  0.10916358739E+02  0.10916358739E+02  0.00000000000E+00 0.  1.
          2   -1    0    0  501    0  0.00000000000E+00 -0.00000000000E+00 -0.19564186676E+03  0.19564186676E+03  0.00000000000E+00 0. -1.
         23    2    1    2    0    0  0.00000000000E+00  0.00000000000E+00 -0.18472550802E+03  0.20655822550E+03  0.92427199500E+02 0.  0.
        -13    1    3    3    0    0 -0.32892024853E+01 -0.34569158944E+02 -0.24215332624E+02  0.42334713147E+02  0.00000000000E+00 0.  1.
         13    1    3    3    0    0  0.32892024853E+01  0.34569158944E+02 -0.16051017540E+03  0.16422351235E+03  0.00000000000E+00 0. -1.
<mgrwt>
<rscale>  0 0.92427199E+02</rscale>
<asrwt>0</asrwt>
<pdfrwt beam="2">  1        2 0.30098749E-01 0.92427199E+02</pdfrwt>
<pdfrwt beam="1">  1       -2 0.16794398E-02 0.92427199E+02</pdfrwt>
<totfact> 0.14791723E+05</totfact>
</mgrwt>
</event>
<event>
 5    1  0.6046470E+000  0.7311008E+02  0.7546771E-02  0.1349825E+00
         -2   -1    0    0    0  501 -0.00000000000E+00  0.00000000000E+00  0.27000642829E+02  0.27000642829E+02  0.00000000000E+00 0. -1.
          2   -1    0    0  501    0  0.00000000000E+00 -0.00000000000E+00 -0.49490337953E+02  0.49490337953E+02  0.00000000000E+00 0.  1.
         23    2    1    2    0    0  0.00000000000E+00  0.00000000000E+00 -0.22489695124E+02  0.76490980782E+02  0.73110079703E+02 0.  0.
        -13    1    3    3    0    0 -0.33723998252E+02  0.13578494873E+02 -0.72488861610E+01  0.37070607382E+02  0.00000000000E+00 0. -1.
         13    1    3    3    0    0  0.33723998252E+02 -0.13578494873E+02 -0.15240808963E+02  0.39420373400E+02  0.00000000000E+00 0.  1.
<mgrwt>
<rscale>  0 0.73110080E+02</rscale>
<asrwt>0</asrwt>
<pdfrwt beam="2">  1        2 0.76138981E-02 0.73110080E+02</pdfrwt>
<pdfrwt beam="1">  1       -2 0.41539451E-02 0.73110080E+02</pdfrwt>
<totfact> 0.18682779E+05</totfact>
</mgrwt>
</event>
<event>
 5    1  0.6046470E+000  0.9359567E+02  0.7546771E-02  0.1294371E+00
          2   -1    0    0  501    0  0.00000000000E+00  0.00000000000E+00  0.42657927971E+03  0.42657927971E+03  0.00000000000E+00 0. -1.
         -2   -1    0    0    0  501 -0.00000000000E+00 -0.00000000000E+00 -0.51339515608E+01  0.51339515608E+01  0.00000000000E+00 0.  1.
         23    2    1    2    0    0  0.00000000000E+00  0.00000000000E+00  0.42144532815E+03  0.43171323127E+03  0.93595669961E+02 0.  0.
        -13    1    3    3    0    0 -0.41513649241E+02 -0.21564064974E+02  0.20480604405E+03  0.21008071699E+03  0.00000000000E+00 0. -1.
         13    1    3    3    0    0  0.41513649241E+02  0.21564064974E+02  0.21663928410E+03  0.22163251428E+03  0.00000000000E+00 0.  1.
<mgrwt>
<rscale>  0 0.93595670E+02</rscale>
<asrwt>0</asrwt>
<pdfrwt beam="1">  1        2 0.65627554E-01 0.93595670E+02</pdfrwt>
<pdfrwt beam="2">  1       -2 0.78983904E-03 0.93595670E+02</pdfrwt>
<totfact> 0.19049647E+05</totfact>
</mgrwt>
</event>
<event>
 5    1  0.6046470E+000  0.9294614E+02  0.7546771E-02  0.1295870E+00
          2   -1    0    0  501    0  0.00000000000E+00  0.00000000000E+00  0.60447143702E+02  0.60447143702E+02  0.00000000000E+00 0. -1.
         -2   -1    0    0    0  501 -0.00000000000E+00 -0.00000000000E+00 -0.35729503842E+02  0.35729503842E+02  0.00000000000E+00 0.  1.
         23    2    1    2    0    0  0.00000000000E+00  0.00000000000E+00  0.24717639860E+02  0.96176647545E+02  0.92946144689E+02 0.  0.
        -13    1    3    3    0    0  0.30374663555E+02  0.34436800406E+02  0.49523146252E+01  0.46184833316E+02  0.00000000000E+00 0.  1.
         13    1    3    3    0    0 -0.30374663555E+02 -0.34436800406E+02  0.19765325235E+02  0.49991814229E+02  0.00000000000E+00 0. -1.
<mgrwt>
<rscale>  0 0.92946145E+02</rscale>
<asrwt>0</asrwt>
<pdfrwt beam="1">  1        2 0.92995606E-02 0.92946145E+02</pdfrwt>
<pdfrwt beam="2">  1       -2 0.54968467E-02 0.92946145E+02</pdfrwt>
<totfact> 0.10066048E+05</totfact>
</mgrwt>
</event>
<event>
 5    1  0.6046470E+000  0.8565940E+02  0.7546771E-02  0.1313717E+00
          2   -1    0    0  501    0  0.00000000000E+00  0.00000000000E+00  0.41972170743E+02  0.41972170743E+02  0.00000000000E+00 0. -1.
         -2   -1    0    0    0  501 -0.00000000000E+00 -0.00000000000E+00 -0.43704746179E+02  0.43704746179E+02  0.00000000000E+00 0.  1.
         23    2    1    2    0    0  0.00000000000E+00  0.00000000000E+00 -0.17325754359E+01  0.85676916921E+02  0.85659396890E+02 0.  0.
        -13    1    3    3    0    0 -0.27524721317E+02  0.13058395512E+02 -0.30976449514E+02  0.43447352064E+02  0.00000000000E+00 0.  1.
         13    1    3    3    0    0  0.27524721317E+02 -0.13058395512E+02  0.29243874078E+02  0.42229564857E+02  0.00000000000E+00 0. -1.
<mgrwt>
<rscale>  0 0.85659397E+02</rscale>
<asrwt>0</asrwt>
<pdfrwt beam="1">  1        2 0.64572570E-02 0.85659397E+02</pdfrwt>
<pdfrwt beam="2">  1       -2 0.67238071E-02 0.85659397E+02</pdfrwt>
<totfact> 0.11550124E+05</totfact>
</mgrwt>
</event>
<event>
 5    1  0.6046470E+000  0.9483349E+02  0.7546771E-02  0.1291552E+00
         -1   -1    0    0    0  501 -0.00000000000E+00  0.00000000000E+00  0.12151845800E+03  0.12151845800E+03  0.00000000000E+00 0.  1.
          1   -1    0    0  501    0  0.00000000000E+00 -0.00000000000E+00 -0.18502110330E+02  0.18502110330E+02  0.00000000000E+00 0. -1.
         23    2    1    2    0    0  0.00000000000E+00  0.00000000000E+00  0.10301634767E+03  0.14002056833E+03  0.94833494444E+02 0.  0.
        -13    1    3    3    0    0 -0.47078766988E+01  0.28897511591E+02 -0.35614374254E+01  0.29494306496E+02  0.00000000000E+00 0. -1.
         13    1    3    3    0    0  0.47078766988E+01 -0.28897511591E+02  0.10657778510E+03  0.11052626184E+03  0.00000000000E+00 0.  1.
<mgrwt>
<rscale>  0 0.94833494E+02</rscale>
<asrwt>0</asrwt>
<pdfrwt beam="2">  1        1 0.28464786E-02 0.94833494E+02</pdfrwt>
<pdfrwt beam="1">  1       -1 0.18695147E-01 0.94833494E+02</pdfrwt>
<totfact> 0.70743737E+04</totfact>
</mgrwt>
</event>
<event>
 5    1  0.6046470E+000  0.8931951E+02  0.7546771E-02  0.1304508E+00
         -2   -1    0    0    0  501 -0.00000000000E+00  0.00000000000E+00  0.36256475443E+02  0.36256475443E+02  0.00000000000E+00 0.  1.
          2   -1    0    0  501    0  0.00000000000E+00 -0.00000000000E+00 -0.55010694485E+02  0.55010694485E+02  0.00000000000E+00 0. -1.
         23    2    1    2    0    0  0.00000000000E+00  0.00000000000E+00 -0.18754219042E+02  0.91267169927E+02  0.89319513963E+02 0.  0.
        -13    1    3    3    0    0 -0.36733857939E+02  0.28542949510E+01 -0.35165718540E+02  0.50932809457E+02  0.00000000000E+00 0. -1.
         13    1    3    3    0    0  0.36733857939E+02 -0.28542949510E+01  0.16411499498E+02  0.40334360470E+02  0.00000000000E+00 0.  1.
<mgrwt>
<rscale>  0 0.89319514E+02</rscale>
<asrwt>0</asrwt>
<pdfrwt beam="2">  1        2 0.84631837E-02 0.89319514E+02</pdfrwt>
<pdfrwt beam="1">  1       -2 0.55779193E-02 0.89319514E+02</pdfrwt>
<totfact> 0.10985542E+05</totfact>
</mgrwt>
</event>
<event>
 5    1  0.6046470E+000  0.9211607E+02  0.7546771E-02  0.1297807E+00
          1   -1    0    0  501    0  0.00000000000E+00  0.00000000000E+00  0.21010847385E+03  0.21010847385E+03  0.00000000000E+00 0. -1.
         -1   -1    0    0    0  501 -0.00000000000E+00 -0.00000000000E+00 -0.10096416621E+02  0.10096416621E+02  0.00000000000E+00 0.  1.
         23    2    1    2    0    0  0.00000000000E+00  0.00000000000E+00  0.20001205723E+03  0.22020489047E+03  0.92116072161E+02 0.  0.
        -13    1    3    3    0    0  0.30726794607E+02 -0.44511060925E+01  0.18133255882E+03  0.18397131608E+03  0.00000000000E+00 0. -1.
         13    1    3    3    0    0 -0.30726794607E+02  0.44511060925E+01  0.18679498408E+02  0.36233574389E+02  0.00000000000E+00 0.  1.
<mgrwt>
<rscale>  0 0.92116072E+02</rscale>
<asrwt>0</asrwt>
<pdfrwt beam="1">  1        1 0.32324377E-01 0.92116072E+02</pdfrwt>
<pdfrwt beam="2">  1       -1 0.15532950E-02 0.92116072E+02</pdfrwt>
<totfact> 0.11630378E+05</totfact>
</mgrwt>
</event>
<event>
 5    1  0.6046470E+000  0.9067537E+02  0.7546771E-02  0.1301224E+00
          3   -1    0    0  501    0  0.00000000000E+00  0.00000000000E+00  0.22257912878E+02  0.22257912878E+02  0.00000000000E+00 0. -1.
         -3   -1    0    0    0  501 -0.00000000000E+00 -0.00000000000E+00 -0.92349431474E+02  0.92349431474E+02  0.00000000000E+00 0.  1.
         23    2    1    2    0    0  0.00000000000E+00  0.00000000000E+00 -0.70091518596E+02  0.11460734435E+03  0.90675368212E+02 0.  0.
        -13    1    3    3    0    0  0.41598619482E+02  0.17924092875E+02 -0.32586009386E+02  0.55799339206E+02  0.00000000000E+00 0. -1.
         13    1    3    3    0    0 -0.41598619482E+02 -0.17924092875E+02 -0.37505509210E+02  0.58808005146E+02  0.00000000000E+00 0.  1.
<mgrwt>
<rscale>  0 0.90675368E+02</rscale>
<asrwt>0</asrwt>
<pdfrwt beam="1">  1        3 0.34242943E-02 0.90675368E+02</pdfrwt>
<pdfrwt beam="2">  1       -3 0.14207605E-01 0.90675368E+02</pdfrwt>
<totfact> 0.34128060E+04</totfact>
</mgrwt>
</event>
<event>
 5    1  0.6046470E+000  0.9006552E+02  0.7546771E-02  0.1302693E+00
         -1   -1    0    0    0  501 -0.00000000000E+00  0.00000000000E+00  0.53264786861E+01  0.53264786861E+01  0.00000000000E+00 0.  1.
          1   -1    0    0  501    0  0.00000000000E+00 -0.00000000000E+00 -0.38072986115E+03  0.38072986115E+03  0.00000000000E+00 0. -1.
         23    2    1    2    0    0  0.00000000000E+00  0.00000000000E+00 -0.37540338247E+03  0.38605633984E+03  0.90065520386E+02 0.  0.
        -13    1    3    3    0    0  0.40816377537E+02 -0.18049950333E+02 -0.16192192128E+03  0.16795977486E+03  0.00000000000E+00 0.  1.
         13    1    3    3    0    0 -0.40816377537E+02  0.18049950333E+02 -0.21348146119E+03  0.21809656498E+03  0.00000000000E+00 0. -1.
<mgrwt>
<rscale>  0 0.90065520E+02</rscale>
<asrwt>0</asrwt>
<pdfrwt beam="2">  1        1 0.58573835E-01 0.90065520E+02</pdfrwt>
<pdfrwt beam="1">  1       -1 0.81945812E-03 0.90065520E+02</pdfrwt>
<totfact> 0.13820780E+05</totfact>
</mgrwt>
</event>
<event>
 5    1  0.6046470E+000  0.9192239E+02  0.7546771E-02  0.1298262E+00
          2   -1    0    0  501    0  0.00000000000E+00  0.00000000000E+00  0.16462650759E+03  0.16462650759E+03  0.00000000000E+00 0. -1.
         -2   -1    0    0    0  501 -0.00000000000E+00 -0.00000000000E+00 -0.12831661053E+02  0.12831661053E+02  0.00000000000E+00 0.  1.
         23    2    1    2    0    0  0.00000000000E+00  0.00000000000E+00  0.15179484654E+03  0.17745816864E+03  0.91922392172E+02 0.  0.
        -13    1    3    3    0    0 -0.35048434413E+02  0.13358288153E+02  0.24616905350E+02  0.44864558910E+02  0.00000000000E+00 0.  1.
         13    1    3    3    0    0  0.35048434413E+02 -0.13358288153E+02  0.12717794119E+03  0.13259360973E+03  0.00000000000E+00 0. -1.
<mgrwt>
<rscale>  0 0.91922392E+02</rscale>
<asrwt>0</asrwt>
<pdfrwt beam="1">  1        2 0.25327154E-01 0.91922392E+02</pdfrwt>
<pdfrwt beam="2">  1       -2 0.19741018E-02 0.91922392E+02</pdfrwt>
<totfact> 0.14120283E+05</totfact>
</mgrwt>
</event>
<event>
 5    1  0.6046470E+000  0.9815972E+02  0.7546771E-02  0.1284214E+00
         -1   -1    0    0    0  501 -0.00000000000E+00  0.00000000000E+00  0.12310584931E+02  0.12310584931E+02  0.00000000000E+00 0.  1.
          1   -1    0    0  501    0  0.00000000000E+00 -0.00000000000E+00 -0.19567166621E+03  0.19567166621E+03  0.00000000000E+00 0. -1.
         23    2    1    2    0    0  0.00000000000E+00  0.00000000000E+00 -0.18336108128E+03  0.20798225114E+03  0.98159720162E+02 0.  0.
        -13    1    3    3    0    0 -0.23179747231E+02  0.43250180004E+02 -0.89611126304E+02  0.10216669080E+03  0.00000000000E+00 0.  1.
         13    1    3    3    0    0  0.23179747231E+02 -0.43250180004E+02 -0.93749954978E+02  0.10581556034E+03  0.00000000000E+00 0. -1.
<mgrwt>
<rscale>  0 0.98159720E+02</rscale>
<asrwt>0</asrwt>
<pdfrwt beam="2">  1        1 0.30103332E-01 0.98159720E+02</pdfrwt>
<pdfrwt beam="1">  1       -1 0.18939362E-02 0.98159720E+02</pdfrwt>
<totfact> 0.96637032E+04</totfact>
</mgrwt>
</event>
<event>
 5    1  0.6046470E+000  0.9040682E+02  0.7546771E-02  0.1301870E+00
         -2   -1    0    0    0  501 -0.00000000000E+00  0.00000000000E+00  0.12477320207E+02  0.12477320207E+02  0.00000000000E+00 0.  1.
          2   -1    0    0  501    0  0.00000000000E+00 -0.00000000000E+00 -0.16376497738E+03  0.16376497738E+03  0.00000000000E+00 0. -1.
         23    2    1    2    0    0  0.00000000000E+00  0.00000000000E+00 -0.15128765718E+03  0.17624229759E+03  0.90406815262E+02 0.  0.
        -13    1    3    3    0    0  0.29283106794E+02  0.22544332857E+02 -0.24898517196E+02  0.44561008135E+02  0.00000000000E+00 0.  1.
         13    1    3    3    0    0 -0.29283106794E+02 -0.22544332857E+02 -0.12638913998E+03  0.13168128946E+03  0.00000000000E+00 0. -1.
<mgrwt>
<rscale>  0 0.90406815E+02</rscale>
<asrwt>0</asrwt>
<pdfrwt beam="2">  1        2 0.25194611E-01 0.90406815E+02</pdfrwt>
<pdfrwt beam="1">  1       -2 0.19195878E-02 0.90406815E+02</pdfrwt>
<totfact> 0.14743374E+05</totfact>
</mgrwt>
</event>
<event>
 5    1  0.6046470E+000  0.8917347E+02  0.7546771E-02  0.1304866E+00
         -2   -1    0    0    0  501 -0.00000000000E+00  0.00000000000E+00  0.13921398386E+03  0.13921398386E+03  0.00000000000E+00 0. -1.
          2   -1    0    0  501    0  0.00000000000E+00 -0.00000000000E+00 -0.14280008318E+02  0.14280008318E+02  0.00000000000E+00 0.  1.
         23    2    1    2    0    0  0.00000000000E+00  0.00000000000E+00  0.12493397554E+03  0.15349399218E+03  0.89173467970E+02 0.  0.
        -13    1    3    3    0    0  0.33024329734E+02  0.71658836734E+01  0.11253336820E+03  0.11749772424E+03  0.00000000000E+00 0. -1.
         13    1    3    3    0    0 -0.33024329734E+02 -0.71658836734E+01  0.12400607348E+02  0.35996267943E+02  0.00000000000E+00 0.  1.
<mgrwt>
<rscale>  0 0.89173468E+02</rscale>
<asrwt>0</asrwt>
<pdfrwt beam="2">  1        2 0.21969245E-02 0.89173468E+02</pdfrwt>
<pdfrwt beam="1">  1       -2 0.21417535E-01 0.89173468E+02</pdfrwt>
<totfact> 0.75876444E+04</totfact>
</mgrwt>
</event>
<event>
 5    1  0.6046470E+000  0.9187937E+02  0.7546771E-02  0.1298363E+00
         -2   -1    0    0    0  501 -0.00000000000E+00  0.00000000000E+00  0.26324854143E+02  0.26324854143E+02  0.00000000000E+00 0.  1.
          2   -1    0    0  501    0  0.00000000000E+00 -0.00000000000E+00 -0.80169661321E+02  0.80169661321E+02  0.00000000000E+00 0. -1.
         23    2    1    2    0    0  0.00000000000E+00  0.00000000000E+00 -0.53844807178E+02  0.10649451546E+03  0.91879369631E+02 0.  0.
        -13    1    3    3    0    0  0.44624891891E+02 -0.19927633444E+01 -0.39357573517E+02  0.59534617452E+02  0.00000000000E+00 0.  1.
         13    1    3    3    0    0 -0.44624891891E+02  0.19927633444E+01 -0.14487233662E+02  0.46959898011E+02  0.00000000000E+00 0. -1.
<mgrwt>
<rscale>  0 0.91879370E+02</rscale>
<asrwt>0</asrwt>
<pdfrwt beam="2">  1        2 0.12333794E-01 0.91879370E+02</pdfrwt>
<pdfrwt beam="1">  1       -2 0.40499776E-02 0.91879370E+02</pdfrwt>
<totfact> 0.11249616E+05</totfact>
</mgrwt>
</event>
<event>
 5    1  0.6046470E+000  0.9323961E+02  0.7546771E-02  0.1295191E+00
         -1   -1    0    0    0  501 -0.00000000000E+00  0.00000000000E+00  0.66848987611E+02  0.66848987611E+02  0.00000000000E+00 0.  1.
          1   -1    0    0  501    0  0.00000000000E+00 -0.00000000000E+00 -0.32512177599E+02  0.32512177599E+02  0.00000000000E+00 0. -1.
         23    2    1    2    0    0  0.00000000000E+00  0.00000000000E+00  0.34336810011E+02  0.99361165210E+02  0.93239608698E+02 0.  0.
        -13    1    3    3    0    0 -0.44969032257E+01  0.44891353288E+02  0.46520536706E+01  0.45355235002E+02  0.00000000000E+00 0. -1.
         13    1    3    3    0    0  0.44969032257E+01 -0.44891353288E+02  0.29684756341E+02  0.54005930209E+02  0.00000000000E+00 0.  1.
<mgrwt>
<rscale>  0 0.93239609E+02</rscale>
<asrwt>0</asrwt>
<pdfrwt beam="2">  1        1 0.50018735E-02 0.93239609E+02</pdfrwt>
<pdfrwt beam="1">  1       -1 0.10284460E-01 0.93239609E+02</pdfrwt>
<totfact> 0.82351198E+04</totfact>
</mgrwt>
</event>
<event>
 5    1  0.6046470E+000  0.9165234E+02  0.7546771E-02  0.1298899E+00
         -2   -1    0    0    0  501 -0.00000000000E+00  0.00000000000E+00  0.17990946096E+02  0.17990946096E+02  0.00000000000E+00 0.  1.
          2   -1    0    0  501    0  0.00000000000E+00 -0.00000000000E+00 -0.11672748112E+03  0.11672748112E+03  0.00000000000E+00 0. -1.
         23    2    1    2    0    0  0.00000000000E+00  0.00000000000E+00 -0.98736535027E+02  0.13471842722E+03  0.91652339213E+02 0.  0.
        -13    1    3    3    0    0  0.10626640974E+02  0.44160648231E+02 -0.58303123525E+02  0.73907662413E+02  0.00000000000E+00 0. -1.
         13    1    3    3    0    0 -0.10626640974E+02 -0.44160648231E+02 -0.40433411502E+02  0.60810764806E+02  0.00000000000E+00 0.  1.
<mgrwt>
<rscale>  0 0.91652339E+02</rscale>
<asrwt>0</asrwt>
<pdfrwt beam="2">  1        2 0.17958074E-01 0.91652339E+02</pdfrwt>
<pdfrwt beam="1">  1       -2 0.27678378E-02 0.91652339E+02</pdfrwt>
<totfact> 0.12690209E+05</totfact>
</mgrwt>
</event>
<event>
 5    1  0.6046470E+000  0.9300535E+02  0.7546771E-02  0.1295733E+00
          3   -1    0    0  501    0  0.00000000000E+00  0.00000000000E+00  0.49527303148E+02  0.49527303148E+02  0.00000000000E+00 0. -1.
         -3   -1    0    0    0  501 -0.00000000000E+00 -0.00000000000E+00 -0.43662763752E+02  0.43662763752E+02  0.00000000000E+00 0.  1.
         23    2    1    2    0    0  0.00000000000E+00  0.00000000000E+00  0.58645393964E+01  0.93190066900E+02  0.93005353322E+02 0.  0.
        -13    1    3    3    0    0  0.14511561021E+02 -0.41128096341E+02 -0.13236482925E+02  0.45577518495E+02  0.00000000000E+00 0.  1.
         13    1    3    3    0    0 -0.14511561021E+02  0.41128096341E+02  0.19101022322E+02  0.47612548405E+02  0.00000000000E+00 0. -1.
<mgrwt>
<rscale>  0 0.93005353E+02</rscale>
<asrwt>0</asrwt>
<pdfrwt beam="1">  1        3 0.76195851E-02 0.93005353E+02</pdfrwt>
<pdfrwt beam="2">  1       -3 0.67173482E-02 0.93005353E+02</pdfrwt>
<totfact> 0.33326656E+04</totfact>
</mgrwt>
</event>
<event>
 5    1  0.6046470E+000  0.9070024E+02  0.7546771E-02  0.1301165E+00
         -4   -1    0    0    0  501 -0.00000000000E+00  0.00000000000E+00  0.48735443829E+02  0.48735443829E+02  0.00000000000E+00 0.  1.
          4   -1    0    0  501    0  0.00000000000E+00 -0.00000000000E+00 -0.42199950423E+02  0.42199950423E+02  0.00000000000E+00 0. -1.
         23    2    1    2    0    0  0.00000000000E+00  0.00000000000E+00  0.65354934055E+01  0.90935394252E+02  0.90700238444E+02 0.  0.
        -13    1    3    3    0    0 -0.42940617001E+02 -0.14580340948E+02  0.36565443481E+01  0.45495639870E+02  0.00000000000E+00 0. -1.
         13    1    3    3    0    0  0.42940617001E+02  0.14580340948E+02  0.28789490574E+01  0.45439754382E+02  0.00000000000E+00 0.  1.
<mgrwt>
<rscale>  0 0.90700238E+02</rscale>
<asrwt>0</asrwt>
<pdfrwt beam="2">  1        4 0.64923000E-02 0.90700238E+02</pdfrwt>
<pdfrwt beam="1">  1       -4 0.74977606E-02 0.90700238E+02</pdfrwt>
<totfact> 0.27418794E+04</totfact>
</mgrwt>
</event>
<event>
 5    1  0.6046470E+000  0.9590922E+02  0.7546771E-02  0.1289141E+00
          2   -1    0    0  501    0  0.00000000000E+00  0.00000000000E+00  0.10849548266E+03  0.10849548266E+03  0.00000000000E+00 0.  1.
         -2   -1    0    0    0  501 -0.00000000000E+00 -0.00000000000E+00 -0.21195763808E+02  0.21195763808E+02  0.00000000000E+00 0. -1.
         23    2    1    2    0    0  0.00000000000E+00  0.00000000000E+00  0.87299718852E+02  0.12969124647E+03  0.95909220092E+02 0.  0.
        -13    1    3    3    0    0  0.15260322623E+02 -0.43724151822E+02  0.26816603286E+02  0.53514569146E+02  0.00000000000E+00 0. -1.
         13    1    3    3    0    0 -0.15260322623E+02  0.43724151822E+02  0.60483115566E+02  0.76176677321E+02  0.00000000000E+00 0.  1.
<mgrwt>
<rscale>  0 0.95909220E+02</rscale>
<asrwt>0</asrwt>
<pdfrwt beam="1">  1        2 0.16691612E-01 0.95909220E+02</pdfrwt>
<pdfrwt beam="2">  1       -2 0.32608868E-02 0.95909220E+02</pdfrwt>
<totfact> 0.10941828E+05</totfact>
</mgrwt>
</event>
<event>
 5    1  0.6046470E+000  0.9097361E+02  0.7546771E-02  0.1300511E+00
         -1   -1    0    0    0  501 -0.00000000000E+00  0.00000000000E+00  0.28176397001E+02  0.28176397001E+02  0.00000000000E+00 0.  1.
          1   -1    0    0  501    0  0.00000000000E+00 -0.00000000000E+00 -0.73432004479E+02  0.73432004479E+02  0.00000000000E+00 0. -1.
         23    2    1    2    0    0  0.00000000000E+00  0.00000000000E+00 -0.45255607478E+02  0.10160840148E+03  0.90973607398E+02 0.  0.
        -13    1    3    3    0    0  0.13298272152E+01  0.20657153799E+02 -0.67866558443E+02  0.70953197239E+02  0.00000000000E+00 0. -1.
         13    1    3    3    0    0 -0.13298272152E+01 -0.20657153799E+02  0.22610950965E+02  0.30655204241E+02  0.00000000000E+00 0.  1.
<mgrwt>
<rscale>  0 0.90973607E+02</rscale>
<asrwt>0</asrwt>
<pdfrwt beam="2">  1        1 0.11297231E-01 0.90973607E+02</pdfrwt>
<pdfrwt beam="1">  1       -1 0.43348304E-02 0.90973607E+02</pdfrwt>
<totfact> 0.10001419E+05</totfact>
</mgrwt>
</event>
<event>
 5    1  0.6046470E+000  0.9218401E+02  0.7546771E-02  0.1297647E+00
         -2   -1    0    0    0  501 -0.00000000000E+00  0.00000000000E+00  0.23400151683E+03  0.23400151683E+03  0.00000000000E+00 0.  1.
          2   -1    0    0  501    0  0.00000000000E+00 -0.00000000000E+00 -0.90788844260E+01  0.90788844260E+01  0.00000000000E+00 0. -1.
         23    2    1    2    0    0  0.00000000000E+00  0.00000000000E+00  0.22492263241E+03  0.24308040126E+03  0.92184005702E+02 0.  0.
        -13    1    3    3    0    0 -0.33528585932E+02 -0.39002489730E+00  0.19585399459E+03  0.19870356159E+03  0.00000000000E+00 0.  1.
         13    1    3    3    0    0  0.33528585932E+02  0.39002489730E+00  0.29068637820E+02  0.44376839666E+02  0.00000000000E+00 0. -1.
<mgrwt>
<rscale>  0 0.92184006E+02</rscale>
<asrwt>0</asrwt>
<pdfrwt beam="2">  1        2 0.13967516E-02 0.92184006E+02</pdfrwt>
<pdfrwt beam="1">  1       -2 0.36000229E-01 0.92184006E+02</pdfrwt>
<totfact> 0.56409203E+04</totfact>
</mgrwt>
</event>
<event>
 5    1  0.6046470E+000  0.9261970E+02  0.7546771E-02  0.1296629E+00
         -2   -1    0    0    0  501 -0.00000000000E+00  0.00000000000E+00  0.17294886994E+02  0.17294886994E+02  0.00000000000E+00 0. -1.
          2   -1    0    0  501    0  0.00000000000E+00 -0.00000000000E+00 -0.12400210294E+03  0.12400210294E+03  0.00000000000E+00 0.  1.
         23    2    1    2    0    0  0.00000000000E+00  0.00000000000E+00 -0.10670721595E+03  0.14129698993E+03  0.92619703246E+02 0.  0.
        -13    1    3    3    0    0  0.24598023099E+02 -0.31601065210E+02 -0.17872844914E+02  0.43853490718E+02  0.00000000000E+00 0. -1.
         13    1    3    3    0    0 -0.24598023099E+02  0.31601065210E+02 -0.88834371032E+02  0.97443499216E+02  0.00000000000E+00 0.  1.
<mgrwt>
<rscale>  0 0.92619703E+02</rscale>
<asrwt>0</asrwt>
<pdfrwt beam="2">  1        2 0.19077247E-01 0.92619703E+02</pdfrwt>
<pdfrwt beam="1">  1       -2 0.26607518E-02 0.92619703E+02</pdfrwt>
<totfact> 0.12572489E+05</totfact>
</mgrwt>
</event>
<event>
 5    1  0.6046470E+000  0.9126511E+02  0.7546771E-02  0.1299817E+00
         -1   -1    0    0    0  501 -0.00000000000E+00  0.00000000000E+00  0.19528007771E+02  0.19528007771E+02  0.00000000000E+00 0.  1.
          1   -1    0    0  501    0  0.00000000000E+00 -0.00000000000E+00 -0.10663301105E+03  0.10663301105E+03  0.00000000000E+00 0. -1.
         23    2    1    2    0    0  0.00000000000E+00  0.00000000000E+00 -0.87105003274E+02  0.12616101882E+03  0.91265114220E+02 0.  0.
        -13    1    3    3    0    0  0.14265278634E+02  0.10679090636E+02 -0.10162450310E+03  0.10317500075E+03  0.00000000000E+00 0. -1.
         13    1    3    3    0    0 -0.14265278634E+02 -0.10679090636E+02  0.14519499821E+02  0.22986018062E+02  0.00000000000E+00 0.  1.
<mgrwt>
<rscale>  0 0.91265114E+02</rscale>
<asrwt>0</asrwt>
<pdfrwt beam="2">  1        1 0.16405079E-01 0.91265114E+02</pdfrwt>
<pdfrwt beam="1">  1       -1 0.30043089E-02 0.91265114E+02</pdfrwt>
<totfact> 0.10530395E+05</totfact>
</mgrwt>
</event>
<event>
 5    1  0.6046470E+000  0.9382636E+02  0.7546771E-02  0.1293841E+00
          1   -1    0    0  501    0  0.00000000000E+00  0.00000000000E+00  0.48668255949E+02  0.48668255949E+02  0.00000000000E+00 0. -1.
         -1   -1    0    0    0  501 -0.00000000000E+00 -0.00000000000E+00 -0.45221400233E+02  0.45221400233E+02  0.00000000000E+00 0.  1.
         23    2    1    2    0    0  0.00000000000E+00  0.00000000000E+00  0.34468557157E+01  0.93889656181E+02  0.93826364757E+02 0.  0.
        -13    1    3    3    0    0  0.20833258062E+02 -0.23567546153E+02 -0.33105118924E+02  0.45666210398E+02  0.00000000000E+00 0.  1.
         13    1    3    3    0    0 -0.20833258062E+02  0.23567546153E+02  0.36551974640E+02  0.48223445783E+02  0.00000000000E+00 0. -1.
<mgrwt>
<rscale>  0 0.93826365E+02</rscale>
<asrwt>0</asrwt>
<pdfrwt beam="1">  1        1 0.74874240E-02 0.93826365E+02</pdfrwt>
<pdfrwt beam="2">  1       -1 0.69571385E-02 0.93826365E+02</pdfrwt>
<totfact> 0.86168424E+04</totfact>
</mgrwt>
</event>
<event>
 5    1  0.6046470E+000  0.9165049E+02  0.7546771E-02  0.1298903E+00
          1   -1    0    0  501    0  0.00000000000E+00  0.00000000000E+00  0.67758880047E+02  0.67758880047E+02  0.00000000000E+00 0. -1.
         -1   -1    0    0    0  501 -0.00000000000E+00 -0.00000000000E+00 -0.30991557745E+02  0.30991557745E+02  0.00000000000E+00 0.  1.
         23    2    1    2    0    0  0.00000000000E+00  0.00000000000E+00  0.36767322302E+02  0.98750437793E+02  0.91650493588E+02 0.  0.
        -13    1    3    3    0    0 -0.20462913620E+02  0.37131148758E+02 -0.35622964822E+00  0.42397876615E+02  0.00000000000E+00 0.  1.
         13    1    3    3    0    0  0.20462913620E+02 -0.37131148758E+02  0.37123551950E+02  0.56352561178E+02  0.00000000000E+00 0. -1.
<mgrwt>
<rscale>  0 0.91650494E+02</rscale>
<asrwt>0</asrwt>
<pdfrwt beam="1">  1        1 0.10424443E-01 0.91650494E+02</pdfrwt>
<pdfrwt beam="2">  1       -1 0.47679320E-02 0.91650494E+02</pdfrwt>
<totfact> 0.96777460E+04</totfact>
</mgrwt>
</event>
<event>
 5    1  0.6046470E+000  0.9035921E+02  0.7546771E-02  0.1301984E+00
          2   -1    0    0  501    0  0.00000000000E+00  0.00000000000E+00  0.12847034528E+03  0.12847034528E+03  0.00000000000E+00 0. -1.
         -2   -1    0    0    0  501 -0.00000000000E+00 -0.00000000000E+00 -0.15888466459E+02  0.15888466459E+02  0.00000000000E+00 0.  1.
         23    2    1    2    0    0  0.00000000000E+00  0.00000000000E+00  0.11258187882E+03  0.14435881174E+03  0.90359211418E+02 0.  0.
        -13    1    3    3    0    0  0.32947079294E+02 -0.28620943953E+02  0.74958269888E+02  0.86737596758E+02  0.00000000000E+00 0.  1.
         13    1    3    3    0    0 -0.32947079294E+02  0.28620943953E+02  0.37623608932E+02  0.57621214980E+02  0.00000000000E+00 0. -1.
<mgrwt>
<rscale>  0 0.90359211E+02</rscale>
<asrwt>0</asrwt>
<pdfrwt beam="1">  1        2 0.19764668E-01 0.90359211E+02</pdfrwt>
<pdfrwt beam="2">  1       -2 0.24443795E-02 0.90359211E+02</pdfrwt>
<totfact> 0.13606328E+05</totfact>
</mgrwt>
</event>
<event>
 5    1  0.6046470E+000  0.9045783E+02  0.7546771E-02  0.1301747E+00
          1   -1    0    0  501    0  0.00000000000E+00  0.00000000000E+00  0.27004419324E+02  0.27004419324E+02  0.00000000000E+00 0. -1.
         -1   -1    0    0    0  501 -0.00000000000E+00 -0.00000000000E+00 -0.75752589924E+02  0.75752589924E+02  0.00000000000E+00 0.  1.
         23    2    1    2    0    0  0.00000000000E+00  0.00000000000E+00 -0.48748170600E+02  0.10275700925E+03  0.90457828919E+02 0.  0.
        -13    1    3    3    0    0  0.25003391009E+01  0.45113475605E+02 -0.22052340387E+02  0.50277063292E+02  0.00000000000E+00 0.  1.
         13    1    3    3    0    0 -0.25003391009E+01 -0.45113475605E+02 -0.26695830213E+02  0.52479945956E+02  0.00000000000E+00 0. -1.
<mgrwt>
<rscale>  0 0.90457829E+02</rscale>
<asrwt>0</asrwt>
<pdfrwt beam="1">  1        1 0.41545260E-02 0.90457829E+02</pdfrwt>
<pdfrwt beam="2">  1       -1 0.11654245E-01 0.90457829E+02</pdfrwt>
<totfact> 0.87172289E+04</totfact>
</mgrwt>
</event>
<event>
 5    1  0.6046470E+000  0.9076374E+02  0.7546771E-02  0.1301013E+00
         -1   -1    0    0    0  501 -0.00000000000E+00  0.00000000000E+00  0.27037148828E+02  0.27037148828E+02  0.00000000000E+00 0.  1.
          1   -1    0    0  501    0  0.00000000000E+00 -0.00000000000E+00 -0.76173490341E+02  0.76173490341E+02  0.00000000000E+00 0. -1.
         23    2    1    2    0    0  0.00000000000E+00  0.00000000000E+00 -0.49136341512E+02  0.10321063917E+03  0.90763737145E+02 0.  0.
        -13    1    3    3    0    0 -0.27179903081E+02  0.14343836132E+02 -0.62539313384E+02  0.69682555099E+02  0.00000000000E+00 0. -1.
         13    1    3    3    0    0  0.27179903081E+02 -0.14343836132E+02  0.13402971872E+02  0.33528084071E+02  0.00000000000E+00 0.  1.
<mgrwt>
<rscale>  0 0.90763737E+02</rscale>
<asrwt>0</asrwt>
<pdfrwt beam="2">  1        1 0.11718998E-01 0.90763737E+02</pdfrwt>
<pdfrwt beam="1">  1       -1 0.41595614E-02 0.90763737E+02</pdfrwt>
<totfact> 0.10122666E+05</totfact>
</mgrwt>
</event>
<event>
 5    1  0.6046470E+000  0.9152025E+02  0.7546771E-02  0.1299211E+00
         -2   -1    0    0    0  501 -0.00000000000E+00  0.00000000000E+00  0.15045282276E+02  0.15045282276E+02  0.00000000000E+00 0. -1.
          2   -1    0    0  501    0  0.00000000000E+00 -0.00000000000E+00 -0.13917910345E+03  0.13917910345E+03  0.00000000000E+00 0.  1.
         23    2    1    2    0    0  0.00000000000E+00  0.00000000000E+00 -0.12413382117E+03  0.15422438573E+03  0.91520246904E+02 0.  0.
        -13    1    3    3    0    0  0.37040526748E+02 -0.14291397330E+02 -0.23723256013E+02  0.46249730110E+02  0.00000000000E+00 0.  1.
         13    1    3    3    0    0 -0.37040526748E+02  0.14291397330E+02 -0.10041056516E+03  0.10797465562E+03  0.00000000000E+00 0. -1.
<mgrwt>
<rscale>  0 0.91520247E+02</rscale>
<asrwt>0</asrwt>
<pdfrwt beam="2">  1        2 0.21412171E-01 0.91520247E+02</pdfrwt>
<pdfrwt beam="1">  1       -2 0.23146587E-02 0.91520247E+02</pdfrwt>
<totfact> 0.13493654E+05</totfact>
</mgrwt>
</event>
<event>
 5    1  0.6046470E+000  0.8977903E+02  0.7546771E-02  0.1303388E+00
          3   -1    0    0  501    0  0.00000000000E+00  0.00000000000E+00  0.14121414469E+03  0.14121414469E+03  0.00000000000E+00 0. -1.
         -3   -1    0    0    0  501 -0.00000000000E+00 -0.00000000000E+00 -0.14269593269E+02  0.14269593269E+02  0.00000000000E+00 0.  1.
         23    2    1    2    0    0  0.00000000000E+00  0.00000000000E+00  0.12694455142E+03  0.15548373795E+03  0.89779026692E+02 0.  0.
        -13    1    3    3    0    0  0.25420971862E+02 -0.36757524678E+02  0.70763952798E+02  0.83695151870E+02  0.00000000000E+00 0. -1.
         13    1    3    3    0    0 -0.25420971862E+02  0.36757524678E+02  0.56180598618E+02  0.71788586084E+02  0.00000000000E+00 0.  1.
<mgrwt>
<rscale>  0 0.89779027E+02</rscale>
<asrwt>0</asrwt>
<pdfrwt beam="1">  1        3 0.21725252E-01 0.89779027E+02</pdfrwt>
<pdfrwt beam="2">  1       -3 0.21953221E-02 0.89779027E+02</pdfrwt>
<totfact> 0.32294703E+04</totfact>
</mgrwt>
</event>
<event>
 5    1  0.6046470E+000  0.9058822E+02  0.7546771E-02  0.1301433E+00
          4   -1    0    0  501    0  0.00000000000E+00  0.00000000000E+00  0.24701760004E+02  0.24701760004E+02  0.00000000000E+00 0. -1.
         -4   -1    0    0    0  501 -0.00000000000E+00 -0.00000000000E+00 -0.83053052804E+02  0.83053052804E+02  0.00000000000E+00 0.  1.
         23    2    1    2    0    0  0.00000000000E+00  0.00000000000E+00 -0.58351292800E+02  0.10775481281E+03  0.90588223913E+02 0.  0.
        -13    1    3    3    0    0 -0.37645794877E+02  0.14863980121E+02 -0.53361247848E+02  0.66974372329E+02  0.00000000000E+00 0.  1.
         13    1    3    3    0    0  0.37645794877E+02 -0.14863980121E+02 -0.49900449523E+01  0.40780440478E+02  0.00000000000E+00 0. -1.
<mgrwt>
<rscale>  0 0.90588224E+02</rscale>
<asrwt>0</asrwt>
<pdfrwt beam="1">  1        4 0.38002708E-02 0.90588224E+02</pdfrwt>
<pdfrwt beam="2">  1       -4 0.12777393E-01 0.90588224E+02</pdfrwt>
<totfact> 0.26445323E+04</totfact>
</mgrwt>
</event>
<event>
 5    1  0.6046470E+000  0.8595398E+02  0.7546771E-02  0.1312956E+00
          3   -1    0    0  501    0  0.00000000000E+00  0.00000000000E+00  0.15107875624E+02  0.15107875624E+02  0.00000000000E+00 0. -1.
         -3   -1    0    0    0  501 -0.00000000000E+00 -0.00000000000E+00 -0.12225554329E+03  0.12225554329E+03  0.00000000000E+00 0.  1.
         23    2    1    2    0    0  0.00000000000E+00  0.00000000000E+00 -0.10714766767E+03  0.13736341891E+03  0.85953977044E+02 0.  0.
        -13    1    3    3    0    0 -0.89143982886E+00  0.22476644056E+02 -0.11209647706E+03  0.11433116094E+03  0.00000000000E+00 0.  1.
         13    1    3    3    0    0  0.89143982886E+00 -0.22476644056E+02  0.49488093927E+01  0.23032257974E+02  0.00000000000E+00 0. -1.
<mgrwt>
<rscale>  0 0.85953977E+02</rscale>
<asrwt>0</asrwt>
<pdfrwt beam="1">  1        3 0.23242885E-02 0.85953977E+02</pdfrwt>
<pdfrwt beam="2">  1       -3 0.18808545E-01 0.85953977E+02</pdfrwt>
<totfact> 0.37637246E+04</totfact>
</mgrwt>
</event>
<event>
 5    1  0.6046470E+000  0.8930418E+02  0.7546771E-02  0.1304546E+00
         -2   -1    0    0    0  501 -0.00000000000E+00  0.00000000000E+00  0.48084623071E+02  0.48084623071E+02  0.00000000000E+00 0.  1.
          2   -1    0    0  501    0  0.00000000000E+00 -0.00000000000E+00 -0.41464587440E+02  0.41464587440E+02  0.00000000000E+00 0. -1.
         23    2    1    2    0    0  0.00000000000E+00  0.00000000000E+00  0.66200356316E+01  0.89549210511E+02  0.89304178129E+02 0.  0.
        -13    1    3    3    0    0  0.28283170897E+02 -0.34457321575E+02  0.58791350361E+01  0.44964530409E+02  0.00000000000E+00 0. -1.
         13    1    3    3    0    0 -0.28283170897E+02  0.34457321575E+02  0.74090059541E+00  0.44584680102E+02  0.00000000000E+00 0.  1.
<mgrwt>
<rscale>  0 0.89304178E+02</rscale>
<asrwt>0</asrwt>
<pdfrwt beam="2">  1        2 0.63791673E-02 0.89304178E+02</pdfrwt>
<pdfrwt beam="1">  1       -2 0.73976343E-02 0.89304178E+02</pdfrwt>
<totfact> 0.10221085E+05</totfact>
</mgrwt>
</event>
<event>
 5    1  0.6046470E+000  0.8347708E+02  0.7546771E-02  0.1319464E+00
         -1   -1    0    0    0  501 -0.00000000000E+00  0.00000000000E+00  0.66044847391E+01  0.66044847391E+01  0.00000000000E+00 0.  1.
          1   -1    0    0  501    0  0.00000000000E+00 -0.00000000000E+00 -0.26377615988E+03  0.26377615988E+03  0.00000000000E+00 0. -1.
         23    2    1    2    0    0  0.00000000000E+00  0.00000000000E+00 -0.25717167514E+03  0.27038064462E+03  0.83477077631E+02 0.  0.
        -13    1    3    3    0    0  0.28538818173E+02 -0.29529412266E+02 -0.15274943496E+03  0.15817344977E+03  0.00000000000E+00 0.  1.
         13    1    3    3    0    0 -0.28538818173E+02  0.29529412266E+02 -0.10442224018E+03  0.11220719485E+03  0.00000000000E+00 0. -1.
<mgrwt>
<rscale>  0 0.83477078E+02</rscale>
<asrwt>0</asrwt>
<pdfrwt beam="2">  1        1 0.40580949E-01 0.83477078E+02</pdfrwt>
<pdfrwt beam="1">  1       -1 0.10160746E-02 0.83477078E+02</pdfrwt>
<totfact> 0.15796986E+05</totfact>
</mgrwt>
</event>
<event>
 5    1  0.6046470E+000  0.8894616E+02  0.7546771E-02  0.1305424E+00
          2   -1    0    0  501    0  0.00000000000E+00  0.00000000000E+00  0.12100583298E+03  0.12100583298E+03  0.00000000000E+00 0.  1.
         -2   -1    0    0    0  501 -0.00000000000E+00 -0.00000000000E+00 -0.16345121252E+02  0.16345121252E+02  0.00000000000E+00 0. -1.
         23    2    1    2    0    0  0.00000000000E+00  0.00000000000E+00  0.10466071173E+03  0.13735095423E+03  0.88946163767E+02 0.  0.
        -13    1    3    3    0    0  0.20412269215E+02  0.26659217125E+02  0.72967607345E+01  0.34360112186E+02  0.00000000000E+00 0.  1.
         13    1    3    3    0    0 -0.20412269215E+02 -0.26659217125E+02  0.97363950991E+02  0.10299084204E+03  0.00000000000E+00 0. -1.
<mgrwt>
<rscale>  0 0.88946164E+02</rscale>
<asrwt>0</asrwt>
<pdfrwt beam="1">  1        2 0.18616281E-01 0.88946164E+02</pdfrwt>
<pdfrwt beam="2">  1       -2 0.25146341E-02 0.88946164E+02</pdfrwt>
<totfact> 0.13930945E+05</totfact>
</mgrwt>
</event>
<event>
 5    1  0.6046470E+000  0.9087294E+02  0.7546771E-02  0.1300751E+00
         -1   -1    0    0    0  501 -0.00000000000E+00  0.00000000000E+00  0.54755606355E+02  0.54755606355E+02  0.00000000000E+00 0.  1.
          1   -1    0    0  501    0  0.00000000000E+00 -0.00000000000E+00 -0.37703409020E+02  0.37703409020E+02  0.00000000000E+00 0. -1.
         23    2    1    2    0    0  0.00000000000E+00  0.00000000000E+00  0.17052197335E+02  0.92459015376E+02  0.90872944765E+02 0.  0.
        -13    1    3    3    0    0 -0.24490144790E+02  0.22459713407E+02  0.40055134368E+02  0.52044401307E+02  0.00000000000E+00 0.  1.
         13    1    3    3    0    0  0.24490144790E+02 -0.22459713407E+02 -0.23002937033E+02  0.40414614069E+02  0.00000000000E+00 0. -1.
<mgrwt>
<rscale>  0 0.90872945E+02</rscale>
<asrwt>0</asrwt>
<pdfrwt beam="2">  1        1 0.58005245E-02 0.90872945E+02</pdfrwt>
<pdfrwt beam="1">  1       -1 0.84239395E-02 0.90872945E+02</pdfrwt>
<totfact> 0.90703004E+04</totfact>
</mgrwt>
</event>
<event>
 5    1  0.6046470E+000  0.9203048E+02  0.7546771E-02  0.1298008E+00
         -2   -1    0    0    0  501 -0.00000000000E+00  0.00000000000E+00  0.59908916487E+02  0.59908916487E+02  0.00000000000E+00 0.  1.
          2   -1    0    0  501    0  0.00000000000E+00 -0.00000000000E+00 -0.35343689825E+02  0.35343689825E+02  0.00000000000E+00 0. -1.
         23    2    1    2    0    0  0.00000000000E+00  0.00000000000E+00  0.24565226662E+02  0.95252606311E+02  0.92030476736E+02 0.  0.
        -13    1    3    3    0    0  0.45667697982E+02 -0.35315620505E+01  0.77248482674E+01  0.46450875667E+02  0.00000000000E+00 0.  1.
         13    1    3    3    0    0 -0.45667697982E+02  0.35315620505E+01  0.16840378395E+02  0.48801730645E+02  0.00000000000E+00 0. -1.
<mgrwt>
<rscale>  0 0.92030477E+02</rscale>
<asrwt>0</asrwt>
<pdfrwt beam="2">  1        2 0.54374907E-02 0.92030477E+02</pdfrwt>
<pdfrwt beam="1">  1       -2 0.92167564E-02 0.92030477E+02</pdfrwt>
<totfact> 0.89883561E+04</totfact>
</mgrwt>
</event>
<event>
 5    1  0.6046470E+000  0.1023339E+03  0.7546771E-02  0.1275463E+00
          1   -1    0    0  501    0  0.00000000000E+00  0.00000000000E+00  0.10608958633E+03  0.10608958633E+03  0.00000000000E+00 0. -1.
         -1   -1    0    0    0  501 -0.00000000000E+00 -0.00000000000E+00 -0.24677770638E+02  0.24677770638E+02  0.00000000000E+00 0.  1.
         23    2    1    2    0    0  0.00000000000E+00  0.00000000000E+00  0.81411815696E+02  0.13076735697E+03  0.10233385517E+03 0.  0.
        -13    1    3    3    0    0 -0.29866864493E+02 -0.31457798201E+02  0.75383288222E+02  0.86972770483E+02  0.00000000000E+00 0. -1.
         13    1    3    3    0    0  0.29866864493E+02  0.31457798201E+02  0.60285274743E+01  0.43794586490E+02  0.00000000000E+00 0.  1.
<mgrwt>
<rscale>  0 0.10233386E+03</rscale>
<asrwt>0</asrwt>
<pdfrwt beam="1">  1        1 0.16321475E-01 0.10233386E+03</pdfrwt>
<pdfrwt beam="2">  1       -1 0.37965801E-02 0.10233386E+03</pdfrwt>
<totfact> 0.76854839E+04</totfact>
</mgrwt>
</event>
<event>
 5    1  0.6046470E+000  0.9206280E+02  0.7546771E-02  0.1297932E+00
          4   -1    0    0  501    0  0.00000000000E+00  0.00000000000E+00  0.40294506002E+02  0.40294506002E+02  0.00000000000E+00 0. -1.
         -4   -1    0    0    0  501 -0.00000000000E+00 -0.00000000000E+00 -0.52585073584E+02  0.52585073584E+02  0.00000000000E+00 0.  1.
         23    2    1    2    0    0  0.00000000000E+00  0.00000000000E+00 -0.12290567582E+02  0.92879579587E+02  0.92062795160E+02 0.  0.
        -13    1    3    3    0    0  0.51824783900E+01 -0.12737493036E+02 -0.50464376111E+02  0.52304445962E+02  0.00000000000E+00 0.  1.
         13    1    3    3    0    0 -0.51824783900E+01  0.12737493036E+02  0.38173808529E+02  0.40575133625E+02  0.00000000000E+00 0. -1.
<mgrwt>
<rscale>  0 0.92062795E+02</rscale>
<asrwt>0</asrwt>
<pdfrwt beam="1">  1        4 0.61991548E-02 0.92062795E+02</pdfrwt>
<pdfrwt beam="2">  1       -4 0.80900113E-02 0.92062795E+02</pdfrwt>
<totfact> 0.26208501E+04</totfact>
</mgrwt>
</event>
<event>
 5    1  0.6046470E+000  0.8971471E+02  0.7546771E-02  0.1303544E+00
          4   -1    0    0  501    0  0.00000000000E+00  0.00000000000E+00  0.12816966735E+03  0.12816966735E+03  0.00000000000E+00 0. -1.
         -4   -1    0    0    0  501 -0.00000000000E+00 -0.00000000000E+00 -0.15699363401E+02  0.15699363401E+02  0.00000000000E+00 0.  1.
         23    2    1    2    0    0  0.00000000000E+00  0.00000000000E+00  0.11247030395E+03  0.14386903075E+03  0.89714707484E+02 0.  0.
        -13    1    3    3    0    0  0.65952581652E+01 -0.40253335325E+02  0.86165648199E+02  0.95332824172E+02  0.00000000000E+00 0. -1.
         13    1    3    3    0    0 -0.65952581652E+01  0.40253335325E+02  0.26304655751E+02  0.48536206580E+02  0.00000000000E+00 0.  1.
<mgrwt>
<rscale>  0 0.89714707E+02</rscale>
<asrwt>0</asrwt>
<pdfrwt beam="1">  1        4 0.19718410E-01 0.89714707E+02</pdfrwt>
<pdfrwt beam="2">  1       -4 0.24152868E-02 0.89714707E+02</pdfrwt>
<totfact> 0.25048796E+04</totfact>
</mgrwt>
</event>
<event>
 5    1  0.6046470E+000  0.9084329E+02  0.7546771E-02  0.1300822E+00
         -1   -1    0    0    0  501 -0.00000000000E+00  0.00000000000E+00  0.97997919034E+02  0.97997919034E+02  0.00000000000E+00 0.  1.
          1   -1    0    0  501    0  0.00000000000E+00 -0.00000000000E+00 -0.21052751663E+02  0.21052751663E+02  0.00000000000E+00 0. -1.
         23    2    1    2    0    0  0.00000000000E+00  0.00000000000E+00  0.76945167371E+02  0.11905067070E+03  0.90843290404E+02 0.  0.
        -13    1    3    3    0    0  0.70572861871E+01  0.20518235346E+02  0.90766903360E+02  0.93324348461E+02  0.00000000000E+00 0.  1.
         13    1    3    3    0    0 -0.70572861871E+01 -0.20518235346E+02 -0.13821735989E+02  0.25726322236E+02  0.00000000000E+00 0. -1.
<mgrwt>
<rscale>  0 0.90843290E+02</rscale>
<asrwt>0</asrwt>
<pdfrwt beam="2">  1        1 0.32388849E-02 0.90843290E+02</pdfrwt>
<pdfrwt beam="1">  1       -1 0.15076603E-01 0.90843290E+02</pdfrwt>
<totfact> 0.82449706E+04</totfact>
</mgrwt>
</event>
<event>
 5    1  0.6046470E+000  0.8576281E+02  0.7546771E-02  0.1313450E+00
          2   -1    0    0  501    0  0.00000000000E+00  0.00000000000E+00  0.51963265692E+02  0.51963265692E+02  0.00000000000E+00 0. -1.
         -2   -1    0    0    0  501 -0.00000000000E+00 -0.00000000000E+00 -0.35386823616E+02  0.35386823616E+02  0.00000000000E+00 0.  1.
         23    2    1    2    0    0  0.00000000000E+00  0.00000000000E+00  0.16576442076E+02  0.87350089308E+02  0.85762810531E+02 0.  0.
        -13    1    3    3    0    0 -0.25194408843E+01 -0.27006425881E+02 -0.25539737229E+02  0.37255506961E+02  0.00000000000E+00 0.  1.
         13    1    3    3    0    0  0.25194408843E+01  0.27006425881E+02  0.42116179305E+02  0.50094582347E+02  0.00000000000E+00 0. -1.
<mgrwt>
<rscale>  0 0.85762811E+02</rscale>
<asrwt>0</asrwt>
<pdfrwt beam="1">  1        2 0.79943486E-02 0.85762811E+02</pdfrwt>
<pdfrwt beam="2">  1       -2 0.54441267E-02 0.85762811E+02</pdfrwt>
<totfact> 0.12138586E+05</totfact>
</mgrwt>
</event>
<event>
 5    1  0.6046470E+000  0.8824917E+02  0.7546771E-02  0.1307148E+00
          1   -1    0    0  501    0  0.00000000000E+00  0.00000000000E+00  0.28386748930E+03  0.28386748930E+03  0.00000000000E+00 0. -1.
         -1   -1    0    0    0  501 -0.00000000000E+00 -0.00000000000E+00 -0.68587601809E+01  0.68587601809E+01  0.00000000000E+00 0.  1.
         23    2    1    2    0    0  0.00000000000E+00  0.00000000000E+00  0.27700872912E+03  0.29072624949E+03  0.88249170700E+02 0.  0.
        -13    1    3    3    0    0 -0.38725450158E+02 -0.22398746489E+01  0.69220385652E+02  0.79348215596E+02  0.00000000000E+00 0.  1.
         13    1    3    3    0    0  0.38725450158E+02  0.22398746489E+01  0.20778834347E+03  0.21137803389E+03  0.00000000000E+00 0. -1.
<mgrwt>
<rscale>  0 0.88249171E+02</rscale>
<asrwt>0</asrwt>
<pdfrwt beam="1">  1        1 0.43671912E-01 0.88249171E+02</pdfrwt>
<pdfrwt beam="2">  1       -1 0.10551941E-02 0.88249171E+02</pdfrwt>
<totfact> 0.13826884E+05</totfact>
</mgrwt>
</event>
<event>
 5    1  0.6046470E+000  0.9149094E+02  0.7546771E-02  0.1299281E+00
         -1   -1    0    0    0  501 -0.00000000000E+00  0.00000000000E+00  0.46754310767E+02  0.46754310767E+02  0.00000000000E+00 0. -1.
          1   -1    0    0  501    0  0.00000000000E+00 -0.00000000000E+00 -0.44758396279E+02  0.44758396279E+02  0.00000000000E+00 0.  1.
         23    2    1    2    0    0  0.00000000000E+00  0.00000000000E+00  0.19959144879E+01  0.91512707046E+02  0.91490938766E+02 0.  0.
        -13    1    3    3    0    0 -0.30621227298E+02  0.33483862416E+02  0.68147828964E+01  0.45883219911E+02  0.00000000000E+00 0. -1.
         13    1    3    3    0    0  0.30621227298E+02 -0.33483862416E+02 -0.48188684085E+01  0.45629487135E+02  0.00000000000E+00 0.  1.
<mgrwt>
<rscale>  0 0.91490939E+02</rscale>
<asrwt>0</asrwt>
<pdfrwt beam="2">  1        1 0.68859071E-02 0.91490939E+02</pdfrwt>
<pdfrwt beam="1">  1       -1 0.71929709E-02 0.91490939E+02</pdfrwt>
<totfact> 0.91329251E+04</totfact>
</mgrwt>
</event>
<event>
 5    1  0.6046470E+000  0.9189008E+02  0.7546771E-02  0.1298338E+00
          3   -1    0    0  501    0  0.00000000000E+00  0.00000000000E+00  0.84555239614E+01  0.84555239614E+01  0.00000000000E+00 0. -1.
         -3   -1    0    0    0  501 -0.00000000000E+00 -0.00000000000E+00 -0.24965295849E+03  0.24965295849E+03  0.00000000000E+00 0.  1.
         23    2    1    2    0    0  0.00000000000E+00  0.00000000000E+00 -0.24119743452E+03  0.25810848245E+03  0.91890077212E+02 0.  0.
        -13    1    3    3    0    0 -0.38409042249E+02  0.86921697212E+01 -0.18707722603E+03  0.19117713472E+03  0.00000000000E+00 0.  1.
         13    1    3    3    0    0  0.38409042249E+02 -0.86921697212E+01 -0.54120208493E+02  0.66931347725E+02  0.00000000000E+00 0. -1.
<mgrwt>
<rscale>  0 0.91890077E+02</rscale>
<asrwt>0</asrwt>
<pdfrwt beam="1">  1        3 0.13008497E-02 0.91890077E+02</pdfrwt>
<pdfrwt beam="2">  1       -3 0.38408152E-01 0.91890077E+02</pdfrwt>
<totfact> 0.25208242E+04</totfact>
</mgrwt>
</event>
<event>
 5    1  0.6046470E+000  0.9079534E+02  0.7546771E-02  0.1300937E+00
         -1   -1    0    0    0  501 -0.00000000000E+00  0.00000000000E+00  0.19922974177E+02  0.19922974177E+02  0.00000000000E+00 0.  1.
          1   -1    0    0  501    0  0.00000000000E+00 -0.00000000000E+00 -0.10344581280E+03  0.10344581280E+03  0.00000000000E+00 0. -1.
         23    2    1    2    0    0  0.00000000000E+00  0.00000000000E+00 -0.83522838620E+02  0.12336878697E+03  0.90795335939E+02 0.  0.
        -13    1    3    3    0    0 -0.10178743547E+02  0.34552321983E+02 -0.42174526537E+01  0.36266467729E+02  0.00000000000E+00 0.  1.
         13    1    3    3    0    0  0.10178743547E+02 -0.34552321983E+02 -0.79305385966E+02  0.87102319245E+02  0.00000000000E+00 0. -1.
<mgrwt>
<rscale>  0 0.90795336E+02</rscale>
<asrwt>0</asrwt>
<pdfrwt beam="2">  1        1 0.15914740E-01 0.90795336E+02</pdfrwt>
<pdfrwt beam="1">  1       -1 0.30650729E-02 0.90795336E+02</pdfrwt>
<totfact> 0.10624996E+05</totfact>
</mgrwt>
</event>
<event>
 5    1  0.6046470E+000  0.9308844E+02  0.7546771E-02  0.1295540E+00
          1   -1    0    0  501    0  0.00000000000E+00  0.00000000000E+00  0.48945988268E+02  0.48945988268E+02  0.00000000000E+00 0. -1.
         -1   -1    0    0    0  501 -0.00000000000E+00 -0.00000000000E+00 -0.44260303348E+02  0.44260303348E+02  0.00000000000E+00 0.  1.
         23    2    1    2    0    0  0.00000000000E+00  0.00000000000E+00  0.46856849198E+01  0.93206291615E+02  0.93088437271E+02 0.  0.
        -13    1    3    3    0    0  0.19779823959E+02 -0.27764944680E+02  0.34072562216E+02  0.48198268484E+02  0.00000000000E+00 0. -1.
         13    1    3    3    0    0 -0.19779823959E+02  0.27764944680E+02 -0.29386877296E+02  0.45008023131E+02  0.00000000000E+00 0.  1.
<mgrwt>
<rscale>  0 0.93088437E+02</rscale>
<asrwt>0</asrwt>
<pdfrwt beam="1">  1        1 0.75301520E-02 0.93088437E+02</pdfrwt>
<pdfrwt beam="2">  1       -1 0.68092775E-02 0.93088437E+02</pdfrwt>
<totfact> 0.88179734E+04</totfact>
</mgrwt>
</event>
<event>
 5    1  0.6046470E+000  0.6409452E+02  0.7546771E-02  0.1381410E+00
         -3   -1    0    0    0  501 -0.00000000000E+00  0.00000000000E+00  0.15214725232E+03  0.15214725232E+03  0.00000000000E+00 0.  1.
          3   -1    0    0  501    0  0.00000000000E+00 -0.00000000000E+00 -0.67502155508E+01  0.67502155508E+01  0.00000000000E+00 0. -1.
         23    2    1    2    0    0  0.00000000000E+00  0.00000000000E+00  0.14539703677E+03  0.15889746787E+03  0.64094516102E+02 0.  0.
        -13    1    3    3    0    0  0.10803723866E+02  0.30171272307E+02  0.72636461915E+02  0.79391949980E+02  0.00000000000E+00 0.  1.
         13    1    3    3    0    0 -0.10803723866E+02 -0.30171272307E+02  0.72760574850E+02  0.79505517887E+02  0.00000000000E+00 0. -1.
<mgrwt>
<rscale>  0 0.64094516E+02</rscale>
<asrwt>0</asrwt>
<pdfrwt beam="2">  1        3 0.10384948E-02 0.64094516E+02</pdfrwt>
<pdfrwt beam="1">  1       -3 0.23407267E-01 0.64094516E+02</pdfrwt>
<totfact> 0.78182953E+04</totfact>
</mgrwt>
</event>
<event>
 5    1  0.6046470E+000  0.8737103E+02  0.7546771E-02  0.1309346E+00
          1   -1    0    0  501    0  0.00000000000E+00  0.00000000000E+00  0.43523104729E+02  0.43523104729E+02  0.00000000000E+00 0. -1.
         -1   -1    0    0    0  501 -0.00000000000E+00 -0.00000000000E+00 -0.43848530948E+02  0.43848530948E+02  0.00000000000E+00 0.  1.
         23    2    1    2    0    0  0.00000000000E+00  0.00000000000E+00 -0.32542621885E+00  0.87371635676E+02  0.87371029630E+02 0.  0.
        -13    1    3    3    0    0 -0.37460425763E+02  0.13372006630E+02  0.17902022486E+02  0.43618533547E+02  0.00000000000E+00 0. -1.
         13    1    3    3    0    0  0.37460425763E+02 -0.13372006630E+02 -0.18227448705E+02  0.43753102130E+02  0.00000000000E+00 0.  1.
<mgrwt>
<rscale>  0 0.87371030E+02</rscale>
<asrwt>0</asrwt>
<pdfrwt beam="1">  1        1 0.66958623E-02 0.87371030E+02</pdfrwt>
<pdfrwt beam="2">  1       -1 0.67459278E-02 0.87371030E+02</pdfrwt>
<totfact> 0.10347671E+05</totfact>
</mgrwt>
</event>
<event>
 5    1  0.6046470E+000  0.9222781E+02  0.7546771E-02  0.1297545E+00
         -1   -1    0    0    0  501 -0.00000000000E+00  0.00000000000E+00  0.12785356934E+02  0.12785356934E+02  0.00000000000E+00 0.  1.
          1   -1    0    0  501    0  0.00000000000E+00 -0.00000000000E+00 -0.16632247780E+03  0.16632247780E+03  0.00000000000E+00 0. -1.
         23    2    1    2    0    0  0.00000000000E+00  0.00000000000E+00 -0.15353712087E+03  0.17910783474E+03  0.92227810227E+02 0.  0.
        -13    1    3    3    0    0  0.39918305119E+02  0.84366933433E+01 -0.11850352427E+03  0.12533049965E+03  0.00000000000E+00 0. -1.
         13    1    3    3    0    0 -0.39918305119E+02 -0.84366933433E+01 -0.35033596595E+02  0.53777335082E+02  0.00000000000E+00 0.  1.
<mgrwt>
<rscale>  0 0.92227810E+02</rscale>
<asrwt>0</asrwt>
<pdfrwt beam="2">  1        1 0.25588073E-01 0.92227810E+02</pdfrwt>
<pdfrwt beam="1">  1       -1 0.19669781E-02 0.92227810E+02</pdfrwt>
<totfact> 0.11082771E+05</totfact>
</mgrwt>
</event>
<event>
 5    1  0.6046470E+000  0.8754801E+02  0.7546771E-02  0.1308901E+00
          2   -1    0    0  501    0  0.00000000000E+00  0.00000000000E+00  0.18446007950E+02  0.18446007950E+02  0.00000000000E+00 0. -1.
         -2   -1    0    0    0  501 -0.00000000000E+00 -0.00000000000E+00 -0.10387958652E+03  0.10387958652E+03  0.00000000000E+00 0.  1.
         23    2    1    2    0    0  0.00000000000E+00  0.00000000000E+00 -0.85433578570E+02  0.12232559447E+03  0.87548013771E+02 0.  0.
        -13    1    3    3    0    0  0.34413560433E+02  0.29797395536E+01 -0.80286486072E+02  0.87401898351E+02  0.00000000000E+00 0.  1.
         13    1    3    3    0    0 -0.34413560433E+02 -0.29797395536E+01 -0.51470924981E+01  0.34923696120E+02  0.00000000000E+00 0. -1.
<mgrwt>
<rscale>  0 0.87548014E+02</rscale>
<asrwt>0</asrwt>
<pdfrwt beam="1">  1        2 0.28378474E-02 0.87548014E+02</pdfrwt>
<pdfrwt beam="2">  1       -2 0.15981475E-01 0.87548014E+02</pdfrwt>
<totfact> 0.87299856E+04</totfact>
</mgrwt>
</event>
<event>
 5    1  0.6046470E+000  0.9380612E+02  0.7546771E-02  0.1293888E+00
         -2   -1    0    0    0  501 -0.00000000000E+00  0.00000000000E+00  0.19366105324E+03  0.19366105324E+03  0.00000000000E+00 0. -1.
          2   -1    0    0  501    0  0.00000000000E+00 -0.00000000000E+00 -0.11359523370E+02  0.11359523370E+02  0.00000000000E+00 0.  1.
         23    2    1    2    0    0  0.00000000000E+00  0.00000000000E+00  0.18230152987E+03  0.20502057661E+03  0.93806124749E+02 0.  0.
        -13    1    3    3    0    0  0.17855731876E+02  0.24148101794E+02  0.12411121591E+02  0.32496060073E+02  0.00000000000E+00 0.  1.
         13    1    3    3    0    0 -0.17855731876E+02 -0.24148101794E+02  0.16989040828E+03  0.17252451654E+03  0.00000000000E+00 0. -1.
<mgrwt>
<rscale>  0 0.93806125E+02</rscale>
<asrwt>0</asrwt>
<pdfrwt beam="2">  1        2 0.17476191E-02 0.93806125E+02</pdfrwt>
<pdfrwt beam="1">  1       -2 0.29794006E-01 0.93806125E+02</pdfrwt>
<totfact> 0.58759750E+04</totfact>
</mgrwt>
</event>
<event>
 5    1  0.6046470E+000  0.9190913E+02  0.7546771E-02  0.1298293E+00
          2   -1    0    0  501    0  0.00000000000E+00  0.00000000000E+00  0.11161383804E+03  0.11161383804E+03  0.00000000000E+00 0. -1.
         -2   -1    0    0    0  501 -0.00000000000E+00 -0.00000000000E+00 -0.18920792361E+02  0.18920792361E+02  0.00000000000E+00 0.  1.
         23    2    1    2    0    0  0.00000000000E+00  0.00000000000E+00  0.92693045679E+02  0.13053463040E+03  0.91909134566E+02 0.  0.
        -13    1    3    3    0    0  0.22165001846E+02  0.35468490181E+02  0.73388207407E+02  0.84469699236E+02  0.00000000000E+00 0. -1.
         13    1    3    3    0    0 -0.22165001846E+02 -0.35468490181E+02  0.19304838272E+02  0.46064931165E+02  0.00000000000E+00 0.  1.
<mgrwt>
<rscale>  0 0.91909135E+02</rscale>
<asrwt>0</asrwt>
<pdfrwt beam="1">  1        2 0.17171359E-01 0.91909135E+02</pdfrwt>
<pdfrwt beam="2">  1       -2 0.29108912E-02 0.91909135E+02</pdfrwt>
<totfact> 0.12415897E+05</totfact>
</mgrwt>
</event>
<event>
 5    1  0.6046470E+000  0.8086613E+02  0.7546771E-02  0.1326611E+00
         -2   -1    0    0    0  501 -0.00000000000E+00  0.00000000000E+00  0.47609030116E+02  0.47609030116E+02  0.00000000000E+00 0.  1.
          2   -1    0    0  501    0  0.00000000000E+00 -0.00000000000E+00 -0.34338711723E+02  0.34338711723E+02  0.00000000000E+00 0. -1.
         23    2    1    2    0    0  0.00000000000E+00  0.00000000000E+00  0.13270318393E+02  0.81947741839E+02  0.80866130378E+02 0.  0.
        -13    1    3    3    0    0 -0.24823120325E+02  0.38482085992E+01  0.38742317852E+02  0.46173187075E+02  0.00000000000E+00 0.  1.
         13    1    3    3    0    0  0.24823120325E+02 -0.38482085992E+01 -0.25471999459E+02  0.35774554764E+02  0.00000000000E+00 0. -1.
<mgrwt>
<rscale>  0 0.80866130E+02</rscale>
<asrwt>0</asrwt>
<pdfrwt beam="2">  1        2 0.52828787E-02 0.80866130E+02</pdfrwt>
<pdfrwt beam="1">  1       -2 0.73244662E-02 0.80866130E+02</pdfrwt>
<totfact> 0.12969736E+05</totfact>
</mgrwt>
</event>
<event>
 5    1  0.6046470E+000  0.9104237E+02  0.7546771E-02  0.1300347E+00
          1   -1    0    0  501    0  0.00000000000E+00  0.00000000000E+00  0.11257493228E+02  0.11257493228E+02  0.00000000000E+00 0. -1.
         -1   -1    0    0    0  501 -0.00000000000E+00 -0.00000000000E+00 -0.18407103938E+03  0.18407103938E+03  0.00000000000E+00 0.  1.
         23    2    1    2    0    0  0.00000000000E+00  0.00000000000E+00 -0.17281354615E+03  0.19532853260E+03  0.91042374294E+02 0.  0.
        -13    1    3    3    0    0 -0.62499883472E+00  0.31842186758E+02 -0.16625831429E+02  0.35926783209E+02  0.00000000000E+00 0. -1.
         13    1    3    3    0    0  0.62499883472E+00 -0.31842186758E+02 -0.15618771472E+03  0.15940174940E+03  0.00000000000E+00 0.  1.
<mgrwt>
<rscale>  0 0.91042374E+02</rscale>
<asrwt>0</asrwt>
<pdfrwt beam="1">  1        1 0.17319222E-02 0.91042374E+02</pdfrwt>
<pdfrwt beam="2">  1       -1 0.28318619E-01 0.91042374E+02</pdfrwt>
<totfact> 0.71316817E+04</totfact>
</mgrwt>
</event>
<event>
 5    1  0.6046470E+000  0.9175516E+02  0.7546771E-02  0.1298656E+00
          1   -1    0    0  501    0  0.00000000000E+00  0.00000000000E+00  0.21492148357E+03  0.21492148357E+03  0.00000000000E+00 0. -1.
         -1   -1    0    0    0  501 -0.00000000000E+00 -0.00000000000E+00 -0.97931223486E+01  0.97931223486E+01  0.00000000000E+00 0.  1.
         23    2    1    2    0    0  0.00000000000E+00  0.00000000000E+00  0.20512836122E+03  0.22471460592E+03  0.91755160813E+02 0.  0.
        -13    1    3    3    0    0 -0.39236196632E+02  0.11006610931E+02  0.15417666531E+03  0.15947121601E+03  0.00000000000E+00 0. -1.
         13    1    3    3    0    0  0.39236196632E+02 -0.11006610931E+02  0.50951695914E+02  0.65243389909E+02  0.00000000000E+00 0.  1.
<mgrwt>
<rscale>  0 0.91755161E+02</rscale>
<asrwt>0</asrwt>
<pdfrwt beam="1">  1        1 0.33064840E-01 0.91755161E+02</pdfrwt>
<pdfrwt beam="2">  1       -1 0.15066344E-02 0.91755161E+02</pdfrwt>
<totfact> 0.11805636E+05</totfact>
</mgrwt>
</event>
<event>
 5    1  0.6046470E+000  0.8785972E+02  0.7546771E-02  0.1308119E+00
          3   -1    0    0  501    0  0.00000000000E+00  0.00000000000E+00  0.90714293056E+02  0.90714293056E+02  0.00000000000E+00 0. -1.
         -3   -1    0    0    0  501 -0.00000000000E+00 -0.00000000000E+00 -0.21273743144E+02  0.21273743144E+02  0.00000000000E+00 0.  1.
         23    2    1    2    0    0  0.00000000000E+00  0.00000000000E+00  0.69440549912E+02  0.11198803620E+03  0.87859719324E+02 0.  0.
        -13    1    3    3    0    0 -0.31087135687E+02 -0.15615611533E+02  0.68911914266E+02  0.77195267060E+02  0.00000000000E+00 0. -1.
         13    1    3    3    0    0  0.31087135687E+02  0.15615611533E+02  0.52863564613E+00  0.34792769139E+02  0.00000000000E+00 0.  1.
<mgrwt>
<rscale>  0 0.87859719E+02</rscale>
<asrwt>0</asrwt>
<pdfrwt beam="1">  1        3 0.13956045E-01 0.87859719E+02</pdfrwt>
<pdfrwt beam="2">  1       -3 0.32728836E-02 0.87859719E+02</pdfrwt>
<totfact> 0.37371833E+04</totfact>
</mgrwt>
</event>
<event>
 5    1  0.6046470E+000  0.9110631E+02  0.7546771E-02  0.1300195E+00
          3   -1    0    0  501    0  0.00000000000E+00  0.00000000000E+00  0.17418804895E+02  0.17418804895E+02  0.00000000000E+00 0. -1.
         -3   -1    0    0    0  501 -0.00000000000E+00 -0.00000000000E+00 -0.11912928829E+03  0.11912928829E+03  0.00000000000E+00 0.  1.
         23    2    1    2    0    0  0.00000000000E+00  0.00000000000E+00 -0.10171048340E+03  0.13654809319E+03  0.91106307794E+02 0.  0.
        -13    1    3    3    0    0  0.98710184896E+01 -0.44019396140E+02 -0.41382589337E+02  0.61218158603E+02  0.00000000000E+00 0.  1.
         13    1    3    3    0    0 -0.98710184896E+01  0.44019396140E+02 -0.60327894059E+02  0.75329934582E+02  0.00000000000E+00 0. -1.
<mgrwt>
<rscale>  0 0.91106308E+02</rscale>
<asrwt>0</asrwt>
<pdfrwt beam="1">  1        3 0.26798160E-02 0.91106308E+02</pdfrwt>
<pdfrwt beam="2">  1       -3 0.18327583E-01 0.91106308E+02</pdfrwt>
<totfact> 0.32219528E+04</totfact>
</mgrwt>
</event>
<event>
 5    1  0.6046470E+000  0.8943101E+02  0.7546771E-02  0.1304235E+00
         -2   -1    0    0    0  501 -0.00000000000E+00  0.00000000000E+00  0.33566481747E+02  0.33566481747E+02  0.00000000000E+00 0.  1.
          2   -1    0    0  501    0  0.00000000000E+00 -0.00000000000E+00 -0.59567651936E+02  0.59567651936E+02  0.00000000000E+00 0. -1.
         23    2    1    2    0    0  0.00000000000E+00  0.00000000000E+00 -0.26001170189E+02  0.93134133683E+02  0.89431012550E+02 0.  0.
        -13    1    3    3    0    0  0.42002909955E+02  0.13470614264E+02 -0.53638212954E+01  0.44435036539E+02  0.00000000000E+00 0.  1.
         13    1    3    3    0    0 -0.42002909955E+02 -0.13470614264E+02 -0.20637348893E+02  0.48699097144E+02  0.00000000000E+00 0. -1.
<mgrwt>
<rscale>  0 0.89431013E+02</rscale>
<asrwt>0</asrwt>
<pdfrwt beam="2">  1        2 0.91642541E-02 0.89431013E+02</pdfrwt>
<pdfrwt beam="1">  1       -2 0.51640742E-02 0.89431013E+02</pdfrwt>
<totfact> 0.11178420E+05</totfact>
</mgrwt>
</event>
<event>
 5    1  0.6046470E+000  0.9141981E+02  0.7546771E-02  0.1299449E+00
         -1   -1    0    0    0  501 -0.00000000000E+00  0.00000000000E+00  0.16134441215E+03  0.16134441215E+03  0.00000000000E+00 0.  1.
          1   -1    0    0  501    0  0.00000000000E+00 -0.00000000000E+00 -0.12949909549E+02  0.12949909549E+02  0.00000000000E+00 0. -1.
         23    2    1    2    0    0  0.00000000000E+00  0.00000000000E+00  0.14839450260E+03  0.17429432170E+03  0.91419812809E+02 0.  0.
        -13    1    3    3    0    0 -0.10954741423E+02 -0.36202964583E+02  0.25264669757E+02  0.45485871896E+02  0.00000000000E+00 0. -1.
         13    1    3    3    0    0  0.10954741423E+02  0.36202964583E+02  0.12312983285E+03  0.12880844980E+03  0.00000000000E+00 0.  1.
<mgrwt>
<rscale>  0 0.91419813E+02</rscale>
<asrwt>0</asrwt>
<pdfrwt beam="2">  1        1 0.19922939E-02 0.91419813E+02</pdfrwt>
<pdfrwt beam="1">  1       -1 0.24822216E-01 0.91419813E+02</pdfrwt>
<totfact> 0.72985519E+04</totfact>
</mgrwt>
</event>
<event>
 5    1  0.6046470E+000  0.1008717E+03  0.7546771E-02  0.1278473E+00
         -1   -1    0    0    0  501 -0.00000000000E+00  0.00000000000E+00  0.12441949419E+03  0.12441949419E+03  0.00000000000E+00 0.  1.
          1   -1    0    0  501    0  0.00000000000E+00 -0.00000000000E+00 -0.20445151618E+02  0.20445151618E+02  0.00000000000E+00 0. -1.
         23    2    1    2    0    0  0.00000000000E+00  0.00000000000E+00  0.10397434257E+03  0.14486464580E+03  0.10087170907E+03 0.  0.
        -13    1    3    3    0    0 -0.19373833566E+02  0.45769343574E+02  0.39666804691E+02  0.63589571728E+02  0.00000000000E+00 0.  1.
         13    1    3    3    0    0  0.19373833566E+02 -0.45769343574E+02  0.64307537877E+02  0.81275074076E+02  0.00000000000E+00 0. -1.
<mgrwt>
<rscale>  0 0.10087171E+03</rscale>
<asrwt>0</asrwt>
<pdfrwt beam="2">  1        1 0.31454080E-02 0.10087171E+03</pdfrwt>
<pdfrwt beam="1">  1       -1 0.19141460E-01 0.10087171E+03</pdfrwt>
<totfact> 0.59974435E+04</totfact>
</mgrwt>
</event>
<event>
 5    1  0.6046470E+000  0.8600108E+02  0.7546771E-02  0.1312835E+00
         -1   -1    0    0    0  501 -0.00000000000E+00  0.00000000000E+00  0.32862376342E+02  0.32862376342E+02  0.00000000000E+00 0.  1.
          1   -1    0    0  501    0  0.00000000000E+00 -0.00000000000E+00 -0.56266367912E+02  0.56266367912E+02  0.00000000000E+00 0. -1.
         23    2    1    2    0    0  0.00000000000E+00  0.00000000000E+00 -0.23403991570E+02  0.89128744254E+02  0.86001082731E+02 0.  0.
        -13    1    3    3    0    0  0.35333015277E+01  0.26315130246E+02 -0.46756300331E+02  0.53769153985E+02  0.00000000000E+00 0. -1.
         13    1    3    3    0    0 -0.35333015277E+01 -0.26315130246E+02  0.23352308761E+02  0.35359590270E+02  0.00000000000E+00 0.  1.
<mgrwt>
<rscale>  0 0.86001083E+02</rscale>
<asrwt>0</asrwt>
<pdfrwt beam="2">  1        1 0.86563643E-02 0.86001083E+02</pdfrwt>
<pdfrwt beam="1">  1       -1 0.50557502E-02 0.86001083E+02</pdfrwt>
<totfact> 0.11218867E+05</totfact>
</mgrwt>
</event>
<event>
 5    1  0.6046470E+000  0.8846687E+02  0.7546771E-02  0.1306607E+00
         -1   -1    0    0    0  501 -0.00000000000E+00  0.00000000000E+00  0.27287684821E+03  0.27287684821E+03  0.00000000000E+00 0.  1.
          1   -1    0    0  501    0  0.00000000000E+00 -0.00000000000E+00 -0.71702555827E+01  0.71702555827E+01  0.00000000000E+00 0. -1.
         23    2    1    2    0    0  0.00000000000E+00  0.00000000000E+00  0.26570659263E+03  0.28004710379E+03  0.88466869375E+02 0.  0.
        -13    1    3    3    0    0  0.20762414557E+02  0.36034760345E+02  0.18054882197E+03  0.18527670907E+03  0.00000000000E+00 0.  1.
         13    1    3    3    0    0 -0.20762414557E+02 -0.36034760345E+02  0.85157770657E+02  0.94770394717E+02  0.00000000000E+00 0. -1.
<mgrwt>
<rscale>  0 0.88466869E+02</rscale>
<asrwt>0</asrwt>
<pdfrwt beam="2">  1        1 0.11031165E-02 0.88466869E+02</pdfrwt>
<pdfrwt beam="1">  1       -1 0.41981046E-01 0.88466869E+02</pdfrwt>
<totfact> 0.67944578E+04</totfact>
</mgrwt>
</event>
<event>
 5    1  0.6046470E+000  0.8957342E+02  0.7546771E-02  0.1303888E+00
          1   -1    0    0  501    0  0.00000000000E+00  0.00000000000E+00  0.36780807913E+03  0.36780807913E+03  0.00000000000E+00 0. -1.
         -1   -1    0    0    0  501 -0.00000000000E+00 -0.00000000000E+00 -0.54535214685E+01  0.54535214685E+01  0.00000000000E+00 0.  1.
         23    2    1    2    0    0  0.00000000000E+00  0.00000000000E+00  0.36235455766E+03  0.37326160060E+03  0.89573416945E+02 0.  0.
        -13    1    3    3    0    0  0.38099199446E+02  0.22837686245E+02  0.15733346106E+03  0.16348372054E+03  0.00000000000E+00 0.  1.
         13    1    3    3    0    0 -0.38099199446E+02 -0.22837686245E+02  0.20502109660E+03  0.20977788006E+03  0.00000000000E+00 0. -1.
<mgrwt>
<rscale>  0 0.89573417E+02</rscale>
<asrwt>0</asrwt>
<pdfrwt beam="1">  1        1 0.56585839E-01 0.89573417E+02</pdfrwt>
<pdfrwt beam="2">  1       -1 0.83900359E-03 0.89573417E+02</pdfrwt>
<totfact> 0.13940084E+05</totfact>
</mgrwt>
</event>
<event>
 5    1  0.6046470E+000  0.9382494E+02  0.7546771E-02  0.1293845E+00
         -4   -1    0    0    0  501 -0.00000000000E+00  0.00000000000E+00  0.64362321953E+02  0.64362321953E+02  0.00000000000E+00 0.  1.
          4   -1    0    0  501    0  0.00000000000E+00 -0.00000000000E+00 -0.34193604637E+02  0.34193604637E+02  0.00000000000E+00 0. -1.
         23    2    1    2    0    0  0.00000000000E+00  0.00000000000E+00  0.30168717316E+02  0.98555926590E+02  0.93824938910E+02 0.  0.
        -13    1    3    3    0    0 -0.31069292253E+02 -0.14283943731E+01  0.51975595464E+02  0.60570650941E+02  0.00000000000E+00 0.  1.
         13    1    3    3    0    0  0.31069292253E+02  0.14283943731E+01 -0.21806878148E+02  0.37985275649E+02  0.00000000000E+00 0. -1.
<mgrwt>
<rscale>  0 0.93824939E+02</rscale>
<asrwt>0</asrwt>
<pdfrwt beam="2">  1        4 0.52605546E-02 0.93824939E+02</pdfrwt>
<pdfrwt beam="1">  1       -4 0.99018957E-02 0.93824939E+02</pdfrwt>
<totfact> 0.24558163E+04</totfact>
</mgrwt>
</event>
<event>
 5    1  0.6046470E+000  0.9176292E+02  0.7546771E-02  0.1298638E+00
          3   -1    0    0  501    0  0.00000000000E+00  0.00000000000E+00  0.68171497133E+02  0.68171497133E+02  0.00000000000E+00 0. -1.
         -3   -1    0    0    0  501 -0.00000000000E+00 -0.00000000000E+00 -0.30879599540E+02  0.30879599540E+02  0.00000000000E+00 0.  1.
         23    2    1    2    0    0  0.00000000000E+00  0.00000000000E+00  0.37291897593E+02  0.99051096673E+02  0.91762923482E+02 0.  0.
        -13    1    3    3    0    0 -0.22425470506E+02 -0.31657722091E+02 -0.77943294056E+01  0.39571007901E+02  0.00000000000E+00 0.  1.
         13    1    3    3    0    0  0.22425470506E+02  0.31657722091E+02  0.45086226998E+02  0.59480088772E+02  0.00000000000E+00 0. -1.
<mgrwt>
<rscale>  0 0.91762923E+02</rscale>
<asrwt>0</asrwt>
<pdfrwt beam="1">  1        3 0.10487923E-01 0.91762923E+02</pdfrwt>
<pdfrwt beam="2">  1       -3 0.47507076E-02 0.91762923E+02</pdfrwt>
<totfact> 0.34139572E+04</totfact>
</mgrwt>
</event>
<event>
 5    1  0.6046470E+000  0.9027055E+02  0.7546771E-02  0.1302198E+00
         -2   -1    0    0    0  501 -0.00000000000E+00  0.00000000000E+00  0.13106972072E+02  0.13106972072E+02  0.00000000000E+00 0.  1.
          2   -1    0    0  501    0  0.00000000000E+00 -0.00000000000E+00 -0.15542821428E+03  0.15542821428E+03  0.00000000000E+00 0. -1.
         23    2    1    2    0    0  0.00000000000E+00  0.00000000000E+00 -0.14232124220E+03  0.16853518635E+03  0.90270554748E+02 0.  0.
        -13    1    3    3    0    0  0.38768225650E+02 -0.40079301082E+00 -0.28014833066E+02  0.47832696211E+02  0.00000000000E+00 0.  1.
         13    1    3    3    0    0 -0.38768225650E+02  0.40079301082E+00 -0.11430640914E+03  0.12070249014E+03  0.00000000000E+00 0. -1.
<mgrwt>
<rscale>  0 0.90270555E+02</rscale>
<asrwt>0</asrwt>
<pdfrwt beam="2">  1        2 0.23912031E-01 0.90270555E+02</pdfrwt>
<pdfrwt beam="1">  1       -2 0.20164574E-02 0.90270555E+02</pdfrwt>
<totfact> 0.14539815E+05</totfact>
</mgrwt>
</event>
<event>
 5    1  0.6046470E+000  0.8919519E+02  0.7546771E-02  0.1304812E+00
          3   -1    0    0  501    0  0.00000000000E+00  0.00000000000E+00  0.94834969723E+01  0.94834969723E+01  0.00000000000E+00 0. -1.
         -3   -1    0    0    0  501 -0.00000000000E+00 -0.00000000000E+00 -0.20972699682E+03  0.20972699682E+03  0.00000000000E+00 0.  1.
         23    2    1    2    0    0  0.00000000000E+00  0.00000000000E+00 -0.20024349985E+03  0.21921049379E+03  0.89195186851E+02 0.  0.
        -13    1    3    3    0    0 -0.41700632804E+02 -0.98437808511E+01 -0.13053137886E+03  0.13738370961E+03  0.00000000000E+00 0.  1.
         13    1    3    3    0    0  0.41700632804E+02  0.98437808511E+01 -0.69712120982E+02  0.81826784182E+02  0.00000000000E+00 0. -1.
<mgrwt>
<rscale>  0 0.89195187E+02</rscale>
<asrwt>0</asrwt>
<pdfrwt beam="1">  1        3 0.14589995E-02 0.89195187E+02</pdfrwt>
<pdfrwt beam="2">  1       -3 0.32265692E-01 0.89195187E+02</pdfrwt>
<totfact> 0.29207748E+04</totfact>
</mgrwt>
</event>
<event>
 5    1  0.6046470E+000  0.7896472E+02  0.7546771E-02  0.1332015E+00
          1   -1    0    0  501    0  0.00000000000E+00  0.00000000000E+00  0.13985259848E+02  0.13985259848E+02  0.00000000000E+00 0. -1.
         -1   -1    0    0    0  501 -0.00000000000E+00 -0.00000000000E+00 -0.11146426155E+03  0.11146426155E+03  0.00000000000E+00 0.  1.
         23    2    1    2    0    0  0.00000000000E+00  0.00000000000E+00 -0.97479001700E+02  0.12544952140E+03  0.78964717730E+02 0.  0.
        -13    1    3    3    0    0  0.23452029245E+02  0.10156799551E+02 -0.96550489456E+02  0.99875699081E+02  0.00000000000E+00 0.  1.
         13    1    3    3    0    0 -0.23452029245E+02 -0.10156799551E+02 -0.92851224399E+00  0.25573822315E+02  0.00000000000E+00 0. -1.
<mgrwt>
<rscale>  0 0.78964718E+02</rscale>
<asrwt>0</asrwt>
<pdfrwt beam="1">  1        1 0.21515785E-02 0.78964718E+02</pdfrwt>
<pdfrwt beam="2">  1       -1 0.17148348E-01 0.78964718E+02</pdfrwt>
<totfact> 0.11536999E+05</totfact>
</mgrwt>
</event>
<event>
 5    1  0.6046470E+000  0.5733966E+02  0.7546771E-02  0.1409348E+00
          1   -1    0    0  501    0  0.00000000000E+00  0.00000000000E+00  0.19051948218E+03  0.19051948218E+03  0.00000000000E+00 0.  1.
         -1   -1    0    0    0  501 -0.00000000000E+00 -0.00000000000E+00 -0.43143046773E+01  0.43143046773E+01  0.00000000000E+00 0. -1.
         23    2    1    2    0    0  0.00000000000E+00  0.00000000000E+00  0.18620517750E+03  0.19483378686E+03  0.57339657937E+02 0.  0.
        -13    1    3    3    0    0 -0.52931156820E+01  0.24233953484E+02  0.14194923810E+03  0.14410026985E+03  0.00000000000E+00 0.  1.
         13    1    3    3    0    0  0.52931156820E+01 -0.24233953484E+02  0.44255939406E+02  0.50733517006E+02  0.00000000000E+00 0. -1.
<mgrwt>
<rscale>  0 0.57339658E+02</rscale>
<asrwt>0</asrwt>
<pdfrwt beam="1">  1        1 0.29310683E-01 0.57339658E+02</pdfrwt>
<pdfrwt beam="2">  1       -1 0.66373933E-03 0.57339658E+02</pdfrwt>
<totfact> 0.39437635E+05</totfact>
</mgrwt>
</event>
<event>
 5    1  0.6046470E+000  0.9582723E+02  0.7546771E-02  0.1289324E+00
          1   -1    0    0  501    0  0.00000000000E+00  0.00000000000E+00  0.34487605243E+03  0.34487605243E+03  0.00000000000E+00 0. -1.
         -1   -1    0    0    0  501 -0.00000000000E+00 -0.00000000000E+00 -0.66566364980E+01  0.66566364980E+01  0.00000000000E+00 0.  1.
         23    2    1    2    0    0  0.00000000000E+00  0.00000000000E+00  0.33821941593E+03  0.35153268893E+03  0.95827230324E+02 0.  0.
        -13    1    3    3    0    0  0.35650632283E+02  0.23617142798E+02  0.89836805622E+02  0.99495671566E+02  0.00000000000E+00 0.  1.
         13    1    3    3    0    0 -0.35650632283E+02 -0.23617142798E+02  0.24838261031E+03  0.25203701736E+03  0.00000000000E+00 0. -1.
<mgrwt>
<rscale>  0 0.95827230E+02</rscale>
<asrwt>0</asrwt>
<pdfrwt beam="1">  1        1 0.53057840E-01 0.95827230E+02</pdfrwt>
<pdfrwt beam="2">  1       -1 0.10240982E-02 0.95827230E+02</pdfrwt>
<totfact> 0.11514308E+05</totfact>
</mgrwt>
</event>
<event>
 5    1  0.6046470E+000  0.9117579E+02  0.7546771E-02  0.1300029E+00
         -2   -1    0    0    0  501 -0.00000000000E+00  0.00000000000E+00  0.73725668179E+01  0.73725668179E+01  0.00000000000E+00 0.  1.
          2   -1    0    0  501    0  0.00000000000E+00 -0.00000000000E+00 -0.28189042849E+03  0.28189042849E+03  0.00000000000E+00 0. -1.
         23    2    1    2    0    0  0.00000000000E+00  0.00000000000E+00 -0.27451786167E+03  0.28926299530E+03  0.91175786683E+02 0.  0.
        -13    1    3    3    0    0 -0.16825170561E+02 -0.41704744828E+02 -0.16097576771E+03  0.16713937267E+03  0.00000000000E+00 0.  1.
         13    1    3    3    0    0  0.16825170561E+02  0.41704744828E+02 -0.11354209395E+03  0.12212362263E+03  0.00000000000E+00 0. -1.
<mgrwt>
<rscale>  0 0.91175787E+02</rscale>
<asrwt>0</asrwt>
<pdfrwt beam="2">  1        2 0.43367753E-01 0.91175787E+02</pdfrwt>
<pdfrwt beam="1">  1       -2 0.11342412E-02 0.91175787E+02</pdfrwt>
<totfact> 0.17554271E+05</totfact>
</mgrwt>
</event>
<event>
 5    1  0.6046470E+000  0.7489005E+02  0.7546771E-02  0.1344212E+00
          2   -1    0    0  501    0  0.00000000000E+00  0.00000000000E+00  0.49549392997E+02  0.49549392997E+02  0.00000000000E+00 0. -1.
         -2   -1    0    0    0  501 -0.00000000000E+00 -0.00000000000E+00 -0.28297621055E+02  0.28297621055E+02  0.00000000000E+00 0.  1.
         23    2    1    2    0    0  0.00000000000E+00  0.00000000000E+00  0.21251771942E+02  0.77847014052E+02  0.74890051316E+02 0.  0.
        -13    1    3    3    0    0  0.11976602670E+02  0.25260220253E+02 -0.15269833878E+02  0.31854129488E+02  0.00000000000E+00 0.  1.
         13    1    3    3    0    0 -0.11976602670E+02 -0.25260220253E+02  0.36521605820E+02  0.45992884563E+02  0.00000000000E+00 0. -1.
<mgrwt>
<rscale>  0 0.74890051E+02</rscale>
<asrwt>0</asrwt>
<pdfrwt beam="1">  1        2 0.76229835E-02 0.74890051E+02</pdfrwt>
<pdfrwt beam="2">  1       -2 0.43534802E-02 0.74890051E+02</pdfrwt>
<totfact> 0.17495324E+05</totfact>
</mgrwt>
</event>
<event>
 5    1  0.6046470E+000  0.9353906E+02  0.7546771E-02  0.1294501E+00
          2   -1    0    0  501    0  0.00000000000E+00  0.00000000000E+00  0.26783260828E+03  0.26783260828E+03  0.00000000000E+00 0.  1.
         -2   -1    0    0    0  501 -0.00000000000E+00 -0.00000000000E+00 -0.81670000273E+01  0.81670000273E+01  0.00000000000E+00 0. -1.
         23    2    1    2    0    0  0.00000000000E+00  0.00000000000E+00  0.25966560825E+03  0.27599960831E+03  0.93539059630E+02 0.  0.
        -13    1    3    3    0    0  0.41686284387E+02 -0.15424157641E+02  0.86897470388E+02  0.97605436861E+02  0.00000000000E+00 0.  1.
         13    1    3    3    0    0 -0.41686284387E+02  0.15424157641E+02  0.17276813786E+03  0.17839417145E+03  0.00000000000E+00 0. -1.
<mgrwt>
<rscale>  0 0.93539060E+02</rscale>
<asrwt>0</asrwt>
<pdfrwt beam="1">  1        2 0.41205010E-01 0.93539060E+02</pdfrwt>
<pdfrwt beam="2">  1       -2 0.12564617E-02 0.93539060E+02</pdfrwt>
<totfact> 0.16080888E+05</totfact>
</mgrwt>
</event>
<event>
 5    1  0.6046470E+000  0.7966701E+02  0.7546771E-02  0.1329999E+00
         -3   -1    0    0    0  501 -0.00000000000E+00  0.00000000000E+00  0.46543143582E+02  0.46543143582E+02  0.00000000000E+00 0.  1.
          3   -1    0    0  501    0  0.00000000000E+00 -0.00000000000E+00 -0.34091120963E+02  0.34091120963E+02  0.00000000000E+00 0. -1.
         23    2    1    2    0    0  0.00000000000E+00  0.00000000000E+00  0.12452022620E+02  0.80634264545E+02  0.79667005413E+02 0.  0.
        -13    1    3    3    0    0 -0.26557636118E+02 -0.12600439096E+02  0.33434146717E+02  0.44518774334E+02  0.00000000000E+00 0.  1.
         13    1    3    3    0    0  0.26557636118E+02  0.12600439096E+02 -0.20982124097E+02  0.36115490211E+02  0.00000000000E+00 0. -1.
<mgrwt>
<rscale>  0 0.79667005E+02</rscale>
<asrwt>0</asrwt>
<pdfrwt beam="2">  1        3 0.52447878E-02 0.79667005E+02</pdfrwt>
<pdfrwt beam="1">  1       -3 0.71604837E-02 0.79667005E+02</pdfrwt>
<totfact> 0.52093520E+04</totfact>
</mgrwt>
</event>
<event>
 5    1  0.6046470E+000  0.8375414E+02  0.7546771E-02  0.1318723E+00
         -1   -1    0    0    0  501 -0.00000000000E+00  0.00000000000E+00  0.44150571001E+02  0.44150571001E+02  0.00000000000E+00 0.  1.
          1   -1    0    0  501    0  0.00000000000E+00 -0.00000000000E+00 -0.39720642926E+02  0.39720642926E+02  0.00000000000E+00 0. -1.
         23    2    1    2    0    0  0.00000000000E+00  0.00000000000E+00  0.44299280755E+01  0.83871213927E+02  0.83754141765E+02 0.  0.
        -13    1    3    3    0    0 -0.15426962471E+02  0.24973950002E+02 -0.27693147678E+02  0.40355913794E+02  0.00000000000E+00 0. -1.
         13    1    3    3    0    0  0.15426962471E+02 -0.24973950002E+02  0.32123075754E+02  0.43515300133E+02  0.00000000000E+00 0.  1.
<mgrwt>
<rscale>  0 0.83754142E+02</rscale>
<asrwt>0</asrwt>
<pdfrwt beam="2">  1        1 0.61108681E-02 0.83754142E+02</pdfrwt>
<pdfrwt beam="1">  1       -1 0.67923955E-02 0.83754142E+02</pdfrwt>
<totfact> 0.11490927E+05</totfact>
</mgrwt>
</event>
<event>
 5    1  0.6046470E+000  0.9032266E+02  0.7546771E-02  0.1302072E+00
         -1   -1    0    0    0  501 -0.00000000000E+00  0.00000000000E+00  0.20875175024E+02  0.20875175024E+02  0.00000000000E+00 0.  1.
          1   -1    0    0  501    0  0.00000000000E+00 -0.00000000000E+00 -0.97701968270E+02  0.97701968270E+02  0.00000000000E+00 0. -1.
         23    2    1    2    0    0  0.00000000000E+00  0.00000000000E+00 -0.76826793246E+02  0.11857714329E+03  0.90322659125E+02 0.  0.
        -13    1    3    3    0    0  0.19602059484E+02 -0.12187477185E+02 -0.89373206790E+02  0.92305717202E+02  0.00000000000E+00 0. -1.
         13    1    3    3    0    0 -0.19602059484E+02  0.12187477185E+02  0.12546413544E+02  0.26271426093E+02  0.00000000000E+00 0.  1.
<mgrwt>
<rscale>  0 0.90322659E+02</rscale>
<asrwt>0</asrwt>
<pdfrwt beam="2">  1        1 0.15031072E-01 0.90322659E+02</pdfrwt>
<pdfrwt beam="1">  1       -1 0.32115654E-02 0.90322659E+02</pdfrwt>
<totfact> 0.10675269E+05</totfact>
</mgrwt>
</event>
<event>
 5    1  0.6046470E+000  0.9214866E+02  0.7546771E-02  0.1297730E+00
          4   -1    0    0  501    0  0.00000000000E+00  0.00000000000E+00  0.93121318473E+01  0.93121318473E+01  0.00000000000E+00 0. -1.
         -4   -1    0    0    0  501 -0.00000000000E+00 -0.00000000000E+00 -0.22796540761E+03  0.22796540761E+03  0.00000000000E+00 0.  1.
         23    2    1    2    0    0  0.00000000000E+00  0.00000000000E+00 -0.21865327576E+03  0.23727753946E+03  0.92148661028E+02 0.  0.
        -13    1    3    3    0    0 -0.72491330181E+00  0.46046996302E+02 -0.10569189409E+03  0.11528932234E+03  0.00000000000E+00 0. -1.
         13    1    3    3    0    0  0.72491330181E+00 -0.46046996302E+02 -0.11296138167E+03  0.12198821712E+03  0.00000000000E+00 0.  1.
<mgrwt>
<rscale>  0 0.92148661E+02</rscale>
<asrwt>0</asrwt>
<pdfrwt beam="1">  1        4 0.14326355E-02 0.92148661E+02</pdfrwt>
<pdfrwt beam="2">  1       -4 0.35071605E-01 0.92148661E+02</pdfrwt>
<totfact> 0.19366291E+04</totfact>
</mgrwt>
</event>
<event>
 5    1  0.6046470E+000  0.8802728E+02  0.7546771E-02  0.1307700E+00
         -3   -1    0    0    0  501 -0.00000000000E+00  0.00000000000E+00  0.23095389273E+02  0.23095389273E+02  0.00000000000E+00 0.  1.
          3   -1    0    0  501    0  0.00000000000E+00 -0.00000000000E+00 -0.83878234439E+02  0.83878234439E+02  0.00000000000E+00 0. -1.
         23    2    1    2    0    0  0.00000000000E+00  0.00000000000E+00 -0.60782845166E+02  0.10697362371E+03  0.88027279315E+02 0.  0.
        -13    1    3    3    0    0 -0.27779544186E+02 -0.21729513556E+02  0.16069624209E+01  0.35305200223E+02  0.00000000000E+00 0.  1.
         13    1    3    3    0    0  0.27779544186E+02  0.21729513556E+02 -0.62389807587E+02  0.71668423489E+02  0.00000000000E+00 0. -1.
<mgrwt>
<rscale>  0 0.88027279E+02</rscale>
<asrwt>0</asrwt>
<pdfrwt beam="2">  1        3 0.12904344E-01 0.88027279E+02</pdfrwt>
<pdfrwt beam="1">  1       -3 0.35531369E-02 0.88027279E+02</pdfrwt>
<totfact> 0.37575830E+04</totfact>
</mgrwt>
</event>
<event>
 5    1  0.6046470E+000  0.9158912E+02  0.7546771E-02  0.1299048E+00
          2   -1    0    0  501    0  0.00000000000E+00  0.00000000000E+00  0.23766995896E+02  0.23766995896E+02  0.00000000000E+00 0. -1.
         -2   -1    0    0    0  501 -0.00000000000E+00 -0.00000000000E+00 -0.88237564532E+02  0.88237564532E+02  0.00000000000E+00 0.  1.
         23    2    1    2    0    0  0.00000000000E+00  0.00000000000E+00 -0.64470568637E+02  0.11200456043E+03  0.91589122369E+02 0.  0.
        -13    1    3    3    0    0  0.43546810289E+02 -0.10381656974E+02 -0.20439609283E+02  0.49212611346E+02  0.00000000000E+00 0.  1.
         13    1    3    3    0    0 -0.43546810289E+02  0.10381656974E+02 -0.44030959354E+02  0.62791949082E+02  0.00000000000E+00 0. -1.
<mgrwt>
<rscale>  0 0.91589122E+02</rscale>
<asrwt>0</asrwt>
<pdfrwt beam="1">  1        2 0.36564609E-02 0.91589122E+02</pdfrwt>
<pdfrwt beam="2">  1       -2 0.13575010E-01 0.91589122E+02</pdfrwt>
<totfact> 0.81852756E+04</totfact>
</mgrwt>
</event>
<event>
 5    1  0.6046470E+000  0.8923893E+02  0.7546771E-02  0.1304705E+00
          2   -1    0    0  501    0  0.00000000000E+00  0.00000000000E+00  0.27788379156E+03  0.27788379156E+03  0.00000000000E+00 0. -1.
         -2   -1    0    0    0  501 -0.00000000000E+00 -0.00000000000E+00 -0.71644941709E+01  0.71644941709E+01  0.00000000000E+00 0.  1.
         23    2    1    2    0    0  0.00000000000E+00  0.00000000000E+00  0.27071929739E+03  0.28504828573E+03  0.89238933315E+02 0.  0.
        -13    1    3    3    0    0  0.88352681078E+01  0.35641813766E+02  0.21632501061E+03  0.21941948652E+03  0.00000000000E+00 0. -1.
         13    1    3    3    0    0 -0.88352681078E+01 -0.35641813766E+02  0.54394286776E+02  0.65628799204E+02  0.00000000000E+00 0.  1.
<mgrwt>
<rscale>  0 0.89238933E+02</rscale>
<asrwt>0</asrwt>
<pdfrwt beam="1">  1        2 0.42751344E-01 0.89238933E+02</pdfrwt>
<pdfrwt beam="2">  1       -2 0.11022301E-02 0.89238933E+02</pdfrwt>
<totfact> 0.18489996E+05</totfact>
</mgrwt>
</event>
<event>
 5    1  0.6046470E+000  0.8395711E+02  0.7546771E-02  0.1318183E+00
          1   -1    0    0  501    0  0.00000000000E+00  0.00000000000E+00  0.58039661748E+02  0.58039661748E+02  0.00000000000E+00 0. -1.
         -1   -1    0    0    0  501 -0.00000000000E+00 -0.00000000000E+00 -0.30361980459E+02  0.30361980459E+02  0.00000000000E+00 0.  1.
         23    2    1    2    0    0  0.00000000000E+00  0.00000000000E+00  0.27677681289E+02  0.88401642206E+02  0.83957109903E+02 0.  0.
        -13    1    3    3    0    0 -0.27001730760E+02  0.26172382143E+02 -0.58066267237E+01  0.38050019251E+02  0.00000000000E+00 0.  1.
         13    1    3    3    0    0  0.27001730760E+02 -0.26172382143E+02  0.33484308013E+02  0.50351622955E+02  0.00000000000E+00 0. -1.
<mgrwt>
<rscale>  0 0.83957110E+02</rscale>
<asrwt>0</asrwt>
<pdfrwt beam="1">  1        1 0.89291787E-02 0.83957110E+02</pdfrwt>
<pdfrwt beam="2">  1       -1 0.46710739E-02 0.83957110E+02</pdfrwt>
<totfact> 0.12038964E+05</totfact>
</mgrwt>
</event>
<event>
 5    1  0.6046470E+000  0.9670024E+02  0.7546771E-02  0.1287392E+00
         -1   -1    0    0    0  501 -0.00000000000E+00  0.00000000000E+00  0.83856215806E+01  0.83856215806E+01  0.00000000000E+00 0.  1.
          1   -1    0    0  501    0  0.00000000000E+00 -0.00000000000E+00 -0.27877887722E+03  0.27877887722E+03  0.00000000000E+00 0. -1.
         23    2    1    2    0    0  0.00000000000E+00  0.00000000000E+00 -0.27039325564E+03  0.28716449880E+03  0.96700241344E+02 0.  0.
        -13    1    3    3    0    0 -0.58895300117E+01  0.45653445410E+02 -0.17912420970E+03  0.18494433255E+03  0.00000000000E+00 0.  1.
         13    1    3    3    0    0  0.58895300117E+01 -0.45653445410E+02 -0.91269045931E+02  0.10222016624E+03  0.00000000000E+00 0. -1.
<mgrwt>
<rscale>  0 0.96700241E+02</rscale>
<asrwt>0</asrwt>
<pdfrwt beam="2">  1        1 0.42889051E-01 0.96700241E+02</pdfrwt>
<pdfrwt beam="1">  1       -1 0.12900958E-02 0.96700241E+02</pdfrwt>
<totfact> 0.10792399E+05</totfact>
</mgrwt>
</event>
<event>
 5    1  0.6046470E+000  0.9225944E+02  0.7546771E-02  0.1297471E+00
          2   -1    0    0  501    0  0.00000000000E+00  0.00000000000E+00  0.48660261221E+02  0.48660261221E+02  0.00000000000E+00 0. -1.
         -2   -1    0    0    0  501 -0.00000000000E+00 -0.00000000000E+00 -0.43730774026E+02  0.43730774026E+02  0.00000000000E+00 0.  1.
         23    2    1    2    0    0  0.00000000000E+00  0.00000000000E+00  0.49294871951E+01  0.92391035247E+02  0.92259436103E+02 0.  0.
        -13    1    3    3    0    0 -0.38724277257E+02  0.14684232543E+02 -0.17880597432E+02  0.45109999989E+02  0.00000000000E+00 0.  1.
         13    1    3    3    0    0  0.38724277257E+02 -0.14684232543E+02  0.22810084627E+02  0.47281035259E+02  0.00000000000E+00 0. -1.
<mgrwt>
<rscale>  0 0.92259436E+02</rscale>
<asrwt>0</asrwt>
<pdfrwt beam="1">  1        2 0.74861941E-02 0.92259436E+02</pdfrwt>
<pdfrwt beam="2">  1       -2 0.67278114E-02 0.92259436E+02</pdfrwt>
<totfact> 0.97027345E+04</totfact>
</mgrwt>
</event>
<event>
 5    1  0.6046470E+000  0.8780442E+02  0.7546771E-02  0.1308257E+00
         -1   -1    0    0    0  501 -0.00000000000E+00  0.00000000000E+00  0.37432360619E+02  0.37432360619E+02  0.00000000000E+00 0.  1.
          1   -1    0    0  501    0  0.00000000000E+00 -0.00000000000E+00 -0.51490318474E+02  0.51490318474E+02  0.00000000000E+00 0. -1.
         23    2    1    2    0    0  0.00000000000E+00  0.00000000000E+00 -0.14057957855E+02  0.88922679094E+02  0.87804422885E+02 0.  0.
        -13    1    3    3    0    0 -0.99873553833E+01  0.38096929709E+02  0.12616028780E+02  0.41355622386E+02  0.00000000000E+00 0. -1.
         13    1    3    3    0    0  0.99873553833E+01 -0.38096929709E+02 -0.26673986635E+02  0.47567056707E+02  0.00000000000E+00 0.  1.
<mgrwt>
<rscale>  0 0.87804423E+02</rscale>
<asrwt>0</asrwt>
<pdfrwt beam="2">  1        1 0.79215874E-02 0.87804423E+02</pdfrwt>
<pdfrwt beam="1">  1       -1 0.57588247E-02 0.87804423E+02</pdfrwt>
<totfact> 0.10458406E+05</totfact>
</mgrwt>
</event>
<event>
 5    1  0.6046470E+000  0.9148058E+02  0.7546771E-02  0.1299305E+00
         -2   -1    0    0    0  501 -0.00000000000E+00  0.00000000000E+00  0.14062099231E+02  0.14062099231E+02  0.00000000000E+00 0.  1.
          2   -1    0    0  501    0  0.00000000000E+00 -0.00000000000E+00 -0.14878105726E+03  0.14878105726E+03  0.00000000000E+00 0. -1.
         23    2    1    2    0    0  0.00000000000E+00  0.00000000000E+00 -0.13471895803E+03  0.16284315649E+03  0.91480576973E+02 0.  0.
        -13    1    3    3    0    0 -0.26509602746E+01  0.40761967635E+02 -0.30722226645E+02  0.51111846043E+02  0.00000000000E+00 0.  1.
         13    1    3    3    0    0  0.26509602746E+01 -0.40761967635E+02 -0.10399673139E+03  0.11173131045E+03  0.00000000000E+00 0. -1.
<mgrwt>
<rscale>  0 0.91480577E+02</rscale>
<asrwt>0</asrwt>
<pdfrwt beam="2">  1        2 0.22889394E-01 0.91480577E+02</pdfrwt>
<pdfrwt beam="1">  1       -2 0.21633999E-02 0.91480577E+02</pdfrwt>
<totfact> 0.13816801E+05</totfact>
</mgrwt>
</event>
<event>
 5    1  0.6046470E+000  0.9428365E+02  0.7546771E-02  0.1292798E+00
          4   -1    0    0  501    0  0.00000000000E+00  0.00000000000E+00  0.12930873960E+03  0.12930873960E+03  0.00000000000E+00 0.  1.
         -4   -1    0    0    0  501 -0.00000000000E+00 -0.00000000000E+00 -0.17186398111E+02  0.17186398111E+02  0.00000000000E+00 0. -1.
         23    2    1    2    0    0  0.00000000000E+00  0.00000000000E+00  0.11212234148E+03  0.14649513771E+03  0.94283646047E+02 0.  0.
        -13    1    3    3    0    0 -0.43359626043E+02  0.18498204775E+02  0.56578199177E+02  0.73643284641E+02  0.00000000000E+00 0.  1.
         13    1    3    3    0    0  0.43359626043E+02 -0.18498204775E+02  0.55544142308E+02  0.72851853067E+02  0.00000000000E+00 0. -1.
<mgrwt>
<rscale>  0 0.94283646E+02</rscale>
<asrwt>0</asrwt>
<pdfrwt beam="1">  1        4 0.19893652E-01 0.94283646E+02</pdfrwt>
<pdfrwt beam="2">  1       -4 0.26440613E-02 0.94283646E+02</pdfrwt>
<totfact> 0.21785323E+04</totfact>
</mgrwt>
</event>
<event>
 5    1  0.6046470E+000  0.9095698E+02  0.7546771E-02  0.1300551E+00
         -1   -1    0    0    0  501 -0.00000000000E+00  0.00000000000E+00  0.83990539777E+02  0.83990539777E+02  0.00000000000E+00 0.  1.
          1   -1    0    0  501    0  0.00000000000E+00 -0.00000000000E+00 -0.24625310841E+02  0.24625310841E+02  0.00000000000E+00 0. -1.
         23    2    1    2    0    0  0.00000000000E+00  0.00000000000E+00  0.59365228936E+02  0.10861585062E+03  0.90956982134E+02 0.  0.
        -13    1    3    3    0    0  0.32637591589E+02 -0.48267412203E+01 -0.76959130818E+01  0.33878265801E+02  0.00000000000E+00 0. -1.
         13    1    3    3    0    0 -0.32637591589E+02  0.48267412203E+01  0.67061142018E+02  0.74737584817E+02  0.00000000000E+00 0.  1.
<mgrwt>
<rscale>  0 0.90956982E+02</rscale>
<asrwt>0</asrwt>
<pdfrwt beam="2">  1        1 0.37885094E-02 0.90956982E+02</pdfrwt>
<pdfrwt beam="1">  1       -1 0.12921621E-01 0.90956982E+02</pdfrwt>
<totfact> 0.84471780E+04</totfact>
</mgrwt>
</event>
<event>
 5    1  0.6046470E+000  0.9296079E+02  0.7546771E-02  0.1295836E+00
         -1   -1    0    0    0  501 -0.00000000000E+00  0.00000000000E+00  0.56436621195E+02  0.56436621195E+02  0.00000000000E+00 0.  1.
          1   -1    0    0  501    0  0.00000000000E+00 -0.00000000000E+00 -0.38280588397E+02  0.38280588397E+02  0.00000000000E+00 0. -1.
         23    2    1    2    0    0  0.00000000000E+00  0.00000000000E+00  0.18156032798E+02  0.94717209592E+02  0.92960788862E+02 0.  0.
        -13    1    3    3    0    0 -0.64278432180E+01 -0.40666515631E+02  0.31057442204E+02  0.51571769199E+02  0.00000000000E+00 0.  1.
         13    1    3    3    0    0  0.64278432180E+01  0.40666515631E+02 -0.12901409406E+02  0.43145440393E+02  0.00000000000E+00 0. -1.
<mgrwt>
<rscale>  0 0.92960789E+02</rscale>
<asrwt>0</asrwt>
<pdfrwt beam="2">  1        1 0.58893213E-02 0.92960789E+02</pdfrwt>
<pdfrwt beam="1">  1       -1 0.86825571E-02 0.92960789E+02</pdfrwt>
<totfact> 0.85238698E+04</totfact>
</mgrwt>
</event>
<event>
 5    1  0.6046470E+000  0.8773214E+02  0.7546771E-02  0.1308438E+00
         -1   -1    0    0    0  501 -0.00000000000E+00  0.00000000000E+00  0.13861294216E+03  0.13861294216E+03  0.00000000000E+00 0.  1.
          1   -1    0    0  501    0  0.00000000000E+00 -0.00000000000E+00 -0.13882053739E+02  0.13882053739E+02  0.00000000000E+00 0. -1.
         23    2    1    2    0    0  0.00000000000E+00  0.00000000000E+00  0.12473088842E+03  0.15249499590E+03  0.87732144895E+02 0.  0.
        -13    1    3    3    0    0  0.38864582343E+02  0.16234668347E+01  0.27120876344E+02  0.47419756842E+02  0.00000000000E+00 0. -1.
         13    1    3    3    0    0 -0.38864582343E+02 -0.16234668347E+01  0.97610012073E+02  0.10507523905E+03  0.00000000000E+00 0.  1.
<mgrwt>
<rscale>  0 0.87732145E+02</rscale>
<asrwt>0</asrwt>
<pdfrwt beam="2">  1        1 0.21357007E-02 0.87732145E+02</pdfrwt>
<pdfrwt beam="1">  1       -1 0.21325067E-01 0.87732145E+02</pdfrwt>
<totfact> 0.84129383E+04</totfact>
</mgrwt>
</event>
<event>
 5    1  0.6046470E+000  0.9365281E+02  0.7546771E-02  0.1294239E+00
          3   -1    0    0  501    0  0.00000000000E+00  0.00000000000E+00  0.11339445058E+02  0.11339445058E+02  0.00000000000E+00 0. -1.
         -3   -1    0    0    0  501 -0.00000000000E+00 -0.00000000000E+00 -0.19337032438E+03  0.19337032438E+03  0.00000000000E+00 0.  1.
         23    2    1    2    0    0  0.00000000000E+00  0.00000000000E+00 -0.18203087932E+03  0.20470976944E+03  0.93652809228E+02 0.  0.
        -13    1    3    3    0    0 -0.34561569556E+02  0.12979164025E+02 -0.15397935869E+03  0.15834330959E+03  0.00000000000E+00 0. -1.
         13    1    3    3    0    0  0.34561569556E+02 -0.12979164025E+02 -0.28051520628E+02  0.46366459845E+02  0.00000000000E+00 0.  1.
<mgrwt>
<rscale>  0 0.93652809E+02</rscale>
<asrwt>0</asrwt>
<pdfrwt beam="1">  1        3 0.17445299E-02 0.93652809E+02</pdfrwt>
<pdfrwt beam="2">  1       -3 0.29749283E-01 0.93652809E+02</pdfrwt>
<totfact> 0.26279871E+04</totfact>
</mgrwt>
</event>
<event>
 5    1  0.6046470E+000  0.9189282E+02  0.7546771E-02  0.1298332E+00
         -1   -1    0    0    0  501 -0.00000000000E+00  0.00000000000E+00  0.16367179043E+03  0.16367179043E+03  0.00000000000E+00 0.  1.
          1   -1    0    0  501    0  0.00000000000E+00 -0.00000000000E+00 -0.12898207239E+02  0.12898207239E+02  0.00000000000E+00 0. -1.
         23    2    1    2    0    0  0.00000000000E+00  0.00000000000E+00  0.15077358319E+03  0.17656999767E+03  0.91892821748E+02 0.  0.
        -13    1    3    3    0    0  0.30261508289E+02 -0.33080280798E+01  0.14151384303E+03  0.14475106115E+03  0.00000000000E+00 0.  1.
         13    1    3    3    0    0 -0.30261508289E+02  0.33080280798E+01  0.92597401620E+01  0.31818936525E+02  0.00000000000E+00 0. -1.
<mgrwt>
<rscale>  0 0.91892822E+02</rscale>
<asrwt>0</asrwt>
<pdfrwt beam="2">  1        1 0.19843397E-02 0.91892822E+02</pdfrwt>
<pdfrwt beam="1">  1       -1 0.25180274E-01 0.91892822E+02</pdfrwt>
<totfact> 0.71757875E+04</totfact>
</mgrwt>
</event>
<event>
 5    1  0.6046470E+000  0.9172693E+02  0.7546771E-02  0.1298723E+00
         -2   -1    0    0    0  501 -0.00000000000E+00  0.00000000000E+00  0.21817354131E+02  0.21817354131E+02  0.00000000000E+00 0.  1.
          2   -1    0    0  501    0  0.00000000000E+00 -0.00000000000E+00 -0.96412113616E+02  0.96412113616E+02  0.00000000000E+00 0. -1.
         23    2    1    2    0    0  0.00000000000E+00  0.00000000000E+00 -0.74594759485E+02  0.11822946775E+03  0.91726925715E+02 0.  0.
        -13    1    3    3    0    0  0.32935205429E+02 -0.30553896317E+02 -0.25400847878E+02  0.51608830734E+02  0.00000000000E+00 0.  1.
         13    1    3    3    0    0 -0.32935205429E+02  0.30553896317E+02 -0.49193911607E+02  0.66620637013E+02  0.00000000000E+00 0. -1.
<mgrwt>
<rscale>  0 0.91726926E+02</rscale>
<asrwt>0</asrwt>
<pdfrwt beam="2">  1        2 0.14832633E-01 0.91726926E+02</pdfrwt>
<pdfrwt beam="1">  1       -2 0.33565160E-02 0.91726926E+02</pdfrwt>
<totfact> 0.11932755E+05</totfact>
</mgrwt>
</event>
<event>
 5    1  0.6046470E+000  0.8925371E+02  0.7546771E-02  0.1304669E+00
         -2   -1    0    0    0  501 -0.00000000000E+00  0.00000000000E+00  0.25508008670E+02  0.25508008670E+02  0.00000000000E+00 0.  1.
          2   -1    0    0  501    0  0.00000000000E+00 -0.00000000000E+00 -0.78075719772E+02  0.78075719772E+02  0.00000000000E+00 0. -1.
         23    2    1    2    0    0  0.00000000000E+00  0.00000000000E+00 -0.52567711102E+02  0.10358372844E+03  0.89253708873E+02 0.  0.
        -13    1    3    3    0    0  0.37210937525E+02 -0.23616655319E+02 -0.34420641723E+02  0.55921202209E+02  0.00000000000E+00 0.  1.
         13    1    3    3    0    0 -0.37210937525E+02  0.23616655319E+02 -0.18147069379E+02  0.47662526234E+02  0.00000000000E+00 0. -1.
<mgrwt>
<rscale>  0 0.89253709E+02</rscale>
<asrwt>0</asrwt>
<pdfrwt beam="2">  1        2 0.12011649E-01 0.89253709E+02</pdfrwt>
<pdfrwt beam="1">  1       -2 0.39243091E-02 0.89253709E+02</pdfrwt>
<totfact> 0.12101321E+05</totfact>
</mgrwt>
</event>
<event>
 5    1  0.6046470E+000  0.8639218E+02  0.7546771E-02  0.1311831E+00
          1   -1    0    0  501    0  0.00000000000E+00  0.00000000000E+00  0.31828438799E+03  0.31828438799E+03  0.00000000000E+00 0. -1.
         -1   -1    0    0    0  501 -0.00000000000E+00 -0.00000000000E+00 -0.58623744534E+01  0.58623744534E+01  0.00000000000E+00 0.  1.
         23    2    1    2    0    0  0.00000000000E+00  0.00000000000E+00  0.31242201354E+03  0.32414676244E+03  0.86392181708E+02 0.  0.
        -13    1    3    3    0    0  0.30037453950E+02 -0.30895522391E+02  0.14487990031E+03  0.15115213349E+03  0.00000000000E+00 0.  1.
         13    1    3    3    0    0 -0.30037453950E+02  0.30895522391E+02  0.16754211322E+03  0.17299462895E+03  0.00000000000E+00 0. -1.
<mgrwt>
<rscale>  0 0.86392182E+02</rscale>
<asrwt>0</asrwt>
<pdfrwt beam="1">  1        1 0.48966815E-01 0.86392182E+02</pdfrwt>
<pdfrwt beam="2">  1       -1 0.90190401E-03 0.86392182E+02</pdfrwt>
<totfact> 0.14948565E+05</totfact>
</mgrwt>
</event>
<event>
 5    1  0.6046470E+000  0.9186948E+02  0.7546771E-02  0.1298387E+00
         -1   -1    0    0    0  501 -0.00000000000E+00  0.00000000000E+00  0.71027024179E+02  0.71027024179E+02  0.00000000000E+00 0.  1.
          1   -1    0    0  501    0  0.00000000000E+00 -0.00000000000E+00 -0.29707009506E+02  0.29707009506E+02  0.00000000000E+00 0. -1.
         23    2    1    2    0    0  0.00000000000E+00  0.00000000000E+00  0.41320014673E+02  0.10073403369E+03  0.91869483126E+02 0.  0.
        -13    1    3    3    0    0 -0.25447131771E+02 -0.30985387890E+02  0.45235827892E+02  0.60447753499E+02  0.00000000000E+00 0.  1.
         13    1    3    3    0    0  0.25447131771E+02  0.30985387890E+02 -0.39158132193E+01  0.40286280186E+02  0.00000000000E+00 0. -1.
<mgrwt>
<rscale>  0 0.91869483E+02</rscale>
<asrwt>0</asrwt>
<pdfrwt beam="2">  1        1 0.45703092E-02 0.91869483E+02</pdfrwt>
<pdfrwt beam="1">  1       -1 0.10927234E-01 0.91869483E+02</pdfrwt>
<totfact> 0.84682836E+04</totfact>
</mgrwt>
</event>
<event>
 5    1  0.6046470E+000  0.9242276E+02  0.7546771E-02  0.1297088E+00
          1   -1    0    0  501    0  0.00000000000E+00  0.00000000000E+00  0.81586633296E+02  0.81586633296E+02  0.00000000000E+00 0. -1.
         -1   -1    0    0    0  501 -0.00000000000E+00 -0.00000000000E+00 -0.26174525516E+02  0.26174525516E+02  0.00000000000E+00 0.  1.
         23    2    1    2    0    0  0.00000000000E+00  0.00000000000E+00  0.55412107780E+02  0.10776115881E+03  0.92422755098E+02 0.  0.
        -13    1    3    3    0    0 -0.11265648371E+02 -0.31146682213E+02 -0.98671638704E+01  0.34559970616E+02  0.00000000000E+00 0.  1.
         13    1    3    3    0    0  0.11265648371E+02  0.31146682213E+02  0.65279271651E+02  0.73201188196E+02  0.00000000000E+00 0. -1.
<mgrwt>
<rscale>  0 0.92422755E+02</rscale>
<asrwt>0</asrwt>
<pdfrwt beam="1">  1        1 0.12551790E-01 0.92422755E+02</pdfrwt>
<pdfrwt beam="2">  1       -1 0.40268501E-02 0.92422755E+02</pdfrwt>
<totfact> 0.97357642E+04</totfact>
</mgrwt>
</event>
<event>
 5    1  0.6046470E+000  0.9161031E+02  0.7546771E-02  0.1298998E+00
         -1   -1    0    0    0  501 -0.00000000000E+00  0.00000000000E+00  0.73035838635E+01  0.73035838635E+01  0.00000000000E+00 0.  1.
          1   -1    0    0  501    0  0.00000000000E+00 -0.00000000000E+00 -0.28727160932E+03  0.28727160932E+03  0.00000000000E+00 0. -1.
         23    2    1    2    0    0  0.00000000000E+00  0.00000000000E+00 -0.27996802546E+03  0.29457519318E+03  0.91610311434E+02 0.  0.
        -13    1    3    3    0    0  0.11488822275E+02 -0.43090348588E+02 -0.17360756190E+03  0.17924384711E+03  0.00000000000E+00 0.  1.
         13    1    3    3    0    0 -0.11488822275E+02  0.43090348588E+02 -0.10636046356E+03  0.11533134607E+03  0.00000000000E+00 0. -1.
<mgrwt>
<rscale>  0 0.91610311E+02</rscale>
<asrwt>0</asrwt>
<pdfrwt beam="2">  1        1 0.44195632E-01 0.91610311E+02</pdfrwt>
<pdfrwt beam="1">  1       -1 0.11236283E-02 0.91610311E+02</pdfrwt>
<totfact> 0.12546323E+05</totfact>
</mgrwt>
</event>
<event>
 5    1  0.6046470E+000  0.9034438E+02  0.7546771E-02  0.1302020E+00
         -1   -1    0    0    0  501 -0.00000000000E+00  0.00000000000E+00  0.10165461747E+03  0.10165461747E+03  0.00000000000E+00 0.  1.
          1   -1    0    0  501    0  0.00000000000E+00 -0.00000000000E+00 -0.20073135973E+02  0.20073135973E+02  0.00000000000E+00 0. -1.
         23    2    1    2    0    0  0.00000000000E+00  0.00000000000E+00  0.81581481499E+02  0.12172775344E+03  0.90344384635E+02 0.  0.
        -13    1    3    3    0    0 -0.42755853895E+02  0.77661706409E+00  0.21179109050E+02  0.47720235084E+02  0.00000000000E+00 0. -1.
         13    1    3    3    0    0  0.42755853895E+02 -0.77661706409E+00  0.60402372449E+02  0.74007518360E+02  0.00000000000E+00 0.  1.
<mgrwt>
<rscale>  0 0.90344385E+02</rscale>
<asrwt>0</asrwt>
<pdfrwt beam="2">  1        1 0.30881748E-02 0.90344385E+02</pdfrwt>
<pdfrwt beam="1">  1       -1 0.15639172E-01 0.90344385E+02</pdfrwt>
<totfact> 0.83059631E+04</totfact>
</mgrwt>
</event>
<event>
 5    1  0.6046470E+000  0.9169665E+02  0.7546771E-02  0.1298794E+00
         -1   -1    0    0    0  501 -0.00000000000E+00  0.00000000000E+00  0.15802509562E+03  0.15802509562E+03  0.00000000000E+00 0.  1.
          1   -1    0    0  501    0  0.00000000000E+00 -0.00000000000E+00 -0.13302119551E+02  0.13302119551E+02  0.00000000000E+00 0. -1.
         23    2    1    2    0    0  0.00000000000E+00  0.00000000000E+00  0.14472297607E+03  0.17132721518E+03  0.91696645827E+02 0.  0.
        -13    1    3    3    0    0  0.44798788650E+02 -0.53094093005E+01  0.57073869554E+02  0.72749899502E+02  0.00000000000E+00 0.  1.
         13    1    3    3    0    0 -0.44798788650E+02  0.53094093005E+01  0.87649106521E+02  0.98577315674E+02  0.00000000000E+00 0. -1.
<mgrwt>
<rscale>  0 0.91696646E+02</rscale>
<asrwt>0</asrwt>
<pdfrwt beam="2">  1        1 0.20464800E-02 0.91696646E+02</pdfrwt>
<pdfrwt beam="1">  1       -1 0.24311552E-01 0.91696646E+02</pdfrwt>
<totfact> 0.72782152E+04</totfact>
</mgrwt>
</event>
<event>
 5    1  0.6046470E+000  0.8996800E+02  0.7546771E-02  0.1302929E+00
          1   -1    0    0  501    0  0.00000000000E+00  0.00000000000E+00  0.46094778381E+02  0.46094778381E+02  0.00000000000E+00 0. -1.
         -1   -1    0    0    0  501 -0.00000000000E+00 -0.00000000000E+00 -0.43899992712E+02  0.43899992712E+02  0.00000000000E+00 0.  1.
         23    2    1    2    0    0  0.00000000000E+00  0.00000000000E+00  0.21947856685E+01  0.89994771093E+02  0.89968003979E+02 0.  0.
        -13    1    3    3    0    0  0.32459120337E+01 -0.40969300455E+02 -0.17198508451E+02  0.44551186490E+02  0.00000000000E+00 0.  1.
         13    1    3    3    0    0 -0.32459120337E+01  0.40969300455E+02  0.19393294119E+02  0.45443584603E+02  0.00000000000E+00 0. -1.
<mgrwt>
<rscale>  0 0.89968004E+02</rscale>
<asrwt>0</asrwt>
<pdfrwt beam="1">  1        1 0.70915044E-02 0.89968004E+02</pdfrwt>
<pdfrwt beam="2">  1       -1 0.67538450E-02 0.89968004E+02</pdfrwt>
<totfact> 0.96153335E+04</totfact>
</mgrwt>
</event>
<event>
 5    1  0.6046470E+000  0.6434131E+02  0.7546771E-02  0.1380467E+00
          1   -1    0    0  501    0  0.00000000000E+00  0.00000000000E+00  0.84041174273E+02  0.84041174273E+02  0.00000000000E+00 0. -1.
         -1   -1    0    0    0  501 -0.00000000000E+00 -0.00000000000E+00 -0.12314808068E+02  0.12314808068E+02  0.00000000000E+00 0.  1.
         23    2    1    2    0    0  0.00000000000E+00  0.00000000000E+00  0.71726366205E+02  0.96355982342E+02  0.64341306515E+02 0.  0.
        -13    1    3    3    0    0 -0.59533801738E+01  0.31527423394E+02  0.32341564426E+02  0.45556535765E+02  0.00000000000E+00 0.  1.
         13    1    3    3    0    0  0.59533801738E+01 -0.31527423394E+02  0.39384801779E+02  0.50799446577E+02  0.00000000000E+00 0. -1.
<mgrwt>
<rscale>  0 0.64341307E+02</rscale>
<asrwt>0</asrwt>
<pdfrwt beam="1">  1        1 0.12929411E-01 0.64341307E+02</pdfrwt>
<pdfrwt beam="2">  1       -1 0.18945859E-02 0.64341307E+02</pdfrwt>
<totfact> 0.25808970E+05</totfact>
</mgrwt>
</event>
<event>
 5    1  0.6046470E+000  0.8902453E+02  0.7546771E-02  0.1305231E+00
          1   -1    0    0  501    0  0.00000000000E+00  0.00000000000E+00  0.61958579676E+02  0.61958579676E+02  0.00000000000E+00 0. -1.
         -1   -1    0    0    0  501 -0.00000000000E+00 -0.00000000000E+00 -0.31978491519E+02  0.31978491519E+02  0.00000000000E+00 0.  1.
         23    2    1    2    0    0  0.00000000000E+00  0.00000000000E+00  0.29980088156E+02  0.93937071195E+02  0.89024534028E+02 0.  0.
        -13    1    3    3    0    0 -0.31161399903E+02  0.12733145720E+02 -0.15740504583E+02  0.37160857476E+02  0.00000000000E+00 0.  1.
         13    1    3    3    0    0  0.31161399903E+02 -0.12733145720E+02  0.45720592739E+02  0.56776213719E+02  0.00000000000E+00 0. -1.
<mgrwt>
<rscale>  0 0.89024534E+02</rscale>
<asrwt>0</asrwt>
<pdfrwt beam="1">  1        1 0.95320891E-02 0.89024534E+02</pdfrwt>
<pdfrwt beam="2">  1       -1 0.49197680E-02 0.89024534E+02</pdfrwt>
<totfact> 0.10344971E+05</totfact>
</mgrwt>
</event>
<event>
 5    1  0.6046470E+000  0.8380373E+02  0.7546771E-02  0.1318591E+00
          1   -1    0    0  501    0  0.00000000000E+00  0.00000000000E+00  0.83449996407E+01  0.83449996407E+01  0.00000000000E+00 0. -1.
         -1   -1    0    0    0  501 -0.00000000000E+00 -0.00000000000E+00 -0.21039741052E+03  0.21039741052E+03  0.00000000000E+00 0.  1.
         23    2    1    2    0    0  0.00000000000E+00  0.00000000000E+00 -0.20205241088E+03  0.21874241016E+03  0.83803730589E+02 0.  0.
        -13    1    3    3    0    0  0.30149305875E+02  0.25200184665E+02 -0.63045120551E+02  0.74288068875E+02  0.00000000000E+00 0. -1.
         13    1    3    3    0    0 -0.30149305875E+02 -0.25200184665E+02 -0.13900729033E+03  0.14445434128E+03  0.00000000000E+00 0.  1.
<mgrwt>
<rscale>  0 0.83803731E+02</rscale>
<asrwt>0</asrwt>
<pdfrwt beam="1">  1        1 0.12838462E-02 0.83803731E+02</pdfrwt>
<pdfrwt beam="2">  1       -1 0.32368831E-01 0.83803731E+02</pdfrwt>
<totfact> 0.85164857E+04</totfact>
</mgrwt>
</event>
<event>
 5    1  0.6046470E+000  0.9128274E+02  0.7546771E-02  0.1299775E+00
         -3   -1    0    0    0  501 -0.00000000000E+00  0.00000000000E+00  0.54822432901E+02  0.54822432901E+02  0.00000000000E+00 0.  1.
          3   -1    0    0  501    0  0.00000000000E+00 -0.00000000000E+00 -0.37997852574E+02  0.37997852574E+02  0.00000000000E+00 0. -1.
         23    2    1    2    0    0  0.00000000000E+00  0.00000000000E+00  0.16824580327E+02  0.92820285475E+02  0.91282741482E+02 0.  0.
        -13    1    3    3    0    0 -0.32074091736E+02 -0.21014273739E+01  0.41361344363E+02  0.52382479563E+02  0.00000000000E+00 0.  1.
         13    1    3    3    0    0  0.32074091736E+02  0.21014273739E+01 -0.24536764035E+02  0.40437805912E+02  0.00000000000E+00 0. -1.
<mgrwt>
<rscale>  0 0.91282741E+02</rscale>
<asrwt>0</asrwt>
<pdfrwt beam="2">  1        3 0.58458235E-02 0.91282741E+02</pdfrwt>
<pdfrwt beam="1">  1       -3 0.84342205E-02 0.91282741E+02</pdfrwt>
<totfact> 0.35102045E+04</totfact>
</mgrwt>
</event>
<event>
 5    1  0.6046470E+000  0.9014486E+02  0.7546771E-02  0.1302501E+00
         -2   -1    0    0    0  501 -0.00000000000E+00  0.00000000000E+00  0.31757730769E+02  0.31757730769E+02  0.00000000000E+00 0.  1.
          2   -1    0    0  501    0  0.00000000000E+00 -0.00000000000E+00 -0.63969427934E+02  0.63969427934E+02  0.00000000000E+00 0. -1.
         23    2    1    2    0    0  0.00000000000E+00  0.00000000000E+00 -0.32211697166E+02  0.95727158703E+02  0.90144858306E+02 0.  0.
        -13    1    3    3    0    0 -0.29510304019E+02 -0.15369645092E+02 -0.48393282794E+02  0.58728135107E+02  0.00000000000E+00 0. -1.
         13    1    3    3    0    0  0.29510304019E+02  0.15369645092E+02  0.16181585629E+02  0.36999023596E+02  0.00000000000E+00 0.  1.
<mgrwt>
<rscale>  0 0.90144858E+02</rscale>
<asrwt>0</asrwt>
<pdfrwt beam="2">  1        2 0.98414503E-02 0.90144858E+02</pdfrwt>
<pdfrwt beam="1">  1       -2 0.48858048E-02 0.90144858E+02</pdfrwt>
<totfact> 0.11142221E+05</totfact>
</mgrwt>
</event>
<event>
 5    1  0.6046470E+000  0.8960329E+02  0.7546771E-02  0.1303815E+00
         -1   -1    0    0    0  501 -0.00000000000E+00  0.00000000000E+00  0.94070882217E+01  0.94070882217E+01  0.00000000000E+00 0.  1.
          1   -1    0    0  501    0  0.00000000000E+00 -0.00000000000E+00 -0.21336968125E+03  0.21336968125E+03  0.00000000000E+00 0. -1.
         23    2    1    2    0    0  0.00000000000E+00  0.00000000000E+00 -0.20396259303E+03  0.22277676947E+03  0.89603290461E+02 0.  0.
        -13    1    3    3    0    0  0.37345049272E+02 -0.19104728942E+02 -0.14109889483E+03  0.14720238278E+03  0.00000000000E+00 0.  1.
         13    1    3    3    0    0 -0.37345049272E+02  0.19104728942E+02 -0.62863698198E+02  0.75574386694E+02  0.00000000000E+00 0. -1.
<mgrwt>
<rscale>  0 0.89603290E+02</rscale>
<asrwt>0</asrwt>
<pdfrwt beam="2">  1        1 0.32826103E-01 0.89603290E+02</pdfrwt>
<pdfrwt beam="1">  1       -1 0.14472444E-02 0.89603290E+02</pdfrwt>
<totfact> 0.12562044E+05</totfact>
</mgrwt>
</event>
<event>
 5    1  0.6046470E+000  0.8893898E+02  0.7546771E-02  0.1305442E+00
          4   -1    0    0  501    0  0.00000000000E+00  0.00000000000E+00  0.99248440007E+02  0.99248440007E+02  0.00000000000E+00 0. -1.
         -4   -1    0    0    0  501 -0.00000000000E+00 -0.00000000000E+00 -0.19925104052E+02  0.19925104052E+02  0.00000000000E+00 0.  1.
         23    2    1    2    0    0  0.00000000000E+00  0.00000000000E+00  0.79323335955E+02  0.11917354406E+03  0.88938978949E+02 0.  0.
        -13    1    3    3    0    0  0.44386386010E+02  0.20402214070E+01  0.42066762394E+02  0.61187631632E+02  0.00000000000E+00 0. -1.
         13    1    3    3    0    0 -0.44386386010E+02 -0.20402214070E+01  0.37256573562E+02  0.57985912427E+02  0.00000000000E+00 0.  1.
<mgrwt>
<rscale>  0 0.88938979E+02</rscale>
<asrwt>0</asrwt>
<pdfrwt beam="1">  1        4 0.15268990E-01 0.88938979E+02</pdfrwt>
<pdfrwt beam="2">  1       -4 0.30654007E-02 0.88938979E+02</pdfrwt>
<totfact> 0.27071874E+04</totfact>
</mgrwt>
</event>
<event>
 5    1  0.6046470E+000  0.9602810E+02  0.7546771E-02  0.1288877E+00
         -2   -1    0    0    0  501 -0.00000000000E+00  0.00000000000E+00  0.47094746960E+02  0.47094746960E+02  0.00000000000E+00 0.  1.
          2   -1    0    0  501    0  0.00000000000E+00 -0.00000000000E+00 -0.48951295765E+02  0.48951295765E+02  0.00000000000E+00 0. -1.
         23    2    1    2    0    0  0.00000000000E+00  0.00000000000E+00 -0.18565488057E+01  0.96046042725E+02  0.96028097709E+02 0.  0.
        -13    1    3    3    0    0 -0.36135641041E+02 -0.22929303161E+02 -0.22699551162E+02  0.48443855337E+02  0.00000000000E+00 0. -1.
         13    1    3    3    0    0  0.36135641041E+02  0.22929303161E+02  0.20843002356E+02  0.47602187388E+02  0.00000000000E+00 0.  1.
<mgrwt>
<rscale>  0 0.96028098E+02</rscale>
<asrwt>0</asrwt>
<pdfrwt beam="2">  1        2 0.75309686E-02 0.96028098E+02</pdfrwt>
<pdfrwt beam="1">  1       -2 0.72453457E-02 0.96028098E+02</pdfrwt>
<totfact> 0.86607764E+04</totfact>
</mgrwt>
</event>
<event>
 5    1  0.6046470E+000  0.9157981E+02  0.7546771E-02  0.1299070E+00
          1   -1    0    0  501    0  0.00000000000E+00  0.00000000000E+00  0.95370146236E+01  0.95370146236E+01  0.00000000000E+00 0. -1.
         -1   -1    0    0    0  501 -0.00000000000E+00 -0.00000000000E+00 -0.21985026475E+03  0.21985026475E+03  0.00000000000E+00 0.  1.
         23    2    1    2    0    0  0.00000000000E+00  0.00000000000E+00 -0.21031325012E+03  0.22938727937E+03  0.91579805414E+02 0.  0.
        -13    1    3    3    0    0 -0.42441004508E+02  0.16606805786E+02 -0.11627128265E+03  0.12488409038E+03  0.00000000000E+00 0. -1.
         13    1    3    3    0    0  0.42441004508E+02 -0.16606805786E+02 -0.94041967476E+02  0.10450318899E+03  0.00000000000E+00 0.  1.
<mgrwt>
<rscale>  0 0.91579805E+02</rscale>
<asrwt>0</asrwt>
<pdfrwt beam="1">  1        1 0.14672331E-02 0.91579805E+02</pdfrwt>
<pdfrwt beam="2">  1       -1 0.33823116E-01 0.91579805E+02</pdfrwt>
<totfact> 0.66732596E+04</totfact>
</mgrwt>
</event>
<event>
 5    1  0.6046470E+000  0.9096686E+02  0.7546771E-02  0.1300527E+00
          1   -1    0    0  501    0  0.00000000000E+00  0.00000000000E+00  0.20343454768E+03  0.20343454768E+03  0.00000000000E+00 0. -1.
         -1   -1    0    0    0  501 -0.00000000000E+00 -0.00000000000E+00 -0.10169080355E+02  0.10169080355E+02  0.00000000000E+00 0.  1.
         23    2    1    2    0    0  0.00000000000E+00  0.00000000000E+00  0.19326546733E+03  0.21360362804E+03  0.90966856874E+02 0.  0.
        -13    1    3    3    0    0 -0.37135750498E+02  0.16276065232E+02  0.48237640462E+02  0.63014634981E+02  0.00000000000E+00 0.  1.
         13    1    3    3    0    0  0.37135750498E+02 -0.16276065232E+02  0.14502782686E+03  0.15058899306E+03  0.00000000000E+00 0. -1.
<mgrwt>
<rscale>  0 0.90966857E+02</rscale>
<asrwt>0</asrwt>
<pdfrwt beam="1">  1        1 0.31297620E-01 0.90966857E+02</pdfrwt>
<pdfrwt beam="2">  1       -1 0.15644740E-02 0.90966857E+02</pdfrwt>
<totfact> 0.11953475E+05</totfact>
</mgrwt>
</event>
<event>
 5    1  0.6046470E+000  0.9281252E+02  0.7546771E-02  0.1296180E+00
          2   -1    0    0  501    0  0.00000000000E+00  0.00000000000E+00  0.54538611971E+02  0.54538611971E+02  0.00000000000E+00 0. -1.
         -2   -1    0    0    0  501 -0.00000000000E+00 -0.00000000000E+00 -0.39486542094E+02  0.39486542094E+02  0.00000000000E+00 0.  1.
         23    2    1    2    0    0  0.00000000000E+00  0.00000000000E+00  0.15052069877E+02  0.94025154065E+02  0.92812524960E+02 0.  0.
        -13    1    3    3    0    0 -0.39920168035E+02  0.22783639474E+02  0.13999130496E+02  0.48048826190E+02  0.00000000000E+00 0. -1.
         13    1    3    3    0    0  0.39920168035E+02 -0.22783639474E+02  0.10529393814E+01  0.45976327876E+02  0.00000000000E+00 0.  1.
<mgrwt>
<rscale>  0 0.92812525E+02</rscale>
<asrwt>0</asrwt>
<pdfrwt beam="1">  1        2 0.83905556E-02 0.92812525E+02</pdfrwt>
<pdfrwt beam="2">  1       -2 0.60748527E-02 0.92812525E+02</pdfrwt>
<totfact> 0.98311435E+04</totfact>
</mgrwt>
</event>
<event>
 5    1  0.6046470E+000  0.9083480E+02  0.7546771E-02  0.1300843E+00
          1   -1    0    0  501    0  0.00000000000E+00  0.00000000000E+00  0.37699775621E+02  0.37699775621E+02  0.00000000000E+00 0. -1.
         -1   -1    0    0    0  501 -0.00000000000E+00 -0.00000000000E+00 -0.54714914898E+02  0.54714914898E+02  0.00000000000E+00 0.  1.
         23    2    1    2    0    0  0.00000000000E+00  0.00000000000E+00 -0.17015139277E+02  0.92414690519E+02  0.90834795421E+02 0.  0.
        -13    1    3    3    0    0  0.39621961627E+02  0.16863735869E+02  0.61815069821E+01  0.43502832772E+02  0.00000000000E+00 0. -1.
         13    1    3    3    0    0 -0.39621961627E+02 -0.16863735869E+02 -0.23196646259E+02  0.48911857747E+02  0.00000000000E+00 0.  1.
<mgrwt>
<rscale>  0 0.90834795E+02</rscale>
<asrwt>0</asrwt>
<pdfrwt beam="1">  1        1 0.57999655E-02 0.90834795E+02</pdfrwt>
<pdfrwt beam="2">  1       -1 0.84176793E-02 0.90834795E+02</pdfrwt>
<totfact> 0.90809466E+04</totfact>
</mgrwt>
</event>
<event>
 5    1  0.6046470E+000  0.8814684E+02  0.7546771E-02  0.1307402E+00
          1   -1    0    0  501    0  0.00000000000E+00  0.00000000000E+00  0.12052389190E+02  0.12052389190E+02  0.00000000000E+00 0. -1.
         -1   -1    0    0    0  501 -0.00000000000E+00 -0.00000000000E+00 -0.16116857667E+03  0.16116857667E+03  0.00000000000E+00 0.  1.
         23    2    1    2    0    0  0.00000000000E+00  0.00000000000E+00 -0.14911618748E+03  0.17322096586E+03  0.88146841379E+02 0.  0.
        -13    1    3    3    0    0 -0.18273398891E+02 -0.35506562212E+02 -0.37907644078E+02  0.55060172055E+02  0.00000000000E+00 0. -1.
         13    1    3    3    0    0  0.18273398891E+02  0.35506562212E+02 -0.11120854340E+03  0.11816079381E+03  0.00000000000E+00 0.  1.
<mgrwt>
<rscale>  0 0.88146841E+02</rscale>
<asrwt>0</asrwt>
<pdfrwt beam="1">  1        1 0.18542137E-02 0.88146841E+02</pdfrwt>
<pdfrwt beam="2">  1       -1 0.24795165E-01 0.88146841E+02</pdfrwt>
<totfact> 0.80247055E+04</totfact>
</mgrwt>
</event>
<event>
 5    1  0.6046470E+000  0.9050218E+02  0.7546771E-02  0.1301640E+00
         -1   -1    0    0    0  501 -0.00000000000E+00  0.00000000000E+00  0.12635389533E+02  0.12635389533E+02  0.00000000000E+00 0.  1.
          1   -1    0    0  501    0  0.00000000000E+00 -0.00000000000E+00 -0.16205762901E+03  0.16205762901E+03  0.00000000000E+00 0. -1.
         23    2    1    2    0    0  0.00000000000E+00  0.00000000000E+00 -0.14942223948E+03  0.17469301855E+03  0.90502182722E+02 0.  0.
        -13    1    3    3    0    0 -0.25632990493E+02 -0.15909104252E+02 -0.13981312828E+03  0.14303097790E+03  0.00000000000E+00 0. -1.
         13    1    3    3    0    0  0.25632990493E+02  0.15909104252E+02 -0.96091111991E+01  0.31662040645E+02  0.00000000000E+00 0.  1.
<mgrwt>
<rscale>  0 0.90502183E+02</rscale>
<asrwt>0</asrwt>
<pdfrwt beam="2">  1        1 0.24931941E-01 0.90502183E+02</pdfrwt>
<pdfrwt beam="1">  1       -1 0.19439062E-02 0.90502183E+02</pdfrwt>
<totfact> 0.11604646E+05</totfact>
</mgrwt>
</event>
<event>
 5    1  0.6046470E+000  0.9057401E+02  0.7546771E-02  0.1301468E+00
         -4   -1    0    0    0  501 -0.00000000000E+00  0.00000000000E+00  0.32351519255E+02  0.32351519255E+02  0.00000000000E+00 0.  1.
          4   -1    0    0  501    0  0.00000000000E+00 -0.00000000000E+00 -0.63394641003E+02  0.63394641003E+02  0.00000000000E+00 0. -1.
         23    2    1    2    0    0  0.00000000000E+00  0.00000000000E+00 -0.31043121748E+02  0.95746160258E+02  0.90574012809E+02 0.  0.
        -13    1    3    3    0    0  0.11882852422E+02  0.27931683056E+02  0.20006131329E+02  0.36354179826E+02  0.00000000000E+00 0.  1.
         13    1    3    3    0    0 -0.11882852422E+02 -0.27931683056E+02 -0.51049253076E+02  0.59391980433E+02  0.00000000000E+00 0. -1.
<mgrwt>
<rscale>  0 0.90574013E+02</rscale>
<asrwt>0</asrwt>
<pdfrwt beam="2">  1        4 0.97530216E-02 0.90574013E+02</pdfrwt>
<pdfrwt beam="1">  1       -4 0.49771568E-02 0.90574013E+02</pdfrwt>
<totfact> 0.27208767E+04</totfact>
</mgrwt>
</event>
<event>
 5    1  0.6046470E+000  0.8918656E+02  0.7546771E-02  0.1304834E+00
          2   -1    0    0  501    0  0.00000000000E+00  0.00000000000E+00  0.39503755632E+02  0.39503755632E+02  0.00000000000E+00 0.  1.
         -2   -1    0    0    0  501 -0.00000000000E+00 -0.00000000000E+00 -0.50338524670E+02  0.50338524670E+02  0.00000000000E+00 0. -1.
         23    2    1    2    0    0  0.00000000000E+00  0.00000000000E+00 -0.10834769038E+02  0.89842280302E+02  0.89186563505E+02 0.  0.
        -13    1    3    3    0    0 -0.44234712412E+02  0.32200668781E+01 -0.74842234601E+00  0.44358074225E+02  0.00000000000E+00 0.  1.
         13    1    3    3    0    0  0.44234712412E+02 -0.32200668781E+01 -0.10086346692E+02  0.45484206077E+02  0.00000000000E+00 0. -1.
<mgrwt>
<rscale>  0 0.89186564E+02</rscale>
<asrwt>0</asrwt>
<pdfrwt beam="1">  1        2 0.60775009E-02 0.89186564E+02</pdfrwt>
<pdfrwt beam="2">  1       -2 0.77443884E-02 0.89186564E+02</pdfrwt>
<totfact> 0.10134309E+05</totfact>
</mgrwt>
</event>
<event>
 5    1  0.6046470E+000  0.9372942E+02  0.7546771E-02  0.1294064E+00
          1   -1    0    0  501    0  0.00000000000E+00  0.00000000000E+00  0.30589592216E+03  0.30589592216E+03  0.00000000000E+00 0. -1.
         -1   -1    0    0    0  501 -0.00000000000E+00 -0.00000000000E+00 -0.71798970932E+01  0.71798970932E+01  0.00000000000E+00 0.  1.
         23    2    1    2    0    0  0.00000000000E+00  0.00000000000E+00  0.29871602507E+03  0.31307581925E+03  0.93729424245E+02 0.  0.
        -13    1    3    3    0    0 -0.45713819434E+02  0.76178084726E+01  0.12609208783E+03  0.13433911905E+03  0.00000000000E+00 0. -1.
         13    1    3    3    0    0  0.45713819434E+02 -0.76178084726E+01  0.17262393724E+03  0.17873670021E+03  0.00000000000E+00 0.  1.
<mgrwt>
<rscale>  0 0.93729424E+02</rscale>
<asrwt>0</asrwt>
<pdfrwt beam="1">  1        1 0.47060901E-01 0.93729424E+02</pdfrwt>
<pdfrwt beam="2">  1       -1 0.11045998E-02 0.93729424E+02</pdfrwt>
<totfact> 0.11946003E+05</totfact>
</mgrwt>
</event>
<event>
 5    1  0.6046470E+000  0.9296349E+02  0.7546771E-02  0.1295830E+00
          4   -1    0    0  501    0  0.00000000000E+00  0.00000000000E+00  0.59795212665E+02  0.59795212665E+02  0.00000000000E+00 0.  1.
         -4   -1    0    0    0  501 -0.00000000000E+00 -0.00000000000E+00 -0.36132531949E+02  0.36132531949E+02  0.00000000000E+00 0. -1.
         23    2    1    2    0    0  0.00000000000E+00  0.00000000000E+00  0.23662680716E+02  0.95927744614E+02  0.92963485994E+02 0.  0.
        -13    1    3    3    0    0 -0.25780382353E+02  0.38637529051E+02  0.10024606042E+02  0.47518201689E+02  0.00000000000E+00 0.  1.
         13    1    3    3    0    0  0.25780382353E+02 -0.38637529051E+02  0.13638074675E+02  0.48409542926E+02  0.00000000000E+00 0. -1.
<mgrwt>
<rscale>  0 0.92963486E+02</rscale>
<asrwt>0</asrwt>
<pdfrwt beam="1">  1        4 0.91992635E-02 0.92963486E+02</pdfrwt>
<pdfrwt beam="2">  1       -4 0.55588511E-02 0.92963486E+02</pdfrwt>
<totfact> 0.25339357E+04</totfact>
</mgrwt>
</event>
<event>
 5    1  0.6046470E+000  0.8932020E+02  0.7546771E-02  0.1304506E+00
          4   -1    0    0  501    0  0.00000000000E+00  0.00000000000E+00  0.40961373098E+02  0.40961373098E+02  0.00000000000E+00 0. -1.
         -4   -1    0    0    0  501 -0.00000000000E+00 -0.00000000000E+00 -0.48692809906E+02  0.48692809906E+02  0.00000000000E+00 0.  1.
         23    2    1    2    0    0  0.00000000000E+00  0.00000000000E+00 -0.77314368079E+01  0.89654183004E+02  0.89320196009E+02 0.  0.
        -13    1    3    3    0    0  0.34238004616E+02  0.34880754501E+01  0.24703258542E+02  0.42363411253E+02  0.00000000000E+00 0. -1.
         13    1    3    3    0    0 -0.34238004616E+02 -0.34880754501E+01 -0.32434695350E+02  0.47290771751E+02  0.00000000000E+00 0.  1.
<mgrwt>
<rscale>  0 0.89320196E+02</rscale>
<asrwt>0</asrwt>
<pdfrwt beam="1">  1        4 0.63017497E-02 0.89320196E+02</pdfrwt>
<pdfrwt beam="2">  1       -4 0.74912015E-02 0.89320196E+02</pdfrwt>
<totfact> 0.28667797E+04</totfact>
</mgrwt>
</event>
