<event>
 5    1  0.6027538E+000  0.7588811E+02  0.7546771E-02  0.1341143E+00
          4   -1    0    0  501    0  0.00000000000E+00  0.00000000000E+00  0.35778490695E+01  0.35778490695E+01  0.00000000000E+00 0. -1.
         -4   -1    0    0    0  501 -0.00000000000E+00 -0.00000000000E+00 -0.40240698664E+03  0.40240698664E+03  0.00000000000E+00 0.  1.
         23    2    1    2    0    0  0.00000000000E+00  0.00000000000E+00 -0.39882913757E+03  0.40598483571E+03  0.75888114029E+02 0.  0.
        -13    1    3    3    0    0  0.23756581371E+02  0.29324723088E+02 -0.22043377837E+03  0.22364115271E+03  0.00000000000E+00 0.  1.
         13    1    3    3    0    0 -0.23756581371E+02 -0.29324723088E+02 -0.17839535921E+03  0.18234368300E+03  0.00000000000E+00 0. -1.
<mgrwt>
<rscale>  0 0.75888114E+02</rscale>
<asrwt>0</asrwt>
<pdfrwt beam="1">  1        4 0.55043852E-03 0.75888114E+02</pdfrwt>
<pdfrwt beam="2">  1       -4 0.61908744E-01 0.75888114E+02</pdfrwt>
<totfact> 0.24239114E+04</totfact>
</mgrwt>
</event>
<event>
 4    1  0.6027538E+000  0.4851121E+02  0.7546771E-02  0.1453541E+00
          3   -1    0    0  501    0  0.00000000000E+00  0.00000000000E+00  0.97042504442E+01  0.97042504442E+01  0.00000000000E+00 0.  1.
         -3   -1    0    0    0  501 -0.00000000000E+00 -0.00000000000E+00 -0.60626473424E+02  0.60626473424E+02  0.00000000000E+00 0. -1.
        -13    1    1    2    0    0 -0.95798157617E+01 -0.11668795720E+02  0.20618919496E+01  0.15237619958E+02  0.00000000000E+00 0.  1.
         13    1    1    2    0    0  0.95798157617E+01  0.11668795720E+02 -0.52984114929E+02  0.55093103910E+02  0.00000000000E+00 0. -1.
<mgrwt>
<rscale>  0 0.48511214E+02</rscale>
<asrwt>0</asrwt>
<pdfrwt beam="1">  1        3 0.14929616E-02 0.48511214E+02</pdfrwt>
<pdfrwt beam="2">  1       -3 0.93271499E-02 0.48511214E+02</pdfrwt>
<totfact> 0.19346730E+05</totfact>
</mgrwt>
</event>
<event>
 5    1  0.6027538E+000  0.9468368E+02  0.7546771E-02  0.1291890E+00
         -3   -1    0    0    0  501 -0.00000000000E+00  0.00000000000E+00  0.73113664108E+02  0.73113664108E+02  0.00000000000E+00 0.  1.
          3   -1    0    0  501    0  0.00000000000E+00 -0.00000000000E+00 -0.30654319399E+02  0.30654319399E+02  0.00000000000E+00 0. -1.
         23    2    1    2    0    0  0.00000000000E+00  0.00000000000E+00  0.42459344709E+02  0.10376798351E+03  0.94683675721E+02 0.  0.
        -13    1    3    3    0    0  0.95725087689E+01 -0.46157684402E+02  0.26017436420E+02  0.53843028809E+02  0.00000000000E+00 0.  1.
         13    1    3    3    0    0 -0.95725087689E+01  0.46157684402E+02  0.16441908288E+02  0.49924954698E+02  0.00000000000E+00 0. -1.
<mgrwt>
<rscale>  0 0.94683676E+02</rscale>
<asrwt>0</asrwt>
<pdfrwt beam="2">  1        3 0.47160492E-02 0.94683676E+02</pdfrwt>
<pdfrwt beam="1">  1       -3 0.11248256E-01 0.94683676E+02</pdfrwt>
<totfact> 0.31026734E+04</totfact>
</mgrwt>
</event>
<event>
 5    1  0.6027538E+000  0.9261108E+02  0.7546771E-02  0.1296649E+00
          4   -1    0    0  501    0  0.00000000000E+00  0.00000000000E+00  0.23892216073E+02  0.23892216073E+02  0.00000000000E+00 0. -1.
         -4   -1    0    0    0  501 -0.00000000000E+00 -0.00000000000E+00 -0.89744834144E+02  0.89744834144E+02  0.00000000000E+00 0.  1.
         23    2    1    2    0    0  0.00000000000E+00  0.00000000000E+00 -0.65852618071E+02  0.11363705022E+03  0.92611078577E+02 0.  0.
        -13    1    3    3    0    0 -0.27382108033E+02 -0.15443089756E+02  0.87916975964E+01  0.32642959550E+02  0.00000000000E+00 0. -1.
         13    1    3    3    0    0  0.27382108033E+02  0.15443089756E+02 -0.74644315667E+02  0.80994090667E+02  0.00000000000E+00 0.  1.
<mgrwt>
<rscale>  0 0.92611079E+02</rscale>
<asrwt>0</asrwt>
<pdfrwt beam="1">  1        4 0.36757256E-02 0.92611079E+02</pdfrwt>
<pdfrwt beam="2">  1       -4 0.13806897E-01 0.92611079E+02</pdfrwt>
<totfact> 0.24576085E+04</totfact>
</mgrwt>
</event>
<event>
 5    1  0.6027538E+000  0.8981073E+02  0.7546771E-02  0.1303311E+00
         -3   -1    0    0    0  501 -0.00000000000E+00  0.00000000000E+00  0.86969798252E+02  0.86969798252E+02  0.00000000000E+00 0.  1.
          3   -1    0    0  501    0  0.00000000000E+00 -0.00000000000E+00 -0.23186115913E+02  0.23186115913E+02  0.00000000000E+00 0. -1.
         23    2    1    2    0    0  0.00000000000E+00  0.00000000000E+00  0.63783682339E+02  0.11015591416E+03  0.89810730387E+02 0.  0.
        -13    1    3    3    0    0  0.31506437638E+01 -0.17915564026E+02  0.82248461254E+02  0.84235998060E+02  0.00000000000E+00 0.  1.
         13    1    3    3    0    0 -0.31506437638E+01  0.17915564026E+02 -0.18464778915E+02  0.25919916105E+02  0.00000000000E+00 0. -1.
<mgrwt>
<rscale>  0 0.89810730E+02</rscale>
<asrwt>0</asrwt>
<pdfrwt beam="2">  1        3 0.35670948E-02 0.89810730E+02</pdfrwt>
<pdfrwt beam="1">  1       -3 0.13379969E-01 0.89810730E+02</pdfrwt>
<totfact> 0.35353596E+04</totfact>
</mgrwt>
</event>
<event>
 5    1  0.6027538E+000  0.9069416E+02  0.7546771E-02  0.1301179E+00
         -1   -1    0    0    0  501 -0.00000000000E+00  0.00000000000E+00  0.99371175710E+01  0.99371175710E+01  0.00000000000E+00 0.  1.
          1   -1    0    0  501    0  0.00000000000E+00 -0.00000000000E+00 -0.20693705399E+03  0.20693705399E+03  0.00000000000E+00 0. -1.
         23    2    1    2    0    0  0.00000000000E+00  0.00000000000E+00 -0.19699993642E+03  0.21687417156E+03  0.90694163766E+02 0.  0.
        -13    1    3    3    0    0  0.12829373370E+02 -0.41758021474E+02 -0.12759422444E+03  0.13486515966E+03  0.00000000000E+00 0. -1.
         13    1    3    3    0    0 -0.12829373370E+02  0.41758021474E+02 -0.69405711980E+02  0.82009011907E+02  0.00000000000E+00 0.  1.
<mgrwt>
<rscale>  0 0.90694164E+02</rscale>
<asrwt>0</asrwt>
<pdfrwt beam="2">  1        1 0.31836467E-01 0.90694164E+02</pdfrwt>
<pdfrwt beam="1">  1       -1 0.15287874E-02 0.90694164E+02</pdfrwt>
<totfact> 0.12089958E+05</totfact>
</mgrwt>
</event>
<event>
 5    1  0.6027538E+000  0.9993990E+02  0.7546771E-02  0.1280422E+00
          3   -1    0    0  501    0  0.00000000000E+00  0.00000000000E+00  0.21391778479E+03  0.21391778479E+03  0.00000000000E+00 0. -1.
         -3   -1    0    0    0  501 -0.00000000000E+00 -0.00000000000E+00 -0.11672690503E+02  0.11672690503E+02  0.00000000000E+00 0.  1.
         23    2    1    2    0    0  0.00000000000E+00  0.00000000000E+00  0.20224509429E+03  0.22559047529E+03  0.99939903843E+02 0.  0.
        -13    1    3    3    0    0 -0.31627009435E+02 -0.35235335241E+02  0.65062876279E+02  0.80467225906E+02  0.00000000000E+00 0.  1.
         13    1    3    3    0    0  0.31627009435E+02  0.35235335241E+02  0.13718221801E+03  0.14512324939E+03  0.00000000000E+00 0. -1.
<mgrwt>
<rscale>  0 0.99939904E+02</rscale>
<asrwt>0</asrwt>
<pdfrwt beam="1">  1        3 0.32910426E-01 0.99939904E+02</pdfrwt>
<pdfrwt beam="2">  1       -3 0.17957987E-02 0.99939904E+02</pdfrwt>
<totfact> 0.21230584E+04</totfact>
</mgrwt>
</event>
<event>
 5    1  0.6027538E+000  0.8905515E+02  0.7546771E-02  0.1305156E+00
         -2   -1    0    0    0  501 -0.00000000000E+00  0.00000000000E+00  0.90953712061E+01  0.90953712061E+01  0.00000000000E+00 0.  1.
          2   -1    0    0  501    0  0.00000000000E+00 -0.00000000000E+00 -0.21799054831E+03  0.21799054831E+03  0.00000000000E+00 0. -1.
         23    2    1    2    0    0  0.00000000000E+00  0.00000000000E+00 -0.20889517711E+03  0.22708591952E+03  0.89055150471E+02 0.  0.
        -13    1    3    3    0    0 -0.28605374077E+02  0.34003979452E+02 -0.11173477860E+03  0.12024640865E+03  0.00000000000E+00 0. -1.
         13    1    3    3    0    0  0.28605374077E+02 -0.34003979452E+02 -0.97160398512E+02  0.10683951087E+03  0.00000000000E+00 0.  1.
<mgrwt>
<rscale>  0 0.89055150E+02</rscale>
<asrwt>0</asrwt>
<pdfrwt beam="2">  1        2 0.33537004E-01 0.89055150E+02</pdfrwt>
<pdfrwt beam="1">  1       -2 0.13992880E-02 0.89055150E+02</pdfrwt>
<totfact> 0.17000408E+05</totfact>
</mgrwt>
</event>
<event>
 5    1  0.6027538E+000  0.9200227E+02  0.7546771E-02  0.1298074E+00
          1   -1    0    0  501    0  0.00000000000E+00  0.00000000000E+00  0.23695027058E+03  0.23695027058E+03  0.00000000000E+00 0. -1.
         -1   -1    0    0    0  501 -0.00000000000E+00 -0.00000000000E+00 -0.89305842394E+01  0.89305842394E+01  0.00000000000E+00 0.  1.
         23    2    1    2    0    0  0.00000000000E+00  0.00000000000E+00  0.22801968634E+03  0.24588085482E+03  0.92002268492E+02 0.  0.
        -13    1    3    3    0    0  0.21269456527E+02 -0.34816880745E+02  0.17079760609E+03  0.17560303873E+03  0.00000000000E+00 0. -1.
         13    1    3    3    0    0 -0.21269456527E+02  0.34816880745E+02  0.57222080246E+02  0.70277816083E+02  0.00000000000E+00 0.  1.
<mgrwt>
<rscale>  0 0.92002268E+02</rscale>
<asrwt>0</asrwt>
<pdfrwt beam="1">  1        1 0.36453883E-01 0.92002268E+02</pdfrwt>
<pdfrwt beam="2">  1       -1 0.13739362E-02 0.92002268E+02</pdfrwt>
<totfact> 0.11946680E+05</totfact>
</mgrwt>
</event>
<event>
 5    1  0.6027538E+000  0.9102865E+02  0.7546771E-02  0.1300380E+00
         -2   -1    0    0    0  501 -0.00000000000E+00  0.00000000000E+00  0.12733939619E+03  0.12733939619E+03  0.00000000000E+00 0. -1.
          2   -1    0    0  501    0  0.00000000000E+00 -0.00000000000E+00 -0.16267972738E+02  0.16267972738E+02  0.00000000000E+00 0.  1.
         23    2    1    2    0    0  0.00000000000E+00  0.00000000000E+00  0.11107142346E+03  0.14360736893E+03  0.91028651000E+02 0.  0.
        -13    1    3    3    0    0 -0.33167625116E+02  0.18433647766E+01  0.10462093384E+03  0.10976806980E+03  0.00000000000E+00 0. -1.
         13    1    3    3    0    0  0.33167625116E+02 -0.18433647766E+01  0.64504896143E+01  0.33839299132E+02  0.00000000000E+00 0.  1.
<mgrwt>
<rscale>  0 0.91028651E+02</rscale>
<asrwt>0</asrwt>
<pdfrwt beam="2">  1        2 0.25027651E-02 0.91028651E+02</pdfrwt>
<pdfrwt beam="1">  1       -2 0.19590676E-01 0.91028651E+02</pdfrwt>
<totfact> 0.74262903E+04</totfact>
</mgrwt>
</event>
<event>
 5    1  0.6027538E+000  0.8854749E+02  0.7546771E-02  0.1306408E+00
          2   -1    0    0  501    0  0.00000000000E+00  0.00000000000E+00  0.15970728818E+02  0.15970728818E+02  0.00000000000E+00 0. -1.
         -2   -1    0    0    0  501 -0.00000000000E+00 -0.00000000000E+00 -0.12273482651E+03  0.12273482651E+03  0.00000000000E+00 0.  1.
         23    2    1    2    0    0  0.00000000000E+00  0.00000000000E+00 -0.10676409769E+03  0.13870555532E+03  0.88547493034E+02 0.  0.
        -13    1    3    3    0    0 -0.34015664187E+01  0.36956942422E+02 -0.15566596241E+02  0.40245560821E+02  0.00000000000E+00 0. -1.
         13    1    3    3    0    0  0.34015664187E+01 -0.36956942422E+02 -0.91197501449E+02  0.98459994504E+02  0.00000000000E+00 0.  1.
<mgrwt>
<rscale>  0 0.88547493E+02</rscale>
<asrwt>0</asrwt>
<pdfrwt beam="1">  1        2 0.24570351E-02 0.88547493E+02</pdfrwt>
<pdfrwt beam="2">  1       -2 0.18882282E-01 0.88547493E+02</pdfrwt>
<totfact> 0.80571169E+04</totfact>
</mgrwt>
</event>
<event>
 5    1  0.6027538E+000  0.9216923E+02  0.7546771E-02  0.1297682E+00
         -1   -1    0    0    0  501 -0.00000000000E+00  0.00000000000E+00  0.71486936398E+02  0.71486936398E+02  0.00000000000E+00 0.  1.
          1   -1    0    0  501    0  0.00000000000E+00 -0.00000000000E+00 -0.29708810215E+02  0.29708810215E+02  0.00000000000E+00 0. -1.
         23    2    1    2    0    0  0.00000000000E+00  0.00000000000E+00  0.41778126183E+02  0.10119574661E+03  0.92169231879E+02 0.  0.
        -13    1    3    3    0    0  0.39404090116E+02 -0.36646345488E+01  0.46817050722E+02  0.61302105205E+02  0.00000000000E+00 0.  1.
         13    1    3    3    0    0 -0.39404090116E+02  0.36646345488E+01 -0.50389245393E+01  0.39893641408E+02  0.00000000000E+00 0. -1.
<mgrwt>
<rscale>  0 0.92169232E+02</rscale>
<asrwt>0</asrwt>
<pdfrwt beam="2">  1        1 0.45705862E-02 0.92169232E+02</pdfrwt>
<pdfrwt beam="1">  1       -1 0.10997990E-01 0.92169232E+02</pdfrwt>
<totfact> 0.83892780E+04</totfact>
</mgrwt>
</event>
<event>
 5    1  0.6027538E+000  0.9565018E+02  0.7546771E-02  0.1289718E+00
         -4   -1    0    0    0  501 -0.00000000000E+00  0.00000000000E+00  0.23209328403E+02  0.23209328403E+02  0.00000000000E+00 0.  1.
          4   -1    0    0  501    0  0.00000000000E+00 -0.00000000000E+00 -0.98548276166E+02  0.98548276166E+02  0.00000000000E+00 0. -1.
         23    2    1    2    0    0  0.00000000000E+00  0.00000000000E+00 -0.75338947763E+02  0.12175760457E+03  0.95650181497E+02 0.  0.
        -13    1    3    3    0    0 -0.84666783381E+00 -0.33029993672E+02  0.63447158762E+01  0.33644505464E+02  0.00000000000E+00 0.  1.
         13    1    3    3    0    0  0.84666783381E+00  0.33029993672E+02 -0.81683663639E+02  0.88113099105E+02  0.00000000000E+00 0. -1.
<mgrwt>
<rscale>  0 0.95650181E+02</rscale>
<asrwt>0</asrwt>
<pdfrwt beam="2">  1        4 0.15161273E-01 0.95650181E+02</pdfrwt>
<pdfrwt beam="1">  1       -4 0.35706659E-02 0.95650181E+02</pdfrwt>
<totfact> 0.22104388E+04</totfact>
</mgrwt>
</event>
<event>
 5    1  0.6027538E+000  0.9083702E+02  0.7546771E-02  0.1300837E+00
         -2   -1    0    0    0  501 -0.00000000000E+00  0.00000000000E+00  0.24291316641E+02  0.24291316641E+02  0.00000000000E+00 0.  1.
          2   -1    0    0  501    0  0.00000000000E+00 -0.00000000000E+00 -0.84920919599E+02  0.84920919599E+02  0.00000000000E+00 0. -1.
         23    2    1    2    0    0  0.00000000000E+00  0.00000000000E+00 -0.60629602959E+02  0.10921223624E+03  0.90837017727E+02 0.  0.
        -13    1    3    3    0    0 -0.25697705392E+02 -0.10876802779E+02  0.12769463241E+02  0.30687718921E+02  0.00000000000E+00 0.  1.
         13    1    3    3    0    0  0.25697705392E+02  0.10876802779E+02 -0.73399066200E+02  0.78524517319E+02  0.00000000000E+00 0. -1.
<mgrwt>
<rscale>  0 0.90837018E+02</rscale>
<asrwt>0</asrwt>
<pdfrwt beam="2">  1        2 0.13064757E-01 0.90837018E+02</pdfrwt>
<pdfrwt beam="1">  1       -2 0.37371255E-02 0.90837018E+02</pdfrwt>
<totfact> 0.11806522E+05</totfact>
</mgrwt>
</event>
<event>
 5    1  0.6027538E+000  0.9109315E+02  0.7546771E-02  0.1300226E+00
          2   -1    0    0  501    0  0.00000000000E+00  0.00000000000E+00  0.24481031339E+03  0.24481031339E+03  0.00000000000E+00 0. -1.
         -2   -1    0    0    0  501 -0.00000000000E+00 -0.00000000000E+00 -0.84738691587E+01  0.84738691587E+01  0.00000000000E+00 0.  1.
         23    2    1    2    0    0  0.00000000000E+00  0.00000000000E+00  0.23633644423E+03  0.25328418255E+03  0.91093151539E+02 0.  0.
        -13    1    3    3    0    0  0.35609261098E+02  0.51908455969E+01  0.19579967296E+03  0.19907907044E+03  0.00000000000E+00 0. -1.
         13    1    3    3    0    0 -0.35609261098E+02 -0.51908455969E+01  0.40536771264E+02  0.54205112107E+02  0.00000000000E+00 0.  1.
<mgrwt>
<rscale>  0 0.91093152E+02</rscale>
<asrwt>0</asrwt>
<pdfrwt beam="1">  1        2 0.37663120E-01 0.91093152E+02</pdfrwt>
<pdfrwt beam="2">  1       -2 0.13036724E-02 0.91093152E+02</pdfrwt>
<totfact> 0.16697378E+05</totfact>
</mgrwt>
</event>
<event>
 5    1  0.6027538E+000  0.9194466E+02  0.7546771E-02  0.1298210E+00
          1   -1    0    0  501    0  0.00000000000E+00  0.00000000000E+00  0.10031741607E+03  0.10031741607E+03  0.00000000000E+00 0. -1.
         -1   -1    0    0    0  501 -0.00000000000E+00 -0.00000000000E+00 -0.21067679905E+02  0.21067679905E+02  0.00000000000E+00 0.  1.
         23    2    1    2    0    0  0.00000000000E+00  0.00000000000E+00  0.79249736170E+02  0.12138509598E+03  0.91944661852E+02 0.  0.
        -13    1    3    3    0    0 -0.18412488241E+02 -0.17579223396E+02  0.90162848989E+02  0.93687716143E+02  0.00000000000E+00 0. -1.
         13    1    3    3    0    0  0.18412488241E+02  0.17579223396E+02 -0.10913112819E+02  0.27697379837E+02  0.00000000000E+00 0.  1.
<mgrwt>
<rscale>  0 0.91944662E+02</rscale>
<asrwt>0</asrwt>
<pdfrwt beam="1">  1        1 0.15433448E-01 0.91944662E+02</pdfrwt>
<pdfrwt beam="2">  1       -1 0.32411816E-02 0.91944662E+02</pdfrwt>
<totfact> 0.10214155E+05</totfact>
</mgrwt>
</event>
<event>
 5    1  0.6027538E+000  0.9373883E+02  0.7546771E-02  0.1294042E+00
         -1   -1    0    0    0  501 -0.00000000000E+00  0.00000000000E+00  0.25500638598E+02  0.25500638598E+02  0.00000000000E+00 0.  1.
          1   -1    0    0  501    0  0.00000000000E+00 -0.00000000000E+00 -0.86144590509E+02  0.86144590509E+02  0.00000000000E+00 0. -1.
         23    2    1    2    0    0  0.00000000000E+00  0.00000000000E+00 -0.60643951911E+02  0.11164522911E+03  0.93738830157E+02 0.  0.
        -13    1    3    3    0    0 -0.59245785148E+01 -0.46123932766E+02 -0.37289648106E+02  0.59607345690E+02  0.00000000000E+00 0.  1.
         13    1    3    3    0    0  0.59245785148E+01  0.46123932766E+02 -0.23354303805E+02  0.52037883418E+02  0.00000000000E+00 0. -1.
<mgrwt>
<rscale>  0 0.93738830E+02</rscale>
<asrwt>0</asrwt>
<pdfrwt beam="2">  1        1 0.13253014E-01 0.93738830E+02</pdfrwt>
<pdfrwt beam="1">  1       -1 0.39231751E-02 0.93738830E+02</pdfrwt>
<totfact> 0.94468774E+04</totfact>
</mgrwt>
</event>
<event>
 5    1  0.6027538E+000  0.9375152E+02  0.7546771E-02  0.1294013E+00
          1   -1    0    0  501    0  0.00000000000E+00  0.00000000000E+00  0.30162262888E+02  0.30162262888E+02  0.00000000000E+00 0. -1.
         -1   -1    0    0    0  501 -0.00000000000E+00 -0.00000000000E+00 -0.72850535310E+02  0.72850535310E+02  0.00000000000E+00 0.  1.
         23    2    1    2    0    0  0.00000000000E+00  0.00000000000E+00 -0.42688272422E+02  0.10301279820E+03  0.93751522602E+02 0.  0.
        -13    1    3    3    0    0 -0.33772335150E+02  0.11744157624E+02 -0.54650948544E+02  0.65308667392E+02  0.00000000000E+00 0.  1.
         13    1    3    3    0    0  0.33772335150E+02 -0.11744157624E+02  0.11962676123E+02  0.37704130805E+02  0.00000000000E+00 0. -1.
<mgrwt>
<rscale>  0 0.93751523E+02</rscale>
<asrwt>0</asrwt>
<pdfrwt beam="1">  1        1 0.46403482E-02 0.93751523E+02</pdfrwt>
<pdfrwt beam="2">  1       -1 0.11207775E-01 0.93751523E+02</pdfrwt>
<totfact> 0.80072683E+04</totfact>
</mgrwt>
</event>
<event>
 5    1  0.6027538E+000  0.1105665E+03  0.7546771E-02  0.1259524E+00
         -2   -1    0    0    0  501 -0.00000000000E+00  0.00000000000E+00  0.11228326946E+02  0.11228326946E+02  0.00000000000E+00 0.  1.
          2   -1    0    0  501    0  0.00000000000E+00 -0.00000000000E+00 -0.27219015823E+03  0.27219015823E+03  0.00000000000E+00 0. -1.
         23    2    1    2    0    0  0.00000000000E+00  0.00000000000E+00 -0.26096183128E+03  0.28341848517E+03  0.11056654265E+03 0.  0.
        -13    1    3    3    0    0 -0.40112217846E+02  0.38002658246E+02 -0.12600569622E+03  0.13758861702E+03  0.00000000000E+00 0. -1.
         13    1    3    3    0    0  0.40112217846E+02 -0.38002658246E+02 -0.13495613506E+03  0.14582986815E+03  0.00000000000E+00 0.  1.
<mgrwt>
<rscale>  0 0.11056654E+03</rscale>
<asrwt>0</asrwt>
<pdfrwt beam="2">  1        2 0.41875411E-01 0.11056654E+03</pdfrwt>
<pdfrwt beam="1">  1       -2 0.17274348E-02 0.11056654E+03</pdfrwt>
<totfact> 0.10287002E+05</totfact>
</mgrwt>
</event>
<event>
 5    1  0.6027538E+000  0.9279732E+02  0.7546771E-02  0.1296216E+00
         -2   -1    0    0    0  501 -0.00000000000E+00  0.00000000000E+00  0.11457762190E+03  0.11457762190E+03  0.00000000000E+00 0.  1.
          2   -1    0    0  501    0  0.00000000000E+00 -0.00000000000E+00 -0.18789321750E+02  0.18789321750E+02  0.00000000000E+00 0. -1.
         23    2    1    2    0    0  0.00000000000E+00  0.00000000000E+00  0.95788300147E+02  0.13336694365E+03  0.92797323306E+02 0.  0.
        -13    1    3    3    0    0  0.95912488475E+01  0.43716189030E+02  0.30307643317E+02  0.54052293949E+02  0.00000000000E+00 0. -1.
         13    1    3    3    0    0 -0.95912488475E+01 -0.43716189030E+02  0.65480656831E+02  0.79314649698E+02  0.00000000000E+00 0.  1.
<mgrwt>
<rscale>  0 0.92797323E+02</rscale>
<asrwt>0</asrwt>
<pdfrwt beam="2">  1        2 0.28906650E-02 0.92797323E+02</pdfrwt>
<pdfrwt beam="1">  1       -2 0.17627326E-01 0.92797323E+02</pdfrwt>
<totfact> 0.73233967E+04</totfact>
</mgrwt>
</event>
<event>
 5    1  0.6027538E+000  0.9222000E+02  0.7546771E-02  0.1297563E+00
         -2   -1    0    0    0  501 -0.00000000000E+00  0.00000000000E+00  0.34347229604E+02  0.34347229604E+02  0.00000000000E+00 0.  1.
          2   -1    0    0  501    0  0.00000000000E+00 -0.00000000000E+00 -0.61901127904E+02  0.61901127904E+02  0.00000000000E+00 0. -1.
         23    2    1    2    0    0  0.00000000000E+00  0.00000000000E+00 -0.27553898299E+02  0.96248357508E+02  0.92220003316E+02 0.  0.
        -13    1    3    3    0    0 -0.26166713757E+01 -0.20664731037E+02  0.29157015123E+02  0.35833079812E+02  0.00000000000E+00 0.  1.
         13    1    3    3    0    0  0.26166713757E+01  0.20664731037E+02 -0.56710913422E+02  0.60415277696E+02  0.00000000000E+00 0. -1.
<mgrwt>
<rscale>  0 0.92220003E+02</rscale>
<asrwt>0</asrwt>
<pdfrwt beam="2">  1        2 0.95232505E-02 0.92220003E+02</pdfrwt>
<pdfrwt beam="1">  1       -2 0.52841892E-02 0.92220003E+02</pdfrwt>
<totfact> 0.10358482E+05</totfact>
</mgrwt>
</event>
<event>
 5    1  0.6027538E+000  0.9195717E+02  0.7546771E-02  0.1298180E+00
          3   -1    0    0  501    0  0.00000000000E+00  0.00000000000E+00  0.17417744685E+02  0.17417744685E+02  0.00000000000E+00 0. -1.
         -3   -1    0    0    0  501 -0.00000000000E+00 -0.00000000000E+00 -0.12137222368E+03  0.12137222368E+03  0.00000000000E+00 0.  1.
         23    2    1    2    0    0  0.00000000000E+00  0.00000000000E+00 -0.10395447899E+03  0.13878996836E+03  0.91957172725E+02 0.  0.
        -13    1    3    3    0    0  0.23757100224E+02 -0.39361015586E+02 -0.51095829017E+02  0.68734802698E+02  0.00000000000E+00 0. -1.
         13    1    3    3    0    0 -0.23757100224E+02  0.39361015586E+02 -0.52858649974E+02  0.70055165664E+02  0.00000000000E+00 0.  1.
<mgrwt>
<rscale>  0 0.91957173E+02</rscale>
<asrwt>0</asrwt>
<pdfrwt beam="1">  1        3 0.26796531E-02 0.91957173E+02</pdfrwt>
<pdfrwt beam="2">  1       -3 0.18672650E-01 0.91957173E+02</pdfrwt>
<totfact> 0.31276145E+04</totfact>
</mgrwt>
</event>
<event>
 5    1  0.6027538E+000  0.8934405E+02  0.7546771E-02  0.1304448E+00
         -1   -1    0    0    0  501 -0.00000000000E+00  0.00000000000E+00  0.12112902462E+03  0.12112902462E+03  0.00000000000E+00 0.  1.
          1   -1    0    0  501    0  0.00000000000E+00 -0.00000000000E+00 -0.16474911217E+02  0.16474911217E+02  0.00000000000E+00 0. -1.
         23    2    1    2    0    0  0.00000000000E+00  0.00000000000E+00  0.10465411340E+03  0.13760393584E+03  0.89344052435E+02 0.  0.
        -13    1    3    3    0    0 -0.17710360715E+02 -0.74116668136E+01 -0.97968870818E+01  0.21553855296E+02  0.00000000000E+00 0. -1.
         13    1    3    3    0    0  0.17710360715E+02  0.74116668136E+01  0.11445100048E+03  0.11605008054E+03  0.00000000000E+00 0.  1.
<mgrwt>
<rscale>  0 0.89344052E+02</rscale>
<asrwt>0</asrwt>
<pdfrwt beam="2">  1        1 0.25346018E-02 0.89344052E+02</pdfrwt>
<pdfrwt beam="1">  1       -1 0.18635234E-01 0.89344052E+02</pdfrwt>
<totfact> 0.82599958E+04</totfact>
</mgrwt>
</event>
<event>
 5    1  0.6027538E+000  0.9390086E+02  0.7546771E-02  0.1293671E+00
          2   -1    0    0  501    0  0.00000000000E+00  0.00000000000E+00  0.63561410188E+02  0.63561410188E+02  0.00000000000E+00 0. -1.
         -2   -1    0    0    0  501 -0.00000000000E+00 -0.00000000000E+00 -0.34680523403E+02  0.34680523403E+02  0.00000000000E+00 0.  1.
         23    2    1    2    0    0  0.00000000000E+00  0.00000000000E+00  0.28880886786E+02  0.98241933591E+02  0.93900862053E+02 0.  0.
        -13    1    3    3    0    0  0.17726418900E+02 -0.37833694405E+02 -0.79676671289E+01  0.42533493612E+02  0.00000000000E+00 0.  1.
         13    1    3    3    0    0 -0.17726418900E+02  0.37833694405E+02  0.36848553915E+02  0.55708439979E+02  0.00000000000E+00 0. -1.
<mgrwt>
<rscale>  0 0.93900862E+02</rscale>
<asrwt>0</asrwt>
<pdfrwt beam="1">  1        2 0.97786785E-02 0.93900862E+02</pdfrwt>
<pdfrwt beam="2">  1       -2 0.53354651E-02 0.93900862E+02</pdfrwt>
<totfact> 0.99145149E+04</totfact>
</mgrwt>
</event>
<event>
 4    1  0.6027538E+000  0.1783129E+03  0.7546771E-02  0.1169446E+00
         -1   -1    0    0    0  501 -0.00000000000E+00  0.00000000000E+00  0.17111286790E+02  0.17111286790E+02  0.00000000000E+00 0.  1.
          1   -1    0    0  501    0  0.00000000000E+00 -0.00000000000E+00 -0.46453991096E+03  0.46453991096E+03  0.00000000000E+00 0. -1.
        -13    1    1    2    0    0  0.54776107621E+02 -0.69227528964E+02 -0.25745206447E+03  0.27216619598E+03  0.00000000000E+00 0.  1.
         13    1    1    2    0    0 -0.54776107621E+02  0.69227528964E+02 -0.18997655970E+03  0.20948500178E+03  0.00000000000E+00 0. -1.
<mgrwt>
<rscale>  0 0.17831293E+03</rscale>
<asrwt>0</asrwt>
<pdfrwt beam="2">  1        1 0.71467665E-01 0.17831293E+03</pdfrwt>
<pdfrwt beam="1">  1       -1 0.26325062E-02 0.17831293E+03</pdfrwt>
<totfact> 0.21914605E+04</totfact>
</mgrwt>
</event>
<event>
 5    1  0.6027538E+000  0.9082009E+02  0.7546771E-02  0.1300878E+00
          4   -1    0    0  501    0  0.00000000000E+00  0.00000000000E+00  0.53055296386E+02  0.53055296386E+02  0.00000000000E+00 0. -1.
         -4   -1    0    0    0  501 -0.00000000000E+00 -0.00000000000E+00 -0.38866468490E+02  0.38866468490E+02  0.00000000000E+00 0.  1.
         23    2    1    2    0    0  0.00000000000E+00  0.00000000000E+00  0.14188827896E+02  0.91921764877E+02  0.90820086000E+02 0.  0.
        -13    1    3    3    0    0  0.13971506086E+02  0.11529979707E+02 -0.35051167440E+02  0.39455389407E+02  0.00000000000E+00 0.  1.
         13    1    3    3    0    0 -0.13971506086E+02 -0.11529979707E+02  0.49239995336E+02  0.52466375470E+02  0.00000000000E+00 0. -1.
<mgrwt>
<rscale>  0 0.90820086E+02</rscale>
<asrwt>0</asrwt>
<pdfrwt beam="1">  1        4 0.81623533E-02 0.90820086E+02</pdfrwt>
<pdfrwt beam="2">  1       -4 0.59794567E-02 0.90820086E+02</pdfrwt>
<totfact> 0.27256894E+04</totfact>
</mgrwt>
</event>
<event>
 5    1  0.6027538E+000  0.8886140E+02  0.7546771E-02  0.1305633E+00
         -1   -1    0    0    0  501 -0.00000000000E+00  0.00000000000E+00  0.27062298770E+03  0.27062298770E+03  0.00000000000E+00 0.  1.
          1   -1    0    0  501    0  0.00000000000E+00 -0.00000000000E+00 -0.72946030509E+01  0.72946030509E+01  0.00000000000E+00 0. -1.
         23    2    1    2    0    0  0.00000000000E+00  0.00000000000E+00  0.26332838465E+03  0.27791759075E+03  0.88861403809E+02 0.  0.
        -13    1    3    3    0    0  0.41602346088E+02 -0.12959384080E+02  0.15881917139E+03  0.16468828142E+03  0.00000000000E+00 0.  1.
         13    1    3    3    0    0 -0.41602346088E+02  0.12959384080E+02  0.10450921326E+03  0.11322930934E+03  0.00000000000E+00 0. -1.
<mgrwt>
<rscale>  0 0.88861404E+02</rscale>
<asrwt>0</asrwt>
<pdfrwt beam="2">  1        1 0.11222468E-02 0.88861404E+02</pdfrwt>
<pdfrwt beam="1">  1       -1 0.41634298E-01 0.88861404E+02</pdfrwt>
<totfact> 0.67363341E+04</totfact>
</mgrwt>
</event>
<event>
 5    1  0.6027538E+000  0.9241997E+02  0.7546771E-02  0.1297095E+00
         -1   -1    0    0    0  501 -0.00000000000E+00  0.00000000000E+00  0.14134460420E+03  0.14134460420E+03  0.00000000000E+00 0.  1.
          1   -1    0    0  501    0  0.00000000000E+00 -0.00000000000E+00 -0.15107493335E+02  0.15107493335E+02  0.00000000000E+00 0. -1.
         23    2    1    2    0    0  0.00000000000E+00  0.00000000000E+00  0.12623711086E+03  0.15645209753E+03  0.92419968964E+02 0.  0.
        -13    1    3    3    0    0  0.57712122658E+01 -0.30238144745E+02  0.12145914951E+03  0.12529955023E+03  0.00000000000E+00 0.  1.
         13    1    3    3    0    0 -0.57712122658E+01  0.30238144745E+02  0.47779613531E+01  0.31152547300E+02  0.00000000000E+00 0. -1.
<mgrwt>
<rscale>  0 0.92419969E+02</rscale>
<asrwt>0</asrwt>
<pdfrwt beam="2">  1        1 0.23242298E-02 0.92419969E+02</pdfrwt>
<pdfrwt beam="1">  1       -1 0.21745323E-01 0.92419969E+02</pdfrwt>
<totfact> 0.73197651E+04</totfact>
</mgrwt>
</event>
<event>
 5    1  0.6027538E+000  0.9394064E+02  0.7546771E-02  0.1293580E+00
         -1   -1    0    0    0  501 -0.00000000000E+00  0.00000000000E+00  0.13786737881E+02  0.13786737881E+02  0.00000000000E+00 0.  1.
          1   -1    0    0  501    0  0.00000000000E+00 -0.00000000000E+00 -0.16002415910E+03  0.16002415910E+03  0.00000000000E+00 0. -1.
         23    2    1    2    0    0  0.00000000000E+00  0.00000000000E+00 -0.14623742122E+03  0.17381089699E+03  0.93940643732E+02 0.  0.
        -13    1    3    3    0    0  0.19200408998E+02 -0.42286809687E+02 -0.60116892101E+02  0.75966247078E+02  0.00000000000E+00 0.  1.
         13    1    3    3    0    0 -0.19200408998E+02  0.42286809687E+02 -0.86120529122E+02  0.97844649907E+02  0.00000000000E+00 0. -1.
<mgrwt>
<rscale>  0 0.93940644E+02</rscale>
<asrwt>0</asrwt>
<pdfrwt beam="2">  1        1 0.24619103E-01 0.93940644E+02</pdfrwt>
<pdfrwt beam="1">  1       -1 0.21210365E-02 0.93940644E+02</pdfrwt>
<totfact> 0.10469029E+05</totfact>
</mgrwt>
</event>
<event>
 5    1  0.6027538E+000  0.9244057E+02  0.7546771E-02  0.1297047E+00
          4   -1    0    0  501    0  0.00000000000E+00  0.00000000000E+00  0.22402334860E+02  0.22402334860E+02  0.00000000000E+00 0. -1.
         -4   -1    0    0    0  501 -0.00000000000E+00 -0.00000000000E+00 -0.95361261160E+02  0.95361261160E+02  0.00000000000E+00 0.  1.
         23    2    1    2    0    0  0.00000000000E+00  0.00000000000E+00 -0.72958926300E+02  0.11776359602E+03  0.92440573455E+02 0.  0.
        -13    1    3    3    0    0  0.56857886350E+00  0.43105555414E+02 -0.15242382164E+02  0.45724636724E+02  0.00000000000E+00 0. -1.
         13    1    3    3    0    0 -0.56857886350E+00 -0.43105555414E+02 -0.57716544136E+02  0.72038959296E+02  0.00000000000E+00 0.  1.
<mgrwt>
<rscale>  0 0.92440573E+02</rscale>
<asrwt>0</asrwt>
<pdfrwt beam="1">  1        4 0.34465131E-02 0.92440573E+02</pdfrwt>
<pdfrwt beam="2">  1       -4 0.14670963E-01 0.92440573E+02</pdfrwt>
<totfact> 0.24470008E+04</totfact>
</mgrwt>
</event>
<event>
 5    1  0.6027538E+000  0.9172033E+02  0.7546771E-02  0.1298738E+00
         -3   -1    0    0    0  501 -0.00000000000E+00  0.00000000000E+00  0.26818204497E+02  0.26818204497E+02  0.00000000000E+00 0.  1.
          3   -1    0    0  501    0  0.00000000000E+00 -0.00000000000E+00 -0.78422649546E+02  0.78422649546E+02  0.00000000000E+00 0. -1.
         23    2    1    2    0    0  0.00000000000E+00  0.00000000000E+00 -0.51604445049E+02  0.10524085404E+03  0.91720328232E+02 0.  0.
        -13    1    3    3    0    0  0.80300549098E+01 -0.26124240071E+02  0.16452975904E+02  0.31900754180E+02  0.00000000000E+00 0.  1.
         13    1    3    3    0    0 -0.80300549098E+01  0.26124240071E+02 -0.68057420953E+02  0.73340099863E+02  0.00000000000E+00 0. -1.
<mgrwt>
<rscale>  0 0.91720328E+02</rscale>
<asrwt>0</asrwt>
<pdfrwt beam="2">  1        3 0.12065023E-01 0.91720328E+02</pdfrwt>
<pdfrwt beam="1">  1       -3 0.41258776E-02 0.91720328E+02</pdfrwt>
<totfact> 0.33735985E+04</totfact>
</mgrwt>
</event>
<event>
 5    1  0.6027538E+000  0.7118674E+02  0.7546771E-02  0.1356103E+00
         -3   -1    0    0    0  501 -0.00000000000E+00  0.00000000000E+00  0.71742548718E+02  0.71742548718E+02  0.00000000000E+00 0.  1.
          3   -1    0    0  501    0  0.00000000000E+00 -0.00000000000E+00 -0.17658811425E+02  0.17658811425E+02  0.00000000000E+00 0. -1.
         23    2    1    2    0    0  0.00000000000E+00  0.00000000000E+00  0.54083737293E+02  0.89401360143E+02  0.71186744243E+02 0.  0.
        -13    1    3    3    0    0 -0.15166335787E+02  0.22788572108E+02  0.55612624531E+02  0.61984681714E+02  0.00000000000E+00 0.  1.
         13    1    3    3    0    0  0.15166335787E+02 -0.22788572108E+02 -0.15288872382E+01  0.27416678430E+02  0.00000000000E+00 0. -1.
<mgrwt>
<rscale>  0 0.71186744E+02</rscale>
<asrwt>0</asrwt>
<pdfrwt beam="2">  1        3 0.27167403E-02 0.71186744E+02</pdfrwt>
<pdfrwt beam="1">  1       -3 0.11037315E-01 0.71186744E+02</pdfrwt>
<totfact> 0.68889286E+04</totfact>
</mgrwt>
</event>
<event>
 5    1  0.6027538E+000  0.9148181E+02  0.7546771E-02  0.1299302E+00
         -2   -1    0    0    0  501 -0.00000000000E+00  0.00000000000E+00  0.71293865250E+02  0.71293865250E+02  0.00000000000E+00 0.  1.
          2   -1    0    0  501    0  0.00000000000E+00 -0.00000000000E+00 -0.29346570553E+02  0.29346570553E+02  0.00000000000E+00 0. -1.
         23    2    1    2    0    0  0.00000000000E+00  0.00000000000E+00  0.41947294697E+02  0.10064043580E+03  0.91481811232E+02 0.  0.
        -13    1    3    3    0    0 -0.16148033956E+01 -0.33180588829E+02  0.55564696603E+02  0.64737891328E+02  0.00000000000E+00 0.  1.
         13    1    3    3    0    0  0.16148033956E+01  0.33180588829E+02 -0.13617401906E+02  0.35902544474E+02  0.00000000000E+00 0. -1.
<mgrwt>
<rscale>  0 0.91481811E+02</rscale>
<asrwt>0</asrwt>
<pdfrwt beam="2">  1        2 0.45148570E-02 0.91481811E+02</pdfrwt>
<pdfrwt beam="1">  1       -2 0.10968287E-01 0.91481811E+02</pdfrwt>
<totfact> 0.87076086E+04</totfact>
</mgrwt>
</event>
<event>
 5    1  0.6027538E+000  0.9218965E+02  0.7546771E-02  0.1297634E+00
         -1   -1    0    0    0  501 -0.00000000000E+00  0.00000000000E+00  0.17321531657E+02  0.17321531657E+02  0.00000000000E+00 0.  1.
          1   -1    0    0  501    0  0.00000000000E+00 -0.00000000000E+00 -0.12266427321E+03  0.12266427321E+03  0.00000000000E+00 0. -1.
         23    2    1    2    0    0  0.00000000000E+00  0.00000000000E+00 -0.10534274155E+03  0.13998580487E+03  0.92189654335E+02 0.  0.
        -13    1    3    3    0    0  0.61441719269E+01  0.39571639534E+02 -0.18009751980E+02  0.43909186630E+02  0.00000000000E+00 0.  1.
         13    1    3    3    0    0 -0.61441719269E+01 -0.39571639534E+02 -0.87332989575E+02  0.96076618238E+02  0.00000000000E+00 0. -1.
<mgrwt>
<rscale>  0 0.92189654E+02</rscale>
<asrwt>0</asrwt>
<pdfrwt beam="2">  1        1 0.18871427E-01 0.92189654E+02</pdfrwt>
<pdfrwt beam="1">  1       -1 0.26648509E-02 0.92189654E+02</pdfrwt>
<totfact> 0.10495673E+05</totfact>
</mgrwt>
</event>
<event>
 5    1  0.6027538E+000  0.9149630E+02  0.7546771E-02  0.1299268E+00
          2   -1    0    0  501    0  0.00000000000E+00  0.00000000000E+00  0.34995596080E+03  0.34995596080E+03  0.00000000000E+00 0. -1.
         -2   -1    0    0    0  501 -0.00000000000E+00 -0.00000000000E+00 -0.59804470768E+01  0.59804470768E+01  0.00000000000E+00 0.  1.
         23    2    1    2    0    0  0.00000000000E+00  0.00000000000E+00  0.34397551373E+03  0.35593640788E+03  0.91496297254E+02 0.  0.
        -13    1    3    3    0    0 -0.31825504150E+02 -0.30495123903E+02  0.21964480415E+03  0.22402378286E+03  0.00000000000E+00 0.  1.
         13    1    3    3    0    0  0.31825504150E+02  0.30495123903E+02  0.12433070958E+03  0.13191262502E+03  0.00000000000E+00 0. -1.
<mgrwt>
<rscale>  0 0.91496297E+02</rscale>
<asrwt>0</asrwt>
<pdfrwt beam="1">  1        2 0.53839362E-01 0.91496297E+02</pdfrwt>
<pdfrwt beam="2">  1       -2 0.92006906E-03 0.91496297E+02</pdfrwt>
<totfact> 0.18842511E+05</totfact>
</mgrwt>
</event>
<event>
 5    1  0.6027538E+000  0.8932532E+02  0.7546771E-02  0.1304494E+00
          1   -1    0    0  501    0  0.00000000000E+00  0.00000000000E+00  0.15038711890E+03  0.15038711890E+03  0.00000000000E+00 0. -1.
         -1   -1    0    0    0  501 -0.00000000000E+00 -0.00000000000E+00 -0.13264121350E+02  0.13264121350E+02  0.00000000000E+00 0.  1.
         23    2    1    2    0    0  0.00000000000E+00  0.00000000000E+00  0.13712299755E+03  0.16365124025E+03  0.89325315439E+02 0.  0.
        -13    1    3    3    0    0 -0.36115177776E+02 -0.20820328893E+02  0.97929758254E+02  0.10643321715E+03  0.00000000000E+00 0.  1.
         13    1    3    3    0    0  0.36115177776E+02  0.20820328893E+02  0.39193239295E+02  0.57218023100E+02  0.00000000000E+00 0. -1.
<mgrwt>
<rscale>  0 0.89325315E+02</rscale>
<asrwt>0</asrwt>
<pdfrwt beam="1">  1        1 0.23136479E-01 0.89325315E+02</pdfrwt>
<pdfrwt beam="2">  1       -1 0.20406342E-02 0.89325315E+02</pdfrwt>
<totfact> 0.11855720E+05</totfact>
</mgrwt>
</event>
<event>
 5    1  0.6027538E+000  0.8919014E+02  0.7546771E-02  0.1304825E+00
         -2   -1    0    0    0  501 -0.00000000000E+00  0.00000000000E+00  0.13323446290E+03  0.13323446290E+03  0.00000000000E+00 0.  1.
          2   -1    0    0  501    0  0.00000000000E+00 -0.00000000000E+00 -0.14926469977E+02  0.14926469977E+02  0.00000000000E+00 0. -1.
         23    2    1    2    0    0  0.00000000000E+00  0.00000000000E+00  0.11830799292E+03  0.14816093288E+03  0.89190138703E+02 0.  0.
        -13    1    3    3    0    0  0.32355703145E+02  0.64776895531E+01  0.93222254337E+01  0.34289296799E+02  0.00000000000E+00 0. -1.
         13    1    3    3    0    0 -0.32355703145E+02 -0.64776895531E+01  0.10898576749E+03  0.11387163608E+03  0.00000000000E+00 0.  1.
<mgrwt>
<rscale>  0 0.89190139E+02</rscale>
<asrwt>0</asrwt>
<pdfrwt beam="2">  1        2 0.22963801E-02 0.89190139E+02</pdfrwt>
<pdfrwt beam="1">  1       -2 0.20497609E-01 0.89190139E+02</pdfrwt>
<totfact> 0.76992843E+04</totfact>
</mgrwt>
</event>
<event>
 5    1  0.6027538E+000  0.9254453E+02  0.7546771E-02  0.1296804E+00
          1   -1    0    0  501    0  0.00000000000E+00  0.00000000000E+00  0.49897571039E+02  0.49897571039E+02  0.00000000000E+00 0. -1.
         -1   -1    0    0    0  501 -0.00000000000E+00 -0.00000000000E+00 -0.42910357805E+02  0.42910357805E+02  0.00000000000E+00 0.  1.
         23    2    1    2    0    0  0.00000000000E+00  0.00000000000E+00  0.69872132335E+01  0.92807928844E+02  0.92544532565E+02 0.  0.
        -13    1    3    3    0    0 -0.18880054588E+02  0.54125391876E+01 -0.38522782159E+02  0.43240684395E+02  0.00000000000E+00 0.  1.
         13    1    3    3    0    0  0.18880054588E+02 -0.54125391876E+01  0.45509995392E+02  0.49567244449E+02  0.00000000000E+00 0. -1.
<mgrwt>
<rscale>  0 0.92544533E+02</rscale>
<asrwt>0</asrwt>
<pdfrwt beam="1">  1        1 0.76765494E-02 0.92544533E+02</pdfrwt>
<pdfrwt beam="2">  1       -1 0.66015935E-02 0.92544533E+02</pdfrwt>
<totfact> 0.89905601E+04</totfact>
</mgrwt>
</event>
<event>
 5    1  0.6027538E+000  0.9373504E+02  0.7546771E-02  0.1294051E+00
         -1   -1    0    0    0  501 -0.00000000000E+00  0.00000000000E+00  0.26218727698E+02  0.26218727698E+02  0.00000000000E+00 0.  1.
          1   -1    0    0  501    0  0.00000000000E+00 -0.00000000000E+00 -0.83778459841E+02  0.83778459841E+02  0.00000000000E+00 0. -1.
         23    2    1    2    0    0  0.00000000000E+00  0.00000000000E+00 -0.57559732143E+02  0.10999718754E+03  0.93735044152E+02 0.  0.
        -13    1    3    3    0    0 -0.40358144691E+02  0.40500631092E+00 -0.82169709937E+00  0.40368540463E+02  0.00000000000E+00 0.  1.
         13    1    3    3    0    0  0.40358144691E+02 -0.40500631092E+00 -0.56738035044E+02  0.69628647076E+02  0.00000000000E+00 0. -1.
<mgrwt>
<rscale>  0 0.93735044E+02</rscale>
<asrwt>0</asrwt>
<pdfrwt beam="2">  1        1 0.12888994E-01 0.93735044E+02</pdfrwt>
<pdfrwt beam="1">  1       -1 0.40336505E-02 0.93735044E+02</pdfrwt>
<totfact> 0.94052591E+04</totfact>
</mgrwt>
</event>
<event>
 5    1  0.6027538E+000  0.9397691E+02  0.7546771E-02  0.1293497E+00
          1   -1    0    0  501    0  0.00000000000E+00  0.00000000000E+00  0.16856917187E+02  0.16856917187E+02  0.00000000000E+00 0. -1.
         -1   -1    0    0    0  501 -0.00000000000E+00 -0.00000000000E+00 -0.13097976918E+03  0.13097976918E+03  0.00000000000E+00 0.  1.
         23    2    1    2    0    0  0.00000000000E+00  0.00000000000E+00 -0.11412285199E+03  0.14783668637E+03  0.93976914659E+02 0.  0.
        -13    1    3    3    0    0 -0.31786521754E+01  0.22496457520E+02 -0.12176456754E+03  0.12386607421E+03  0.00000000000E+00 0.  1.
         13    1    3    3    0    0  0.31786521754E+01 -0.22496457520E+02  0.76417155525E+01  0.23970612157E+02  0.00000000000E+00 0. -1.
<mgrwt>
<rscale>  0 0.93976915E+02</rscale>
<asrwt>0</asrwt>
<pdfrwt beam="1">  1        1 0.25933720E-02 0.93976915E+02</pdfrwt>
<pdfrwt beam="2">  1       -1 0.20150733E-01 0.93976915E+02</pdfrwt>
<totfact> 0.71283061E+04</totfact>
</mgrwt>
</event>
<event>
 5    1  0.6027538E+000  0.9083665E+02  0.7546771E-02  0.1300838E+00
          1   -1    0    0  501    0  0.00000000000E+00  0.00000000000E+00  0.10746408381E+02  0.10746408381E+02  0.00000000000E+00 0. -1.
         -1   -1    0    0    0  501 -0.00000000000E+00 -0.00000000000E+00 -0.19195474870E+03  0.19195474870E+03  0.00000000000E+00 0.  1.
         23    2    1    2    0    0  0.00000000000E+00  0.00000000000E+00 -0.18120834032E+03  0.20270115708E+03  0.90836647234E+02 0.  0.
        -13    1    3    3    0    0 -0.99729385452E+00  0.44092052208E+02 -0.66392703321E+02  0.79706302871E+02  0.00000000000E+00 0. -1.
         13    1    3    3    0    0  0.99729385452E+00 -0.44092052208E+02 -0.11481563700E+03  0.12299485421E+03  0.00000000000E+00 0.  1.
<mgrwt>
<rscale>  0 0.90836647E+02</rscale>
<asrwt>0</asrwt>
<pdfrwt beam="1">  1        1 0.16532937E-02 0.90836647E+02</pdfrwt>
<pdfrwt beam="2">  1       -1 0.29531499E-01 0.90836647E+02</pdfrwt>
<totfact> 0.70919524E+04</totfact>
</mgrwt>
</event>
<event>
 5    1  0.6027538E+000  0.9175947E+02  0.7546771E-02  0.1298646E+00
         -1   -1    0    0    0  501 -0.00000000000E+00  0.00000000000E+00  0.77431404587E+01  0.77431404587E+01  0.00000000000E+00 0.  1.
          1   -1    0    0  501    0  0.00000000000E+00 -0.00000000000E+00 -0.27184707717E+03  0.27184707717E+03  0.00000000000E+00 0. -1.
         23    2    1    2    0    0  0.00000000000E+00  0.00000000000E+00 -0.26410393671E+03  0.27959021763E+03  0.91759470395E+02 0.  0.
        -13    1    3    3    0    0 -0.42702887188E+02  0.12717732821E+02 -0.16538453830E+03  0.17128141409E+03  0.00000000000E+00 0. -1.
         13    1    3    3    0    0  0.42702887188E+02 -0.12717732821E+02 -0.98719398408E+02  0.10830880354E+03  0.00000000000E+00 0.  1.
<mgrwt>
<rscale>  0 0.91759470E+02</rscale>
<asrwt>0</asrwt>
<pdfrwt beam="2">  1        1 0.41822631E-01 0.91759470E+02</pdfrwt>
<pdfrwt beam="1">  1       -1 0.11912523E-02 0.91759470E+02</pdfrwt>
<totfact> 0.12358865E+05</totfact>
</mgrwt>
</event>
<event>
 5    1  0.6027538E+000  0.9153462E+02  0.7546771E-02  0.1299177E+00
          2   -1    0    0  501    0  0.00000000000E+00  0.00000000000E+00  0.36918952925E+03  0.36918952925E+03  0.00000000000E+00 0.  1.
         -2   -1    0    0    0  501 -0.00000000000E+00 -0.00000000000E+00 -0.56736349787E+01  0.56736349787E+01  0.00000000000E+00 0. -1.
         23    2    1    2    0    0  0.00000000000E+00  0.00000000000E+00  0.36351589427E+03  0.37486316423E+03  0.91534619176E+02 0.  0.
        -13    1    3    3    0    0 -0.39486180742E+02  0.17481346862E+02  0.24385172162E+03  0.24764575121E+03  0.00000000000E+00 0.  1.
         13    1    3    3    0    0  0.39486180742E+02 -0.17481346862E+02  0.11966417266E+03  0.12721741302E+03  0.00000000000E+00 0. -1.
<mgrwt>
<rscale>  0 0.91534619E+02</rscale>
<asrwt>0</asrwt>
<pdfrwt beam="1">  1        2 0.56798370E-01 0.91534619E+02</pdfrwt>
<pdfrwt beam="2">  1       -2 0.87286721E-03 0.91534619E+02</pdfrwt>
<totfact> 0.19192095E+05</totfact>
</mgrwt>
</event>
<event>
 5    1  0.6027538E+000  0.9056965E+02  0.7546771E-02  0.1301478E+00
          1   -1    0    0  501    0  0.00000000000E+00  0.00000000000E+00  0.23165924569E+02  0.23165924569E+02  0.00000000000E+00 0. -1.
         -1   -1    0    0    0  501 -0.00000000000E+00 -0.00000000000E+00 -0.88522932795E+02  0.88522932795E+02  0.00000000000E+00 0.  1.
         23    2    1    2    0    0  0.00000000000E+00  0.00000000000E+00 -0.65357008226E+02  0.11168885736E+03  0.90569654603E+02 0.  0.
        -13    1    3    3    0    0  0.36508873667E+02 -0.12516567234E+02 -0.61890947661E+02  0.72938684621E+02  0.00000000000E+00 0.  1.
         13    1    3    3    0    0 -0.36508873667E+02  0.12516567234E+02 -0.34660605647E+01  0.38750172743E+02  0.00000000000E+00 0. -1.
<mgrwt>
<rscale>  0 0.90569655E+02</rscale>
<asrwt>0</asrwt>
<pdfrwt beam="1">  1        1 0.35639884E-02 0.90569655E+02</pdfrwt>
<pdfrwt beam="2">  1       -1 0.13618913E-01 0.90569655E+02</pdfrwt>
<totfact> 0.84623276E+04</totfact>
</mgrwt>
</event>
<event>
 5    1  0.6027538E+000  0.9309737E+02  0.7546771E-02  0.1295520E+00
         -2   -1    0    0    0  501 -0.00000000000E+00  0.00000000000E+00  0.22813898809E+03  0.22813898809E+03  0.00000000000E+00 0.  1.
          2   -1    0    0  501    0  0.00000000000E+00 -0.00000000000E+00 -0.94976316175E+01  0.94976316175E+01  0.00000000000E+00 0. -1.
         23    2    1    2    0    0  0.00000000000E+00  0.00000000000E+00  0.21864135647E+03  0.23763661970E+03  0.93097369811E+02 0.  0.
        -13    1    3    3    0    0 -0.37152674291E+02 -0.19160026740E+02  0.16159223511E+03  0.16691158821E+03  0.00000000000E+00 0.  1.
         13    1    3    3    0    0  0.37152674291E+02  0.19160026740E+02  0.57049121357E+02  0.70725031490E+02  0.00000000000E+00 0. -1.
<mgrwt>
<rscale>  0 0.93097370E+02</rscale>
<asrwt>0</asrwt>
<pdfrwt beam="2">  1        2 0.14611743E-02 0.93097370E+02</pdfrwt>
<pdfrwt beam="1">  1       -2 0.35098302E-01 0.93097370E+02</pdfrwt>
<totfact> 0.55667169E+04</totfact>
</mgrwt>
</event>
<event>
 5    1  0.6027538E+000  0.9070210E+02  0.7546771E-02  0.1301160E+00
          1   -1    0    0  501    0  0.00000000000E+00  0.00000000000E+00  0.46668190357E+02  0.46668190357E+02  0.00000000000E+00 0.  1.
         -1   -1    0    0    0  501 -0.00000000000E+00 -0.00000000000E+00 -0.44071081832E+02  0.44071081832E+02  0.00000000000E+00 0. -1.
         23    2    1    2    0    0  0.00000000000E+00  0.00000000000E+00  0.25971085251E+01  0.90739272190E+02  0.90702097797E+02 0.  0.
        -13    1    3    3    0    0 -0.91673621382E+01  0.44382109651E+02  0.30037910984E+01  0.45418442802E+02  0.00000000000E+00 0.  1.
         13    1    3    3    0    0  0.91673621382E+01 -0.44382109651E+02 -0.40668257329E+00  0.45320829387E+02  0.00000000000E+00 0. -1.
<mgrwt>
<rscale>  0 0.90702098E+02</rscale>
<asrwt>0</asrwt>
<pdfrwt beam="1">  1        1 0.71797216E-02 0.90702098E+02</pdfrwt>
<pdfrwt beam="2">  1       -1 0.67801664E-02 0.90702098E+02</pdfrwt>
<totfact> 0.94165373E+04</totfact>
</mgrwt>
</event>
<event>
 5    1  0.6027538E+000  0.8645677E+02  0.7546771E-02  0.1311666E+00
         -2   -1    0    0    0  501 -0.00000000000E+00  0.00000000000E+00  0.20439759776E+02  0.20439759776E+02  0.00000000000E+00 0.  1.
          2   -1    0    0  501    0  0.00000000000E+00 -0.00000000000E+00 -0.91424424819E+02  0.91424424819E+02  0.00000000000E+00 0. -1.
         23    2    1    2    0    0  0.00000000000E+00  0.00000000000E+00 -0.70984665043E+02  0.11186418460E+03  0.86456770261E+02 0.  0.
        -13    1    3    3    0    0 -0.58534099366E+00 -0.40883157224E+02 -0.17335717487E+02  0.44410609875E+02  0.00000000000E+00 0.  1.
         13    1    3    3    0    0  0.58534099366E+00  0.40883157224E+02 -0.53648947556E+02  0.67453574720E+02  0.00000000000E+00 0. -1.
<mgrwt>
<rscale>  0 0.86456770E+02</rscale>
<asrwt>0</asrwt>
<pdfrwt beam="2">  1        2 0.14065296E-01 0.86456770E+02</pdfrwt>
<pdfrwt beam="1">  1       -2 0.31445784E-02 0.86456770E+02</pdfrwt>
<totfact> 0.13820800E+05</totfact>
</mgrwt>
</event>
<event>
 5    1  0.6027538E+000  0.8439565E+02  0.7546771E-02  0.1317021E+00
         -2   -1    0    0    0  501 -0.00000000000E+00  0.00000000000E+00  0.72039721699E+02  0.72039721699E+02  0.00000000000E+00 0.  1.
          2   -1    0    0  501    0  0.00000000000E+00 -0.00000000000E+00 -0.24717704953E+02  0.24717704953E+02  0.00000000000E+00 0. -1.
         23    2    1    2    0    0  0.00000000000E+00  0.00000000000E+00  0.47322016746E+02  0.96757426653E+02  0.84395653582E+02 0.  0.
        -13    1    3    3    0    0 -0.95474079557E+01  0.40218603479E+02  0.33386968873E+02  0.53135475485E+02  0.00000000000E+00 0. -1.
         13    1    3    3    0    0  0.95474079557E+01 -0.40218603479E+02  0.13935047872E+02  0.43621951168E+02  0.00000000000E+00 0.  1.
<mgrwt>
<rscale>  0 0.84395654E+02</rscale>
<asrwt>0</asrwt>
<pdfrwt beam="2">  1        2 0.38027239E-02 0.84395654E+02</pdfrwt>
<pdfrwt beam="1">  1       -2 0.11083034E-01 0.84395654E+02</pdfrwt>
<totfact> 0.10573320E+05</totfact>
</mgrwt>
</event>
<event>
 5    1  0.6027538E+000  0.9234330E+02  0.7546771E-02  0.1297274E+00
          1   -1    0    0  501    0  0.00000000000E+00  0.00000000000E+00  0.25813390946E+03  0.25813390946E+03  0.00000000000E+00 0. -1.
         -1   -1    0    0    0  501 -0.00000000000E+00 -0.00000000000E+00 -0.82585867845E+01  0.82585867845E+01  0.00000000000E+00 0.  1.
         23    2    1    2    0    0  0.00000000000E+00  0.00000000000E+00  0.24987532267E+03  0.26639249624E+03  0.92343300640E+02 0.  0.
        -13    1    3    3    0    0 -0.28558350852E+02  0.33590439806E+02  0.85391166234E+02  0.96101760236E+02  0.00000000000E+00 0.  1.
         13    1    3    3    0    0  0.28558350852E+02 -0.33590439806E+02  0.16448415644E+03  0.17029073601E+03  0.00000000000E+00 0. -1.
<mgrwt>
<rscale>  0 0.92343301E+02</rscale>
<asrwt>0</asrwt>
<pdfrwt beam="1">  1        1 0.39712903E-01 0.92343301E+02</pdfrwt>
<pdfrwt beam="2">  1       -1 0.12705520E-02 0.92343301E+02</pdfrwt>
<totfact> 0.12028524E+05</totfact>
</mgrwt>
</event>
<event>
 5    1  0.6027538E+000  0.8340321E+02  0.7546771E-02  0.1319662E+00
          2   -1    0    0  501    0  0.00000000000E+00  0.00000000000E+00  0.12848036894E+02  0.12848036894E+02  0.00000000000E+00 0. -1.
         -2   -1    0    0    0  501 -0.00000000000E+00 -0.00000000000E+00 -0.13535326633E+03  0.13535326633E+03  0.00000000000E+00 0.  1.
         23    2    1    2    0    0  0.00000000000E+00  0.00000000000E+00 -0.12250522944E+03  0.14820130322E+03  0.83403207600E+02 0.  0.
        -13    1    3    3    0    0  0.19270522599E+02 -0.15947932463E+02 -0.12054269496E+03  0.12311064495E+03  0.00000000000E+00 0.  1.
         13    1    3    3    0    0 -0.19270522599E+02  0.15947932463E+02 -0.19625344736E+01  0.25090658274E+02  0.00000000000E+00 0. -1.
<mgrwt>
<rscale>  0 0.83403208E+02</rscale>
<asrwt>0</asrwt>
<pdfrwt beam="1">  1        2 0.19766212E-02 0.83403208E+02</pdfrwt>
<pdfrwt beam="2">  1       -2 0.20823578E-01 0.83403208E+02</pdfrwt>
<totfact> 0.90679787E+04</totfact>
</mgrwt>
</event>
<event>
 5    1  0.6027538E+000  0.9083008E+02  0.7546771E-02  0.1300854E+00
         -1   -1    0    0    0  501 -0.00000000000E+00  0.00000000000E+00  0.25253675309E+02  0.25253675309E+02  0.00000000000E+00 0.  1.
          1   -1    0    0  501    0  0.00000000000E+00 -0.00000000000E+00 -0.81672299329E+02  0.81672299329E+02  0.00000000000E+00 0. -1.
         23    2    1    2    0    0  0.00000000000E+00  0.00000000000E+00 -0.56418624020E+02  0.10692597464E+03  0.90830077154E+02 0.  0.
        -13    1    3    3    0    0  0.12632453514E+02  0.27569209023E+02 -0.68006731007E+02  0.74461772946E+02  0.00000000000E+00 0. -1.
         13    1    3    3    0    0 -0.12632453514E+02 -0.27569209023E+02  0.11588106987E+02  0.32464201692E+02  0.00000000000E+00 0.  1.
<mgrwt>
<rscale>  0 0.90830077E+02</rscale>
<asrwt>0</asrwt>
<pdfrwt beam="2">  1        1 0.12564969E-01 0.90830077E+02</pdfrwt>
<pdfrwt beam="1">  1       -1 0.38851808E-02 0.90830077E+02</pdfrwt>
<totfact> 0.10213586E+05</totfact>
</mgrwt>
</event>
<event>
 5    1  0.6027538E+000  0.8890203E+02  0.7546771E-02  0.1305533E+00
         -2   -1    0    0    0  501 -0.00000000000E+00  0.00000000000E+00  0.36061849499E+02  0.36061849499E+02  0.00000000000E+00 0.  1.
          2   -1    0    0  501    0  0.00000000000E+00 -0.00000000000E+00 -0.54791772592E+02  0.54791772592E+02  0.00000000000E+00 0. -1.
         23    2    1    2    0    0  0.00000000000E+00  0.00000000000E+00 -0.18729923093E+02  0.90853622092E+02  0.88902028256E+02 0.  0.
        -13    1    3    3    0    0  0.22922293168E+02 -0.37749789705E+02 -0.42130138078E+01  0.44364711564E+02  0.00000000000E+00 0.  1.
         13    1    3    3    0    0 -0.22922293168E+02  0.37749789705E+02 -0.14516909285E+02  0.46488910527E+02  0.00000000000E+00 0. -1.
<mgrwt>
<rscale>  0 0.88902028E+02</rscale>
<asrwt>0</asrwt>
<pdfrwt beam="2">  1        2 0.84295034E-02 0.88902028E+02</pdfrwt>
<pdfrwt beam="1">  1       -2 0.55479769E-02 0.88902028E+02</pdfrwt>
<totfact> 0.11120122E+05</totfact>
</mgrwt>
</event>
<event>
 5    1  0.6027538E+000  0.9168013E+02  0.7546771E-02  0.1298833E+00
         -2   -1    0    0    0  501 -0.00000000000E+00  0.00000000000E+00  0.47411889776E+02  0.47411889776E+02  0.00000000000E+00 0.  1.
          2   -1    0    0  501    0  0.00000000000E+00 -0.00000000000E+00 -0.44320349743E+02  0.44320349743E+02  0.00000000000E+00 0. -1.
         23    2    1    2    0    0  0.00000000000E+00  0.00000000000E+00  0.30915400334E+01  0.91732239519E+02  0.91680129512E+02 0.  0.
        -13    1    3    3    0    0  0.13676323740E+02  0.38173717146E+02  0.22936345573E+02  0.46587020296E+02  0.00000000000E+00 0.  1.
         13    1    3    3    0    0 -0.13676323740E+02 -0.38173717146E+02 -0.19844805539E+02  0.45145219223E+02  0.00000000000E+00 0. -1.
<mgrwt>
<rscale>  0 0.91680130E+02</rscale>
<asrwt>0</asrwt>
<pdfrwt beam="2">  1        2 0.68185153E-02 0.91680130E+02</pdfrwt>
<pdfrwt beam="1">  1       -2 0.72941369E-02 0.91680130E+02</pdfrwt>
<totfact> 0.96414660E+04</totfact>
</mgrwt>
</event>
<event>
 5    1  0.6027538E+000  0.9090732E+02  0.7546771E-02  0.1300669E+00
          2   -1    0    0  501    0  0.00000000000E+00  0.00000000000E+00  0.12190796472E+02  0.12190796472E+02  0.00000000000E+00 0. -1.
         -2   -1    0    0    0  501 -0.00000000000E+00 -0.00000000000E+00 -0.16947499896E+03  0.16947499896E+03  0.00000000000E+00 0.  1.
         23    2    1    2    0    0  0.00000000000E+00  0.00000000000E+00 -0.15728420249E+03  0.18166579544E+03  0.90907320264E+02 0.  0.
        -13    1    3    3    0    0  0.74350679657E+01  0.43978916117E+02 -0.61151013604E+02  0.75689310760E+02  0.00000000000E+00 0. -1.
         13    1    3    3    0    0 -0.74350679657E+01 -0.43978916117E+02 -0.96133188888E+02  0.10597648468E+03  0.00000000000E+00 0.  1.
<mgrwt>
<rscale>  0 0.90907320E+02</rscale>
<asrwt>0</asrwt>
<pdfrwt beam="1">  1        2 0.18755072E-02 0.90907320E+02</pdfrwt>
<pdfrwt beam="2">  1       -2 0.26073076E-01 0.90907320E+02</pdfrwt>
<totfact> 0.67218124E+04</totfact>
</mgrwt>
</event>
<event>
 5    1  0.6027538E+000  0.9075109E+02  0.7546771E-02  0.1301043E+00
         -1   -1    0    0    0  501 -0.00000000000E+00  0.00000000000E+00  0.39670026086E+02  0.39670026086E+02  0.00000000000E+00 0.  1.
          1   -1    0    0  501    0  0.00000000000E+00 -0.00000000000E+00 -0.51901661872E+02  0.51901661872E+02  0.00000000000E+00 0. -1.
         23    2    1    2    0    0  0.00000000000E+00  0.00000000000E+00 -0.12231635786E+02  0.91571687958E+02  0.90751094327E+02 0.  0.
        -13    1    3    3    0    0  0.96091076948E+01  0.28299825436E+02  0.28335627188E+02  0.41184011929E+02  0.00000000000E+00 0.  1.
         13    1    3    3    0    0 -0.96091076948E+01 -0.28299825436E+02 -0.40567262974E+02  0.50387676029E+02  0.00000000000E+00 0. -1.
<mgrwt>
<rscale>  0 0.90751094E+02</rscale>
<asrwt>0</asrwt>
<pdfrwt beam="2">  1        1 0.79848710E-02 0.90751094E+02</pdfrwt>
<pdfrwt beam="1">  1       -1 0.61030810E-02 0.90751094E+02</pdfrwt>
<totfact> 0.95529464E+04</totfact>
</mgrwt>
</event>
<event>
 5    1  0.6027538E+000  0.9204567E+02  0.7546771E-02  0.1297972E+00
         -1   -1    0    0    0  501 -0.00000000000E+00  0.00000000000E+00  0.42120162486E+02  0.42120162486E+02  0.00000000000E+00 0.  1.
          1   -1    0    0  501    0  0.00000000000E+00 -0.00000000000E+00 -0.50287109113E+02  0.50287109113E+02  0.00000000000E+00 0. -1.
         23    2    1    2    0    0  0.00000000000E+00  0.00000000000E+00 -0.81669466272E+01  0.92407271598E+02  0.92045667074E+02 0.  0.
        -13    1    3    3    0    0 -0.19328371035E+02  0.25265730226E+02  0.29306141651E+02  0.43252664532E+02  0.00000000000E+00 0.  1.
         13    1    3    3    0    0  0.19328371035E+02 -0.25265730226E+02 -0.37473088278E+02  0.49154607066E+02  0.00000000000E+00 0. -1.
<mgrwt>
<rscale>  0 0.92045667E+02</rscale>
<asrwt>0</asrwt>
<pdfrwt beam="2">  1        1 0.77364783E-02 0.92045667E+02</pdfrwt>
<pdfrwt beam="1">  1       -1 0.64800250E-02 0.92045667E+02</pdfrwt>
<totfact> 0.91385792E+04</totfact>
</mgrwt>
</event>
<event>
 5    1  0.6027538E+000  0.9695770E+02  0.7546771E-02  0.1286827E+00
          1   -1    0    0  501    0  0.00000000000E+00  0.00000000000E+00  0.23744837016E+02  0.23744837016E+02  0.00000000000E+00 0. -1.
         -1   -1    0    0    0  501 -0.00000000000E+00 -0.00000000000E+00 -0.98977253787E+02  0.98977253787E+02  0.00000000000E+00 0.  1.
         23    2    1    2    0    0  0.00000000000E+00  0.00000000000E+00 -0.75232416771E+02  0.12272209080E+03  0.96957697156E+02 0.  0.
        -13    1    3    3    0    0 -0.36951565922E+02 -0.27802480200E+02 -0.19195508454E+02  0.50068589696E+02  0.00000000000E+00 0. -1.
         13    1    3    3    0    0  0.36951565922E+02  0.27802480200E+02 -0.56036908317E+02  0.72653501107E+02  0.00000000000E+00 0.  1.
<mgrwt>
<rscale>  0 0.96957697E+02</rscale>
<asrwt>0</asrwt>
<pdfrwt beam="1">  1        1 0.36530519E-02 0.96957697E+02</pdfrwt>
<pdfrwt beam="2">  1       -1 0.15227270E-01 0.96957697E+02</pdfrwt>
<totfact> 0.69573570E+04</totfact>
</mgrwt>
</event>
<event>
 5    1  0.6027538E+000  0.9606557E+02  0.7546771E-02  0.1288794E+00
         -1   -1    0    0    0  501 -0.00000000000E+00  0.00000000000E+00  0.68058075692E+02  0.68058075692E+02  0.00000000000E+00 0.  1.
          1   -1    0    0  501    0  0.00000000000E+00 -0.00000000000E+00 -0.33899703512E+02  0.33899703512E+02  0.00000000000E+00 0. -1.
         23    2    1    2    0    0  0.00000000000E+00  0.00000000000E+00  0.34158372180E+02  0.10195777920E+03  0.96065573178E+02 0.  0.
        -13    1    3    3    0    0 -0.30011341358E+02  0.20067902279E+02  0.50704378545E+02  0.62244158887E+02  0.00000000000E+00 0.  1.
         13    1    3    3    0    0  0.30011341358E+02 -0.20067902279E+02 -0.16546006365E+02  0.39713620316E+02  0.00000000000E+00 0. -1.
<mgrwt>
<rscale>  0 0.96065573E+02</rscale>
<asrwt>0</asrwt>
<pdfrwt beam="2">  1        1 0.52153390E-02 0.96065573E+02</pdfrwt>
<pdfrwt beam="1">  1       -1 0.10470473E-01 0.96065573E+02</pdfrwt>
<totfact> 0.76092877E+04</totfact>
</mgrwt>
</event>
<event>
 5    1  0.6027538E+000  0.8787912E+02  0.7546771E-02  0.1308071E+00
         -2   -1    0    0    0  501 -0.00000000000E+00  0.00000000000E+00  0.74903299591E+02  0.74903299591E+02  0.00000000000E+00 0.  1.
          2   -1    0    0  501    0  0.00000000000E+00 -0.00000000000E+00 -0.25775699462E+02  0.25775699462E+02  0.00000000000E+00 0. -1.
         23    2    1    2    0    0  0.00000000000E+00  0.00000000000E+00  0.49127600129E+02  0.10067899905E+03  0.87879120136E+02 0.  0.
        -13    1    3    3    0    0  0.60341335566E+01  0.18182726873E+02  0.69866565698E+02  0.72445561125E+02  0.00000000000E+00 0.  1.
         13    1    3    3    0    0 -0.60341335566E+01 -0.18182726873E+02 -0.20738965569E+02  0.28233437928E+02  0.00000000000E+00 0. -1.
<mgrwt>
<rscale>  0 0.87879120E+02</rscale>
<asrwt>0</asrwt>
<pdfrwt beam="2">  1        2 0.39654922E-02 0.87879120E+02</pdfrwt>
<pdfrwt beam="1">  1       -2 0.11523584E-01 0.87879120E+02</pdfrwt>
<totfact> 0.94795359E+04</totfact>
</mgrwt>
</event>
<event>
 5    1  0.6027538E+000  0.9002074E+02  0.7546771E-02  0.1302801E+00
          2   -1    0    0  501    0  0.00000000000E+00  0.00000000000E+00  0.29817624668E+02  0.29817624668E+02  0.00000000000E+00 0. -1.
         -2   -1    0    0    0  501 -0.00000000000E+00 -0.00000000000E+00 -0.67944151228E+02  0.67944151228E+02  0.00000000000E+00 0.  1.
         23    2    1    2    0    0  0.00000000000E+00  0.00000000000E+00 -0.38126526560E+02  0.97761775896E+02  0.90020735383E+02 0.  0.
        -13    1    3    3    0    0 -0.32438699220E+02 -0.19854400329E+02 -0.45205382905E+02  0.59076163239E+02  0.00000000000E+00 0.  1.
         13    1    3    3    0    0  0.32438699220E+02  0.19854400329E+02  0.70788563455E+01  0.38685612657E+02  0.00000000000E+00 0. -1.
<mgrwt>
<rscale>  0 0.90020735E+02</rscale>
<asrwt>0</asrwt>
<pdfrwt beam="1">  1        2 0.45873269E-02 0.90020735E+02</pdfrwt>
<pdfrwt beam="2">  1       -2 0.10452946E-01 0.90020735E+02</pdfrwt>
<totfact> 0.91724963E+04</totfact>
</mgrwt>
</event>
<event>
 5    1  0.6027538E+000  0.8945420E+02  0.7546771E-02  0.1304179E+00
          2   -1    0    0  501    0  0.00000000000E+00  0.00000000000E+00  0.30660758359E+02  0.30660758359E+02  0.00000000000E+00 0. -1.
         -2   -1    0    0    0  501 -0.00000000000E+00 -0.00000000000E+00 -0.65246710515E+02  0.65246710515E+02  0.00000000000E+00 0.  1.
         23    2    1    2    0    0  0.00000000000E+00  0.00000000000E+00 -0.34585952156E+02  0.95907468874E+02  0.89454203363E+02 0.  0.
        -13    1    3    3    0    0 -0.40057012668E+02  0.94629454317E+00  0.40168471465E+01  0.40269030262E+02  0.00000000000E+00 0. -1.
         13    1    3    3    0    0  0.40057012668E+02 -0.94629454317E+00 -0.38602799302E+02  0.55638438612E+02  0.00000000000E+00 0.  1.
<mgrwt>
<rscale>  0 0.89454203E+02</rscale>
<asrwt>0</asrwt>
<pdfrwt beam="1">  1        2 0.47170398E-02 0.89454203E+02</pdfrwt>
<pdfrwt beam="2">  1       -2 0.10037955E-01 0.89454203E+02</pdfrwt>
<totfact> 0.94136242E+04</totfact>
</mgrwt>
</event>
<event>
 5    1  0.6027538E+000  0.9272549E+02  0.7546771E-02  0.1296383E+00
         -1   -1    0    0    0  501 -0.00000000000E+00  0.00000000000E+00  0.99007240643E+01  0.99007240643E+01  0.00000000000E+00 0.  1.
          1   -1    0    0  501    0  0.00000000000E+00 -0.00000000000E+00 -0.21710573894E+03  0.21710573894E+03  0.00000000000E+00 0. -1.
         23    2    1    2    0    0  0.00000000000E+00  0.00000000000E+00 -0.20720501488E+03  0.22700646301E+03  0.92725487630E+02 0.  0.
        -13    1    3    3    0    0  0.29009427667E+01  0.43220627343E+02 -0.14405756697E+03  0.15042945422E+03  0.00000000000E+00 0. -1.
         13    1    3    3    0    0 -0.29009427667E+01 -0.43220627343E+02 -0.63147447911E+02  0.76577008786E+02  0.00000000000E+00 0.  1.
<mgrwt>
<rscale>  0 0.92725488E+02</rscale>
<asrwt>0</asrwt>
<pdfrwt beam="2">  1        1 0.33400884E-01 0.92725488E+02</pdfrwt>
<pdfrwt beam="1">  1       -1 0.15231883E-02 0.92725488E+02</pdfrwt>
<totfact> 0.11499750E+05</totfact>
</mgrwt>
</event>
<event>
 5    1  0.6027538E+000  0.9258692E+02  0.7546771E-02  0.1296705E+00
         -4   -1    0    0    0  501 -0.00000000000E+00  0.00000000000E+00  0.25741750947E+02  0.25741750947E+02  0.00000000000E+00 0. -1.
          4   -1    0    0  501    0  0.00000000000E+00 -0.00000000000E+00 -0.83253258851E+02  0.83253258851E+02  0.00000000000E+00 0.  1.
         23    2    1    2    0    0  0.00000000000E+00  0.00000000000E+00 -0.57511507904E+02  0.10899500980E+03  0.92586924667E+02 0.  0.
        -13    1    3    3    0    0  0.20779989602E+01 -0.24799746115E+02 -0.74708584892E+02  0.78744638825E+02  0.00000000000E+00 0.  1.
         13    1    3    3    0    0 -0.20779989602E+01  0.24799746115E+02  0.17197076988E+02  0.30250370973E+02  0.00000000000E+00 0. -1.
<mgrwt>
<rscale>  0 0.92586925E+02</rscale>
<asrwt>0</asrwt>
<pdfrwt beam="2">  1        4 0.12808194E-01 0.92586925E+02</pdfrwt>
<pdfrwt beam="1">  1       -4 0.39602693E-02 0.92586925E+02</pdfrwt>
<totfact> 0.24855417E+04</totfact>
</mgrwt>
</event>
<event>
 5    1  0.6027538E+000  0.9269657E+02  0.7546771E-02  0.1296450E+00
         -1   -1    0    0    0  501 -0.00000000000E+00  0.00000000000E+00  0.60549027188E+01  0.60549027188E+01  0.00000000000E+00 0.  1.
          1   -1    0    0  501    0  0.00000000000E+00 -0.00000000000E+00 -0.35478088216E+03  0.35478088216E+03  0.00000000000E+00 0. -1.
         23    2    1    2    0    0  0.00000000000E+00  0.00000000000E+00 -0.34872597944E+03  0.36083578488E+03  0.92696574435E+02 0.  0.
        -13    1    3    3    0    0 -0.32467841187E+02 -0.31724842859E+02 -0.21078321631E+03  0.21561584043E+03  0.00000000000E+00 0. -1.
         13    1    3    3    0    0  0.32467841187E+02  0.31724842859E+02 -0.13794276313E+03  0.14521994445E+03  0.00000000000E+00 0.  1.
<mgrwt>
<rscale>  0 0.92696574E+02</rscale>
<asrwt>0</asrwt>
<pdfrwt beam="2">  1        1 0.54581685E-01 0.92696574E+02</pdfrwt>
<pdfrwt beam="1">  1       -1 0.93152330E-03 0.92696574E+02</pdfrwt>
<totfact> 0.12646104E+05</totfact>
</mgrwt>
</event>
<event>
 5    1  0.6027538E+000  0.9194508E+02  0.7546771E-02  0.1298209E+00
          2   -1    0    0  501    0  0.00000000000E+00  0.00000000000E+00  0.12673392021E+03  0.12673392021E+03  0.00000000000E+00 0. -1.
         -2   -1    0    0    0  501 -0.00000000000E+00 -0.00000000000E+00 -0.16676468475E+02  0.16676468475E+02  0.00000000000E+00 0.  1.
         23    2    1    2    0    0  0.00000000000E+00  0.00000000000E+00  0.11005745174E+03  0.14341038869E+03  0.91945075455E+02 0.  0.
        -13    1    3    3    0    0  0.82321515062E+01 -0.43868164625E+02  0.72206413755E+02  0.84887869412E+02  0.00000000000E+00 0. -1.
         13    1    3    3    0    0 -0.82321515062E+01  0.43868164625E+02  0.37851037983E+02  0.58522519275E+02  0.00000000000E+00 0.  1.
<mgrwt>
<rscale>  0 0.91945075E+02</rscale>
<asrwt>0</asrwt>
<pdfrwt beam="1">  1        2 0.19497526E-01 0.91945075E+02</pdfrwt>
<pdfrwt beam="2">  1       -2 0.25656106E-02 0.91945075E+02</pdfrwt>
<totfact> 0.12918004E+05</totfact>
</mgrwt>
</event>
<event>
 5    1  0.6027538E+000  0.8998921E+02  0.7546771E-02  0.1302878E+00
          1   -1    0    0  501    0  0.00000000000E+00  0.00000000000E+00  0.11930725467E+03  0.11930725467E+03  0.00000000000E+00 0. -1.
         -1   -1    0    0    0  501 -0.00000000000E+00 -0.00000000000E+00 -0.16968911713E+02  0.16968911713E+02  0.00000000000E+00 0.  1.
         23    2    1    2    0    0  0.00000000000E+00  0.00000000000E+00  0.10233834296E+03  0.13627616638E+03  0.89989205380E+02 0.  0.
        -13    1    3    3    0    0 -0.23670335999E+02  0.11532896828E+02  0.10642202273E+03  0.10963092373E+03  0.00000000000E+00 0. -1.
         13    1    3    3    0    0  0.23670335999E+02 -0.11532896828E+02 -0.40836797751E+01  0.26645242653E+02  0.00000000000E+00 0.  1.
<mgrwt>
<rscale>  0 0.89989205E+02</rscale>
<asrwt>0</asrwt>
<pdfrwt beam="1">  1        1 0.18354962E-01 0.89989205E+02</pdfrwt>
<pdfrwt beam="2">  1       -1 0.26106019E-02 0.89989205E+02</pdfrwt>
<totfact> 0.11152123E+05</totfact>
</mgrwt>
</event>
<event>
 5    1  0.6027538E+000  0.9178456E+02  0.7546771E-02  0.1298587E+00
          1   -1    0    0  501    0  0.00000000000E+00  0.00000000000E+00  0.72907722828E+02  0.72907722828E+02  0.00000000000E+00 0. -1.
         -1   -1    0    0    0  501 -0.00000000000E+00 -0.00000000000E+00 -0.28887221018E+02  0.28887221018E+02  0.00000000000E+00 0.  1.
         23    2    1    2    0    0  0.00000000000E+00  0.00000000000E+00  0.44020501810E+02  0.10179494385E+03  0.91784563043E+02 0.  0.
        -13    1    3    3    0    0 -0.26924703158E+00  0.45034570298E+02  0.12220508934E+02  0.46663967410E+02  0.00000000000E+00 0. -1.
         13    1    3    3    0    0  0.26924703158E+00 -0.45034570298E+02  0.31799992877E+02  0.55130976436E+02  0.00000000000E+00 0.  1.
<mgrwt>
<rscale>  0 0.91784563E+02</rscale>
<asrwt>0</asrwt>
<pdfrwt beam="1">  1        1 0.11216573E-01 0.91784563E+02</pdfrwt>
<pdfrwt beam="2">  1       -1 0.44441879E-02 0.91784563E+02</pdfrwt>
<totfact> 0.97488176E+04</totfact>
</mgrwt>
</event>
<event>
 5    1  0.6027538E+000  0.9258603E+02  0.7546771E-02  0.1296707E+00
         -2   -1    0    0    0  501 -0.00000000000E+00  0.00000000000E+00  0.61142592853E+01  0.61142592853E+01  0.00000000000E+00 0.  1.
          2   -1    0    0  501    0  0.00000000000E+00 -0.00000000000E+00 -0.35049926012E+03  0.35049926012E+03  0.00000000000E+00 0. -1.
         23    2    1    2    0    0  0.00000000000E+00  0.00000000000E+00 -0.34438500084E+03  0.35661351941E+03  0.92586032547E+02 0.  0.
        -13    1    3    3    0    0 -0.39118574454E+02  0.21094078457E+02 -0.12229547794E+03  0.13012073984E+03  0.00000000000E+00 0.  1.
         13    1    3    3    0    0  0.39118574454E+02 -0.21094078457E+02 -0.22208952290E+03  0.22649277957E+03  0.00000000000E+00 0. -1.
<mgrwt>
<rscale>  0 0.92586033E+02</rscale>
<asrwt>0</asrwt>
<pdfrwt beam="2">  1        2 0.53922967E-01 0.92586033E+02</pdfrwt>
<pdfrwt beam="1">  1       -2 0.94065521E-03 0.92586033E+02</pdfrwt>
<totfact> 0.18267694E+05</totfact>
</mgrwt>
</event>
<event>
 5    1  0.6027538E+000  0.9904302E+02  0.7546771E-02  0.1282321E+00
         -1   -1    0    0    0  501 -0.00000000000E+00  0.00000000000E+00  0.85035095303E+02  0.85035095303E+02  0.00000000000E+00 0.  1.
          1   -1    0    0  501    0  0.00000000000E+00 -0.00000000000E+00 -0.28839622617E+02  0.28839622617E+02  0.00000000000E+00 0. -1.
         23    2    1    2    0    0  0.00000000000E+00  0.00000000000E+00  0.56195472685E+02  0.11387471792E+03  0.99043022122E+02 0.  0.
        -13    1    3    3    0    0  0.19370182909E+01  0.30546972302E+02 -0.16661524461E+02  0.34849332189E+02  0.00000000000E+00 0. -1.
         13    1    3    3    0    0 -0.19370182909E+01 -0.30546972302E+02  0.72856997147E+02  0.79025385731E+02  0.00000000000E+00 0.  1.
<mgrwt>
<rscale>  0 0.99043022E+02</rscale>
<asrwt>0</asrwt>
<pdfrwt beam="2">  1        1 0.44368651E-02 0.99043022E+02</pdfrwt>
<pdfrwt beam="1">  1       -1 0.13082322E-01 0.99043022E+02</pdfrwt>
<totfact> 0.67730772E+04</totfact>
</mgrwt>
</event>
<event>
 5    1  0.6027538E+000  0.9127657E+02  0.7546771E-02  0.1299789E+00
         -1   -1    0    0    0  501 -0.00000000000E+00  0.00000000000E+00  0.31490598552E+02  0.31490598552E+02  0.00000000000E+00 0.  1.
          1   -1    0    0  501    0  0.00000000000E+00 -0.00000000000E+00 -0.66142059389E+02  0.66142059389E+02  0.00000000000E+00 0. -1.
         23    2    1    2    0    0  0.00000000000E+00  0.00000000000E+00 -0.34651460837E+02  0.97632657941E+02  0.91276569603E+02 0.  0.
        -13    1    3    3    0    0 -0.18063980321E+01 -0.45146898359E+02 -0.24203705704E+02  0.51257437266E+02  0.00000000000E+00 0.  1.
         13    1    3    3    0    0  0.18063980321E+01  0.45146898359E+02 -0.10447755133E+02  0.46375220675E+02  0.00000000000E+00 0. -1.
<mgrwt>
<rscale>  0 0.91276570E+02</rscale>
<asrwt>0</asrwt>
<pdfrwt beam="2">  1        1 0.10175701E-01 0.91276570E+02</pdfrwt>
<pdfrwt beam="1">  1       -1 0.48447075E-02 0.91276570E+02</pdfrwt>
<totfact> 0.97515649E+04</totfact>
</mgrwt>
</event>
<event>
 5    1  0.6027538E+000  0.8963010E+02  0.7546771E-02  0.1303750E+00
         -1   -1    0    0    0  501 -0.00000000000E+00  0.00000000000E+00  0.23070623655E+03  0.23070623655E+03  0.00000000000E+00 0.  1.
          1   -1    0    0  501    0  0.00000000000E+00 -0.00000000000E+00 -0.87053931816E+01  0.87053931816E+01  0.00000000000E+00 0. -1.
         23    2    1    2    0    0  0.00000000000E+00  0.00000000000E+00  0.22200084337E+03  0.23941162973E+03  0.89630095361E+02 0.  0.
        -13    1    3    3    0    0 -0.29769779463E+02  0.27802572017E+02  0.16091267575E+03  0.16598828874E+03  0.00000000000E+00 0.  1.
         13    1    3    3    0    0  0.29769779463E+02 -0.27802572017E+02  0.61088167612E+02  0.73423340991E+02  0.00000000000E+00 0. -1.
<mgrwt>
<rscale>  0 0.89630095E+02</rscale>
<asrwt>0</asrwt>
<pdfrwt beam="2">  1        1 0.13392914E-02 0.89630095E+02</pdfrwt>
<pdfrwt beam="1">  1       -1 0.35493262E-01 0.89630095E+02</pdfrwt>
<totfact> 0.69528430E+04</totfact>
</mgrwt>
</event>
<event>
 5    1  0.6027538E+000  0.9085692E+02  0.7546771E-02  0.1300790E+00
          1   -1    0    0  501    0  0.00000000000E+00  0.00000000000E+00  0.42233207378E+02  0.42233207378E+02  0.00000000000E+00 0. -1.
         -1   -1    0    0    0  501 -0.00000000000E+00 -0.00000000000E+00 -0.48865460065E+02  0.48865460065E+02  0.00000000000E+00 0.  1.
         23    2    1    2    0    0  0.00000000000E+00  0.00000000000E+00 -0.66322526869E+01  0.91098667443E+02  0.90856922875E+02 0.  0.
        -13    1    3    3    0    0  0.27181976133E+01  0.10349035837E+02 -0.47583954321E+02  0.48772162653E+02  0.00000000000E+00 0.  1.
         13    1    3    3    0    0 -0.27181976133E+01 -0.10349035837E+02  0.40951701634E+02  0.42326504790E+02  0.00000000000E+00 0. -1.
<mgrwt>
<rscale>  0 0.90856923E+02</rscale>
<asrwt>0</asrwt>
<pdfrwt beam="1">  1        1 0.64974165E-02 0.90856923E+02</pdfrwt>
<pdfrwt beam="2">  1       -1 0.75177631E-02 0.90856923E+02</pdfrwt>
<totfact> 0.92322415E+04</totfact>
</mgrwt>
</event>
<event>
 5    1  0.6027538E+000  0.9193430E+02  0.7546771E-02  0.1298234E+00
         -1   -1    0    0    0  501 -0.00000000000E+00  0.00000000000E+00  0.92492166082E+02  0.92492166082E+02  0.00000000000E+00 0.  1.
          1   -1    0    0  501    0  0.00000000000E+00 -0.00000000000E+00 -0.22844949368E+02  0.22844949368E+02  0.00000000000E+00 0. -1.
         23    2    1    2    0    0  0.00000000000E+00  0.00000000000E+00  0.69647216714E+02  0.11533711545E+03  0.91934299390E+02 0.  0.
        -13    1    3    3    0    0 -0.77797064859E+01 -0.19090814143E+02 -0.16720282652E+02  0.26543377133E+02  0.00000000000E+00 0. -1.
         13    1    3    3    0    0  0.77797064859E+01  0.19090814143E+02  0.86367499366E+02  0.88793738317E+02  0.00000000000E+00 0.  1.
<mgrwt>
<rscale>  0 0.91934299E+02</rscale>
<asrwt>0</asrwt>
<pdfrwt beam="2">  1        1 0.35146076E-02 0.91934299E+02</pdfrwt>
<pdfrwt beam="1">  1       -1 0.14229564E-01 0.91934299E+02</pdfrwt>
<totfact> 0.80800356E+04</totfact>
</mgrwt>
</event>
<event>
 5    1  0.6027538E+000  0.9079103E+02  0.7546771E-02  0.1300947E+00
          2   -1    0    0  501    0  0.00000000000E+00  0.00000000000E+00  0.52596301700E+02  0.52596301700E+02  0.00000000000E+00 0.  1.
         -2   -1    0    0    0  501 -0.00000000000E+00 -0.00000000000E+00 -0.39180567553E+02  0.39180567553E+02  0.00000000000E+00 0. -1.
         23    2    1    2    0    0  0.00000000000E+00  0.00000000000E+00  0.13415734148E+02  0.91776869253E+02  0.90791033738E+02 0.  0.
        -13    1    3    3    0    0 -0.63399498002E+01 -0.31797628860E+02 -0.25409262607E+02  0.41193625609E+02  0.00000000000E+00 0. -1.
         13    1    3    3    0    0  0.63399498002E+01  0.31797628860E+02  0.38824996754E+02  0.50583243644E+02  0.00000000000E+00 0.  1.
<mgrwt>
<rscale>  0 0.90791034E+02</rscale>
<asrwt>0</asrwt>
<pdfrwt beam="1">  1        2 0.80917387E-02 0.90791034E+02</pdfrwt>
<pdfrwt beam="2">  1       -2 0.60277796E-02 0.90791034E+02</pdfrwt>
<totfact> 0.10366877E+05</totfact>
</mgrwt>
</event>
<event>
 5    1  0.6027538E+000  0.1007327E+03  0.7546771E-02  0.1278763E+00
          1   -1    0    0  501    0  0.00000000000E+00  0.00000000000E+00  0.12507990544E+03  0.12507990544E+03  0.00000000000E+00 0. -1.
         -1   -1    0    0    0  501 -0.00000000000E+00 -0.00000000000E+00 -0.20281194554E+02  0.20281194554E+02  0.00000000000E+00 0.  1.
         23    2    1    2    0    0  0.00000000000E+00  0.00000000000E+00  0.10479871088E+03  0.14536109999E+03  0.10073271359E+03 0.  0.
        -13    1    3    3    0    0 -0.10830035507E+02  0.36258518941E+02  0.10036380959E+03  0.10726072973E+03  0.00000000000E+00 0. -1.
         13    1    3    3    0    0  0.10830035507E+02 -0.36258518941E+02  0.44349012881E+01  0.38100370264E+02  0.00000000000E+00 0.  1.
<mgrwt>
<rscale>  0 0.10073271E+03</rscale>
<asrwt>0</asrwt>
<pdfrwt beam="1">  1        1 0.19243062E-01 0.10073271E+03</pdfrwt>
<pdfrwt beam="2">  1       -1 0.31201839E-02 0.10073271E+03</pdfrwt>
<totfact> 0.82688709E+04</totfact>
</mgrwt>
</event>
<event>
 5    1  0.6027538E+000  0.9130854E+02  0.7546771E-02  0.1299713E+00
         -2   -1    0    0    0  501 -0.00000000000E+00  0.00000000000E+00  0.17066400181E+03  0.17066400181E+03  0.00000000000E+00 0.  1.
          2   -1    0    0  501    0  0.00000000000E+00 -0.00000000000E+00 -0.12212957946E+02  0.12212957946E+02  0.00000000000E+00 0. -1.
         23    2    1    2    0    0  0.00000000000E+00  0.00000000000E+00  0.15845104386E+03  0.18287695975E+03  0.91308537979E+02 0.  0.
        -13    1    3    3    0    0  0.12414081354E+02 -0.31278846783E+02  0.14101703154E+03  0.14497682179E+03  0.00000000000E+00 0.  1.
         13    1    3    3    0    0 -0.12414081354E+02  0.31278846783E+02  0.17434012318E+02  0.37900137961E+02  0.00000000000E+00 0. -1.
<mgrwt>
<rscale>  0 0.91308538E+02</rscale>
<asrwt>0</asrwt>
<pdfrwt beam="2">  1        2 0.18789167E-02 0.91308538E+02</pdfrwt>
<pdfrwt beam="1">  1       -2 0.26255999E-01 0.91308538E+02</pdfrwt>
<totfact> 0.66288040E+04</totfact>
</mgrwt>
</event>
<event>
 5    1  0.6027538E+000  0.9099073E+02  0.7546771E-02  0.1300470E+00
          2   -1    0    0  501    0  0.00000000000E+00  0.00000000000E+00  0.41080527959E+03  0.41080527959E+03  0.00000000000E+00 0.  1.
         -2   -1    0    0    0  501 -0.00000000000E+00 -0.00000000000E+00 -0.50384650702E+01  0.50384650702E+01  0.00000000000E+00 0. -1.
         23    2    1    2    0    0  0.00000000000E+00  0.00000000000E+00  0.40576681452E+03  0.41584374466E+03  0.90990725942E+02 0.  0.
        -13    1    3    3    0    0 -0.17163929337E+02  0.42132926479E+02  0.20192380183E+03  0.20698552053E+03  0.00000000000E+00 0. -1.
         13    1    3    3    0    0  0.17163929337E+02 -0.42132926479E+02  0.20384301269E+03  0.20885822413E+03  0.00000000000E+00 0.  1.
<mgrwt>
<rscale>  0 0.90990726E+02</rscale>
<asrwt>0</asrwt>
<pdfrwt beam="1">  1        2 0.63200786E-01 0.90990726E+02</pdfrwt>
<pdfrwt beam="2">  1       -2 0.77514879E-03 0.90990726E+02</pdfrwt>
<totfact> 0.20262461E+05</totfact>
</mgrwt>
</event>
<event>
 5    1  0.6027538E+000  0.7313423E+02  0.7546771E-02  0.1349748E+00
          2   -1    0    0  501    0  0.00000000000E+00  0.00000000000E+00  0.12496554208E+02  0.12496554208E+02  0.00000000000E+00 0. -1.
         -2   -1    0    0    0  501 -0.00000000000E+00 -0.00000000000E+00 -0.10700180737E+03  0.10700180737E+03  0.00000000000E+00 0.  1.
         23    2    1    2    0    0  0.00000000000E+00  0.00000000000E+00 -0.94505253166E+02  0.11949836158E+03  0.73134229638E+02 0.  0.
        -13    1    3    3    0    0 -0.20724195603E+02 -0.20586665070E+02 -0.83194193122E+02  0.88173560841E+02  0.00000000000E+00 0.  1.
         13    1    3    3    0    0  0.20724195603E+02  0.20586665070E+02 -0.11311060043E+02  0.31324800740E+02  0.00000000000E+00 0. -1.
<mgrwt>
<rscale>  0 0.73134230E+02</rscale>
<asrwt>0</asrwt>
<pdfrwt beam="1">  1        2 0.19225468E-02 0.73134230E+02</pdfrwt>
<pdfrwt beam="2">  1       -2 0.16461817E-01 0.73134230E+02</pdfrwt>
<totfact> 0.13556078E+05</totfact>
</mgrwt>
</event>
<event>
 5    1  0.6027538E+000  0.9555589E+02  0.7546771E-02  0.1289929E+00
          3   -1    0    0  501    0  0.00000000000E+00  0.00000000000E+00  0.61363759232E+02  0.61363759232E+02  0.00000000000E+00 0. -1.
         -3   -1    0    0    0  501 -0.00000000000E+00 -0.00000000000E+00 -0.37200002857E+02  0.37200002857E+02  0.00000000000E+00 0.  1.
         23    2    1    2    0    0  0.00000000000E+00  0.00000000000E+00  0.24163756375E+02  0.98563762090E+02  0.95555889798E+02 0.  0.
        -13    1    3    3    0    0 -0.95143424375E+01  0.29286331513E+02  0.49762873814E+02  0.58519702116E+02  0.00000000000E+00 0. -1.
         13    1    3    3    0    0  0.95143424375E+01 -0.29286331513E+02 -0.25599117439E+02  0.40044059974E+02  0.00000000000E+00 0.  1.
<mgrwt>
<rscale>  0 0.95555890E+02</rscale>
<asrwt>0</asrwt>
<pdfrwt beam="1">  1        3 0.94405783E-02 0.95555890E+02</pdfrwt>
<pdfrwt beam="2">  1       -3 0.57230774E-02 0.95555890E+02</pdfrwt>
<totfact> 0.30592768E+04</totfact>
</mgrwt>
</event>
<event>
 5    1  0.6027538E+000  0.9172745E+02  0.7546771E-02  0.1298722E+00
         -1   -1    0    0    0  501 -0.00000000000E+00  0.00000000000E+00  0.97220211631E+02  0.97220211631E+02  0.00000000000E+00 0.  1.
          1   -1    0    0  501    0  0.00000000000E+00 -0.00000000000E+00 -0.21636256590E+02  0.21636256590E+02  0.00000000000E+00 0. -1.
         23    2    1    2    0    0  0.00000000000E+00  0.00000000000E+00  0.75583955041E+02  0.11885646822E+03  0.91727453787E+02 0.  0.
        -13    1    3    3    0    0 -0.26493546857E+02  0.86654166789E+01  0.84984640731E+02  0.89439290200E+02  0.00000000000E+00 0.  1.
         13    1    3    3    0    0  0.26493546857E+02 -0.86654166789E+01 -0.94006856898E+01  0.29417178021E+02  0.00000000000E+00 0. -1.
<mgrwt>
<rscale>  0 0.91727454E+02</rscale>
<asrwt>0</asrwt>
<pdfrwt beam="2">  1        1 0.33286549E-02 0.91727454E+02</pdfrwt>
<pdfrwt beam="1">  1       -1 0.14956955E-01 0.91727454E+02</pdfrwt>
<totfact> 0.80536510E+04</totfact>
</mgrwt>
</event>
<event>
 5    1  0.6027538E+000  0.8774769E+02  0.7546771E-02  0.1308399E+00
         -2   -1    0    0    0  501 -0.00000000000E+00  0.00000000000E+00  0.17427997442E+02  0.17427997442E+02  0.00000000000E+00 0.  1.
          2   -1    0    0  501    0  0.00000000000E+00 -0.00000000000E+00 -0.11044953451E+03  0.11044953451E+03  0.00000000000E+00 0. -1.
         23    2    1    2    0    0  0.00000000000E+00  0.00000000000E+00 -0.93021537068E+02  0.12787753195E+03  0.87747688401E+02 0.  0.
        -13    1    3    3    0    0  0.38792059528E+02  0.71812199322E+01 -0.74487007565E+02  0.84289430525E+02  0.00000000000E+00 0.  1.
         13    1    3    3    0    0 -0.38792059528E+02 -0.71812199322E+01 -0.18534529502E+02  0.43588101427E+02  0.00000000000E+00 0. -1.
<mgrwt>
<rscale>  0 0.87747688E+02</rscale>
<asrwt>0</asrwt>
<pdfrwt beam="2">  1        2 0.16992236E-01 0.87747688E+02</pdfrwt>
<pdfrwt beam="1">  1       -2 0.26812304E-02 0.87747688E+02</pdfrwt>
<totfact> 0.14046959E+05</totfact>
</mgrwt>
</event>
<event>
 5    1  0.6027538E+000  0.9342516E+02  0.7546771E-02  0.1294763E+00
          2   -1    0    0  501    0  0.00000000000E+00  0.00000000000E+00  0.73098473581E+02  0.73098473581E+02  0.00000000000E+00 0. -1.
         -2   -1    0    0    0  501 -0.00000000000E+00 -0.00000000000E+00 -0.29851038113E+02  0.29851038113E+02  0.00000000000E+00 0.  1.
         23    2    1    2    0    0  0.00000000000E+00  0.00000000000E+00  0.43247435468E+02  0.10294951169E+03  0.93425164080E+02 0.  0.
        -13    1    3    3    0    0  0.41737457833E+02  0.17277214230E+02  0.85134370990E+01  0.45967337634E+02  0.00000000000E+00 0.  1.
         13    1    3    3    0    0 -0.41737457833E+02 -0.17277214230E+02  0.34733998369E+02  0.56982174060E+02  0.00000000000E+00 0. -1.
<mgrwt>
<rscale>  0 0.93425164E+02</rscale>
<asrwt>0</asrwt>
<pdfrwt beam="1">  1        2 0.11245919E-01 0.93425164E+02</pdfrwt>
<pdfrwt beam="2">  1       -2 0.45924674E-02 0.93425164E+02</pdfrwt>
<totfact> 0.10458001E+05</totfact>
</mgrwt>
</event>
<event>
 5    1  0.6027538E+000  0.9180942E+02  0.7546771E-02  0.1298528E+00
         -1   -1    0    0    0  501 -0.00000000000E+00  0.00000000000E+00  0.34955214714E+02  0.34955214714E+02  0.00000000000E+00 0.  1.
          1   -1    0    0  501    0  0.00000000000E+00 -0.00000000000E+00 -0.60284066892E+02  0.60284066892E+02  0.00000000000E+00 0. -1.
         23    2    1    2    0    0  0.00000000000E+00  0.00000000000E+00 -0.25328852178E+02  0.95239281606E+02  0.91809422219E+02 0.  0.
        -13    1    3    3    0    0 -0.21057013543E+02  0.13311811246E+02 -0.52661831194E+02  0.58256936091E+02  0.00000000000E+00 0. -1.
         13    1    3    3    0    0  0.21057013543E+02 -0.13311811246E+02  0.27332979015E+02  0.36982345516E+02  0.00000000000E+00 0.  1.
<mgrwt>
<rscale>  0 0.91809422E+02</rscale>
<asrwt>0</asrwt>
<pdfrwt beam="2">  1        1 0.92744718E-02 0.91809422E+02</pdfrwt>
<pdfrwt beam="1">  1       -1 0.53777254E-02 0.91809422E+02</pdfrwt>
<totfact> 0.94605871E+04</totfact>
</mgrwt>
</event>
<event>
 5    1  0.6027538E+000  0.9193022E+02  0.7546771E-02  0.1298244E+00
          1   -1    0    0  501    0  0.00000000000E+00  0.00000000000E+00  0.14373722167E+03  0.14373722167E+03  0.00000000000E+00 0. -1.
         -1   -1    0    0    0  501 -0.00000000000E+00 -0.00000000000E+00 -0.14698984250E+02  0.14698984250E+02  0.00000000000E+00 0.  1.
         23    2    1    2    0    0  0.00000000000E+00  0.00000000000E+00  0.12903823742E+03  0.15843620592E+03  0.91930216087E+02 0.  0.
        -13    1    3    3    0    0  0.12135770487E+02 -0.39173762799E+02  0.28742459031E+02  0.50079831951E+02  0.00000000000E+00 0.  1.
         13    1    3    3    0    0 -0.12135770487E+02  0.39173762799E+02  0.10029577838E+03  0.10835637397E+03  0.00000000000E+00 0. -1.
<mgrwt>
<rscale>  0 0.91930216E+02</rscale>
<asrwt>0</asrwt>
<pdfrwt beam="1">  1        1 0.22113418E-01 0.91930216E+02</pdfrwt>
<pdfrwt beam="2">  1       -1 0.22613823E-02 0.91930216E+02</pdfrwt>
<totfact> 0.10881265E+05</totfact>
</mgrwt>
</event>
<event>
 5    1  0.6027538E+000  0.8962329E+02  0.7546771E-02  0.1303767E+00
         -2   -1    0    0    0  501 -0.00000000000E+00  0.00000000000E+00  0.31219832367E+02  0.31219832367E+02  0.00000000000E+00 0.  1.
          2   -1    0    0  501    0  0.00000000000E+00 -0.00000000000E+00 -0.64320760735E+02  0.64320760735E+02  0.00000000000E+00 0. -1.
         23    2    1    2    0    0  0.00000000000E+00  0.00000000000E+00 -0.33100928368E+02  0.95540593102E+02  0.89623286435E+02 0.  0.
        -13    1    3    3    0    0  0.43684903150E+02  0.96123836110E+01 -0.19433598739E+02  0.48769185372E+02  0.00000000000E+00 0.  1.
         13    1    3    3    0    0 -0.43684903150E+02 -0.96123836110E+01 -0.13667329629E+02  0.46771407730E+02  0.00000000000E+00 0. -1.
<mgrwt>
<rscale>  0 0.89623286E+02</rscale>
<asrwt>0</asrwt>
<pdfrwt beam="2">  1        2 0.98955016E-02 0.89623286E+02</pdfrwt>
<pdfrwt beam="1">  1       -2 0.48030511E-02 0.89623286E+02</pdfrwt>
<totfact> 0.11341525E+05</totfact>
</mgrwt>
</event>
<event>
 5    1  0.6027538E+000  0.9126119E+02  0.7546771E-02  0.1299826E+00
          2   -1    0    0  501    0  0.00000000000E+00  0.00000000000E+00  0.98272956207E+02  0.98272956207E+02  0.00000000000E+00 0. -1.
         -2   -1    0    0    0  501 -0.00000000000E+00 -0.00000000000E+00 -0.21187428838E+02  0.21187428838E+02  0.00000000000E+00 0.  1.
         23    2    1    2    0    0  0.00000000000E+00  0.00000000000E+00  0.77085527369E+02  0.11946038504E+03  0.91261191453E+02 0.  0.
        -13    1    3    3    0    0 -0.25428323449E+02  0.13540400600E+02  0.84863581482E+02  0.89620140280E+02  0.00000000000E+00 0. -1.
         13    1    3    3    0    0  0.25428323449E+02 -0.13540400600E+02 -0.77780541128E+01  0.29840244765E+02  0.00000000000E+00 0.  1.
<mgrwt>
<rscale>  0 0.91261191E+02</rscale>
<asrwt>0</asrwt>
<pdfrwt beam="1">  1        2 0.15118916E-01 0.91261191E+02</pdfrwt>
<pdfrwt beam="2">  1       -2 0.32596045E-02 0.91261191E+02</pdfrwt>
<totfact> 0.12171791E+05</totfact>
</mgrwt>
</event>
<event>
 5    1  0.6027538E+000  0.9012975E+02  0.7546771E-02  0.1302538E+00
         -1   -1    0    0    0  501 -0.00000000000E+00  0.00000000000E+00  0.10337059455E+02  0.10337059455E+02  0.00000000000E+00 0.  1.
          1   -1    0    0  501    0  0.00000000000E+00 -0.00000000000E+00 -0.19646235150E+03  0.19646235150E+03  0.00000000000E+00 0. -1.
         23    2    1    2    0    0  0.00000000000E+00  0.00000000000E+00 -0.18612529204E+03  0.20679941095E+03  0.90129751093E+02 0.  0.
        -13    1    3    3    0    0  0.43809828394E+02 -0.10544616104E+02 -0.91699388483E+02  0.10217273531E+03  0.00000000000E+00 0.  1.
         13    1    3    3    0    0 -0.43809828394E+02  0.10544616104E+02 -0.94425903561E+02  0.10462667564E+03  0.00000000000E+00 0. -1.
<mgrwt>
<rscale>  0 0.90129751E+02</rscale>
<asrwt>0</asrwt>
<pdfrwt beam="2">  1        1 0.30224975E-01 0.90129751E+02</pdfrwt>
<pdfrwt beam="1">  1       -1 0.15903169E-02 0.90129751E+02</pdfrwt>
<totfact> 0.12170635E+05</totfact>
</mgrwt>
</event>
<event>
 5    1  0.6027538E+000  0.8935114E+02  0.7546771E-02  0.1304431E+00
          1   -1    0    0  501    0  0.00000000000E+00  0.00000000000E+00  0.17318250241E+02  0.17318250241E+02  0.00000000000E+00 0. -1.
         -1   -1    0    0    0  501 -0.00000000000E+00 -0.00000000000E+00 -0.11524873447E+03  0.11524873447E+03  0.00000000000E+00 0.  1.
         23    2    1    2    0    0  0.00000000000E+00  0.00000000000E+00 -0.97930484230E+02  0.13256698471E+03  0.89351137060E+02 0.  0.
        -13    1    3    3    0    0 -0.12918472535E+02  0.23640648915E+02  0.39110454899E+01  0.27222481345E+02  0.00000000000E+00 0. -1.
         13    1    3    3    0    0  0.12918472535E+02 -0.23640648915E+02 -0.10184152972E+03  0.10534450337E+03  0.00000000000E+00 0.  1.
<mgrwt>
<rscale>  0 0.89351137E+02</rscale>
<asrwt>0</asrwt>
<pdfrwt beam="1">  1        1 0.26643463E-02 0.89351137E+02</pdfrwt>
<pdfrwt beam="2">  1       -1 0.17730574E-01 0.89351137E+02</pdfrwt>
<totfact> 0.83416181E+04</totfact>
</mgrwt>
</event>
<event>
 5    1  0.6027538E+000  0.9112179E+02  0.7546771E-02  0.1300158E+00
         -1   -1    0    0    0  501 -0.00000000000E+00  0.00000000000E+00  0.14854045691E+02  0.14854045691E+02  0.00000000000E+00 0.  1.
          1   -1    0    0  501    0  0.00000000000E+00 -0.00000000000E+00 -0.13974610952E+03  0.13974610952E+03  0.00000000000E+00 0. -1.
         23    2    1    2    0    0  0.00000000000E+00  0.00000000000E+00 -0.12489206383E+03  0.15460015521E+03  0.91121788744E+02 0.  0.
        -13    1    3    3    0    0  0.42247196044E+02 -0.78211817784E+00 -0.33535608797E+02  0.53945104874E+02  0.00000000000E+00 0.  1.
         13    1    3    3    0    0 -0.42247196044E+02  0.78211817784E+00 -0.91356455033E+02  0.10065505034E+03  0.00000000000E+00 0. -1.
<mgrwt>
<rscale>  0 0.91121789E+02</rscale>
<asrwt>0</asrwt>
<pdfrwt beam="2">  1        1 0.21499402E-01 0.91121789E+02</pdfrwt>
<pdfrwt beam="1">  1       -1 0.22852378E-02 0.91121789E+02</pdfrwt>
<totfact> 0.11087461E+05</totfact>
</mgrwt>
</event>
<event>
 5    1  0.6027538E+000  0.9078541E+02  0.7546771E-02  0.1300961E+00
          4   -1    0    0  501    0  0.00000000000E+00  0.00000000000E+00  0.16907400224E+03  0.16907400224E+03  0.00000000000E+00 0. -1.
         -4   -1    0    0    0  501 -0.00000000000E+00 -0.00000000000E+00 -0.12186958096E+02  0.12186958096E+02  0.00000000000E+00 0.  1.
         23    2    1    2    0    0  0.00000000000E+00  0.00000000000E+00  0.15688704415E+03  0.18126096034E+03  0.90785412495E+02 0.  0.
        -13    1    3    3    0    0 -0.71755201677E+01 -0.33871922912E+02  0.13705286995E+03  0.14135870830E+03  0.00000000000E+00 0. -1.
         13    1    3    3    0    0  0.71755201677E+01  0.33871922912E+02  0.19834174196E+02  0.39902252035E+02  0.00000000000E+00 0.  1.
<mgrwt>
<rscale>  0 0.90785412E+02</rscale>
<asrwt>0</asrwt>
<pdfrwt beam="1">  1        4 0.26011383E-01 0.90785412E+02</pdfrwt>
<pdfrwt beam="2">  1       -4 0.18749168E-02 0.90785412E+02</pdfrwt>
<totfact> 0.22452289E+04</totfact>
</mgrwt>
</event>
<event>
 5    1  0.6027538E+000  0.9386467E+02  0.7546771E-02  0.1293754E+00
         -1   -1    0    0    0  501 -0.00000000000E+00  0.00000000000E+00  0.13459815448E+03  0.13459815448E+03  0.00000000000E+00 0.  1.
          1   -1    0    0  501    0  0.00000000000E+00 -0.00000000000E+00 -0.16364594045E+02  0.16364594045E+02  0.00000000000E+00 0. -1.
         23    2    1    2    0    0  0.00000000000E+00  0.00000000000E+00  0.11823356043E+03  0.15096274852E+03  0.93864671890E+02 0.  0.
        -13    1    3    3    0    0  0.47877230244E+01 -0.45243727454E+02  0.77645578490E+02  0.89993072093E+02  0.00000000000E+00 0.  1.
         13    1    3    3    0    0 -0.47877230244E+01  0.45243727454E+02  0.40587981940E+02  0.60969676428E+02  0.00000000000E+00 0. -1.
<mgrwt>
<rscale>  0 0.93864672E+02</rscale>
<asrwt>0</asrwt>
<pdfrwt beam="2">  1        1 0.25176300E-02 0.93864672E+02</pdfrwt>
<pdfrwt beam="1">  1       -1 0.20707408E-01 0.93864672E+02</pdfrwt>
<totfact> 0.71079862E+04</totfact>
</mgrwt>
</event>
<event>
 5    1  0.6027538E+000  0.9039303E+02  0.7546771E-02  0.1301903E+00
          2   -1    0    0  501    0  0.00000000000E+00  0.00000000000E+00  0.45211211191E+02  0.45211211191E+02  0.00000000000E+00 0. -1.
         -2   -1    0    0    0  501 -0.00000000000E+00 -0.00000000000E+00 -0.45181820036E+02  0.45181820036E+02  0.00000000000E+00 0.  1.
         23    2    1    2    0    0  0.00000000000E+00  0.00000000000E+00  0.29391155537E-01  0.90393031227E+02  0.90393026449E+02 0.  0.
        -13    1    3    3    0    0  0.38934728103E+02  0.22120248814E+02 -0.61095473601E+01  0.45194524326E+02  0.00000000000E+00 0.  1.
         13    1    3    3    0    0 -0.38934728103E+02 -0.22120248814E+02  0.61389385156E+01  0.45198506902E+02  0.00000000000E+00 0. -1.
<mgrwt>
<rscale>  0 0.90393026E+02</rscale>
<asrwt>0</asrwt>
<pdfrwt beam="1">  1        2 0.69555710E-02 0.90393026E+02</pdfrwt>
<pdfrwt beam="2">  1       -2 0.69510492E-02 0.90393026E+02</pdfrwt>
<totfact> 0.10092978E+05</totfact>
</mgrwt>
</event>
<event>
 5    1  0.6027538E+000  0.8920862E+02  0.7546771E-02  0.1304780E+00
          2   -1    0    0  501    0  0.00000000000E+00  0.00000000000E+00  0.75903729372E+02  0.75903729372E+02  0.00000000000E+00 0. -1.
         -2   -1    0    0    0  501 -0.00000000000E+00 -0.00000000000E+00 -0.26211416437E+02  0.26211416437E+02  0.00000000000E+00 0.  1.
         23    2    1    2    0    0  0.00000000000E+00  0.00000000000E+00  0.49692312935E+02  0.10211514581E+03  0.89208615272E+02 0.  0.
        -13    1    3    3    0    0  0.42265300483E+02  0.52466569614E+00  0.85404850814E+01  0.43122740920E+02  0.00000000000E+00 0.  1.
         13    1    3    3    0    0 -0.42265300483E+02 -0.52466569614E+00  0.41151827853E+02  0.58992404890E+02  0.00000000000E+00 0. -1.
<mgrwt>
<rscale>  0 0.89208615E+02</rscale>
<asrwt>0</asrwt>
<pdfrwt beam="1">  1        2 0.11677497E-01 0.89208615E+02</pdfrwt>
<pdfrwt beam="2">  1       -2 0.40325256E-02 0.89208615E+02</pdfrwt>
<totfact> 0.12022779E+05</totfact>
</mgrwt>
</event>
<event>
 5    1  0.6027538E+000  0.1010891E+03  0.7546771E-02  0.1278022E+00
          1   -1    0    0  501    0  0.00000000000E+00  0.00000000000E+00  0.24153509149E+03  0.24153509149E+03  0.00000000000E+00 0. -1.
         -1   -1    0    0    0  501 -0.00000000000E+00 -0.00000000000E+00 -0.10577144410E+02  0.10577144410E+02  0.00000000000E+00 0.  1.
         23    2    1    2    0    0  0.00000000000E+00  0.00000000000E+00  0.23095794708E+03  0.25211223590E+03  0.10108910016E+03 0.  0.
        -13    1    3    3    0    0 -0.32784231961E+02  0.31225092001E+02  0.17152040026E+03  0.17739520834E+03  0.00000000000E+00 0.  1.
         13    1    3    3    0    0  0.32784231961E+02 -0.31225092001E+02  0.59437546814E+02  0.74717027557E+02  0.00000000000E+00 0. -1.
<mgrwt>
<rscale>  0 0.10108910E+03</rscale>
<asrwt>0</asrwt>
<pdfrwt beam="1">  1        1 0.37159241E-01 0.10108910E+03</pdfrwt>
<pdfrwt beam="2">  1       -1 0.16272532E-02 0.10108910E+03</pdfrwt>
<totfact> 0.93071569E+04</totfact>
</mgrwt>
</event>
<event>
 5    1  0.6027538E+000  0.9028574E+02  0.7546771E-02  0.1302161E+00
          3   -1    0    0  501    0  0.00000000000E+00  0.00000000000E+00  0.32184635513E+02  0.32184635513E+02  0.00000000000E+00 0.  1.
         -3   -1    0    0    0  501 -0.00000000000E+00 -0.00000000000E+00 -0.63318370101E+02  0.63318370101E+02  0.00000000000E+00 0. -1.
         23    2    1    2    0    0  0.00000000000E+00  0.00000000000E+00 -0.31133734588E+02  0.95503005614E+02  0.90285738918E+02 0.  0.
        -13    1    3    3    0    0  0.44966768694E+01 -0.26902492483E+02  0.22482782663E+02  0.35347414629E+02  0.00000000000E+00 0.  1.
         13    1    3    3    0    0 -0.44966768694E+01  0.26902492483E+02 -0.53616517252E+02  0.60155590986E+02  0.00000000000E+00 0. -1.
<mgrwt>
<rscale>  0 0.90285739E+02</rscale>
<asrwt>0</asrwt>
<pdfrwt beam="1">  1        3 0.49514825E-02 0.90285739E+02</pdfrwt>
<pdfrwt beam="2">  1       -3 0.97412876E-02 0.90285739E+02</pdfrwt>
<totfact> 0.35956292E+04</totfact>
</mgrwt>
</event>
<event>
 5    1  0.6027538E+000  0.9119753E+02  0.7546771E-02  0.1299977E+00
         -1   -1    0    0    0  501 -0.00000000000E+00  0.00000000000E+00  0.60717423459E+01  0.60717423459E+01  0.00000000000E+00 0.  1.
          1   -1    0    0  501    0  0.00000000000E+00 -0.00000000000E+00 -0.34244656115E+03  0.34244656115E+03  0.00000000000E+00 0. -1.
         23    2    1    2    0    0  0.00000000000E+00  0.00000000000E+00 -0.33637481880E+03  0.34851830350E+03  0.91197528180E+02 0.  0.
        -13    1    3    3    0    0 -0.37642068095E+02 -0.20932551749E+02 -0.22540270688E+03  0.22948088653E+03  0.00000000000E+00 0. -1.
         13    1    3    3    0    0  0.37642068095E+02  0.20932551749E+02 -0.11097211192E+03  0.11903741696E+03  0.00000000000E+00 0.  1.
<mgrwt>
<rscale>  0 0.91197528E+02</rscale>
<asrwt>0</asrwt>
<pdfrwt beam="2">  1        1 0.52684089E-01 0.91197528E+02</pdfrwt>
<pdfrwt beam="1">  1       -1 0.93411415E-03 0.91197528E+02</pdfrwt>
<totfact> 0.13123755E+05</totfact>
</mgrwt>
</event>
<event>
 5    1  0.6027538E+000  0.9092687E+02  0.7546771E-02  0.1300623E+00
         -2   -1    0    0    0  501 -0.00000000000E+00  0.00000000000E+00  0.46338393147E+01  0.46338393147E+01  0.00000000000E+00 0.  1.
          2   -1    0    0  501    0  0.00000000000E+00 -0.00000000000E+00 -0.44604993859E+03  0.44604993859E+03  0.00000000000E+00 0. -1.
         23    2    1    2    0    0  0.00000000000E+00  0.00000000000E+00 -0.44141609928E+03  0.45068377791E+03  0.90926866036E+02 0.  0.
        -13    1    3    3    0    0  0.42882855809E+02  0.14277762250E+02 -0.19636036400E+03  0.20149487926E+03  0.00000000000E+00 0.  1.
         13    1    3    3    0    0 -0.42882855809E+02 -0.14277762250E+02 -0.24505573528E+03  0.24918889865E+03  0.00000000000E+00 0. -1.
<mgrwt>
<rscale>  0 0.90926866E+02</rscale>
<asrwt>0</asrwt>
<pdfrwt beam="2">  1        2 0.68623066E-01 0.90926866E+02</pdfrwt>
<pdfrwt beam="1">  1       -2 0.71289837E-03 0.90926866E+02</pdfrwt>
<totfact> 0.20892596E+05</totfact>
</mgrwt>
</event>
<event>
 5    1  0.6027538E+000  0.8858038E+02  0.7546771E-02  0.1306326E+00
          1   -1    0    0  501    0  0.00000000000E+00  0.00000000000E+00  0.48180620375E+02  0.48180620375E+02  0.00000000000E+00 0. -1.
         -1   -1    0    0    0  501 -0.00000000000E+00 -0.00000000000E+00 -0.40713903703E+02  0.40713903703E+02  0.00000000000E+00 0.  1.
         23    2    1    2    0    0  0.00000000000E+00  0.00000000000E+00  0.74667166723E+01  0.88894524077E+02  0.88580384697E+02 0.  0.
        -13    1    3    3    0    0  0.40628420364E+02  0.15430369562E+02  0.12299218486E+02  0.45166753497E+02  0.00000000000E+00 0. -1.
         13    1    3    3    0    0 -0.40628420364E+02 -0.15430369562E+02 -0.48325018134E+01  0.43727770580E+02  0.00000000000E+00 0.  1.
<mgrwt>
<rscale>  0 0.88580385E+02</rscale>
<asrwt>0</asrwt>
<pdfrwt beam="1">  1        1 0.74124031E-02 0.88580385E+02</pdfrwt>
<pdfrwt beam="2">  1       -1 0.62636775E-02 0.88580385E+02</pdfrwt>
<totfact> 0.10107356E+05</totfact>
</mgrwt>
</event>
<event>
 5    1  0.6027538E+000  0.9649307E+02  0.7546771E-02  0.1287848E+00
          3   -1    0    0  501    0  0.00000000000E+00  0.00000000000E+00  0.81149560841E+02  0.81149560841E+02  0.00000000000E+00 0. -1.
         -3   -1    0    0    0  501 -0.00000000000E+00 -0.00000000000E+00 -0.28684420905E+02  0.28684420905E+02  0.00000000000E+00 0.  1.
         23    2    1    2    0    0  0.00000000000E+00  0.00000000000E+00  0.52465139936E+02  0.10983398175E+03  0.96493070413E+02 0.  0.
        -13    1    3    3    0    0 -0.47583345580E+02  0.48380861467E+01  0.33444697429E+02  0.58362056512E+02  0.00000000000E+00 0.  1.
         13    1    3    3    0    0  0.47583345580E+02 -0.48380861467E+01  0.19020442506E+02  0.51471925234E+02  0.00000000000E+00 0. -1.
<mgrwt>
<rscale>  0 0.96493070E+02</rscale>
<asrwt>0</asrwt>
<pdfrwt beam="1">  1        3 0.12484548E-01 0.96493070E+02</pdfrwt>
<pdfrwt beam="2">  1       -3 0.44129879E-02 0.96493070E+02</pdfrwt>
<totfact> 0.29086970E+04</totfact>
</mgrwt>
</event>
<event>
 5    1  0.6027538E+000  0.9172315E+02  0.7546771E-02  0.1298732E+00
         -1   -1    0    0    0  501 -0.00000000000E+00  0.00000000000E+00  0.31389472129E+02  0.31389472129E+02  0.00000000000E+00 0.  1.
          1   -1    0    0  501    0  0.00000000000E+00 -0.00000000000E+00 -0.67006032595E+02  0.67006032595E+02  0.00000000000E+00 0. -1.
         23    2    1    2    0    0  0.00000000000E+00  0.00000000000E+00 -0.35616560466E+02  0.98395504724E+02  0.91723148498E+02 0.  0.
        -13    1    3    3    0    0  0.22377011708E+02  0.29856663231E+02 -0.46415240988E+02  0.59552712686E+02  0.00000000000E+00 0. -1.
         13    1    3    3    0    0 -0.22377011708E+02 -0.29856663231E+02  0.10798680522E+02  0.38842792038E+02  0.00000000000E+00 0.  1.
<mgrwt>
<rscale>  0 0.91723148E+02</rscale>
<asrwt>0</asrwt>
<pdfrwt beam="2">  1        1 0.10308620E-01 0.91723148E+02</pdfrwt>
<pdfrwt beam="1">  1       -1 0.48291496E-02 0.91723148E+02</pdfrwt>
<totfact> 0.96399479E+04</totfact>
</mgrwt>
</event>
<event>
 5    1  0.6027538E+000  0.8023359E+02  0.7546771E-02  0.1328390E+00
          1   -1    0    0  501    0  0.00000000000E+00  0.00000000000E+00  0.28377226727E+03  0.28377226727E+03  0.00000000000E+00 0. -1.
         -1   -1    0    0    0  501 -0.00000000000E+00 -0.00000000000E+00 -0.56712982319E+01  0.56712982319E+01  0.00000000000E+00 0.  1.
         23    2    1    2    0    0  0.00000000000E+00  0.00000000000E+00  0.27810096904E+03  0.28944356550E+03  0.80233587920E+02 0.  0.
        -13    1    3    3    0    0 -0.15999202389E+02  0.35150638675E+02  0.99893566838E+02  0.10709933040E+03  0.00000000000E+00 0.  1.
         13    1    3    3    0    0  0.15999202389E+02 -0.35150638675E+02  0.17820740220E+03  0.18234423510E+03  0.00000000000E+00 0. -1.
<mgrwt>
<rscale>  0 0.80233588E+02</rscale>
<asrwt>0</asrwt>
<pdfrwt beam="1">  1        1 0.43657261E-01 0.80233588E+02</pdfrwt>
<pdfrwt beam="2">  1       -1 0.87250764E-03 0.80233588E+02</pdfrwt>
<totfact> 0.17783526E+05</totfact>
</mgrwt>
</event>
<event>
 5    1  0.6027538E+000  0.6609852E+02  0.7546771E-02  0.1373886E+00
         -4   -1    0    0    0  501 -0.00000000000E+00  0.00000000000E+00  0.23873998906E+03  0.23873998906E+03  0.00000000000E+00 0.  1.
          4   -1    0    0  501    0  0.00000000000E+00 -0.00000000000E+00 -0.45750755885E+01  0.45750755885E+01  0.00000000000E+00 0. -1.
         23    2    1    2    0    0  0.00000000000E+00  0.00000000000E+00  0.23416491348E+03  0.24331506465E+03  0.66098517259E+02 0.  0.
        -13    1    3    3    0    0 -0.19325996989E+02  0.24647904142E+02  0.15590715412E+03  0.15902218098E+03  0.00000000000E+00 0.  1.
         13    1    3    3    0    0  0.19325996989E+02 -0.24647904142E+02  0.78257759352E+02  0.84292883668E+02  0.00000000000E+00 0. -1.
<mgrwt>
<rscale>  0 0.66098517E+02</rscale>
<asrwt>0</asrwt>
<pdfrwt beam="2">  1        4 0.70385797E-03 0.66098517E+02</pdfrwt>
<pdfrwt beam="1">  1       -4 0.36729219E-01 0.66098517E+02</pdfrwt>
<totfact> 0.45547429E+04</totfact>
</mgrwt>
</event>
<event>
 5    1  0.6027538E+000  0.9296777E+02  0.7546771E-02  0.1295820E+00
         -1   -1    0    0    0  501 -0.00000000000E+00  0.00000000000E+00  0.11369581869E+02  0.11369581869E+02  0.00000000000E+00 0.  1.
          1   -1    0    0  501    0  0.00000000000E+00 -0.00000000000E+00 -0.19004668999E+03  0.19004668999E+03  0.00000000000E+00 0. -1.
         23    2    1    2    0    0  0.00000000000E+00  0.00000000000E+00 -0.17867710812E+03  0.20141627185E+03  0.92967766472E+02 0.  0.
        -13    1    3    3    0    0  0.40381222062E+02  0.22399159625E+02 -0.10088142658E+03  0.11094786017E+03  0.00000000000E+00 0. -1.
         13    1    3    3    0    0 -0.40381222062E+02 -0.22399159625E+02 -0.77795681535E+02  0.90468411684E+02  0.00000000000E+00 0.  1.
<mgrwt>
<rscale>  0 0.92967766E+02</rscale>
<asrwt>0</asrwt>
<pdfrwt beam="2">  1        1 0.29237951E-01 0.92967766E+02</pdfrwt>
<pdfrwt beam="1">  1       -1 0.17491665E-02 0.92967766E+02</pdfrwt>
<totfact> 0.11126719E+05</totfact>
</mgrwt>
</event>
<event>
 5    1  0.6027538E+000  0.9152488E+02  0.7546771E-02  0.1299200E+00
         -1   -1    0    0    0  501 -0.00000000000E+00  0.00000000000E+00  0.21292530885E+02  0.21292530885E+02  0.00000000000E+00 0.  1.
          1   -1    0    0  501    0  0.00000000000E+00 -0.00000000000E+00 -0.98353789136E+02  0.98353789136E+02  0.00000000000E+00 0. -1.
         23    2    1    2    0    0  0.00000000000E+00  0.00000000000E+00 -0.77061258251E+02  0.11964632002E+03  0.91524883891E+02 0.  0.
        -13    1    3    3    0    0 -0.40907412695E+02 -0.17354910253E+02 -0.24234752060E+02  0.50615536456E+02  0.00000000000E+00 0.  1.
         13    1    3    3    0    0  0.40907412695E+02  0.17354910253E+02 -0.52826506191E+02  0.69030783565E+02  0.00000000000E+00 0. -1.
<mgrwt>
<rscale>  0 0.91524884E+02</rscale>
<asrwt>0</asrwt>
<pdfrwt beam="2">  1        1 0.15131352E-01 0.91524884E+02</pdfrwt>
<pdfrwt beam="1">  1       -1 0.32757740E-02 0.91524884E+02</pdfrwt>
<totfact> 0.10308636E+05</totfact>
</mgrwt>
</event>
<event>
 5    1  0.6027538E+000  0.9134238E+02  0.7546771E-02  0.1299633E+00
         -1   -1    0    0    0  501 -0.00000000000E+00  0.00000000000E+00  0.23590977129E+02  0.23590977129E+02  0.00000000000E+00 0.  1.
          1   -1    0    0  501    0  0.00000000000E+00 -0.00000000000E+00 -0.88417608358E+02  0.88417608358E+02  0.00000000000E+00 0. -1.
         23    2    1    2    0    0  0.00000000000E+00  0.00000000000E+00 -0.64826631230E+02  0.11200858549E+03  0.91342383953E+02 0.  0.
        -13    1    3    3    0    0  0.58385902011E+01 -0.40078934159E+02 -0.58294093178E+02  0.70983176869E+02  0.00000000000E+00 0. -1.
         13    1    3    3    0    0 -0.58385902011E+01  0.40078934159E+02 -0.65325380512E+01  0.41025408618E+02  0.00000000000E+00 0.  1.
<mgrwt>
<rscale>  0 0.91342384E+02</rscale>
<asrwt>0</asrwt>
<pdfrwt beam="2">  1        1 0.13602709E-01 0.91342384E+02</pdfrwt>
<pdfrwt beam="1">  1       -1 0.36293811E-02 0.91342384E+02</pdfrwt>
<totfact> 0.10185873E+05</totfact>
</mgrwt>
</event>
<event>
 5    1  0.6027538E+000  0.9088171E+02  0.7546771E-02  0.1300730E+00
          1   -1    0    0  501    0  0.00000000000E+00  0.00000000000E+00  0.35105329205E+02  0.35105329205E+02  0.00000000000E+00 0. -1.
         -1   -1    0    0    0  501 -0.00000000000E+00 -0.00000000000E+00 -0.58819317756E+02  0.58819317756E+02  0.00000000000E+00 0.  1.
         23    2    1    2    0    0  0.00000000000E+00  0.00000000000E+00 -0.23713988551E+02  0.93924646961E+02  0.90881714628E+02 0.  0.
        -13    1    3    3    0    0  0.33071374731E+02 -0.28832157582E+02 -0.24079310338E+02  0.50048200006E+02  0.00000000000E+00 0.  1.
         13    1    3    3    0    0 -0.33071374731E+02  0.28832157582E+02  0.36532178694E+00  0.43876446956E+02  0.00000000000E+00 0. -1.
<mgrwt>
<rscale>  0 0.90881715E+02</rscale>
<asrwt>0</asrwt>
<pdfrwt beam="1">  1        1 0.54008199E-02 0.90881715E+02</pdfrwt>
<pdfrwt beam="2">  1       -1 0.90491257E-02 0.90881715E+02</pdfrwt>
<totfact> 0.89688578E+04</totfact>
</mgrwt>
</event>
<event>
 5    1  0.6027538E+000  0.9129110E+02  0.7546771E-02  0.1299755E+00
         -1   -1    0    0    0  501 -0.00000000000E+00  0.00000000000E+00  0.63489619513E+02  0.63489619513E+02  0.00000000000E+00 0.  1.
          1   -1    0    0  501    0  0.00000000000E+00 -0.00000000000E+00 -0.32816640948E+02  0.32816640948E+02  0.00000000000E+00 0. -1.
         23    2    1    2    0    0  0.00000000000E+00  0.00000000000E+00  0.30672978565E+02  0.96306260461E+02  0.91291095896E+02 0.  0.
        -13    1    3    3    0    0 -0.45369706199E+02 -0.26918229264E+01  0.19794751054E+02  0.49573060431E+02  0.00000000000E+00 0.  1.
         13    1    3    3    0    0  0.45369706199E+02  0.26918229264E+01  0.10878227511E+02  0.46733200029E+02  0.00000000000E+00 0. -1.
<mgrwt>
<rscale>  0 0.91291096E+02</rscale>
<asrwt>0</asrwt>
<pdfrwt beam="2">  1        1 0.50487140E-02 0.91291096E+02</pdfrwt>
<pdfrwt beam="1">  1       -1 0.97676338E-02 0.91291096E+02</pdfrwt>
<totfact> 0.87618928E+04</totfact>
</mgrwt>
</event>
<event>
 5    1  0.6027538E+000  0.9149819E+02  0.7546771E-02  0.1299264E+00
          2   -1    0    0  501    0  0.00000000000E+00  0.00000000000E+00  0.96976828482E+01  0.96976828482E+01  0.00000000000E+00 0. -1.
         -2   -1    0    0    0  501 -0.00000000000E+00 -0.00000000000E+00 -0.21582263974E+03  0.21582263974E+03  0.00000000000E+00 0.  1.
         23    2    1    2    0    0  0.00000000000E+00  0.00000000000E+00 -0.20612495689E+03  0.22552032259E+03  0.91498186030E+02 0.  0.
        -13    1    3    3    0    0 -0.29267514993E+02  0.27950443145E+02 -0.50478004087E+02  0.64698095818E+02  0.00000000000E+00 0. -1.
         13    1    3    3    0    0  0.29267514993E+02 -0.27950443145E+02 -0.15564695281E+03  0.16082222677E+03  0.00000000000E+00 0.  1.
<mgrwt>
<rscale>  0 0.91498186E+02</rscale>
<asrwt>0</asrwt>
<pdfrwt beam="1">  1        2 0.14919513E-02 0.91498186E+02</pdfrwt>
<pdfrwt beam="2">  1       -2 0.33203482E-01 0.91498186E+02</pdfrwt>
<totfact> 0.59709782E+04</totfact>
</mgrwt>
</event>
<event>
 5    1  0.6027538E+000  0.9217748E+02  0.7546771E-02  0.1297663E+00
         -1   -1    0    0    0  501 -0.00000000000E+00  0.00000000000E+00  0.61076277899E+01  0.61076277899E+01  0.00000000000E+00 0.  1.
          1   -1    0    0  501    0  0.00000000000E+00 -0.00000000000E+00 -0.34779004887E+03  0.34779004887E+03  0.00000000000E+00 0. -1.
         23    2    1    2    0    0  0.00000000000E+00  0.00000000000E+00 -0.34168242108E+03  0.35389767666E+03  0.92177484615E+02 0.  0.
        -13    1    3    3    0    0 -0.44397913114E+02 -0.64440230856E+01 -0.21137673938E+03  0.21608522872E+03  0.00000000000E+00 0. -1.
         13    1    3    3    0    0  0.44397913114E+02  0.64440230856E+01 -0.13030568170E+03  0.13781244794E+03  0.00000000000E+00 0.  1.
<mgrwt>
<rscale>  0 0.92177485E+02</rscale>
<asrwt>0</asrwt>
<pdfrwt beam="2">  1        1 0.53506159E-01 0.92177485E+02</pdfrwt>
<pdfrwt beam="1">  1       -1 0.93963508E-03 0.92177485E+02</pdfrwt>
<totfact> 0.12791166E+05</totfact>
</mgrwt>
</event>
<event>
 5    1  0.6027538E+000  0.9603304E+02  0.7546771E-02  0.1288866E+00
         -1   -1    0    0    0  501 -0.00000000000E+00  0.00000000000E+00  0.17924322567E+02  0.17924322567E+02  0.00000000000E+00 0.  1.
          1   -1    0    0  501    0  0.00000000000E+00 -0.00000000000E+00 -0.12862891481E+03  0.12862891481E+03  0.00000000000E+00 0. -1.
         23    2    1    2    0    0  0.00000000000E+00  0.00000000000E+00 -0.11070459224E+03  0.14655323738E+03  0.96033039325E+02 0.  0.
        -13    1    3    3    0    0  0.47430199238E+02  0.73446875949E+01 -0.57520136165E+02  0.74914179566E+02  0.00000000000E+00 0. -1.
         13    1    3    3    0    0 -0.47430199238E+02 -0.73446875949E+01 -0.53184456080E+02  0.71639057812E+02  0.00000000000E+00 0.  1.
<mgrwt>
<rscale>  0 0.96033039E+02</rscale>
<asrwt>0</asrwt>
<pdfrwt beam="2">  1        1 0.19789064E-01 0.96033039E+02</pdfrwt>
<pdfrwt beam="1">  1       -1 0.27575881E-02 0.96033039E+02</pdfrwt>
<totfact> 0.94714637E+04</totfact>
</mgrwt>
</event>
<event>
 5    1  0.6027538E+000  0.9170398E+02  0.7546771E-02  0.1298777E+00
          1   -1    0    0  501    0  0.00000000000E+00  0.00000000000E+00  0.70027287030E+01  0.70027287030E+01  0.00000000000E+00 0. -1.
         -1   -1    0    0    0  501 -0.00000000000E+00 -0.00000000000E+00 -0.30022652532E+03  0.30022652532E+03  0.00000000000E+00 0.  1.
         23    2    1    2    0    0  0.00000000000E+00  0.00000000000E+00 -0.29322379661E+03  0.30722925402E+03  0.91703978240E+02 0.  0.
        -13    1    3    3    0    0  0.35623642380E+02 -0.15494203538E+02 -0.22821527842E+03  0.23149800764E+03  0.00000000000E+00 0.  1.
         13    1    3    3    0    0 -0.35623642380E+02  0.15494203538E+02 -0.65008518197E+02  0.75731246377E+02  0.00000000000E+00 0. -1.
<mgrwt>
<rscale>  0 0.91703978E+02</rscale>
<asrwt>0</asrwt>
<pdfrwt beam="1">  1        1 0.10773430E-02 0.91703978E+02</pdfrwt>
<pdfrwt beam="2">  1       -1 0.46188689E-01 0.91703978E+02</pdfrwt>
<totfact> 0.59661251E+04</totfact>
</mgrwt>
</event>
<event>
 5    1  0.6027538E+000  0.9115381E+02  0.7546771E-02  0.1300081E+00
         -2   -1    0    0    0  501 -0.00000000000E+00  0.00000000000E+00  0.11011909112E+02  0.11011909112E+02  0.00000000000E+00 0.  1.
          2   -1    0    0  501    0  0.00000000000E+00 -0.00000000000E+00 -0.18863709015E+03  0.18863709015E+03  0.00000000000E+00 0. -1.
         23    2    1    2    0    0  0.00000000000E+00  0.00000000000E+00 -0.17762518103E+03  0.19964899926E+03  0.91153814880E+02 0.  0.
        -13    1    3    3    0    0  0.10495527640E+02 -0.35863592637E+02 -0.31660211749E+02  0.48976753519E+02  0.00000000000E+00 0.  1.
         13    1    3    3    0    0 -0.10495527640E+02  0.35863592637E+02 -0.14596496929E+03  0.15067224574E+03  0.00000000000E+00 0. -1.
<mgrwt>
<rscale>  0 0.91153815E+02</rscale>
<asrwt>0</asrwt>
<pdfrwt beam="2">  1        2 0.29021090E-01 0.91153815E+02</pdfrwt>
<pdfrwt beam="1">  1       -2 0.16941399E-02 0.91153815E+02</pdfrwt>
<totfact> 0.15156043E+05</totfact>
</mgrwt>
</event>
<event>
 5    1  0.6027538E+000  0.9422144E+02  0.7546771E-02  0.1292939E+00
          3   -1    0    0  501    0  0.00000000000E+00  0.00000000000E+00  0.51404373301E+02  0.51404373301E+02  0.00000000000E+00 0. -1.
         -3   -1    0    0    0  501 -0.00000000000E+00 -0.00000000000E+00 -0.43175701949E+02  0.43175701949E+02  0.00000000000E+00 0.  1.
         23    2    1    2    0    0  0.00000000000E+00  0.00000000000E+00  0.82286713522E+01  0.94580075251E+02  0.94221439186E+02 0.  0.
        -13    1    3    3    0    0 -0.90045324186E+01 -0.24785758087E+02  0.43301428465E+02  0.50699399554E+02  0.00000000000E+00 0. -1.
         13    1    3    3    0    0  0.90045324186E+01  0.24785758087E+02 -0.35072757113E+02  0.43880675696E+02  0.00000000000E+00 0.  1.
<mgrwt>
<rscale>  0 0.94221439E+02</rscale>
<asrwt>0</asrwt>
<pdfrwt beam="1">  1        3 0.79083651E-02 0.94221439E+02</pdfrwt>
<pdfrwt beam="2">  1       -3 0.66424157E-02 0.94221439E+02</pdfrwt>
<totfact> 0.32066635E+04</totfact>
</mgrwt>
</event>
<event>
 5    1  0.6027538E+000  0.8958261E+02  0.7546771E-02  0.1303866E+00
          3   -1    0    0  501    0  0.00000000000E+00  0.00000000000E+00  0.44997555803E+02  0.44997555803E+02  0.00000000000E+00 0. -1.
         -3   -1    0    0    0  501 -0.00000000000E+00 -0.00000000000E+00 -0.44585997757E+02  0.44585997757E+02  0.00000000000E+00 0.  1.
         23    2    1    2    0    0  0.00000000000E+00  0.00000000000E+00  0.41155804601E+00  0.89583553561E+02  0.89582608181E+02 0.  0.
        -13    1    3    3    0    0  0.15912049456E+02  0.41588952841E+02  0.50459340108E+01  0.44814013058E+02  0.00000000000E+00 0. -1.
         13    1    3    3    0    0 -0.15912049456E+02 -0.41588952841E+02 -0.46343759648E+01  0.44769540503E+02  0.00000000000E+00 0.  1.
<mgrwt>
<rscale>  0 0.89582608E+02</rscale>
<asrwt>0</asrwt>
<pdfrwt beam="1">  1        3 0.69227009E-02 0.89582608E+02</pdfrwt>
<pdfrwt beam="2">  1       -3 0.68593843E-02 0.89582608E+02</pdfrwt>
<totfact> 0.37203646E+04</totfact>
</mgrwt>
</event>
<event>
 5    1  0.6027538E+000  0.8999446E+02  0.7546771E-02  0.1302865E+00
          1   -1    0    0  501    0  0.00000000000E+00  0.00000000000E+00  0.39971012794E+03  0.39971012794E+03  0.00000000000E+00 0. -1.
         -1   -1    0    0    0  501 -0.00000000000E+00 -0.00000000000E+00 -0.50655477393E+01  0.50655477393E+01  0.00000000000E+00 0.  1.
         23    2    1    2    0    0  0.00000000000E+00  0.00000000000E+00  0.39464458020E+03  0.40477567568E+03  0.89994460607E+02 0.  0.
        -13    1    3    3    0    0 -0.39697688880E+02 -0.19010635462E+02  0.15526380434E+03  0.16138203029E+03  0.00000000000E+00 0.  1.
         13    1    3    3    0    0  0.39697688880E+02  0.19010635462E+02  0.23938077587E+03  0.24339364539E+03  0.00000000000E+00 0. -1.
<mgrwt>
<rscale>  0 0.89994461E+02</rscale>
<asrwt>0</asrwt>
<pdfrwt beam="1">  1        1 0.61493841E-01 0.89994461E+02</pdfrwt>
<pdfrwt beam="2">  1       -1 0.77931535E-03 0.89994461E+02</pdfrwt>
<totfact> 0.13962718E+05</totfact>
</mgrwt>
</event>
<event>
 5    1  0.6027538E+000  0.9042251E+02  0.7546771E-02  0.1301832E+00
          3   -1    0    0  501    0  0.00000000000E+00  0.00000000000E+00  0.14225966465E+02  0.14225966465E+02  0.00000000000E+00 0. -1.
         -3   -1    0    0    0  501 -0.00000000000E+00 -0.00000000000E+00 -0.14368498322E+03  0.14368498322E+03  0.00000000000E+00 0.  1.
         23    2    1    2    0    0  0.00000000000E+00  0.00000000000E+00 -0.12945901676E+03  0.15791094969E+03  0.90422513853E+02 0.  0.
        -13    1    3    3    0    0 -0.27201221999E+02 -0.29303616423E+02 -0.27871248474E+02  0.48738228376E+02  0.00000000000E+00 0. -1.
         13    1    3    3    0    0  0.27201221999E+02  0.29303616423E+02 -0.10158776828E+03  0.10917272131E+03  0.00000000000E+00 0.  1.
<mgrwt>
<rscale>  0 0.90422514E+02</rscale>
<asrwt>0</asrwt>
<pdfrwt beam="1">  1        3 0.21886103E-02 0.90422514E+02</pdfrwt>
<pdfrwt beam="2">  1       -3 0.22105381E-01 0.90422514E+02</pdfrwt>
<totfact> 0.31530743E+04</totfact>
</mgrwt>
</event>
<event>
 5    1  0.6027538E+000  0.9102753E+02  0.7546771E-02  0.1300382E+00
         -2   -1    0    0    0  501 -0.00000000000E+00  0.00000000000E+00  0.63335681079E+01  0.63335681079E+01  0.00000000000E+00 0.  1.
          2   -1    0    0  501    0  0.00000000000E+00 -0.00000000000E+00 -0.32706727180E+03  0.32706727180E+03  0.00000000000E+00 0. -1.
         23    2    1    2    0    0  0.00000000000E+00  0.00000000000E+00 -0.32073370369E+03  0.33340083991E+03  0.91027530820E+02 0.  0.
        -13    1    3    3    0    0  0.45438444036E+02 -0.14686492980E+00 -0.15079546429E+03  0.15749268496E+03  0.00000000000E+00 0.  1.
         13    1    3    3    0    0 -0.45438444036E+02  0.14686492980E+00 -0.16993823941E+03  0.17590815495E+03  0.00000000000E+00 0. -1.
<mgrwt>
<rscale>  0 0.91027531E+02</rscale>
<asrwt>0</asrwt>
<pdfrwt beam="2">  1        2 0.50318048E-01 0.91027531E+02</pdfrwt>
<pdfrwt beam="1">  1       -2 0.97439497E-03 0.91027531E+02</pdfrwt>
<totfact> 0.18632588E+05</totfact>
</mgrwt>
</event>
<event>
 5    1  0.6027538E+000  0.8529075E+02  0.7546771E-02  0.1314674E+00
          1   -1    0    0  501    0  0.00000000000E+00  0.00000000000E+00  0.99431800781E+02  0.99431800781E+02  0.00000000000E+00 0. -1.
         -1   -1    0    0    0  501 -0.00000000000E+00 -0.00000000000E+00 -0.18290206032E+02  0.18290206032E+02  0.00000000000E+00 0.  1.
         23    2    1    2    0    0  0.00000000000E+00  0.00000000000E+00  0.81141594749E+02  0.11772200681E+03  0.85290752661E+02 0.  0.
        -13    1    3    3    0    0 -0.12047003922E+02  0.19561869339E+02  0.90160375994E+02  0.93041337237E+02  0.00000000000E+00 0. -1.
         13    1    3    3    0    0  0.12047003922E+02 -0.19561869339E+02 -0.90187812444E+01  0.24680669575E+02  0.00000000000E+00 0.  1.
<mgrwt>
<rscale>  0 0.85290753E+02</rscale>
<asrwt>0</asrwt>
<pdfrwt beam="1">  1        1 0.15297200E-01 0.85290753E+02</pdfrwt>
<pdfrwt beam="2">  1       -1 0.28138779E-02 0.85290753E+02</pdfrwt>
<totfact> 0.12506167E+05</totfact>
</mgrwt>
</event>
<event>
 5    1  0.6027538E+000  0.9396089E+02  0.7546771E-02  0.1293534E+00
          2   -1    0    0  501    0  0.00000000000E+00  0.00000000000E+00  0.69896751521E+02  0.69896751521E+02  0.00000000000E+00 0. -1.
         -2   -1    0    0    0  501 -0.00000000000E+00 -0.00000000000E+00 -0.31577467265E+02  0.31577467265E+02  0.00000000000E+00 0.  1.
         23    2    1    2    0    0  0.00000000000E+00  0.00000000000E+00  0.38319284256E+02  0.10147421879E+03  0.93960893633E+02 0.  0.
        -13    1    3    3    0    0  0.36859244183E+01  0.43807691930E+02  0.12680057468E+01  0.43980765678E+02  0.00000000000E+00 0.  1.
         13    1    3    3    0    0 -0.36859244183E+01 -0.43807691930E+02  0.37051278510E+02  0.57493453108E+02  0.00000000000E+00 0. -1.
<mgrwt>
<rscale>  0 0.93960894E+02</rscale>
<asrwt>0</asrwt>
<pdfrwt beam="1">  1        2 0.10753346E-01 0.93960894E+02</pdfrwt>
<pdfrwt beam="2">  1       -2 0.48580719E-02 0.93960894E+02</pdfrwt>
<totfact> 0.10162032E+05</totfact>
</mgrwt>
</event>
<event>
 5    1  0.6027538E+000  0.9684170E+02  0.7546771E-02  0.1287081E+00
          4   -1    0    0  501    0  0.00000000000E+00  0.00000000000E+00  0.10783228024E+03  0.10783228024E+03  0.00000000000E+00 0. -1.
         -4   -1    0    0    0  501 -0.00000000000E+00 -0.00000000000E+00 -0.21742828817E+02  0.21742828817E+02  0.00000000000E+00 0.  1.
         23    2    1    2    0    0  0.00000000000E+00  0.00000000000E+00  0.86089451424E+02  0.12957510906E+03  0.96841701972E+02 0.  0.
        -13    1    3    3    0    0 -0.19413515850E+02  0.40426184908E+02  0.18613033336E+02  0.48555185448E+02  0.00000000000E+00 0.  1.
         13    1    3    3    0    0  0.19413515850E+02 -0.40426184908E+02  0.67476418088E+02  0.81019923610E+02  0.00000000000E+00 0. -1.
<mgrwt>
<rscale>  0 0.96841702E+02</rscale>
<asrwt>0</asrwt>
<pdfrwt beam="1">  1        4 0.16589581E-01 0.96841702E+02</pdfrwt>
<pdfrwt beam="2">  1       -4 0.33450506E-02 0.96841702E+02</pdfrwt>
<totfact> 0.21007687E+04</totfact>
</mgrwt>
</event>
<event>
 5    1  0.6027538E+000  0.9124114E+02  0.7546771E-02  0.1299874E+00
         -2   -1    0    0    0  501 -0.00000000000E+00  0.00000000000E+00  0.12066679481E+02  0.12066679481E+02  0.00000000000E+00 0.  1.
          2   -1    0    0  501    0  0.00000000000E+00 -0.00000000000E+00 -0.17247797283E+03  0.17247797283E+03  0.00000000000E+00 0. -1.
         23    2    1    2    0    0  0.00000000000E+00  0.00000000000E+00 -0.16041129335E+03  0.18454465231E+03  0.91241140187E+02 0.  0.
        -13    1    3    3    0    0  0.20115901238E+00 -0.27216011209E+02 -0.15425848164E+03  0.15664108940E+03  0.00000000000E+00 0. -1.
         13    1    3    3    0    0 -0.20115901238E+00  0.27216011209E+02 -0.61528117086E+01  0.27903562909E+02  0.00000000000E+00 0.  1.
<mgrwt>
<rscale>  0 0.91241140E+02</rscale>
<asrwt>0</asrwt>
<pdfrwt beam="2">  1        2 0.26535072E-01 0.91241140E+02</pdfrwt>
<pdfrwt beam="1">  1       -2 0.18564123E-02 0.91241140E+02</pdfrwt>
<totfact> 0.14644054E+05</totfact>
</mgrwt>
</event>
<event>
 5    1  0.6027538E+000  0.9125119E+02  0.7546771E-02  0.1299850E+00
          1   -1    0    0  501    0  0.00000000000E+00  0.00000000000E+00  0.13821653268E+03  0.13821653268E+03  0.00000000000E+00 0. -1.
         -1   -1    0    0    0  501 -0.00000000000E+00 -0.00000000000E+00 -0.15061113426E+02  0.15061113426E+02  0.00000000000E+00 0.  1.
         23    2    1    2    0    0  0.00000000000E+00  0.00000000000E+00  0.12315541925E+03  0.15327764610E+03  0.91251189056E+02 0.  0.
        -13    1    3    3    0    0  0.38858459039E+02 -0.37735201626E+00  0.10173607316E+03  0.10890523778E+03  0.00000000000E+00 0. -1.
         13    1    3    3    0    0 -0.38858459039E+02  0.37735201626E+00  0.21419346085E+02  0.44372408320E+02  0.00000000000E+00 0.  1.
<mgrwt>
<rscale>  0 0.91251189E+02</rscale>
<asrwt>0</asrwt>
<pdfrwt beam="1">  1        1 0.21264081E-01 0.91251189E+02</pdfrwt>
<pdfrwt beam="2">  1       -1 0.23170945E-02 0.91251189E+02</pdfrwt>
<totfact> 0.11023035E+05</totfact>
</mgrwt>
</event>
<event>
 5    1  0.6027538E+000  0.9208234E+02  0.7546771E-02  0.1297886E+00
         -1   -1    0    0    0  501 -0.00000000000E+00  0.00000000000E+00  0.28267261890E+02  0.28267261890E+02  0.00000000000E+00 0.  1.
          1   -1    0    0  501    0  0.00000000000E+00 -0.00000000000E+00 -0.74990967507E+02  0.74990967507E+02  0.00000000000E+00 0. -1.
         23    2    1    2    0    0  0.00000000000E+00  0.00000000000E+00 -0.46723705617E+02  0.10325822940E+03  0.92082339628E+02 0.  0.
        -13    1    3    3    0    0  0.31235879529E+02 -0.23333459214E+02 -0.50821847228E+02  0.64054591127E+02  0.00000000000E+00 0. -1.
         13    1    3    3    0    0 -0.31235879529E+02  0.23333459214E+02  0.40981416107E+01  0.39203638269E+02  0.00000000000E+00 0.  1.
<mgrwt>
<rscale>  0 0.92082340E+02</rscale>
<asrwt>0</asrwt>
<pdfrwt beam="2">  1        1 0.11537072E-01 0.92082340E+02</pdfrwt>
<pdfrwt beam="1">  1       -1 0.43488096E-02 0.92082340E+02</pdfrwt>
<totfact> 0.97048125E+04</totfact>
</mgrwt>
</event>
<event>
 5    1  0.6027538E+000  0.1151828E+03  0.7546771E-02  0.1251262E+00
         -2   -1    0    0    0  501 -0.00000000000E+00  0.00000000000E+00  0.12615245259E+02  0.12615245259E+02  0.00000000000E+00 0.  1.
          2   -1    0    0  501    0  0.00000000000E+00 -0.00000000000E+00 -0.26291746562E+03  0.26291746562E+03  0.00000000000E+00 0. -1.
         23    2    1    2    0    0  0.00000000000E+00  0.00000000000E+00 -0.25030222036E+03  0.27553271087E+03  0.11518278190E+03 0.  0.
        -13    1    3    3    0    0 -0.14823102633E+02  0.41939368727E+02 -0.37645622528E+02  0.58273732645E+02  0.00000000000E+00 0.  1.
         13    1    3    3    0    0  0.14823102633E+02 -0.41939368727E+02 -0.21265659783E+03  0.21725897823E+03  0.00000000000E+00 0. -1.
<mgrwt>
<rscale>  0 0.11518278E+03</rscale>
<asrwt>0</asrwt>
<pdfrwt beam="2">  1        2 0.40448837E-01 0.11518278E+03</pdfrwt>
<pdfrwt beam="1">  1       -2 0.19408072E-02 0.11518278E+03</pdfrwt>
<totfact> 0.90724024E+04</totfact>
</mgrwt>
</event>
<event>
 5    1  0.6027538E+000  0.9221116E+02  0.7546771E-02  0.1297584E+00
          3   -1    0    0  501    0  0.00000000000E+00  0.00000000000E+00  0.16033519408E+03  0.16033519408E+03  0.00000000000E+00 0. -1.
         -3   -1    0    0    0  501 -0.00000000000E+00 -0.00000000000E+00 -0.13258003727E+02  0.13258003727E+02  0.00000000000E+00 0.  1.
         23    2    1    2    0    0  0.00000000000E+00  0.00000000000E+00  0.14707719035E+03  0.17359319780E+03  0.92211162029E+02 0.  0.
        -13    1    3    3    0    0  0.30619621655E+02  0.15418033360E+02  0.13157671058E+03  0.13596951037E+03  0.00000000000E+00 0. -1.
         13    1    3    3    0    0 -0.30619621655E+02 -0.15418033360E+02  0.15500479766E+02  0.37623687432E+02  0.00000000000E+00 0.  1.
<mgrwt>
<rscale>  0 0.92211162E+02</rscale>
<asrwt>0</asrwt>
<pdfrwt beam="1">  1        3 0.24666952E-01 0.92211162E+02</pdfrwt>
<pdfrwt beam="2">  1       -3 0.20396930E-02 0.92211162E+02</pdfrwt>
<totfact> 0.29022492E+04</totfact>
</mgrwt>
</event>
<event>
 5    1  0.6027538E+000  0.1087225E+03  0.7546771E-02  0.1262954E+00
         -1   -1    0    0    0  501 -0.00000000000E+00  0.00000000000E+00  0.32312880528E+02  0.32312880528E+02  0.00000000000E+00 0.  1.
          1   -1    0    0  501    0  0.00000000000E+00 -0.00000000000E+00 -0.91454049585E+02  0.91454049585E+02  0.00000000000E+00 0. -1.
         23    2    1    2    0    0  0.00000000000E+00  0.00000000000E+00 -0.59141169057E+02  0.12376693011E+03  0.10872246830E+03 0.  0.
        -13    1    3    3    0    0  0.22681969573E+02 -0.35220175558E+02 -0.69008519387E+02  0.80728608671E+02  0.00000000000E+00 0. -1.
         13    1    3    3    0    0 -0.22681969573E+02  0.35220175558E+02  0.98673503297E+01  0.43038321442E+02  0.00000000000E+00 0.  1.
<mgrwt>
<rscale>  0 0.10872247E+03</rscale>
<asrwt>0</asrwt>
<pdfrwt beam="2">  1        1 0.14069854E-01 0.10872247E+03</pdfrwt>
<pdfrwt beam="1">  1       -1 0.49712124E-02 0.10872247E+03</pdfrwt>
<totfact> 0.63242712E+04</totfact>
</mgrwt>
</event>
<event>
 5    1  0.6027538E+000  0.9200429E+02  0.7546771E-02  0.1298069E+00
         -1   -1    0    0    0  501 -0.00000000000E+00  0.00000000000E+00  0.82298713192E+02  0.82298713192E+02  0.00000000000E+00 0.  1.
          1   -1    0    0  501    0  0.00000000000E+00 -0.00000000000E+00 -0.25713611525E+02  0.25713611525E+02  0.00000000000E+00 0. -1.
         23    2    1    2    0    0  0.00000000000E+00  0.00000000000E+00  0.56585101668E+02  0.10801232472E+03  0.92004285552E+02 0.  0.
        -13    1    3    3    0    0  0.14159244719E+02 -0.40083355011E+02  0.48930707426E+02  0.64818004360E+02  0.00000000000E+00 0.  1.
         13    1    3    3    0    0 -0.14159244719E+02  0.40083355011E+02  0.76543942417E+01  0.43194320357E+02  0.00000000000E+00 0. -1.
<mgrwt>
<rscale>  0 0.92004286E+02</rscale>
<asrwt>0</asrwt>
<pdfrwt beam="2">  1        1 0.39559403E-02 0.92004286E+02</pdfrwt>
<pdfrwt beam="1">  1       -1 0.12661340E-01 0.92004286E+02</pdfrwt>
<totfact> 0.82314357E+04</totfact>
</mgrwt>
</event>
<event>
 5    1  0.6027538E+000  0.9201918E+02  0.7546771E-02  0.1298034E+00
          1   -1    0    0  501    0  0.00000000000E+00  0.00000000000E+00  0.66137302450E+02  0.66137302450E+02  0.00000000000E+00 0. -1.
         -1   -1    0    0    0  501 -0.00000000000E+00 -0.00000000000E+00 -0.32007391252E+02  0.32007391252E+02  0.00000000000E+00 0.  1.
         23    2    1    2    0    0  0.00000000000E+00  0.00000000000E+00  0.34129911198E+02  0.98144693702E+02  0.92019183128E+02 0.  0.
        -13    1    3    3    0    0  0.34097609372E+02  0.27373263674E+00 -0.15880778949E+02  0.37615436120E+02  0.00000000000E+00 0.  1.
         13    1    3    3    0    0 -0.34097609372E+02 -0.27373263674E+00  0.50010690147E+02  0.60529257582E+02  0.00000000000E+00 0. -1.
<mgrwt>
<rscale>  0 0.92019183E+02</rscale>
<asrwt>0</asrwt>
<pdfrwt beam="1">  1        1 0.10174970E-01 0.92019183E+02</pdfrwt>
<pdfrwt beam="2">  1       -1 0.49242141E-02 0.92019183E+02</pdfrwt>
<totfact> 0.95351507E+04</totfact>
</mgrwt>
</event>
<event>
 5    1  0.6027538E+000  0.8740427E+02  0.7546771E-02  0.1309262E+00
          2   -1    0    0  501    0  0.00000000000E+00  0.00000000000E+00  0.20337784786E+03  0.20337784786E+03  0.00000000000E+00 0. -1.
         -2   -1    0    0    0  501 -0.00000000000E+00 -0.00000000000E+00 -0.93907798408E+01  0.93907798408E+01  0.00000000000E+00 0.  1.
         23    2    1    2    0    0  0.00000000000E+00  0.00000000000E+00  0.19398706802E+03  0.21276862770E+03  0.87404269775E+02 0.  0.
        -13    1    3    3    0    0  0.33742123742E+02 -0.27042030023E+02  0.81583348406E+02  0.92334419581E+02  0.00000000000E+00 0. -1.
         13    1    3    3    0    0 -0.33742123742E+02  0.27042030023E+02  0.11240371961E+03  0.12043420812E+03  0.00000000000E+00 0.  1.
<mgrwt>
<rscale>  0 0.87404270E+02</rscale>
<asrwt>0</asrwt>
<pdfrwt beam="1">  1        2 0.31288896E-01 0.87404270E+02</pdfrwt>
<pdfrwt beam="2">  1       -2 0.14447355E-02 0.87404270E+02</pdfrwt>
<totfact> 0.17430100E+05</totfact>
</mgrwt>
</event>
<event>
 5    1  0.6027538E+000  0.9126917E+02  0.7546771E-02  0.1299807E+00
          2   -1    0    0  501    0  0.00000000000E+00  0.00000000000E+00  0.18112732812E+03  0.18112732812E+03  0.00000000000E+00 0. -1.
         -2   -1    0    0    0  501 -0.00000000000E+00 -0.00000000000E+00 -0.11497520507E+02  0.11497520507E+02  0.00000000000E+00 0.  1.
         23    2    1    2    0    0  0.00000000000E+00  0.00000000000E+00  0.16962980762E+03  0.19262484863E+03  0.91269166084E+02 0.  0.
        -13    1    3    3    0    0  0.35434662256E+02 -0.27873671624E+02  0.99732268221E+02  0.10944899352E+03  0.00000000000E+00 0. -1.
         13    1    3    3    0    0 -0.35434662256E+02  0.27873671624E+02  0.69897539394E+02  0.83175855104E+02  0.00000000000E+00 0.  1.
<mgrwt>
<rscale>  0 0.91269166E+02</rscale>
<asrwt>0</asrwt>
<pdfrwt beam="1">  1        2 0.27865741E-01 0.91269166E+02</pdfrwt>
<pdfrwt beam="2">  1       -2 0.17688494E-02 0.91269166E+02</pdfrwt>
<totfact> 0.14886967E+05</totfact>
</mgrwt>
</event>
<event>
 5    1  0.6027538E+000  0.1221225E+03  0.7546771E-02  0.1239636E+00
         -2   -1    0    0    0  501 -0.00000000000E+00  0.00000000000E+00  0.16669757019E+02  0.16669757019E+02  0.00000000000E+00 0.  1.
          2   -1    0    0  501    0  0.00000000000E+00 -0.00000000000E+00 -0.22366693618E+03  0.22366693618E+03  0.00000000000E+00 0. -1.
         23    2    1    2    0    0  0.00000000000E+00  0.00000000000E+00 -0.20699717916E+03  0.24033669320E+03  0.12212245460E+03 0.  0.
        -13    1    3    3    0    0 -0.43044338405E+02 -0.11253385504E+01 -0.18870156678E+03  0.19355196398E+03  0.00000000000E+00 0. -1.
         13    1    3    3    0    0  0.43044338405E+02  0.11253385504E+01 -0.18295612380E+02  0.46784729217E+02  0.00000000000E+00 0.  1.
<mgrwt>
<rscale>  0 0.12212245E+03</rscale>
<asrwt>0</asrwt>
<pdfrwt beam="2">  1        2 0.34410298E-01 0.12212245E+03</pdfrwt>
<pdfrwt beam="1">  1       -2 0.25645780E-02 0.12212245E+03</pdfrwt>
<totfact> 0.72461549E+04</totfact>
</mgrwt>
</event>
<event>
 5    1  0.6027538E+000  0.8720445E+02  0.7546771E-02  0.1309766E+00
          2   -1    0    0  501    0  0.00000000000E+00  0.00000000000E+00  0.13005304399E+02  0.13005304399E+02  0.00000000000E+00 0. -1.
         -2   -1    0    0    0  501 -0.00000000000E+00 -0.00000000000E+00 -0.14618296623E+03  0.14618296623E+03  0.00000000000E+00 0.  1.
         23    2    1    2    0    0  0.00000000000E+00  0.00000000000E+00 -0.13317766183E+03  0.15918827063E+03  0.87204448826E+02 0.  0.
        -13    1    3    3    0    0 -0.34278992409E+02  0.17518645467E+02 -0.29213594522E+02  0.48325835372E+02  0.00000000000E+00 0.  1.
         13    1    3    3    0    0  0.34278992409E+02 -0.17518645467E+02 -0.10396406731E+03  0.11086243525E+03  0.00000000000E+00 0. -1.
<mgrwt>
<rscale>  0 0.87204449E+02</rscale>
<asrwt>0</asrwt>
<pdfrwt beam="1">  1        2 0.20008161E-02 0.87204449E+02</pdfrwt>
<pdfrwt beam="2">  1       -2 0.22489687E-01 0.87204449E+02</pdfrwt>
<totfact> 0.78910349E+04</totfact>
</mgrwt>
</event>
<event>
 5    1  0.6027538E+000  0.9311898E+02  0.7546771E-02  0.1295470E+00
          1   -1    0    0  501    0  0.00000000000E+00  0.00000000000E+00  0.66945664553E+01  0.66945664553E+01  0.00000000000E+00 0. -1.
         -1   -1    0    0    0  501 -0.00000000000E+00 -0.00000000000E+00 -0.32381275107E+03  0.32381275107E+03  0.00000000000E+00 0.  1.
         23    2    1    2    0    0  0.00000000000E+00  0.00000000000E+00 -0.31711818461E+03  0.33050731752E+03  0.93118977252E+02 0.  0.
        -13    1    3    3    0    0  0.45484508032E+02 -0.58307933648E+01 -0.18716288551E+03  0.19269868794E+03  0.00000000000E+00 0. -1.
         13    1    3    3    0    0 -0.45484508032E+02  0.58307933648E+01 -0.12995529910E+03  0.13780862958E+03  0.00000000000E+00 0.  1.
<mgrwt>
<rscale>  0 0.93118977E+02</rscale>
<asrwt>0</asrwt>
<pdfrwt beam="1">  1        1 0.10299331E-02 0.93118977E+02</pdfrwt>
<pdfrwt beam="2">  1       -1 0.49817357E-01 0.93118977E+02</pdfrwt>
<totfact> 0.55578730E+04</totfact>
</mgrwt>
</event>
<event>
 5    1  0.6027538E+000  0.9134631E+02  0.7546771E-02  0.1299624E+00
          1   -1    0    0  501    0  0.00000000000E+00  0.00000000000E+00  0.40784518855E+02  0.40784518855E+02  0.00000000000E+00 0. -1.
         -1   -1    0    0    0  501 -0.00000000000E+00 -0.00000000000E+00 -0.51147768873E+02  0.51147768873E+02  0.00000000000E+00 0.  1.
         23    2    1    2    0    0  0.00000000000E+00  0.00000000000E+00 -0.10363250019E+02  0.91932287728E+02  0.91346311233E+02 0.  0.
        -13    1    3    3    0    0  0.14034038654E+02  0.43443847406E+02 -0.64996157352E+01  0.46114716990E+02  0.00000000000E+00 0. -1.
         13    1    3    3    0    0 -0.14034038654E+02 -0.43443847406E+02 -0.38636342836E+01  0.45817570737E+02  0.00000000000E+00 0.  1.
<mgrwt>
<rscale>  0 0.91346311E+02</rscale>
<asrwt>0</asrwt>
<pdfrwt beam="1">  1        1 0.62745414E-02 0.91346311E+02</pdfrwt>
<pdfrwt beam="2">  1       -1 0.78688875E-02 0.91346311E+02</pdfrwt>
<totfact> 0.90455597E+04</totfact>
</mgrwt>
</event>
<event>
 5    1  0.6027538E+000  0.9177228E+02  0.7546771E-02  0.1298616E+00
          3   -1    0    0  501    0  0.00000000000E+00  0.00000000000E+00  0.73447222570E+02  0.73447222570E+02  0.00000000000E+00 0. -1.
         -3   -1    0    0    0  501 -0.00000000000E+00 -0.00000000000E+00 -0.28667357153E+02  0.28667357153E+02  0.00000000000E+00 0.  1.
         23    2    1    2    0    0  0.00000000000E+00  0.00000000000E+00  0.44779865417E+02  0.10211457972E+03  0.91772278196E+02 0.  0.
        -13    1    3    3    0    0  0.78114717216E+01  0.25164290865E+02 -0.19410655597E+02  0.32726658489E+02  0.00000000000E+00 0.  1.
         13    1    3    3    0    0 -0.78114717216E+01 -0.25164290865E+02  0.64190521014E+02  0.69387921234E+02  0.00000000000E+00 0. -1.
<mgrwt>
<rscale>  0 0.91772278E+02</rscale>
<asrwt>0</asrwt>
<pdfrwt beam="1">  1        3 0.11299573E-01 0.91772278E+02</pdfrwt>
<pdfrwt beam="2">  1       -3 0.44103627E-02 0.91772278E+02</pdfrwt>
<totfact> 0.33907802E+04</totfact>
</mgrwt>
</event>
<event>
 5    1  0.6027538E+000  0.9558666E+02  0.7546771E-02  0.1289860E+00
         -2   -1    0    0    0  501 -0.00000000000E+00  0.00000000000E+00  0.78133474430E+02  0.78133474430E+02  0.00000000000E+00 0.  1.
          2   -1    0    0  501    0  0.00000000000E+00 -0.00000000000E+00 -0.29234621308E+02  0.29234621308E+02  0.00000000000E+00 0. -1.
         23    2    1    2    0    0  0.00000000000E+00  0.00000000000E+00  0.48898853122E+02  0.10736809574E+03  0.95586663012E+02 0.  0.
        -13    1    3    3    0    0 -0.17425414593E+02 -0.29423396543E+01  0.74328732846E+02  0.76400673838E+02  0.00000000000E+00 0.  1.
         13    1    3    3    0    0  0.17425414593E+02  0.29423396543E+01 -0.25429879724E+02  0.30967421900E+02  0.00000000000E+00 0. -1.
<mgrwt>
<rscale>  0 0.95586663E+02</rscale>
<asrwt>0</asrwt>
<pdfrwt beam="2">  1        2 0.44976341E-02 0.95586663E+02</pdfrwt>
<pdfrwt beam="1">  1       -2 0.12020534E-01 0.95586663E+02</pdfrwt>
<totfact> 0.76265820E+04</totfact>
</mgrwt>
</event>
<event>
 5    1  0.6027538E+000  0.9786918E+02  0.7546771E-02  0.1284842E+00
          1   -1    0    0  501    0  0.00000000000E+00  0.00000000000E+00  0.13900276989E+02  0.13900276989E+02  0.00000000000E+00 0. -1.
         -1   -1    0    0    0  501 -0.00000000000E+00 -0.00000000000E+00 -0.17226953151E+03  0.17226953151E+03  0.00000000000E+00 0.  1.
         23    2    1    2    0    0  0.00000000000E+00  0.00000000000E+00 -0.15836925452E+03  0.18616980850E+03  0.97869182172E+02 0.  0.
        -13    1    3    3    0    0 -0.15204511014E+02 -0.40362482778E+02 -0.35215220096E+02  0.55681405312E+02  0.00000000000E+00 0. -1.
         13    1    3    3    0    0  0.15204511014E+02  0.40362482778E+02 -0.12315403442E+03  0.13048840318E+03  0.00000000000E+00 0.  1.
<mgrwt>
<rscale>  0 0.97869182E+02</rscale>
<asrwt>0</asrwt>
<pdfrwt beam="1">  1        1 0.21385040E-02 0.97869182E+02</pdfrwt>
<pdfrwt beam="2">  1       -1 0.26503007E-01 0.97869182E+02</pdfrwt>
<totfact> 0.60102953E+04</totfact>
</mgrwt>
</event>
<event>
 5    1  0.6027538E+000  0.9649456E+02  0.7546771E-02  0.1287845E+00
         -1   -1    0    0    0  501 -0.00000000000E+00  0.00000000000E+00  0.48811138615E+02  0.48811138615E+02  0.00000000000E+00 0.  1.
          1   -1    0    0  501    0  0.00000000000E+00 -0.00000000000E+00 -0.47689936768E+02  0.47689936768E+02  0.00000000000E+00 0. -1.
         23    2    1    2    0    0  0.00000000000E+00  0.00000000000E+00  0.11212018470E+01  0.96501075384E+02  0.96494561798E+02 0.  0.
        -13    1    3    3    0    0  0.38901088599E+02 -0.28488862502E+02 -0.11395530372E+01  0.48230784381E+02  0.00000000000E+00 0.  1.
         13    1    3    3    0    0 -0.38901088599E+02  0.28488862502E+02  0.22607548842E+01  0.48270291003E+02  0.00000000000E+00 0. -1.
<mgrwt>
<rscale>  0 0.96494562E+02</rscale>
<asrwt>0</asrwt>
<pdfrwt beam="2">  1        1 0.73369133E-02 0.96494562E+02</pdfrwt>
<pdfrwt beam="1">  1       -1 0.75094060E-02 0.96494562E+02</pdfrwt>
<totfact> 0.79362730E+04</totfact>
</mgrwt>
</event>
<event>
 5    1  0.6027538E+000  0.8946175E+02  0.7546771E-02  0.1304160E+00
         -3   -1    0    0    0  501 -0.00000000000E+00  0.00000000000E+00  0.63832798089E+02  0.63832798089E+02  0.00000000000E+00 0.  1.
          3   -1    0    0  501    0  0.00000000000E+00 -0.00000000000E+00 -0.31345186941E+02  0.31345186941E+02  0.00000000000E+00 0. -1.
         23    2    1    2    0    0  0.00000000000E+00  0.00000000000E+00  0.32487611148E+02  0.95177985029E+02  0.89461745770E+02 0.  0.
        -13    1    3    3    0    0  0.35554329613E+02 -0.76306941002E+00 -0.12622071755E+02  0.37736048078E+02  0.00000000000E+00 0. -1.
         13    1    3    3    0    0 -0.35554329613E+02  0.76306941002E+00  0.45109682903E+02  0.57441936952E+02  0.00000000000E+00 0.  1.
<mgrwt>
<rscale>  0 0.89461746E+02</rscale>
<asrwt>0</asrwt>
<pdfrwt beam="2">  1        3 0.48223365E-02 0.89461746E+02</pdfrwt>
<pdfrwt beam="1">  1       -3 0.98204304E-02 0.89461746E+02</pdfrwt>
<totfact> 0.36888166E+04</totfact>
</mgrwt>
</event>
<event>
 4    1  0.6027538E+000  0.1621360E+03  0.7546771E-02  0.1186306E+00
          4   -1    0    0  501    0  0.00000000000E+00  0.00000000000E+00  0.37807401884E+03  0.37807401884E+03  0.00000000000E+00 0. -1.
         -4   -1    0    0    0  501 -0.00000000000E+00 -0.00000000000E+00 -0.17382897426E+02  0.17382897426E+02  0.00000000000E+00 0.  1.
        -13    1    1    2    0    0  0.15316603925E+02  0.78634778904E+02  0.15007830110E+03  0.17012208343E+03  0.00000000000E+00 0.  1.
         13    1    1    2    0    0 -0.15316603925E+02 -0.78634778904E+02  0.21061282031E+03  0.22533483283E+03  0.00000000000E+00 0. -1.
<mgrwt>
<rscale>  0 0.16213602E+03</rscale>
<asrwt>0</asrwt>
<pdfrwt beam="1">  1        4 0.58165228E-01 0.16213602E+03</pdfrwt>
<pdfrwt beam="2">  1       -4 0.26742922E-02 0.16213602E+03</pdfrwt>
<totfact> 0.31296448E+03</totfact>
</mgrwt>
</event>
<event>
 5    1  0.6027538E+000  0.9083565E+02  0.7546771E-02  0.1300841E+00
          2   -1    0    0  501    0  0.00000000000E+00  0.00000000000E+00  0.67037699177E+02  0.67037699177E+02  0.00000000000E+00 0. -1.
         -2   -1    0    0    0  501 -0.00000000000E+00 -0.00000000000E+00 -0.30770430452E+02  0.30770430452E+02  0.00000000000E+00 0.  1.
         23    2    1    2    0    0  0.00000000000E+00  0.00000000000E+00  0.36267268725E+02  0.97808129629E+02  0.90835650715E+02 0.  0.
        -13    1    3    3    0    0 -0.67918090691E+01  0.15472305730E+02 -0.27259884962E+02  0.32072141232E+02  0.00000000000E+00 0.  1.
         13    1    3    3    0    0  0.67918090691E+01 -0.15472305730E+02  0.63527153687E+02  0.65735988398E+02  0.00000000000E+00 0. -1.
<mgrwt>
<rscale>  0 0.90835651E+02</rscale>
<asrwt>0</asrwt>
<pdfrwt beam="1">  1        2 0.10313492E-01 0.90835651E+02</pdfrwt>
<pdfrwt beam="2">  1       -2 0.47339124E-02 0.90835651E+02</pdfrwt>
<totfact> 0.11046322E+05</totfact>
</mgrwt>
</event>
<event>
 5    1  0.6027538E+000  0.8323813E+02  0.7546771E-02  0.1320105E+00
          1   -1    0    0  501    0  0.00000000000E+00  0.00000000000E+00  0.16929275184E+02  0.16929275184E+02  0.00000000000E+00 0. -1.
         -1   -1    0    0    0  501 -0.00000000000E+00 -0.00000000000E+00 -0.10231663331E+03  0.10231663331E+03  0.00000000000E+00 0.  1.
         23    2    1    2    0    0  0.00000000000E+00  0.00000000000E+00 -0.85387358131E+02  0.11924590850E+03  0.83238126870E+02 0.  0.
        -13    1    3    3    0    0  0.25380692083E+02 -0.20262280977E+02 -0.54076623659E+01  0.32923887578E+02  0.00000000000E+00 0. -1.
         13    1    3    3    0    0 -0.25380692083E+02  0.20262280977E+02 -0.79979695765E+02  0.86322020919E+02  0.00000000000E+00 0.  1.
<mgrwt>
<rscale>  0 0.83238127E+02</rscale>
<asrwt>0</asrwt>
<pdfrwt beam="1">  1        1 0.26045038E-02 0.83238127E+02</pdfrwt>
<pdfrwt beam="2">  1       -1 0.15741021E-01 0.83238127E+02</pdfrwt>
<totfact> 0.10239811E+05</totfact>
</mgrwt>
</event>
<event>
 5    1  0.6027538E+000  0.9041410E+02  0.7546771E-02  0.1301852E+00
          4   -1    0    0  501    0  0.00000000000E+00  0.00000000000E+00  0.88211953947E+01  0.88211953947E+01  0.00000000000E+00 0. -1.
         -4   -1    0    0    0  501 -0.00000000000E+00 -0.00000000000E+00 -0.23167805658E+03  0.23167805658E+03  0.00000000000E+00 0.  1.
         23    2    1    2    0    0  0.00000000000E+00  0.00000000000E+00 -0.22285686118E+03  0.24049925197E+03  0.90414100797E+02 0.  0.
        -13    1    3    3    0    0  0.29011019109E+02 -0.32379948722E+02 -0.78464363519E+02  0.89703715929E+02  0.00000000000E+00 0. -1.
         13    1    3    3    0    0 -0.29011019109E+02  0.32379948722E+02 -0.14439249767E+03  0.15079553605E+03  0.00000000000E+00 0.  1.
<mgrwt>
<rscale>  0 0.90414101E+02</rscale>
<asrwt>0</asrwt>
<pdfrwt beam="1">  1        4 0.13571072E-02 0.90414101E+02</pdfrwt>
<pdfrwt beam="2">  1       -4 0.35642772E-01 0.90414101E+02</pdfrwt>
<totfact> 0.20253469E+04</totfact>
</mgrwt>
</event>
<event>
 5    1  0.6027538E+000  0.8971882E+02  0.7546771E-02  0.1303534E+00
         -1   -1    0    0    0  501 -0.00000000000E+00  0.00000000000E+00  0.15333854582E+02  0.15333854582E+02  0.00000000000E+00 0.  1.
          1   -1    0    0  501    0  0.00000000000E+00 -0.00000000000E+00 -0.13123683844E+03  0.13123683844E+03  0.00000000000E+00 0. -1.
         23    2    1    2    0    0  0.00000000000E+00  0.00000000000E+00 -0.11590298386E+03  0.14657069302E+03  0.89718818460E+02 0.  0.
        -13    1    3    3    0    0 -0.22354813132E+02 -0.32536376783E+02 -0.23141991254E+02  0.45759209385E+02  0.00000000000E+00 0. -1.
         13    1    3    3    0    0  0.22354813132E+02  0.32536376783E+02 -0.92760992605E+02  0.10081148364E+03  0.00000000000E+00 0.  1.
<mgrwt>
<rscale>  0 0.89718818E+02</rscale>
<asrwt>0</asrwt>
<pdfrwt beam="2">  1        1 0.20190284E-01 0.89718818E+02</pdfrwt>
<pdfrwt beam="1">  1       -1 0.23590545E-02 0.89718818E+02</pdfrwt>
<totfact> 0.11432349E+05</totfact>
</mgrwt>
</event>
<event>
 5    1  0.6027538E+000  0.9264332E+02  0.7546771E-02  0.1296574E+00
         -2   -1    0    0    0  501 -0.00000000000E+00  0.00000000000E+00  0.94423203385E+01  0.94423203385E+01  0.00000000000E+00 0.  1.
          2   -1    0    0  501    0  0.00000000000E+00 -0.00000000000E+00 -0.22724248664E+03  0.22724248664E+03  0.00000000000E+00 0. -1.
         23    2    1    2    0    0  0.00000000000E+00  0.00000000000E+00 -0.21780016630E+03  0.23668480698E+03  0.92643323631E+02 0.  0.
        -13    1    3    3    0    0 -0.75106187399E+01  0.35033706024E+02 -0.18390527837E+03  0.18736307364E+03  0.00000000000E+00 0.  1.
         13    1    3    3    0    0  0.75106187399E+01 -0.35033706024E+02 -0.33894887933E+02  0.49321733339E+02  0.00000000000E+00 0. -1.
<mgrwt>
<rscale>  0 0.92643324E+02</rscale>
<asrwt>0</asrwt>
<pdfrwt beam="2">  1        2 0.34960382E-01 0.92643324E+02</pdfrwt>
<pdfrwt beam="1">  1       -2 0.14526647E-02 0.92643324E+02</pdfrwt>
<totfact> 0.15524949E+05</totfact>
</mgrwt>
</event>
<event>
 5    1  0.6027538E+000  0.8988725E+02  0.7546771E-02  0.1303125E+00
          1   -1    0    0  501    0  0.00000000000E+00  0.00000000000E+00  0.33345174456E+03  0.33345174456E+03  0.00000000000E+00 0. -1.
         -1   -1    0    0    0  501 -0.00000000000E+00 -0.00000000000E+00 -0.60576359775E+01  0.60576359775E+01  0.00000000000E+00 0.  1.
         23    2    1    2    0    0  0.00000000000E+00  0.00000000000E+00  0.32739410859E+03  0.33950938054E+03  0.89887246807E+02 0.  0.
        -13    1    3    3    0    0 -0.24933786338E+02 -0.37304042282E+02  0.15396131503E+03  0.16036636741E+03  0.00000000000E+00 0.  1.
         13    1    3    3    0    0  0.24933786338E+02  0.37304042282E+02  0.17343279356E+03  0.17914301313E+03  0.00000000000E+00 0. -1.
<mgrwt>
<rscale>  0 0.89887247E+02</rscale>
<asrwt>0</asrwt>
<pdfrwt beam="1">  1        1 0.51300254E-01 0.89887247E+02</pdfrwt>
<pdfrwt beam="2">  1       -1 0.93194426E-03 0.89887247E+02</pdfrwt>
<totfact> 0.13572453E+05</totfact>
</mgrwt>
</event>
<event>
 5    1  0.6027538E+000  0.9093951E+02  0.7546771E-02  0.1300592E+00
         -2   -1    0    0    0  501 -0.00000000000E+00  0.00000000000E+00  0.62008026802E+02  0.62008026802E+02  0.00000000000E+00 0.  1.
          2   -1    0    0  501    0  0.00000000000E+00 -0.00000000000E+00 -0.33342433997E+02  0.33342433997E+02  0.00000000000E+00 0. -1.
         23    2    1    2    0    0  0.00000000000E+00  0.00000000000E+00  0.28665592805E+02  0.95350460799E+02  0.90939508266E+02 0.  0.
        -13    1    3    3    0    0 -0.45380592000E+02  0.20475677741E+01  0.16405516374E+02  0.48298360547E+02  0.00000000000E+00 0.  1.
         13    1    3    3    0    0  0.45380592000E+02 -0.20475677741E+01  0.12260076431E+02  0.47052100252E+02  0.00000000000E+00 0. -1.
<mgrwt>
<rscale>  0 0.90939508E+02</rscale>
<asrwt>0</asrwt>
<pdfrwt beam="2">  1        2 0.51296052E-02 0.90939508E+02</pdfrwt>
<pdfrwt beam="1">  1       -2 0.95396964E-02 0.90939508E+02</pdfrwt>
<totfact> 0.91674073E+04</totfact>
</mgrwt>
</event>
<event>
 5    1  0.6027538E+000  0.9386108E+02  0.7546771E-02  0.1293762E+00
          3   -1    0    0  501    0  0.00000000000E+00  0.00000000000E+00  0.14976456893E+03  0.14976456893E+03  0.00000000000E+00 0. -1.
         -3   -1    0    0    0  501 -0.00000000000E+00 -0.00000000000E+00 -0.14706252853E+02  0.14706252853E+02  0.00000000000E+00 0.  1.
         23    2    1    2    0    0  0.00000000000E+00  0.00000000000E+00  0.13505831608E+03  0.16447082179E+03  0.93861080734E+02 0.  0.
        -13    1    3    3    0    0  0.31964510981E+02 -0.28965167022E+02  0.35134981143E+02  0.55634321806E+02  0.00000000000E+00 0.  1.
         13    1    3    3    0    0 -0.31964510981E+02  0.28965167022E+02  0.99923334938E+02  0.10883649998E+03  0.00000000000E+00 0. -1.
<mgrwt>
<rscale>  0 0.93861081E+02</rscale>
<asrwt>0</asrwt>
<pdfrwt beam="1">  1        3 0.23040702E-01 0.93861081E+02</pdfrwt>
<pdfrwt beam="2">  1       -3 0.22625005E-02 0.93861081E+02</pdfrwt>
<totfact> 0.28139491E+04</totfact>
</mgrwt>
</event>
<event>
 5    1  0.6027538E+000  0.9205641E+02  0.7546771E-02  0.1297947E+00
          1   -1    0    0  501    0  0.00000000000E+00  0.00000000000E+00  0.10476043214E+03  0.10476043214E+03  0.00000000000E+00 0. -1.
         -1   -1    0    0    0  501 -0.00000000000E+00 -0.00000000000E+00 -0.20223241383E+02  0.20223241383E+02  0.00000000000E+00 0.  1.
         23    2    1    2    0    0  0.00000000000E+00  0.00000000000E+00  0.84537190760E+02  0.12498367353E+03  0.92056406765E+02 0.  0.
        -13    1    3    3    0    0  0.12394744037E+02  0.12945087229E+02 -0.15291365812E+02  0.23559092332E+02  0.00000000000E+00 0.  1.
         13    1    3    3    0    0 -0.12394744037E+02 -0.12945087229E+02  0.99828556572E+02  0.10142458119E+03  0.00000000000E+00 0. -1.
<mgrwt>
<rscale>  0 0.92056407E+02</rscale>
<asrwt>0</asrwt>
<pdfrwt beam="1">  1        1 0.16116989E-01 0.92056407E+02</pdfrwt>
<pdfrwt beam="2">  1       -1 0.31112680E-02 0.92056407E+02</pdfrwt>
<totfact> 0.10254722E+05</totfact>
</mgrwt>
</event>
<event>
 5    1  0.6027538E+000  0.9634151E+02  0.7546771E-02  0.1288183E+00
          2   -1    0    0  501    0  0.00000000000E+00  0.00000000000E+00  0.74157855613E+01  0.74157855613E+01  0.00000000000E+00 0. -1.
         -2   -1    0    0    0  501 -0.00000000000E+00 -0.00000000000E+00 -0.31290298628E+03  0.31290298628E+03  0.00000000000E+00 0.  1.
         23    2    1    2    0    0  0.00000000000E+00  0.00000000000E+00 -0.30548720072E+03  0.32031877184E+03  0.96341506065E+02 0.  0.
        -13    1    3    3    0    0 -0.35521104509E+02  0.32074976205E+02 -0.17091446306E+03  0.17748889162E+03  0.00000000000E+00 0.  1.
         13    1    3    3    0    0  0.35521104509E+02 -0.32074976205E+02 -0.13457273766E+03  0.14282988022E+03  0.00000000000E+00 0. -1.
<mgrwt>
<rscale>  0 0.96341506E+02</rscale>
<asrwt>0</asrwt>
<pdfrwt beam="1">  1        2 0.11408901E-02 0.96341506E+02</pdfrwt>
<pdfrwt beam="2">  1       -2 0.48138921E-01 0.96341506E+02</pdfrwt>
<totfact> 0.43189393E+04</totfact>
</mgrwt>
</event>
<event>
 5    1  0.6027538E+000  0.9132537E+02  0.7546771E-02  0.1299673E+00
          1   -1    0    0  501    0  0.00000000000E+00  0.00000000000E+00  0.16362900962E+03  0.16362900962E+03  0.00000000000E+00 0. -1.
         -1   -1    0    0    0  501 -0.00000000000E+00 -0.00000000000E+00 -0.12742732804E+02  0.12742732804E+02  0.00000000000E+00 0.  1.
         23    2    1    2    0    0  0.00000000000E+00  0.00000000000E+00  0.15088627682E+03  0.17637174242E+03  0.91325368844E+02 0.  0.
        -13    1    3    3    0    0 -0.28995129519E+02  0.28551612628E+02  0.35434704193E+02  0.53958598765E+02  0.00000000000E+00 0.  1.
         13    1    3    3    0    0  0.28995129519E+02 -0.28551612628E+02  0.11545157262E+03  0.12241314366E+03  0.00000000000E+00 0. -1.
<mgrwt>
<rscale>  0 0.91325369E+02</rscale>
<asrwt>0</asrwt>
<pdfrwt beam="1">  1        1 0.25173692E-01 0.91325369E+02</pdfrwt>
<pdfrwt beam="2">  1       -1 0.19604205E-02 0.91325369E+02</pdfrwt>
<totfact> 0.11345711E+05</totfact>
</mgrwt>
</event>
<event>
 5    1  0.6027538E+000  0.9081727E+02  0.7546771E-02  0.1300885E+00
          2   -1    0    0  501    0  0.00000000000E+00  0.00000000000E+00  0.17888706346E+03  0.17888706346E+03  0.00000000000E+00 0.  1.
         -2   -1    0    0    0  501 -0.00000000000E+00 -0.00000000000E+00 -0.11526513250E+02  0.11526513250E+02  0.00000000000E+00 0. -1.
         23    2    1    2    0    0  0.00000000000E+00  0.00000000000E+00  0.16736055021E+03  0.19041357671E+03  0.90817269444E+02 0.  0.
        -13    1    3    3    0    0  0.92605150734E+01 -0.28685991324E+02  0.12476867132E+02  0.32623847890E+02  0.00000000000E+00 0. -1.
         13    1    3    3    0    0 -0.92605150734E+01  0.28685991324E+02  0.15488368308E+03  0.15778972882E+03  0.00000000000E+00 0.  1.
<mgrwt>
<rscale>  0 0.90817269E+02</rscale>
<asrwt>0</asrwt>
<pdfrwt beam="1">  1        2 0.27521085E-01 0.90817269E+02</pdfrwt>
<pdfrwt beam="2">  1       -2 0.17733099E-02 0.90817269E+02</pdfrwt>
<totfact> 0.15021260E+05</totfact>
</mgrwt>
</event>
<event>
 5    1  0.6027538E+000  0.9246790E+02  0.7546771E-02  0.1296983E+00
         -2   -1    0    0    0  501 -0.00000000000E+00  0.00000000000E+00  0.10659540543E+03  0.10659540543E+03  0.00000000000E+00 0.  1.
          2   -1    0    0  501    0  0.00000000000E+00 -0.00000000000E+00 -0.20053190019E+02  0.20053190019E+02  0.00000000000E+00 0. -1.
         23    2    1    2    0    0  0.00000000000E+00  0.00000000000E+00  0.86542215411E+02  0.12664859545E+03  0.92467895406E+02 0.  0.
        -13    1    3    3    0    0 -0.15246091789E+02 -0.28518404254E+02 -0.19861208480E+01  0.32398879179E+02  0.00000000000E+00 0. -1.
         13    1    3    3    0    0  0.15246091789E+02  0.28518404254E+02  0.88528336259E+02  0.94249716269E+02  0.00000000000E+00 0.  1.
<mgrwt>
<rscale>  0 0.92467895E+02</rscale>
<asrwt>0</asrwt>
<pdfrwt beam="2">  1        2 0.30851062E-02 0.92467895E+02</pdfrwt>
<pdfrwt beam="1">  1       -2 0.16399293E-01 0.92467895E+02</pdfrwt>
<totfact> 0.75577993E+04</totfact>
</mgrwt>
</event>
<event>
 5    1  0.6027538E+000  0.8922686E+02  0.7546771E-02  0.1304735E+00
         -3   -1    0    0    0  501 -0.00000000000E+00  0.00000000000E+00  0.58648298261E+02  0.58648298261E+02  0.00000000000E+00 0.  1.
          3   -1    0    0  501    0  0.00000000000E+00 -0.00000000000E+00 -0.33937186597E+02  0.33937186597E+02  0.00000000000E+00 0. -1.
         23    2    1    2    0    0  0.00000000000E+00  0.00000000000E+00  0.24711111664E+02  0.92585484858E+02  0.89226862361E+02 0.  0.
        -13    1    3    3    0    0 -0.36446664146E+02  0.79716156409E+01  0.37739671553E+02  0.53067775460E+02  0.00000000000E+00 0.  1.
         13    1    3    3    0    0  0.36446664146E+02 -0.79716156409E+01 -0.13028559890E+02  0.39517709398E+02  0.00000000000E+00 0. -1.
<mgrwt>
<rscale>  0 0.89226862E+02</rscale>
<asrwt>0</asrwt>
<pdfrwt beam="2">  1        3 0.52211056E-02 0.89226862E+02</pdfrwt>
<pdfrwt beam="1">  1       -3 0.90228151E-02 0.89226862E+02</pdfrwt>
<totfact> 0.37362528E+04</totfact>
</mgrwt>
</event>
<event>
 5    1  0.6027538E+000  0.9025090E+02  0.7546771E-02  0.1302245E+00
          2   -1    0    0  501    0  0.00000000000E+00  0.00000000000E+00  0.15572879844E+03  0.15572879844E+03  0.00000000000E+00 0. -1.
         -2   -1    0    0    0  501 -0.00000000000E+00 -0.00000000000E+00 -0.13075978661E+02  0.13075978661E+02  0.00000000000E+00 0.  1.
         23    2    1    2    0    0  0.00000000000E+00  0.00000000000E+00  0.14265281978E+03  0.16880477710E+03  0.90250904602E+02 0.  0.
        -13    1    3    3    0    0 -0.25201770524E+02 -0.31895104898E+01  0.15678679453E+01  0.25451137983E+02  0.00000000000E+00 0.  1.
         13    1    3    3    0    0  0.25201770524E+02  0.31895104898E+01  0.14108495184E+03  0.14335363912E+03  0.00000000000E+00 0. -1.
<mgrwt>
<rscale>  0 0.90250905E+02</rscale>
<asrwt>0</asrwt>
<pdfrwt beam="1">  1        2 0.23958275E-01 0.90250905E+02</pdfrwt>
<pdfrwt beam="2">  1       -2 0.20116891E-02 0.90250905E+02</pdfrwt>
<totfact> 0.14558005E+05</totfact>
</mgrwt>
</event>
<event>
 5    1  0.6027538E+000  0.8186489E+02  0.7546771E-02  0.1323841E+00
         -3   -1    0    0    0  501 -0.00000000000E+00  0.00000000000E+00  0.22395837430E+02  0.22395837430E+02  0.00000000000E+00 0.  1.
          3   -1    0    0  501    0  0.00000000000E+00 -0.00000000000E+00 -0.74811451345E+02  0.74811451345E+02  0.00000000000E+00 0. -1.
         23    2    1    2    0    0  0.00000000000E+00  0.00000000000E+00 -0.52415613914E+02  0.97207288775E+02  0.81864891187E+02 0.  0.
        -13    1    3    3    0    0 -0.39162791173E+02 -0.11674656679E+02 -0.23437476816E+02  0.47109841228E+02  0.00000000000E+00 0.  1.
         13    1    3    3    0    0  0.39162791173E+02  0.11674656679E+02 -0.28978137098E+02  0.50097447547E+02  0.00000000000E+00 0. -1.
<mgrwt>
<rscale>  0 0.81864891E+02</rscale>
<asrwt>0</asrwt>
<pdfrwt beam="2">  1        3 0.11509454E-01 0.81864891E+02</pdfrwt>
<pdfrwt beam="1">  1       -3 0.34455135E-02 0.81864891E+02</pdfrwt>
<totfact> 0.46663219E+04</totfact>
</mgrwt>
</event>
<event>
 5    1  0.6027538E+000  0.8942447E+02  0.7546771E-02  0.1304251E+00
          1   -1    0    0  501    0  0.00000000000E+00  0.00000000000E+00  0.16459345109E+03  0.16459345109E+03  0.00000000000E+00 0. -1.
         -1   -1    0    0    0  501 -0.00000000000E+00 -0.00000000000E+00 -0.12146193783E+02  0.12146193783E+02  0.00000000000E+00 0.  1.
         23    2    1    2    0    0  0.00000000000E+00  0.00000000000E+00  0.15244725731E+03  0.17673964488E+03  0.89424469859E+02 0.  0.
        -13    1    3    3    0    0  0.71023448670E+01 -0.34729243979E+02  0.13008296544E+03  0.13482633863E+03  0.00000000000E+00 0. -1.
         13    1    3    3    0    0 -0.71023448670E+01  0.34729243979E+02  0.22364291872E+02  0.41913306251E+02  0.00000000000E+00 0.  1.
<mgrwt>
<rscale>  0 0.89424470E+02</rscale>
<asrwt>0</asrwt>
<pdfrwt beam="1">  1        1 0.25322068E-01 0.89424470E+02</pdfrwt>
<pdfrwt beam="2">  1       -1 0.18686453E-02 0.89424470E+02</pdfrwt>
<totfact> 0.12018826E+05</totfact>
</mgrwt>
</event>
<event>
 5    1  0.6027538E+000  0.7283054E+02  0.7546771E-02  0.1350724E+00
          3   -1    0    0  501    0  0.00000000000E+00  0.00000000000E+00  0.50140263671E+02  0.50140263671E+02  0.00000000000E+00 0. -1.
         -3   -1    0    0    0  501 -0.00000000000E+00 -0.00000000000E+00 -0.26447244962E+02  0.26447244962E+02  0.00000000000E+00 0.  1.
         23    2    1    2    0    0  0.00000000000E+00  0.00000000000E+00  0.23693018709E+02  0.76587508633E+02  0.72830538533E+02 0.  0.
        -13    1    3    3    0    0  0.30343386668E+02  0.15386778322E+02  0.25500837613E+02  0.42517840733E+02  0.00000000000E+00 0. -1.
         13    1    3    3    0    0 -0.30343386668E+02 -0.15386778322E+02 -0.18078189032E+01  0.34069667900E+02  0.00000000000E+00 0.  1.
<mgrwt>
<rscale>  0 0.72830539E+02</rscale>
<asrwt>0</asrwt>
<pdfrwt beam="1">  1        3 0.77138867E-02 0.72830539E+02</pdfrwt>
<pdfrwt beam="2">  1       -3 0.40688069E-02 0.72830539E+02</pdfrwt>
<totfact> 0.66795300E+04</totfact>
</mgrwt>
</event>
<event>
 5    1  0.6027538E+000  0.8290507E+02  0.7546771E-02  0.1321004E+00
          2   -1    0    0  501    0  0.00000000000E+00  0.00000000000E+00  0.47622238293E+02  0.47622238293E+02  0.00000000000E+00 0.  1.
         -2   -1    0    0    0  501 -0.00000000000E+00 -0.00000000000E+00 -0.36082147067E+02  0.36082147067E+02  0.00000000000E+00 0. -1.
         23    2    1    2    0    0  0.00000000000E+00  0.00000000000E+00  0.11540091225E+02  0.83704385360E+02  0.82905068741E+02 0.  0.
        -13    1    3    3    0    0  0.14275599849E+02 -0.86193769085E+01 -0.32546158758E+02  0.36569643959E+02  0.00000000000E+00 0. -1.
         13    1    3    3    0    0 -0.14275599849E+02  0.86193769085E+01  0.44086249984E+02  0.47134741401E+02  0.00000000000E+00 0.  1.
<mgrwt>
<rscale>  0 0.82905069E+02</rscale>
<asrwt>0</asrwt>
<pdfrwt beam="1">  1        2 0.73264982E-02 0.82905069E+02</pdfrwt>
<pdfrwt beam="2">  1       -2 0.55510996E-02 0.82905069E+02</pdfrwt>
<totfact> 0.13065548E+05</totfact>
</mgrwt>
</event>
<event>
 5    1  0.6027538E+000  0.9125293E+02  0.7546771E-02  0.1299846E+00
         -1   -1    0    0    0  501 -0.00000000000E+00  0.00000000000E+00  0.18524874115E+02  0.18524874115E+02  0.00000000000E+00 0.  1.
          1   -1    0    0  501    0  0.00000000000E+00 -0.00000000000E+00 -0.11237724303E+03  0.11237724303E+03  0.00000000000E+00 0. -1.
         23    2    1    2    0    0  0.00000000000E+00  0.00000000000E+00 -0.93852368919E+02  0.13090211715E+03  0.91252929390E+02 0.  0.
        -13    1    3    3    0    0  0.39481043995E+02 -0.16990287542E+02 -0.24966110730E+02  0.49706432085E+02  0.00000000000E+00 0.  1.
         13    1    3    3    0    0 -0.39481043995E+02  0.16990287542E+02 -0.68886258189E+02  0.81195685063E+02  0.00000000000E+00 0. -1.
<mgrwt>
<rscale>  0 0.91252929E+02</rscale>
<asrwt>0</asrwt>
<pdfrwt beam="2">  1        1 0.17288807E-01 0.91252929E+02</pdfrwt>
<pdfrwt beam="1">  1       -1 0.28499806E-02 0.91252929E+02</pdfrwt>
<totfact> 0.10628586E+05</totfact>
</mgrwt>
</event>
<event>
 5    1  0.6027538E+000  0.9219049E+02  0.7546771E-02  0.1297632E+00
         -3   -1    0    0    0  501 -0.00000000000E+00  0.00000000000E+00  0.10542818431E+03  0.10542818431E+03  0.00000000000E+00 0.  1.
          3   -1    0    0  501    0  0.00000000000E+00 -0.00000000000E+00 -0.20153734338E+02  0.20153734338E+02  0.00000000000E+00 0. -1.
         23    2    1    2    0    0  0.00000000000E+00  0.00000000000E+00  0.85274449967E+02  0.12558191864E+03  0.92190490143E+02 0.  0.
        -13    1    3    3    0    0  0.14125012981E+02 -0.12429452943E+02  0.99959229894E+02  0.10171457582E+03  0.00000000000E+00 0.  1.
         13    1    3    3    0    0 -0.14125012981E+02  0.12429452943E+02 -0.14684779927E+02  0.23867342828E+02  0.00000000000E+00 0. -1.
<mgrwt>
<rscale>  0 0.92190490E+02</rscale>
<asrwt>0</asrwt>
<pdfrwt beam="2">  1        3 0.31005746E-02 0.92190490E+02</pdfrwt>
<pdfrwt beam="1">  1       -3 0.16219720E-01 0.92190490E+02</pdfrwt>
<totfact> 0.31896478E+04</totfact>
</mgrwt>
</event>
<event>
 5    1  0.6027538E+000  0.9011796E+02  0.7546771E-02  0.1302566E+00
         -3   -1    0    0    0  501 -0.00000000000E+00  0.00000000000E+00  0.27172698263E+02  0.27172698263E+02  0.00000000000E+00 0.  1.
          3   -1    0    0  501    0  0.00000000000E+00 -0.00000000000E+00 -0.74718812550E+02  0.74718812550E+02  0.00000000000E+00 0. -1.
         23    2    1    2    0    0  0.00000000000E+00  0.00000000000E+00 -0.47546114287E+02  0.10189151081E+03  0.90117961538E+02 0.  0.
        -13    1    3    3    0    0  0.16542672421E+02 -0.36052534815E+02  0.39386180692E+00  0.39668632501E+02  0.00000000000E+00 0.  1.
         13    1    3    3    0    0 -0.16542672421E+02  0.36052534815E+02 -0.47939976094E+02  0.62222878311E+02  0.00000000000E+00 0. -1.
<mgrwt>
<rscale>  0 0.90117962E+02</rscale>
<asrwt>0</asrwt>
<pdfrwt beam="2">  1        3 0.11495202E-01 0.90117962E+02</pdfrwt>
<pdfrwt beam="1">  1       -3 0.41804151E-02 0.90117962E+02</pdfrwt>
<totfact> 0.35644542E+04</totfact>
</mgrwt>
</event>
<event>
 5    1  0.6027538E+000  0.1097000E+03  0.7546771E-02  0.1261126E+00
          3   -1    0    0  501    0  0.00000000000E+00  0.00000000000E+00  0.15699954797E+03  0.15699954797E+03  0.00000000000E+00 0. -1.
         -3   -1    0    0    0  501 -0.00000000000E+00 -0.00000000000E+00 -0.19162635540E+02  0.19162635540E+02  0.00000000000E+00 0.  1.
         23    2    1    2    0    0  0.00000000000E+00  0.00000000000E+00  0.13783691243E+03  0.17616218351E+03  0.10970004772E+03 0.  0.
        -13    1    3    3    0    0  0.62756841991E+01  0.44724920915E+02  0.11890210356E+03  0.12719045953E+03  0.00000000000E+00 0. -1.
         13    1    3    3    0    0 -0.62756841991E+01 -0.44724920915E+02  0.18934808869E+02  0.48971723984E+02  0.00000000000E+00 0.  1.
<mgrwt>
<rscale>  0 0.10970005E+03</rscale>
<asrwt>0</asrwt>
<pdfrwt beam="1">  1        3 0.24153776E-01 0.10970005E+03</pdfrwt>
<pdfrwt beam="2">  1       -3 0.29480979E-02 0.10970005E+03</pdfrwt>
<totfact> 0.17961326E+04</totfact>
</mgrwt>
</event>
<event>
 5    1  0.6027538E+000  0.9069577E+02  0.7546771E-02  0.1301175E+00
         -2   -1    0    0    0  501 -0.00000000000E+00  0.00000000000E+00  0.17508347971E+02  0.17508347971E+02  0.00000000000E+00 0. -1.
          2   -1    0    0  501    0  0.00000000000E+00 -0.00000000000E+00 -0.11745428761E+03  0.11745428761E+03  0.00000000000E+00 0.  1.
         23    2    1    2    0    0  0.00000000000E+00  0.00000000000E+00 -0.99945939641E+02  0.13496263558E+03  0.90695767006E+02 0.  0.
        -13    1    3    3    0    0  0.21226056656E+01  0.36289613064E+02 -0.90315856677E+02  0.97357051303E+02  0.00000000000E+00 0.  1.
         13    1    3    3    0    0 -0.21226056656E+01 -0.36289613064E+02 -0.96300829635E+01  0.37605584280E+02  0.00000000000E+00 0. -1.
<mgrwt>
<rscale>  0 0.90695767E+02</rscale>
<asrwt>0</asrwt>
<pdfrwt beam="2">  1        2 0.18069891E-01 0.90695767E+02</pdfrwt>
<pdfrwt beam="1">  1       -2 0.26935919E-02 0.90695767E+02</pdfrwt>
<totfact> 0.13085716E+05</totfact>
</mgrwt>
</event>
<event>
 5    1  0.6027538E+000  0.8887909E+02  0.7546771E-02  0.1305589E+00
         -1   -1    0    0    0  501 -0.00000000000E+00  0.00000000000E+00  0.53741584869E+01  0.53741584869E+01  0.00000000000E+00 0.  1.
          1   -1    0    0  501    0  0.00000000000E+00 -0.00000000000E+00 -0.36747577080E+03  0.36747577080E+03  0.00000000000E+00 0. -1.
         23    2    1    2    0    0  0.00000000000E+00  0.00000000000E+00 -0.36210161231E+03  0.37284992929E+03  0.88879087132E+02 0.  0.
        -13    1    3    3    0    0  0.43439509710E+02 -0.55376442240E+01 -0.14931896889E+03  0.15560787569E+03  0.00000000000E+00 0.  1.
         13    1    3    3    0    0 -0.43439509710E+02  0.55376442240E+01 -0.21278264343E+03  0.21724205360E+03  0.00000000000E+00 0. -1.
<mgrwt>
<rscale>  0 0.88879087E+02</rscale>
<asrwt>0</asrwt>
<pdfrwt beam="2">  1        1 0.56534764E-01 0.88879087E+02</pdfrwt>
<pdfrwt beam="1">  1       -1 0.82679318E-03 0.88879087E+02</pdfrwt>
<totfact> 0.14228383E+05</totfact>
</mgrwt>
</event>
<event>
 5    1  0.6027538E+000  0.9073006E+02  0.7546771E-02  0.1301093E+00
         -2   -1    0    0    0  501 -0.00000000000E+00  0.00000000000E+00  0.88027247407E+01  0.88027247407E+01  0.00000000000E+00 0.  1.
          2   -1    0    0  501    0  0.00000000000E+00 -0.00000000000E+00 -0.23378966375E+03  0.23378966375E+03  0.00000000000E+00 0. -1.
         23    2    1    2    0    0  0.00000000000E+00  0.00000000000E+00 -0.22498693901E+03  0.24259238849E+03  0.90730062431E+02 0.  0.
        -13    1    3    3    0    0 -0.16662130434E+02  0.38168183309E+02 -0.16058805201E+03  0.16590044983E+03  0.00000000000E+00 0. -1.
         13    1    3    3    0    0  0.16662130434E+02 -0.38168183309E+02 -0.64398887001E+02  0.76691938655E+02  0.00000000000E+00 0.  1.
<mgrwt>
<rscale>  0 0.90730062E+02</rscale>
<asrwt>0</asrwt>
<pdfrwt beam="2">  1        2 0.35967639E-01 0.90730062E+02</pdfrwt>
<pdfrwt beam="1">  1       -2 0.13542654E-02 0.90730062E+02</pdfrwt>
<totfact> 0.16592696E+05</totfact>
</mgrwt>
</event>
<event>
 5    1  0.6027538E+000  0.9203060E+02  0.7546771E-02  0.1298007E+00
          1   -1    0    0  501    0  0.00000000000E+00  0.00000000000E+00  0.22093054122E+02  0.22093054122E+02  0.00000000000E+00 0. -1.
         -1   -1    0    0    0  501 -0.00000000000E+00 -0.00000000000E+00 -0.95840433241E+02  0.95840433241E+02  0.00000000000E+00 0.  1.
         23    2    1    2    0    0  0.00000000000E+00  0.00000000000E+00 -0.73747379119E+02  0.11793348736E+03  0.92030600968E+02 0.  0.
        -13    1    3    3    0    0  0.30299561170E+02 -0.79645740806E+01  0.63156785908E+01  0.31959124572E+02  0.00000000000E+00 0. -1.
         13    1    3    3    0    0 -0.30299561170E+02  0.79645740806E+01 -0.80063057710E+02  0.85974362791E+02  0.00000000000E+00 0.  1.
<mgrwt>
<rscale>  0 0.92030601E+02</rscale>
<asrwt>0</asrwt>
<pdfrwt beam="1">  1        1 0.33989314E-02 0.92030601E+02</pdfrwt>
<pdfrwt beam="2">  1       -1 0.14744682E-01 0.92030601E+02</pdfrwt>
<totfact> 0.80064520E+04</totfact>
</mgrwt>
</event>
<event>
 5    1  0.6027538E+000  0.9134334E+02  0.7546771E-02  0.1299631E+00
         -1   -1    0    0    0  501 -0.00000000000E+00  0.00000000000E+00  0.15513169796E+02  0.15513169796E+02  0.00000000000E+00 0.  1.
          1   -1    0    0  501    0  0.00000000000E+00 -0.00000000000E+00 -0.13446003117E+03  0.13446003117E+03  0.00000000000E+00 0. -1.
         23    2    1    2    0    0  0.00000000000E+00  0.00000000000E+00 -0.11894686138E+03  0.14997320097E+03  0.91343336800E+02 0.  0.
        -13    1    3    3    0    0 -0.73491154286E+01  0.40857914277E+02 -0.90734537780E+02  0.99780433968E+02  0.00000000000E+00 0. -1.
         13    1    3    3    0    0  0.73491154286E+01 -0.40857914277E+02 -0.28212323598E+02  0.50192767003E+02  0.00000000000E+00 0.  1.
<mgrwt>
<rscale>  0 0.91343337E+02</rscale>
<asrwt>0</asrwt>
<pdfrwt beam="2">  1        1 0.20686159E-01 0.91343337E+02</pdfrwt>
<pdfrwt beam="1">  1       -1 0.23866414E-02 0.91343337E+02</pdfrwt>
<totfact> 0.10938578E+05</totfact>
</mgrwt>
</event>
<event>
 5    1  0.6027538E+000  0.9051474E+02  0.7546771E-02  0.1301610E+00
         -3   -1    0    0    0  501 -0.00000000000E+00  0.00000000000E+00  0.25665916889E+03  0.25665916889E+03  0.00000000000E+00 0.  1.
          3   -1    0    0  501    0  0.00000000000E+00 -0.00000000000E+00 -0.79803483278E+01  0.79803483278E+01  0.00000000000E+00 0. -1.
         23    2    1    2    0    0  0.00000000000E+00  0.00000000000E+00  0.24867882056E+03  0.26463951722E+03  0.90514740662E+02 0.  0.
        -13    1    3    3    0    0  0.38010107574E+02  0.22830715534E+02  0.97828576904E+02  0.10740782238E+03  0.00000000000E+00 0.  1.
         13    1    3    3    0    0 -0.38010107574E+02 -0.22830715534E+02  0.15085024366E+03  0.15723169484E+03  0.00000000000E+00 0. -1.
<mgrwt>
<rscale>  0 0.90514741E+02</rscale>
<asrwt>0</asrwt>
<pdfrwt beam="2">  1        3 0.12277461E-02 0.90514741E+02</pdfrwt>
<pdfrwt beam="1">  1       -3 0.39486020E-01 0.90514741E+02</pdfrwt>
<totfact> 0.25964885E+04</totfact>
</mgrwt>
</event>
<event>
 5    1  0.6027538E+000  0.8965126E+02  0.7546771E-02  0.1303698E+00
          2   -1    0    0  501    0  0.00000000000E+00  0.00000000000E+00  0.32761401500E+02  0.32761401500E+02  0.00000000000E+00 0.  1.
         -2   -1    0    0    0  501 -0.00000000000E+00 -0.00000000000E+00 -0.61332454166E+02  0.61332454166E+02  0.00000000000E+00 0. -1.
         23    2    1    2    0    0  0.00000000000E+00  0.00000000000E+00 -0.28571052665E+02  0.94093855666E+02  0.89651261138E+02 0.  0.
        -13    1    3    3    0    0 -0.26019898987E+02 -0.16945604061E+02  0.19645255418E+02  0.36744043064E+02  0.00000000000E+00 0.  1.
         13    1    3    3    0    0  0.26019898987E+02  0.16945604061E+02 -0.48216308083E+02  0.57349812602E+02  0.00000000000E+00 0. -1.
<mgrwt>
<rscale>  0 0.89651261E+02</rscale>
<asrwt>0</asrwt>
<pdfrwt beam="1">  1        2 0.50402156E-02 0.89651261E+02</pdfrwt>
<pdfrwt beam="2">  1       -2 0.94357621E-02 0.89651261E+02</pdfrwt>
<totfact> 0.95154568E+04</totfact>
</mgrwt>
</event>
<event>
 5    1  0.6027538E+000  0.8650343E+02  0.7546771E-02  0.1311547E+00
          1   -1    0    0  501    0  0.00000000000E+00  0.00000000000E+00  0.21493396103E+02  0.21493396103E+02  0.00000000000E+00 0. -1.
         -1   -1    0    0    0  501 -0.00000000000E+00 -0.00000000000E+00 -0.87036533323E+02  0.87036533323E+02  0.00000000000E+00 0.  1.
         23    2    1    2    0    0  0.00000000000E+00  0.00000000000E+00 -0.65543137219E+02  0.10852992943E+03  0.86503426202E+02 0.  0.
        -13    1    3    3    0    0  0.15094455895E+02 -0.40079705516E+02 -0.40349926855E+02  0.58841668826E+02  0.00000000000E+00 0. -1.
         13    1    3    3    0    0 -0.15094455895E+02  0.40079705516E+02 -0.25193210365E+02  0.49688260600E+02  0.00000000000E+00 0.  1.
<mgrwt>
<rscale>  0 0.86503426E+02</rscale>
<asrwt>0</asrwt>
<pdfrwt beam="1">  1        1 0.33066763E-02 0.86503426E+02</pdfrwt>
<pdfrwt beam="2">  1       -1 0.13390236E-01 0.86503426E+02</pdfrwt>
<totfact> 0.95472817E+04</totfact>
</mgrwt>
</event>
<event>
 5    1  0.6027538E+000  0.9111017E+02  0.7546771E-02  0.1300185E+00
         -2   -1    0    0    0  501 -0.00000000000E+00  0.00000000000E+00  0.84690677946E+02  0.84690677946E+02  0.00000000000E+00 0. -1.
          2   -1    0    0  501    0  0.00000000000E+00 -0.00000000000E+00 -0.24504063680E+02  0.24504063680E+02  0.00000000000E+00 0.  1.
         23    2    1    2    0    0  0.00000000000E+00  0.00000000000E+00  0.60186614267E+02  0.10919474163E+03  0.91110169914E+02 0.  0.
        -13    1    3    3    0    0 -0.27087328255E+02  0.13601054822E+02  0.70851767804E+02  0.77062864242E+02  0.00000000000E+00 0. -1.
         13    1    3    3    0    0  0.27087328255E+02 -0.13601054822E+02 -0.10665153537E+02  0.32131877384E+02  0.00000000000E+00 0.  1.
<mgrwt>
<rscale>  0 0.91110170E+02</rscale>
<asrwt>0</asrwt>
<pdfrwt beam="2">  1        2 0.37698560E-02 0.91110170E+02</pdfrwt>
<pdfrwt beam="1">  1       -2 0.13029335E-01 0.91110170E+02</pdfrwt>
<totfact> 0.83890368E+04</totfact>
</mgrwt>
</event>
<event>
 5    1  0.6027538E+000  0.8980747E+02  0.7546771E-02  0.1303319E+00
         -3   -1    0    0    0  501 -0.00000000000E+00  0.00000000000E+00  0.96660190618E+02  0.96660190618E+02  0.00000000000E+00 0.  1.
          3   -1    0    0  501    0  0.00000000000E+00 -0.00000000000E+00 -0.20860142836E+02  0.20860142836E+02  0.00000000000E+00 0. -1.
         23    2    1    2    0    0  0.00000000000E+00  0.00000000000E+00  0.75800047782E+02  0.11752033345E+03  0.89807469241E+02 0.  0.
        -13    1    3    3    0    0 -0.11513129272E+02  0.32207651695E+02  0.75971865232E+02  0.83316320611E+02  0.00000000000E+00 0.  1.
         13    1    3    3    0    0  0.11513129272E+02 -0.32207651695E+02 -0.17181744942E+00  0.34204012843E+02  0.00000000000E+00 0. -1.
<mgrwt>
<rscale>  0 0.89807469E+02</rscale>
<asrwt>0</asrwt>
<pdfrwt beam="2">  1        3 0.32092528E-02 0.89807469E+02</pdfrwt>
<pdfrwt beam="1">  1       -3 0.14870798E-01 0.89807469E+02</pdfrwt>
<totfact> 0.34817676E+04</totfact>
</mgrwt>
</event>
<event>
 5    1  0.6027538E+000  0.8991141E+02  0.7546771E-02  0.1303066E+00
         -2   -1    0    0    0  501 -0.00000000000E+00  0.00000000000E+00  0.29333327496E+03  0.29333327496E+03  0.00000000000E+00 0.  1.
          2   -1    0    0  501    0  0.00000000000E+00 -0.00000000000E+00 -0.68898264448E+01  0.68898264448E+01  0.00000000000E+00 0. -1.
         23    2    1    2    0    0  0.00000000000E+00  0.00000000000E+00  0.28644344851E+03  0.30022310140E+03  0.89911408729E+02 0.  0.
        -13    1    3    3    0    0 -0.34694997476E+02 -0.27087709625E+02  0.11270438778E+03  0.12099490026E+03  0.00000000000E+00 0. -1.
         13    1    3    3    0    0  0.34694997476E+02  0.27087709625E+02  0.17373906073E+03  0.17922820114E+03  0.00000000000E+00 0.  1.
<mgrwt>
<rscale>  0 0.89911409E+02</rscale>
<asrwt>0</asrwt>
<pdfrwt beam="2">  1        2 0.10599735E-02 0.89911409E+02</pdfrwt>
<pdfrwt beam="1">  1       -2 0.45128187E-01 0.89911409E+02</pdfrwt>
<totfact> 0.53535236E+04</totfact>
</mgrwt>
</event>
<event>
 5    1  0.6027538E+000  0.9151355E+02  0.7546771E-02  0.1299227E+00
          1   -1    0    0  501    0  0.00000000000E+00  0.00000000000E+00  0.13812470712E+03  0.13812470712E+03  0.00000000000E+00 0. -1.
         -1   -1    0    0    0  501 -0.00000000000E+00 -0.00000000000E+00 -0.15157914978E+02  0.15157914978E+02  0.00000000000E+00 0.  1.
         23    2    1    2    0    0  0.00000000000E+00  0.00000000000E+00  0.12296679214E+03  0.15328262210E+03  0.91513552371E+02 0.  0.
        -13    1    3    3    0    0  0.39414283034E+02  0.20161419995E+02  0.80851894517E+02  0.92179159305E+02  0.00000000000E+00 0.  1.
         13    1    3    3    0    0 -0.39414283034E+02 -0.20161419995E+02  0.42114897626E+02  0.61103462793E+02  0.00000000000E+00 0. -1.
<mgrwt>
<rscale>  0 0.91513552E+02</rscale>
<asrwt>0</asrwt>
<pdfrwt beam="1">  1        1 0.21249954E-01 0.91513552E+02</pdfrwt>
<pdfrwt beam="2">  1       -1 0.23319870E-02 0.91513552E+02</pdfrwt>
<totfact> 0.10936417E+05</totfact>
</mgrwt>
</event>
<event>
 5    1  0.6027538E+000  0.9623423E+02  0.7546771E-02  0.1288420E+00
         -3   -1    0    0    0  501 -0.00000000000E+00  0.00000000000E+00  0.35777831247E+02  0.35777831247E+02  0.00000000000E+00 0.  1.
          3   -1    0    0  501    0  0.00000000000E+00 -0.00000000000E+00 -0.64712044147E+02  0.64712044147E+02  0.00000000000E+00 0. -1.
         23    2    1    2    0    0  0.00000000000E+00  0.00000000000E+00 -0.28934212900E+02  0.10048987539E+03  0.96234226659E+02 0.  0.
        -13    1    3    3    0    0 -0.41302043082E+02 -0.19362640060E+02 -0.30457207500E+02  0.54848993442E+02  0.00000000000E+00 0. -1.
         13    1    3    3    0    0  0.41302043082E+02  0.19362640060E+02  0.15229946002E+01  0.45640881953E+02  0.00000000000E+00 0.  1.
<mgrwt>
<rscale>  0 0.96234227E+02</rscale>
<asrwt>0</asrwt>
<pdfrwt beam="2">  1        3 0.99556991E-02 0.96234227E+02</pdfrwt>
<pdfrwt beam="1">  1       -3 0.55042817E-02 0.96234227E+02</pdfrwt>
<totfact> 0.29882218E+04</totfact>
</mgrwt>
</event>
<event>
 5    1  0.6027538E+000  0.9144120E+02  0.7546771E-02  0.1299399E+00
          2   -1    0    0  501    0  0.00000000000E+00  0.00000000000E+00  0.17021574592E+03  0.17021574592E+03  0.00000000000E+00 0. -1.
         -2   -1    0    0    0  501 -0.00000000000E+00 -0.00000000000E+00 -0.12280727125E+02  0.12280727125E+02  0.00000000000E+00 0.  1.
         23    2    1    2    0    0  0.00000000000E+00  0.00000000000E+00  0.15793501879E+03  0.18249647304E+03  0.91441197018E+02 0.  0.
        -13    1    3    3    0    0  0.42820113482E+01  0.38098276001E+02  0.29250606360E+02  0.48222528219E+02  0.00000000000E+00 0.  1.
         13    1    3    3    0    0 -0.42820113482E+01 -0.38098276001E+02  0.12868441243E+03  0.13427394482E+03  0.00000000000E+00 0. -1.
<mgrwt>
<rscale>  0 0.91441197E+02</rscale>
<asrwt>0</asrwt>
<pdfrwt beam="1">  1        2 0.26187036E-01 0.91441197E+02</pdfrwt>
<pdfrwt beam="2">  1       -2 0.18893428E-02 0.91441197E+02</pdfrwt>
<totfact> 0.14490329E+05</totfact>
</mgrwt>
</event>
<event>
 5    1  0.6027538E+000  0.8977068E+02  0.7546771E-02  0.1303408E+00
         -3   -1    0    0    0  501 -0.00000000000E+00  0.00000000000E+00  0.10270558956E+03  0.10270558956E+03  0.00000000000E+00 0.  1.
          3   -1    0    0  501    0  0.00000000000E+00 -0.00000000000E+00 -0.19616203824E+02  0.19616203824E+02  0.00000000000E+00 0. -1.
         23    2    1    2    0    0  0.00000000000E+00  0.00000000000E+00  0.83089385737E+02  0.12232179338E+03  0.89770680708E+02 0.  0.
        -13    1    3    3    0    0 -0.99466313262E+01 -0.43741080155E+02  0.43688882191E+02  0.62617377740E+02  0.00000000000E+00 0. -1.
         13    1    3    3    0    0  0.99466313262E+01  0.43741080155E+02  0.39400503546E+02  0.59704415645E+02  0.00000000000E+00 0.  1.
<mgrwt>
<rscale>  0 0.89770681E+02</rscale>
<asrwt>0</asrwt>
<pdfrwt beam="2">  1        3 0.30178776E-02 0.89770681E+02</pdfrwt>
<pdfrwt beam="1">  1       -3 0.15800860E-01 0.89770681E+02</pdfrwt>
<totfact> 0.34513038E+04</totfact>
</mgrwt>
</event>
<event>
 5    1  0.6027538E+000  0.9131616E+02  0.7546771E-02  0.1299695E+00
         -1   -1    0    0    0  501 -0.00000000000E+00  0.00000000000E+00  0.17275658012E+02  0.17275658012E+02  0.00000000000E+00 0. -1.
          1   -1    0    0  501    0  0.00000000000E+00 -0.00000000000E+00 -0.12067038379E+03  0.12067038379E+03  0.00000000000E+00 0.  1.
         23    2    1    2    0    0  0.00000000000E+00  0.00000000000E+00 -0.10339472578E+03  0.13794604180E+03  0.91316160289E+02 0.  0.
        -13    1    3    3    0    0 -0.44802043944E+02 -0.20508466428E+01 -0.64624715200E+02  0.78662462002E+02  0.00000000000E+00 0.  1.
         13    1    3    3    0    0  0.44802043944E+02  0.20508466428E+01 -0.38770010575E+02  0.59283579797E+02  0.00000000000E+00 0. -1.
<mgrwt>
<rscale>  0 0.91316160E+02</rscale>
<asrwt>0</asrwt>
<pdfrwt beam="2">  1        1 0.18564675E-01 0.91316160E+02</pdfrwt>
<pdfrwt beam="1">  1       -1 0.26577935E-02 0.91316160E+02</pdfrwt>
<totfact> 0.10739712E+05</totfact>
</mgrwt>
</event>
<event>
 5    1  0.6027538E+000  0.8005327E+02  0.7546771E-02  0.1328900E+00
          4   -1    0    0  501    0  0.00000000000E+00  0.00000000000E+00  0.40751147220E+02  0.40751147220E+02  0.00000000000E+00 0. -1.
         -4   -1    0    0    0  501 -0.00000000000E+00 -0.00000000000E+00 -0.39315000753E+02  0.39315000753E+02  0.00000000000E+00 0.  1.
         23    2    1    2    0    0  0.00000000000E+00  0.00000000000E+00  0.14361464669E+01  0.80066147973E+02  0.80053266858E+02 0.  0.
        -13    1    3    3    0    0  0.20874279883E+02 -0.27961695587E+02 -0.18894758354E+02  0.39681278634E+02  0.00000000000E+00 0.  1.
         13    1    3    3    0    0 -0.20874279883E+02  0.27961695587E+02  0.20330904821E+02  0.40384869340E+02  0.00000000000E+00 0. -1.
<mgrwt>
<rscale>  0 0.80053267E+02</rscale>
<asrwt>0</asrwt>
<pdfrwt beam="1">  1        4 0.62694073E-02 0.80053267E+02</pdfrwt>
<pdfrwt beam="2">  1       -4 0.60484616E-02 0.80053267E+02</pdfrwt>
<totfact> 0.39394790E+04</totfact>
</mgrwt>
</event>
<event>
 5    1  0.6027538E+000  0.8701568E+02  0.7546771E-02  0.1310244E+00
         -2   -1    0    0    0  501 -0.00000000000E+00  0.00000000000E+00  0.23041538102E+02  0.23041538102E+02  0.00000000000E+00 0.  1.
          2   -1    0    0  501    0  0.00000000000E+00 -0.00000000000E+00 -0.82153030797E+02  0.82153030797E+02  0.00000000000E+00 0. -1.
         23    2    1    2    0    0  0.00000000000E+00  0.00000000000E+00 -0.59111492695E+02  0.10519456890E+03  0.87015681100E+02 0.  0.
        -13    1    3    3    0    0 -0.34143447934E+02  0.11944743965E+02 -0.32898371686E+00  0.36174026255E+02  0.00000000000E+00 0.  1.
         13    1    3    3    0    0  0.34143447934E+02 -0.11944743965E+02 -0.58782508978E+02  0.69020542645E+02  0.00000000000E+00 0. -1.
<mgrwt>
<rscale>  0 0.87015681E+02</rscale>
<asrwt>0</asrwt>
<pdfrwt beam="2">  1        2 0.12638928E-01 0.87015681E+02</pdfrwt>
<pdfrwt beam="1">  1       -2 0.35448520E-02 0.87015681E+02</pdfrwt>
<totfact> 0.13168222E+05</totfact>
</mgrwt>
</event>
<event>
 5    1  0.6027538E+000  0.9196905E+02  0.7546771E-02  0.1298152E+00
          1   -1    0    0  501    0  0.00000000000E+00  0.00000000000E+00  0.33832707516E+02  0.33832707516E+02  0.00000000000E+00 0. -1.
         -1   -1    0    0    0  501 -0.00000000000E+00 -0.00000000000E+00 -0.62500952882E+02  0.62500952882E+02  0.00000000000E+00 0.  1.
         23    2    1    2    0    0  0.00000000000E+00  0.00000000000E+00 -0.28668245366E+02  0.96333660397E+02  0.91969048235E+02 0.  0.
        -13    1    3    3    0    0 -0.57469993693E+01  0.37091432727E+02  0.13493058845E+02  0.39885649305E+02  0.00000000000E+00 0. -1.
         13    1    3    3    0    0  0.57469993693E+01 -0.37091432727E+02 -0.42161304211E+02  0.56448011092E+02  0.00000000000E+00 0.  1.
<mgrwt>
<rscale>  0 0.91969048E+02</rscale>
<asrwt>0</asrwt>
<pdfrwt beam="1">  1        1 0.52050319E-02 0.91969048E+02</pdfrwt>
<pdfrwt beam="2">  1       -1 0.96155312E-02 0.91969048E+02</pdfrwt>
<totfact> 0.86199202E+04</totfact>
</mgrwt>
</event>
<event>
 5    1  0.6027538E+000  0.8607733E+02  0.7546771E-02  0.1312639E+00
         -2   -1    0    0    0  501 -0.00000000000E+00  0.00000000000E+00  0.15196874976E+02  0.15196874976E+02  0.00000000000E+00 0.  1.
          2   -1    0    0  501    0  0.00000000000E+00 -0.00000000000E+00 -0.12188864563E+03  0.12188864563E+03  0.00000000000E+00 0. -1.
         23    2    1    2    0    0  0.00000000000E+00  0.00000000000E+00 -0.10669177065E+03  0.13708552061E+03  0.86077325902E+02 0.  0.
        -13    1    3    3    0    0  0.37913266605E+02  0.79640876839E+01 -0.23488235624E+02  0.45304963194E+02  0.00000000000E+00 0.  1.
         13    1    3    3    0    0 -0.37913266605E+02 -0.79640876839E+01 -0.83203535030E+02  0.91780557412E+02  0.00000000000E+00 0. -1.
<mgrwt>
<rscale>  0 0.86077326E+02</rscale>
<asrwt>0</asrwt>
<pdfrwt beam="2">  1        2 0.18752099E-01 0.86077326E+02</pdfrwt>
<pdfrwt beam="1">  1       -2 0.23379808E-02 0.86077326E+02</pdfrwt>
<totfact> 0.15263330E+05</totfact>
</mgrwt>
</event>
<event>
 5    1  0.6027538E+000  0.8993115E+02  0.7546771E-02  0.1303019E+00
         -1   -1    0    0    0  501 -0.00000000000E+00  0.00000000000E+00  0.24013395681E+03  0.24013395681E+03  0.00000000000E+00 0.  1.
          1   -1    0    0  501    0  0.00000000000E+00 -0.00000000000E+00 -0.84198954455E+01  0.84198954455E+01  0.00000000000E+00 0. -1.
         23    2    1    2    0    0  0.00000000000E+00  0.00000000000E+00  0.23171406136E+03  0.24855385225E+03  0.89931147201E+02 0.  0.
        -13    1    3    3    0    0  0.21614532167E+02  0.26420837427E+02  0.34963623387E+02  0.48864134204E+02  0.00000000000E+00 0. -1.
         13    1    3    3    0    0 -0.21614532167E+02 -0.26420837427E+02  0.19675043798E+03  0.19968971805E+03  0.00000000000E+00 0.  1.
<mgrwt>
<rscale>  0 0.89931147E+02</rscale>
<asrwt>0</asrwt>
<pdfrwt beam="2">  1        1 0.12953687E-02 0.89931147E+02</pdfrwt>
<pdfrwt beam="1">  1       -1 0.36943681E-01 0.89931147E+02</pdfrwt>
<totfact> 0.68037968E+04</totfact>
</mgrwt>
</event>
<event>
 5    1  0.6027538E+000  0.8640880E+02  0.7546771E-02  0.1311789E+00
         -3   -1    0    0    0  501 -0.00000000000E+00  0.00000000000E+00  0.82518078479E+02  0.82518078479E+02  0.00000000000E+00 0.  1.
          3   -1    0    0  501    0  0.00000000000E+00 -0.00000000000E+00 -0.22620743409E+02  0.22620743409E+02  0.00000000000E+00 0. -1.
         23    2    1    2    0    0  0.00000000000E+00  0.00000000000E+00  0.59897335071E+02  0.10513882189E+03  0.86408802326E+02 0.  0.
        -13    1    3    3    0    0 -0.25908702954E+02 -0.37060013064E+01  0.71774533956E+02  0.76397506890E+02  0.00000000000E+00 0.  1.
         13    1    3    3    0    0  0.25908702954E+02  0.37060013064E+01 -0.11877198885E+02  0.28741314998E+02  0.00000000000E+00 0. -1.
<mgrwt>
<rscale>  0 0.86408802E+02</rscale>
<asrwt>0</asrwt>
<pdfrwt beam="2">  1        3 0.34801144E-02 0.86408802E+02</pdfrwt>
<pdfrwt beam="1">  1       -3 0.12695089E-01 0.86408802E+02</pdfrwt>
<totfact> 0.39664216E+04</totfact>
</mgrwt>
</event>
<event>
 5    1  0.6027538E+000  0.9019642E+02  0.7546771E-02  0.1302377E+00
          2   -1    0    0  501    0  0.00000000000E+00  0.00000000000E+00  0.31691358572E+02  0.31691358572E+02  0.00000000000E+00 0. -1.
         -2   -1    0    0    0  501 -0.00000000000E+00 -0.00000000000E+00 -0.64176751256E+02  0.64176751256E+02  0.00000000000E+00 0.  1.
         23    2    1    2    0    0  0.00000000000E+00  0.00000000000E+00 -0.32485392684E+02  0.95868109827E+02  0.90196417579E+02 0.  0.
        -13    1    3    3    0    0  0.55381509510E+01 -0.24772228652E+02  0.23377474218E+02  0.34508560230E+02  0.00000000000E+00 0. -1.
         13    1    3    3    0    0 -0.55381509510E+01  0.24772228652E+02 -0.55862866901E+02  0.61359549597E+02  0.00000000000E+00 0.  1.
<mgrwt>
<rscale>  0 0.90196418E+02</rscale>
<asrwt>0</asrwt>
<pdfrwt beam="1">  1        2 0.48755936E-02 0.90196418E+02</pdfrwt>
<pdfrwt beam="2">  1       -2 0.98733463E-02 0.90196418E+02</pdfrwt>
<totfact> 0.92671051E+04</totfact>
</mgrwt>
</event>
<event>
 5    1  0.6027538E+000  0.9148027E+02  0.7546771E-02  0.1299306E+00
         -3   -1    0    0    0  501 -0.00000000000E+00  0.00000000000E+00  0.12413944925E+02  0.12413944925E+02  0.00000000000E+00 0.  1.
          3   -1    0    0  501    0  0.00000000000E+00 -0.00000000000E+00 -0.16853303191E+03  0.16853303191E+03  0.00000000000E+00 0. -1.
         23    2    1    2    0    0  0.00000000000E+00  0.00000000000E+00 -0.15611908699E+03  0.18094697684E+03  0.91480266204E+02 0.  0.
        -13    1    3    3    0    0  0.13843807878E+02 -0.33748601496E+02 -0.13264418457E+03  0.13756852409E+03  0.00000000000E+00 0. -1.
         13    1    3    3    0    0 -0.13843807878E+02  0.33748601496E+02 -0.23474902420E+02  0.43378452752E+02  0.00000000000E+00 0.  1.
<mgrwt>
<rscale>  0 0.91480266E+02</rscale>
<asrwt>0</asrwt>
<pdfrwt beam="2">  1        3 0.25928157E-01 0.91480266E+02</pdfrwt>
<pdfrwt beam="1">  1       -3 0.19098378E-02 0.91480266E+02</pdfrwt>
<totfact> 0.29249852E+04</totfact>
</mgrwt>
</event>
<event>
 5    1  0.6027538E+000  0.9313756E+02  0.7546771E-02  0.1295427E+00
          2   -1    0    0  501    0  0.00000000000E+00  0.00000000000E+00  0.38510035442E+03  0.38510035442E+03  0.00000000000E+00 0. -1.
         -2   -1    0    0    0  501 -0.00000000000E+00 -0.00000000000E+00 -0.56313923553E+01  0.56313923553E+01  0.00000000000E+00 0.  1.
         23    2    1    2    0    0  0.00000000000E+00  0.00000000000E+00  0.37946896206E+03  0.39073174677E+03  0.93137558308E+02 0.  0.
        -13    1    3    3    0    0 -0.19737450747E+02  0.41700682064E+02  0.21631284063E+03  0.22117811571E+03  0.00000000000E+00 0. -1.
         13    1    3    3    0    0  0.19737450747E+02 -0.41700682064E+02  0.16315612143E+03  0.16955363106E+03  0.00000000000E+00 0.  1.
<mgrwt>
<rscale>  0 0.93137558E+02</rscale>
<asrwt>0</asrwt>
<pdfrwt beam="1">  1        2 0.59246188E-01 0.93137558E+02</pdfrwt>
<pdfrwt beam="2">  1       -2 0.86636836E-03 0.93137558E+02</pdfrwt>
<totfact> 0.18608161E+05</totfact>
</mgrwt>
</event>
<event>
 5    1  0.6027538E+000  0.8463694E+02  0.7546771E-02  0.1316385E+00
          2   -1    0    0  501    0  0.00000000000E+00  0.00000000000E+00  0.27387871341E+03  0.27387871341E+03  0.00000000000E+00 0. -1.
         -2   -1    0    0    0  501 -0.00000000000E+00 -0.00000000000E+00 -0.65388535339E+01  0.65388535339E+01  0.00000000000E+00 0.  1.
         23    2    1    2    0    0  0.00000000000E+00  0.00000000000E+00  0.26733985988E+03  0.28041756694E+03  0.84636937398E+02 0.  0.
        -13    1    3    3    0    0  0.32034453142E+02 -0.21234562007E+02  0.19235534898E+03  0.19615731721E+03  0.00000000000E+00 0. -1.
         13    1    3    3    0    0 -0.32034453142E+02  0.21234562007E+02  0.74984510894E+02  0.84260249737E+02  0.00000000000E+00 0.  1.
<mgrwt>
<rscale>  0 0.84636937E+02</rscale>
<asrwt>0</asrwt>
<pdfrwt beam="1">  1        2 0.42135178E-01 0.84636937E+02</pdfrwt>
<pdfrwt beam="2">  1       -2 0.10059777E-02 0.84636937E+02</pdfrwt>
<totfact> 0.21168766E+05</totfact>
</mgrwt>
</event>
<event>
 5    1  0.6027538E+000  0.9103596E+02  0.7546771E-02  0.1300362E+00
         -1   -1    0    0    0  501 -0.00000000000E+00  0.00000000000E+00  0.67485748627E+02  0.67485748627E+02  0.00000000000E+00 0.  1.
          1   -1    0    0  501    0  0.00000000000E+00 -0.00000000000E+00 -0.30701097594E+02  0.30701097594E+02  0.00000000000E+00 0. -1.
         23    2    1    2    0    0  0.00000000000E+00  0.00000000000E+00  0.36784651033E+02  0.98186846221E+02  0.91035961131E+02 0.  0.
        -13    1    3    3    0    0 -0.26908842368E+02 -0.36067944269E+02  0.11005701738E+02  0.46326103571E+02  0.00000000000E+00 0.  1.
         13    1    3    3    0    0  0.26908842368E+02  0.36067944269E+02  0.25778949295E+02  0.51860742649E+02  0.00000000000E+00 0. -1.
<mgrwt>
<rscale>  0 0.91035961E+02</rscale>
<asrwt>0</asrwt>
<pdfrwt beam="2">  1        1 0.47232458E-02 0.91035961E+02</pdfrwt>
<pdfrwt beam="1">  1       -1 0.10382423E-01 0.91035961E+02</pdfrwt>
<totfact> 0.87393996E+04</totfact>
</mgrwt>
</event>
<event>
 5    1  0.6027538E+000  0.8813691E+02  0.7546771E-02  0.1307427E+00
          1   -1    0    0  501    0  0.00000000000E+00  0.00000000000E+00  0.33890833758E+03  0.33890833758E+03  0.00000000000E+00 0. -1.
         -1   -1    0    0    0  501 -0.00000000000E+00 -0.00000000000E+00 -0.57302478307E+01  0.57302478307E+01  0.00000000000E+00 0.  1.
         23    2    1    2    0    0  0.00000000000E+00  0.00000000000E+00  0.33317808975E+03  0.34463858541E+03  0.88136910911E+02 0.  0.
        -13    1    3    3    0    0  0.43306795940E+02  0.81496904726E+01  0.16801367400E+03  0.17369654770E+03  0.00000000000E+00 0.  1.
         13    1    3    3    0    0 -0.43306795940E+02 -0.81496904726E+01  0.16516441574E+03  0.17094203771E+03  0.00000000000E+00 0. -1.
<mgrwt>
<rscale>  0 0.88136911E+02</rscale>
<asrwt>0</asrwt>
<pdfrwt beam="1">  1        1 0.52139729E-01 0.88136911E+02</pdfrwt>
<pdfrwt beam="2">  1       -1 0.88157685E-03 0.88136911E+02</pdfrwt>
<totfact> 0.14341426E+05</totfact>
</mgrwt>
</event>
<event>
 5    1  0.6027538E+000  0.9304366E+02  0.7546771E-02  0.1295644E+00
         -1   -1    0    0    0  501 -0.00000000000E+00  0.00000000000E+00  0.10484015229E+02  0.10484015229E+02  0.00000000000E+00 0.  1.
          1   -1    0    0  501    0  0.00000000000E+00 -0.00000000000E+00 -0.20643624500E+03  0.20643624500E+03  0.00000000000E+00 0. -1.
         23    2    1    2    0    0  0.00000000000E+00  0.00000000000E+00 -0.19595222978E+03  0.21692026023E+03  0.93043661503E+02 0.  0.
        -13    1    3    3    0    0 -0.59126443622E+01  0.31204394045E+02 -0.17722961242E+03  0.18005279529E+03  0.00000000000E+00 0. -1.
         13    1    3    3    0    0  0.59126443622E+01 -0.31204394045E+02 -0.18722617353E+02  0.36867464947E+02  0.00000000000E+00 0.  1.
<mgrwt>
<rscale>  0 0.93043662E+02</rscale>
<asrwt>0</asrwt>
<pdfrwt beam="2">  1        1 0.31759421E-01 0.93043662E+02</pdfrwt>
<pdfrwt beam="1">  1       -1 0.16129255E-02 0.93043662E+02</pdfrwt>
<totfact> 0.11282592E+05</totfact>
</mgrwt>
</event>
<event>
 5    1  0.6027538E+000  0.9090881E+02  0.7546771E-02  0.1300666E+00
         -2   -1    0    0    0  501 -0.00000000000E+00  0.00000000000E+00  0.69453664757E+01  0.69453664757E+01  0.00000000000E+00 0.  1.
          2   -1    0    0  501    0  0.00000000000E+00 -0.00000000000E+00 -0.29747934160E+03  0.29747934160E+03  0.00000000000E+00 0. -1.
         23    2    1    2    0    0  0.00000000000E+00  0.00000000000E+00 -0.29053397513E+03  0.30442470808E+03  0.90908812475E+02 0.  0.
        -13    1    3    3    0    0 -0.29887430607E+01  0.45356009396E+02 -0.14508749631E+03  0.15204105288E+03  0.00000000000E+00 0.  1.
         13    1    3    3    0    0  0.29887430607E+01 -0.45356009396E+02 -0.14544647882E+03  0.15238365520E+03  0.00000000000E+00 0. -1.
<mgrwt>
<rscale>  0 0.90908812E+02</rscale>
<asrwt>0</asrwt>
<pdfrwt beam="2">  1        2 0.45766052E-01 0.90908812E+02</pdfrwt>
<pdfrwt beam="1">  1       -2 0.10685179E-02 0.90908812E+02</pdfrwt>
<totfact> 0.18050886E+05</totfact>
</mgrwt>
</event>
<event>
 5    1  0.6027538E+000  0.9319295E+02  0.7546771E-02  0.1295299E+00
         -1   -1    0    0    0  501 -0.00000000000E+00  0.00000000000E+00  0.19508660211E+02  0.19508660211E+02  0.00000000000E+00 0.  1.
          1   -1    0    0  501    0  0.00000000000E+00 -0.00000000000E+00 -0.11129577929E+03  0.11129577929E+03  0.00000000000E+00 0. -1.
         23    2    1    2    0    0  0.00000000000E+00  0.00000000000E+00 -0.91787119077E+02  0.13080443950E+03  0.93192951257E+02 0.  0.
        -13    1    3    3    0    0  0.15181969885E+02  0.28119906330E+02  0.17046114649E+01  0.32001984968E+02  0.00000000000E+00 0.  1.
         13    1    3    3    0    0 -0.15181969885E+02 -0.28119906330E+02 -0.93491730541E+02  0.98802454531E+02  0.00000000000E+00 0. -1.
<mgrwt>
<rscale>  0 0.93192951E+02</rscale>
<asrwt>0</asrwt>
<pdfrwt beam="2">  1        1 0.17122427E-01 0.93192951E+02</pdfrwt>
<pdfrwt beam="1">  1       -1 0.30013324E-02 0.93192951E+02</pdfrwt>
<totfact> 0.10020065E+05</totfact>
</mgrwt>
</event>
<event>
 5    1  0.6027538E+000  0.9436025E+02  0.7546771E-02  0.1292623E+00
          2   -1    0    0  501    0  0.00000000000E+00  0.00000000000E+00  0.42062127632E+02  0.42062127632E+02  0.00000000000E+00 0. -1.
         -2   -1    0    0    0  501 -0.00000000000E+00 -0.00000000000E+00 -0.52920867761E+02  0.52920867761E+02  0.00000000000E+00 0.  1.
         23    2    1    2    0    0  0.00000000000E+00  0.00000000000E+00 -0.10858740129E+02  0.94982995394E+02  0.94360252102E+02 0.  0.
        -13    1    3    3    0    0 -0.35412618412E+02  0.24441035623E+02 -0.24910298787E+02  0.49718615736E+02  0.00000000000E+00 0.  1.
         13    1    3    3    0    0  0.35412618412E+02 -0.24441035623E+02  0.14051558658E+02  0.45264379658E+02  0.00000000000E+00 0. -1.
<mgrwt>
<rscale>  0 0.94360252E+02</rscale>
<asrwt>0</asrwt>
<pdfrwt beam="1">  1        2 0.64710966E-02 0.94360252E+02</pdfrwt>
<pdfrwt beam="2">  1       -2 0.81416720E-02 0.94360252E+02</pdfrwt>
<totfact> 0.87485373E+04</totfact>
</mgrwt>
</event>
<event>
 5    1  0.6027538E+000  0.9173052E+02  0.7546771E-02  0.1298714E+00
         -2   -1    0    0    0  501 -0.00000000000E+00  0.00000000000E+00  0.10282845068E+02  0.10282845068E+02  0.00000000000E+00 0.  1.
          2   -1    0    0  501    0  0.00000000000E+00 -0.00000000000E+00 -0.20457586539E+03  0.20457586539E+03  0.00000000000E+00 0. -1.
         23    2    1    2    0    0  0.00000000000E+00  0.00000000000E+00 -0.19429302032E+03  0.21485871046E+03  0.91730516809E+02 0.  0.
        -13    1    3    3    0    0 -0.28106623485E+02  0.12090741293E+02 -0.17717763898E+03  0.17980012253E+03  0.00000000000E+00 0. -1.
         13    1    3    3    0    0  0.28106623485E+02 -0.12090741293E+02 -0.17115381342E+02  0.35058587924E+02  0.00000000000E+00 0.  1.
<mgrwt>
<rscale>  0 0.91730517E+02</rscale>
<asrwt>0</asrwt>
<pdfrwt beam="2">  1        2 0.31473211E-01 0.91730517E+02</pdfrwt>
<pdfrwt beam="1">  1       -2 0.15819761E-02 0.91730517E+02</pdfrwt>
<totfact> 0.15342941E+05</totfact>
</mgrwt>
</event>
<event>
 5    1  0.6027538E+000  0.8980174E+02  0.7546771E-02  0.1303333E+00
          1   -1    0    0  501    0  0.00000000000E+00  0.00000000000E+00  0.19925334059E+03  0.19925334059E+03  0.00000000000E+00 0. -1.
         -1   -1    0    0    0  501 -0.00000000000E+00 -0.00000000000E+00 -0.10118214061E+02  0.10118214061E+02  0.00000000000E+00 0.  1.
         23    2    1    2    0    0  0.00000000000E+00  0.00000000000E+00  0.18913512652E+03  0.20937155465E+03  0.89801736118E+02 0.  0.
        -13    1    3    3    0    0 -0.66250283597E+01 -0.30922925861E+02  0.20253107230E+02  0.37554050341E+02  0.00000000000E+00 0.  1.
         13    1    3    3    0    0  0.66250283597E+01  0.30922925861E+02  0.16888201929E+03  0.17181750431E+03  0.00000000000E+00 0. -1.
<mgrwt>
<rscale>  0 0.89801736E+02</rscale>
<asrwt>0</asrwt>
<pdfrwt beam="1">  1        1 0.30654357E-01 0.89801736E+02</pdfrwt>
<pdfrwt beam="2">  1       -1 0.15566485E-02 0.89801736E+02</pdfrwt>
<totfact> 0.12323498E+05</totfact>
</mgrwt>
</event>
<event>
 5    1  0.6027538E+000  0.9800700E+02  0.7546771E-02  0.1284544E+00
          2   -1    0    0  501    0  0.00000000000E+00  0.00000000000E+00  0.62585374217E+02  0.62585374217E+02  0.00000000000E+00 0. -1.
         -2   -1    0    0    0  501 -0.00000000000E+00 -0.00000000000E+00 -0.38369074435E+02  0.38369074435E+02  0.00000000000E+00 0.  1.
         23    2    1    2    0    0  0.00000000000E+00  0.00000000000E+00  0.24216299783E+02  0.10095444865E+03  0.98006997339E+02 0.  0.
        -13    1    3    3    0    0  0.18103375077E+02  0.22408943613E+02  0.52941842268E+02  0.60272146185E+02  0.00000000000E+00 0. -1.
         13    1    3    3    0    0 -0.18103375077E+02 -0.22408943613E+02 -0.28725542485E+02  0.40682302468E+02  0.00000000000E+00 0.  1.
<mgrwt>
<rscale>  0 0.98006997E+02</rscale>
<asrwt>0</asrwt>
<pdfrwt beam="1">  1        2 0.96285191E-02 0.98006997E+02</pdfrwt>
<pdfrwt beam="2">  1       -2 0.59029345E-02 0.98006997E+02</pdfrwt>
<totfact> 0.87417284E+04</totfact>
</mgrwt>
</event>
<event>
 5    1  0.6027538E+000  0.9383852E+02  0.7546771E-02  0.1293814E+00
         -1   -1    0    0    0  501 -0.00000000000E+00  0.00000000000E+00  0.72502922474E+02  0.72502922474E+02  0.00000000000E+00 0.  1.
          1   -1    0    0  501    0  0.00000000000E+00 -0.00000000000E+00 -0.30363145114E+02  0.30363145114E+02  0.00000000000E+00 0. -1.
         23    2    1    2    0    0  0.00000000000E+00  0.00000000000E+00  0.42139777360E+02  0.10286606759E+03  0.93838515681E+02 0.  0.
        -13    1    3    3    0    0  0.71453779820E+01 -0.46245800272E+02  0.17322495330E+02  0.49897888871E+02  0.00000000000E+00 0.  1.
         13    1    3    3    0    0 -0.71453779820E+01  0.46245800272E+02  0.24817282030E+02  0.52968178718E+02  0.00000000000E+00 0. -1.
<mgrwt>
<rscale>  0 0.93838516E+02</rscale>
<asrwt>0</asrwt>
<pdfrwt beam="2">  1        1 0.46712531E-02 0.93838516E+02</pdfrwt>
<pdfrwt beam="1">  1       -1 0.11154296E-01 0.93838516E+02</pdfrwt>
<totfact> 0.79946547E+04</totfact>
</mgrwt>
</event>
<event>
 5    1  0.6027538E+000  0.8968000E+02  0.7546771E-02  0.1303628E+00
          4   -1    0    0  501    0  0.00000000000E+00  0.00000000000E+00  0.10868207410E+03  0.10868207410E+03  0.00000000000E+00 0. -1.
         -4   -1    0    0    0  501 -0.00000000000E+00 -0.00000000000E+00 -0.18500066342E+02  0.18500066342E+02  0.00000000000E+00 0.  1.
         23    2    1    2    0    0  0.00000000000E+00  0.00000000000E+00  0.90182007758E+02  0.12718214044E+03  0.89679999577E+02 0.  0.
        -13    1    3    3    0    0 -0.30135165191E+02 -0.64556608348E+01 -0.10993999361E+01  0.30838489232E+02  0.00000000000E+00 0.  1.
         13    1    3    3    0    0  0.30135165191E+02  0.64556608348E+01  0.91281407694E+02  0.96343651210E+02  0.00000000000E+00 0. -1.
<mgrwt>
<rscale>  0 0.89680000E+02</rscale>
<asrwt>0</asrwt>
<pdfrwt beam="1">  1        4 0.16720319E-01 0.89680000E+02</pdfrwt>
<pdfrwt beam="2">  1       -4 0.28461641E-02 0.89680000E+02</pdfrwt>
<totfact> 0.26004852E+04</totfact>
</mgrwt>
</event>
<event>
 5    1  0.6027538E+000  0.9097165E+02  0.7546771E-02  0.1300516E+00
         -1   -1    0    0    0  501 -0.00000000000E+00  0.00000000000E+00  0.13207416494E+02  0.13207416494E+02  0.00000000000E+00 0.  1.
          1   -1    0    0  501    0  0.00000000000E+00 -0.00000000000E+00 -0.15665140401E+03  0.15665140401E+03  0.00000000000E+00 0. -1.
         23    2    1    2    0    0  0.00000000000E+00  0.00000000000E+00 -0.14344398751E+03  0.16985882050E+03  0.90971651346E+02 0.  0.
        -13    1    3    3    0    0  0.24281088680E+01 -0.30203375133E+02 -0.13506313277E+03  0.13842033599E+03  0.00000000000E+00 0.  1.
         13    1    3    3    0    0 -0.24281088680E+01  0.30203375133E+02 -0.83808547414E+01  0.31438484510E+02  0.00000000000E+00 0. -1.
<mgrwt>
<rscale>  0 0.90971651E+02</rscale>
<asrwt>0</asrwt>
<pdfrwt beam="2">  1        1 0.24100216E-01 0.90971651E+02</pdfrwt>
<pdfrwt beam="1">  1       -1 0.20319103E-02 0.90971651E+02</pdfrwt>
<totfact> 0.11372350E+05</totfact>
</mgrwt>
</event>
<event>
 5    1  0.6027538E+000  0.9250001E+02  0.7546771E-02  0.1296908E+00
         -1   -1    0    0    0  501 -0.00000000000E+00  0.00000000000E+00  0.47503418790E+02  0.47503418790E+02  0.00000000000E+00 0.  1.
          1   -1    0    0  501    0  0.00000000000E+00 -0.00000000000E+00 -0.45029660992E+02  0.45029660992E+02  0.00000000000E+00 0. -1.
         23    2    1    2    0    0  0.00000000000E+00  0.00000000000E+00  0.24737577979E+01  0.92533079783E+02  0.92500007440E+02 0.  0.
        -13    1    3    3    0    0  0.11443082534E+02  0.44662766975E+02  0.48927651967E+01  0.46364275504E+02  0.00000000000E+00 0.  1.
         13    1    3    3    0    0 -0.11443082534E+02 -0.44662766975E+02 -0.24190073988E+01  0.46168804279E+02  0.00000000000E+00 0. -1.
<mgrwt>
<rscale>  0 0.92500007E+02</rscale>
<asrwt>0</asrwt>
<pdfrwt beam="2">  1        1 0.69276401E-02 0.92500007E+02</pdfrwt>
<pdfrwt beam="1">  1       -1 0.73082183E-02 0.92500007E+02</pdfrwt>
<totfact> 0.88632792E+04</totfact>
</mgrwt>
</event>
<event>
 5    1  0.6027538E+000  0.9134939E+02  0.7546771E-02  0.1299616E+00
          2   -1    0    0  501    0  0.00000000000E+00  0.00000000000E+00  0.57838344436E+02  0.57838344436E+02  0.00000000000E+00 0. -1.
         -2   -1    0    0    0  501 -0.00000000000E+00 -0.00000000000E+00 -0.36069116224E+02  0.36069116224E+02  0.00000000000E+00 0.  1.
         23    2    1    2    0    0  0.00000000000E+00  0.00000000000E+00  0.21769228212E+02  0.93907460660E+02  0.91349394474E+02 0.  0.
        -13    1    3    3    0    0  0.11798038816E+02  0.27543047925E+02 -0.24553394251E+02  0.38738641925E+02  0.00000000000E+00 0.  1.
         13    1    3    3    0    0 -0.11798038816E+02 -0.27543047925E+02  0.46322622462E+02  0.55168818736E+02  0.00000000000E+00 0. -1.
<mgrwt>
<rscale>  0 0.91349394E+02</rscale>
<asrwt>0</asrwt>
<pdfrwt beam="1">  1        2 0.88982068E-02 0.91349394E+02</pdfrwt>
<pdfrwt beam="2">  1       -2 0.55490948E-02 0.91349394E+02</pdfrwt>
<totfact> 0.10447310E+05</totfact>
</mgrwt>
</event>
<event>
 5    1  0.6027538E+000  0.9173803E+02  0.7546771E-02  0.1298697E+00
         -2   -1    0    0    0  501 -0.00000000000E+00  0.00000000000E+00  0.27259651860E+03  0.27259651860E+03  0.00000000000E+00 0.  1.
          2   -1    0    0  501    0  0.00000000000E+00 -0.00000000000E+00 -0.77182445210E+01  0.77182445210E+01  0.00000000000E+00 0. -1.
         23    2    1    2    0    0  0.00000000000E+00  0.00000000000E+00  0.26487827408E+03  0.28031476312E+03  0.91738031070E+02 0.  0.
        -13    1    3    3    0    0  0.15807178602E+02 -0.40442480350E+02  0.87271464028E+02  0.97477020604E+02  0.00000000000E+00 0. -1.
         13    1    3    3    0    0 -0.15807178602E+02  0.40442480350E+02  0.17760681005E+03  0.18283774252E+03  0.00000000000E+00 0.  1.
<mgrwt>
<rscale>  0 0.91738031E+02</rscale>
<asrwt>0</asrwt>
<pdfrwt beam="2">  1        2 0.11874224E-02 0.91738031E+02</pdfrwt>
<pdfrwt beam="1">  1       -2 0.41937919E-01 0.91738031E+02</pdfrwt>
<totfact> 0.52893340E+04</totfact>
</mgrwt>
</event>
<event>
 5    1  0.6027538E+000  0.5958314E+02  0.7546771E-02  0.1399589E+00
         -2   -1    0    0    0  501 -0.00000000000E+00  0.00000000000E+00  0.89156612561E+02  0.89156612561E+02  0.00000000000E+00 0.  1.
          2   -1    0    0  501    0  0.00000000000E+00 -0.00000000000E+00 -0.99548171619E+01  0.99548171619E+01  0.00000000000E+00 0. -1.
         23    2    1    2    0    0  0.00000000000E+00  0.00000000000E+00  0.79201795399E+02  0.99111429722E+02  0.59583144490E+02 0.  0.
        -13    1    3    3    0    0 -0.21661529043E+02  0.53394435760E+01  0.67592652158E+01  0.23311352694E+02  0.00000000000E+00 0. -1.
         13    1    3    3    0    0  0.21661529043E+02 -0.53394435760E+01  0.72442530183E+02  0.75800077028E+02  0.00000000000E+00 0.  1.
<mgrwt>
<rscale>  0 0.59583144E+02</rscale>
<asrwt>0</asrwt>
<pdfrwt beam="2">  1        2 0.15315104E-02 0.59583144E+02</pdfrwt>
<pdfrwt beam="1">  1       -2 0.13716401E-01 0.59583144E+02</pdfrwt>
<totfact> 0.23628911E+05</totfact>
</mgrwt>
</event>
<event>
 5    1  0.6027538E+000  0.9055619E+02  0.7546771E-02  0.1301510E+00
         -3   -1    0    0    0  501 -0.00000000000E+00  0.00000000000E+00  0.14113197549E+03  0.14113197549E+03  0.00000000000E+00 0.  1.
          3   -1    0    0  501    0  0.00000000000E+00 -0.00000000000E+00 -0.14526161806E+02  0.14526161806E+02  0.00000000000E+00 0. -1.
         23    2    1    2    0    0  0.00000000000E+00  0.00000000000E+00  0.12660581369E+03  0.15565813730E+03  0.90556190556E+02 0.  0.
        -13    1    3    3    0    0  0.26695412215E+02  0.23903598966E+02  0.15726633964E+02  0.39132519631E+02  0.00000000000E+00 0. -1.
         13    1    3    3    0    0 -0.26695412215E+02 -0.23903598966E+02  0.11087917972E+03  0.11652561767E+03  0.00000000000E+00 0.  1.
<mgrwt>
<rscale>  0 0.90556191E+02</rscale>
<asrwt>0</asrwt>
<pdfrwt beam="2">  1        3 0.22347942E-02 0.90556191E+02</pdfrwt>
<pdfrwt beam="1">  1       -3 0.21712611E-01 0.90556191E+02</pdfrwt>
<totfact> 0.31542401E+04</totfact>
</mgrwt>
</event>
<event>
 5    1  0.6027538E+000  0.9113128E+02  0.7546771E-02  0.1300135E+00
          1   -1    0    0  501    0  0.00000000000E+00  0.00000000000E+00  0.51276605677E+02  0.51276605677E+02  0.00000000000E+00 0. -1.
         -1   -1    0    0    0  501 -0.00000000000E+00 -0.00000000000E+00 -0.40490740541E+02  0.40490740541E+02  0.00000000000E+00 0.  1.
         23    2    1    2    0    0  0.00000000000E+00  0.00000000000E+00  0.10785865136E+02  0.91767346219E+02  0.91131284120E+02 0.  0.
        -13    1    3    3    0    0 -0.27218710871E+02 -0.27322572068E+02 -0.19042597128E+02  0.43011645763E+02  0.00000000000E+00 0.  1.
         13    1    3    3    0    0  0.27218710871E+02  0.27322572068E+02  0.29828462264E+02  0.48755700455E+02  0.00000000000E+00 0. -1.
<mgrwt>
<rscale>  0 0.91131284E+02</rscale>
<asrwt>0</asrwt>
<pdfrwt beam="1">  1        1 0.78887086E-02 0.91131284E+02</pdfrwt>
<pdfrwt beam="2">  1       -1 0.62293447E-02 0.91131284E+02</pdfrwt>
<totfact> 0.94250961E+04</totfact>
</mgrwt>
</event>
<event>
 5    1  0.6027538E+000  0.9138316E+02  0.7546771E-02  0.1299536E+00
         -2   -1    0    0    0  501 -0.00000000000E+00  0.00000000000E+00  0.93685544720E+01  0.93685544720E+01  0.00000000000E+00 0.  1.
          2   -1    0    0  501    0  0.00000000000E+00 -0.00000000000E+00 -0.22284341029E+03  0.22284341029E+03  0.00000000000E+00 0. -1.
         23    2    1    2    0    0  0.00000000000E+00  0.00000000000E+00 -0.21347485582E+03  0.23221196476E+03  0.91383163177E+02 0.  0.
        -13    1    3    3    0    0  0.18600527457E+02  0.38002570758E+02 -0.15056982165E+03  0.15640155433E+03  0.00000000000E+00 0. -1.
         13    1    3    3    0    0 -0.18600527457E+02 -0.38002570758E+02 -0.62905034174E+02  0.75810410435E+02  0.00000000000E+00 0.  1.
<mgrwt>
<rscale>  0 0.91383163E+02</rscale>
<asrwt>0</asrwt>
<pdfrwt beam="2">  1        2 0.34283597E-01 0.91383163E+02</pdfrwt>
<pdfrwt beam="1">  1       -2 0.14413163E-02 0.91383163E+02</pdfrwt>
<totfact> 0.15992110E+05</totfact>
</mgrwt>
</event>
<event>
 5    1  0.6027538E+000  0.9122231E+02  0.7546771E-02  0.1299918E+00
          1   -1    0    0  501    0  0.00000000000E+00  0.00000000000E+00  0.11005443201E+02  0.11005443201E+02  0.00000000000E+00 0. -1.
         -1   -1    0    0    0  501 -0.00000000000E+00 -0.00000000000E+00 -0.18903169252E+03  0.18903169252E+03  0.00000000000E+00 0.  1.
         23    2    1    2    0    0  0.00000000000E+00  0.00000000000E+00 -0.17802624931E+03  0.20003713572E+03  0.91222312079E+02 0.  0.
        -13    1    3    3    0    0  0.11625001746E+01  0.37823873092E+02 -0.33175798189E+02  0.50325245830E+02  0.00000000000E+00 0. -1.
         13    1    3    3    0    0 -0.11625001746E+01 -0.37823873092E+02 -0.14485045113E+03  0.14971188989E+03  0.00000000000E+00 0.  1.
<mgrwt>
<rscale>  0 0.91222312E+02</rscale>
<asrwt>0</asrwt>
<pdfrwt beam="1">  1        1 0.16931451E-02 0.91222312E+02</pdfrwt>
<pdfrwt beam="2">  1       -1 0.29081799E-01 0.91222312E+02</pdfrwt>
<totfact> 0.70439359E+04</totfact>
</mgrwt>
</event>
<event>
 5    1  0.6027538E+000  0.9186481E+02  0.7546771E-02  0.1298398E+00
          1   -1    0    0  501    0  0.00000000000E+00  0.00000000000E+00  0.49486712831E+01  0.49486712831E+01  0.00000000000E+00 0. -1.
         -1   -1    0    0    0  501 -0.00000000000E+00 -0.00000000000E+00 -0.42633383213E+03  0.42633383213E+03  0.00000000000E+00 0.  1.
         23    2    1    2    0    0  0.00000000000E+00  0.00000000000E+00 -0.42138516085E+03  0.43128250341E+03  0.91864813549E+02 0.  0.
        -13    1    3    3    0    0 -0.44280808580E+02 -0.12126358551E+02 -0.21724409253E+03  0.22204241559E+03  0.00000000000E+00 0. -1.
         13    1    3    3    0    0  0.44280808580E+02  0.12126358551E+02 -0.20414106832E+03  0.20924008783E+03  0.00000000000E+00 0.  1.
<mgrwt>
<rscale>  0 0.91864814E+02</rscale>
<asrwt>0</asrwt>
<pdfrwt beam="1">  1        1 0.76133419E-03 0.91864814E+02</pdfrwt>
<pdfrwt beam="2">  1       -1 0.65589808E-01 0.91864814E+02</pdfrwt>
<totfact> 0.50546630E+04</totfact>
</mgrwt>
</event>
<event>
 5    1  0.6027538E+000  0.8838149E+02  0.7546771E-02  0.1306819E+00
          2   -1    0    0  501    0  0.00000000000E+00  0.00000000000E+00  0.11881799518E+03  0.11881799518E+03  0.00000000000E+00 0. -1.
         -2   -1    0    0    0  501 -0.00000000000E+00 -0.00000000000E+00 -0.16435407293E+02  0.16435407293E+02  0.00000000000E+00 0.  1.
         23    2    1    2    0    0  0.00000000000E+00  0.00000000000E+00  0.10238258789E+03  0.13525340247E+03  0.88381494546E+02 0.  0.
        -13    1    3    3    0    0  0.19488510354E+02 -0.59173844127E+01  0.11120710575E+03  0.11305679035E+03  0.00000000000E+00 0. -1.
         13    1    3    3    0    0 -0.19488510354E+02  0.59173844127E+01 -0.88245178682E+01  0.22196612122E+02  0.00000000000E+00 0.  1.
<mgrwt>
<rscale>  0 0.88381495E+02</rscale>
<asrwt>0</asrwt>
<pdfrwt beam="1">  1        2 0.18279691E-01 0.88381495E+02</pdfrwt>
<pdfrwt beam="2">  1       -2 0.25285243E-02 0.88381495E+02</pdfrwt>
<totfact> 0.14092608E+05</totfact>
</mgrwt>
</event>
<event>
 5    1  0.6027538E+000  0.9105316E+02  0.7546771E-02  0.1300321E+00
          3   -1    0    0  501    0  0.00000000000E+00  0.00000000000E+00  0.55025074318E+02  0.55025074318E+02  0.00000000000E+00 0.  1.
         -3   -1    0    0    0  501 -0.00000000000E+00 -0.00000000000E+00 -0.37667723207E+02  0.37667723207E+02  0.00000000000E+00 0. -1.
         23    2    1    2    0    0  0.00000000000E+00  0.00000000000E+00  0.17357351111E+02  0.92692797525E+02  0.91053155220E+02 0.  0.
        -13    1    3    3    0    0 -0.29926770170E+02 -0.59854001180E+01  0.43069143869E+02  0.52786245755E+02  0.00000000000E+00 0.  1.
         13    1    3    3    0    0  0.29926770170E+02  0.59854001180E+01 -0.25711792758E+02  0.39906551770E+02  0.00000000000E+00 0. -1.
<mgrwt>
<rscale>  0 0.91053155E+02</rscale>
<asrwt>0</asrwt>
<pdfrwt beam="1">  1        3 0.84653961E-02 0.91053155E+02</pdfrwt>
<pdfrwt beam="2">  1       -3 0.57950343E-02 0.91053155E+02</pdfrwt>
<totfact> 0.35353219E+04</totfact>
</mgrwt>
</event>
<event>
 5    1  0.6027538E+000  0.8012133E+02  0.7546771E-02  0.1328707E+00
          2   -1    0    0  501    0  0.00000000000E+00  0.00000000000E+00  0.46655931252E+02  0.46655931252E+02  0.00000000000E+00 0. -1.
         -2   -1    0    0    0  501 -0.00000000000E+00 -0.00000000000E+00 -0.34397706704E+02  0.34397706704E+02  0.00000000000E+00 0.  1.
         23    2    1    2    0    0  0.00000000000E+00  0.00000000000E+00  0.12258224548E+02  0.81053637955E+02  0.80121333968E+02 0.  0.
        -13    1    3    3    0    0  0.89766894274E+01  0.38873207746E+02  0.97975741267E+01  0.41081622319E+02  0.00000000000E+00 0.  1.
         13    1    3    3    0    0 -0.89766894274E+01 -0.38873207746E+02  0.24606504212E+01  0.39972015637E+02  0.00000000000E+00 0. -1.
<mgrwt>
<rscale>  0 0.80121334E+02</rscale>
<asrwt>0</asrwt>
<pdfrwt beam="1">  1        2 0.71778356E-02 0.80121334E+02</pdfrwt>
<pdfrwt beam="2">  1       -2 0.52919549E-02 0.80121334E+02</pdfrwt>
<totfact> 0.14306332E+05</totfact>
</mgrwt>
</event>
<event>
 5    1  0.6027538E+000  0.9249605E+02  0.7546771E-02  0.1296917E+00
          2   -1    0    0  501    0  0.00000000000E+00  0.00000000000E+00  0.24197439872E+03  0.24197439872E+03  0.00000000000E+00 0. -1.
         -2   -1    0    0    0  501 -0.00000000000E+00 -0.00000000000E+00 -0.88392822540E+01  0.88392822540E+01  0.00000000000E+00 0.  1.
         23    2    1    2    0    0  0.00000000000E+00  0.00000000000E+00  0.23313511646E+03  0.25081368097E+03  0.92496054154E+02 0.  0.
        -13    1    3    3    0    0 -0.23044610299E+02 -0.35495102217E+02  0.65988586098E+02  0.78392919581E+02  0.00000000000E+00 0.  1.
         13    1    3    3    0    0  0.23044610299E+02  0.35495102217E+02  0.16714653036E+03  0.17242076139E+03  0.00000000000E+00 0. -1.
<mgrwt>
<rscale>  0 0.92496054E+02</rscale>
<asrwt>0</asrwt>
<pdfrwt beam="1">  1        2 0.37226826E-01 0.92496054E+02</pdfrwt>
<pdfrwt beam="2">  1       -2 0.13598898E-02 0.92496054E+02</pdfrwt>
<totfact> 0.15957488E+05</totfact>
</mgrwt>
</event>
<event>
 5    1  0.6027538E+000  0.9015183E+02  0.7546771E-02  0.1302484E+00
         -1   -1    0    0    0  501 -0.00000000000E+00  0.00000000000E+00  0.10731331805E+03  0.10731331805E+03  0.00000000000E+00 0.  1.
          1   -1    0    0  501    0  0.00000000000E+00 -0.00000000000E+00 -0.18933700485E+02  0.18933700485E+02  0.00000000000E+00 0. -1.
         23    2    1    2    0    0  0.00000000000E+00  0.00000000000E+00  0.88379617565E+02  0.12624701854E+03  0.90151832418E+02 0.  0.
        -13    1    3    3    0    0  0.20337815262E+02 -0.36688918423E+02  0.67291223622E+02  0.79295726501E+02  0.00000000000E+00 0.  1.
         13    1    3    3    0    0 -0.20337815262E+02  0.36688918423E+02  0.21088393943E+02  0.46951292035E+02  0.00000000000E+00 0. -1.
<mgrwt>
<rscale>  0 0.90151832E+02</rscale>
<asrwt>0</asrwt>
<pdfrwt beam="2">  1        1 0.29128771E-02 0.90151832E+02</pdfrwt>
<pdfrwt beam="1">  1       -1 0.16509741E-01 0.90151832E+02</pdfrwt>
<totfact> 0.82664761E+04</totfact>
</mgrwt>
</event>
<event>
 5    1  0.6027538E+000  0.1269667E+03  0.7546771E-02  0.1232027E+00
          2   -1    0    0  501    0  0.00000000000E+00  0.00000000000E+00  0.28975123239E+02  0.28975123239E+02  0.00000000000E+00 0. -1.
         -2   -1    0    0    0  501 -0.00000000000E+00 -0.00000000000E+00 -0.13908942035E+03  0.13908942035E+03  0.00000000000E+00 0.  1.
         23    2    1    2    0    0  0.00000000000E+00  0.00000000000E+00 -0.11011429711E+03  0.16806454359E+03  0.12696665855E+03 0.  0.
        -13    1    3    3    0    0  0.60951281442E+02 -0.12494202242E+02 -0.38367659656E+02  0.73097476746E+02  0.00000000000E+00 0. -1.
         13    1    3    3    0    0 -0.60951281442E+02  0.12494202242E+02 -0.71746637458E+02  0.94967066847E+02  0.00000000000E+00 0.  1.
<mgrwt>
<rscale>  0 0.12696666E+03</rscale>
<asrwt>0</asrwt>
<pdfrwt beam="1">  1        2 0.44577113E-02 0.12696666E+03</pdfrwt>
<pdfrwt beam="2">  1       -2 0.21398372E-01 0.12696666E+03</pdfrwt>
<totfact> 0.31153036E+04</totfact>
</mgrwt>
</event>
<event>
 5    1  0.6027538E+000  0.9159142E+02  0.7546771E-02  0.1299043E+00
          1   -1    0    0  501    0  0.00000000000E+00  0.00000000000E+00  0.78789556180E+01  0.78789556180E+01  0.00000000000E+00 0. -1.
         -1   -1    0    0    0  501 -0.00000000000E+00 -0.00000000000E+00 -0.26618338051E+03  0.26618338051E+03  0.00000000000E+00 0.  1.
         23    2    1    2    0    0  0.00000000000E+00  0.00000000000E+00 -0.25830442489E+03  0.27406233612E+03  0.91591419713E+02 0.  0.
        -13    1    3    3    0    0  0.42694268578E-01 -0.39134879827E+02 -0.57983335882E+02  0.69954327113E+02  0.00000000000E+00 0. -1.
         13    1    3    3    0    0 -0.42694268578E-01  0.39134879827E+02 -0.20032108901E+03  0.20410800901E+03  0.00000000000E+00 0.  1.
<mgrwt>
<rscale>  0 0.91591420E+02</rscale>
<asrwt>0</asrwt>
<pdfrwt beam="1">  1        1 0.12121471E-02 0.91591420E+02</pdfrwt>
<pdfrwt beam="2">  1       -1 0.40951288E-01 0.91591420E+02</pdfrwt>
<totfact> 0.62619053E+04</totfact>
</mgrwt>
</event>
<event>
 5    1  0.6027538E+000  0.7645486E+02  0.7546771E-02  0.1339424E+00
          1   -1    0    0  501    0  0.00000000000E+00  0.00000000000E+00  0.50325728510E+02  0.50325728510E+02  0.00000000000E+00 0. -1.
         -1   -1    0    0    0  501 -0.00000000000E+00 -0.00000000000E+00 -0.29037563793E+02  0.29037563793E+02  0.00000000000E+00 0.  1.
         23    2    1    2    0    0  0.00000000000E+00  0.00000000000E+00  0.21288164717E+02  0.79363292303E+02  0.76454863862E+02 0.  0.
        -13    1    3    3    0    0  0.16815377448E+02 -0.33221503619E+02  0.19628466489E+02  0.42091589636E+02  0.00000000000E+00 0. -1.
         13    1    3    3    0    0 -0.16815377448E+02  0.33221503619E+02  0.16596982279E+01  0.37271702666E+02  0.00000000000E+00 0.  1.
<mgrwt>
<rscale>  0 0.76454864E+02</rscale>
<asrwt>0</asrwt>
<pdfrwt beam="1">  1        1 0.77424198E-02 0.76454864E+02</pdfrwt>
<pdfrwt beam="2">  1       -1 0.44673175E-02 0.76454864E+02</pdfrwt>
<totfact> 0.15246526E+05</totfact>
</mgrwt>
</event>
<event>
 5    1  0.6027538E+000  0.6759549E+02  0.7546771E-02  0.1368466E+00
         -1   -1    0    0    0  501 -0.00000000000E+00  0.00000000000E+00  0.46435338117E+02  0.46435338117E+02  0.00000000000E+00 0.  1.
          1   -1    0    0  501    0  0.00000000000E+00 -0.00000000000E+00 -0.24599528629E+02  0.24599528629E+02  0.00000000000E+00 0. -1.
         23    2    1    2    0    0  0.00000000000E+00  0.00000000000E+00  0.21835809488E+02  0.71034866746E+02  0.67595485926E+02 0.  0.
        -13    1    3    3    0    0  0.18041377432E+02  0.16863629361E+02  0.35166057762E+02  0.42971210286E+02  0.00000000000E+00 0.  1.
         13    1    3    3    0    0 -0.18041377432E+02 -0.16863629361E+02 -0.13330248274E+02  0.28063656460E+02  0.00000000000E+00 0. -1.
<mgrwt>
<rscale>  0 0.67595486E+02</rscale>
<asrwt>0</asrwt>
<pdfrwt beam="2">  1        1 0.37845429E-02 0.67595486E+02</pdfrwt>
<pdfrwt beam="1">  1       -1 0.71438982E-02 0.67595486E+02</pdfrwt>
<totfact> 0.19515165E+05</totfact>
</mgrwt>
</event>
<event>
 5    1  0.6027538E+000  0.9022115E+02  0.7546771E-02  0.1302317E+00
          2   -1    0    0  501    0  0.00000000000E+00  0.00000000000E+00  0.13504011056E+03  0.13504011056E+03  0.00000000000E+00 0. -1.
         -2   -1    0    0    0  501 -0.00000000000E+00 -0.00000000000E+00 -0.15069328752E+02  0.15069328752E+02  0.00000000000E+00 0.  1.
         23    2    1    2    0    0  0.00000000000E+00  0.00000000000E+00  0.11997078180E+03  0.15010943931E+03  0.90221146540E+02 0.  0.
        -13    1    3    3    0    0  0.38866143707E+02 -0.55351491330E+01  0.96955667131E+02  0.10460218158E+03  0.00000000000E+00 0. -1.
         13    1    3    3    0    0 -0.38866143707E+02  0.55351491330E+01  0.23015114673E+02  0.45507257729E+02  0.00000000000E+00 0.  1.
<mgrwt>
<rscale>  0 0.90221147E+02</rscale>
<asrwt>0</asrwt>
<pdfrwt beam="1">  1        2 0.20775401E-01 0.90221147E+02</pdfrwt>
<pdfrwt beam="2">  1       -2 0.23183584E-02 0.90221147E+02</pdfrwt>
<totfact> 0.13888630E+05</totfact>
</mgrwt>
</event>
<event>
 5    1  0.6027538E+000  0.9105371E+02  0.7546771E-02  0.1300320E+00
         -1   -1    0    0    0  501 -0.00000000000E+00  0.00000000000E+00  0.52906619370E+02  0.52906619370E+02  0.00000000000E+00 0.  1.
          1   -1    0    0  501    0  0.00000000000E+00 -0.00000000000E+00 -0.39176471222E+02  0.39176471222E+02  0.00000000000E+00 0. -1.
         23    2    1    2    0    0  0.00000000000E+00  0.00000000000E+00  0.13730148148E+02  0.92083090592E+02  0.91053712746E+02 0.  0.
        -13    1    3    3    0    0 -0.85127614622E+01 -0.25713196217E+02  0.43871922227E+02  0.51559491147E+02  0.00000000000E+00 0.  1.
         13    1    3    3    0    0  0.85127614622E+01  0.25713196217E+02 -0.30141774079E+02  0.40523599445E+02  0.00000000000E+00 0. -1.
<mgrwt>
<rscale>  0 0.91053713E+02</rscale>
<asrwt>0</asrwt>
<pdfrwt beam="2">  1        1 0.60271494E-02 0.91053713E+02</pdfrwt>
<pdfrwt beam="1">  1       -1 0.81394799E-02 0.91053713E+02</pdfrwt>
<totfact> 0.90723438E+04</totfact>
</mgrwt>
</event>
<event>
 5    1  0.6027538E+000  0.9383186E+02  0.7546771E-02  0.1293829E+00
          2   -1    0    0  501    0  0.00000000000E+00  0.00000000000E+00  0.89552660778E+02  0.89552660778E+02  0.00000000000E+00 0. -1.
         -2   -1    0    0    0  501 -0.00000000000E+00 -0.00000000000E+00 -0.24578886722E+02  0.24578886722E+02  0.00000000000E+00 0.  1.
         23    2    1    2    0    0  0.00000000000E+00  0.00000000000E+00  0.64973774056E+02  0.11413154750E+03  0.93831864629E+02 0.  0.
        -13    1    3    3    0    0 -0.23552283463E+02  0.15438770400E+02  0.78128680749E+02  0.83049120666E+02  0.00000000000E+00 0. -1.
         13    1    3    3    0    0  0.23552283463E+02 -0.15438770400E+02 -0.13154906694E+02  0.31082426834E+02  0.00000000000E+00 0.  1.
<mgrwt>
<rscale>  0 0.93831865E+02</rscale>
<asrwt>0</asrwt>
<pdfrwt beam="1">  1        2 0.13777332E-01 0.93831865E+02</pdfrwt>
<pdfrwt beam="2">  1       -2 0.37813672E-02 0.93831865E+02</pdfrwt>
<totfact> 0.10959997E+05</totfact>
</mgrwt>
</event>
<event>
 5    1  0.6027538E+000  0.9108892E+02  0.7546771E-02  0.1300236E+00
         -4   -1    0    0    0  501 -0.00000000000E+00  0.00000000000E+00  0.24061105823E+03  0.24061105823E+03  0.00000000000E+00 0.  1.
          4   -1    0    0  501    0  0.00000000000E+00 -0.00000000000E+00 -0.86209587555E+01  0.86209587555E+01  0.00000000000E+00 0. -1.
         23    2    1    2    0    0  0.00000000000E+00  0.00000000000E+00  0.23199009948E+03  0.24923201699E+03  0.91088923787E+02 0.  0.
        -13    1    3    3    0    0 -0.41908542876E+02  0.11475117540E+02  0.15334047158E+03  0.15937786707E+03  0.00000000000E+00 0.  1.
         13    1    3    3    0    0  0.41908542876E+02 -0.11475117540E+02  0.78649627901E+02  0.89854149918E+02  0.00000000000E+00 0. -1.
<mgrwt>
<rscale>  0 0.91088924E+02</rscale>
<asrwt>0</asrwt>
<pdfrwt beam="2">  1        4 0.13263015E-02 0.91088924E+02</pdfrwt>
<pdfrwt beam="1">  1       -4 0.37017081E-01 0.91088924E+02</pdfrwt>
<totfact> 0.19541229E+04</totfact>
</mgrwt>
</event>
<event>
 5    1  0.6027538E+000  0.8905942E+02  0.7546771E-02  0.1305146E+00
          4   -1    0    0  501    0  0.00000000000E+00  0.00000000000E+00  0.10796499519E+03  0.10796499519E+03  0.00000000000E+00 0.  1.
         -4   -1    0    0    0  501 -0.00000000000E+00 -0.00000000000E+00 -0.18366094058E+02  0.18366094058E+02  0.00000000000E+00 0. -1.
         23    2    1    2    0    0  0.00000000000E+00  0.00000000000E+00  0.89598901129E+02  0.12633108924E+03  0.89059424130E+02 0.  0.
        -13    1    3    3    0    0 -0.19165608104E-01 -0.32997353911E+02  0.87214111916E+02  0.93247665117E+02  0.00000000000E+00 0.  1.
         13    1    3    3    0    0  0.19165608104E-01  0.32997353911E+02  0.23847892128E+01  0.33083424128E+02  0.00000000000E+00 0. -1.
<mgrwt>
<rscale>  0 0.89059424E+02</rscale>
<asrwt>0</asrwt>
<pdfrwt beam="1">  1        4 0.16609999E-01 0.89059424E+02</pdfrwt>
<pdfrwt beam="2">  1       -4 0.28255530E-02 0.89059424E+02</pdfrwt>
<totfact> 0.26544567E+04</totfact>
</mgrwt>
</event>
<event>
 5    1  0.6027538E+000  0.9242778E+02  0.7546771E-02  0.1297077E+00
         -1   -1    0    0    0  501 -0.00000000000E+00  0.00000000000E+00  0.49416928426E+02  0.49416928426E+02  0.00000000000E+00 0.  1.
          1   -1    0    0  501    0  0.00000000000E+00 -0.00000000000E+00 -0.43218463027E+02  0.43218463027E+02  0.00000000000E+00 0. -1.
         23    2    1    2    0    0  0.00000000000E+00  0.00000000000E+00  0.61984653987E+01  0.92635391453E+02  0.92427781410E+02 0.  0.
        -13    1    3    3    0    0 -0.39563256364E+02  0.21241955096E+02 -0.78455427141E+01  0.45585353469E+02  0.00000000000E+00 0. -1.
         13    1    3    3    0    0  0.39563256364E+02 -0.21241955096E+02  0.14044008113E+02  0.47050037984E+02  0.00000000000E+00 0.  1.
<mgrwt>
<rscale>  0 0.92427781E+02</rscale>
<asrwt>0</asrwt>
<pdfrwt beam="2">  1        1 0.66489943E-02 0.92427781E+02</pdfrwt>
<pdfrwt beam="1">  1       -1 0.76026044E-02 0.92427781E+02</pdfrwt>
<totfact> 0.88273823E+04</totfact>
</mgrwt>
</event>
<event>
 5    1  0.6027538E+000  0.9045474E+02  0.7546771E-02  0.1301754E+00
         -1   -1    0    0    0  501 -0.00000000000E+00  0.00000000000E+00  0.66537682993E+01  0.66537682993E+01  0.00000000000E+00 0. -1.
          1   -1    0    0  501    0  0.00000000000E+00 -0.00000000000E+00 -0.30742205606E+03  0.30742205606E+03  0.00000000000E+00 0.  1.
         23    2    1    2    0    0  0.00000000000E+00  0.00000000000E+00 -0.30076828776E+03  0.31407582436E+03  0.90454742964E+02 0.  0.
        -13    1    3    3    0    0  0.41101770303E+02 -0.31661947066E+01 -0.85785141727E+02  0.95175999350E+02  0.00000000000E+00 0. -1.
         13    1    3    3    0    0 -0.41101770303E+02  0.31661947066E+01 -0.21498314604E+03  0.21889982501E+03  0.00000000000E+00 0.  1.
<mgrwt>
<rscale>  0 0.90454743E+02</rscale>
<asrwt>0</asrwt>
<pdfrwt beam="2">  1        1 0.47295694E-01 0.90454743E+02</pdfrwt>
<pdfrwt beam="1">  1       -1 0.10236568E-02 0.90454743E+02</pdfrwt>
<totfact> 0.13147104E+05</totfact>
</mgrwt>
</event>
<event>
 5    1  0.6027538E+000  0.9268433E+02  0.7546771E-02  0.1296478E+00
          1   -1    0    0  501    0  0.00000000000E+00  0.00000000000E+00  0.51072106540E+02  0.51072106540E+02  0.00000000000E+00 0. -1.
         -1   -1    0    0    0  501 -0.00000000000E+00 -0.00000000000E+00 -0.42050276103E+02  0.42050276103E+02  0.00000000000E+00 0.  1.
         23    2    1    2    0    0  0.00000000000E+00  0.00000000000E+00  0.90218304373E+01  0.93122382643E+02  0.92684328366E+02 0.  0.
        -13    1    3    3    0    0 -0.38998647004E+02  0.11906167031E+02 -0.17614629430E+02  0.44417636717E+02  0.00000000000E+00 0.  1.
         13    1    3    3    0    0  0.38998647004E+02 -0.11906167031E+02  0.26636459867E+02  0.48704745927E+02  0.00000000000E+00 0. -1.
<mgrwt>
<rscale>  0 0.92684328E+02</rscale>
<asrwt>0</asrwt>
<pdfrwt beam="1">  1        1 0.78572472E-02 0.92684328E+02</pdfrwt>
<pdfrwt beam="2">  1       -1 0.64692732E-02 0.92684328E+02</pdfrwt>
<totfact> 0.89843171E+04</totfact>
</mgrwt>
</event>
<event>
 5    1  0.6027538E+000  0.8742729E+02  0.7546771E-02  0.1309204E+00
         -1   -1    0    0    0  501 -0.00000000000E+00  0.00000000000E+00  0.18820312746E+02  0.18820312746E+02  0.00000000000E+00 0.  1.
          1   -1    0    0  501    0  0.00000000000E+00 -0.00000000000E+00 -0.10153298794E+03  0.10153298794E+03  0.00000000000E+00 0. -1.
         23    2    1    2    0    0  0.00000000000E+00  0.00000000000E+00 -0.82712675192E+02  0.12035330068E+03  0.87427286062E+02 0.  0.
        -13    1    3    3    0    0  0.43607569495E+02  0.27670539879E+00 -0.45528603284E+02  0.63044035405E+02  0.00000000000E+00 0.  1.
         13    1    3    3    0    0 -0.43607569495E+02 -0.27670539879E+00 -0.37184071908E+02  0.57309265279E+02  0.00000000000E+00 0. -1.
<mgrwt>
<rscale>  0 0.87427286E+02</rscale>
<asrwt>0</asrwt>
<pdfrwt beam="2">  1        1 0.15620459E-01 0.87427286E+02</pdfrwt>
<pdfrwt beam="1">  1       -1 0.28954328E-02 0.87427286E+02</pdfrwt>
<totfact> 0.11736458E+05</totfact>
</mgrwt>
</event>
<event>
 5    1  0.6027538E+000  0.8919436E+02  0.7546771E-02  0.1304814E+00
          3   -1    0    0  501    0  0.00000000000E+00  0.00000000000E+00  0.34165468408E+02  0.34165468408E+02  0.00000000000E+00 0. -1.
         -3   -1    0    0    0  501 -0.00000000000E+00 -0.00000000000E+00 -0.58213992151E+02  0.58213992151E+02  0.00000000000E+00 0.  1.
         23    2    1    2    0    0  0.00000000000E+00  0.00000000000E+00 -0.24048523742E+02  0.92379460559E+02  0.89194356542E+02 0.  0.
        -13    1    3    3    0    0 -0.32947036330E+02 -0.16638036018E+02 -0.37949647351E+02  0.52938711541E+02  0.00000000000E+00 0.  1.
         13    1    3    3    0    0  0.32947036330E+02  0.16638036018E+02  0.13901123609E+02  0.39440749018E+02  0.00000000000E+00 0. -1.
<mgrwt>
<rscale>  0 0.89194357E+02</rscale>
<asrwt>0</asrwt>
<pdfrwt beam="1">  1        3 0.52562259E-02 0.89194357E+02</pdfrwt>
<pdfrwt beam="2">  1       -3 0.89559988E-02 0.89194357E+02</pdfrwt>
<totfact> 0.37416340E+04</totfact>
</mgrwt>
</event>
<event>
 5    1  0.6027538E+000  0.8969193E+02  0.7546771E-02  0.1303599E+00
         -3   -1    0    0    0  501 -0.00000000000E+00  0.00000000000E+00  0.27130097380E+02  0.27130097380E+02  0.00000000000E+00 0.  1.
          3   -1    0    0  501    0  0.00000000000E+00 -0.00000000000E+00 -0.74130244479E+02  0.74130244479E+02  0.00000000000E+00 0. -1.
         23    2    1    2    0    0  0.00000000000E+00  0.00000000000E+00 -0.47000147099E+02  0.10126034186E+03  0.89691933896E+02 0.  0.
        -13    1    3    3    0    0 -0.18987136577E+02  0.17317059278E+02  0.17993087352E+02  0.31371054969E+02  0.00000000000E+00 0.  1.
         13    1    3    3    0    0  0.18987136577E+02 -0.17317059278E+02 -0.64993234452E+02  0.69889286889E+02  0.00000000000E+00 0. -1.
<mgrwt>
<rscale>  0 0.89691934E+02</rscale>
<asrwt>0</asrwt>
<pdfrwt beam="2">  1        3 0.11404653E-01 0.89691934E+02</pdfrwt>
<pdfrwt beam="1">  1       -3 0.41738611E-02 0.89691934E+02</pdfrwt>
<totfact> 0.36154273E+04</totfact>
</mgrwt>
</event>
<event>
 5    1  0.6027538E+000  0.1190968E+03  0.7546771E-02  0.1244595E+00
         -4   -1    0    0    0  501 -0.00000000000E+00  0.00000000000E+00  0.10193371282E+02  0.10193371282E+02  0.00000000000E+00 0.  1.
          4   -1    0    0  501    0  0.00000000000E+00 -0.00000000000E+00 -0.34787412145E+03  0.34787412145E+03  0.00000000000E+00 0. -1.
         23    2    1    2    0    0  0.00000000000E+00  0.00000000000E+00 -0.33768075016E+03  0.35806749273E+03  0.11909676871E+03 0.  0.
        -13    1    3    3    0    0  0.48936139827E+02 -0.15985946237E+02 -0.78859636327E+02  0.94176103657E+02  0.00000000000E+00 0.  1.
         13    1    3    3    0    0 -0.48936139827E+02  0.15985946237E+02 -0.25882111384E+03  0.26389138907E+03  0.00000000000E+00 0. -1.
<mgrwt>
<rscale>  0 0.11909677E+03</rscale>
<asrwt>0</asrwt>
<pdfrwt beam="2">  1        4 0.53519097E-01 0.11909677E+03</pdfrwt>
<pdfrwt beam="1">  1       -4 0.15682109E-02 0.11909677E+03</pdfrwt>
<totfact> 0.78670729E+03</totfact>
</mgrwt>
</event>
<event>
 5    1  0.6027538E+000  0.8741107E+02  0.7546771E-02  0.1309245E+00
          1   -1    0    0  501    0  0.00000000000E+00  0.00000000000E+00  0.22171634184E+02  0.22171634184E+02  0.00000000000E+00 0. -1.
         -1   -1    0    0    0  501 -0.00000000000E+00 -0.00000000000E+00 -0.86153939502E+02  0.86153939502E+02  0.00000000000E+00 0.  1.
         23    2    1    2    0    0  0.00000000000E+00  0.00000000000E+00 -0.63982305318E+02  0.10832557369E+03  0.87411066352E+02 0.  0.
        -13    1    3    3    0    0 -0.55470953493E+01  0.42083271188E+02 -0.44893909850E+02  0.61783777177E+02  0.00000000000E+00 0. -1.
         13    1    3    3    0    0  0.55470953493E+01 -0.42083271188E+02 -0.19088395468E+02  0.46541796509E+02  0.00000000000E+00 0.  1.
<mgrwt>
<rscale>  0 0.87411066E+02</rscale>
<asrwt>0</asrwt>
<pdfrwt beam="1">  1        1 0.34110206E-02 0.87411066E+02</pdfrwt>
<pdfrwt beam="2">  1       -1 0.13254452E-01 0.87411066E+02</pdfrwt>
<totfact> 0.93117649E+04</totfact>
</mgrwt>
</event>
<event>
 5    1  0.6027538E+000  0.8593895E+02  0.7546771E-02  0.1312995E+00
         -2   -1    0    0    0  501 -0.00000000000E+00  0.00000000000E+00  0.13788675499E+03  0.13788675499E+03  0.00000000000E+00 0.  1.
          2   -1    0    0  501    0  0.00000000000E+00 -0.00000000000E+00 -0.13390521588E+02  0.13390521588E+02  0.00000000000E+00 0. -1.
         23    2    1    2    0    0  0.00000000000E+00  0.00000000000E+00  0.12449623340E+03  0.15127727658E+03  0.85938945058E+02 0.  0.
        -13    1    3    3    0    0 -0.36944554281E+02 -0.36715814853E-01  0.10087326482E+03  0.10742586744E+03  0.00000000000E+00 0.  1.
         13    1    3    3    0    0  0.36944554281E+02  0.36715814853E-01  0.23622968582E+02  0.43851409142E+02  0.00000000000E+00 0. -1.
<mgrwt>
<rscale>  0 0.85938945E+02</rscale>
<asrwt>0</asrwt>
<pdfrwt beam="2">  1        2 0.20600803E-02 0.85938945E+02</pdfrwt>
<pdfrwt beam="1">  1       -2 0.21213346E-01 0.85938945E+02</pdfrwt>
<totfact> 0.83560692E+04</totfact>
</mgrwt>
</event>
<event>
 5    1  0.6027538E+000  0.8956509E+02  0.7546771E-02  0.1303908E+00
         -1   -1    0    0    0  501 -0.00000000000E+00  0.00000000000E+00  0.37682257227E+03  0.37682257227E+03  0.00000000000E+00 0.  1.
          1   -1    0    0  501    0  0.00000000000E+00 -0.00000000000E+00 -0.53220704972E+01  0.53220704972E+01  0.00000000000E+00 0. -1.
         23    2    1    2    0    0  0.00000000000E+00  0.00000000000E+00  0.37150050177E+03  0.38214464277E+03  0.89565089059E+02 0.  0.
        -13    1    3    3    0    0  0.27740864141E+02  0.33629786228E+02  0.22946190707E+03  0.23356644635E+03  0.00000000000E+00 0.  1.
         13    1    3    3    0    0 -0.27740864141E+02 -0.33629786228E+02  0.14203859470E+03  0.14857819641E+03  0.00000000000E+00 0. -1.
<mgrwt>
<rscale>  0 0.89565089E+02</rscale>
<asrwt>0</asrwt>
<pdfrwt beam="2">  1        1 0.81878037E-03 0.89565089E+02</pdfrwt>
<pdfrwt beam="1">  1       -1 0.57972683E-01 0.89565089E+02</pdfrwt>
<totfact> 0.57499886E+04</totfact>
</mgrwt>
</event>
<event>
 5    1  0.6027538E+000  0.9082362E+02  0.7546771E-02  0.1300869E+00
          2   -1    0    0  501    0  0.00000000000E+00  0.00000000000E+00  0.15021353046E+03  0.15021353046E+03  0.00000000000E+00 0. -1.
         -2   -1    0    0    0  501 -0.00000000000E+00 -0.00000000000E+00 -0.13728672456E+02  0.13728672456E+02  0.00000000000E+00 0.  1.
         23    2    1    2    0    0  0.00000000000E+00  0.00000000000E+00  0.13648485800E+03  0.16394220292E+03  0.90823617152E+02 0.  0.
        -13    1    3    3    0    0 -0.57282473728E+01  0.44988370206E+02  0.72462601642E+02  0.85484471739E+02  0.00000000000E+00 0. -1.
         13    1    3    3    0    0  0.57282473728E+01 -0.44988370206E+02  0.64022256362E+02  0.78457731177E+02  0.00000000000E+00 0.  1.
<mgrwt>
<rscale>  0 0.90823617E+02</rscale>
<asrwt>0</asrwt>
<pdfrwt beam="1">  1        2 0.23109773E-01 0.90823617E+02</pdfrwt>
<pdfrwt beam="2">  1       -2 0.21121036E-02 0.90823617E+02</pdfrwt>
<totfact> 0.14135810E+05</totfact>
</mgrwt>
</event>
<event>
 5    1  0.6027538E+000  0.9106206E+02  0.7546771E-02  0.1300300E+00
          1   -1    0    0  501    0  0.00000000000E+00  0.00000000000E+00  0.13768271093E+02  0.13768271093E+02  0.00000000000E+00 0. -1.
         -1   -1    0    0    0  501 -0.00000000000E+00 -0.00000000000E+00 -0.15056897513E+03  0.15056897513E+03  0.00000000000E+00 0.  1.
         23    2    1    2    0    0  0.00000000000E+00  0.00000000000E+00 -0.13680070403E+03  0.16433724622E+03  0.91062055055E+02 0.  0.
        -13    1    3    3    0    0 -0.20787383960E+02 -0.20468305861E+02 -0.53139861857E+01  0.29653082907E+02  0.00000000000E+00 0. -1.
         13    1    3    3    0    0  0.20787383960E+02  0.20468305861E+02 -0.13148671785E+03  0.13468416331E+03  0.00000000000E+00 0.  1.
<mgrwt>
<rscale>  0 0.91062055E+02</rscale>
<asrwt>0</asrwt>
<pdfrwt beam="1">  1        1 0.21181956E-02 0.91062055E+02</pdfrwt>
<pdfrwt beam="2">  1       -1 0.23164457E-01 0.91062055E+02</pdfrwt>
<totfact> 0.74967112E+04</totfact>
</mgrwt>
</event>
<event>
 5    1  0.6027538E+000  0.9380687E+02  0.7546771E-02  0.1293886E+00
         -1   -1    0    0    0  501 -0.00000000000E+00  0.00000000000E+00  0.97075039378E+01  0.97075039378E+01  0.00000000000E+00 0.  1.
          1   -1    0    0  501    0  0.00000000000E+00 -0.00000000000E+00 -0.22662179726E+03  0.22662179726E+03  0.00000000000E+00 0. -1.
         23    2    1    2    0    0  0.00000000000E+00  0.00000000000E+00 -0.21691429332E+03  0.23632930119E+03  0.93806865191E+02 0.  0.
        -13    1    3    3    0    0  0.29752435059E+02  0.17030948111E+02 -0.27812553404E+02  0.44145200332E+02  0.00000000000E+00 0.  1.
         13    1    3    3    0    0 -0.29752435059E+02 -0.17030948111E+02 -0.18910173991E+03  0.19218410086E+03  0.00000000000E+00 0. -1.
<mgrwt>
<rscale>  0 0.93806865E+02</rscale>
<asrwt>0</asrwt>
<pdfrwt beam="2">  1        1 0.34864889E-01 0.93806865E+02</pdfrwt>
<pdfrwt beam="1">  1       -1 0.14934623E-02 0.93806865E+02</pdfrwt>
<totfact> 0.11241477E+05</totfact>
</mgrwt>
</event>
<event>
 5    1  0.6027538E+000  0.9006119E+02  0.7546771E-02  0.1302704E+00
         -2   -1    0    0    0  501 -0.00000000000E+00  0.00000000000E+00  0.25405937620E+02  0.25405937620E+02  0.00000000000E+00 0.  1.
          2   -1    0    0  501    0  0.00000000000E+00 -0.00000000000E+00 -0.79814203368E+02  0.79814203368E+02  0.00000000000E+00 0. -1.
         23    2    1    2    0    0  0.00000000000E+00  0.00000000000E+00 -0.54408265747E+02  0.10522014099E+03  0.90061194129E+02 0.  0.
        -13    1    3    3    0    0 -0.31795905145E+02 -0.20720230163E+02  0.11127587697E+01  0.37967693557E+02  0.00000000000E+00 0.  1.
         13    1    3    3    0    0  0.31795905145E+02  0.20720230163E+02 -0.55521024517E+02  0.67252447431E+02  0.00000000000E+00 0. -1.
<mgrwt>
<rscale>  0 0.90061194E+02</rscale>
<asrwt>0</asrwt>
<pdfrwt beam="2">  1        2 0.12279108E-01 0.90061194E+02</pdfrwt>
<pdfrwt beam="1">  1       -2 0.39086059E-02 0.90061194E+02</pdfrwt>
<totfact> 0.11876823E+05</totfact>
</mgrwt>
</event>
<event>
 5    1  0.6027538E+000  0.8813387E+02  0.7546771E-02  0.1307435E+00
          2   -1    0    0  501    0  0.00000000000E+00  0.00000000000E+00  0.67957693307E+02  0.67957693307E+02  0.00000000000E+00 0. -1.
         -2   -1    0    0    0  501 -0.00000000000E+00 -0.00000000000E+00 -0.28575051914E+02  0.28575051914E+02  0.00000000000E+00 0.  1.
         23    2    1    2    0    0  0.00000000000E+00  0.00000000000E+00  0.39382641393E+02  0.96532745221E+02  0.88133866685E+02 0.  0.
        -13    1    3    3    0    0  0.34940597161E+02 -0.20579862208E+02  0.38583795916E+02  0.55973970430E+02  0.00000000000E+00 0. -1.
         13    1    3    3    0    0 -0.34940597161E+02  0.20579862208E+02  0.79884547660E+00  0.40558774791E+02  0.00000000000E+00 0.  1.
<mgrwt>
<rscale>  0 0.88133867E+02</rscale>
<asrwt>0</asrwt>
<pdfrwt beam="1">  1        2 0.10455030E-01 0.88133867E+02</pdfrwt>
<pdfrwt beam="2">  1       -2 0.43961619E-02 0.88133867E+02</pdfrwt>
<totfact> 0.12062377E+05</totfact>
</mgrwt>
</event>
<event>
 5    1  0.6027538E+000  0.9045520E+02  0.7546771E-02  0.1301753E+00
          1   -1    0    0  501    0  0.00000000000E+00  0.00000000000E+00  0.22961608733E+02  0.22961608733E+02  0.00000000000E+00 0. -1.
         -1   -1    0    0    0  501 -0.00000000000E+00 -0.00000000000E+00 -0.89085043640E+02  0.89085043640E+02  0.00000000000E+00 0.  1.
         23    2    1    2    0    0  0.00000000000E+00  0.00000000000E+00 -0.66123434907E+02  0.11204665237E+03  0.90455202527E+02 0.  0.
        -13    1    3    3    0    0 -0.92321120199E+01  0.19773248664E+02  0.16008892717E+02  0.27064698430E+02  0.00000000000E+00 0. -1.
         13    1    3    3    0    0  0.92321120199E+01 -0.19773248664E+02 -0.82132327624E+02  0.84981953944E+02  0.00000000000E+00 0.  1.
<mgrwt>
<rscale>  0 0.90455203E+02</rscale>
<asrwt>0</asrwt>
<pdfrwt beam="1">  1        1 0.35325552E-02 0.90455203E+02</pdfrwt>
<pdfrwt beam="2">  1       -1 0.13705391E-01 0.90455203E+02</pdfrwt>
<totfact> 0.84803639E+04</totfact>
</mgrwt>
</event>
<event>
 5    1  0.6027538E+000  0.9200279E+02  0.7546771E-02  0.1298073E+00
         -2   -1    0    0    0  501 -0.00000000000E+00  0.00000000000E+00  0.72872949610E+01  0.72872949610E+01  0.00000000000E+00 0.  1.
          2   -1    0    0  501    0  0.00000000000E+00 -0.00000000000E+00 -0.29038597152E+03  0.29038597152E+03  0.00000000000E+00 0. -1.
         23    2    1    2    0    0  0.00000000000E+00  0.00000000000E+00 -0.28309867656E+03  0.29767326648E+03  0.92002787501E+02 0.  0.
        -13    1    3    3    0    0  0.82003769139E+01 -0.39178481436E+02 -0.68201003805E+02  0.79079558099E+02  0.00000000000E+00 0. -1.
         13    1    3    3    0    0 -0.82003769139E+01  0.39178481436E+02 -0.21489767275E+03  0.21859370838E+03  0.00000000000E+00 0.  1.
<mgrwt>
<rscale>  0 0.92002788E+02</rscale>
<asrwt>0</asrwt>
<pdfrwt beam="2">  1        2 0.44674765E-01 0.92002788E+02</pdfrwt>
<pdfrwt beam="1">  1       -2 0.11211223E-02 0.92002788E+02</pdfrwt>
<totfact> 0.17326534E+05</totfact>
</mgrwt>
</event>
<event>
 5    1  0.6027538E+000  0.9332895E+02  0.7546771E-02  0.1294985E+00
         -1   -1    0    0    0  501 -0.00000000000E+00  0.00000000000E+00  0.30254603197E+02  0.30254603197E+02  0.00000000000E+00 0.  1.
          1   -1    0    0  501    0  0.00000000000E+00 -0.00000000000E+00 -0.71974931698E+02  0.71974931698E+02  0.00000000000E+00 0. -1.
         23    2    1    2    0    0  0.00000000000E+00  0.00000000000E+00 -0.41720328501E+02  0.10222953489E+03  0.93328945106E+02 0.  0.
        -13    1    3    3    0    0  0.27041443858E+02 -0.87221001672E+01  0.19687070891E+02  0.34567260197E+02  0.00000000000E+00 0.  1.
         13    1    3    3    0    0 -0.27041443858E+02  0.87221001672E+01 -0.61407399392E+02  0.67662274698E+02  0.00000000000E+00 0. -1.
<mgrwt>
<rscale>  0 0.93328945E+02</rscale>
<asrwt>0</asrwt>
<pdfrwt beam="2">  1        1 0.11073066E-01 0.93328945E+02</pdfrwt>
<pdfrwt beam="1">  1       -1 0.46545543E-02 0.93328945E+02</pdfrwt>
<totfact> 0.92908144E+04</totfact>
</mgrwt>
</event>
<event>
 5    1  0.6027538E+000  0.9128587E+02  0.7546771E-02  0.1299767E+00
         -1   -1    0    0    0  501 -0.00000000000E+00  0.00000000000E+00  0.80963557867E+01  0.80963557867E+01  0.00000000000E+00 0.  1.
          1   -1    0    0  501    0  0.00000000000E+00 -0.00000000000E+00 -0.25731050105E+03  0.25731050105E+03  0.00000000000E+00 0. -1.
         23    2    1    2    0    0  0.00000000000E+00  0.00000000000E+00 -0.24921414527E+03  0.26540685684E+03  0.91285866686E+02 0.  0.
        -13    1    3    3    0    0 -0.38329082636E+02  0.14113783797E+02 -0.65381174093E+02  0.77090955335E+02  0.00000000000E+00 0.  1.
         13    1    3    3    0    0  0.38329082636E+02 -0.14113783797E+02 -0.18383297117E+03  0.18831590150E+03  0.00000000000E+00 0. -1.
<mgrwt>
<rscale>  0 0.91285867E+02</rscale>
<asrwt>0</asrwt>
<pdfrwt beam="2">  1        1 0.39586225E-01 0.91285867E+02</pdfrwt>
<pdfrwt beam="1">  1       -1 0.12455934E-02 0.91285867E+02</pdfrwt>
<totfact> 0.12396955E+05</totfact>
</mgrwt>
</event>
<event>
 5    1  0.6027538E+000  0.9321105E+02  0.7546771E-02  0.1295257E+00
         -1   -1    0    0    0  501 -0.00000000000E+00  0.00000000000E+00  0.49853028566E+02  0.49853028566E+02  0.00000000000E+00 0.  1.
          1   -1    0    0  501    0  0.00000000000E+00 -0.00000000000E+00 -0.43569568758E+02  0.43569568758E+02  0.00000000000E+00 0. -1.
         23    2    1    2    0    0  0.00000000000E+00  0.00000000000E+00  0.62834598078E+01  0.93422597324E+02  0.93211049900E+02 0.  0.
        -13    1    3    3    0    0 -0.25566343907E+02  0.72566886867E-01  0.42197227509E+02  0.49338111194E+02  0.00000000000E+00 0.  1.
         13    1    3    3    0    0  0.25566343907E+02 -0.72566886867E-01 -0.35913767702E+02  0.44084486129E+02  0.00000000000E+00 0. -1.
<mgrwt>
<rscale>  0 0.93211050E+02</rscale>
<asrwt>0</asrwt>
<pdfrwt beam="2">  1        1 0.67030106E-02 0.93211050E+02</pdfrwt>
<pdfrwt beam="1">  1       -1 0.76696967E-02 0.93211050E+02</pdfrwt>
<totfact> 0.86301684E+04</totfact>
</mgrwt>
</event>
<event>
 5    1  0.6027538E+000  0.8874626E+02  0.7546771E-02  0.1305917E+00
         -2   -1    0    0    0  501 -0.00000000000E+00  0.00000000000E+00  0.46498743426E+02  0.46498743426E+02  0.00000000000E+00 0.  1.
          2   -1    0    0  501    0  0.00000000000E+00 -0.00000000000E+00 -0.42344684299E+02  0.42344684299E+02  0.00000000000E+00 0. -1.
         23    2    1    2    0    0  0.00000000000E+00  0.00000000000E+00  0.41540591268E+01  0.88843427725E+02  0.88746258753E+02 0.  0.
        -13    1    3    3    0    0 -0.50488129712E+01  0.34554913567E+02  0.29482942885E+02  0.45703134304E+02  0.00000000000E+00 0.  1.
         13    1    3    3    0    0  0.50488129712E+01 -0.34554913567E+02 -0.25328883758E+02  0.43140293421E+02  0.00000000000E+00 0. -1.
<mgrwt>
<rscale>  0 0.88746259E+02</rscale>
<asrwt>0</asrwt>
<pdfrwt beam="2">  1        2 0.65145668E-02 0.88746259E+02</pdfrwt>
<pdfrwt beam="1">  1       -2 0.71536528E-02 0.88746259E+02</pdfrwt>
<totfact> 0.10462225E+05</totfact>
</mgrwt>
</event>
<event>
 5    1  0.6027538E+000  0.9250634E+02  0.7546771E-02  0.1296893E+00
         -2   -1    0    0    0  501 -0.00000000000E+00  0.00000000000E+00  0.11861799127E+02  0.11861799127E+02  0.00000000000E+00 0.  1.
          2   -1    0    0  501    0  0.00000000000E+00 -0.00000000000E+00 -0.18035675753E+03  0.18035675753E+03  0.00000000000E+00 0. -1.
         23    2    1    2    0    0  0.00000000000E+00  0.00000000000E+00 -0.16849495840E+03  0.19221855666E+03  0.92506337709E+02 0.  0.
        -13    1    3    3    0    0 -0.33104274395E+02 -0.14866399439E+02 -0.24656664982E+02  0.43873157437E+02  0.00000000000E+00 0.  1.
         13    1    3    3    0    0  0.33104274395E+02  0.14866399439E+02 -0.14383829342E+03  0.14834539922E+03  0.00000000000E+00 0. -1.
<mgrwt>
<rscale>  0 0.92506338E+02</rscale>
<asrwt>0</asrwt>
<pdfrwt beam="2">  1        2 0.27747191E-01 0.92506338E+02</pdfrwt>
<pdfrwt beam="1">  1       -2 0.18248923E-02 0.92506338E+02</pdfrwt>
<totfact> 0.14332933E+05</totfact>
</mgrwt>
</event>
<event>
 5    1  0.6027538E+000  0.9229862E+02  0.7546771E-02  0.1297379E+00
         -3   -1    0    0    0  501 -0.00000000000E+00  0.00000000000E+00  0.70046369228E+01  0.70046369228E+01  0.00000000000E+00 0.  1.
          3   -1    0    0  501    0  0.00000000000E+00 -0.00000000000E+00 -0.30404984991E+03  0.30404984991E+03  0.00000000000E+00 0. -1.
         23    2    1    2    0    0  0.00000000000E+00  0.00000000000E+00 -0.29704521298E+03  0.31105448683E+03  0.92298619817E+02 0.  0.
        -13    1    3    3    0    0 -0.14119718489E+02 -0.41386624818E+02 -0.19822879552E+03  0.20299476480E+03  0.00000000000E+00 0. -1.
         13    1    3    3    0    0  0.14119718489E+02  0.41386624818E+02 -0.98816417461E+02  0.10805972202E+03  0.00000000000E+00 0.  1.
<mgrwt>
<rscale>  0 0.92298620E+02</rscale>
<asrwt>0</asrwt>
<pdfrwt beam="2">  1        3 0.46776913E-01 0.92298620E+02</pdfrwt>
<pdfrwt beam="1">  1       -3 0.10776362E-02 0.92298620E+02</pdfrwt>
<totfact> 0.22846256E+04</totfact>
</mgrwt>
</event>
<event>
 5    1  0.6027538E+000  0.9000910E+02  0.7546771E-02  0.1302830E+00
         -2   -1    0    0    0  501 -0.00000000000E+00  0.00000000000E+00  0.12239904330E+02  0.12239904330E+02  0.00000000000E+00 0.  1.
          2   -1    0    0  501    0  0.00000000000E+00 -0.00000000000E+00 -0.16547593817E+03  0.16547593817E+03  0.00000000000E+00 0. -1.
         23    2    1    2    0    0  0.00000000000E+00  0.00000000000E+00 -0.15323603384E+03  0.17771584250E+03  0.90009102922E+02 0.  0.
        -13    1    3    3    0    0  0.22985270039E+02  0.10311551865E+02 -0.29861796506E+01  0.25368642249E+02  0.00000000000E+00 0.  1.
         13    1    3    3    0    0 -0.22985270039E+02 -0.10311551865E+02 -0.15024985419E+03  0.15234720025E+03  0.00000000000E+00 0. -1.
<mgrwt>
<rscale>  0 0.90009103E+02</rscale>
<asrwt>0</asrwt>
<pdfrwt beam="2">  1        2 0.25457836E-01 0.90009103E+02</pdfrwt>
<pdfrwt beam="1">  1       -2 0.18830623E-02 0.90009103E+02</pdfrwt>
<totfact> 0.14973780E+05</totfact>
</mgrwt>
</event>
<event>
 5    1  0.6027538E+000  0.9083113E+02  0.7546771E-02  0.1300851E+00
         -4   -1    0    0    0  501 -0.00000000000E+00  0.00000000000E+00  0.62220724356E+02  0.62220724356E+02  0.00000000000E+00 0.  1.
          4   -1    0    0  501    0  0.00000000000E+00 -0.00000000000E+00 -0.33149304619E+02  0.33149304619E+02  0.00000000000E+00 0. -1.
         23    2    1    2    0    0  0.00000000000E+00  0.00000000000E+00  0.29071419737E+02  0.95370028975E+02  0.90831134427E+02 0.  0.
        -13    1    3    3    0    0 -0.10444013061E+02  0.44198140869E+02  0.14686702214E+02  0.47731041126E+02  0.00000000000E+00 0.  1.
         13    1    3    3    0    0  0.10444013061E+02 -0.44198140869E+02  0.14384717523E+02  0.47638987849E+02  0.00000000000E+00 0. -1.
<mgrwt>
<rscale>  0 0.90831134E+02</rscale>
<asrwt>0</asrwt>
<pdfrwt beam="2">  1        4 0.50998930E-02 0.90831134E+02</pdfrwt>
<pdfrwt beam="1">  1       -4 0.95724191E-02 0.90831134E+02</pdfrwt>
<totfact> 0.27025090E+04</totfact>
</mgrwt>
</event>
<event>
 5    1  0.6027538E+000  0.9168332E+02  0.7546771E-02  0.1298826E+00
         -4   -1    0    0    0  501 -0.00000000000E+00  0.00000000000E+00  0.30241400699E+02  0.30241400699E+02  0.00000000000E+00 0.  1.
          4   -1    0    0  501    0  0.00000000000E+00 -0.00000000000E+00 -0.69489437892E+02  0.69489437892E+02  0.00000000000E+00 0. -1.
         23    2    1    2    0    0  0.00000000000E+00  0.00000000000E+00 -0.39248037193E+02  0.99730838591E+02  0.91683323144E+02 0.  0.
        -13    1    3    3    0    0  0.11572149532E+02 -0.25483674695E+02  0.19868744894E+02  0.34323451814E+02  0.00000000000E+00 0.  1.
         13    1    3    3    0    0 -0.11572149532E+02  0.25483674695E+02 -0.59116782087E+02  0.65407386778E+02  0.00000000000E+00 0. -1.
<mgrwt>
<rscale>  0 0.91683323E+02</rscale>
<asrwt>0</asrwt>
<pdfrwt beam="2">  1        4 0.10690683E-01 0.91683323E+02</pdfrwt>
<pdfrwt beam="1">  1       -4 0.46525232E-02 0.91683323E+02</pdfrwt>
<totfact> 0.26079381E+04</totfact>
</mgrwt>
</event>
<event>
 5    1  0.6027538E+000  0.8850537E+02  0.7546771E-02  0.1306512E+00
         -1   -1    0    0    0  501 -0.00000000000E+00  0.00000000000E+00  0.35743894335E+03  0.35743894335E+03  0.00000000000E+00 0.  1.
          1   -1    0    0  501    0  0.00000000000E+00 -0.00000000000E+00 -0.54786987268E+01  0.54786987268E+01  0.00000000000E+00 0. -1.
         23    2    1    2    0    0  0.00000000000E+00  0.00000000000E+00  0.35196024462E+03  0.36291764208E+03  0.88505373483E+02 0.  0.
        -13    1    3    3    0    0 -0.91323888231E+01 -0.40330699960E+02  0.24059862378E+03  0.24412632723E+03  0.00000000000E+00 0. -1.
         13    1    3    3    0    0  0.91323888231E+01  0.40330699960E+02  0.11136162085E+03  0.11879131485E+03  0.00000000000E+00 0.  1.
<mgrwt>
<rscale>  0 0.88505373E+02</rscale>
<asrwt>0</asrwt>
<pdfrwt beam="2">  1        1 0.84287701E-03 0.88505373E+02</pdfrwt>
<pdfrwt beam="1">  1       -1 0.54990588E-01 0.88505373E+02</pdfrwt>
<totfact> 0.60796702E+04</totfact>
</mgrwt>
</event>
<event>
 5    1  0.6027538E+000  0.9486429E+02  0.7546771E-02  0.1291482E+00
         -1   -1    0    0    0  501 -0.00000000000E+00  0.00000000000E+00  0.19371869215E+03  0.19371869215E+03  0.00000000000E+00 0.  1.
          1   -1    0    0  501    0  0.00000000000E+00 -0.00000000000E+00 -0.11613790300E+02  0.11613790300E+02  0.00000000000E+00 0. -1.
         23    2    1    2    0    0  0.00000000000E+00  0.00000000000E+00  0.18210490185E+03  0.20533248245E+03  0.94864287649E+02 0.  0.
        -13    1    3    3    0    0  0.32560144216E+02 -0.28368788748E+02  0.13351486296E+03  0.14032522865E+03  0.00000000000E+00 0.  1.
         13    1    3    3    0    0 -0.32560144216E+02  0.28368788748E+02  0.48590038891E+02  0.65007253793E+02  0.00000000000E+00 0. -1.
<mgrwt>
<rscale>  0 0.94864288E+02</rscale>
<asrwt>0</asrwt>
<pdfrwt beam="2">  1        1 0.17867371E-02 0.94864288E+02</pdfrwt>
<pdfrwt beam="1">  1       -1 0.29802873E-01 0.94864288E+02</pdfrwt>
<totfact> 0.63169103E+04</totfact>
</mgrwt>
</event>
<event>
 5    1  0.6027538E+000  0.8962611E+02  0.7546771E-02  0.1303760E+00
         -1   -1    0    0    0  501 -0.00000000000E+00  0.00000000000E+00  0.31638143375E+02  0.31638143375E+02  0.00000000000E+00 0.  1.
          1   -1    0    0  501    0  0.00000000000E+00 -0.00000000000E+00 -0.63474322217E+02  0.63474322217E+02  0.00000000000E+00 0. -1.
         23    2    1    2    0    0  0.00000000000E+00  0.00000000000E+00 -0.31836178842E+02  0.95112465592E+02  0.89626105727E+02 0.  0.
        -13    1    3    3    0    0  0.37613533578E+02 -0.15871256291E+02  0.36938496659E+01  0.40991696840E+02  0.00000000000E+00 0.  1.
         13    1    3    3    0    0 -0.37613533578E+02  0.15871256291E+02 -0.35530028508E+02  0.54120768752E+02  0.00000000000E+00 0. -1.
<mgrwt>
<rscale>  0 0.89626106E+02</rscale>
<asrwt>0</asrwt>
<pdfrwt beam="2">  1        1 0.97652804E-02 0.89626106E+02</pdfrwt>
<pdfrwt beam="1">  1       -1 0.48674067E-02 0.89626106E+02</pdfrwt>
<totfact> 0.10191447E+05</totfact>
</mgrwt>
</event>
<event>
 5    1  0.6027538E+000  0.8955522E+02  0.7546771E-02  0.1303932E+00
          1   -1    0    0  501    0  0.00000000000E+00  0.00000000000E+00  0.96076617611E+01  0.96076617611E+01  0.00000000000E+00 0. -1.
         -1   -1    0    0    0  501 -0.00000000000E+00 -0.00000000000E+00 -0.20869120547E+03  0.20869120547E+03  0.00000000000E+00 0.  1.
         23    2    1    2    0    0  0.00000000000E+00  0.00000000000E+00 -0.19908354370E+03  0.21829886723E+03  0.89555223513E+02 0.  0.
        -13    1    3    3    0    0  0.21706349050E+02 -0.26134119902E+02 -0.17064574620E+03  0.17399462207E+03  0.00000000000E+00 0.  1.
         13    1    3    3    0    0 -0.21706349050E+02  0.26134119902E+02 -0.28437797500E+02  0.44304245155E+02  0.00000000000E+00 0. -1.
<mgrwt>
<rscale>  0 0.89555224E+02</rscale>
<asrwt>0</asrwt>
<pdfrwt beam="1">  1        1 0.14781018E-02 0.89555224E+02</pdfrwt>
<pdfrwt beam="2">  1       -1 0.32106338E-01 0.89555224E+02</pdfrwt>
<totfact> 0.71851620E+04</totfact>
</mgrwt>
</event>
<event>
 5    1  0.6027538E+000  0.7881976E+02  0.7546771E-02  0.1332435E+00
          1   -1    0    0  501    0  0.00000000000E+00  0.00000000000E+00  0.55896935071E+02  0.55896935071E+02  0.00000000000E+00 0. -1.
         -1   -1    0    0    0  501 -0.00000000000E+00 -0.00000000000E+00 -0.27785757271E+02  0.27785757271E+02  0.00000000000E+00 0.  1.
         23    2    1    2    0    0  0.00000000000E+00  0.00000000000E+00  0.28111177800E+02  0.83682692342E+02  0.78819760722E+02 0.  0.
        -13    1    3    3    0    0 -0.54718956185E+01  0.25565270348E+02 -0.17253021248E+02  0.31323975351E+02  0.00000000000E+00 0.  1.
         13    1    3    3    0    0  0.54718956185E+01 -0.25565270348E+02  0.45364199048E+02  0.52358716991E+02  0.00000000000E+00 0. -1.
<mgrwt>
<rscale>  0 0.78819761E+02</rscale>
<asrwt>0</asrwt>
<pdfrwt beam="1">  1        1 0.85995284E-02 0.78819761E+02</pdfrwt>
<pdfrwt beam="2">  1       -1 0.42747319E-02 0.78819761E+02</pdfrwt>
<totfact> 0.14231114E+05</totfact>
</mgrwt>
</event>
<event>
 5    1  0.6027538E+000  0.9184971E+02  0.7546771E-02  0.1298433E+00
         -1   -1    0    0    0  501 -0.00000000000E+00  0.00000000000E+00  0.13340125708E+02  0.13340125708E+02  0.00000000000E+00 0.  1.
          1   -1    0    0  501    0  0.00000000000E+00 -0.00000000000E+00 -0.15810138621E+03  0.15810138621E+03  0.00000000000E+00 0. -1.
         23    2    1    2    0    0  0.00000000000E+00  0.00000000000E+00 -0.14476126050E+03  0.17144151191E+03  0.91849711302E+02 0.  0.
        -13    1    3    3    0    0 -0.31580326691E+02  0.27456148633E+02 -0.10769410219E+03  0.11553863760E+03  0.00000000000E+00 0. -1.
         13    1    3    3    0    0  0.31580326691E+02 -0.27456148633E+02 -0.37067158310E+02  0.55902874317E+02  0.00000000000E+00 0.  1.
<mgrwt>
<rscale>  0 0.91849711E+02</rscale>
<asrwt>0</asrwt>
<pdfrwt beam="2">  1        1 0.24323288E-01 0.91849711E+02</pdfrwt>
<pdfrwt beam="1">  1       -1 0.20523272E-02 0.91849711E+02</pdfrwt>
<totfact> 0.11100427E+05</totfact>
</mgrwt>
</event>
<event>
 5    1  0.6027538E+000  0.9210821E+02  0.7546771E-02  0.1297825E+00
          1   -1    0    0  501    0  0.00000000000E+00  0.00000000000E+00  0.13164093109E+03  0.13164093109E+03  0.00000000000E+00 0. -1.
         -1   -1    0    0    0  501 -0.00000000000E+00 -0.00000000000E+00 -0.16111860933E+02  0.16111860933E+02  0.00000000000E+00 0.  1.
         23    2    1    2    0    0  0.00000000000E+00  0.00000000000E+00  0.11552907015E+03  0.14775279202E+03  0.92108205385E+02 0.  0.
        -13    1    3    3    0    0 -0.12406036695E+01 -0.24756245561E+02 -0.44987417295E+01  0.25192250176E+02  0.00000000000E+00 0.  1.
         13    1    3    3    0    0  0.12406036695E+01  0.24756245561E+02  0.12002781188E+03  0.12256054185E+03  0.00000000000E+00 0. -1.
<mgrwt>
<rscale>  0 0.92108205E+02</rscale>
<asrwt>0</asrwt>
<pdfrwt beam="1">  1        1 0.20252450E-01 0.92108205E+02</pdfrwt>
<pdfrwt beam="2">  1       -1 0.24787479E-02 0.92108205E+02</pdfrwt>
<totfact> 0.10653658E+05</totfact>
</mgrwt>
</event>
<event>
 5    1  0.6027538E+000  0.9106873E+02  0.7546771E-02  0.1300284E+00
         -1   -1    0    0    0  501 -0.00000000000E+00  0.00000000000E+00  0.76378869935E+01  0.76378869935E+01  0.00000000000E+00 0.  1.
          1   -1    0    0  501    0  0.00000000000E+00 -0.00000000000E+00 -0.27145970376E+03  0.27145970376E+03  0.00000000000E+00 0. -1.
         23    2    1    2    0    0  0.00000000000E+00  0.00000000000E+00 -0.26382181676E+03  0.27909759075E+03  0.91068733176E+02 0.  0.
        -13    1    3    3    0    0 -0.41412396129E+02  0.14522002817E+02 -0.94689925297E+02  0.10436501843E+03  0.00000000000E+00 0.  1.
         13    1    3    3    0    0  0.41412396129E+02 -0.14522002817E+02 -0.16913189147E+03  0.17473257232E+03  0.00000000000E+00 0. -1.
<mgrwt>
<rscale>  0 0.91068733E+02</rscale>
<asrwt>0</asrwt>
<pdfrwt beam="2">  1        1 0.41763039E-01 0.91068733E+02</pdfrwt>
<pdfrwt beam="1">  1       -1 0.11750593E-02 0.91068733E+02</pdfrwt>
<totfact> 0.12607303E+05</totfact>
</mgrwt>
</event>
<event>
 5    1  0.6027538E+000  0.9145977E+02  0.7546771E-02  0.1299355E+00
          3   -1    0    0  501    0  0.00000000000E+00  0.00000000000E+00  0.15399340632E+02  0.15399340632E+02  0.00000000000E+00 0. -1.
         -3   -1    0    0    0  501 -0.00000000000E+00 -0.00000000000E+00 -0.13579948448E+03  0.13579948448E+03  0.00000000000E+00 0.  1.
         23    2    1    2    0    0  0.00000000000E+00  0.00000000000E+00 -0.12040014385E+03  0.15119882511E+03  0.91459772998E+02 0.  0.
        -13    1    3    3    0    0  0.15767365291E+02 -0.27319720831E+02 -0.11493596671E+03  0.11918579360E+03  0.00000000000E+00 0.  1.
         13    1    3    3    0    0 -0.15767365291E+02  0.27319720831E+02 -0.54641771422E+01  0.32013031508E+02  0.00000000000E+00 0. -1.
<mgrwt>
<rscale>  0 0.91459773E+02</rscale>
<asrwt>0</asrwt>
<pdfrwt beam="1">  1        3 0.23691295E-02 0.91459773E+02</pdfrwt>
<pdfrwt beam="2">  1       -3 0.20892227E-01 0.91459773E+02</pdfrwt>
<totfact> 0.30973464E+04</totfact>
</mgrwt>
</event>
<event>
 5    1  0.6027538E+000  0.8970697E+02  0.7546771E-02  0.1303563E+00
         -3   -1    0    0    0  501 -0.00000000000E+00  0.00000000000E+00  0.40221408440E+02  0.40221408440E+02  0.00000000000E+00 0.  1.
          3   -1    0    0  501    0  0.00000000000E+00 -0.00000000000E+00 -0.50019007159E+02  0.50019007159E+02  0.00000000000E+00 0. -1.
         23    2    1    2    0    0  0.00000000000E+00  0.00000000000E+00 -0.97975987183E+01  0.90240415599E+02  0.89706965543E+02 0.  0.
        -13    1    3    3    0    0 -0.99119166633E+01 -0.41638005520E+02 -0.18389939050E+02  0.46584970257E+02  0.00000000000E+00 0. -1.
         13    1    3    3    0    0  0.99119166633E+01  0.41638005520E+02  0.85923403312E+01  0.43655445342E+02  0.00000000000E+00 0.  1.
<mgrwt>
<rscale>  0 0.89706966E+02</rscale>
<asrwt>0</asrwt>
<pdfrwt beam="2">  1        3 0.76952318E-02 0.89706966E+02</pdfrwt>
<pdfrwt beam="1">  1       -3 0.61879091E-02 0.89706966E+02</pdfrwt>
<totfact> 0.37010773E+04</totfact>
</mgrwt>
</event>
<event>
 5    1  0.6027538E+000  0.8971626E+02  0.7546771E-02  0.1303540E+00
          3   -1    0    0  501    0  0.00000000000E+00  0.00000000000E+00  0.96187479311E+01  0.96187479311E+01  0.00000000000E+00 0. -1.
         -3   -1    0    0    0  501 -0.00000000000E+00 -0.00000000000E+00 -0.20920099760E+03  0.20920099760E+03  0.00000000000E+00 0.  1.
         23    2    1    2    0    0  0.00000000000E+00  0.00000000000E+00 -0.19958224967E+03  0.21881974553E+03  0.89716256339E+02 0.  0.
        -13    1    3    3    0    0  0.93999012864E+01 -0.41916924244E+02 -0.13129746565E+03  0.13814633969E+03  0.00000000000E+00 0.  1.
         13    1    3    3    0    0 -0.93999012864E+01  0.41916924244E+02 -0.68284784018E+02  0.80673405845E+02  0.00000000000E+00 0. -1.
<mgrwt>
<rscale>  0 0.89716256E+02</rscale>
<asrwt>0</asrwt>
<pdfrwt beam="1">  1        3 0.14798075E-02 0.89716256E+02</pdfrwt>
<pdfrwt beam="2">  1       -3 0.32184767E-01 0.89716256E+02</pdfrwt>
<totfact> 0.28774430E+04</totfact>
</mgrwt>
</event>
<event>
 5    1  0.6027538E+000  0.9256191E+02  0.7546771E-02  0.1296764E+00
          2   -1    0    0  501    0  0.00000000000E+00  0.00000000000E+00  0.81463218210E+01  0.81463218210E+01  0.00000000000E+00 0. -1.
         -2   -1    0    0    0  501 -0.00000000000E+00 -0.00000000000E+00 -0.26293177108E+03  0.26293177108E+03  0.00000000000E+00 0.  1.
         23    2    1    2    0    0  0.00000000000E+00  0.00000000000E+00 -0.25478544926E+03  0.27107809290E+03  0.92561910615E+02 0.  0.
        -13    1    3    3    0    0 -0.36947211935E+02  0.27861272782E+02 -0.12962277015E+03  0.13763505924E+03  0.00000000000E+00 0. -1.
         13    1    3    3    0    0  0.36947211935E+02 -0.27861272782E+02 -0.12516267911E+03  0.13344303366E+03  0.00000000000E+00 0.  1.
<mgrwt>
<rscale>  0 0.92561911E+02</rscale>
<asrwt>0</asrwt>
<pdfrwt beam="1">  1        2 0.12532802E-02 0.92561911E+02</pdfrwt>
<pdfrwt beam="2">  1       -2 0.40451045E-01 0.92561911E+02</pdfrwt>
<totfact> 0.52674852E+04</totfact>
</mgrwt>
</event>
<event>
 5    1  0.6027538E+000  0.9562223E+02  0.7546771E-02  0.1289781E+00
         -1   -1    0    0    0  501 -0.00000000000E+00  0.00000000000E+00  0.80556679801E+02  0.80556679801E+02  0.00000000000E+00 0.  1.
          1   -1    0    0  501    0  0.00000000000E+00 -0.00000000000E+00 -0.28376326712E+02  0.28376326712E+02  0.00000000000E+00 0. -1.
         23    2    1    2    0    0  0.00000000000E+00  0.00000000000E+00  0.52180353089E+02  0.10893300651E+03  0.95622228899E+02 0.  0.
        -13    1    3    3    0    0  0.26031458462E+02  0.11436194806E+01 -0.19576865939E+02  0.32591384984E+02  0.00000000000E+00 0. -1.
         13    1    3    3    0    0 -0.26031458462E+02 -0.11436194806E+01  0.71757219028E+02  0.76341621530E+02  0.00000000000E+00 0.  1.
<mgrwt>
<rscale>  0 0.95622229E+02</rscale>
<asrwt>0</asrwt>
<pdfrwt beam="2">  1        1 0.43655888E-02 0.95622229E+02</pdfrwt>
<pdfrwt beam="1">  1       -1 0.12393335E-01 0.95622229E+02</pdfrwt>
<totfact> 0.74836576E+04</totfact>
</mgrwt>
</event>
<event>
 5    1  0.6027538E+000  0.8604392E+02  0.7546771E-02  0.1312725E+00
         -1   -1    0    0    0  501 -0.00000000000E+00  0.00000000000E+00  0.50183522650E+02  0.50183522650E+02  0.00000000000E+00 0.  1.
          1   -1    0    0  501    0  0.00000000000E+00 -0.00000000000E+00 -0.36882404007E+02  0.36882404007E+02  0.00000000000E+00 0. -1.
         23    2    1    2    0    0  0.00000000000E+00  0.00000000000E+00  0.13301118643E+02  0.87065926657E+02  0.86043918016E+02 0.  0.
        -13    1    3    3    0    0 -0.29283273649E+02 -0.24553325931E+02 -0.13345564246E+02  0.40478142434E+02  0.00000000000E+00 0. -1.
         13    1    3    3    0    0  0.29283273649E+02  0.24553325931E+02  0.26646682889E+02  0.46587784223E+02  0.00000000000E+00 0.  1.
<mgrwt>
<rscale>  0 0.86043918E+02</rscale>
<asrwt>0</asrwt>
<pdfrwt beam="2">  1        1 0.56742160E-02 0.86043918E+02</pdfrwt>
<pdfrwt beam="1">  1       -1 0.77205420E-02 0.86043918E+02</pdfrwt>
<totfact> 0.10544145E+05</totfact>
</mgrwt>
</event>
<event>
 5    1  0.6027538E+000  0.9262195E+02  0.7546771E-02  0.1296624E+00
          2   -1    0    0  501    0  0.00000000000E+00  0.00000000000E+00  0.84930592280E+02  0.84930592280E+02  0.00000000000E+00 0. -1.
         -2   -1    0    0    0  501 -0.00000000000E+00 -0.00000000000E+00 -0.25252461142E+02  0.25252461142E+02  0.00000000000E+00 0.  1.
         23    2    1    2    0    0  0.00000000000E+00  0.00000000000E+00  0.59678131139E+02  0.11018305342E+03  0.92621951638E+02 0.  0.
        -13    1    3    3    0    0 -0.45827694891E+01  0.36095177474E+02 -0.42433910276E+01  0.36631543518E+02  0.00000000000E+00 0.  1.
         13    1    3    3    0    0  0.45827694891E+01 -0.36095177474E+02  0.63921522166E+02  0.73551509904E+02  0.00000000000E+00 0. -1.
<mgrwt>
<rscale>  0 0.92621952E+02</rscale>
<asrwt>0</asrwt>
<pdfrwt beam="1">  1        2 0.13066245E-01 0.92621952E+02</pdfrwt>
<pdfrwt beam="2">  1       -2 0.38849941E-02 0.92621952E+02</pdfrwt>
<totfact> 0.11185956E+05</totfact>
</mgrwt>
</event>
<event>
 5    1  0.6027538E+000  0.9314050E+02  0.7546771E-02  0.1295420E+00
          1   -1    0    0  501    0  0.00000000000E+00  0.00000000000E+00  0.23268234659E+03  0.23268234659E+03  0.00000000000E+00 0. -1.
         -1   -1    0    0    0  501 -0.00000000000E+00 -0.00000000000E+00 -0.93208115515E+01  0.93208115515E+01  0.00000000000E+00 0.  1.
         23    2    1    2    0    0  0.00000000000E+00  0.00000000000E+00  0.22336153504E+03  0.24200315814E+03  0.93140502553E+02 0.  0.
        -13    1    3    3    0    0 -0.34654880544E+02  0.13435809852E+02  0.38776257575E+02  0.53712939627E+02  0.00000000000E+00 0.  1.
         13    1    3    3    0    0  0.34654880544E+02 -0.13435809852E+02  0.18458527746E+03  0.18829021852E+03  0.00000000000E+00 0. -1.
<mgrwt>
<rscale>  0 0.93140503E+02</rscale>
<asrwt>0</asrwt>
<pdfrwt beam="1">  1        1 0.35797280E-01 0.93140503E+02</pdfrwt>
<pdfrwt beam="2">  1       -1 0.14339712E-02 0.93140503E+02</pdfrwt>
<totfact> 0.11518239E+05</totfact>
</mgrwt>
</event>
<event>
 5    1  0.6027538E+000  0.8729899E+02  0.7546771E-02  0.1309528E+00
         -3   -1    0    0    0  501 -0.00000000000E+00  0.00000000000E+00  0.44071061360E+01  0.44071061360E+01  0.00000000000E+00 0. -1.
          3   -1    0    0  501    0  0.00000000000E+00 -0.00000000000E+00 -0.43231963303E+03  0.43231963303E+03  0.00000000000E+00 0.  1.
         23    2    1    2    0    0  0.00000000000E+00  0.00000000000E+00 -0.42791252689E+03  0.43672673916E+03  0.87298992146E+02 0.  0.
        -13    1    3    3    0    0  0.19724992810E+02 -0.38258247195E+02 -0.25020728677E+03  0.25388275871E+03  0.00000000000E+00 0.  1.
         13    1    3    3    0    0 -0.19724992810E+02  0.38258247195E+02 -0.17770524012E+03  0.18284398045E+03  0.00000000000E+00 0. -1.
<mgrwt>
<rscale>  0 0.87298992E+02</rscale>
<asrwt>0</asrwt>
<pdfrwt beam="2">  1        3 0.66510724E-01 0.87298992E+02</pdfrwt>
<pdfrwt beam="1">  1       -3 0.67801621E-03 0.87298992E+02</pdfrwt>
<totfact> 0.21950378E+04</totfact>
</mgrwt>
</event>
<event>
 5    1  0.6027538E+000  0.9528705E+02  0.7546771E-02  0.1290531E+00
          1   -1    0    0  501    0  0.00000000000E+00  0.00000000000E+00  0.45022641123E+02  0.45022641123E+02  0.00000000000E+00 0.  1.
         -1   -1    0    0    0  501 -0.00000000000E+00 -0.00000000000E+00 -0.50416976185E+02  0.50416976185E+02  0.00000000000E+00 0. -1.
         23    2    1    2    0    0  0.00000000000E+00  0.00000000000E+00 -0.53943350621E+01  0.95439617309E+02  0.95287048969E+02 0.  0.
        -13    1    3    3    0    0 -0.11359896686E+02 -0.43634911915E+02  0.12717491486E+02  0.46848557931E+02  0.00000000000E+00 0.  1.
         13    1    3    3    0    0  0.11359896686E+02  0.43634911915E+02 -0.18111826548E+02  0.48591059378E+02  0.00000000000E+00 0. -1.
<mgrwt>
<rscale>  0 0.95287049E+02</rscale>
<asrwt>0</asrwt>
<pdfrwt beam="1">  1        1 0.69265602E-02 0.95287049E+02</pdfrwt>
<pdfrwt beam="2">  1       -1 0.77564578E-02 0.95287049E+02</pdfrwt>
<totfact> 0.81502328E+04</totfact>
</mgrwt>
</event>
<event>
 5    1  0.6027538E+000  0.8684085E+02  0.7546771E-02  0.1310688E+00
          1   -1    0    0  501    0  0.00000000000E+00  0.00000000000E+00  0.83345507099E+02  0.83345507099E+02  0.00000000000E+00 0. -1.
         -1   -1    0    0    0  501 -0.00000000000E+00 -0.00000000000E+00 -0.22620694086E+02  0.22620694086E+02  0.00000000000E+00 0.  1.
         23    2    1    2    0    0  0.00000000000E+00  0.00000000000E+00  0.60724813013E+02  0.10596620119E+03  0.86840847981E+02 0.  0.
        -13    1    3    3    0    0  0.81250831922E+01  0.25617267118E+02 -0.11252275993E+02  0.29135460636E+02  0.00000000000E+00 0.  1.
         13    1    3    3    0    0 -0.81250831922E+01 -0.25617267118E+02  0.71977089006E+02  0.76830740549E+02  0.00000000000E+00 0. -1.
<mgrwt>
<rscale>  0 0.86840848E+02</rscale>
<asrwt>0</asrwt>
<pdfrwt beam="1">  1        1 0.12822386E-01 0.86840848E+02</pdfrwt>
<pdfrwt beam="2">  1       -1 0.34801068E-02 0.86840848E+02</pdfrwt>
<totfact> 0.11582611E+05</totfact>
</mgrwt>
</event>
<event>
 5    1  0.6027538E+000  0.9652196E+02  0.7546771E-02  0.1287785E+00
         -1   -1    0    0    0  501 -0.00000000000E+00  0.00000000000E+00  0.16568819103E+03  0.16568819103E+03  0.00000000000E+00 0.  1.
          1   -1    0    0  501    0  0.00000000000E+00 -0.00000000000E+00 -0.14057261341E+02  0.14057261341E+02  0.00000000000E+00 0. -1.
         23    2    1    2    0    0  0.00000000000E+00  0.00000000000E+00  0.15163092969E+03  0.17974545237E+03  0.96521960246E+02 0.  0.
        -13    1    3    3    0    0  0.38831081291E+00  0.40099610567E+02  0.25812334120E+02  0.47690734380E+02  0.00000000000E+00 0. -1.
         13    1    3    3    0    0 -0.38831081291E+00 -0.40099610567E+02  0.12581859557E+03  0.13205471799E+03  0.00000000000E+00 0.  1.
<mgrwt>
<rscale>  0 0.96521960E+02</rscale>
<asrwt>0</asrwt>
<pdfrwt beam="2">  1        1 0.21626557E-02 0.96521960E+02</pdfrwt>
<pdfrwt beam="1">  1       -1 0.25490489E-01 0.96521960E+02</pdfrwt>
<totfact> 0.62940753E+04</totfact>
</mgrwt>
</event>
<event>
 5    1  0.6027538E+000  0.9021502E+02  0.7546771E-02  0.1302332E+00
         -2   -1    0    0    0  501 -0.00000000000E+00  0.00000000000E+00  0.18321994099E+03  0.18321994099E+03  0.00000000000E+00 0.  1.
          2   -1    0    0  501    0  0.00000000000E+00 -0.00000000000E+00 -0.11105163525E+02  0.11105163525E+02  0.00000000000E+00 0. -1.
         23    2    1    2    0    0  0.00000000000E+00  0.00000000000E+00  0.17211477746E+03  0.19432510451E+03  0.90215018831E+02 0.  0.
        -13    1    3    3    0    0  0.16710638625E+02  0.38781364093E+02  0.12021393516E+03  0.12741518689E+03  0.00000000000E+00 0.  1.
         13    1    3    3    0    0 -0.16710638625E+02 -0.38781364093E+02  0.51900842303E+02  0.66909917620E+02  0.00000000000E+00 0. -1.
<mgrwt>
<rscale>  0 0.90215019E+02</rscale>
<asrwt>0</asrwt>
<pdfrwt beam="2">  1        2 0.17084868E-02 0.90215019E+02</pdfrwt>
<pdfrwt beam="1">  1       -2 0.28187681E-01 0.90215019E+02</pdfrwt>
<totfact> 0.66433385E+04</totfact>
</mgrwt>
</event>
<event>
 5    1  0.6027538E+000  0.8962363E+02  0.7546771E-02  0.1303766E+00
          1   -1    0    0  501    0  0.00000000000E+00  0.00000000000E+00  0.21913684846E+03  0.21913684846E+03  0.00000000000E+00 0. -1.
         -1   -1    0    0    0  501 -0.00000000000E+00 -0.00000000000E+00 -0.91636755364E+01  0.91636755364E+01  0.00000000000E+00 0.  1.
         23    2    1    2    0    0  0.00000000000E+00  0.00000000000E+00  0.20997317293E+03  0.22830052400E+03  0.89623634771E+02 0.  0.
        -13    1    3    3    0    0 -0.37356057129E+02 -0.18952200923E+02  0.64433840492E+02  0.76852981234E+02  0.00000000000E+00 0.  1.
         13    1    3    3    0    0  0.37356057129E+02  0.18952200923E+02  0.14553933243E+03  0.15144754276E+03  0.00000000000E+00 0. -1.
<mgrwt>
<rscale>  0 0.89623635E+02</rscale>
<asrwt>0</asrwt>
<pdfrwt beam="1">  1        1 0.33713358E-01 0.89623635E+02</pdfrwt>
<pdfrwt beam="2">  1       -1 0.14097964E-02 0.89623635E+02</pdfrwt>
<totfact> 0.12619641E+05</totfact>
</mgrwt>
</event>
<event>
 5    1  0.6027538E+000  0.9235718E+02  0.7546771E-02  0.1297242E+00
          2   -1    0    0  501    0  0.00000000000E+00  0.00000000000E+00  0.24352230815E+02  0.24352230815E+02  0.00000000000E+00 0.  1.
         -2   -1    0    0    0  501 -0.00000000000E+00 -0.00000000000E+00 -0.87567433259E+02  0.87567433259E+02  0.00000000000E+00 0. -1.
         23    2    1    2    0    0  0.00000000000E+00  0.00000000000E+00 -0.63215202444E+02  0.11191966407E+03  0.92357183728E+02 0.  0.
        -13    1    3    3    0    0 -0.44154037400E+02  0.21542034596E+01 -0.15428975221E+02  0.46821713848E+02  0.00000000000E+00 0.  1.
         13    1    3    3    0    0  0.44154037400E+02 -0.21542034596E+01 -0.47786227223E+02  0.65097950225E+02  0.00000000000E+00 0. -1.
<mgrwt>
<rscale>  0 0.92357184E+02</rscale>
<asrwt>0</asrwt>
<pdfrwt beam="1">  1        2 0.37464971E-02 0.92357184E+02</pdfrwt>
<pdfrwt beam="2">  1       -2 0.13471913E-01 0.92357184E+02</pdfrwt>
<totfact> 0.80354938E+04</totfact>
</mgrwt>
</event>
<event>
 5    1  0.6027538E+000  0.9058122E+02  0.7546771E-02  0.1301450E+00
          2   -1    0    0  501    0  0.00000000000E+00  0.00000000000E+00  0.22616825620E+03  0.22616825620E+03  0.00000000000E+00 0.  1.
         -2   -1    0    0    0  501 -0.00000000000E+00 -0.00000000000E+00 -0.90695288825E+01  0.90695288825E+01  0.00000000000E+00 0. -1.
         23    2    1    2    0    0  0.00000000000E+00  0.00000000000E+00  0.21709872732E+03  0.23523778508E+03  0.90581223925E+02 0.  0.
        -13    1    3    3    0    0  0.26690454965E+02 -0.30791844135E+02  0.57215666881E+02  0.70243509224E+02  0.00000000000E+00 0. -1.
         13    1    3    3    0    0 -0.26690454965E+02  0.30791844135E+02  0.15988306044E+03  0.16499427586E+03  0.00000000000E+00 0.  1.
<mgrwt>
<rscale>  0 0.90581224E+02</rscale>
<asrwt>0</asrwt>
<pdfrwt beam="1">  1        2 0.34795112E-01 0.90581224E+02</pdfrwt>
<pdfrwt beam="2">  1       -2 0.13953123E-02 0.90581224E+02</pdfrwt>
<totfact> 0.16464149E+05</totfact>
</mgrwt>
</event>
<event>
 5    1  0.6027538E+000  0.9211851E+02  0.7546771E-02  0.1297801E+00
          1   -1    0    0  501    0  0.00000000000E+00  0.00000000000E+00  0.83881993962E+02  0.83881993962E+02  0.00000000000E+00 0.  1.
         -1   -1    0    0    0  501 -0.00000000000E+00 -0.00000000000E+00 -0.25290945750E+02  0.25290945750E+02  0.00000000000E+00 0. -1.
         23    2    1    2    0    0  0.00000000000E+00  0.00000000000E+00  0.58591048212E+02  0.10917293971E+03  0.92118509729E+02 0.  0.
        -13    1    3    3    0    0 -0.17147441149E+02  0.11482931902E+02 -0.19505057978E+02  0.28396122090E+02  0.00000000000E+00 0. -1.
         13    1    3    3    0    0  0.17147441149E+02 -0.11482931902E+02  0.78096106190E+02  0.80776817622E+02  0.00000000000E+00 0.  1.
<mgrwt>
<rscale>  0 0.92118510E+02</rscale>
<asrwt>0</asrwt>
<pdfrwt beam="1">  1        1 0.12904922E-01 0.92118510E+02</pdfrwt>
<pdfrwt beam="2">  1       -1 0.38909148E-02 0.92118510E+02</pdfrwt>
<totfact> 0.98681171E+04</totfact>
</mgrwt>
</event>
<event>
 5    1  0.6027538E+000  0.9181594E+02  0.7546771E-02  0.1298513E+00
          1   -1    0    0  501    0  0.00000000000E+00  0.00000000000E+00  0.26328170057E+02  0.26328170057E+02  0.00000000000E+00 0. -1.
         -1   -1    0    0    0  501 -0.00000000000E+00 -0.00000000000E+00 -0.80048933139E+02  0.80048933139E+02  0.00000000000E+00 0.  1.
         23    2    1    2    0    0  0.00000000000E+00  0.00000000000E+00 -0.53720763082E+02  0.10637710320E+03  0.91815944684E+02 0.  0.
        -13    1    3    3    0    0  0.22331851771E+02 -0.14290828959E+01 -0.73302214099E+02  0.76641819350E+02  0.00000000000E+00 0.  1.
         13    1    3    3    0    0 -0.22331851771E+02  0.14290828959E+01  0.19581451017E+02  0.29735283846E+02  0.00000000000E+00 0. -1.
<mgrwt>
<rscale>  0 0.91815945E+02</rscale>
<asrwt>0</asrwt>
<pdfrwt beam="1">  1        1 0.40504877E-02 0.91815945E+02</pdfrwt>
<pdfrwt beam="2">  1       -1 0.12315221E-01 0.91815945E+02</pdfrwt>
<totfact> 0.83140164E+04</totfact>
</mgrwt>
</event>
<event>
 5    1  0.6027538E+000  0.9220573E+02  0.7546771E-02  0.1297596E+00
          2   -1    0    0  501    0  0.00000000000E+00  0.00000000000E+00  0.14395149596E+03  0.14395149596E+03  0.00000000000E+00 0. -1.
         -2   -1    0    0    0  501 -0.00000000000E+00 -0.00000000000E+00 -0.14765210755E+02  0.14765210755E+02  0.00000000000E+00 0.  1.
         23    2    1    2    0    0  0.00000000000E+00  0.00000000000E+00  0.12918628521E+03  0.15871670672E+03  0.92205730329E+02 0.  0.
        -13    1    3    3    0    0  0.12594608060E+02  0.44271971631E+02  0.69095850648E+02  0.83023299146E+02  0.00000000000E+00 0.  1.
         13    1    3    3    0    0 -0.12594608060E+02 -0.44271971631E+02  0.60090434560E+02  0.75693407572E+02  0.00000000000E+00 0. -1.
<mgrwt>
<rscale>  0 0.92205730E+02</rscale>
<asrwt>0</asrwt>
<pdfrwt beam="1">  1        2 0.22146383E-01 0.92205730E+02</pdfrwt>
<pdfrwt beam="2">  1       -2 0.22715710E-02 0.92205730E+02</pdfrwt>
<totfact> 0.13372785E+05</totfact>
</mgrwt>
</event>
<event>
 5    1  0.6027538E+000  0.9088432E+02  0.7546771E-02  0.1300724E+00
         -2   -1    0    0    0  501 -0.00000000000E+00  0.00000000000E+00  0.67935489369E+02  0.67935489369E+02  0.00000000000E+00 0.  1.
          2   -1    0    0  501    0  0.00000000000E+00 -0.00000000000E+00 -0.30396337879E+02  0.30396337879E+02  0.00000000000E+00 0. -1.
         23    2    1    2    0    0  0.00000000000E+00  0.00000000000E+00  0.37539151490E+02  0.98331827249E+02  0.90884324036E+02 0.  0.
        -13    1    3    3    0    0 -0.85594879330E+01  0.27472596476E+02 -0.19283237095E+02  0.34638874457E+02  0.00000000000E+00 0. -1.
         13    1    3    3    0    0  0.85594879330E+01 -0.27472596476E+02  0.56822388585E+02  0.63692952791E+02  0.00000000000E+00 0.  1.
<mgrwt>
<rscale>  0 0.90884324E+02</rscale>
<asrwt>0</asrwt>
<pdfrwt beam="2">  1        2 0.46763597E-02 0.90884324E+02</pdfrwt>
<pdfrwt beam="1">  1       -2 0.10451614E-01 0.90884324E+02</pdfrwt>
<totfact> 0.89625518E+04</totfact>
</mgrwt>
</event>
<event>
 5    1  0.6027538E+000  0.9192262E+02  0.7546771E-02  0.1298261E+00
         -3   -1    0    0    0  501 -0.00000000000E+00  0.00000000000E+00  0.16576785197E+03  0.16576785197E+03  0.00000000000E+00 0.  1.
          3   -1    0    0  501    0  0.00000000000E+00 -0.00000000000E+00 -0.12743376800E+02  0.12743376800E+02  0.00000000000E+00 0. -1.
         23    2    1    2    0    0  0.00000000000E+00  0.00000000000E+00  0.15302447516E+03  0.17851122877E+03  0.91922623962E+02 0.  0.
        -13    1    3    3    0    0  0.34224638670E+02 -0.29075119981E+02  0.95515182961E+02  0.10554543415E+03  0.00000000000E+00 0. -1.
         13    1    3    3    0    0 -0.34224638670E+02  0.29075119981E+02  0.57509292204E+02  0.72965794615E+02  0.00000000000E+00 0.  1.
<mgrwt>
<rscale>  0 0.91922624E+02</rscale>
<asrwt>0</asrwt>
<pdfrwt beam="2">  1        3 0.19605196E-02 0.91922624E+02</pdfrwt>
<pdfrwt beam="1">  1       -3 0.25502745E-01 0.91922624E+02</pdfrwt>
<totfact> 0.29001552E+04</totfact>
</mgrwt>
</event>
<event>
 5    1  0.6027538E+000  0.9172275E+02  0.7546771E-02  0.1298733E+00
         -3   -1    0    0    0  501 -0.00000000000E+00  0.00000000000E+00  0.15340070748E+02  0.15340070748E+02  0.00000000000E+00 0.  1.
          3   -1    0    0  501    0  0.00000000000E+00 -0.00000000000E+00 -0.13710927149E+03  0.13710927149E+03  0.00000000000E+00 0. -1.
         23    2    1    2    0    0  0.00000000000E+00  0.00000000000E+00 -0.12176920074E+03  0.15244934224E+03  0.91722754537E+02 0.  0.
        -13    1    3    3    0    0 -0.37265098236E+02 -0.55402828735E+01 -0.17419611288E+02  0.41506928799E+02  0.00000000000E+00 0.  1.
         13    1    3    3    0    0  0.37265098236E+02  0.55402828735E+01 -0.10434958946E+03  0.11094241344E+03  0.00000000000E+00 0. -1.
<mgrwt>
<rscale>  0 0.91722755E+02</rscale>
<asrwt>0</asrwt>
<pdfrwt beam="2">  1        3 0.21093733E-01 0.91722755E+02</pdfrwt>
<pdfrwt beam="1">  1       -3 0.23600110E-02 0.91722755E+02</pdfrwt>
<totfact> 0.30657332E+04</totfact>
</mgrwt>
</event>
<event>
 5    1  0.6027538E+000  0.8980201E+02  0.7546771E-02  0.1303332E+00
          2   -1    0    0  501    0  0.00000000000E+00  0.00000000000E+00  0.17619511993E+03  0.17619511993E+03  0.00000000000E+00 0.  1.
         -2   -1    0    0    0  501 -0.00000000000E+00 -0.00000000000E+00 -0.11442429480E+02  0.11442429480E+02  0.00000000000E+00 0. -1.
         23    2    1    2    0    0  0.00000000000E+00  0.00000000000E+00  0.16475269045E+03  0.18763754941E+03  0.89802009655E+02 0.  0.
        -13    1    3    3    0    0 -0.23795693781E+02 -0.33061090356E+02  0.42906622984E+02  0.59162902515E+02  0.00000000000E+00 0. -1.
         13    1    3    3    0    0  0.23795693781E+02  0.33061090356E+02  0.12184606747E+03  0.12847464689E+03  0.00000000000E+00 0.  1.
<mgrwt>
<rscale>  0 0.89802010E+02</rscale>
<asrwt>0</asrwt>
<pdfrwt beam="1">  1        2 0.27106940E-01 0.89802010E+02</pdfrwt>
<pdfrwt beam="2">  1       -2 0.17603739E-02 0.89802010E+02</pdfrwt>
<totfact> 0.15400699E+05</totfact>
</mgrwt>
</event>
<event>
 5    1  0.6027538E+000  0.1059005E+03  0.7546771E-02  0.1268356E+00
          2   -1    0    0  501    0  0.00000000000E+00  0.00000000000E+00  0.62693023147E+02  0.62693023147E+02  0.00000000000E+00 0. -1.
         -2   -1    0    0    0  501 -0.00000000000E+00 -0.00000000000E+00 -0.44721512831E+02  0.44721512831E+02  0.00000000000E+00 0.  1.
         23    2    1    2    0    0  0.00000000000E+00  0.00000000000E+00  0.17971510316E+02  0.10741453598E+03  0.10590045966E+03 0.  0.
        -13    1    3    3    0    0  0.10455885896E+02 -0.26213079529E+02 -0.36457426509E+02  0.46104175906E+02  0.00000000000E+00 0.  1.
         13    1    3    3    0    0 -0.10455885896E+02  0.26213079529E+02  0.54428936825E+02  0.61310360072E+02  0.00000000000E+00 0. -1.
<mgrwt>
<rscale>  0 0.10590046E+03</rscale>
<asrwt>0</asrwt>
<pdfrwt beam="1">  1        2 0.96450804E-02 0.10590046E+03</pdfrwt>
<pdfrwt beam="2">  1       -2 0.68802328E-02 0.10590046E+03</pdfrwt>
<totfact> 0.70008231E+04</totfact>
</mgrwt>
</event>
<event>
 5    1  0.6027538E+000  0.9407180E+02  0.7546771E-02  0.1293280E+00
          2   -1    0    0  501    0  0.00000000000E+00  0.00000000000E+00  0.18357980887E+03  0.18357980887E+03  0.00000000000E+00 0. -1.
         -2   -1    0    0    0  501 -0.00000000000E+00 -0.00000000000E+00 -0.12051303983E+02  0.12051303983E+02  0.00000000000E+00 0.  1.
         23    2    1    2    0    0  0.00000000000E+00  0.00000000000E+00  0.17152850489E+03  0.19563111286E+03  0.94071804104E+02 0.  0.
        -13    1    3    3    0    0  0.33468342674E+02 -0.30093916529E+02  0.11417201037E+03  0.12272335444E+03  0.00000000000E+00 0. -1.
         13    1    3    3    0    0 -0.33468342674E+02  0.30093916529E+02  0.57356494523E+02  0.72907758417E+02  0.00000000000E+00 0.  1.
<mgrwt>
<rscale>  0 0.94071804E+02</rscale>
<asrwt>0</asrwt>
<pdfrwt beam="1">  1        2 0.28243045E-01 0.94071804E+02</pdfrwt>
<pdfrwt beam="2">  1       -2 0.18540469E-02 0.94071804E+02</pdfrwt>
<totfact> 0.13783075E+05</totfact>
</mgrwt>
</event>
<event>
 5    1  0.6027538E+000  0.9075381E+02  0.7546771E-02  0.1301036E+00
          3   -1    0    0  501    0  0.00000000000E+00  0.00000000000E+00  0.11719991415E+02  0.11719991415E+02  0.00000000000E+00 0. -1.
         -3   -1    0    0    0  501 -0.00000000000E+00 -0.00000000000E+00 -0.17568813607E+03  0.17568813607E+03  0.00000000000E+00 0.  1.
         23    2    1    2    0    0  0.00000000000E+00  0.00000000000E+00 -0.16396814466E+03  0.18740812749E+03  0.90753808658E+02 0.  0.
        -13    1    3    3    0    0 -0.71175510796E+01 -0.30305766261E+02 -0.13808353326E+02  0.34055390522E+02  0.00000000000E+00 0. -1.
         13    1    3    3    0    0  0.71175510796E+01  0.30305766261E+02 -0.15015979133E+03  0.15335273697E+03  0.00000000000E+00 0.  1.
<mgrwt>
<rscale>  0 0.90753809E+02</rscale>
<asrwt>0</asrwt>
<pdfrwt beam="1">  1        3 0.18030756E-02 0.90753809E+02</pdfrwt>
<pdfrwt beam="2">  1       -3 0.27028944E-01 0.90753809E+02</pdfrwt>
<totfact> 0.29530524E+04</totfact>
</mgrwt>
</event>
<event>
 5    1  0.6027538E+000  0.8896663E+02  0.7546771E-02  0.1305374E+00
         -1   -1    0    0    0  501 -0.00000000000E+00  0.00000000000E+00  0.28913510166E+03  0.28913510166E+03  0.00000000000E+00 0.  1.
          1   -1    0    0  501    0  0.00000000000E+00 -0.00000000000E+00 -0.68437400043E+01  0.68437400043E+01  0.00000000000E+00 0. -1.
         23    2    1    2    0    0  0.00000000000E+00  0.00000000000E+00  0.28229136166E+03  0.29597884167E+03  0.88966633338E+02 0.  0.
        -13    1    3    3    0    0  0.42859492254E+02 -0.81559985401E+01  0.11227499093E+03  0.12045384999E+03  0.00000000000E+00 0.  1.
         13    1    3    3    0    0 -0.42859492254E+02  0.81559985401E+01  0.17001637073E+03  0.17552499168E+03  0.00000000000E+00 0. -1.
<mgrwt>
<rscale>  0 0.88966633E+02</rscale>
<asrwt>0</asrwt>
<pdfrwt beam="2">  1        1 0.10528833E-02 0.88966633E+02</pdfrwt>
<pdfrwt beam="1">  1       -1 0.44482314E-01 0.88966633E+02</pdfrwt>
<totfact> 0.65525720E+04</totfact>
</mgrwt>
</event>
<event>
 5    1  0.6027538E+000  0.9106795E+02  0.7546771E-02  0.1300286E+00
         -2   -1    0    0    0  501 -0.00000000000E+00  0.00000000000E+00  0.34668868123E+02  0.34668868123E+02  0.00000000000E+00 0.  1.
          2   -1    0    0  501    0  0.00000000000E+00 -0.00000000000E+00 -0.59804169438E+02  0.59804169438E+02  0.00000000000E+00 0. -1.
         23    2    1    2    0    0  0.00000000000E+00  0.00000000000E+00 -0.25135301315E+02  0.94473037562E+02  0.91067949653E+02 0.  0.
        -13    1    3    3    0    0 -0.19528916350E+02  0.16212941150E+02  0.26649348955E+02  0.36802524836E+02  0.00000000000E+00 0.  1.
         13    1    3    3    0    0  0.19528916350E+02 -0.16212941150E+02 -0.51784650270E+02  0.57670512726E+02  0.00000000000E+00 0. -1.
<mgrwt>
<rscale>  0 0.91067950E+02</rscale>
<asrwt>0</asrwt>
<pdfrwt beam="2">  1        2 0.92006413E-02 0.91067950E+02</pdfrwt>
<pdfrwt beam="1">  1       -2 0.53336721E-02 0.91067950E+02</pdfrwt>
<totfact> 0.10633454E+05</totfact>
</mgrwt>
</event>
<event>
 5    1  0.6027538E+000  0.9123072E+02  0.7546771E-02  0.1299898E+00
         -1   -1    0    0    0  501 -0.00000000000E+00  0.00000000000E+00  0.50497594047E+02  0.50497594047E+02  0.00000000000E+00 0.  1.
          1   -1    0    0  501    0  0.00000000000E+00 -0.00000000000E+00 -0.41205152005E+02  0.41205152005E+02  0.00000000000E+00 0. -1.
         23    2    1    2    0    0  0.00000000000E+00  0.00000000000E+00  0.92924420423E+01  0.91702746052E+02  0.91230719357E+02 0.  0.
        -13    1    3    3    0    0 -0.13867682792E+00 -0.35526034062E+02 -0.24113749812E+02  0.42937061584E+02  0.00000000000E+00 0. -1.
         13    1    3    3    0    0  0.13867682792E+00  0.35526034062E+02  0.33406191855E+02  0.48765684468E+02  0.00000000000E+00 0.  1.
<mgrwt>
<rscale>  0 0.91230719E+02</rscale>
<asrwt>0</asrwt>
<pdfrwt beam="2">  1        1 0.63392542E-02 0.91230719E+02</pdfrwt>
<pdfrwt beam="1">  1       -1 0.77688606E-02 0.91230719E+02</pdfrwt>
<totfact> 0.90921140E+04</totfact>
</mgrwt>
</event>
<event>
 5    1  0.6027538E+000  0.7475737E+02  0.7546771E-02  0.1344624E+00
          2   -1    0    0  501    0  0.00000000000E+00  0.00000000000E+00  0.97132919496E+02  0.97132919496E+02  0.00000000000E+00 0. -1.
         -2   -1    0    0    0  501 -0.00000000000E+00 -0.00000000000E+00 -0.14384065220E+02  0.14384065220E+02  0.00000000000E+00 0.  1.
         23    2    1    2    0    0  0.00000000000E+00  0.00000000000E+00  0.82748854276E+02  0.11151698472E+03  0.74757374194E+02 0.  0.
        -13    1    3    3    0    0  0.24334989219E+02 -0.26718478035E+02  0.55612137762E+02  0.66323288785E+02  0.00000000000E+00 0.  1.
         13    1    3    3    0    0 -0.24334989219E+02  0.26718478035E+02  0.27136716514E+02  0.45193695932E+02  0.00000000000E+00 0. -1.
<mgrwt>
<rscale>  0 0.74757374E+02</rscale>
<asrwt>0</asrwt>
<pdfrwt beam="1">  1        2 0.14943526E-01 0.74757374E+02</pdfrwt>
<pdfrwt beam="2">  1       -2 0.22129332E-02 0.74757374E+02</pdfrwt>
<totfact> 0.20849642E+05</totfact>
</mgrwt>
</event>
<event>
 5    1  0.6027538E+000  0.9193310E+02  0.7546771E-02  0.1298237E+00
         -2   -1    0    0    0  501 -0.00000000000E+00  0.00000000000E+00  0.22027392477E+02  0.22027392477E+02  0.00000000000E+00 0.  1.
          2   -1    0    0  501    0  0.00000000000E+00 -0.00000000000E+00 -0.95922546082E+02  0.95922546082E+02  0.00000000000E+00 0. -1.
         23    2    1    2    0    0  0.00000000000E+00  0.00000000000E+00 -0.73895153605E+02  0.11794993856E+03  0.91933096759E+02 0.  0.
        -13    1    3    3    0    0  0.55341953600E+01 -0.28176103106E+02  0.91047705382E+01  0.30123362214E+02  0.00000000000E+00 0.  1.
         13    1    3    3    0    0 -0.55341953600E+01  0.28176103106E+02 -0.82999924143E+02  0.87826576344E+02  0.00000000000E+00 0. -1.
<mgrwt>
<rscale>  0 0.91933097E+02</rscale>
<asrwt>0</asrwt>
<pdfrwt beam="2">  1        2 0.14757315E-01 0.91933097E+02</pdfrwt>
<pdfrwt beam="1">  1       -2 0.33888296E-02 0.91933097E+02</pdfrwt>
<totfact> 0.11840750E+05</totfact>
</mgrwt>
</event>
<event>
 5    1  0.6027538E+000  0.9042341E+02  0.7546771E-02  0.1301830E+00
         -3   -1    0    0    0  501 -0.00000000000E+00  0.00000000000E+00  0.18099141701E+02  0.18099141701E+02  0.00000000000E+00 0.  1.
          3   -1    0    0  501    0  0.00000000000E+00 -0.00000000000E+00 -0.11293896346E+03  0.11293896346E+03  0.00000000000E+00 0. -1.
         23    2    1    2    0    0  0.00000000000E+00  0.00000000000E+00 -0.94839821755E+02  0.13103810516E+03  0.90423410756E+02 0.  0.
        -13    1    3    3    0    0 -0.14683388159E+02  0.23259357740E+02  0.45785056233E+01  0.27884804536E+02  0.00000000000E+00 0.  1.
         13    1    3    3    0    0  0.14683388159E+02 -0.23259357740E+02 -0.99418327378E+02  0.10315330062E+03  0.00000000000E+00 0. -1.
<mgrwt>
<rscale>  0 0.90423411E+02</rscale>
<asrwt>0</asrwt>
<pdfrwt beam="2">  1        3 0.17375226E-01 0.90423411E+02</pdfrwt>
<pdfrwt beam="1">  1       -3 0.27844833E-02 0.90423411E+02</pdfrwt>
<totfact> 0.33246443E+04</totfact>
</mgrwt>
</event>
<event>
 5    1  0.6027538E+000  0.7937700E+02  0.7546771E-02  0.1330829E+00
         -1   -1    0    0    0  501 -0.00000000000E+00  0.00000000000E+00  0.13221785055E+03  0.13221785055E+03  0.00000000000E+00 0.  1.
          1   -1    0    0  501    0  0.00000000000E+00 -0.00000000000E+00 -0.11913498250E+02  0.11913498250E+02  0.00000000000E+00 0. -1.
         23    2    1    2    0    0  0.00000000000E+00  0.00000000000E+00  0.12030435230E+03  0.14413134880E+03  0.79377002493E+02 0.  0.
        -13    1    3    3    0    0  0.33412742612E+02 -0.54176291369E+01  0.97779418477E+02  0.10347258937E+03  0.00000000000E+00 0.  1.
         13    1    3    3    0    0 -0.33412742612E+02  0.54176291369E+01  0.22524933824E+02  0.40658759426E+02  0.00000000000E+00 0. -1.
<mgrwt>
<rscale>  0 0.79377002E+02</rscale>
<asrwt>0</asrwt>
<pdfrwt beam="2">  1        1 0.18328460E-02 0.79377002E+02</pdfrwt>
<pdfrwt beam="1">  1       -1 0.20341207E-01 0.79377002E+02</pdfrwt>
<totfact> 0.11001527E+05</totfact>
</mgrwt>
</event>
<event>
 5    1  0.6027538E+000  0.8203763E+02  0.7546771E-02  0.1323366E+00
         -4   -1    0    0    0  501 -0.00000000000E+00  0.00000000000E+00  0.61909494037E+02  0.61909494037E+02  0.00000000000E+00 0.  1.
          4   -1    0    0  501    0  0.00000000000E+00 -0.00000000000E+00 -0.27177464259E+02  0.27177464259E+02  0.00000000000E+00 0. -1.
         23    2    1    2    0    0  0.00000000000E+00  0.00000000000E+00  0.34732029778E+02  0.89086958296E+02  0.82037627013E+02 0.  0.
        -13    1    3    3    0    0 -0.97171869951E+01 -0.13470018404E+02  0.58094511561E+02  0.60422159780E+02  0.00000000000E+00 0.  1.
         13    1    3    3    0    0  0.97171869951E+01  0.13470018404E+02 -0.23362481784E+02  0.28664798516E+02  0.00000000000E+00 0. -1.
<mgrwt>
<rscale>  0 0.82037627E+02</rscale>
<asrwt>0</asrwt>
<pdfrwt beam="2">  1        4 0.41811484E-02 0.82037627E+02</pdfrwt>
<pdfrwt beam="1">  1       -4 0.95245375E-02 0.82037627E+02</pdfrwt>
<totfact> 0.36080573E+04</totfact>
</mgrwt>
</event>
<event>
 5    1  0.6027538E+000  0.9127562E+02  0.7546771E-02  0.1299792E+00
         -1   -1    0    0    0  501 -0.00000000000E+00  0.00000000000E+00  0.16658629130E+02  0.16658629130E+02  0.00000000000E+00 0.  1.
          1   -1    0    0  501    0  0.00000000000E+00 -0.00000000000E+00 -0.12502886726E+03  0.12502886726E+03  0.00000000000E+00 0. -1.
         23    2    1    2    0    0  0.00000000000E+00  0.00000000000E+00 -0.10837023813E+03  0.14168749639E+03  0.91275616243E+02 0.  0.
        -13    1    3    3    0    0  0.42607697880E+02  0.15844355062E+02 -0.60461885266E+02  0.75644557477E+02  0.00000000000E+00 0.  1.
         13    1    3    3    0    0 -0.42607697880E+02 -0.15844355062E+02 -0.47908352859E+02  0.66042938908E+02  0.00000000000E+00 0. -1.
<mgrwt>
<rscale>  0 0.91275616E+02</rscale>
<asrwt>0</asrwt>
<pdfrwt beam="2">  1        1 0.19235210E-01 0.91275616E+02</pdfrwt>
<pdfrwt beam="1">  1       -1 0.25628661E-02 0.91275616E+02</pdfrwt>
<totfact> 0.10819748E+05</totfact>
</mgrwt>
</event>
<event>
 5    1  0.6027538E+000  0.9166310E+02  0.7546771E-02  0.1298874E+00
          2   -1    0    0  501    0  0.00000000000E+00  0.00000000000E+00  0.36385286555E+02  0.36385286555E+02  0.00000000000E+00 0. -1.
         -2   -1    0    0    0  501 -0.00000000000E+00 -0.00000000000E+00 -0.57730234134E+02  0.57730234134E+02  0.00000000000E+00 0.  1.
         23    2    1    2    0    0  0.00000000000E+00  0.00000000000E+00 -0.21344947579E+02  0.94115520689E+02  0.91663102977E+02 0.  0.
        -13    1    3    3    0    0 -0.19849814498E+02 -0.43223059259E+01 -0.52854896035E+02  0.56624530894E+02  0.00000000000E+00 0.  1.
         13    1    3    3    0    0  0.19849814498E+02  0.43223059259E+01  0.31509948456E+02  0.37490989795E+02  0.00000000000E+00 0. -1.
<mgrwt>
<rscale>  0 0.91663103E+02</rscale>
<asrwt>0</asrwt>
<pdfrwt beam="1">  1        2 0.55977364E-02 0.91663103E+02</pdfrwt>
<pdfrwt beam="2">  1       -2 0.88815744E-02 0.91663103E+02</pdfrwt>
<totfact> 0.91638858E+04</totfact>
</mgrwt>
</event>
<event>
 5    1  0.6027538E+000  0.8750298E+02  0.7546771E-02  0.1309014E+00
          3   -1    0    0  501    0  0.00000000000E+00  0.00000000000E+00  0.32430012023E+02  0.32430012023E+02  0.00000000000E+00 0. -1.
         -3   -1    0    0    0  501 -0.00000000000E+00 -0.00000000000E+00 -0.59025355095E+02  0.59025355095E+02  0.00000000000E+00 0.  1.
         23    2    1    2    0    0  0.00000000000E+00  0.00000000000E+00 -0.26595343072E+02  0.91455367118E+02  0.87502982244E+02 0.  0.
        -13    1    3    3    0    0  0.54144055207E+00  0.38106377952E+02  0.91626041635E+01  0.39196205347E+02  0.00000000000E+00 0. -1.
         13    1    3    3    0    0 -0.54144055207E+00 -0.38106377952E+02 -0.35757947236E+02  0.52259161771E+02  0.00000000000E+00 0.  1.
<mgrwt>
<rscale>  0 0.87502982E+02</rscale>
<asrwt>0</asrwt>
<pdfrwt beam="1">  1        3 0.49892327E-02 0.87502982E+02</pdfrwt>
<pdfrwt beam="2">  1       -3 0.90808237E-02 0.87502982E+02</pdfrwt>
<totfact> 0.39488471E+04</totfact>
</mgrwt>
</event>
<event>
 5    1  0.6027538E+000  0.9460823E+02  0.7546771E-02  0.1292061E+00
          1   -1    0    0  501    0  0.00000000000E+00  0.00000000000E+00  0.25240578900E+02  0.25240578900E+02  0.00000000000E+00 0. -1.
         -1   -1    0    0    0  501 -0.00000000000E+00 -0.00000000000E+00 -0.88654032864E+02  0.88654032864E+02  0.00000000000E+00 0.  1.
         23    2    1    2    0    0  0.00000000000E+00  0.00000000000E+00 -0.63413453965E+02  0.11389461176E+03  0.94608226096E+02 0.  0.
        -13    1    3    3    0    0 -0.18692842972E+02  0.24945630799E+02  0.11127049867E+02  0.33098611951E+02  0.00000000000E+00 0. -1.
         13    1    3    3    0    0  0.18692842972E+02 -0.24945630799E+02 -0.74540503832E+02  0.80795999813E+02  0.00000000000E+00 0.  1.
<mgrwt>
<rscale>  0 0.94608226E+02</rscale>
<asrwt>0</asrwt>
<pdfrwt beam="1">  1        1 0.38831661E-02 0.94608226E+02</pdfrwt>
<pdfrwt beam="2">  1       -1 0.13639082E-01 0.94608226E+02</pdfrwt>
<totfact> 0.75628407E+04</totfact>
</mgrwt>
</event>
<event>
 5    1  0.6027538E+000  0.8781521E+02  0.7546771E-02  0.1308230E+00
         -2   -1    0    0    0  501 -0.00000000000E+00  0.00000000000E+00  0.98761931678E+01  0.98761931678E+01  0.00000000000E+00 0.  1.
          2   -1    0    0  501    0  0.00000000000E+00 -0.00000000000E+00 -0.19520453621E+03  0.19520453621E+03  0.00000000000E+00 0. -1.
         23    2    1    2    0    0  0.00000000000E+00  0.00000000000E+00 -0.18532834304E+03  0.20508072938E+03  0.87815208406E+02 0.  0.
        -13    1    3    3    0    0  0.35253127125E+02 -0.22462425509E+02 -0.12404286305E+03  0.13089681206E+03  0.00000000000E+00 0. -1.
         13    1    3    3    0    0 -0.35253127125E+02  0.22462425509E+02 -0.61285479988E+02  0.74183917322E+02  0.00000000000E+00 0.  1.
<mgrwt>
<rscale>  0 0.87815208E+02</rscale>
<asrwt>0</asrwt>
<pdfrwt beam="2">  1        2 0.30031468E-01 0.87815208E+02</pdfrwt>
<pdfrwt beam="1">  1       -2 0.15194143E-02 0.87815208E+02</pdfrwt>
<totfact> 0.16961057E+05</totfact>
</mgrwt>
</event>
<event>
 5    1  0.6027538E+000  0.9496059E+02  0.7546771E-02  0.1291265E+00
          1   -1    0    0  501    0  0.00000000000E+00  0.00000000000E+00  0.98142609051E+02  0.98142609051E+02  0.00000000000E+00 0. -1.
         -1   -1    0    0    0  501 -0.00000000000E+00 -0.00000000000E+00 -0.22970434280E+02  0.22970434280E+02  0.00000000000E+00 0.  1.
         23    2    1    2    0    0  0.00000000000E+00  0.00000000000E+00  0.75172174771E+02  0.12111304333E+03  0.94960588693E+02 0.  0.
        -13    1    3    3    0    0 -0.25150116227E+02  0.34594280372E+02  0.63881851949E+02  0.76877718418E+02  0.00000000000E+00 0. -1.
         13    1    3    3    0    0  0.25150116227E+02 -0.34594280372E+02  0.11290322822E+02  0.44235324913E+02  0.00000000000E+00 0.  1.
<mgrwt>
<rscale>  0 0.94960589E+02</rscale>
<asrwt>0</asrwt>
<pdfrwt beam="1">  1        1 0.15098863E-01 0.94960589E+02</pdfrwt>
<pdfrwt beam="2">  1       -1 0.35339130E-02 0.94960589E+02</pdfrwt>
<totfact> 0.93160394E+04</totfact>
</mgrwt>
</event>
<event>
 5    1  0.6027538E+000  0.9074633E+02  0.7546771E-02  0.1301054E+00
          1   -1    0    0  501    0  0.00000000000E+00  0.00000000000E+00  0.44322652310E+02  0.44322652310E+02  0.00000000000E+00 0. -1.
         -1   -1    0    0    0  501 -0.00000000000E+00 -0.00000000000E+00 -0.46448580530E+02  0.46448580530E+02  0.00000000000E+00 0.  1.
         23    2    1    2    0    0  0.00000000000E+00  0.00000000000E+00 -0.21259282194E+01  0.90771232840E+02  0.90746334033E+02 0.  0.
        -13    1    3    3    0    0  0.19809995825E+02  0.98641273683E+01 -0.40684277206E+02  0.46313576358E+02  0.00000000000E+00 0.  1.
         13    1    3    3    0    0 -0.19809995825E+02 -0.98641273683E+01  0.38558348986E+02  0.44457656482E+02  0.00000000000E+00 0. -1.
<mgrwt>
<rscale>  0 0.90746334E+02</rscale>
<asrwt>0</asrwt>
<pdfrwt beam="1">  1        1 0.68188696E-02 0.90746334E+02</pdfrwt>
<pdfrwt beam="2">  1       -1 0.71459355E-02 0.90746334E+02</pdfrwt>
<totfact> 0.93313497E+04</totfact>
</mgrwt>
</event>
<event>
 5    1  0.6027538E+000  0.9160688E+02  0.7546771E-02  0.1299006E+00
         -2   -1    0    0    0  501 -0.00000000000E+00  0.00000000000E+00  0.10159404159E+02  0.10159404159E+02  0.00000000000E+00 0.  1.
          2   -1    0    0  501    0  0.00000000000E+00 -0.00000000000E+00 -0.20650374641E+03  0.20650374641E+03  0.00000000000E+00 0. -1.
         23    2    1    2    0    0  0.00000000000E+00  0.00000000000E+00 -0.19634434225E+03  0.21666315057E+03  0.91606877908E+02 0.  0.
        -13    1    3    3    0    0  0.40978009948E+02  0.91999392475E+00 -0.49821885302E+02  0.64515610074E+02  0.00000000000E+00 0.  1.
         13    1    3    3    0    0 -0.40978009948E+02 -0.91999392475E+00 -0.14652245695E+03  0.15214754049E+03  0.00000000000E+00 0. -1.
<mgrwt>
<rscale>  0 0.91606878E+02</rscale>
<asrwt>0</asrwt>
<pdfrwt beam="2">  1        2 0.31769806E-01 0.91606878E+02</pdfrwt>
<pdfrwt beam="1">  1       -2 0.15629853E-02 0.91606878E+02</pdfrwt>
<totfact> 0.15451378E+05</totfact>
</mgrwt>
</event>
<event>
 5    1  0.6027538E+000  0.9205277E+02  0.7546771E-02  0.1297955E+00
          2   -1    0    0  501    0  0.00000000000E+00  0.00000000000E+00  0.39688032206E+02  0.39688032206E+02  0.00000000000E+00 0. -1.
         -2   -1    0    0    0  501 -0.00000000000E+00 -0.00000000000E+00 -0.53377002248E+02  0.53377002248E+02  0.00000000000E+00 0.  1.
         23    2    1    2    0    0  0.00000000000E+00  0.00000000000E+00 -0.13688970042E+02  0.93065034454E+02  0.92052771479E+02 0.  0.
        -13    1    3    3    0    0  0.20119338662E+02  0.25794792429E+02  0.25888533920E+02  0.41717805469E+02  0.00000000000E+00 0. -1.
         13    1    3    3    0    0 -0.20119338662E+02 -0.25794792429E+02 -0.39577503961E+02  0.51347228985E+02  0.00000000000E+00 0.  1.
<mgrwt>
<rscale>  0 0.92052771E+02</rscale>
<asrwt>0</asrwt>
<pdfrwt beam="1">  1        2 0.61058511E-02 0.92052771E+02</pdfrwt>
<pdfrwt beam="2">  1       -2 0.82118465E-02 0.92052771E+02</pdfrwt>
<totfact> 0.92588363E+04</totfact>
</mgrwt>
</event>
<event>
 5    1  0.6027538E+000  0.8828229E+02  0.7546771E-02  0.1307065E+00
         -2   -1    0    0    0  501 -0.00000000000E+00  0.00000000000E+00  0.21807196165E+03  0.21807196165E+03  0.00000000000E+00 0.  1.
          2   -1    0    0  501    0  0.00000000000E+00 -0.00000000000E+00 -0.89348520721E+01  0.89348520721E+01  0.00000000000E+00 0. -1.
         23    2    1    2    0    0  0.00000000000E+00  0.00000000000E+00  0.20913710958E+03  0.22700681373E+03  0.88282290828E+02 0.  0.
        -13    1    3    3    0    0 -0.17229159031E+02  0.38234054893E+02  0.13998953620E+03  0.14613609110E+03  0.00000000000E+00 0.  1.
         13    1    3    3    0    0  0.17229159031E+02 -0.38234054893E+02  0.69147573378E+02  0.80870722629E+02  0.00000000000E+00 0. -1.
<mgrwt>
<rscale>  0 0.88282291E+02</rscale>
<asrwt>0</asrwt>
<pdfrwt beam="2">  1        2 0.13745928E-02 0.88282291E+02</pdfrwt>
<pdfrwt beam="1">  1       -2 0.33549529E-01 0.88282291E+02</pdfrwt>
<totfact> 0.65120320E+04</totfact>
</mgrwt>
</event>
<event>
 5    1  0.6027538E+000  0.9014496E+02  0.7546771E-02  0.1302501E+00
          3   -1    0    0  501    0  0.00000000000E+00  0.00000000000E+00  0.16634548470E+02  0.16634548470E+02  0.00000000000E+00 0. -1.
         -3   -1    0    0    0  501 -0.00000000000E+00 -0.00000000000E+00 -0.12212706701E+03  0.12212706701E+03  0.00000000000E+00 0.  1.
         23    2    1    2    0    0  0.00000000000E+00  0.00000000000E+00 -0.10549251854E+03  0.13876161548E+03  0.90144963602E+02 0.  0.
        -13    1    3    3    0    0 -0.31748317215E+02 -0.31993297642E+02 -0.52679592298E+02  0.69330124655E+02  0.00000000000E+00 0. -1.
         13    1    3    3    0    0  0.31748317215E+02  0.31993297642E+02 -0.52812926247E+02  0.69431490829E+02  0.00000000000E+00 0.  1.
<mgrwt>
<rscale>  0 0.90144964E+02</rscale>
<asrwt>0</asrwt>
<pdfrwt beam="1">  1        3 0.25591614E-02 0.90144964E+02</pdfrwt>
<pdfrwt beam="2">  1       -3 0.18788779E-01 0.90144964E+02</pdfrwt>
<totfact> 0.33011450E+04</totfact>
</mgrwt>
</event>
<event>
 5    1  0.6027538E+000  0.9081987E+02  0.7546771E-02  0.1300878E+00
          2   -1    0    0  501    0  0.00000000000E+00  0.00000000000E+00  0.18967860745E+02  0.18967860745E+02  0.00000000000E+00 0.  1.
         -2   -1    0    0    0  501 -0.00000000000E+00 -0.00000000000E+00 -0.10871347443E+03  0.10871347443E+03  0.00000000000E+00 0. -1.
         23    2    1    2    0    0  0.00000000000E+00  0.00000000000E+00 -0.89745613680E+02  0.12768133517E+03  0.90819866637E+02 0.  0.
        -13    1    3    3    0    0 -0.13051132816E+02 -0.13914627209E+02  0.13060706274E+02  0.23119925746E+02  0.00000000000E+00 0.  1.
         13    1    3    3    0    0  0.13051132816E+02  0.13914627209E+02 -0.10280631995E+03  0.10456140942E+03  0.00000000000E+00 0. -1.
<mgrwt>
<rscale>  0 0.90819867E+02</rscale>
<asrwt>0</asrwt>
<pdfrwt beam="1">  1        2 0.29181325E-02 0.90819867E+02</pdfrwt>
<pdfrwt beam="2">  1       -2 0.16725150E-01 0.90819867E+02</pdfrwt>
<totfact> 0.78574292E+04</totfact>
</mgrwt>
</event>
<event>
 5    1  0.6027538E+000  0.8338075E+02  0.7546771E-02  0.1319722E+00
         -1   -1    0    0    0  501 -0.00000000000E+00  0.00000000000E+00  0.48344494046E+01  0.48344494046E+01  0.00000000000E+00 0.  1.
          1   -1    0    0  501    0  0.00000000000E+00 -0.00000000000E+00 -0.35952127018E+03  0.35952127018E+03  0.00000000000E+00 0. -1.
         23    2    1    2    0    0  0.00000000000E+00  0.00000000000E+00 -0.35468682078E+03  0.36435571959E+03  0.83380750550E+02 0.  0.
        -13    1    3    3    0    0  0.36839578471E+02  0.19486625365E+02 -0.18213879699E+03  0.18684599134E+03  0.00000000000E+00 0. -1.
         13    1    3    3    0    0 -0.36839578471E+02 -0.19486625365E+02 -0.17254802379E+03  0.17750972825E+03  0.00000000000E+00 0.  1.
<mgrwt>
<rscale>  0 0.83380751E+02</rscale>
<asrwt>0</asrwt>
<pdfrwt beam="2">  1        1 0.55310963E-01 0.83380751E+02</pdfrwt>
<pdfrwt beam="1">  1       -1 0.74376147E-03 0.83380751E+02</pdfrwt>
<totfact> 0.16779478E+05</totfact>
</mgrwt>
</event>
<event>
 5    1  0.6027538E+000  0.9522844E+02  0.7546771E-02  0.1290662E+00
          2   -1    0    0  501    0  0.00000000000E+00  0.00000000000E+00  0.86922639524E+02  0.86922639524E+02  0.00000000000E+00 0. -1.
         -2   -1    0    0    0  501 -0.00000000000E+00 -0.00000000000E+00 -0.26081971210E+02  0.26081971210E+02  0.00000000000E+00 0.  1.
         23    2    1    2    0    0  0.00000000000E+00  0.00000000000E+00  0.60840668314E+02  0.11300461073E+03  0.95228436542E+02 0.  0.
        -13    1    3    3    0    0  0.34896639712E+02  0.18537781607E+02  0.61943960758E+02  0.73474343036E+02  0.00000000000E+00 0. -1.
         13    1    3    3    0    0 -0.34896639712E+02 -0.18537781607E+02 -0.11032924445E+01  0.39530267698E+02  0.00000000000E+00 0.  1.
<mgrwt>
<rscale>  0 0.95228437E+02</rscale>
<asrwt>0</asrwt>
<pdfrwt beam="1">  1        2 0.13372714E-01 0.95228437E+02</pdfrwt>
<pdfrwt beam="2">  1       -2 0.40126110E-02 0.95228437E+02</pdfrwt>
<totfact> 0.10425043E+05</totfact>
</mgrwt>
</event>
<event>
 5    1  0.6027538E+000  0.1124929E+03  0.7546771E-02  0.1256022E+00
          1   -1    0    0  501    0  0.00000000000E+00  0.00000000000E+00  0.21972168584E+03  0.21972168584E+03  0.00000000000E+00 0. -1.
         -1   -1    0    0    0  501 -0.00000000000E+00 -0.00000000000E+00 -0.14398489952E+02  0.14398489952E+02  0.00000000000E+00 0.  1.
         23    2    1    2    0    0  0.00000000000E+00  0.00000000000E+00  0.20532319589E+03  0.23412017579E+03  0.11249285286E+03 0.  0.
        -13    1    3    3    0    0  0.51933674709E+02  0.20811728136E+02  0.90629111112E+02  0.10650760713E+03  0.00000000000E+00 0.  1.
         13    1    3    3    0    0 -0.51933674709E+02 -0.20811728136E+02  0.11469408478E+03  0.12761256866E+03  0.00000000000E+00 0. -1.
<mgrwt>
<rscale>  0 0.11249285E+03</rscale>
<asrwt>0</asrwt>
<pdfrwt beam="1">  1        1 0.33803334E-01 0.11249285E+03</pdfrwt>
<pdfrwt beam="2">  1       -1 0.22151525E-02 0.11249285E+03</pdfrwt>
<totfact> 0.68250424E+04</totfact>
</mgrwt>
</event>
<event>
 5    1  0.6027538E+000  0.8939273E+02  0.7546771E-02  0.1304329E+00
         -2   -1    0    0    0  501 -0.00000000000E+00  0.00000000000E+00  0.11228023465E+02  0.11228023465E+02  0.00000000000E+00 0.  1.
          2   -1    0    0  501    0  0.00000000000E+00 -0.00000000000E+00 -0.17792668229E+03  0.17792668229E+03  0.00000000000E+00 0. -1.
         23    2    1    2    0    0  0.00000000000E+00  0.00000000000E+00 -0.16669865882E+03  0.18915470575E+03  0.89392728199E+02 0.  0.
        -13    1    3    3    0    0 -0.43587398757E+02  0.96672539925E+01 -0.78886716449E+02  0.90644531893E+02  0.00000000000E+00 0.  1.
         13    1    3    3    0    0  0.43587398757E+02 -0.96672539925E+01 -0.87811942375E+02  0.98510173859E+02  0.00000000000E+00 0. -1.
<mgrwt>
<rscale>  0 0.89392728E+02</rscale>
<asrwt>0</asrwt>
<pdfrwt beam="2">  1        2 0.27373337E-01 0.89392728E+02</pdfrwt>
<pdfrwt beam="1">  1       -2 0.17273882E-02 0.89392728E+02</pdfrwt>
<totfact> 0.15645134E+05</totfact>
</mgrwt>
</event>
<event>
 5    1  0.6027538E+000  0.8974032E+02  0.7546771E-02  0.1303482E+00
         -1   -1    0    0    0  501 -0.00000000000E+00  0.00000000000E+00  0.16605262046E+02  0.16605262046E+02  0.00000000000E+00 0.  1.
          1   -1    0    0  501    0  0.00000000000E+00 -0.00000000000E+00 -0.12124659302E+03  0.12124659302E+03  0.00000000000E+00 0. -1.
         23    2    1    2    0    0  0.00000000000E+00  0.00000000000E+00 -0.10464133097E+03  0.13785185506E+03  0.89740324252E+02 0.  0.
        -13    1    3    3    0    0  0.34068170168E+02 -0.18102436471E+02 -0.17123981662E+02  0.42208638603E+02  0.00000000000E+00 0.  1.
         13    1    3    3    0    0 -0.34068170168E+02  0.18102436471E+02 -0.87517349308E+02  0.95643216459E+02  0.00000000000E+00 0. -1.
<mgrwt>
<rscale>  0 0.89740324E+02</rscale>
<asrwt>0</asrwt>
<pdfrwt beam="2">  1        1 0.18653322E-01 0.89740324E+02</pdfrwt>
<pdfrwt beam="1">  1       -1 0.25546557E-02 0.89740324E+02</pdfrwt>
<totfact> 0.11267337E+05</totfact>
</mgrwt>
</event>
<event>
 5    1  0.6027538E+000  0.8894525E+02  0.7546771E-02  0.1305426E+00
          1   -1    0    0  501    0  0.00000000000E+00  0.00000000000E+00  0.76534334162E+01  0.76534334162E+01  0.00000000000E+00 0. -1.
         -1   -1    0    0    0  501 -0.00000000000E+00 -0.00000000000E+00 -0.25842186435E+03  0.25842186435E+03  0.00000000000E+00 0.  1.
         23    2    1    2    0    0  0.00000000000E+00  0.00000000000E+00 -0.25076843093E+03  0.26607529776E+03  0.88945253545E+02 0.  0.
        -13    1    3    3    0    0  0.37468032866E+02  0.21752313163E+02 -0.15541782696E+03  0.16134347694E+03  0.00000000000E+00 0.  1.
         13    1    3    3    0    0 -0.37468032866E+02 -0.21752313163E+02 -0.95350603968E+02  0.10473182082E+03  0.00000000000E+00 0. -1.
<mgrwt>
<rscale>  0 0.88945254E+02</rscale>
<asrwt>0</asrwt>
<pdfrwt beam="1">  1        1 0.11774513E-02 0.88945254E+02</pdfrwt>
<pdfrwt beam="2">  1       -1 0.39757211E-01 0.88945254E+02</pdfrwt>
<totfact> 0.68307088E+04</totfact>
</mgrwt>
</event>
<event>
 5    1  0.6027538E+000  0.9326657E+02  0.7546771E-02  0.1295129E+00
         -4   -1    0    0    0  501 -0.00000000000E+00  0.00000000000E+00  0.66585157709E+02  0.66585157709E+02  0.00000000000E+00 0.  1.
          4   -1    0    0  501    0  0.00000000000E+00 -0.00000000000E+00 -0.32659879621E+02  0.32659879621E+02  0.00000000000E+00 0. -1.
         23    2    1    2    0    0  0.00000000000E+00  0.00000000000E+00  0.33925278088E+02  0.99245037330E+02  0.93266569259E+02 0.  0.
        -13    1    3    3    0    0 -0.30033440488E+02  0.31823221462E+02  0.34118712786E+02  0.55487039333E+02  0.00000000000E+00 0.  1.
         13    1    3    3    0    0  0.30033440488E+02 -0.31823221462E+02 -0.19343469774E+00  0.43757997997E+02  0.00000000000E+00 0. -1.
<mgrwt>
<rscale>  0 0.93266569E+02</rscale>
<asrwt>0</asrwt>
<pdfrwt beam="2">  1        4 0.50245969E-02 0.93266569E+02</pdfrwt>
<pdfrwt beam="1">  1       -4 0.10243870E-01 0.93266569E+02</pdfrwt>
<totfact> 0.24920637E+04</totfact>
</mgrwt>
</event>
<event>
 5    1  0.6027538E+000  0.9409997E+02  0.7546771E-02  0.1293216E+00
          2   -1    0    0  501    0  0.00000000000E+00  0.00000000000E+00  0.31437841027E+02  0.31437841027E+02  0.00000000000E+00 0. -1.
         -2   -1    0    0    0  501 -0.00000000000E+00 -0.00000000000E+00 -0.70415174924E+02  0.70415174924E+02  0.00000000000E+00 0.  1.
         23    2    1    2    0    0  0.00000000000E+00  0.00000000000E+00 -0.38977333897E+02  0.10185301595E+03  0.94099969716E+02 0.  0.
        -13    1    3    3    0    0 -0.10178127498E+02  0.15078501182E+02  0.27476971457E+02  0.32953595217E+02  0.00000000000E+00 0. -1.
         13    1    3    3    0    0  0.10178127498E+02 -0.15078501182E+02 -0.66454305354E+02  0.68899420733E+02  0.00000000000E+00 0.  1.
<mgrwt>
<rscale>  0 0.94099970E+02</rscale>
<asrwt>0</asrwt>
<pdfrwt beam="1">  1        2 0.48365910E-02 0.94099970E+02</pdfrwt>
<pdfrwt beam="2">  1       -2 0.10833104E-01 0.94099970E+02</pdfrwt>
<totfact> 0.81562147E+04</totfact>
</mgrwt>
</event>
<event>
 5    1  0.6027538E+000  0.9104735E+02  0.7546771E-02  0.1300335E+00
          2   -1    0    0  501    0  0.00000000000E+00  0.00000000000E+00  0.72513836050E+02  0.72513836050E+02  0.00000000000E+00 0. -1.
         -2   -1    0    0    0  501 -0.00000000000E+00 -0.00000000000E+00 -0.28579442729E+02  0.28579442729E+02  0.00000000000E+00 0.  1.
         23    2    1    2    0    0  0.00000000000E+00  0.00000000000E+00  0.43934393321E+02  0.10109327878E+03  0.91047350855E+02 0.  0.
        -13    1    3    3    0    0 -0.30672862093E+02 -0.10249505002E+02 -0.13607434927E+02  0.35086166890E+02  0.00000000000E+00 0.  1.
         13    1    3    3    0    0  0.30672862093E+02  0.10249505002E+02  0.57541828248E+02  0.66007111888E+02  0.00000000000E+00 0. -1.
<mgrwt>
<rscale>  0 0.91047351E+02</rscale>
<asrwt>0</asrwt>
<pdfrwt beam="1">  1        2 0.11155975E-01 0.91047351E+02</pdfrwt>
<pdfrwt beam="2">  1       -2 0.43968374E-02 0.91047351E+02</pdfrwt>
<totfact> 0.11215520E+05</totfact>
</mgrwt>
</event>
<event>
 5    1  0.6027538E+000  0.9183798E+02  0.7546771E-02  0.1298461E+00
          1   -1    0    0  501    0  0.00000000000E+00  0.00000000000E+00  0.75101825806E+02  0.75101825806E+02  0.00000000000E+00 0. -1.
         -1   -1    0    0    0  501 -0.00000000000E+00 -0.00000000000E+00 -0.28075932667E+02  0.28075932667E+02  0.00000000000E+00 0.  1.
         23    2    1    2    0    0  0.00000000000E+00  0.00000000000E+00  0.47025893140E+02  0.10317775847E+03  0.91837983525E+02 0.  0.
        -13    1    3    3    0    0  0.16506263930E+02  0.42540129262E+02  0.29289236103E+02  0.54221570413E+02  0.00000000000E+00 0. -1.
         13    1    3    3    0    0 -0.16506263930E+02 -0.42540129262E+02  0.17736657037E+02  0.48956188060E+02  0.00000000000E+00 0.  1.
<mgrwt>
<rscale>  0 0.91837984E+02</rscale>
<asrwt>0</asrwt>
<pdfrwt beam="1">  1        1 0.11554127E-01 0.91837984E+02</pdfrwt>
<pdfrwt beam="2">  1       -1 0.43193743E-02 0.91837984E+02</pdfrwt>
<totfact> 0.97784390E+04</totfact>
</mgrwt>
</event>
<event>
 5    1  0.6027538E+000  0.9277328E+02  0.7546771E-02  0.1296271E+00
         -3   -1    0    0    0  501 -0.00000000000E+00  0.00000000000E+00  0.89195432022E+02  0.89195432022E+02  0.00000000000E+00 0.  1.
          3   -1    0    0  501    0  0.00000000000E+00 -0.00000000000E+00 -0.24123659125E+02  0.24123659125E+02  0.00000000000E+00 0. -1.
         23    2    1    2    0    0  0.00000000000E+00  0.00000000000E+00  0.65071772897E+02  0.11331909115E+03  0.92773276273E+02 0.  0.
        -13    1    3    3    0    0 -0.44457334458E+02 -0.11292945040E+02  0.40975035646E+02  0.61505599265E+02  0.00000000000E+00 0.  1.
         13    1    3    3    0    0  0.44457334458E+02  0.11292945040E+02  0.24096737251E+02  0.51813491882E+02  0.00000000000E+00 0. -1.
<mgrwt>
<rscale>  0 0.92773276E+02</rscale>
<asrwt>0</asrwt>
<pdfrwt beam="2">  1        3 0.37113322E-02 0.92773276E+02</pdfrwt>
<pdfrwt beam="1">  1       -3 0.13722374E-01 0.92773276E+02</pdfrwt>
<totfact> 0.32154115E+04</totfact>
</mgrwt>
</event>
<event>
 5    1  0.6027538E+000  0.9182804E+02  0.7546771E-02  0.1298484E+00
          2   -1    0    0  501    0  0.00000000000E+00  0.00000000000E+00  0.14430485147E+02  0.14430485147E+02  0.00000000000E+00 0. -1.
         -2   -1    0    0    0  501 -0.00000000000E+00 -0.00000000000E+00 -0.14608636445E+03  0.14608636445E+03  0.00000000000E+00 0.  1.
         23    2    1    2    0    0  0.00000000000E+00  0.00000000000E+00 -0.13165587930E+03  0.16051684960E+03  0.91828037382E+02 0.  0.
        -13    1    3    3    0    0  0.28045629896E+02  0.25907114958E+02 -0.11040614910E+03  0.11682146088E+03  0.00000000000E+00 0.  1.
         13    1    3    3    0    0 -0.28045629896E+02 -0.25907114958E+02 -0.21249730199E+02  0.43695388719E+02  0.00000000000E+00 0. -1.
<mgrwt>
<rscale>  0 0.91828037E+02</rscale>
<asrwt>0</asrwt>
<pdfrwt beam="1">  1        2 0.22200746E-02 0.91828037E+02</pdfrwt>
<pdfrwt beam="2">  1       -2 0.22474826E-01 0.91828037E+02</pdfrwt>
<totfact> 0.69267815E+04</totfact>
</mgrwt>
</event>
<event>
 5    1  0.6027538E+000  0.8991756E+02  0.7546771E-02  0.1303051E+00
         -1   -1    0    0    0  501 -0.00000000000E+00  0.00000000000E+00  0.15919288472E+02  0.15919288472E+02  0.00000000000E+00 0.  1.
          1   -1    0    0  501    0  0.00000000000E+00 -0.00000000000E+00 -0.12697123783E+03  0.12697123783E+03  0.00000000000E+00 0. -1.
         23    2    1    2    0    0  0.00000000000E+00  0.00000000000E+00 -0.11105194936E+03  0.14289052630E+03  0.89917556965E+02 0.  0.
        -13    1    3    3    0    0 -0.34969730411E+02 -0.28126341381E+02 -0.51226909043E+02  0.68104106591E+02  0.00000000000E+00 0.  1.
         13    1    3    3    0    0  0.34969730411E+02  0.28126341381E+02 -0.59825040314E+02  0.74786419710E+02  0.00000000000E+00 0. -1.
<mgrwt>
<rscale>  0 0.89917557E+02</rscale>
<asrwt>0</asrwt>
<pdfrwt beam="2">  1        1 0.19534036E-01 0.89917557E+02</pdfrwt>
<pdfrwt beam="1">  1       -1 0.24491213E-02 0.89917557E+02</pdfrwt>
<totfact> 0.11298139E+05</totfact>
</mgrwt>
</event>
<event>
 5    1  0.6027538E+000  0.8753487E+02  0.7546771E-02  0.1308934E+00
         -3   -1    0    0    0  501 -0.00000000000E+00  0.00000000000E+00  0.36154986896E+02  0.36154986896E+02  0.00000000000E+00 0.  1.
          3   -1    0    0  501    0  0.00000000000E+00 -0.00000000000E+00 -0.52982685468E+02  0.52982685468E+02  0.00000000000E+00 0. -1.
         23    2    1    2    0    0  0.00000000000E+00  0.00000000000E+00 -0.16827698572E+02  0.89137672363E+02  0.87534868453E+02 0.  0.
        -13    1    3    3    0    0  0.24161524207E+02 -0.28845839434E-01  0.28748319412E+02  0.37553241579E+02  0.00000000000E+00 0.  1.
         13    1    3    3    0    0 -0.24161524207E+02  0.28845839434E-01 -0.45576017984E+02  0.51584430784E+02  0.00000000000E+00 0. -1.
<mgrwt>
<rscale>  0 0.87534868E+02</rscale>
<asrwt>0</asrwt>
<pdfrwt beam="2">  1        3 0.81511823E-02 0.87534868E+02</pdfrwt>
<pdfrwt beam="1">  1       -3 0.55623057E-02 0.87534868E+02</pdfrwt>
<totfact> 0.39649680E+04</totfact>
</mgrwt>
</event>
<event>
 5    1  0.6027538E+000  0.9032968E+02  0.7546771E-02  0.1302055E+00
         -1   -1    0    0    0  501 -0.00000000000E+00  0.00000000000E+00  0.34792903311E+03  0.34792903311E+03  0.00000000000E+00 0.  1.
          1   -1    0    0  501    0  0.00000000000E+00 -0.00000000000E+00 -0.58628707035E+01  0.58628707035E+01  0.00000000000E+00 0. -1.
         23    2    1    2    0    0  0.00000000000E+00  0.00000000000E+00  0.34206616241E+03  0.35379190381E+03  0.90329683607E+02 0.  0.
        -13    1    3    3    0    0 -0.39225500974E+02 -0.21866980829E+02  0.15222564032E+03  0.15871184690E+03  0.00000000000E+00 0.  1.
         13    1    3    3    0    0  0.39225500974E+02  0.21866980829E+02  0.18984052209E+03  0.19508005691E+03  0.00000000000E+00 0. -1.
<mgrwt>
<rscale>  0 0.90329684E+02</rscale>
<asrwt>0</asrwt>
<pdfrwt beam="2">  1        1 0.90198038E-03 0.90329684E+02</pdfrwt>
<pdfrwt beam="1">  1       -1 0.53527527E-01 0.90329684E+02</pdfrwt>
<totfact> 0.58345293E+04</totfact>
</mgrwt>
</event>
<event>
 5    1  0.6027538E+000  0.9251765E+02  0.7546771E-02  0.1296867E+00
          2   -1    0    0  501    0  0.00000000000E+00  0.00000000000E+00  0.11630833115E+03  0.11630833115E+03  0.00000000000E+00 0. -1.
         -2   -1    0    0    0  501 -0.00000000000E+00 -0.00000000000E+00 -0.18398328017E+02  0.18398328017E+02  0.00000000000E+00 0.  1.
         23    2    1    2    0    0  0.00000000000E+00  0.00000000000E+00  0.97910003134E+02  0.13470665917E+03  0.92517648645E+02 0.  0.
        -13    1    3    3    0    0 -0.25846041257E+02  0.47711409968E+01  0.10438096315E+03  0.10763905937E+03  0.00000000000E+00 0. -1.
         13    1    3    3    0    0  0.25846041257E+02 -0.47711409968E+01 -0.64709600157E+01  0.27067599794E+02  0.00000000000E+00 0.  1.
<mgrwt>
<rscale>  0 0.92517649E+02</rscale>
<asrwt>0</asrwt>
<pdfrwt beam="1">  1        2 0.17893589E-01 0.92517649E+02</pdfrwt>
<pdfrwt beam="2">  1       -2 0.28305121E-02 0.92517649E+02</pdfrwt>
<totfact> 0.12353128E+05</totfact>
</mgrwt>
</event>
<event>
 5    1  0.6027538E+000  0.9357138E+02  0.7546771E-02  0.1294426E+00
         -1   -1    0    0    0  501 -0.00000000000E+00  0.00000000000E+00  0.12520098802E+03  0.12520098802E+03  0.00000000000E+00 0.  1.
          1   -1    0    0  501    0  0.00000000000E+00 -0.00000000000E+00 -0.17483097025E+02  0.17483097025E+02  0.00000000000E+00 0. -1.
         23    2    1    2    0    0  0.00000000000E+00  0.00000000000E+00  0.10771789100E+03  0.14268408505E+03  0.93571384967E+02 0.  0.
        -13    1    3    3    0    0  0.28371793148E+02 -0.62421883452E+01 -0.20639925556E+01  0.29123592276E+02  0.00000000000E+00 0. -1.
         13    1    3    3    0    0 -0.28371793148E+02  0.62421883452E+01  0.10978188355E+03  0.11356049277E+03  0.00000000000E+00 0.  1.
<mgrwt>
<rscale>  0 0.93571385E+02</rscale>
<asrwt>0</asrwt>
<pdfrwt beam="2">  1        1 0.26897073E-02 0.93571385E+02</pdfrwt>
<pdfrwt beam="1">  1       -1 0.19261690E-01 0.93571385E+02</pdfrwt>
<totfact> 0.72786434E+04</totfact>
</mgrwt>
</event>
<event>
 5    1  0.6027538E+000  0.9118641E+02  0.7546771E-02  0.1300004E+00
         -1   -1    0    0    0  501 -0.00000000000E+00  0.00000000000E+00  0.14597201211E+03  0.14597201211E+03  0.00000000000E+00 0.  1.
          1   -1    0    0  501    0  0.00000000000E+00 -0.00000000000E+00 -0.14240677466E+02  0.14240677466E+02  0.00000000000E+00 0. -1.
         23    2    1    2    0    0  0.00000000000E+00  0.00000000000E+00  0.13173133464E+03  0.16021268958E+03  0.91186410030E+02 0.  0.
        -13    1    3    3    0    0 -0.29665891141E+02  0.28866341728E+02  0.99451548470E+02  0.10772159150E+03  0.00000000000E+00 0. -1.
         13    1    3    3    0    0  0.29665891141E+02 -0.28866341728E+02  0.32279786175E+02  0.52491098078E+02  0.00000000000E+00 0.  1.
<mgrwt>
<rscale>  0 0.91186410E+02</rscale>
<asrwt>0</asrwt>
<pdfrwt beam="2">  1        1 0.21908736E-02 0.91186410E+02</pdfrwt>
<pdfrwt beam="1">  1       -1 0.22457232E-01 0.91186410E+02</pdfrwt>
<totfact> 0.75242036E+04</totfact>
</mgrwt>
</event>
<event>
 5    1  0.6027538E+000  0.8875517E+02  0.7546771E-02  0.1305895E+00
          3   -1    0    0  501    0  0.00000000000E+00  0.00000000000E+00  0.49944751918E+02  0.49944751918E+02  0.00000000000E+00 0. -1.
         -3   -1    0    0    0  501 -0.00000000000E+00 -0.00000000000E+00 -0.39430971460E+02  0.39430971460E+02  0.00000000000E+00 0.  1.
         23    2    1    2    0    0  0.00000000000E+00  0.00000000000E+00  0.10513780458E+02  0.89375723379E+02  0.88755170835E+02 0.  0.
        -13    1    3    3    0    0 -0.26535887039E+02 -0.25493690854E+02 -0.19721549642E+02  0.41749504124E+02  0.00000000000E+00 0.  1.
         13    1    3    3    0    0  0.26535887039E+02  0.25493690854E+02  0.30235330099E+02  0.47626219255E+02  0.00000000000E+00 0. -1.
<mgrwt>
<rscale>  0 0.88755171E+02</rscale>
<asrwt>0</asrwt>
<pdfrwt beam="1">  1        3 0.76838080E-02 0.88755171E+02</pdfrwt>
<pdfrwt beam="2">  1       -3 0.60663033E-02 0.88755171E+02</pdfrwt>
<totfact> 0.38169988E+04</totfact>
</mgrwt>
</event>
<event>
 5    1  0.6027538E+000  0.8984601E+02  0.7546771E-02  0.1303225E+00
         -1   -1    0    0    0  501 -0.00000000000E+00  0.00000000000E+00  0.15805785278E+02  0.15805785278E+02  0.00000000000E+00 0.  1.
          1   -1    0    0  501    0  0.00000000000E+00 -0.00000000000E+00 -0.12767959345E+03  0.12767959345E+03  0.00000000000E+00 0. -1.
         23    2    1    2    0    0  0.00000000000E+00  0.00000000000E+00 -0.11187380817E+03  0.14348537873E+03  0.89846006890E+02 0.  0.
        -13    1    3    3    0    0 -0.24043556885E+02 -0.33468226688E+02 -0.27374826529E+02  0.49473184179E+02  0.00000000000E+00 0.  1.
         13    1    3    3    0    0  0.24043556885E+02  0.33468226688E+02 -0.84498981646E+02  0.94012194552E+02  0.00000000000E+00 0. -1.
<mgrwt>
<rscale>  0 0.89846007E+02</rscale>
<asrwt>0</asrwt>
<pdfrwt beam="2">  1        1 0.19643013E-01 0.89846007E+02</pdfrwt>
<pdfrwt beam="1">  1       -1 0.24316594E-02 0.89846007E+02</pdfrwt>
<totfact> 0.11333551E+05</totfact>
</mgrwt>
</event>
<event>
 5    1  0.6027538E+000  0.8813817E+02  0.7546771E-02  0.1307424E+00
         -4   -1    0    0    0  501 -0.00000000000E+00  0.00000000000E+00  0.25256676508E+02  0.25256676508E+02  0.00000000000E+00 0.  1.
          4   -1    0    0  501    0  0.00000000000E+00 -0.00000000000E+00 -0.76893900254E+02  0.76893900254E+02  0.00000000000E+00 0. -1.
         23    2    1    2    0    0  0.00000000000E+00  0.00000000000E+00 -0.51637223746E+02  0.10215057676E+03  0.88138172528E+02 0.  0.
        -13    1    3    3    0    0 -0.31022490105E+02  0.62598218197E+01 -0.61361861257E+02  0.69042438242E+02  0.00000000000E+00 0. -1.
         13    1    3    3    0    0  0.31022490105E+02 -0.62598218197E+01  0.97246375107E+01  0.33108138520E+02  0.00000000000E+00 0.  1.
<mgrwt>
<rscale>  0 0.88138173E+02</rscale>
<asrwt>0</asrwt>
<pdfrwt beam="2">  1        4 0.11829830E-01 0.88138173E+02</pdfrwt>
<pdfrwt beam="1">  1       -4 0.38856427E-02 0.88138173E+02</pdfrwt>
<totfact> 0.28846613E+04</totfact>
</mgrwt>
</event>
<event>
 5    1  0.6027538E+000  0.9372111E+02  0.7546771E-02  0.1294083E+00
         -1   -1    0    0    0  501 -0.00000000000E+00  0.00000000000E+00  0.10100915108E+02  0.10100915108E+02  0.00000000000E+00 0.  1.
          1   -1    0    0  501    0  0.00000000000E+00 -0.00000000000E+00 -0.21739730658E+03  0.21739730658E+03  0.00000000000E+00 0. -1.
         23    2    1    2    0    0  0.00000000000E+00  0.00000000000E+00 -0.20729639147E+03  0.22749822169E+03  0.93721112636E+02 0.  0.
        -13    1    3    3    0    0 -0.41093624703E+02 -0.15193163889E+02 -0.63292531737E+02  0.76977027702E+02  0.00000000000E+00 0.  1.
         13    1    3    3    0    0  0.41093624703E+02  0.15193163889E+02 -0.14400385974E+03  0.15052119399E+03  0.00000000000E+00 0. -1.
<mgrwt>
<rscale>  0 0.93721113E+02</rscale>
<asrwt>0</asrwt>
<pdfrwt beam="2">  1        1 0.33445736E-01 0.93721113E+02</pdfrwt>
<pdfrwt beam="1">  1       -1 0.15539871E-02 0.93721113E+02</pdfrwt>
<totfact> 0.11177468E+05</totfact>
</mgrwt>
</event>
<event>
 5    1  0.6027538E+000  0.9119007E+02  0.7546771E-02  0.1299995E+00
          4   -1    0    0  501    0  0.00000000000E+00  0.00000000000E+00  0.11560360091E+03  0.11560360091E+03  0.00000000000E+00 0. -1.
         -4   -1    0    0    0  501 -0.00000000000E+00 -0.00000000000E+00 -0.17983066273E+02  0.17983066273E+02  0.00000000000E+00 0.  1.
         23    2    1    2    0    0  0.00000000000E+00  0.00000000000E+00  0.97620534636E+02  0.13358666718E+03  0.91190069998E+02 0.  0.
        -13    1    3    3    0    0  0.41986033674E+02 -0.17727113795E+02  0.50791781256E+02  0.68241355719E+02  0.00000000000E+00 0. -1.
         13    1    3    3    0    0 -0.41986033674E+02  0.17727113795E+02  0.46828753380E+02  0.65345311464E+02  0.00000000000E+00 0.  1.
<mgrwt>
<rscale>  0 0.91190070E+02</rscale>
<asrwt>0</asrwt>
<pdfrwt beam="1">  1        4 0.17785169E-01 0.91190070E+02</pdfrwt>
<pdfrwt beam="2">  1       -4 0.27666257E-02 0.91190070E+02</pdfrwt>
<totfact> 0.24514689E+04</totfact>
</mgrwt>
</event>
<event>
 5    1  0.6027538E+000  0.9727323E+02  0.7546771E-02  0.1286137E+00
         -3   -1    0    0    0  501 -0.00000000000E+00  0.00000000000E+00  0.60030097903E+02  0.60030097903E+02  0.00000000000E+00 0.  1.
          3   -1    0    0  501    0  0.00000000000E+00 -0.00000000000E+00 -0.39405567558E+02  0.39405567558E+02  0.00000000000E+00 0. -1.
         23    2    1    2    0    0  0.00000000000E+00  0.00000000000E+00  0.20624530345E+02  0.99435665461E+02  0.97273225060E+02 0.  0.
        -13    1    3    3    0    0 -0.36200928931E+02 -0.34137541212E+01  0.43331406481E+02  0.56566525085E+02  0.00000000000E+00 0.  1.
         13    1    3    3    0    0  0.36200928931E+02  0.34137541212E+01 -0.22706876136E+02  0.42869140375E+02  0.00000000000E+00 0. -1.
<mgrwt>
<rscale>  0 0.97273225E+02</rscale>
<asrwt>0</asrwt>
<pdfrwt beam="2">  1        3 0.60623950E-02 0.97273225E+02</pdfrwt>
<pdfrwt beam="1">  1       -3 0.92353997E-02 0.97273225E+02</pdfrwt>
<totfact> 0.29080945E+04</totfact>
</mgrwt>
</event>
<event>
 5    1  0.6027538E+000  0.8376032E+02  0.7546771E-02  0.1318707E+00
          1   -1    0    0  501    0  0.00000000000E+00  0.00000000000E+00  0.30676555416E+02  0.30676555416E+02  0.00000000000E+00 0. -1.
         -1   -1    0    0    0  501 -0.00000000000E+00 -0.00000000000E+00 -0.57175510502E+02  0.57175510502E+02  0.00000000000E+00 0.  1.
         23    2    1    2    0    0  0.00000000000E+00  0.00000000000E+00 -0.26498955086E+02  0.87852065919E+02  0.83760317965E+02 0.  0.
        -13    1    3    3    0    0  0.36197571550E+02  0.13918334422E+01 -0.35293971634E+02  0.50575347949E+02  0.00000000000E+00 0.  1.
         13    1    3    3    0    0 -0.36197571550E+02 -0.13918334422E+01  0.87950165488E+01  0.37276717969E+02  0.00000000000E+00 0. -1.
<mgrwt>
<rscale>  0 0.83760318E+02</rscale>
<asrwt>0</asrwt>
<pdfrwt beam="1">  1        1 0.47194702E-02 0.83760318E+02</pdfrwt>
<pdfrwt beam="2">  1       -1 0.87962322E-02 0.83760318E+02</pdfrwt>
<totfact> 0.11071925E+05</totfact>
</mgrwt>
</event>
<event>
 5    1  0.6027538E+000  0.8577754E+02  0.7546771E-02  0.1313412E+00
          2   -1    0    0  501    0  0.00000000000E+00  0.00000000000E+00  0.17856257022E+03  0.17856257022E+03  0.00000000000E+00 0. -1.
         -2   -1    0    0    0  501 -0.00000000000E+00 -0.00000000000E+00 -0.10301411887E+02  0.10301411887E+02  0.00000000000E+00 0.  1.
         23    2    1    2    0    0  0.00000000000E+00  0.00000000000E+00  0.16826115833E+03  0.18886398211E+03  0.85777539799E+02 0.  0.
        -13    1    3    3    0    0  0.15614122995E+02  0.35885597334E+02  0.12276362913E+03  0.12885063279E+03  0.00000000000E+00 0.  1.
         13    1    3    3    0    0 -0.15614122995E+02 -0.35885597334E+02  0.45497529205E+02  0.60013349320E+02  0.00000000000E+00 0. -1.
<mgrwt>
<rscale>  0 0.85777540E+02</rscale>
<asrwt>0</asrwt>
<pdfrwt beam="1">  1        2 0.27471162E-01 0.85777540E+02</pdfrwt>
<pdfrwt beam="2">  1       -2 0.15848327E-02 0.85777540E+02</pdfrwt>
<totfact> 0.17501272E+05</totfact>
</mgrwt>
</event>
<event>
 5    1  0.6027538E+000  0.9302612E+02  0.7546771E-02  0.1295685E+00
          2   -1    0    0  501    0  0.00000000000E+00  0.00000000000E+00  0.40845186159E+02  0.40845186159E+02  0.00000000000E+00 0. -1.
         -2   -1    0    0    0  501 -0.00000000000E+00 -0.00000000000E+00 -0.52967433570E+02  0.52967433570E+02  0.00000000000E+00 0.  1.
         23    2    1    2    0    0  0.00000000000E+00  0.00000000000E+00 -0.12122247411E+02  0.93812619728E+02  0.93026118580E+02 0.  0.
        -13    1    3    3    0    0  0.70764001885E+01 -0.76222463067E+01 -0.51779729888E+02  0.52813961276E+02  0.00000000000E+00 0.  1.
         13    1    3    3    0    0 -0.70764001885E+01  0.76222463067E+01  0.39657482478E+02  0.40998658452E+02  0.00000000000E+00 0. -1.
<mgrwt>
<rscale>  0 0.93026119E+02</rscale>
<asrwt>0</asrwt>
<pdfrwt beam="1">  1        2 0.62838748E-02 0.93026119E+02</pdfrwt>
<pdfrwt beam="2">  1       -2 0.81488360E-02 0.93026119E+02</pdfrwt>
<totfact> 0.90478856E+04</totfact>
</mgrwt>
</event>
<event>
 5    1  0.6027538E+000  0.9407840E+02  0.7546771E-02  0.1293265E+00
         -4   -1    0    0    0  501 -0.00000000000E+00  0.00000000000E+00  0.21905282391E+02  0.21905282391E+02  0.00000000000E+00 0.  1.
          4   -1    0    0  501    0  0.00000000000E+00 -0.00000000000E+00 -0.10101154926E+03  0.10101154926E+03  0.00000000000E+00 0. -1.
         23    2    1    2    0    0  0.00000000000E+00  0.00000000000E+00 -0.79106266870E+02  0.12291683165E+03  0.94078403713E+02 0.  0.
        -13    1    3    3    0    0 -0.87808734171E+01 -0.37091903215E+02 -0.35397864702E+01  0.38281106440E+02  0.00000000000E+00 0.  1.
         13    1    3    3    0    0  0.87808734171E+01  0.37091903215E+02 -0.75566480400E+02  0.84635725211E+02  0.00000000000E+00 0. -1.
<mgrwt>
<rscale>  0 0.94078404E+02</rscale>
<asrwt>0</asrwt>
<pdfrwt beam="2">  1        4 0.15540238E-01 0.94078404E+02</pdfrwt>
<pdfrwt beam="1">  1       -4 0.33700435E-02 0.94078404E+02</pdfrwt>
<totfact> 0.23063787E+04</totfact>
</mgrwt>
</event>
<event>
 5    1  0.6027538E+000  0.9939305E+02  0.7546771E-02  0.1281577E+00
         -2   -1    0    0    0  501 -0.00000000000E+00  0.00000000000E+00  0.35557295064E+02  0.35557295064E+02  0.00000000000E+00 0. -1.
          2   -1    0    0  501    0  0.00000000000E+00 -0.00000000000E+00 -0.69458166582E+02  0.69458166582E+02  0.00000000000E+00 0.  1.
         23    2    1    2    0    0  0.00000000000E+00  0.00000000000E+00 -0.33900871518E+02  0.10501546165E+03  0.99393048524E+02 0.  0.
        -13    1    3    3    0    0 -0.14531142138E+02  0.23262483787E+02  0.26835934171E+02  0.38372706532E+02  0.00000000000E+00 0. -1.
         13    1    3    3    0    0  0.14531142138E+02 -0.23262483787E+02 -0.60736805689E+02  0.66642755113E+02  0.00000000000E+00 0.  1.
<mgrwt>
<rscale>  0 0.99393049E+02</rscale>
<asrwt>0</asrwt>
<pdfrwt beam="2">  1        2 0.10685872E-01 0.99393049E+02</pdfrwt>
<pdfrwt beam="1">  1       -2 0.54703532E-02 0.99393049E+02</pdfrwt>
<totfact> 0.86529744E+04</totfact>
</mgrwt>
</event>
<event>
 5    1  0.6027538E+000  0.9459606E+02  0.7546771E-02  0.1292088E+00
          1   -1    0    0  501    0  0.00000000000E+00  0.00000000000E+00  0.22066407847E+02  0.22066407847E+02  0.00000000000E+00 0. -1.
         -1   -1    0    0    0  501 -0.00000000000E+00 -0.00000000000E+00 -0.10138050971E+03  0.10138050971E+03  0.00000000000E+00 0.  1.
         23    2    1    2    0    0  0.00000000000E+00  0.00000000000E+00 -0.79314101859E+02  0.12344691755E+03  0.94596060698E+02 0.  0.
        -13    1    3    3    0    0  0.20290767461E+02  0.63431588284E+01 -0.94794274384E+02  0.97148882465E+02  0.00000000000E+00 0.  1.
         13    1    3    3    0    0 -0.20290767461E+02 -0.63431588284E+01  0.15480172526E+02  0.26298035088E+02  0.00000000000E+00 0. -1.
<mgrwt>
<rscale>  0 0.94596061E+02</rscale>
<asrwt>0</asrwt>
<pdfrwt beam="1">  1        1 0.33948320E-02 0.94596061E+02</pdfrwt>
<pdfrwt beam="2">  1       -1 0.15597001E-01 0.94596061E+02</pdfrwt>
<totfact> 0.73808911E+04</totfact>
</mgrwt>
</event>
<event>
 5    1  0.6027538E+000  0.1147071E+03  0.7546771E-02  0.1252093E+00
          2   -1    0    0  501    0  0.00000000000E+00  0.00000000000E+00  0.19162781529E+03  0.19162781529E+03  0.00000000000E+00 0. -1.
         -2   -1    0    0    0  501 -0.00000000000E+00 -0.00000000000E+00 -0.17165718758E+02  0.17165718758E+02  0.00000000000E+00 0.  1.
         23    2    1    2    0    0  0.00000000000E+00  0.00000000000E+00  0.17446209654E+03  0.20879353405E+03  0.11470709104E+03 0.  0.
        -13    1    3    3    0    0  0.46474438076E+02 -0.81239974890E+01  0.27869249457E+02  0.54795691391E+02  0.00000000000E+00 0.  1.
         13    1    3    3    0    0 -0.46474438076E+02  0.81239974890E+01  0.14659284708E+03  0.15399784266E+03  0.00000000000E+00 0. -1.
<mgrwt>
<rscale>  0 0.11470709E+03</rscale>
<asrwt>0</asrwt>
<pdfrwt beam="1">  1        2 0.29481201E-01 0.11470709E+03</pdfrwt>
<pdfrwt beam="2">  1       -2 0.26408799E-02 0.11470709E+03</pdfrwt>
<totfact> 0.81280486E+04</totfact>
</mgrwt>
</event>
<event>
 5    1  0.6027538E+000  0.9130352E+02  0.7546771E-02  0.1299725E+00
          1   -1    0    0  501    0  0.00000000000E+00  0.00000000000E+00  0.61729576938E+02  0.61729576938E+02  0.00000000000E+00 0. -1.
         -1   -1    0    0    0  501 -0.00000000000E+00 -0.00000000000E+00 -0.33761498509E+02  0.33761498509E+02  0.00000000000E+00 0.  1.
         23    2    1    2    0    0  0.00000000000E+00  0.00000000000E+00  0.27968078428E+02  0.95491075447E+02  0.91303516247E+02 0.  0.
        -13    1    3    3    0    0 -0.30723601191E+02 -0.30616760497E+02 -0.90832191915E+00  0.43383761273E+02  0.00000000000E+00 0.  1.
         13    1    3    3    0    0  0.30723601191E+02  0.30616760497E+02  0.28876400347E+02  0.52107314174E+02  0.00000000000E+00 0. -1.
<mgrwt>
<rscale>  0 0.91303516E+02</rscale>
<asrwt>0</asrwt>
<pdfrwt beam="1">  1        1 0.94968580E-02 0.91303516E+02</pdfrwt>
<pdfrwt beam="2">  1       -1 0.51940767E-02 0.91303516E+02</pdfrwt>
<totfact> 0.96415216E+04</totfact>
</mgrwt>
</event>
<event>
 5    1  0.6027538E+000  0.9143087E+02  0.7546771E-02  0.1299423E+00
         -2   -1    0    0    0  501 -0.00000000000E+00  0.00000000000E+00  0.44494404140E+01  0.44494404140E+01  0.00000000000E+00 0.  1.
          2   -1    0    0  501    0  0.00000000000E+00 -0.00000000000E+00 -0.46969974865E+03  0.46969974865E+03  0.00000000000E+00 0. -1.
         23    2    1    2    0    0  0.00000000000E+00  0.00000000000E+00 -0.46525030824E+03  0.47414918906E+03  0.91430871025E+02 0.  0.
        -13    1    3    3    0    0 -0.30521819814E+02  0.33387724381E+02 -0.26685956651E+03  0.27066649195E+03  0.00000000000E+00 0. -1.
         13    1    3    3    0    0  0.30521819814E+02 -0.33387724381E+02 -0.19839074172E+03  0.20348269712E+03  0.00000000000E+00 0.  1.
<mgrwt>
<rscale>  0 0.91430871E+02</rscale>
<asrwt>0</asrwt>
<pdfrwt beam="2">  1        2 0.72261465E-01 0.91430871E+02</pdfrwt>
<pdfrwt beam="1">  1       -2 0.68452962E-03 0.91430871E+02</pdfrwt>
<totfact> 0.20953728E+05</totfact>
</mgrwt>
</event>
<event>
 5    1  0.6027538E+000  0.9589309E+02  0.7546771E-02  0.1289177E+00
          3   -1    0    0  501    0  0.00000000000E+00  0.00000000000E+00  0.15192482356E+03  0.15192482356E+03  0.00000000000E+00 0. -1.
         -3   -1    0    0    0  501 -0.00000000000E+00 -0.00000000000E+00 -0.15131635594E+02  0.15131635594E+02  0.00000000000E+00 0.  1.
         23    2    1    2    0    0  0.00000000000E+00  0.00000000000E+00  0.13679318796E+03  0.16705645915E+03  0.95893087712E+02 0.  0.
        -13    1    3    3    0    0  0.44670525407E+01 -0.39383158666E+02  0.21395620443E+02  0.45041761944E+02  0.00000000000E+00 0.  1.
         13    1    3    3    0    0 -0.44670525407E+01  0.39383158666E+02  0.11539756752E+03  0.12201469721E+03  0.00000000000E+00 0. -1.
<mgrwt>
<rscale>  0 0.95893088E+02</rscale>
<asrwt>0</asrwt>
<pdfrwt beam="1">  1        3 0.23373049E-01 0.95893088E+02</pdfrwt>
<pdfrwt beam="2">  1       -3 0.23279440E-02 0.95893088E+02</pdfrwt>
<totfact> 0.26416892E+04</totfact>
</mgrwt>
</event>
<event>
 5    1  0.6027538E+000  0.9228688E+02  0.7546771E-02  0.1297406E+00
         -3   -1    0    0    0  501 -0.00000000000E+00  0.00000000000E+00  0.37494798345E+03  0.37494798345E+03  0.00000000000E+00 0.  1.
          3   -1    0    0  501    0  0.00000000000E+00 -0.00000000000E+00 -0.56787003468E+01  0.56787003468E+01  0.00000000000E+00 0. -1.
         23    2    1    2    0    0  0.00000000000E+00  0.00000000000E+00  0.36926928310E+03  0.38062668379E+03  0.92286884087E+02 0.  0.
        -13    1    3    3    0    0  0.21347379334E+02 -0.40327562266E+02  0.15630087556E+03  0.16282501829E+03  0.00000000000E+00 0.  1.
         13    1    3    3    0    0 -0.21347379334E+02  0.40327562266E+02  0.21296840755E+03  0.21780166550E+03  0.00000000000E+00 0. -1.
<mgrwt>
<rscale>  0 0.92286884E+02</rscale>
<asrwt>0</asrwt>
<pdfrwt beam="2">  1        3 0.87364650E-03 0.92286884E+02</pdfrwt>
<pdfrwt beam="1">  1       -3 0.57684286E-01 0.92286884E+02</pdfrwt>
<totfact> 0.20522952E+04</totfact>
</mgrwt>
</event>
<event>
 5    1  0.6027538E+000  0.9122784E+02  0.7546771E-02  0.1299905E+00
          1   -1    0    0  501    0  0.00000000000E+00  0.00000000000E+00  0.90782103774E+02  0.90782103774E+02  0.00000000000E+00 0. -1.
         -1   -1    0    0    0  501 -0.00000000000E+00 -0.00000000000E+00 -0.22918940771E+02  0.22918940771E+02  0.00000000000E+00 0.  1.
         23    2    1    2    0    0  0.00000000000E+00  0.00000000000E+00  0.67863163003E+02  0.11370104455E+03  0.91227839161E+02 0.  0.
        -13    1    3    3    0    0 -0.35687610640E+02  0.62097862373E+01  0.68481613305E+02  0.77471919810E+02  0.00000000000E+00 0. -1.
         13    1    3    3    0    0  0.35687610640E+02 -0.62097862373E+01 -0.61845030170E+00  0.36229124735E+02  0.00000000000E+00 0.  1.
<mgrwt>
<rscale>  0 0.91227839E+02</rscale>
<asrwt>0</asrwt>
<pdfrwt beam="1">  1        1 0.13966477E-01 0.91227839E+02</pdfrwt>
<pdfrwt beam="2">  1       -1 0.35259909E-02 0.91227839E+02</pdfrwt>
<totfact> 0.10264747E+05</totfact>
</mgrwt>
</event>
<event>
 5    1  0.6027538E+000  0.9706234E+02  0.7546771E-02  0.1286598E+00
          1   -1    0    0  501    0  0.00000000000E+00  0.00000000000E+00  0.51099067129E+02  0.51099067129E+02  0.00000000000E+00 0. -1.
         -1   -1    0    0    0  501 -0.00000000000E+00 -0.00000000000E+00 -0.46092319789E+02  0.46092319789E+02  0.00000000000E+00 0.  1.
         23    2    1    2    0    0  0.00000000000E+00  0.00000000000E+00  0.50067473406E+01  0.97191386918E+02  0.97062341679E+02 0.  0.
        -13    1    3    3    0    0 -0.11214404135E+02  0.20028186941E+02 -0.40313075813E+02  0.46390033561E+02  0.00000000000E+00 0.  1.
         13    1    3    3    0    0  0.11214404135E+02 -0.20028186941E+02  0.45319823154E+02  0.50801353357E+02  0.00000000000E+00 0. -1.
<mgrwt>
<rscale>  0 0.97062342E+02</rscale>
<asrwt>0</asrwt>
<pdfrwt beam="1">  1        1 0.78613950E-02 0.97062342E+02</pdfrwt>
<pdfrwt beam="2">  1       -1 0.70911261E-02 0.97062342E+02</pdfrwt>
<totfact> 0.78913003E+04</totfact>
</mgrwt>
</event>
<event>
 5    1  0.6027538E+000  0.8973429E+02  0.7546771E-02  0.1303496E+00
          4   -1    0    0  501    0  0.00000000000E+00  0.00000000000E+00  0.36746009424E+02  0.36746009424E+02  0.00000000000E+00 0. -1.
         -4   -1    0    0    0  501 -0.00000000000E+00 -0.00000000000E+00 -0.54783115382E+02  0.54783115382E+02  0.00000000000E+00 0.  1.
         23    2    1    2    0    0  0.00000000000E+00  0.00000000000E+00 -0.18037105958E+02  0.91529124806E+02  0.89734293870E+02 0.  0.
        -13    1    3    3    0    0 -0.17024785551E+02 -0.56547693453E+01  0.32928709790E+02  0.37498262197E+02  0.00000000000E+00 0. -1.
         13    1    3    3    0    0  0.17024785551E+02  0.56547693453E+01 -0.50965815748E+02  0.54030862609E+02  0.00000000000E+00 0.  1.
<mgrwt>
<rscale>  0 0.89734294E+02</rscale>
<asrwt>0</asrwt>
<pdfrwt beam="1">  1        4 0.56532323E-02 0.89734294E+02</pdfrwt>
<pdfrwt beam="2">  1       -4 0.84281715E-02 0.89734294E+02</pdfrwt>
<totfact> 0.28184508E+04</totfact>
</mgrwt>
</event>
<event>
 5    1  0.6027538E+000  0.9030515E+02  0.7546771E-02  0.1302114E+00
          2   -1    0    0  501    0  0.00000000000E+00  0.00000000000E+00  0.76567362211E+02  0.76567362211E+02  0.00000000000E+00 0. -1.
         -2   -1    0    0    0  501 -0.00000000000E+00 -0.00000000000E+00 -0.26626946495E+02  0.26626946495E+02  0.00000000000E+00 0.  1.
         23    2    1    2    0    0  0.00000000000E+00  0.00000000000E+00  0.49940415716E+02  0.10319430871E+03  0.90305150614E+02 0.  0.
        -13    1    3    3    0    0  0.97230670592E+01 -0.18296006461E+02 -0.20874065732E+02  0.29411026940E+02  0.00000000000E+00 0.  1.
         13    1    3    3    0    0 -0.97230670592E+01  0.18296006461E+02  0.70814481448E+02  0.73783281766E+02  0.00000000000E+00 0. -1.
<mgrwt>
<rscale>  0 0.90305151E+02</rscale>
<asrwt>0</asrwt>
<pdfrwt beam="1">  1        2 0.11779594E-01 0.90305151E+02</pdfrwt>
<pdfrwt beam="2">  1       -2 0.40964533E-02 0.90305151E+02</pdfrwt>
<totfact> 0.11650307E+05</totfact>
</mgrwt>
</event>
<event>
 5    1  0.6027538E+000  0.8626501E+02  0.7546771E-02  0.1312157E+00
          4   -1    0    0  501    0  0.00000000000E+00  0.00000000000E+00  0.10250669283E+03  0.10250669283E+03  0.00000000000E+00 0.  1.
         -4   -1    0    0    0  501 -0.00000000000E+00 -0.00000000000E+00 -0.18149183804E+02  0.18149183804E+02  0.00000000000E+00 0. -1.
         23    2    1    2    0    0  0.00000000000E+00  0.00000000000E+00  0.84357509029E+02  0.12065587664E+03  0.86265005869E+02 0.  0.
        -13    1    3    3    0    0 -0.10566847664E+02  0.18880549464E+02  0.94367519616E+02  0.96816125599E+02  0.00000000000E+00 0.  1.
         13    1    3    3    0    0  0.10566847664E+02 -0.18880549464E+02 -0.10010010587E+02  0.23839751038E+02  0.00000000000E+00 0. -1.
<mgrwt>
<rscale>  0 0.86265006E+02</rscale>
<asrwt>0</asrwt>
<pdfrwt beam="1">  1        4 0.15770260E-01 0.86265006E+02</pdfrwt>
<pdfrwt beam="2">  1       -4 0.27921822E-02 0.86265006E+02</pdfrwt>
<totfact> 0.29283382E+04</totfact>
</mgrwt>
</event>
<event>
 5    1  0.6027538E+000  0.9182285E+02  0.7546771E-02  0.1298496E+00
          1   -1    0    0  501    0  0.00000000000E+00  0.00000000000E+00  0.45224047648E+02  0.45224047648E+02  0.00000000000E+00 0. -1.
         -1   -1    0    0    0  501 -0.00000000000E+00 -0.00000000000E+00 -0.46609247678E+02  0.46609247678E+02  0.00000000000E+00 0.  1.
         23    2    1    2    0    0  0.00000000000E+00  0.00000000000E+00 -0.13852000298E+01  0.91833295326E+02  0.91822847654E+02 0.  0.
        -13    1    3    3    0    0 -0.88360202269E+01  0.18186907219E+02  0.40531260111E+02  0.45294832971E+02  0.00000000000E+00 0. -1.
         13    1    3    3    0    0  0.88360202269E+01 -0.18186907219E+02 -0.41916460141E+02  0.46538462355E+02  0.00000000000E+00 0.  1.
<mgrwt>
<rscale>  0 0.91822848E+02</rscale>
<asrwt>0</asrwt>
<pdfrwt beam="1">  1        1 0.69575459E-02 0.91822848E+02</pdfrwt>
<pdfrwt beam="2">  1       -1 0.71706534E-02 0.91822848E+02</pdfrwt>
<totfact> 0.90544909E+04</totfact>
</mgrwt>
</event>
<event>
 5    1  0.6027538E+000  0.9153124E+02  0.7546771E-02  0.1299185E+00
          1   -1    0    0  501    0  0.00000000000E+00  0.00000000000E+00  0.51864933315E+02  0.51864933315E+02  0.00000000000E+00 0. -1.
         -1   -1    0    0    0  501 -0.00000000000E+00 -0.00000000000E+00 -0.40383581917E+02  0.40383581917E+02  0.00000000000E+00 0.  1.
         23    2    1    2    0    0  0.00000000000E+00  0.00000000000E+00  0.11481351398E+02  0.92248515232E+02  0.91531235830E+02 0.  0.
        -13    1    3    3    0    0 -0.14655265056E+02  0.17336973036E+02  0.45790533161E+02  0.51108906808E+02  0.00000000000E+00 0. -1.
         13    1    3    3    0    0  0.14655265056E+02 -0.17336973036E+02 -0.34309181764E+02  0.41139608423E+02  0.00000000000E+00 0.  1.
<mgrwt>
<rscale>  0 0.91531236E+02</rscale>
<asrwt>0</asrwt>
<pdfrwt beam="1">  1        1 0.79792206E-02 0.91531236E+02</pdfrwt>
<pdfrwt beam="2">  1       -1 0.62128587E-02 0.91531236E+02</pdfrwt>
<totfact> 0.93264209E+04</totfact>
</mgrwt>
</event>
<event>
 5    1  0.6027538E+000  0.9250286E+02  0.7546771E-02  0.1296901E+00
          3   -1    0    0  501    0  0.00000000000E+00  0.00000000000E+00  0.25103242334E+02  0.25103242334E+02  0.00000000000E+00 0. -1.
         -3   -1    0    0    0  501 -0.00000000000E+00 -0.00000000000E+00 -0.85215879495E+02  0.85215879495E+02  0.00000000000E+00 0.  1.
         23    2    1    2    0    0  0.00000000000E+00  0.00000000000E+00 -0.60112637161E+02  0.11031912183E+03  0.92502862090E+02 0.  0.
        -13    1    3    3    0    0  0.78861606255E+00  0.23435105458E+02 -0.77601659544E+02  0.81066908459E+02  0.00000000000E+00 0.  1.
         13    1    3    3    0    0 -0.78861606255E+00 -0.23435105458E+02  0.17489022383E+02  0.29252213370E+02  0.00000000000E+00 0. -1.
<mgrwt>
<rscale>  0 0.92502862E+02</rscale>
<asrwt>0</asrwt>
<pdfrwt beam="1">  1        3 0.38620373E-02 0.92502862E+02</pdfrwt>
<pdfrwt beam="2">  1       -3 0.13110135E-01 0.92502862E+02</pdfrwt>
<totfact> 0.32614869E+04</totfact>
</mgrwt>
</event>
<event>
 5    1  0.6027538E+000  0.9058617E+02  0.7546771E-02  0.1301438E+00
         -4   -1    0    0    0  501 -0.00000000000E+00  0.00000000000E+00  0.26229055194E+02  0.26229055194E+02  0.00000000000E+00 0.  1.
          4   -1    0    0  501    0  0.00000000000E+00 -0.00000000000E+00 -0.78213398500E+02  0.78213398500E+02  0.00000000000E+00 0. -1.
         23    2    1    2    0    0  0.00000000000E+00  0.00000000000E+00 -0.51984343307E+02  0.10444245369E+03  0.90586169941E+02 0.  0.
        -13    1    3    3    0    0 -0.30814989760E+02 -0.23365338961E+02 -0.53177669355E+02  0.65752316892E+02  0.00000000000E+00 0. -1.
         13    1    3    3    0    0  0.30814989760E+02  0.23365338961E+02  0.11933260487E+01  0.38690136802E+02  0.00000000000E+00 0.  1.
<mgrwt>
<rscale>  0 0.90586170E+02</rscale>
<asrwt>0</asrwt>
<pdfrwt beam="2">  1        4 0.12032830E-01 0.90586170E+02</pdfrwt>
<pdfrwt beam="1">  1       -4 0.40352393E-02 0.90586170E+02</pdfrwt>
<totfact> 0.26650243E+04</totfact>
</mgrwt>
</event>
<event>
 5    1  0.6027538E+000  0.9597919E+02  0.7546771E-02  0.1288986E+00
          1   -1    0    0  501    0  0.00000000000E+00  0.00000000000E+00  0.20107675436E+03  0.20107675436E+03  0.00000000000E+00 0. -1.
         -1   -1    0    0    0  501 -0.00000000000E+00 -0.00000000000E+00 -0.11453344928E+02  0.11453344928E+02  0.00000000000E+00 0.  1.
         23    2    1    2    0    0  0.00000000000E+00  0.00000000000E+00  0.18962340943E+03  0.21253009929E+03  0.95979194092E+02 0.  0.
        -13    1    3    3    0    0  0.35532460525E+02  0.31025655278E+02  0.11434992017E+03  0.12369741824E+03  0.00000000000E+00 0. -1.
         13    1    3    3    0    0 -0.35532460525E+02 -0.31025655278E+02  0.75273489261E+02  0.88832681046E+02  0.00000000000E+00 0.  1.
<mgrwt>
<rscale>  0 0.95979194E+02</rscale>
<asrwt>0</asrwt>
<pdfrwt beam="1">  1        1 0.30934883E-01 0.95979194E+02</pdfrwt>
<pdfrwt beam="2">  1       -1 0.17620532E-02 0.95979194E+02</pdfrwt>
<totfact> 0.10323753E+05</totfact>
</mgrwt>
</event>
<event>
 5    1  0.6027538E+000  0.9178399E+02  0.7546771E-02  0.1298588E+00
          1   -1    0    0  501    0  0.00000000000E+00  0.00000000000E+00  0.26437630911E+03  0.26437630911E+03  0.00000000000E+00 0. -1.
         -1   -1    0    0    0  501 -0.00000000000E+00 -0.00000000000E+00 -0.79662025289E+01  0.79662025289E+01  0.00000000000E+00 0.  1.
         23    2    1    2    0    0  0.00000000000E+00  0.00000000000E+00  0.25641010658E+03  0.27234251164E+03  0.91783990373E+02 0.  0.
        -13    1    3    3    0    0 -0.33725216314E+02  0.24795259387E+02  0.18402335072E+03  0.18872410740E+03  0.00000000000E+00 0.  1.
         13    1    3    3    0    0  0.33725216314E+02 -0.24795259387E+02  0.72386755861E+02  0.83618404239E+02  0.00000000000E+00 0. -1.
<mgrwt>
<rscale>  0 0.91783990E+02</rscale>
<asrwt>0</asrwt>
<pdfrwt beam="1">  1        1 0.40673271E-01 0.91783990E+02</pdfrwt>
<pdfrwt beam="2">  1       -1 0.12255698E-02 0.91783990E+02</pdfrwt>
<totfact> 0.12282974E+05</totfact>
</mgrwt>
</event>
<event>
 5    1  0.6027538E+000  0.8843184E+02  0.7546771E-02  0.1306694E+00
          2   -1    0    0  501    0  0.00000000000E+00  0.00000000000E+00  0.28982127989E+03  0.28982127989E+03  0.00000000000E+00 0. -1.
         -2   -1    0    0    0  501 -0.00000000000E+00 -0.00000000000E+00 -0.67457000169E+01  0.67457000169E+01  0.00000000000E+00 0.  1.
         23    2    1    2    0    0  0.00000000000E+00  0.00000000000E+00  0.28307557988E+03  0.29656697991E+03  0.88431836183E+02 0.  0.
        -13    1    3    3    0    0  0.36298081801E+02  0.24055841178E+02  0.11581894464E+03  0.12373464420E+03  0.00000000000E+00 0.  1.
         13    1    3    3    0    0 -0.36298081801E+02 -0.24055841178E+02  0.16725663524E+03  0.17283233571E+03  0.00000000000E+00 0. -1.
<mgrwt>
<rscale>  0 0.88431836E+02</rscale>
<asrwt>0</asrwt>
<pdfrwt beam="1">  1        2 0.44587879E-01 0.88431836E+02</pdfrwt>
<pdfrwt beam="2">  1       -2 0.10378002E-02 0.88431836E+02</pdfrwt>
<totfact> 0.19241144E+05</totfact>
</mgrwt>
</event>
<event>
 5    1  0.6027538E+000  0.9013011E+02  0.7546771E-02  0.1302537E+00
          1   -1    0    0  501    0  0.00000000000E+00  0.00000000000E+00  0.21842925210E+02  0.21842925210E+02  0.00000000000E+00 0. -1.
         -1   -1    0    0    0  501 -0.00000000000E+00 -0.00000000000E+00 -0.92975605335E+02  0.92975605335E+02  0.00000000000E+00 0.  1.
         23    2    1    2    0    0  0.00000000000E+00  0.00000000000E+00 -0.71132680125E+02  0.11481853055E+03  0.90130110256E+02 0.  0.
        -13    1    3    3    0    0  0.39368906764E+02  0.10267324425E+02 -0.60253131351E+02  0.72703291591E+02  0.00000000000E+00 0.  1.
         13    1    3    3    0    0 -0.39368906764E+02 -0.10267324425E+02 -0.10879548774E+02  0.42115238954E+02  0.00000000000E+00 0. -1.
<mgrwt>
<rscale>  0 0.90130110E+02</rscale>
<asrwt>0</asrwt>
<pdfrwt beam="1">  1        1 0.33604501E-02 0.90130110E+02</pdfrwt>
<pdfrwt beam="2">  1       -1 0.14303939E-01 0.90130110E+02</pdfrwt>
<totfact> 0.84943438E+04</totfact>
</mgrwt>
</event>
<event>
 5    1  0.6027538E+000  0.9241273E+02  0.7546771E-02  0.1297112E+00
         -1   -1    0    0    0  501 -0.00000000000E+00  0.00000000000E+00  0.46242426292E+02  0.46242426292E+02  0.00000000000E+00 0.  1.
          1   -1    0    0  501    0  0.00000000000E+00 -0.00000000000E+00 -0.46170336312E+02  0.46170336312E+02  0.00000000000E+00 0. -1.
         23    2    1    2    0    0  0.00000000000E+00  0.00000000000E+00  0.72089979786E-01  0.92412762604E+02  0.92412734485E+02 0.  0.
        -13    1    3    3    0    0 -0.19718422699E+02 -0.30403602247E+02 -0.28631596185E+02  0.46184018052E+02  0.00000000000E+00 0. -1.
         13    1    3    3    0    0  0.19718422699E+02  0.30403602247E+02  0.28703686165E+02  0.46228744551E+02  0.00000000000E+00 0.  1.
<mgrwt>
<rscale>  0 0.92412734E+02</rscale>
<asrwt>0</asrwt>
<pdfrwt beam="2">  1        1 0.71031286E-02 0.92412734E+02</pdfrwt>
<pdfrwt beam="1">  1       -1 0.71142195E-02 0.92412734E+02</pdfrwt>
<totfact> 0.89207700E+04</totfact>
</mgrwt>
</event>
<event>
 5    1  0.6027538E+000  0.9120437E+02  0.7546771E-02  0.1299961E+00
         -1   -1    0    0    0  501 -0.00000000000E+00  0.00000000000E+00  0.26973926570E+02  0.26973926570E+02  0.00000000000E+00 0.  1.
          1   -1    0    0  501    0  0.00000000000E+00 -0.00000000000E+00 -0.77095170245E+02  0.77095170245E+02  0.00000000000E+00 0. -1.
         23    2    1    2    0    0  0.00000000000E+00  0.00000000000E+00 -0.50121243675E+02  0.10406909682E+03  0.91204374043E+02 0.  0.
        -13    1    3    3    0    0 -0.19080485224E+02  0.41417186281E+02 -0.25441168504E+02  0.52217825411E+02  0.00000000000E+00 0.  1.
         13    1    3    3    0    0  0.19080485224E+02 -0.41417186281E+02 -0.24680075171E+02  0.51851271405E+02  0.00000000000E+00 0. -1.
<mgrwt>
<rscale>  0 0.91204374E+02</rscale>
<asrwt>0</asrwt>
<pdfrwt beam="2">  1        1 0.11860795E-01 0.91204374E+02</pdfrwt>
<pdfrwt beam="1">  1       -1 0.41498349E-02 0.91204374E+02</pdfrwt>
<totfact> 0.10007672E+05</totfact>
</mgrwt>
</event>
<event>
 5    1  0.6027538E+000  0.1095625E+03  0.7546771E-02  0.1261382E+00
         -2   -1    0    0    0  501 -0.00000000000E+00  0.00000000000E+00  0.12235860517E+03  0.12235860517E+03  0.00000000000E+00 0.  1.
          2   -1    0    0  501    0  0.00000000000E+00 -0.00000000000E+00 -0.24526132145E+02  0.24526132145E+02  0.00000000000E+00 0. -1.
         23    2    1    2    0    0  0.00000000000E+00  0.00000000000E+00  0.97832473030E+02  0.14688473732E+03  0.10956246291E+03 0.  0.
        -13    1    3    3    0    0 -0.54373901436E+02 -0.43118411683E+01  0.55735142077E+02  0.77984095776E+02  0.00000000000E+00 0.  1.
         13    1    3    3    0    0  0.54373901436E+02  0.43118411683E+01  0.42097330953E+02  0.68900641543E+02  0.00000000000E+00 0. -1.
<mgrwt>
<rscale>  0 0.10956246E+03</rscale>
<asrwt>0</asrwt>
<pdfrwt beam="2">  1        2 0.37732512E-02 0.10956246E+03</pdfrwt>
<pdfrwt beam="1">  1       -2 0.18824400E-01 0.10956246E+03</pdfrwt>
<totfact> 0.47267280E+04</totfact>
</mgrwt>
</event>
<event>
 5    1  0.6027538E+000  0.9037799E+02  0.7546771E-02  0.1301939E+00
          1   -1    0    0  501    0  0.00000000000E+00  0.00000000000E+00  0.17692695497E+03  0.17692695497E+03  0.00000000000E+00 0. -1.
         -1   -1    0    0    0  501 -0.00000000000E+00 -0.00000000000E+00 -0.11541743016E+02  0.11541743016E+02  0.00000000000E+00 0.  1.
         23    2    1    2    0    0  0.00000000000E+00  0.00000000000E+00  0.16538521195E+03  0.18846869798E+03  0.90377993934E+02 0.  0.
        -13    1    3    3    0    0  0.14366985614E+02 -0.42682286532E+02  0.74929771067E+02  0.87422299508E+02  0.00000000000E+00 0.  1.
         13    1    3    3    0    0 -0.14366985614E+02  0.42682286532E+02  0.90455440885E+02  0.10104639848E+03  0.00000000000E+00 0. -1.
<mgrwt>
<rscale>  0 0.90377994E+02</rscale>
<asrwt>0</asrwt>
<pdfrwt beam="1">  1        1 0.27219530E-01 0.90377994E+02</pdfrwt>
<pdfrwt beam="2">  1       -1 0.17756529E-02 0.90377994E+02</pdfrwt>
<totfact> 0.11841052E+05</totfact>
</mgrwt>
</event>
<event>
 5    1  0.6027538E+000  0.9139783E+02  0.7546771E-02  0.1299502E+00
         -2   -1    0    0    0  501 -0.00000000000E+00  0.00000000000E+00  0.38528963647E+03  0.38528963647E+03  0.00000000000E+00 0. -1.
          2   -1    0    0  501    0  0.00000000000E+00 -0.00000000000E+00 -0.54203143698E+01  0.54203143698E+01  0.00000000000E+00 0.  1.
         23    2    1    2    0    0  0.00000000000E+00  0.00000000000E+00  0.37986932210E+03  0.39070995084E+03  0.91397832647E+02 0.  0.
        -13    1    3    3    0    0  0.19282123158E+02 -0.39851845399E+02  0.23837830063E+03  0.24245449896E+03  0.00000000000E+00 0.  1.
         13    1    3    3    0    0 -0.19282123158E+02  0.39851845399E+02  0.14149102147E+03  0.14825545188E+03  0.00000000000E+00 0. -1.
<mgrwt>
<rscale>  0 0.91397833E+02</rscale>
<asrwt>0</asrwt>
<pdfrwt beam="2">  1        2 0.83389482E-03 0.91397833E+02</pdfrwt>
<pdfrwt beam="1">  1       -2 0.59275308E-01 0.91397833E+02</pdfrwt>
<totfact> 0.43502003E+04</totfact>
</mgrwt>
</event>
<event>
 5    1  0.6027538E+000  0.8512244E+02  0.7546771E-02  0.1315113E+00
         -2   -1    0    0    0  501 -0.00000000000E+00  0.00000000000E+00  0.55739484375E+01  0.55739484375E+01  0.00000000000E+00 0.  1.
          2   -1    0    0  501    0  0.00000000000E+00 -0.00000000000E+00 -0.32498639098E+03  0.32498639098E+03  0.00000000000E+00 0. -1.
         23    2    1    2    0    0  0.00000000000E+00  0.00000000000E+00 -0.31941244255E+03  0.33056033942E+03  0.85122438551E+02 0.  0.
        -13    1    3    3    0    0  0.29700012380E+02  0.30124674970E+02 -0.17786711116E+03  0.18282859735E+03  0.00000000000E+00 0. -1.
         13    1    3    3    0    0 -0.29700012380E+02 -0.30124674970E+02 -0.14154533139E+03  0.14773174207E+03  0.00000000000E+00 0.  1.
<mgrwt>
<rscale>  0 0.85122439E+02</rscale>
<asrwt>0</asrwt>
<pdfrwt beam="2">  1        2 0.49997915E-01 0.85122439E+02</pdfrwt>
<pdfrwt beam="1">  1       -2 0.85753037E-03 0.85122439E+02</pdfrwt>
<totfact> 0.22208204E+05</totfact>
</mgrwt>
</event>
<event>
 5    1  0.6027538E+000  0.9177445E+02  0.7546771E-02  0.1298611E+00
          1   -1    0    0  501    0  0.00000000000E+00  0.00000000000E+00  0.50564361707E+01  0.50564361707E+01  0.00000000000E+00 0. -1.
         -1   -1    0    0    0  501 -0.00000000000E+00 -0.00000000000E+00 -0.41642715038E+03  0.41642715038E+03  0.00000000000E+00 0.  1.
         23    2    1    2    0    0  0.00000000000E+00  0.00000000000E+00 -0.41137071421E+03  0.42148358656E+03  0.91774447547E+02 0.  0.
        -13    1    3    3    0    0  0.43399264230E+02 -0.11394526091E+02 -0.16156147406E+03  0.16767659724E+03  0.00000000000E+00 0.  1.
         13    1    3    3    0    0 -0.43399264230E+02  0.11394526091E+02 -0.24980924015E+03  0.25380698932E+03  0.00000000000E+00 0. -1.
<mgrwt>
<rscale>  0 0.91774448E+02</rscale>
<asrwt>0</asrwt>
<pdfrwt beam="1">  1        1 0.77791319E-03 0.91774448E+02</pdfrwt>
<pdfrwt beam="2">  1       -1 0.64065721E-01 0.91774448E+02</pdfrwt>
<totfact> 0.51311525E+04</totfact>
</mgrwt>
</event>
<event>
 5    1  0.6027538E+000  0.9152280E+02  0.7546771E-02  0.1299205E+00
          3   -1    0    0  501    0  0.00000000000E+00  0.00000000000E+00  0.31083678664E+02  0.31083678664E+02  0.00000000000E+00 0. -1.
         -3   -1    0    0    0  501 -0.00000000000E+00 -0.00000000000E+00 -0.67369939841E+02  0.67369939841E+02  0.00000000000E+00 0.  1.
         23    2    1    2    0    0  0.00000000000E+00  0.00000000000E+00 -0.36286261178E+02  0.98453618505E+02  0.91522796321E+02 0.  0.
        -13    1    3    3    0    0 -0.31198891599E+02 -0.31763572922E+02 -0.29517911382E+02  0.53419121053E+02  0.00000000000E+00 0.  1.
         13    1    3    3    0    0  0.31198891599E+02  0.31763572922E+02 -0.67683497959E+01  0.45034497452E+02  0.00000000000E+00 0. -1.
<mgrwt>
<rscale>  0 0.91522796E+02</rscale>
<asrwt>0</asrwt>
<pdfrwt beam="1">  1        3 0.47821044E-02 0.91522796E+02</pdfrwt>
<pdfrwt beam="2">  1       -3 0.10364606E-01 0.91522796E+02</pdfrwt>
<totfact> 0.34429781E+04</totfact>
</mgrwt>
</event>
<event>
 5    1  0.6027538E+000  0.9104521E+02  0.7546771E-02  0.1300340E+00
          1   -1    0    0  501    0  0.00000000000E+00  0.00000000000E+00  0.12996641640E+03  0.12996641640E+03  0.00000000000E+00 0. -1.
         -1   -1    0    0    0  501 -0.00000000000E+00 -0.00000000000E+00 -0.15944946182E+02  0.15944946182E+02  0.00000000000E+00 0.  1.
         23    2    1    2    0    0  0.00000000000E+00  0.00000000000E+00  0.11402147021E+03  0.14591136258E+03  0.91045208879E+02 0.  0.
        -13    1    3    3    0    0 -0.25418988159E+02 -0.28032552306E+02  0.16455807680E+02  0.41264301208E+02  0.00000000000E+00 0.  1.
         13    1    3    3    0    0  0.25418988159E+02  0.28032552306E+02  0.97565662534E+02  0.10464706137E+03  0.00000000000E+00 0. -1.
<mgrwt>
<rscale>  0 0.91045209E+02</rscale>
<asrwt>0</asrwt>
<pdfrwt beam="1">  1        1 0.19994833E-01 0.91045209E+02</pdfrwt>
<pdfrwt beam="2">  1       -1 0.24530687E-02 0.91045209E+02</pdfrwt>
<totfact> 0.10969059E+05</totfact>
</mgrwt>
</event>
<event>
 5    1  0.6027538E+000  0.9276412E+02  0.7546771E-02  0.1296293E+00
         -1   -1    0    0    0  501 -0.00000000000E+00  0.00000000000E+00  0.50638973931E+01  0.50638973931E+01  0.00000000000E+00 0.  1.
          1   -1    0    0  501    0  0.00000000000E+00 -0.00000000000E+00 -0.42482999478E+03  0.42482999478E+03  0.00000000000E+00 0. -1.
         23    2    1    2    0    0  0.00000000000E+00  0.00000000000E+00 -0.41976609738E+03  0.42989389217E+03  0.92764120285E+02 0.  0.
        -13    1    3    3    0    0  0.40069916576E+02  0.22706796119E+02 -0.18445839160E+03  0.19012126403E+03  0.00000000000E+00 0.  1.
         13    1    3    3    0    0 -0.40069916576E+02 -0.22706796119E+02 -0.23530770578E+03  0.23977262814E+03  0.00000000000E+00 0. -1.
<mgrwt>
<rscale>  0 0.92764120E+02</rscale>
<asrwt>0</asrwt>
<pdfrwt beam="2">  1        1 0.65358468E-01 0.92764120E+02</pdfrwt>
<pdfrwt beam="1">  1       -1 0.77906104E-03 0.92764120E+02</pdfrwt>
<totfact> 0.13008409E+05</totfact>
</mgrwt>
</event>
<event>
 5    1  0.6027538E+000  0.9189559E+02  0.7546771E-02  0.1298325E+00
          1   -1    0    0  501    0  0.00000000000E+00  0.00000000000E+00  0.49430850973E+02  0.49430850973E+02  0.00000000000E+00 0. -1.
         -1   -1    0    0    0  501 -0.00000000000E+00 -0.00000000000E+00 -0.42710162699E+02  0.42710162699E+02  0.00000000000E+00 0.  1.
         23    2    1    2    0    0  0.00000000000E+00  0.00000000000E+00  0.67206882743E+01  0.92141013673E+02  0.91895586127E+02 0.  0.
        -13    1    3    3    0    0  0.43370254881E+02  0.11703191875E+02  0.13043048599E+02  0.46776755180E+02  0.00000000000E+00 0. -1.
         13    1    3    3    0    0 -0.43370254881E+02 -0.11703191875E+02 -0.63223603244E+01  0.45364258492E+02  0.00000000000E+00 0.  1.
<mgrwt>
<rscale>  0 0.91895586E+02</rscale>
<asrwt>0</asrwt>
<pdfrwt beam="1">  1        1 0.76047463E-02 0.91895586E+02</pdfrwt>
<pdfrwt beam="2">  1       -1 0.65707942E-02 0.91895586E+02</pdfrwt>
<totfact> 0.91566603E+04</totfact>
</mgrwt>
</event>
<event>
 5    1  0.6027538E+000  0.9207505E+02  0.7546771E-02  0.1297903E+00
         -1   -1    0    0    0  501 -0.00000000000E+00  0.00000000000E+00  0.53543225593E+02  0.53543225593E+02  0.00000000000E+00 0.  1.
          1   -1    0    0  501    0  0.00000000000E+00 -0.00000000000E+00 -0.39583974153E+02  0.39583974153E+02  0.00000000000E+00 0. -1.
         23    2    1    2    0    0  0.00000000000E+00  0.00000000000E+00  0.13959251440E+02  0.93127199745E+02  0.92075048909E+02 0.  0.
        -13    1    3    3    0    0 -0.10549352506E+02 -0.31965646563E+02 -0.24785663175E+02  0.41802159005E+02  0.00000000000E+00 0. -1.
         13    1    3    3    0    0  0.10549352506E+02  0.31965646563E+02  0.38744914615E+02  0.51325040740E+02  0.00000000000E+00 0.  1.
<mgrwt>
<rscale>  0 0.92075049E+02</rscale>
<asrwt>0</asrwt>
<pdfrwt beam="2">  1        1 0.60898422E-02 0.92075049E+02</pdfrwt>
<pdfrwt beam="1">  1       -1 0.82374193E-02 0.92075049E+02</pdfrwt>
<totfact> 0.88041687E+04</totfact>
</mgrwt>
</event>
<event>
 5    1  0.6027538E+000  0.9116861E+02  0.7546771E-02  0.1300046E+00
         -1   -1    0    0    0  501 -0.00000000000E+00  0.00000000000E+00  0.51040294970E+02  0.51040294970E+02  0.00000000000E+00 0.  1.
          1   -1    0    0  501    0  0.00000000000E+00 -0.00000000000E+00 -0.40711540418E+02  0.40711540418E+02  0.00000000000E+00 0. -1.
         23    2    1    2    0    0  0.00000000000E+00  0.00000000000E+00  0.10328754552E+02  0.91751835388E+02  0.91168613714E+02 0.  0.
        -13    1    3    3    0    0  0.74545381035E+01 -0.12975268258E+02 -0.38169188529E+02  0.40997739910E+02  0.00000000000E+00 0. -1.
         13    1    3    3    0    0 -0.74545381035E+01  0.12975268258E+02  0.48497943081E+02  0.50754095478E+02  0.00000000000E+00 0.  1.
<mgrwt>
<rscale>  0 0.91168614E+02</rscale>
<asrwt>0</asrwt>
<pdfrwt beam="2">  1        1 0.62633139E-02 0.91168614E+02</pdfrwt>
<pdfrwt beam="1">  1       -1 0.78523530E-02 0.91168614E+02</pdfrwt>
<totfact> 0.90929908E+04</totfact>
</mgrwt>
</event>
<event>
 5    1  0.6027538E+000  0.1192556E+03  0.7546771E-02  0.1244330E+00
          1   -1    0    0  501    0  0.00000000000E+00  0.00000000000E+00  0.10279984855E+03  0.10279984855E+03  0.00000000000E+00 0. -1.
         -1   -1    0    0    0  501 -0.00000000000E+00 -0.00000000000E+00 -0.34586365564E+02  0.34586365564E+02  0.00000000000E+00 0.  1.
         23    2    1    2    0    0  0.00000000000E+00  0.00000000000E+00  0.68213482986E+02  0.13738621411E+03  0.11925557667E+03 0.  0.
        -13    1    3    3    0    0 -0.39689395315E+02  0.32710889801E+02 -0.64993946738E+00  0.51436104376E+02  0.00000000000E+00 0.  1.
         13    1    3    3    0    0  0.39689395315E+02 -0.32710889801E+02  0.68863422453E+02  0.85950109739E+02  0.00000000000E+00 0. -1.
<mgrwt>
<rscale>  0 0.11925558E+03</rscale>
<asrwt>0</asrwt>
<pdfrwt beam="1">  1        1 0.15815361E-01 0.11925558E+03</pdfrwt>
<pdfrwt beam="2">  1       -1 0.53209794E-02 0.11925558E+03</pdfrwt>
<totfact> 0.49816017E+04</totfact>
</mgrwt>
</event>
<event>
 5    1  0.6027538E+000  0.9123046E+02  0.7546771E-02  0.1299899E+00
          2   -1    0    0  501    0  0.00000000000E+00  0.00000000000E+00  0.55994793036E+02  0.55994793036E+02  0.00000000000E+00 0. -1.
         -2   -1    0    0    0  501 -0.00000000000E+00 -0.00000000000E+00 -0.37159690888E+02  0.37159690888E+02  0.00000000000E+00 0.  1.
         23    2    1    2    0    0  0.00000000000E+00  0.00000000000E+00  0.18835102148E+02  0.93154483924E+02  0.91230459838E+02 0.  0.
        -13    1    3    3    0    0 -0.15784695842E+02 -0.42338722820E+02  0.15796308205E+02  0.47866976359E+02  0.00000000000E+00 0. -1.
         13    1    3    3    0    0  0.15784695842E+02  0.42338722820E+02  0.30387939429E+01  0.45287507565E+02  0.00000000000E+00 0.  1.
<mgrwt>
<rscale>  0 0.91230460E+02</rscale>
<asrwt>0</asrwt>
<pdfrwt beam="1">  1        2 0.86145835E-02 0.91230460E+02</pdfrwt>
<pdfrwt beam="2">  1       -2 0.57168755E-02 0.91230460E+02</pdfrwt>
<totfact> 0.10396002E+05</totfact>
</mgrwt>
</event>
<event>
 5    1  0.6027538E+000  0.9218883E+02  0.7546771E-02  0.1297636E+00
         -2   -1    0    0    0  501 -0.00000000000E+00  0.00000000000E+00  0.13118723848E+02  0.13118723848E+02  0.00000000000E+00 0.  1.
          2   -1    0    0  501    0  0.00000000000E+00 -0.00000000000E+00 -0.16195896411E+03  0.16195896411E+03  0.00000000000E+00 0. -1.
         23    2    1    2    0    0  0.00000000000E+00  0.00000000000E+00 -0.14884024027E+03  0.17507768796E+03  0.92188826327E+02 0.  0.
        -13    1    3    3    0    0  0.46784700365E+01  0.36706513943E+02 -0.22222329035E+02  0.43163504903E+02  0.00000000000E+00 0.  1.
         13    1    3    3    0    0 -0.46784700365E+01 -0.36706513943E+02 -0.12661791123E+03  0.13191418306E+03  0.00000000000E+00 0. -1.
<mgrwt>
<rscale>  0 0.92188826E+02</rscale>
<asrwt>0</asrwt>
<pdfrwt beam="2">  1        2 0.24916766E-01 0.92188826E+02</pdfrwt>
<pdfrwt beam="1">  1       -2 0.20182650E-02 0.92188826E+02</pdfrwt>
<totfact> 0.13930571E+05</totfact>
</mgrwt>
</event>
<event>
 5    1  0.6027538E+000  0.8868733E+02  0.7546771E-02  0.1306062E+00
         -4   -1    0    0    0  501 -0.00000000000E+00  0.00000000000E+00  0.10021050586E+02  0.10021050586E+02  0.00000000000E+00 0.  1.
          4   -1    0    0  501    0  0.00000000000E+00 -0.00000000000E+00 -0.19622299947E+03  0.19622299947E+03  0.00000000000E+00 0. -1.
         23    2    1    2    0    0  0.00000000000E+00  0.00000000000E+00 -0.18620194888E+03  0.20624405005E+03  0.88687329506E+02 0.  0.
        -13    1    3    3    0    0  0.28563753662E+02 -0.84231235564E+01 -0.16950846123E+03  0.17210448995E+03  0.00000000000E+00 0. -1.
         13    1    3    3    0    0 -0.28563753662E+02  0.84231235564E+01 -0.16693487651E+02  0.34139560098E+02  0.00000000000E+00 0.  1.
<mgrwt>
<rscale>  0 0.88687330E+02</rscale>
<asrwt>0</asrwt>
<pdfrwt beam="2">  1        4 0.30188153E-01 0.88687330E+02</pdfrwt>
<pdfrwt beam="1">  1       -4 0.15417002E-02 0.88687330E+02</pdfrwt>
<totfact> 0.22746566E+04</totfact>
</mgrwt>
</event>
<event>
 5    1  0.6027538E+000  0.9182580E+02  0.7546771E-02  0.1298490E+00
         -1   -1    0    0    0  501 -0.00000000000E+00  0.00000000000E+00  0.18711618933E+02  0.18711618933E+02  0.00000000000E+00 0.  1.
          1   -1    0    0  501    0  0.00000000000E+00 -0.00000000000E+00 -0.11265697853E+03  0.11265697853E+03  0.00000000000E+00 0. -1.
         23    2    1    2    0    0  0.00000000000E+00  0.00000000000E+00 -0.93945359596E+02  0.13136859746E+03  0.91825801438E+02 0.  0.
        -13    1    3    3    0    0 -0.38365205289E+02  0.81637485765E+01 -0.12833117706E+02  0.41270142692E+02  0.00000000000E+00 0. -1.
         13    1    3    3    0    0  0.38365205289E+02 -0.81637485765E+01 -0.81112241889E+02  0.90098454771E+02  0.00000000000E+00 0.  1.
<mgrwt>
<rscale>  0 0.91825801E+02</rscale>
<asrwt>0</asrwt>
<pdfrwt beam="2">  1        1 0.17331842E-01 0.91825801E+02</pdfrwt>
<pdfrwt beam="1">  1       -1 0.28787107E-02 0.91825801E+02</pdfrwt>
<totfact> 0.10453607E+05</totfact>
</mgrwt>
</event>
<event>
 5    1  0.6027538E+000  0.9126758E+02  0.7546771E-02  0.1299811E+00
          2   -1    0    0  501    0  0.00000000000E+00  0.00000000000E+00  0.31002917451E+02  0.31002917451E+02  0.00000000000E+00 0. -1.
         -2   -1    0    0    0  501 -0.00000000000E+00 -0.00000000000E+00 -0.67169250452E+02  0.67169250452E+02  0.00000000000E+00 0.  1.
         23    2    1    2    0    0  0.00000000000E+00  0.00000000000E+00 -0.36166333001E+02  0.98172167904E+02  0.91267578626E+02 0.  0.
        -13    1    3    3    0    0 -0.28004250830E+02 -0.13027025866E+02  0.18051402329E+02  0.35774216882E+02  0.00000000000E+00 0. -1.
         13    1    3    3    0    0  0.28004250830E+02  0.13027025866E+02 -0.54217735330E+02  0.62397951022E+02  0.00000000000E+00 0.  1.
<mgrwt>
<rscale>  0 0.91267579E+02</rscale>
<asrwt>0</asrwt>
<pdfrwt beam="1">  1        2 0.47696796E-02 0.91267579E+02</pdfrwt>
<pdfrwt beam="2">  1       -2 0.10333731E-01 0.91267579E+02</pdfrwt>
<totfact> 0.88981324E+04</totfact>
</mgrwt>
</event>
<event>
 5    1  0.6027538E+000  0.9156817E+02  0.7546771E-02  0.1299098E+00
          1   -1    0    0  501    0  0.00000000000E+00  0.00000000000E+00  0.32351759700E+03  0.32351759700E+03  0.00000000000E+00 0. -1.
         -1   -1    0    0    0  501 -0.00000000000E+00 -0.00000000000E+00 -0.64793460838E+01  0.64793460838E+01  0.00000000000E+00 0.  1.
         23    2    1    2    0    0  0.00000000000E+00  0.00000000000E+00  0.31703825092E+03  0.32999694309E+03  0.91568170784E+02 0.  0.
        -13    1    3    3    0    0  0.44604421783E+02 -0.79676842914E+01  0.13484762534E+03  0.14225653059E+03  0.00000000000E+00 0.  1.
         13    1    3    3    0    0 -0.44604421783E+02  0.79676842914E+01  0.18219062558E+03  0.18774041250E+03  0.00000000000E+00 0. -1.
<mgrwt>
<rscale>  0 0.91568171E+02</rscale>
<asrwt>0</asrwt>
<pdfrwt beam="1">  1        1 0.49771925E-01 0.91568171E+02</pdfrwt>
<pdfrwt beam="2">  1       -1 0.99682273E-03 0.91568171E+02</pdfrwt>
<totfact> 0.12848109E+05</totfact>
</mgrwt>
</event>
<event>
 5    1  0.6027538E+000  0.8923464E+02  0.7546771E-02  0.1304716E+00
          4   -1    0    0  501    0  0.00000000000E+00  0.00000000000E+00  0.84382126910E+01  0.84382126910E+01  0.00000000000E+00 0. -1.
         -4   -1    0    0    0  501 -0.00000000000E+00 -0.00000000000E+00 -0.23591550946E+03  0.23591550946E+03  0.00000000000E+00 0.  1.
         23    2    1    2    0    0  0.00000000000E+00  0.00000000000E+00 -0.22747729677E+03  0.24435372215E+03  0.89234640044E+02 0.  0.
        -13    1    3    3    0    0  0.43800481170E+02  0.82686364248E+01 -0.10836374426E+03  0.11717317768E+03  0.00000000000E+00 0.  1.
         13    1    3    3    0    0 -0.43800481170E+02 -0.82686364248E+01 -0.11911355251E+03  0.12718054447E+03  0.00000000000E+00 0. -1.
<mgrwt>
<rscale>  0 0.89234640E+02</rscale>
<asrwt>0</asrwt>
<pdfrwt beam="1">  1        4 0.12981864E-02 0.89234640E+02</pdfrwt>
<pdfrwt beam="2">  1       -4 0.36294700E-01 0.89234640E+02</pdfrwt>
<totfact> 0.20824322E+04</totfact>
</mgrwt>
</event>
<event>
 5    1  0.6027538E+000  0.9056968E+02  0.7546771E-02  0.1301478E+00
          1   -1    0    0  501    0  0.00000000000E+00  0.00000000000E+00  0.12620608954E+03  0.12620608954E+03  0.00000000000E+00 0. -1.
         -1   -1    0    0    0  501 -0.00000000000E+00 -0.00000000000E+00 -0.16248952570E+02  0.16248952570E+02  0.00000000000E+00 0.  1.
         23    2    1    2    0    0  0.00000000000E+00  0.00000000000E+00  0.10995713697E+03  0.14245504211E+03  0.90569680645E+02 0.  0.
        -13    1    3    3    0    0 -0.11508061473E+02  0.19766102524E+02  0.11645339655E+03  0.11867825351E+03  0.00000000000E+00 0. -1.
         13    1    3    3    0    0  0.11508061473E+02 -0.19766102524E+02 -0.64962595769E+01  0.23776788605E+02  0.00000000000E+00 0.  1.
<mgrwt>
<rscale>  0 0.90569681E+02</rscale>
<asrwt>0</asrwt>
<pdfrwt beam="1">  1        1 0.19416321E-01 0.90569681E+02</pdfrwt>
<pdfrwt beam="2">  1       -1 0.24998389E-02 0.90569681E+02</pdfrwt>
<totfact> 0.11067842E+05</totfact>
</mgrwt>
</event>
<event>
 5    1  0.6027538E+000  0.9556801E+02  0.7546771E-02  0.1289902E+00
          2   -1    0    0  501    0  0.00000000000E+00  0.00000000000E+00  0.10675417443E+03  0.10675417443E+03  0.00000000000E+00 0. -1.
         -2   -1    0    0    0  501 -0.00000000000E+00 -0.00000000000E+00 -0.21388495948E+02  0.21388495948E+02  0.00000000000E+00 0.  1.
         23    2    1    2    0    0  0.00000000000E+00  0.00000000000E+00  0.85365678479E+02  0.12814267038E+03  0.95568011954E+02 0.  0.
        -13    1    3    3    0    0  0.21358001244E+02 -0.42290916166E+02  0.34349523728E+02  0.58519873442E+02  0.00000000000E+00 0. -1.
         13    1    3    3    0    0 -0.21358001244E+02  0.42290916166E+02  0.51016154751E+02  0.69622796934E+02  0.00000000000E+00 0.  1.
<mgrwt>
<rscale>  0 0.95568012E+02</rscale>
<asrwt>0</asrwt>
<pdfrwt beam="1">  1        2 0.16423719E-01 0.95568012E+02</pdfrwt>
<pdfrwt beam="2">  1       -2 0.32905379E-02 0.95568012E+02</pdfrwt>
<totfact> 0.10993875E+05</totfact>
</mgrwt>
</event>
<event>
 5    1  0.6027538E+000  0.1260236E+03  0.7546771E-02  0.1233478E+00
         -2   -1    0    0    0  501 -0.00000000000E+00  0.00000000000E+00  0.13406669689E+03  0.13406669689E+03  0.00000000000E+00 0.  1.
          2   -1    0    0  501    0  0.00000000000E+00 -0.00000000000E+00 -0.29615776352E+02  0.29615776352E+02  0.00000000000E+00 0. -1.
         23    2    1    2    0    0  0.00000000000E+00  0.00000000000E+00  0.10445092054E+03  0.16368247324E+03  0.12602363764E+03 0.  0.
        -13    1    3    3    0    0 -0.46345506407E+02  0.18729872271E+02  0.23977520845E+01  0.50044613041E+02  0.00000000000E+00 0.  1.
         13    1    3    3    0    0  0.46345506407E+02 -0.18729872271E+02  0.10205316845E+03  0.11363786020E+03  0.00000000000E+00 0. -1.
<mgrwt>
<rscale>  0 0.12602364E+03</rscale>
<asrwt>0</asrwt>
<pdfrwt beam="2">  1        2 0.45562734E-02 0.12602364E+03</pdfrwt>
<pdfrwt beam="1">  1       -2 0.20625645E-01 0.12602364E+03</pdfrwt>
<totfact> 0.32196701E+04</totfact>
</mgrwt>
</event>
<event>
 5    1  0.6027538E+000  0.9302549E+02  0.7546771E-02  0.1295686E+00
          1   -1    0    0  501    0  0.00000000000E+00  0.00000000000E+00  0.10169209475E+03  0.10169209475E+03  0.00000000000E+00 0. -1.
         -1   -1    0    0    0  501 -0.00000000000E+00 -0.00000000000E+00 -0.21274371259E+02  0.21274371259E+02  0.00000000000E+00 0.  1.
         23    2    1    2    0    0  0.00000000000E+00  0.00000000000E+00  0.80417723487E+02  0.12296646600E+03  0.93025488501E+02 0.  0.
        -13    1    3    3    0    0  0.15603290946E+02  0.42307262073E+02  0.25133407514E+02  0.51624173463E+02  0.00000000000E+00 0.  1.
         13    1    3    3    0    0 -0.15603290946E+02 -0.42307262073E+02  0.55284315973E+02  0.71342292542E+02  0.00000000000E+00 0. -1.
<mgrwt>
<rscale>  0 0.93025489E+02</rscale>
<asrwt>0</asrwt>
<pdfrwt beam="1">  1        1 0.15644937E-01 0.93025489E+02</pdfrwt>
<pdfrwt beam="2">  1       -1 0.32729802E-02 0.93025489E+02</pdfrwt>
<totfact> 0.99157283E+04</totfact>
</mgrwt>
</event>
<event>
 5    1  0.6027538E+000  0.9079418E+02  0.7546771E-02  0.1300940E+00
         -4   -1    0    0    0  501 -0.00000000000E+00  0.00000000000E+00  0.30836947263E+02  0.30836947263E+02  0.00000000000E+00 0.  1.
          4   -1    0    0  501    0  0.00000000000E+00 -0.00000000000E+00 -0.66832027117E+02  0.66832027117E+02  0.00000000000E+00 0. -1.
         23    2    1    2    0    0  0.00000000000E+00  0.00000000000E+00 -0.35995079854E+02  0.97668974379E+02  0.90794178132E+02 0.  0.
        -13    1    3    3    0    0  0.83064788058E+01  0.18401637784E+02  0.25741731716E+02  0.32714746140E+02  0.00000000000E+00 0.  1.
         13    1    3    3    0    0 -0.83064788058E+01 -0.18401637784E+02 -0.61736811570E+02  0.64954228239E+02  0.00000000000E+00 0. -1.
<mgrwt>
<rscale>  0 0.90794178E+02</rscale>
<asrwt>0</asrwt>
<pdfrwt beam="2">  1        4 0.10281850E-01 0.90794178E+02</pdfrwt>
<pdfrwt beam="1">  1       -4 0.47441458E-02 0.90794178E+02</pdfrwt>
<totfact> 0.26908183E+04</totfact>
</mgrwt>
</event>
<event>
 5    1  0.6027538E+000  0.9035401E+02  0.7546771E-02  0.1301997E+00
          1   -1    0    0  501    0  0.00000000000E+00  0.00000000000E+00  0.11181784963E+03  0.11181784963E+03  0.00000000000E+00 0. -1.
         -1   -1    0    0    0  501 -0.00000000000E+00 -0.00000000000E+00 -0.18252556067E+02  0.18252556067E+02  0.00000000000E+00 0.  1.
         23    2    1    2    0    0  0.00000000000E+00  0.00000000000E+00  0.93565293561E+02  0.13007040570E+03  0.90354005327E+02 0.  0.
        -13    1    3    3    0    0  0.24468792719E+02 -0.58085775655E+01 -0.72441897614E+01  0.26171352196E+02  0.00000000000E+00 0.  1.
         13    1    3    3    0    0 -0.24468792719E+02  0.58085775655E+01  0.10080948332E+03  0.10389905350E+03  0.00000000000E+00 0. -1.
<mgrwt>
<rscale>  0 0.90354005E+02</rscale>
<asrwt>0</asrwt>
<pdfrwt beam="1">  1        1 0.17202746E-01 0.90354005E+02</pdfrwt>
<pdfrwt beam="2">  1       -1 0.28080856E-02 0.90354005E+02</pdfrwt>
<totfact> 0.10908766E+05</totfact>
</mgrwt>
</event>
<event>
 5    1  0.6027538E+000  0.8979101E+02  0.7546771E-02  0.1303359E+00
         -1   -1    0    0    0  501 -0.00000000000E+00  0.00000000000E+00  0.10900640096E+02  0.10900640096E+02  0.00000000000E+00 0.  1.
          1   -1    0    0  501    0  0.00000000000E+00 -0.00000000000E+00 -0.18490714143E+03  0.18490714143E+03  0.00000000000E+00 0. -1.
         23    2    1    2    0    0  0.00000000000E+00  0.00000000000E+00 -0.17400650133E+03  0.19580778153E+03  0.89791006228E+02 0.  0.
        -13    1    3    3    0    0  0.35293416306E+02 -0.24002741808E+02 -0.56641326992E+02  0.70922470151E+02  0.00000000000E+00 0.  1.
         13    1    3    3    0    0 -0.35293416306E+02  0.24002741808E+02 -0.11736517434E+03  0.12488531137E+03  0.00000000000E+00 0. -1.
<mgrwt>
<rscale>  0 0.89791006E+02</rscale>
<asrwt>0</asrwt>
<pdfrwt beam="2">  1        1 0.28447252E-01 0.89791006E+02</pdfrwt>
<pdfrwt beam="1">  1       -1 0.16770216E-02 0.89791006E+02</pdfrwt>
<totfact> 0.12151594E+05</totfact>
</mgrwt>
</event>
<event>
 5    1  0.6027538E+000  0.9238550E+02  0.7546771E-02  0.1297176E+00
          2   -1    0    0  501    0  0.00000000000E+00  0.00000000000E+00  0.75577554307E+02  0.75577554307E+02  0.00000000000E+00 0. -1.
         -2   -1    0    0    0  501 -0.00000000000E+00 -0.00000000000E+00 -0.28232858126E+02  0.28232858126E+02  0.00000000000E+00 0.  1.
         23    2    1    2    0    0  0.00000000000E+00  0.00000000000E+00  0.47344696181E+02  0.10381041243E+03  0.92385504669E+02 0.  0.
        -13    1    3    3    0    0 -0.46137023551E+02 -0.10524159665E+01  0.25930286003E+02  0.52934981380E+02  0.00000000000E+00 0. -1.
         13    1    3    3    0    0  0.46137023551E+02  0.10524159665E+01  0.21414410178E+02  0.50875431053E+02  0.00000000000E+00 0.  1.
<mgrwt>
<rscale>  0 0.92385505E+02</rscale>
<asrwt>0</asrwt>
<pdfrwt beam="1">  1        2 0.11627316E-01 0.92385505E+02</pdfrwt>
<pdfrwt beam="2">  1       -2 0.43435167E-02 0.92385505E+02</pdfrwt>
<totfact> 0.10893486E+05</totfact>
</mgrwt>
</event>
<event>
 5    1  0.6027538E+000  0.9128830E+02  0.7546771E-02  0.1299762E+00
         -2   -1    0    0    0  501 -0.00000000000E+00  0.00000000000E+00  0.11029748889E+02  0.11029748889E+02  0.00000000000E+00 0. -1.
          2   -1    0    0  501    0  0.00000000000E+00 -0.00000000000E+00 -0.18888811682E+03  0.18888811682E+03  0.00000000000E+00 0.  1.
         23    2    1    2    0    0  0.00000000000E+00  0.00000000000E+00 -0.17785836793E+03  0.19991786571E+03  0.91288301478E+02 0.  0.
        -13    1    3    3    0    0  0.32577508390E+02  0.31677457489E+02 -0.98382395941E+02  0.10836905092E+03  0.00000000000E+00 0.  1.
         13    1    3    3    0    0 -0.32577508390E+02 -0.31677457489E+02 -0.79475971987E+02  0.91548814788E+02  0.00000000000E+00 0. -1.
<mgrwt>
<rscale>  0 0.91288301E+02</rscale>
<asrwt>0</asrwt>
<pdfrwt beam="2">  1        2 0.29059712E-01 0.91288301E+02</pdfrwt>
<pdfrwt beam="1">  1       -2 0.16968844E-02 0.91288301E+02</pdfrwt>
<totfact> 0.15103056E+05</totfact>
</mgrwt>
</event>
<event>
 5    1  0.6027538E+000  0.9069079E+02  0.7546771E-02  0.1301187E+00
         -2   -1    0    0    0  501 -0.00000000000E+00  0.00000000000E+00  0.14137672318E+02  0.14137672318E+02  0.00000000000E+00 0.  1.
          2   -1    0    0  501    0  0.00000000000E+00 -0.00000000000E+00 -0.14544155537E+03  0.14544155537E+03  0.00000000000E+00 0. -1.
         23    2    1    2    0    0  0.00000000000E+00  0.00000000000E+00 -0.13130388305E+03  0.15957922769E+03  0.90690794488E+02 0.  0.
        -13    1    3    3    0    0 -0.19949134778E+02  0.17528432769E+02 -0.97650045205E+00  0.26573812050E+02  0.00000000000E+00 0.  1.
         13    1    3    3    0    0  0.19949134778E+02 -0.17528432769E+02 -0.13032738260E+03  0.13300541564E+03  0.00000000000E+00 0. -1.
<mgrwt>
<rscale>  0 0.90690794E+02</rscale>
<asrwt>0</asrwt>
<pdfrwt beam="2">  1        2 0.22375625E-01 0.90690794E+02</pdfrwt>
<pdfrwt beam="1">  1       -2 0.21750264E-02 0.90690794E+02</pdfrwt>
<totfact> 0.14037734E+05</totfact>
</mgrwt>
</event>
<event>
 5    1  0.6027538E+000  0.8991523E+02  0.7546771E-02  0.1303057E+00
          1   -1    0    0  501    0  0.00000000000E+00  0.00000000000E+00  0.92798231045E+02  0.92798231045E+02  0.00000000000E+00 0. -1.
         -1   -1    0    0    0  501 -0.00000000000E+00 -0.00000000000E+00 -0.21780448822E+02  0.21780448822E+02  0.00000000000E+00 0.  1.
         23    2    1    2    0    0  0.00000000000E+00  0.00000000000E+00  0.71017782222E+02  0.11457867987E+03  0.89915229456E+02 0.  0.
        -13    1    3    3    0    0 -0.17690302363E+02 -0.40754416252E+02  0.26743259843E+02  0.51856255060E+02  0.00000000000E+00 0.  1.
         13    1    3    3    0    0  0.17690302363E+02  0.40754416252E+02  0.44274522379E+02  0.62722424807E+02  0.00000000000E+00 0. -1.
<mgrwt>
<rscale>  0 0.89915229E+02</rscale>
<asrwt>0</asrwt>
<pdfrwt beam="1">  1        1 0.14276651E-01 0.89915229E+02</pdfrwt>
<pdfrwt beam="2">  1       -1 0.33508383E-02 0.89915229E+02</pdfrwt>
<totfact> 0.10716964E+05</totfact>
</mgrwt>
</event>
<event>
 5    1  0.6027538E+000  0.9529016E+02  0.7546771E-02  0.1290524E+00
         -1   -1    0    0    0  501 -0.00000000000E+00  0.00000000000E+00  0.64272501106E+01  0.64272501106E+01  0.00000000000E+00 0.  1.
          1   -1    0    0  501    0  0.00000000000E+00 -0.00000000000E+00 -0.35319203472E+03  0.35319203472E+03  0.00000000000E+00 0. -1.
         23    2    1    2    0    0  0.00000000000E+00  0.00000000000E+00 -0.34676478461E+03  0.35961928483E+03  0.95290157817E+02 0.  0.
        -13    1    3    3    0    0 -0.25016810931E+02  0.39561995521E+02 -0.13982588916E+03  0.14745260797E+03  0.00000000000E+00 0.  1.
         13    1    3    3    0    0  0.25016810931E+02 -0.39561995521E+02 -0.20693889545E+03  0.21216667686E+03  0.00000000000E+00 0. -1.
<mgrwt>
<rscale>  0 0.95290158E+02</rscale>
<asrwt>0</asrwt>
<pdfrwt beam="2">  1        1 0.54337241E-01 0.95290158E+02</pdfrwt>
<pdfrwt beam="1">  1       -1 0.98880762E-03 0.95290158E+02</pdfrwt>
<totfact> 0.11738992E+05</totfact>
</mgrwt>
</event>
<event>
 5    1  0.6027538E+000  0.9063613E+02  0.7546771E-02  0.1301318E+00
         -1   -1    0    0    0  501 -0.00000000000E+00  0.00000000000E+00  0.72595052944E+01  0.72595052944E+01  0.00000000000E+00 0.  1.
          1   -1    0    0  501    0  0.00000000000E+00 -0.00000000000E+00 -0.28290179943E+03  0.28290179943E+03  0.00000000000E+00 0. -1.
         23    2    1    2    0    0  0.00000000000E+00  0.00000000000E+00 -0.27564229414E+03  0.29016130473E+03  0.90636132105E+02 0.  0.
        -13    1    3    3    0    0 -0.40658403156E+02  0.16076133567E+02 -0.17599414835E+03  0.18134356364E+03  0.00000000000E+00 0. -1.
         13    1    3    3    0    0  0.40658403156E+02 -0.16076133567E+02 -0.99648145783E+02  0.10881774109E+03  0.00000000000E+00 0.  1.
<mgrwt>
<rscale>  0 0.90636132E+02</rscale>
<asrwt>0</asrwt>
<pdfrwt beam="2">  1        1 0.43523348E-01 0.90636132E+02</pdfrwt>
<pdfrwt beam="1">  1       -1 0.11168471E-02 0.90636132E+02</pdfrwt>
<totfact> 0.12870986E+05</totfact>
</mgrwt>
</event>
<event>
 5    1  0.6027538E+000  0.8882608E+02  0.7546771E-02  0.1305720E+00
          1   -1    0    0  501    0  0.00000000000E+00  0.00000000000E+00  0.23331721212E+03  0.23331721212E+03  0.00000000000E+00 0. -1.
         -1   -1    0    0    0  501 -0.00000000000E+00 -0.00000000000E+00 -0.84542340384E+01  0.84542340384E+01  0.00000000000E+00 0.  1.
         23    2    1    2    0    0  0.00000000000E+00  0.00000000000E+00  0.22486297808E+03  0.24177144616E+03  0.88826084377E+02 0.  0.
        -13    1    3    3    0    0  0.12191949138E+02  0.41603809035E+02  0.86183215140E+02  0.96473141971E+02  0.00000000000E+00 0.  1.
         13    1    3    3    0    0 -0.12191949138E+02 -0.41603809035E+02  0.13867976294E+03  0.14529830419E+03  0.00000000000E+00 0. -1.
<mgrwt>
<rscale>  0 0.88826084E+02</rscale>
<asrwt>0</asrwt>
<pdfrwt beam="1">  1        1 0.35894951E-01 0.88826084E+02</pdfrwt>
<pdfrwt beam="2">  1       -1 0.13006516E-02 0.88826084E+02</pdfrwt>
<totfact> 0.13082569E+05</totfact>
</mgrwt>
</event>
<event>
 5    1  0.6027538E+000  0.9234994E+02  0.7546771E-02  0.1297259E+00
         -4   -1    0    0    0  501 -0.00000000000E+00  0.00000000000E+00  0.28802360982E+02  0.28802360982E+02  0.00000000000E+00 0.  1.
          4   -1    0    0  501    0  0.00000000000E+00 -0.00000000000E+00 -0.74026148279E+02  0.74026148279E+02  0.00000000000E+00 0. -1.
         23    2    1    2    0    0  0.00000000000E+00  0.00000000000E+00 -0.45223787297E+02  0.10282850926E+03  0.92349939791E+02 0.  0.
        -13    1    3    3    0    0  0.72706599050E+01 -0.25882056734E+02  0.19189587159E+02  0.33030041047E+02  0.00000000000E+00 0.  1.
         13    1    3    3    0    0 -0.72706599050E+01  0.25882056734E+02 -0.64413374456E+02  0.69798468214E+02  0.00000000000E+00 0. -1.
<mgrwt>
<rscale>  0 0.92349940E+02</rscale>
<asrwt>0</asrwt>
<pdfrwt beam="2">  1        4 0.11388638E-01 0.92349940E+02</pdfrwt>
<pdfrwt beam="1">  1       -4 0.44311324E-02 0.92349940E+02</pdfrwt>
<totfact> 0.25387076E+04</totfact>
</mgrwt>
</event>
<event>
 5    1  0.6027538E+000  0.6555705E+02  0.7546771E-02  0.1375888E+00
         -1   -1    0    0    0  501 -0.00000000000E+00  0.00000000000E+00  0.50565526394E+01  0.50565526394E+01  0.00000000000E+00 0.  1.
          1   -1    0    0  501    0  0.00000000000E+00 -0.00000000000E+00 -0.21248306157E+03  0.21248306157E+03  0.00000000000E+00 0. -1.
         23    2    1    2    0    0  0.00000000000E+00  0.00000000000E+00 -0.20742650893E+03  0.21753961421E+03  0.65557052581E+02 0.  0.
        -13    1    3    3    0    0 -0.39811907819E+01  0.32535848590E+02 -0.10364190765E+03  0.10870177710E+03  0.00000000000E+00 0.  1.
         13    1    3    3    0    0  0.39811907819E+01 -0.32535848590E+02 -0.10378460128E+03  0.10883783711E+03  0.00000000000E+00 0. -1.
<mgrwt>
<rscale>  0 0.65557053E+02</rscale>
<asrwt>0</asrwt>
<pdfrwt beam="2">  1        1 0.32689702E-01 0.65557053E+02</pdfrwt>
<pdfrwt beam="1">  1       -1 0.77793117E-03 0.65557053E+02</pdfrwt>
<totfact> 0.28526880E+05</totfact>
</mgrwt>
</event>
<event>
 4    1  0.6027538E+000  0.3854303E+02  0.7546771E-02  0.1519215E+00
          1   -1    0    0  501    0  0.00000000000E+00  0.00000000000E+00  0.69519296083E+02  0.69519296083E+02  0.00000000000E+00 0.  1.
         -1   -1    0    0    0  501 -0.00000000000E+00 -0.00000000000E+00 -0.53422759361E+01  0.53422759361E+01  0.00000000000E+00 0. -1.
        -13    1    1    2    0    0 -0.16010031695E+02 -0.90430371675E+01  0.43295620657E+02  0.47038371614E+02  0.00000000000E+00 0. -1.
         13    1    1    2    0    0  0.16010031695E+02  0.90430371675E+01  0.20881399490E+02  0.27823200405E+02  0.00000000000E+00 0.  1.
<mgrwt>
<rscale>  0 0.38543029E+02</rscale>
<asrwt>0</asrwt>
<pdfrwt beam="1">  1        1 0.10695276E-01 0.38543029E+02</pdfrwt>
<pdfrwt beam="2">  1       -1 0.82188865E-03 0.38543029E+02</pdfrwt>
<totfact> 0.92407318E+05</totfact>
</mgrwt>
</event>
<event>
 4    1  0.6027538E+000  0.1353100E+03  0.7546771E-02  0.1219783E+00
         -3   -1    0    0    0  501 -0.00000000000E+00  0.00000000000E+00  0.44792115629E+02  0.44792115629E+02  0.00000000000E+00 0.  1.
          3   -1    0    0  501    0  0.00000000000E+00 -0.00000000000E+00 -0.10218762043E+03  0.10218762043E+03  0.00000000000E+00 0. -1.
        -13    1    1    2    0    0 -0.28844656059E+02 -0.37522521167E+02  0.23816809035E+02  0.52982961133E+02  0.00000000000E+00 0.  1.
         13    1    1    2    0    0  0.28844656059E+02  0.37522521167E+02 -0.81212313835E+02  0.93996774925E+02  0.00000000000E+00 0. -1.
<mgrwt>
<rscale>  0 0.13531001E+03</rscale>
<asrwt>0</asrwt>
<pdfrwt beam="2">  1        3 0.15721172E-01 0.13531001E+03</pdfrwt>
<pdfrwt beam="1">  1       -3 0.68910947E-02 0.13531001E+03</pdfrwt>
<totfact> 0.10524581E+04</totfact>
</mgrwt>
</event>
<event>
 5    1  0.6027538E+000  0.8911385E+02  0.7546771E-02  0.1305012E+00
         -1   -1    0    0    0  501 -0.00000000000E+00  0.00000000000E+00  0.16784861031E+03  0.16784861031E+03  0.00000000000E+00 0.  1.
          1   -1    0    0  501    0  0.00000000000E+00 -0.00000000000E+00 -0.11828035738E+02  0.11828035738E+02  0.00000000000E+00 0. -1.
         23    2    1    2    0    0  0.00000000000E+00  0.00000000000E+00  0.15602057457E+03  0.17967664605E+03  0.89113845419E+02 0.  0.
        -13    1    3    3    0    0 -0.37011659752E+02  0.23365646785E+02  0.94819527343E+02  0.10443447311E+03  0.00000000000E+00 0. -1.
         13    1    3    3    0    0  0.37011659752E+02 -0.23365646785E+02  0.61201047232E+02  0.75242172945E+02  0.00000000000E+00 0.  1.
<mgrwt>
<rscale>  0 0.89113845E+02</rscale>
<asrwt>0</asrwt>
<pdfrwt beam="2">  1        1 0.18196979E-02 0.89113845E+02</pdfrwt>
<pdfrwt beam="1">  1       -1 0.25822861E-01 0.89113845E+02</pdfrwt>
<totfact> 0.77227472E+04</totfact>
</mgrwt>
</event>
<event>
 5    1  0.6027538E+000  0.9351900E+02  0.7546771E-02  0.1294547E+00
         -1   -1    0    0    0  501 -0.00000000000E+00  0.00000000000E+00  0.80003845151E+02  0.80003845151E+02  0.00000000000E+00 0.  1.
          1   -1    0    0  501    0  0.00000000000E+00 -0.00000000000E+00 -0.27329324282E+02  0.27329324282E+02  0.00000000000E+00 0. -1.
         23    2    1    2    0    0  0.00000000000E+00  0.00000000000E+00  0.52674520870E+02  0.10733316943E+03  0.93519004014E+02 0.  0.
        -13    1    3    3    0    0  0.43885224669E+02  0.40885713938E+01  0.84159307387E+01  0.44871563941E+02  0.00000000000E+00 0.  1.
         13    1    3    3    0    0 -0.43885224669E+02 -0.40885713938E+01  0.44258590131E+02  0.62461605492E+02  0.00000000000E+00 0. -1.
<mgrwt>
<rscale>  0 0.93519004E+02</rscale>
<asrwt>0</asrwt>
<pdfrwt beam="2">  1        1 0.42045115E-02 0.93519004E+02</pdfrwt>
<pdfrwt beam="1">  1       -1 0.12308284E-01 0.93519004E+02</pdfrwt>
<totfact> 0.79322141E+04</totfact>
</mgrwt>
</event>
<event>
 5    1  0.6027538E+000  0.9370216E+02  0.7546771E-02  0.1294126E+00
         -2   -1    0    0    0  501 -0.00000000000E+00  0.00000000000E+00  0.18409971009E+02  0.18409971009E+02  0.00000000000E+00 0.  1.
          2   -1    0    0  501    0  0.00000000000E+00 -0.00000000000E+00 -0.11923014916E+03  0.11923014916E+03  0.00000000000E+00 0. -1.
         23    2    1    2    0    0  0.00000000000E+00  0.00000000000E+00 -0.10082017815E+03  0.13764012016E+03  0.93702157698E+02 0.  0.
        -13    1    3    3    0    0 -0.23844732034E+02  0.32250595683E+02 -0.85979317357E+02  0.94874207142E+02  0.00000000000E+00 0. -1.
         13    1    3    3    0    0  0.23844732034E+02 -0.32250595683E+02 -0.14840860791E+02  0.42765913023E+02  0.00000000000E+00 0.  1.
<mgrwt>
<rscale>  0 0.93702158E+02</rscale>
<asrwt>0</asrwt>
<pdfrwt beam="2">  1        2 0.18343101E-01 0.93702158E+02</pdfrwt>
<pdfrwt beam="1">  1       -2 0.28323031E-02 0.93702158E+02</pdfrwt>
<totfact> 0.12024311E+05</totfact>
</mgrwt>
</event>
<event>
 5    1  0.6027538E+000  0.9064731E+02  0.7546771E-02  0.1301292E+00
         -1   -1    0    0    0  501 -0.00000000000E+00  0.00000000000E+00  0.19532592497E+02  0.19532592497E+02  0.00000000000E+00 0.  1.
          1   -1    0    0  501    0  0.00000000000E+00 -0.00000000000E+00 -0.10516953670E+03  0.10516953670E+03  0.00000000000E+00 0. -1.
         23    2    1    2    0    0  0.00000000000E+00  0.00000000000E+00 -0.85636944204E+02  0.12470212920E+03  0.90647310020E+02 0.  0.
        -13    1    3    3    0    0  0.33582704136E+02  0.18513468144E+02 -0.76054493252E+02  0.85175304306E+02  0.00000000000E+00 0. -1.
         13    1    3    3    0    0 -0.33582704136E+02 -0.18513468144E+02 -0.95824509519E+01  0.39526824892E+02  0.00000000000E+00 0.  1.
<mgrwt>
<rscale>  0 0.90647310E+02</rscale>
<asrwt>0</asrwt>
<pdfrwt beam="2">  1        1 0.16179929E-01 0.90647310E+02</pdfrwt>
<pdfrwt beam="1">  1       -1 0.30050141E-02 0.90647310E+02</pdfrwt>
<totfact> 0.10701828E+05</totfact>
</mgrwt>
</event>
<event>
 5    1  0.6027538E+000  0.9593699E+02  0.7546771E-02  0.1289080E+00
         -4   -1    0    0    0  501 -0.00000000000E+00  0.00000000000E+00  0.17272889058E+02  0.17272889058E+02  0.00000000000E+00 0.  1.
          4   -1    0    0  501    0  0.00000000000E+00 -0.00000000000E+00 -0.13321317227E+03  0.13321317227E+03  0.00000000000E+00 0. -1.
         23    2    1    2    0    0  0.00000000000E+00  0.00000000000E+00 -0.11594028322E+03  0.15048606133E+03  0.95936986522E+02 0.  0.
        -13    1    3    3    0    0  0.93346473435E+01 -0.44811794120E+02 -0.80469679293E+02  0.92577544895E+02  0.00000000000E+00 0. -1.
         13    1    3    3    0    0 -0.93346473435E+01  0.44811794120E+02 -0.35470603924E+02  0.57908516438E+02  0.00000000000E+00 0.  1.
<mgrwt>
<rscale>  0 0.95936987E+02</rscale>
<asrwt>0</asrwt>
<pdfrwt beam="2">  1        4 0.20494334E-01 0.95936987E+02</pdfrwt>
<pdfrwt beam="1">  1       -4 0.26573676E-02 0.95936987E+02</pdfrwt>
<totfact> 0.20608097E+04</totfact>
</mgrwt>
</event>
<event>
 5    1  0.6027538E+000  0.9164671E+02  0.7546771E-02  0.1298912E+00
          1   -1    0    0  501    0  0.00000000000E+00  0.00000000000E+00  0.76941814840E+02  0.76941814840E+02  0.00000000000E+00 0. -1.
         -1   -1    0    0    0  501 -0.00000000000E+00 -0.00000000000E+00 -0.27290491260E+02  0.27290491260E+02  0.00000000000E+00 0.  1.
         23    2    1    2    0    0  0.00000000000E+00  0.00000000000E+00  0.49651323580E+02  0.10423230610E+03  0.91646711352E+02 0.  0.
        -13    1    3    3    0    0  0.33718213331E+02 -0.25247272792E+02  0.43084151296E+01  0.42342710525E+02  0.00000000000E+00 0.  1.
         13    1    3    3    0    0 -0.33718213331E+02  0.25247272792E+02  0.45342908451E+02  0.61889595575E+02  0.00000000000E+00 0. -1.
<mgrwt>
<rscale>  0 0.91646711E+02</rscale>
<asrwt>0</asrwt>
<pdfrwt beam="1">  1        1 0.11837202E-01 0.91646711E+02</pdfrwt>
<pdfrwt beam="2">  1       -1 0.41985372E-02 0.91646711E+02</pdfrwt>
<totfact> 0.98722197E+04</totfact>
</mgrwt>
</event>
<event>
 5    1  0.6027538E+000  0.9326273E+02  0.7546771E-02  0.1295137E+00
          1   -1    0    0  501    0  0.00000000000E+00  0.00000000000E+00  0.23788864121E+03  0.23788864121E+03  0.00000000000E+00 0.  1.
         -1   -1    0    0    0  501 -0.00000000000E+00 -0.00000000000E+00 -0.91407646590E+01  0.91407646590E+01  0.00000000000E+00 0. -1.
         23    2    1    2    0    0  0.00000000000E+00  0.00000000000E+00  0.22874787655E+03  0.24702940587E+03  0.93262727482E+02 0.  0.
        -13    1    3    3    0    0  0.31621653040E+02  0.34123268181E+02  0.10593207157E+03  0.11569758062E+03  0.00000000000E+00 0. -1.
         13    1    3    3    0    0 -0.31621653040E+02 -0.34123268181E+02  0.12281580498E+03  0.13133182526E+03  0.00000000000E+00 0.  1.
<mgrwt>
<rscale>  0 0.93262727E+02</rscale>
<asrwt>0</asrwt>
<pdfrwt beam="1">  1        1 0.36598248E-01 0.93262727E+02</pdfrwt>
<pdfrwt beam="2">  1       -1 0.14062717E-02 0.93262727E+02</pdfrwt>
<totfact> 0.11527759E+05</totfact>
</mgrwt>
</event>
<event>
 5    1  0.6027538E+000  0.9415002E+02  0.7546771E-02  0.1293102E+00
          1   -1    0    0  501    0  0.00000000000E+00  0.00000000000E+00  0.12982050782E+03  0.12982050782E+03  0.00000000000E+00 0. -1.
         -1   -1    0    0    0  501 -0.00000000000E+00 -0.00000000000E+00 -0.17070158371E+02  0.17070158371E+02  0.00000000000E+00 0.  1.
         23    2    1    2    0    0  0.00000000000E+00  0.00000000000E+00  0.11275034945E+03  0.14689066620E+03  0.94150021315E+02 0.  0.
        -13    1    3    3    0    0 -0.27235168714E+01 -0.29680875839E+02 -0.47361876856E+00  0.29809331584E+02  0.00000000000E+00 0.  1.
         13    1    3    3    0    0  0.27235168714E+01  0.29680875839E+02  0.11322396822E+03  0.11708133461E+03  0.00000000000E+00 0. -1.
<mgrwt>
<rscale>  0 0.94150021E+02</rscale>
<asrwt>0</asrwt>
<pdfrwt beam="1">  1        1 0.19972385E-01 0.94150021E+02</pdfrwt>
<pdfrwt beam="2">  1       -1 0.26261783E-02 0.94150021E+02</pdfrwt>
<totfact> 0.10012822E+05</totfact>
</mgrwt>
</event>
<event>
 5    1  0.6027538E+000  0.9028331E+02  0.7546771E-02  0.1302167E+00
          2   -1    0    0  501    0  0.00000000000E+00  0.00000000000E+00  0.16782395237E+02  0.16782395237E+02  0.00000000000E+00 0. -1.
         -2   -1    0    0    0  501 -0.00000000000E+00 -0.00000000000E+00 -0.12142300482E+03  0.12142300482E+03  0.00000000000E+00 0.  1.
         23    2    1    2    0    0  0.00000000000E+00  0.00000000000E+00 -0.10464060959E+03  0.13820540006E+03  0.90283306492E+02 0.  0.
        -13    1    3    3    0    0 -0.40201870999E+02 -0.16839277830E+02 -0.34336396430E+02  0.55486393192E+02  0.00000000000E+00 0. -1.
         13    1    3    3    0    0  0.40201870999E+02  0.16839277830E+02 -0.70304213158E+02  0.82719006869E+02  0.00000000000E+00 0.  1.
<mgrwt>
<rscale>  0 0.90283306E+02</rscale>
<asrwt>0</asrwt>
<pdfrwt beam="1">  1        2 0.25819069E-02 0.90283306E+02</pdfrwt>
<pdfrwt beam="2">  1       -2 0.18680463E-01 0.90283306E+02</pdfrwt>
<totfact> 0.77008587E+04</totfact>
</mgrwt>
</event>
<event>
 5    1  0.6027538E+000  0.8940744E+02  0.7546771E-02  0.1304293E+00
         -2   -1    0    0    0  501 -0.00000000000E+00  0.00000000000E+00  0.45225603158E+02  0.45225603158E+02  0.00000000000E+00 0. -1.
          2   -1    0    0  501    0  0.00000000000E+00 -0.00000000000E+00 -0.44187854329E+02  0.44187854329E+02  0.00000000000E+00 0.  1.
         23    2    1    2    0    0  0.00000000000E+00  0.00000000000E+00  0.10377488284E+01  0.89413457487E+02  0.89407435134E+02 0.  0.
        -13    1    3    3    0    0  0.73643315994E+01  0.38030822747E+02 -0.21795080326E+02  0.44447748932E+02  0.00000000000E+00 0.  1.
         13    1    3    3    0    0 -0.73643315994E+01 -0.38030822747E+02  0.22832829154E+02  0.44965708555E+02  0.00000000000E+00 0. -1.
<mgrwt>
<rscale>  0 0.89407435E+02</rscale>
<asrwt>0</asrwt>
<pdfrwt beam="2">  1        2 0.67981314E-02 0.89407435E+02</pdfrwt>
<pdfrwt beam="1">  1       -2 0.69577851E-02 0.89407435E+02</pdfrwt>
<totfact> 0.10353768E+05</totfact>
</mgrwt>
</event>
<event>
 5    1  0.6027538E+000  0.9046736E+02  0.7546771E-02  0.1301724E+00
          2   -1    0    0  501    0  0.00000000000E+00  0.00000000000E+00  0.58160835771E+01  0.58160835771E+01  0.00000000000E+00 0. -1.
         -2   -1    0    0    0  501 -0.00000000000E+00 -0.00000000000E+00 -0.35179789440E+03  0.35179789440E+03  0.00000000000E+00 0.  1.
         23    2    1    2    0    0  0.00000000000E+00  0.00000000000E+00 -0.34598181082E+03  0.35761397798E+03  0.90467363310E+02 0.  0.
        -13    1    3    3    0    0 -0.87613179280E+01  0.43975068283E+02 -0.14943224030E+03  0.15601462035E+03  0.00000000000E+00 0. -1.
         13    1    3    3    0    0  0.87613179280E+01 -0.43975068283E+02 -0.19654957053E+03  0.20159935763E+03  0.00000000000E+00 0.  1.
<mgrwt>
<rscale>  0 0.90467363E+02</rscale>
<asrwt>0</asrwt>
<pdfrwt beam="1">  1        2 0.89478189E-03 0.90467363E+02</pdfrwt>
<pdfrwt beam="2">  1       -2 0.54122765E-01 0.90467363E+02</pdfrwt>
<totfact> 0.47352196E+04</totfact>
</mgrwt>
</event>
<event>
 5    1  0.6027538E+000  0.9066381E+02  0.7546771E-02  0.1301252E+00
          1   -1    0    0  501    0  0.00000000000E+00  0.00000000000E+00  0.11835353461E+03  0.11835353461E+03  0.00000000000E+00 0. -1.
         -1   -1    0    0    0  501 -0.00000000000E+00 -0.00000000000E+00 -0.17363075891E+02  0.17363075891E+02  0.00000000000E+00 0.  1.
         23    2    1    2    0    0  0.00000000000E+00  0.00000000000E+00  0.10099045872E+03  0.13571661050E+03  0.90663805422E+02 0.  0.
        -13    1    3    3    0    0 -0.32733089368E+02 -0.25074041992E+02  0.22298268584E+02  0.46876172020E+02  0.00000000000E+00 0. -1.
         13    1    3    3    0    0  0.32733089368E+02  0.25074041992E+02  0.78692190133E+02  0.88840438480E+02  0.00000000000E+00 0.  1.
<mgrwt>
<rscale>  0 0.90663805E+02</rscale>
<asrwt>0</asrwt>
<pdfrwt beam="1">  1        1 0.18208236E-01 0.90663805E+02</pdfrwt>
<pdfrwt beam="2">  1       -1 0.26712425E-02 0.90663805E+02</pdfrwt>
<totfact> 0.10913773E+05</totfact>
</mgrwt>
</event>
<event>
 5    1  0.6027538E+000  0.9182266E+02  0.7546771E-02  0.1298497E+00
          2   -1    0    0  501    0  0.00000000000E+00  0.00000000000E+00  0.29946742008E+03  0.29946742008E+03  0.00000000000E+00 0. -1.
         -2   -1    0    0    0  501 -0.00000000000E+00 -0.00000000000E+00 -0.70386634389E+01  0.70386634389E+01  0.00000000000E+00 0.  1.
         23    2    1    2    0    0  0.00000000000E+00  0.00000000000E+00  0.29242875664E+03  0.30650608352E+03  0.91822663452E+02 0.  0.
        -13    1    3    3    0    0 -0.41351282919E+02  0.25890392870E+01  0.80190810094E+02  0.90261828848E+02  0.00000000000E+00 0.  1.
         13    1    3    3    0    0  0.41351282919E+02 -0.25890392870E+01  0.21223794654E+03  0.21624425467E+03  0.00000000000E+00 0. -1.
<mgrwt>
<rscale>  0 0.91822663E+02</rscale>
<asrwt>0</asrwt>
<pdfrwt beam="1">  1        2 0.46071901E-01 0.91822663E+02</pdfrwt>
<pdfrwt beam="2">  1       -2 0.10828715E-02 0.91822663E+02</pdfrwt>
<totfact> 0.17618813E+05</totfact>
</mgrwt>
</event>
<event>
 5    1  0.6027538E+000  0.9288186E+02  0.7546771E-02  0.1296019E+00
          4   -1    0    0  501    0  0.00000000000E+00  0.00000000000E+00  0.45566042136E+02  0.45566042136E+02  0.00000000000E+00 0. -1.
         -4   -1    0    0    0  501 -0.00000000000E+00 -0.00000000000E+00 -0.47332618665E+02  0.47332618665E+02  0.00000000000E+00 0.  1.
         23    2    1    2    0    0  0.00000000000E+00  0.00000000000E+00 -0.17665765289E+01  0.92898660801E+02  0.92881862524E+02 0.  0.
        -13    1    3    3    0    0  0.11341026239E+02  0.37935002713E+01 -0.45766236487E+02  0.47302832079E+02  0.00000000000E+00 0.  1.
         13    1    3    3    0    0 -0.11341026239E+02 -0.37935002713E+01  0.43999659958E+02  0.45595828723E+02  0.00000000000E+00 0. -1.
<mgrwt>
<rscale>  0 0.92881863E+02</rscale>
<asrwt>0</asrwt>
<pdfrwt beam="1">  1        4 0.70101603E-02 0.92881863E+02</pdfrwt>
<pdfrwt beam="2">  1       -4 0.72819413E-02 0.92881863E+02</pdfrwt>
<totfact> 0.25582056E+04</totfact>
</mgrwt>
</event>
<event>
 5    1  0.6027538E+000  0.8982666E+02  0.7546771E-02  0.1303272E+00
         -2   -1    0    0    0  501 -0.00000000000E+00  0.00000000000E+00  0.49217423663E+01  0.49217423663E+01  0.00000000000E+00 0.  1.
          2   -1    0    0  501    0  0.00000000000E+00 -0.00000000000E+00 -0.40985634886E+03  0.40985634886E+03  0.00000000000E+00 0. -1.
         23    2    1    2    0    0  0.00000000000E+00  0.00000000000E+00 -0.40493460649E+03  0.41477809122E+03  0.89826663220E+02 0.  0.
        -13    1    3    3    0    0  0.35266732376E+02  0.27160519979E+02 -0.23008431460E+03  0.23435065198E+03  0.00000000000E+00 0.  1.
         13    1    3    3    0    0 -0.35266732376E+02 -0.27160519979E+02 -0.17485029189E+03  0.18042743924E+03  0.00000000000E+00 0. -1.
<mgrwt>
<rscale>  0 0.89826663E+02</rscale>
<asrwt>0</asrwt>
<pdfrwt beam="2">  1        2 0.63054834E-01 0.89826663E+02</pdfrwt>
<pdfrwt beam="1">  1       -2 0.75719100E-03 0.89826663E+02</pdfrwt>
<totfact> 0.20948599E+05</totfact>
</mgrwt>
</event>
<event>
 5    1  0.6027538E+000  0.9233218E+02  0.7546771E-02  0.1297300E+00
         -3   -1    0    0    0  501 -0.00000000000E+00  0.00000000000E+00  0.50678792508E+02  0.50678792508E+02  0.00000000000E+00 0.  1.
          3   -1    0    0  501    0  0.00000000000E+00 -0.00000000000E+00 -0.42055221766E+02  0.42055221766E+02  0.00000000000E+00 0. -1.
         23    2    1    2    0    0  0.00000000000E+00  0.00000000000E+00  0.86235707423E+01  0.92734014274E+02  0.92332179824E+02 0.  0.
        -13    1    3    3    0    0 -0.21159797837E+02 -0.28936826457E+02  0.33528434691E+02  0.49083937319E+02  0.00000000000E+00 0.  1.
         13    1    3    3    0    0  0.21159797837E+02  0.28936826457E+02 -0.24904863948E+02  0.43650076955E+02  0.00000000000E+00 0. -1.
<mgrwt>
<rscale>  0 0.92332180E+02</rscale>
<asrwt>0</asrwt>
<pdfrwt beam="2">  1        3 0.64700341E-02 0.92332180E+02</pdfrwt>
<pdfrwt beam="1">  1       -3 0.77967373E-02 0.92332180E+02</pdfrwt>
<totfact> 0.34029110E+04</totfact>
</mgrwt>
</event>
<event>
 5    1  0.6027538E+000  0.9024082E+02  0.7546771E-02  0.1302270E+00
         -1   -1    0    0    0  501 -0.00000000000E+00  0.00000000000E+00  0.25544522647E+02  0.25544522647E+02  0.00000000000E+00 0.  1.
          1   -1    0    0  501    0  0.00000000000E+00 -0.00000000000E+00 -0.79698159270E+02  0.79698159270E+02  0.00000000000E+00 0. -1.
         23    2    1    2    0    0  0.00000000000E+00  0.00000000000E+00 -0.54153636623E+02  0.10524268192E+03  0.90240820794E+02 0.  0.
        -13    1    3    3    0    0  0.27851134558E+02  0.26846348390E+02 -0.54163772179E+02  0.66559194216E+02  0.00000000000E+00 0. -1.
         13    1    3    3    0    0 -0.27851134558E+02 -0.26846348390E+02  0.10135556093E-01  0.38683487701E+02  0.00000000000E+00 0.  1.
<mgrwt>
<rscale>  0 0.90240821E+02</rscale>
<asrwt>0</asrwt>
<pdfrwt beam="2">  1        1 0.12261255E-01 0.90240821E+02</pdfrwt>
<pdfrwt beam="1">  1       -1 0.39299266E-02 0.90240821E+02</pdfrwt>
<totfact> 0.10357285E+05</totfact>
</mgrwt>
</event>
<event>
 5    1  0.6027538E+000  0.9406556E+02  0.7546771E-02  0.1293295E+00
         -1   -1    0    0    0  501 -0.00000000000E+00  0.00000000000E+00  0.11264988983E+03  0.11264988983E+03  0.00000000000E+00 0.  1.
          1   -1    0    0  501    0  0.00000000000E+00 -0.00000000000E+00 -0.19636790406E+02  0.19636790406E+02  0.00000000000E+00 0. -1.
         23    2    1    2    0    0  0.00000000000E+00  0.00000000000E+00  0.93013099425E+02  0.13228668024E+03  0.94065557478E+02 0.  0.
        -13    1    3    3    0    0  0.50696282453E+01  0.32393310088E+02  0.93928143414E+02  0.99486299531E+02  0.00000000000E+00 0.  1.
         13    1    3    3    0    0 -0.50696282453E+01 -0.32393310088E+02 -0.91504398922E+00  0.32800380707E+02  0.00000000000E+00 0. -1.
<mgrwt>
<rscale>  0 0.94065557E+02</rscale>
<asrwt>0</asrwt>
<pdfrwt beam="2">  1        1 0.30210448E-02 0.94065557E+02</pdfrwt>
<pdfrwt beam="1">  1       -1 0.17330752E-01 0.94065557E+02</pdfrwt>
<totfact> 0.73371861E+04</totfact>
</mgrwt>
</event>
<event>
 5    1  0.6027538E+000  0.9306326E+02  0.7546771E-02  0.1295599E+00
         -2   -1    0    0    0  501 -0.00000000000E+00  0.00000000000E+00  0.32579107096E+02  0.32579107096E+02  0.00000000000E+00 0.  1.
          2   -1    0    0  501    0  0.00000000000E+00 -0.00000000000E+00 -0.66459549564E+02  0.66459549564E+02  0.00000000000E+00 0. -1.
         23    2    1    2    0    0  0.00000000000E+00  0.00000000000E+00 -0.33880442467E+02  0.99038656660E+02  0.93063264134E+02 0.  0.
        -13    1    3    3    0    0 -0.11151651568E+02 -0.41951735032E+02  0.89551437233E+00  0.43417845995E+02  0.00000000000E+00 0.  1.
         13    1    3    3    0    0  0.11151651568E+02  0.41951735032E+02 -0.34775956840E+02  0.55620810665E+02  0.00000000000E+00 0. -1.
<mgrwt>
<rscale>  0 0.93063264E+02</rscale>
<asrwt>0</asrwt>
<pdfrwt beam="2">  1        2 0.10224546E-01 0.93063264E+02</pdfrwt>
<pdfrwt beam="1">  1       -2 0.50121705E-02 0.93063264E+02</pdfrwt>
<totfact> 0.10294569E+05</totfact>
</mgrwt>
</event>
<event>
 5    1  0.6027538E+000  0.9488001E+02  0.7546771E-02  0.1291447E+00
         -4   -1    0    0    0  501 -0.00000000000E+00  0.00000000000E+00  0.98917585750E+02  0.98917585750E+02  0.00000000000E+00 0.  1.
          4   -1    0    0  501    0  0.00000000000E+00 -0.00000000000E+00 -0.22751811216E+02  0.22751811216E+02  0.00000000000E+00 0. -1.
         23    2    1    2    0    0  0.00000000000E+00  0.00000000000E+00  0.76165774533E+02  0.12166939697E+03  0.94880013426E+02 0.  0.
        -13    1    3    3    0    0  0.17286307938E+02 -0.32854281695E+02  0.75957483379E+02  0.84544423524E+02  0.00000000000E+00 0.  1.
         13    1    3    3    0    0 -0.17286307938E+02  0.32854281695E+02  0.20829115461E+00  0.37124973442E+02  0.00000000000E+00 0. -1.
<mgrwt>
<rscale>  0 0.94880013E+02</rscale>
<asrwt>0</asrwt>
<pdfrwt beam="2">  1        4 0.35002787E-02 0.94880013E+02</pdfrwt>
<pdfrwt beam="1">  1       -4 0.15218090E-01 0.94880013E+02</pdfrwt>
<totfact> 0.22600462E+04</totfact>
</mgrwt>
</event>
<event>
 5    1  0.6027538E+000  0.9185681E+02  0.7546771E-02  0.1298416E+00
          4   -1    0    0  501    0  0.00000000000E+00  0.00000000000E+00  0.62722379378E+02  0.62722379378E+02  0.00000000000E+00 0.  1.
         -4   -1    0    0    0  501 -0.00000000000E+00 -0.00000000000E+00 -0.33631030494E+02  0.33631030494E+02  0.00000000000E+00 0. -1.
         23    2    1    2    0    0  0.00000000000E+00  0.00000000000E+00  0.29091348884E+02  0.96353409872E+02  0.91856807119E+02 0.  0.
        -13    1    3    3    0    0 -0.33732059550E+02 -0.71581123843E+01  0.46367641562E+02  0.57784501369E+02  0.00000000000E+00 0.  1.
         13    1    3    3    0    0  0.33732059550E+02  0.71581123843E+01 -0.17276292679E+02  0.38568908503E+02  0.00000000000E+00 0. -1.
<mgrwt>
<rscale>  0 0.91856807E+02</rscale>
<asrwt>0</asrwt>
<pdfrwt beam="1">  1        4 0.96495968E-02 0.91856807E+02</pdfrwt>
<pdfrwt beam="2">  1       -4 0.51740047E-02 0.91856807E+02</pdfrwt>
<totfact> 0.26152461E+04</totfact>
</mgrwt>
</event>
<event>
 5    1  0.6027538E+000  0.9133263E+02  0.7546771E-02  0.1299656E+00
          4   -1    0    0  501    0  0.00000000000E+00  0.00000000000E+00  0.25129125302E+03  0.25129125302E+03  0.00000000000E+00 0.  1.
         -4   -1    0    0    0  501 -0.00000000000E+00 -0.00000000000E+00 -0.82987865813E+01  0.82987865813E+01  0.00000000000E+00 0. -1.
         23    2    1    2    0    0  0.00000000000E+00  0.00000000000E+00  0.24299246644E+03  0.25959003961E+03  0.91332633349E+02 0.  0.
        -13    1    3    3    0    0  0.29297860216E+02  0.32652417536E+02  0.15754547991E+03  0.16353936292E+03  0.00000000000E+00 0.  1.
         13    1    3    3    0    0 -0.29297860216E+02 -0.32652417536E+02  0.85446986530E+02  0.96050676683E+02  0.00000000000E+00 0. -1.
<mgrwt>
<rscale>  0 0.91332633E+02</rscale>
<asrwt>0</asrwt>
<pdfrwt beam="1">  1        4 0.38660187E-01 0.91332633E+02</pdfrwt>
<pdfrwt beam="2">  1       -4 0.12767366E-02 0.91332633E+02</pdfrwt>
<totfact> 0.19042003E+04</totfact>
</mgrwt>
</event>
<event>
 5    1  0.6027538E+000  0.9095560E+02  0.7546771E-02  0.1300554E+00
         -1   -1    0    0    0  501 -0.00000000000E+00  0.00000000000E+00  0.26084151545E+02  0.26084151545E+02  0.00000000000E+00 0.  1.
          1   -1    0    0  501    0  0.00000000000E+00 -0.00000000000E+00 -0.79290690580E+02  0.79290690580E+02  0.00000000000E+00 0. -1.
         23    2    1    2    0    0  0.00000000000E+00  0.00000000000E+00 -0.53206539035E+02  0.10537484212E+03  0.90955602118E+02 0.  0.
        -13    1    3    3    0    0 -0.58134820620E+01  0.31386218740E+02  0.10925593683E+02  0.33738107502E+02  0.00000000000E+00 0.  1.
         13    1    3    3    0    0  0.58134820620E+01 -0.31386218740E+02 -0.64132132718E+02  0.71636734623E+02  0.00000000000E+00 0. -1.
<mgrwt>
<rscale>  0 0.90955602E+02</rscale>
<asrwt>0</asrwt>
<pdfrwt beam="2">  1        1 0.12198567E-01 0.90955602E+02</pdfrwt>
<pdfrwt beam="1">  1       -1 0.40129465E-02 0.90955602E+02</pdfrwt>
<totfact> 0.10127616E+05</totfact>
</mgrwt>
</event>
<event>
 5    1  0.6027538E+000  0.8825657E+02  0.7546771E-02  0.1307129E+00
          1   -1    0    0  501    0  0.00000000000E+00  0.00000000000E+00  0.11717226691E+02  0.11717226691E+02  0.00000000000E+00 0. -1.
         -1   -1    0    0    0  501 -0.00000000000E+00 -0.00000000000E+00 -0.16619168938E+03  0.16619168938E+03  0.00000000000E+00 0.  1.
         23    2    1    2    0    0  0.00000000000E+00  0.00000000000E+00 -0.15447446269E+03  0.17790891607E+03  0.88256573661E+02 0.  0.
        -13    1    3    3    0    0  0.43779079005E+02 -0.19849833972E+01 -0.87664623289E+02  0.98008336860E+02  0.00000000000E+00 0.  1.
         13    1    3    3    0    0 -0.43779079005E+02  0.19849833972E+01 -0.66809839400E+02  0.79900579211E+02  0.00000000000E+00 0. -1.
<mgrwt>
<rscale>  0 0.88256574E+02</rscale>
<asrwt>0</asrwt>
<pdfrwt beam="1">  1        1 0.18026503E-02 0.88256574E+02</pdfrwt>
<pdfrwt beam="2">  1       -1 0.25567952E-01 0.88256574E+02</pdfrwt>
<totfact> 0.79385032E+04</totfact>
</mgrwt>
</event>
<event>
 5    1  0.6027538E+000  0.9048785E+02  0.7546771E-02  0.1301675E+00
         -1   -1    0    0    0  501 -0.00000000000E+00  0.00000000000E+00  0.47049122269E+02  0.47049122269E+02  0.00000000000E+00 0.  1.
          1   -1    0    0  501    0  0.00000000000E+00 -0.00000000000E+00 -0.43507985535E+02  0.43507985535E+02  0.00000000000E+00 0. -1.
         23    2    1    2    0    0  0.00000000000E+00  0.00000000000E+00  0.35411367341E+01  0.90557107803E+02  0.90487845175E+02 0.  0.
        -13    1    3    3    0    0  0.26963394099E+02 -0.13394886876E+02  0.35568669524E+02  0.46600191711E+02  0.00000000000E+00 0.  1.
         13    1    3    3    0    0 -0.26963394099E+02  0.13394886876E+02 -0.32027532790E+02  0.43956916093E+02  0.00000000000E+00 0. -1.
<mgrwt>
<rscale>  0 0.90487845E+02</rscale>
<asrwt>0</asrwt>
<pdfrwt beam="2">  1        1 0.66935362E-02 0.90487845E+02</pdfrwt>
<pdfrwt beam="1">  1       -1 0.72383265E-02 0.90487845E+02</pdfrwt>
<totfact> 0.93802302E+04</totfact>
</mgrwt>
</event>
<event>
 5    1  0.6027538E+000  0.9086129E+02  0.7546771E-02  0.1300779E+00
          1   -1    0    0  501    0  0.00000000000E+00  0.00000000000E+00  0.19150478793E+03  0.19150478793E+03  0.00000000000E+00 0. -1.
         -1   -1    0    0    0  501 -0.00000000000E+00 -0.00000000000E+00 -0.10777503097E+02  0.10777503097E+02  0.00000000000E+00 0.  1.
         23    2    1    2    0    0  0.00000000000E+00  0.00000000000E+00  0.18072728484E+03  0.20228229103E+03  0.90861288676E+02 0.  0.
        -13    1    3    3    0    0 -0.31250311596E+01  0.36526847424E+02  0.15009952435E+03  0.15451162937E+03  0.00000000000E+00 0. -1.
         13    1    3    3    0    0  0.31250311596E+01 -0.36526847424E+02  0.30627760491E+02  0.47770661658E+02  0.00000000000E+00 0.  1.
<mgrwt>
<rscale>  0 0.90861289E+02</rscale>
<asrwt>0</asrwt>
<pdfrwt beam="1">  1        1 0.29462273E-01 0.90861289E+02</pdfrwt>
<pdfrwt beam="2">  1       -1 0.16580775E-02 0.90861289E+02</pdfrwt>
<totfact> 0.11851318E+05</totfact>
</mgrwt>
</event>
<event>
 5    1  0.6027538E+000  0.9057686E+02  0.7546771E-02  0.1301461E+00
         -3   -1    0    0    0  501 -0.00000000000E+00  0.00000000000E+00  0.10724429091E+03  0.10724429091E+03  0.00000000000E+00 0.  1.
          3   -1    0    0  501    0  0.00000000000E+00 -0.00000000000E+00 -0.19124950344E+02  0.19124950344E+02  0.00000000000E+00 0. -1.
         23    2    1    2    0    0  0.00000000000E+00  0.00000000000E+00  0.88119340568E+02  0.12636924126E+03  0.90576856610E+02 0.  0.
        -13    1    3    3    0    0  0.45285232566E+02 -0.28723209924E+00  0.43424991133E+02  0.62742048466E+02  0.00000000000E+00 0.  1.
         13    1    3    3    0    0 -0.45285232566E+02  0.28723209924E+00  0.44694349435E+02  0.63627192789E+02  0.00000000000E+00 0. -1.
<mgrwt>
<rscale>  0 0.90576857E+02</rscale>
<asrwt>0</asrwt>
<pdfrwt beam="2">  1        3 0.29423001E-02 0.90576857E+02</pdfrwt>
<pdfrwt beam="1">  1       -3 0.16499121E-01 0.90576857E+02</pdfrwt>
<totfact> 0.33410577E+04</totfact>
</mgrwt>
</event>
<event>
 5    1  0.6027538E+000  0.9991165E+02  0.7546771E-02  0.1280482E+00
          2   -1    0    0  501    0  0.00000000000E+00  0.00000000000E+00  0.20144633312E+03  0.20144633312E+03  0.00000000000E+00 0. -1.
         -2   -1    0    0    0  501 -0.00000000000E+00 -0.00000000000E+00 -0.12388334661E+02  0.12388334661E+02  0.00000000000E+00 0.  1.
         23    2    1    2    0    0  0.00000000000E+00  0.00000000000E+00  0.18905799846E+03  0.21383466778E+03  0.99911652794E+02 0.  0.
        -13    1    3    3    0    0 -0.49134522137E+02 -0.89743942662E+01  0.92563271869E+02  0.10517937211E+03  0.00000000000E+00 0. -1.
         13    1    3    3    0    0  0.49134522137E+02  0.89743942662E+01  0.96494726590E+02  0.10865529567E+03  0.00000000000E+00 0.  1.
<mgrwt>
<rscale>  0 0.99911653E+02</rscale>
<asrwt>0</asrwt>
<pdfrwt beam="1">  1        2 0.30991741E-01 0.99911653E+02</pdfrwt>
<pdfrwt beam="2">  1       -2 0.19058978E-02 0.99911653E+02</pdfrwt>
<totfact> 0.12104910E+05</totfact>
</mgrwt>
</event>
<event>
 5    1  0.6027538E+000  0.9214886E+02  0.7546771E-02  0.1297730E+00
          3   -1    0    0  501    0  0.00000000000E+00  0.00000000000E+00  0.24024282121E+02  0.24024282121E+02  0.00000000000E+00 0. -1.
         -3   -1    0    0    0  501 -0.00000000000E+00 -0.00000000000E+00 -0.88362809721E+02  0.88362809721E+02  0.00000000000E+00 0.  1.
         23    2    1    2    0    0  0.00000000000E+00  0.00000000000E+00 -0.64338527601E+02  0.11238709184E+03  0.92148859346E+02 0.  0.
        -13    1    3    3    0    0 -0.29248175301E+02  0.13046116095E+01  0.11220876398E+02  0.31353880733E+02  0.00000000000E+00 0. -1.
         13    1    3    3    0    0  0.29248175301E+02 -0.13046116095E+01 -0.75559403999E+02  0.81033211109E+02  0.00000000000E+00 0.  1.
<mgrwt>
<rscale>  0 0.92148859E+02</rscale>
<asrwt>0</asrwt>
<pdfrwt beam="1">  1        3 0.36960434E-02 0.92148859E+02</pdfrwt>
<pdfrwt beam="2">  1       -3 0.13594278E-01 0.92148859E+02</pdfrwt>
<totfact> 0.32815301E+04</totfact>
</mgrwt>
</event>
<event>
 5    1  0.6027538E+000  0.9047331E+02  0.7546771E-02  0.1301710E+00
         -2   -1    0    0    0  501 -0.00000000000E+00  0.00000000000E+00  0.86872759972E+02  0.86872759972E+02  0.00000000000E+00 0.  1.
          2   -1    0    0  501    0  0.00000000000E+00 -0.00000000000E+00 -0.23555770659E+02  0.23555770659E+02  0.00000000000E+00 0. -1.
         23    2    1    2    0    0  0.00000000000E+00  0.00000000000E+00  0.63316989314E+02  0.11042853063E+03  0.90473306791E+02 0.  0.
        -13    1    3    3    0    0  0.40699643129E+02 -0.34141507085E+01  0.79205515838E+01  0.41603515636E+02  0.00000000000E+00 0.  1.
         13    1    3    3    0    0 -0.40699643129E+02  0.34141507085E+01  0.55396437730E+02  0.68825014995E+02  0.00000000000E+00 0. -1.
<mgrwt>
<rscale>  0 0.90473307E+02</rscale>
<asrwt>0</asrwt>
<pdfrwt beam="2">  1        2 0.36239647E-02 0.90473307E+02</pdfrwt>
<pdfrwt beam="1">  1       -2 0.13365040E-01 0.90473307E+02</pdfrwt>
<totfact> 0.84743838E+04</totfact>
</mgrwt>
</event>
<event>
 5    1  0.6027538E+000  0.9140878E+02  0.7546771E-02  0.1299476E+00
          2   -1    0    0  501    0  0.00000000000E+00  0.00000000000E+00  0.23629516906E+03  0.23629516906E+03  0.00000000000E+00 0. -1.
         -2   -1    0    0    0  501 -0.00000000000E+00 -0.00000000000E+00 -0.88401775856E+01  0.88401775856E+01  0.00000000000E+00 0.  1.
         23    2    1    2    0    0  0.00000000000E+00  0.00000000000E+00  0.22745499147E+03  0.24513534665E+03  0.91408779822E+02 0.  0.
        -13    1    3    3    0    0 -0.11235989089E+02 -0.39685284978E+02  0.60922109066E+02  0.73570868336E+02  0.00000000000E+00 0.  1.
         13    1    3    3    0    0  0.11235989089E+02  0.39685284978E+02  0.16653288241E+03  0.17156447831E+03  0.00000000000E+00 0. -1.
<mgrwt>
<rscale>  0 0.91408780E+02</rscale>
<asrwt>0</asrwt>
<pdfrwt beam="1">  1        2 0.36353098E-01 0.91408780E+02</pdfrwt>
<pdfrwt beam="2">  1       -2 0.13600275E-02 0.91408780E+02</pdfrwt>
<totfact> 0.16328373E+05</totfact>
</mgrwt>
</event>
<event>
 5    1  0.6027538E+000  0.9049942E+02  0.7546771E-02  0.1301647E+00
         -1   -1    0    0    0  501 -0.00000000000E+00  0.00000000000E+00  0.10228289574E+02  0.10228289574E+02  0.00000000000E+00 0.  1.
          1   -1    0    0  501    0  0.00000000000E+00 -0.00000000000E+00 -0.20018365722E+03  0.20018365722E+03  0.00000000000E+00 0. -1.
         23    2    1    2    0    0  0.00000000000E+00  0.00000000000E+00 -0.18995536764E+03  0.21041194679E+03  0.90499423511E+02 0.  0.
        -13    1    3    3    0    0  0.44788089160E+02 -0.62371690592E+01 -0.91184850213E+02  0.10178188501E+03  0.00000000000E+00 0.  1.
         13    1    3    3    0    0 -0.44788089160E+02  0.62371690592E+01 -0.98770517431E+02  0.10863006178E+03  0.00000000000E+00 0. -1.
<mgrwt>
<rscale>  0 0.90499424E+02</rscale>
<asrwt>0</asrwt>
<pdfrwt beam="2">  1        1 0.30797483E-01 0.90499424E+02</pdfrwt>
<pdfrwt beam="1">  1       -1 0.15735831E-02 0.90499424E+02</pdfrwt>
<totfact> 0.12081732E+05</totfact>
</mgrwt>
</event>
<event>
 5    1  0.6027538E+000  0.8421491E+02  0.7546771E-02  0.1317498E+00
          2   -1    0    0  501    0  0.00000000000E+00  0.00000000000E+00  0.15131868732E+03  0.15131868732E+03  0.00000000000E+00 0. -1.
         -2   -1    0    0    0  501 -0.00000000000E+00 -0.00000000000E+00 -0.11717243920E+02  0.11717243920E+02  0.00000000000E+00 0.  1.
         23    2    1    2    0    0  0.00000000000E+00  0.00000000000E+00  0.13960144340E+03  0.16303593124E+03  0.84214914805E+02 0.  0.
        -13    1    3    3    0    0  0.21994077192E+02 -0.89257160626E+01  0.24688615382E+01  0.23864264414E+02  0.00000000000E+00 0.  1.
         13    1    3    3    0    0 -0.21994077192E+02  0.89257160626E+01  0.13713258186E+03  0.13917166682E+03  0.00000000000E+00 0. -1.
<mgrwt>
<rscale>  0 0.84214915E+02</rscale>
<asrwt>0</asrwt>
<pdfrwt beam="1">  1        2 0.23279797E-01 0.84214915E+02</pdfrwt>
<pdfrwt beam="2">  1       -2 0.18026530E-02 0.84214915E+02</pdfrwt>
<totfact> 0.17373707E+05</totfact>
</mgrwt>
</event>
<event>
 5    1  0.6027538E+000  0.9481555E+02  0.7546771E-02  0.1291592E+00
         -2   -1    0    0    0  501 -0.00000000000E+00  0.00000000000E+00  0.87896391964E+02  0.87896391964E+02  0.00000000000E+00 0.  1.
          2   -1    0    0  501    0  0.00000000000E+00 -0.00000000000E+00 -0.25569842765E+02  0.25569842765E+02  0.00000000000E+00 0. -1.
         23    2    1    2    0    0  0.00000000000E+00  0.00000000000E+00  0.62326549199E+02  0.11346623473E+03  0.94815545607E+02 0.  0.
        -13    1    3    3    0    0  0.39218724903E+02 -0.18005071039E+02  0.76759477362E+01  0.43831622601E+02  0.00000000000E+00 0.  1.
         13    1    3    3    0    0 -0.39218724903E+02  0.18005071039E+02  0.54650601462E+02  0.69634612129E+02  0.00000000000E+00 0. -1.
<mgrwt>
<rscale>  0 0.94815546E+02</rscale>
<asrwt>0</asrwt>
<pdfrwt beam="2">  1        2 0.39338220E-02 0.94815546E+02</pdfrwt>
<pdfrwt beam="1">  1       -2 0.13522522E-01 0.94815546E+02</pdfrwt>
<totfact> 0.75224391E+04</totfact>
</mgrwt>
</event>
<event>
 5    1  0.6027538E+000  0.9125064E+02  0.7546771E-02  0.1299851E+00
         -1   -1    0    0    0  501 -0.00000000000E+00  0.00000000000E+00  0.39163054531E+02  0.39163054531E+02  0.00000000000E+00 0.  1.
          1   -1    0    0  501    0  0.00000000000E+00 -0.00000000000E+00 -0.53153918195E+02  0.53153918195E+02  0.00000000000E+00 0. -1.
         23    2    1    2    0    0  0.00000000000E+00  0.00000000000E+00 -0.13990863664E+02  0.92316972726E+02  0.91250639379E+02 0.  0.
        -13    1    3    3    0    0  0.12311275446E+02 -0.68082655186E+01 -0.50904806246E+02  0.52813059762E+02  0.00000000000E+00 0. -1.
         13    1    3    3    0    0 -0.12311275446E+02  0.68082655186E+01  0.36913942582E+02  0.39503912964E+02  0.00000000000E+00 0.  1.
<mgrwt>
<rscale>  0 0.91250639E+02</rscale>
<asrwt>0</asrwt>
<pdfrwt beam="2">  1        1 0.81775259E-02 0.91250639E+02</pdfrwt>
<pdfrwt beam="1">  1       -1 0.60250853E-02 0.91250639E+02</pdfrwt>
<totfact> 0.94415297E+04</totfact>
</mgrwt>
</event>
<event>
 5    1  0.6027538E+000  0.8892984E+02  0.7546771E-02  0.1305464E+00
         -3   -1    0    0    0  501 -0.00000000000E+00  0.00000000000E+00  0.37872574576E+02  0.37872574576E+02  0.00000000000E+00 0.  1.
          3   -1    0    0  501    0  0.00000000000E+00 -0.00000000000E+00 -0.52204776962E+02  0.52204776962E+02  0.00000000000E+00 0. -1.
         23    2    1    2    0    0  0.00000000000E+00  0.00000000000E+00 -0.14332202386E+02  0.90077351538E+02  0.88929844455E+02 0.  0.
        -13    1    3    3    0    0 -0.31175640788E+02 -0.80671610017E+01  0.23891073807E+02  0.40097170385E+02  0.00000000000E+00 0.  1.
         13    1    3    3    0    0  0.31175640788E+02  0.80671610017E+01 -0.38223276193E+02  0.49980181154E+02  0.00000000000E+00 0. -1.
<mgrwt>
<rscale>  0 0.88929844E+02</rscale>
<asrwt>0</asrwt>
<pdfrwt beam="2">  1        3 0.80315041E-02 0.88929844E+02</pdfrwt>
<pdfrwt beam="1">  1       -3 0.58265499E-02 0.88929844E+02</pdfrwt>
<totfact> 0.37908332E+04</totfact>
</mgrwt>
</event>
<event>
 5    1  0.6027538E+000  0.9095599E+02  0.7546771E-02  0.1300553E+00
         -2   -1    0    0    0  501 -0.00000000000E+00  0.00000000000E+00  0.11338904021E+02  0.11338904021E+02  0.00000000000E+00 0.  1.
          2   -1    0    0  501    0  0.00000000000E+00 -0.00000000000E+00 -0.18240280242E+03  0.18240280242E+03  0.00000000000E+00 0. -1.
         23    2    1    2    0    0  0.00000000000E+00  0.00000000000E+00 -0.17106389840E+03  0.19374170644E+03  0.90955986494E+02 0.  0.
        -13    1    3    3    0    0 -0.24076025608E+02  0.20913913520E+02 -0.15459324642E+03  0.15784840394E+03  0.00000000000E+00 0. -1.
         13    1    3    3    0    0  0.24076025608E+02 -0.20913913520E+02 -0.16470651980E+02  0.35893302501E+02  0.00000000000E+00 0.  1.
<mgrwt>
<rscale>  0 0.90955986E+02</rscale>
<asrwt>0</asrwt>
<pdfrwt beam="2">  1        2 0.28061971E-01 0.90955986E+02</pdfrwt>
<pdfrwt beam="1">  1       -2 0.17444467E-02 0.90955986E+02</pdfrwt>
<totfact> 0.15063320E+05</totfact>
</mgrwt>
</event>
<event>
 5    1  0.6027538E+000  0.9412880E+02  0.7546771E-02  0.1293150E+00
          2   -1    0    0  501    0  0.00000000000E+00  0.00000000000E+00  0.22656399684E+03  0.22656399684E+03  0.00000000000E+00 0. -1.
         -2   -1    0    0    0  501 -0.00000000000E+00 -0.00000000000E+00 -0.97767422863E+01  0.97767422863E+01  0.00000000000E+00 0.  1.
         23    2    1    2    0    0  0.00000000000E+00  0.00000000000E+00  0.21678725456E+03  0.23634073913E+03  0.94128801299E+02 0.  0.
        -13    1    3    3    0    0 -0.35703624619E+02 -0.29514843321E+02  0.87509524427E+02  0.99014098252E+02  0.00000000000E+00 0.  1.
         13    1    3    3    0    0  0.35703624619E+02  0.29514843321E+02  0.12927773013E+03  0.13732664088E+03  0.00000000000E+00 0. -1.
<mgrwt>
<rscale>  0 0.94128801E+02</rscale>
<asrwt>0</asrwt>
<pdfrwt beam="1">  1        2 0.34855996E-01 0.94128801E+02</pdfrwt>
<pdfrwt beam="2">  1       -2 0.15041144E-02 0.94128801E+02</pdfrwt>
<totfact> 0.14857436E+05</totfact>
</mgrwt>
</event>
<event>
 5    1  0.6027538E+000  0.9450545E+02  0.7546771E-02  0.1292294E+00
          2   -1    0    0  501    0  0.00000000000E+00  0.00000000000E+00  0.14094273640E+02  0.14094273640E+02  0.00000000000E+00 0. -1.
         -2   -1    0    0    0  501 -0.00000000000E+00 -0.00000000000E+00 -0.15842037082E+03  0.15842037082E+03  0.00000000000E+00 0.  1.
         23    2    1    2    0    0  0.00000000000E+00  0.00000000000E+00 -0.14432609718E+03  0.17251464446E+03  0.94505450774E+02 0.  0.
        -13    1    3    3    0    0  0.17746466691E+02 -0.34465929383E+02 -0.22842784895E+02  0.44995890812E+02  0.00000000000E+00 0. -1.
         13    1    3    3    0    0 -0.17746466691E+02  0.34465929383E+02 -0.12148331228E+03  0.12751875365E+03  0.00000000000E+00 0.  1.
<mgrwt>
<rscale>  0 0.94505451E+02</rscale>
<asrwt>0</asrwt>
<pdfrwt beam="1">  1        2 0.21683497E-02 0.94505451E+02</pdfrwt>
<pdfrwt beam="2">  1       -2 0.24372366E-01 0.94505451E+02</pdfrwt>
<totfact> 0.62502719E+04</totfact>
</mgrwt>
</event>
<event>
 5    1  0.6027538E+000  0.9118397E+02  0.7546771E-02  0.1300010E+00
         -1   -1    0    0    0  501 -0.00000000000E+00  0.00000000000E+00  0.33342455318E+02  0.33342455318E+02  0.00000000000E+00 0.  1.
          1   -1    0    0  501    0  0.00000000000E+00 -0.00000000000E+00 -0.62341814010E+02  0.62341814010E+02  0.00000000000E+00 0. -1.
         23    2    1    2    0    0  0.00000000000E+00  0.00000000000E+00 -0.28999358692E+02  0.95684269328E+02  0.91183971137E+02 0.  0.
        -13    1    3    3    0    0  0.15144287307E+02  0.22783940202E+01 -0.59561936107E+02  0.61499306909E+02  0.00000000000E+00 0. -1.
         13    1    3    3    0    0 -0.15144287307E+02 -0.22783940202E+01  0.30562577415E+02  0.34184962419E+02  0.00000000000E+00 0.  1.
<mgrwt>
<rscale>  0 0.91183971E+02</rscale>
<asrwt>0</asrwt>
<pdfrwt beam="2">  1        1 0.95910482E-02 0.91183971E+02</pdfrwt>
<pdfrwt beam="1">  1       -1 0.51296086E-02 0.91183971E+02</pdfrwt>
<totfact> 0.96911399E+04</totfact>
</mgrwt>
</event>
<event>
 5    1  0.6027538E+000  0.9046939E+02  0.7546771E-02  0.1301719E+00
          1   -1    0    0  501    0  0.00000000000E+00  0.00000000000E+00  0.29085799104E+02  0.29085799104E+02  0.00000000000E+00 0. -1.
         -1   -1    0    0    0  501 -0.00000000000E+00 -0.00000000000E+00 -0.70349709897E+02  0.70349709897E+02  0.00000000000E+00 0.  1.
         23    2    1    2    0    0  0.00000000000E+00  0.00000000000E+00 -0.41263910793E+02  0.99435509001E+02  0.90469387731E+02 0.  0.
        -13    1    3    3    0    0 -0.25235025200E+02 -0.87261376641E+01 -0.60764034961E+02  0.66371830773E+02  0.00000000000E+00 0.  1.
         13    1    3    3    0    0  0.25235025200E+02  0.87261376641E+01  0.19500124169E+02  0.33063678228E+02  0.00000000000E+00 0. -1.
<mgrwt>
<rscale>  0 0.90469388E+02</rscale>
<asrwt>0</asrwt>
<pdfrwt beam="1">  1        1 0.44747383E-02 0.90469388E+02</pdfrwt>
<pdfrwt beam="2">  1       -1 0.10823032E-01 0.90469388E+02</pdfrwt>
<totfact> 0.88202796E+04</totfact>
</mgrwt>
</event>
<event>
 5    1  0.6027538E+000  0.9020742E+02  0.7546771E-02  0.1302350E+00
          1   -1    0    0  501    0  0.00000000000E+00  0.00000000000E+00  0.10483166471E+03  0.10483166471E+03  0.00000000000E+00 0.  1.
         -1   -1    0    0    0  501 -0.00000000000E+00 -0.00000000000E+00 -0.19405822452E+02  0.19405822452E+02  0.00000000000E+00 0. -1.
         23    2    1    2    0    0  0.00000000000E+00  0.00000000000E+00  0.85425842255E+02  0.12423748716E+03  0.90207420373E+02 0.  0.
        -13    1    3    3    0    0  0.22483742994E+02  0.30431706204E+01 -0.10974191594E+02  0.25203421743E+02  0.00000000000E+00 0. -1.
         13    1    3    3    0    0 -0.22483742994E+02 -0.30431706204E+01  0.96400033850E+02  0.99034065415E+02  0.00000000000E+00 0.  1.
<mgrwt>
<rscale>  0 0.90207420E+02</rscale>
<asrwt>0</asrwt>
<pdfrwt beam="1">  1        1 0.16127948E-01 0.90207420E+02</pdfrwt>
<pdfrwt beam="2">  1       -1 0.29855112E-02 0.90207420E+02</pdfrwt>
<totfact> 0.10838357E+05</totfact>
</mgrwt>
</event>
<event>
 5    1  0.6027538E+000  0.8767474E+02  0.7546771E-02  0.1308582E+00
          2   -1    0    0  501    0  0.00000000000E+00  0.00000000000E+00  0.14734276463E+03  0.14734276463E+03  0.00000000000E+00 0. -1.
         -2   -1    0    0    0  501 -0.00000000000E+00 -0.00000000000E+00 -0.13042478897E+02  0.13042478897E+02  0.00000000000E+00 0.  1.
         23    2    1    2    0    0  0.00000000000E+00  0.00000000000E+00  0.13430028573E+03  0.16038524353E+03  0.87674737486E+02 0.  0.
        -13    1    3    3    0    0 -0.36652883422E+01  0.30026405258E+02  0.91085921025E+01  0.31590913274E+02  0.00000000000E+00 0.  1.
         13    1    3    3    0    0  0.36652883422E+01 -0.30026405258E+02  0.12519169363E+03  0.12879433025E+03  0.00000000000E+00 0. -1.
<mgrwt>
<rscale>  0 0.87674737E+02</rscale>
<asrwt>0</asrwt>
<pdfrwt beam="1">  1        2 0.22668116E-01 0.87674737E+02</pdfrwt>
<pdfrwt beam="2">  1       -2 0.20065353E-02 0.87674737E+02</pdfrwt>
<totfact> 0.15450606E+05</totfact>
</mgrwt>
</event>
<event>
 5    1  0.6027538E+000  0.8957740E+02  0.7546771E-02  0.1303878E+00
          1   -1    0    0  501    0  0.00000000000E+00  0.00000000000E+00  0.12555495960E+03  0.12555495960E+03  0.00000000000E+00 0. -1.
         -1   -1    0    0    0  501 -0.00000000000E+00 -0.00000000000E+00 -0.15977288564E+02  0.15977288564E+02  0.00000000000E+00 0.  1.
         23    2    1    2    0    0  0.00000000000E+00  0.00000000000E+00  0.10957767103E+03  0.14153224816E+03  0.89577403851E+02 0.  0.
        -13    1    3    3    0    0 -0.32739607043E+01  0.39104861307E+02  0.88900684049E+02  0.97176337762E+02  0.00000000000E+00 0. -1.
         13    1    3    3    0    0  0.32739607043E+01 -0.39104861307E+02  0.20676986982E+02  0.44355910398E+02  0.00000000000E+00 0.  1.
<mgrwt>
<rscale>  0 0.89577404E+02</rscale>
<asrwt>0</asrwt>
<pdfrwt beam="1">  1        1 0.19316147E-01 0.89577404E+02</pdfrwt>
<pdfrwt beam="2">  1       -1 0.24580445E-02 0.89577404E+02</pdfrwt>
<totfact> 0.11391946E+05</totfact>
</mgrwt>
</event>
<event>
 5    1  0.6027538E+000  0.9776190E+02  0.7546771E-02  0.1285074E+00
         -2   -1    0    0    0  501 -0.00000000000E+00  0.00000000000E+00  0.67693665119E+02  0.67693665119E+02  0.00000000000E+00 0.  1.
          2   -1    0    0  501    0  0.00000000000E+00 -0.00000000000E+00 -0.35296468293E+02  0.35296468293E+02  0.00000000000E+00 0. -1.
         23    2    1    2    0    0  0.00000000000E+00  0.00000000000E+00  0.32397196827E+02  0.10299013341E+03  0.97761900646E+02 0.  0.
        -13    1    3    3    0    0 -0.24994931715E+02 -0.17447703455E+02  0.56454442270E+02  0.64158187470E+02  0.00000000000E+00 0.  1.
         13    1    3    3    0    0  0.24994931715E+02  0.17447703455E+02 -0.24057245444E+02  0.38831945942E+02  0.00000000000E+00 0. -1.
<mgrwt>
<rscale>  0 0.97761901E+02</rscale>
<asrwt>0</asrwt>
<pdfrwt beam="2">  1        2 0.54302259E-02 0.97761901E+02</pdfrwt>
<pdfrwt beam="1">  1       -2 0.10414410E-01 0.97761901E+02</pdfrwt>
<totfact> 0.75158281E+04</totfact>
</mgrwt>
</event>
<event>
 5    1  0.6027538E+000  0.9054912E+02  0.7546771E-02  0.1301527E+00
         -1   -1    0    0    0  501 -0.00000000000E+00  0.00000000000E+00  0.72336409624E+01  0.72336409624E+01  0.00000000000E+00 0.  1.
          1   -1    0    0  501    0  0.00000000000E+00 -0.00000000000E+00 -0.28336848303E+03  0.28336848303E+03  0.00000000000E+00 0. -1.
         23    2    1    2    0    0  0.00000000000E+00  0.00000000000E+00 -0.27613484207E+03  0.29060212399E+03  0.90549121836E+02 0.  0.
        -13    1    3    3    0    0  0.39047188905E+02  0.20284387835E+02 -0.10385430716E+03  0.11279120740E+03  0.00000000000E+00 0.  1.
         13    1    3    3    0    0 -0.39047188905E+02 -0.20284387835E+02 -0.17228053491E+03  0.17781091659E+03  0.00000000000E+00 0. -1.
<mgrwt>
<rscale>  0 0.90549122E+02</rscale>
<asrwt>0</asrwt>
<pdfrwt beam="2">  1        1 0.43595156E-01 0.90549122E+02</pdfrwt>
<pdfrwt beam="1">  1       -1 0.11128677E-02 0.90549122E+02</pdfrwt>
<totfact> 0.12908059E+05</totfact>
</mgrwt>
</event>
<event>
 5    1  0.6027538E+000  0.9023291E+02  0.7546771E-02  0.1302289E+00
          1   -1    0    0  501    0  0.00000000000E+00  0.00000000000E+00  0.26154775865E+02  0.26154775865E+02  0.00000000000E+00 0. -1.
         -1   -1    0    0    0  501 -0.00000000000E+00 -0.00000000000E+00 -0.77824969595E+02  0.77824969595E+02  0.00000000000E+00 0.  1.
         23    2    1    2    0    0  0.00000000000E+00  0.00000000000E+00 -0.51670193731E+02  0.10397974546E+03  0.90232912763E+02 0.  0.
        -13    1    3    3    0    0 -0.36732680934E+02  0.23592941890E+02 -0.38952540588E+02  0.58508265859E+02  0.00000000000E+00 0. -1.
         13    1    3    3    0    0  0.36732680934E+02 -0.23592941890E+02 -0.12717653142E+02  0.45471479600E+02  0.00000000000E+00 0.  1.
<mgrwt>
<rscale>  0 0.90232913E+02</rscale>
<asrwt>0</asrwt>
<pdfrwt beam="1">  1        1 0.40238117E-02 0.90232913E+02</pdfrwt>
<pdfrwt beam="2">  1       -1 0.11973072E-01 0.90232913E+02</pdfrwt>
<totfact> 0.87336143E+04</totfact>
</mgrwt>
</event>
<event>
 5    1  0.6027538E+000  0.9164781E+02  0.7546771E-02  0.1298910E+00
         -3   -1    0    0    0  501 -0.00000000000E+00  0.00000000000E+00  0.21016332402E+02  0.21016332402E+02  0.00000000000E+00 0.  1.
          3   -1    0    0  501    0  0.00000000000E+00 -0.00000000000E+00 -0.99914201468E+02  0.99914201468E+02  0.00000000000E+00 0. -1.
         23    2    1    2    0    0  0.00000000000E+00  0.00000000000E+00 -0.78897869066E+02  0.12093053387E+03  0.91647805641E+02 0.  0.
        -13    1    3    3    0    0  0.70779606733E+01  0.39448578199E+02 -0.68763000076E+02  0.79590439304E+02  0.00000000000E+00 0. -1.
         13    1    3    3    0    0 -0.70779606733E+01 -0.39448578199E+02 -0.10134868991E+02  0.41340094566E+02  0.00000000000E+00 0.  1.
<mgrwt>
<rscale>  0 0.91647806E+02</rscale>
<asrwt>0</asrwt>
<pdfrwt beam="2">  1        3 0.15371416E-01 0.91647806E+02</pdfrwt>
<pdfrwt beam="1">  1       -3 0.32332819E-02 0.91647806E+02</pdfrwt>
<totfact> 0.32720826E+04</totfact>
</mgrwt>
</event>
<event>
 5    1  0.6027538E+000  0.9208390E+02  0.7546771E-02  0.1297882E+00
         -1   -1    0    0    0  501 -0.00000000000E+00  0.00000000000E+00  0.97772422520E+01  0.97772422520E+01  0.00000000000E+00 0.  1.
          1   -1    0    0  501    0  0.00000000000E+00 -0.00000000000E+00 -0.21681586555E+03  0.21681586555E+03  0.00000000000E+00 0. -1.
         23    2    1    2    0    0  0.00000000000E+00  0.00000000000E+00 -0.20703862330E+03  0.22659310780E+03  0.92083901775E+02 0.  0.
        -13    1    3    3    0    0  0.40382027907E+02  0.19943700332E+02 -0.79993720294E+02  0.91801169096E+02  0.00000000000E+00 0. -1.
         13    1    3    3    0    0 -0.40382027907E+02 -0.19943700332E+02 -0.12704490300E+03  0.13479193870E+03  0.00000000000E+00 0.  1.
<mgrwt>
<rscale>  0 0.92083902E+02</rscale>
<asrwt>0</asrwt>
<pdfrwt beam="2">  1        1 0.33356286E-01 0.92083902E+02</pdfrwt>
<pdfrwt beam="1">  1       -1 0.15041912E-02 0.92083902E+02</pdfrwt>
<totfact> 0.11712984E+05</totfact>
</mgrwt>
</event>
<event>
 5    1  0.6027538E+000  0.9766416E+02  0.7546771E-02  0.1285286E+00
         -2   -1    0    0    0  501 -0.00000000000E+00  0.00000000000E+00  0.13904833877E+02  0.13904833877E+02  0.00000000000E+00 0.  1.
          2   -1    0    0  501    0  0.00000000000E+00 -0.00000000000E+00 -0.17149229504E+03  0.17149229504E+03  0.00000000000E+00 0. -1.
         23    2    1    2    0    0  0.00000000000E+00  0.00000000000E+00 -0.15758746116E+03  0.18539712892E+03  0.97664156654E+02 0.  0.
        -13    1    3    3    0    0 -0.20609614563E+02  0.39143214246E+02 -0.39538362019E+02  0.59331522019E+02  0.00000000000E+00 0.  1.
         13    1    3    3    0    0  0.20609614563E+02 -0.39143214246E+02 -0.11804909915E+03  0.12606560690E+03  0.00000000000E+00 0. -1.
<mgrwt>
<rscale>  0 0.97664157E+02</rscale>
<asrwt>0</asrwt>
<pdfrwt beam="2">  1        2 0.26383429E-01 0.97664157E+02</pdfrwt>
<pdfrwt beam="1">  1       -2 0.21392053E-02 0.97664157E+02</pdfrwt>
<totfact> 0.12148302E+05</totfact>
</mgrwt>
</event>
<event>
 5    1  0.6027538E+000  0.8978982E+02  0.7546771E-02  0.1303361E+00
          2   -1    0    0  501    0  0.00000000000E+00  0.00000000000E+00  0.40601670417E+03  0.40601670417E+03  0.00000000000E+00 0. -1.
         -2   -1    0    0    0  501 -0.00000000000E+00 -0.00000000000E+00 -0.49642118599E+01  0.49642118599E+01  0.00000000000E+00 0.  1.
         23    2    1    2    0    0  0.00000000000E+00  0.00000000000E+00  0.40105249231E+03  0.41098091603E+03  0.89789819871E+02 0.  0.
        -13    1    3    3    0    0  0.19013719376E+02 -0.38943109233E+02  0.25419131136E+03  0.25785908953E+03  0.00000000000E+00 0. -1.
         13    1    3    3    0    0 -0.19013719376E+02  0.38943109233E+02  0.14686118095E+03  0.15312182650E+03  0.00000000000E+00 0.  1.
<mgrwt>
<rscale>  0 0.89789820E+02</rscale>
<asrwt>0</asrwt>
<pdfrwt beam="1">  1        2 0.62464082E-01 0.89789820E+02</pdfrwt>
<pdfrwt beam="2">  1       -2 0.76372522E-03 0.89789820E+02</pdfrwt>
<totfact> 0.20901446E+05</totfact>
</mgrwt>
</event>
<event>
 5    1  0.6027538E+000  0.9074517E+02  0.7546771E-02  0.1301057E+00
         -2   -1    0    0    0  501 -0.00000000000E+00  0.00000000000E+00  0.19849415607E+03  0.19849415607E+03  0.00000000000E+00 0.  1.
          2   -1    0    0  501    0  0.00000000000E+00 -0.00000000000E+00 -0.10371446274E+02  0.10371446274E+02  0.00000000000E+00 0. -1.
         23    2    1    2    0    0  0.00000000000E+00  0.00000000000E+00  0.18812270980E+03  0.20886560234E+03  0.90745170129E+02 0.  0.
        -13    1    3    3    0    0  0.13737490120E+02 -0.42747025092E+02  0.10909193928E+03  0.11797066586E+03  0.00000000000E+00 0.  1.
         13    1    3    3    0    0 -0.13737490120E+02  0.42747025092E+02  0.79030770519E+02  0.90894936481E+02  0.00000000000E+00 0. -1.
<mgrwt>
<rscale>  0 0.90745170E+02</rscale>
<asrwt>0</asrwt>
<pdfrwt beam="2">  1        2 0.15956073E-02 0.90745170E+02</pdfrwt>
<pdfrwt beam="1">  1       -2 0.30537560E-01 0.90745170E+02</pdfrwt>
<totfact> 0.63284876E+04</totfact>
</mgrwt>
</event>
<event>
 5    1  0.6027538E+000  0.9062765E+02  0.7546771E-02  0.1301339E+00
         -1   -1    0    0    0  501 -0.00000000000E+00  0.00000000000E+00  0.76721539684E+01  0.76721539684E+01  0.00000000000E+00 0.  1.
          1   -1    0    0  501    0  0.00000000000E+00 -0.00000000000E+00 -0.26763575248E+03  0.26763575248E+03  0.00000000000E+00 0. -1.
         23    2    1    2    0    0  0.00000000000E+00  0.00000000000E+00 -0.25996359852E+03  0.27530790645E+03  0.90627649214E+02 0.  0.
        -13    1    3    3    0    0 -0.12255520469E+02 -0.38660965824E+02 -0.68585736930E+02  0.79679805287E+02  0.00000000000E+00 0.  1.
         13    1    3    3    0    0  0.12255520469E+02  0.38660965824E+02 -0.19137786159E+03  0.19562810117E+03  0.00000000000E+00 0. -1.
<mgrwt>
<rscale>  0 0.90627649E+02</rscale>
<asrwt>0</asrwt>
<pdfrwt beam="2">  1        1 0.41174728E-01 0.90627649E+02</pdfrwt>
<pdfrwt beam="1">  1       -1 0.11803315E-02 0.90627649E+02</pdfrwt>
<totfact> 0.12736286E+05</totfact>
</mgrwt>
</event>
<event>
 5    1  0.6027538E+000  0.9070181E+02  0.7546771E-02  0.1301161E+00
         -3   -1    0    0    0  501 -0.00000000000E+00  0.00000000000E+00  0.24707515604E+02  0.24707515604E+02  0.00000000000E+00 0.  1.
          3   -1    0    0  501    0  0.00000000000E+00 -0.00000000000E+00 -0.83242070341E+02  0.83242070341E+02  0.00000000000E+00 0. -1.
         23    2    1    2    0    0  0.00000000000E+00  0.00000000000E+00 -0.58534554737E+02  0.10794958594E+03  0.90701813693E+02 0.  0.
        -13    1    3    3    0    0  0.28339358081E+02  0.22519584303E+02 -0.61783979527E+02  0.71606640892E+02  0.00000000000E+00 0. -1.
         13    1    3    3    0    0 -0.28339358081E+02 -0.22519584303E+02  0.32494247894E+01  0.36342945053E+02  0.00000000000E+00 0.  1.
<mgrwt>
<rscale>  0 0.90701814E+02</rscale>
<asrwt>0</asrwt>
<pdfrwt beam="2">  1        3 0.12806472E-01 0.90701814E+02</pdfrwt>
<pdfrwt beam="1">  1       -3 0.38011563E-02 0.90701814E+02</pdfrwt>
<totfact> 0.34578630E+04</totfact>
</mgrwt>
</event>
<event>
 5    1  0.6027538E+000  0.8930879E+02  0.7546771E-02  0.1304534E+00
          1   -1    0    0  501    0  0.00000000000E+00  0.00000000000E+00  0.34420789080E+03  0.34420789080E+03  0.00000000000E+00 0. -1.
         -1   -1    0    0    0  501 -0.00000000000E+00 -0.00000000000E+00 -0.57930536648E+01  0.57930536648E+01  0.00000000000E+00 0.  1.
         23    2    1    2    0    0  0.00000000000E+00  0.00000000000E+00  0.33841483713E+03  0.35000094446E+03  0.89308785306E+02 0.  0.
        -13    1    3    3    0    0  0.40602482041E+02 -0.18008591592E+02  0.15118690290E+03  0.15757649103E+03  0.00000000000E+00 0. -1.
         13    1    3    3    0    0 -0.40602482041E+02  0.18008591592E+02  0.18722793424E+03  0.19242445343E+03  0.00000000000E+00 0.  1.
<mgrwt>
<rscale>  0 0.89308785E+02</rscale>
<asrwt>0</asrwt>
<pdfrwt beam="1">  1        1 0.52955044E-01 0.89308785E+02</pdfrwt>
<pdfrwt beam="2">  1       -1 0.89123930E-03 0.89308785E+02</pdfrwt>
<totfact> 0.13886647E+05</totfact>
</mgrwt>
</event>
<event>
 5    1  0.6027538E+000  0.8456855E+02  0.7546771E-02  0.1316565E+00
          2   -1    0    0  501    0  0.00000000000E+00  0.00000000000E+00  0.70144222181E+02  0.70144222181E+02  0.00000000000E+00 0. -1.
         -2   -1    0    0    0  501 -0.00000000000E+00 -0.00000000000E+00 -0.25489770170E+02  0.25489770170E+02  0.00000000000E+00 0.  1.
         23    2    1    2    0    0  0.00000000000E+00  0.00000000000E+00  0.44654452011E+02  0.95633992351E+02  0.84568554491E+02 0.  0.
        -13    1    3    3    0    0  0.19030100531E+02 -0.37288038460E+02  0.29057189697E+02  0.50959423186E+02  0.00000000000E+00 0. -1.
         13    1    3    3    0    0 -0.19030100531E+02  0.37288038460E+02  0.15597262314E+02  0.44674569165E+02  0.00000000000E+00 0.  1.
<mgrwt>
<rscale>  0 0.84568554E+02</rscale>
<asrwt>0</asrwt>
<pdfrwt beam="1">  1        2 0.10791419E-01 0.84568554E+02</pdfrwt>
<pdfrwt beam="2">  1       -2 0.39215031E-02 0.84568554E+02</pdfrwt>
<totfact> 0.13640817E+05</totfact>
</mgrwt>
</event>
<event>
 5    1  0.6027538E+000  0.9493731E+02  0.7546771E-02  0.1291317E+00
          3   -1    0    0  501    0  0.00000000000E+00  0.00000000000E+00  0.51062023127E+02  0.51062023127E+02  0.00000000000E+00 0. -1.
         -3   -1    0    0    0  501 -0.00000000000E+00 -0.00000000000E+00 -0.44128165150E+02  0.44128165150E+02  0.00000000000E+00 0.  1.
         23    2    1    2    0    0  0.00000000000E+00  0.00000000000E+00  0.69338579773E+01  0.95190188278E+02  0.94937313833E+02 0.  0.
        -13    1    3    3    0    0 -0.12179584199E+02 -0.45785428249E+02  0.52215564417E+00  0.47380590517E+02  0.00000000000E+00 0.  1.
         13    1    3    3    0    0  0.12179584199E+02  0.45785428249E+02  0.64117023331E+01  0.47809597761E+02  0.00000000000E+00 0. -1.
<mgrwt>
<rscale>  0 0.94937314E+02</rscale>
<asrwt>0</asrwt>
<pdfrwt beam="1">  1        3 0.78556959E-02 0.94937314E+02</pdfrwt>
<pdfrwt beam="2">  1       -3 0.67889484E-02 0.94937314E+02</pdfrwt>
<totfact> 0.31367460E+04</totfact>
</mgrwt>
</event>
<event>
 5    1  0.6027538E+000  0.8945076E+02  0.7546771E-02  0.1304187E+00
          2   -1    0    0  501    0  0.00000000000E+00  0.00000000000E+00  0.53868846512E+03  0.53868846512E+03  0.00000000000E+00 0. -1.
         -2   -1    0    0    0  501 -0.00000000000E+00 -0.00000000000E+00 -0.37133888059E+01  0.37133888059E+01  0.00000000000E+00 0.  1.
         23    2    1    2    0    0  0.00000000000E+00  0.00000000000E+00  0.53497507631E+03  0.54240185392E+03  0.89450762238E+02 0.  0.
        -13    1    3    3    0    0  0.39712627041E+01  0.44548618042E+02  0.26689903737E+03  0.27062048416E+03  0.00000000000E+00 0. -1.
         13    1    3    3    0    0 -0.39712627041E+01 -0.44548618042E+02  0.26807603894E+03  0.27178136976E+03  0.00000000000E+00 0.  1.
<mgrwt>
<rscale>  0 0.89450762E+02</rscale>
<asrwt>0</asrwt>
<pdfrwt beam="1">  1        2 0.82875087E-01 0.89450762E+02</pdfrwt>
<pdfrwt beam="2">  1       -2 0.57129101E-03 0.89450762E+02</pdfrwt>
<totfact> 0.23208012E+05</totfact>
</mgrwt>
</event>
<event>
 5    1  0.6027538E+000  0.9198662E+02  0.7546771E-02  0.1298111E+00
         -1   -1    0    0    0  501 -0.00000000000E+00  0.00000000000E+00  0.20543745553E+03  0.20543745553E+03  0.00000000000E+00 0.  1.
          1   -1    0    0  501    0  0.00000000000E+00 -0.00000000000E+00 -0.10296976063E+02  0.10296976063E+02  0.00000000000E+00 0. -1.
         23    2    1    2    0    0  0.00000000000E+00  0.00000000000E+00  0.19514047947E+03  0.21573443159E+03  0.91986619940E+02 0.  0.
        -13    1    3    3    0    0 -0.41230517315E+02 -0.13978873440E+02  0.13235796119E+03  0.13933411050E+03  0.00000000000E+00 0.  1.
         13    1    3    3    0    0  0.41230517315E+02  0.13978873440E+02  0.62782518280E+02  0.76400321087E+02  0.00000000000E+00 0. -1.
<mgrwt>
<rscale>  0 0.91986620E+02</rscale>
<asrwt>0</asrwt>
<pdfrwt beam="2">  1        1 0.15841503E-02 0.91986620E+02</pdfrwt>
<pdfrwt beam="1">  1       -1 0.31605759E-01 0.91986620E+02</pdfrwt>
<totfact> 0.67317598E+04</totfact>
</mgrwt>
</event>
<event>
 5    1  0.6027538E+000  0.9339349E+02  0.7546771E-02  0.1294836E+00
          2   -1    0    0  501    0  0.00000000000E+00  0.00000000000E+00  0.95129461962E+02  0.95129461962E+02  0.00000000000E+00 0. -1.
         -2   -1    0    0    0  501 -0.00000000000E+00 -0.00000000000E+00 -0.22922297732E+02  0.22922297732E+02  0.00000000000E+00 0.  1.
         23    2    1    2    0    0  0.00000000000E+00  0.00000000000E+00  0.72207164230E+02  0.11805175969E+03  0.93393486929E+02 0.  0.
        -13    1    3    3    0    0 -0.21699361904E+00 -0.17017280330E+02  0.91069818933E+02  0.92646353606E+02  0.00000000000E+00 0. -1.
         13    1    3    3    0    0  0.21699361904E+00  0.17017280330E+02 -0.18862654703E+02  0.25405406088E+02  0.00000000000E+00 0.  1.
<mgrwt>
<rscale>  0 0.93393487E+02</rscale>
<asrwt>0</asrwt>
<pdfrwt beam="1">  1        2 0.14635302E-01 0.93393487E+02</pdfrwt>
<pdfrwt beam="2">  1       -2 0.35265074E-02 0.93393487E+02</pdfrwt>
<totfact> 0.11307033E+05</totfact>
</mgrwt>
</event>
<event>
 5    1  0.6027538E+000  0.8983591E+02  0.7546771E-02  0.1303250E+00
         -2   -1    0    0    0  501 -0.00000000000E+00  0.00000000000E+00  0.51836653189E+02  0.51836653189E+02  0.00000000000E+00 0.  1.
          2   -1    0    0  501    0  0.00000000000E+00 -0.00000000000E+00 -0.38922705615E+02  0.38922705615E+02  0.00000000000E+00 0. -1.
         23    2    1    2    0    0  0.00000000000E+00  0.00000000000E+00  0.12913947575E+02  0.90759358804E+02  0.89835912465E+02 0.  0.
        -13    1    3    3    0    0 -0.44284440917E+01  0.25448003895E+02 -0.30668703275E+02  0.40097149274E+02  0.00000000000E+00 0.  1.
         13    1    3    3    0    0  0.44284440917E+01 -0.25448003895E+02  0.43582650850E+02  0.50662209530E+02  0.00000000000E+00 0. -1.
<mgrwt>
<rscale>  0 0.89835912E+02</rscale>
<asrwt>0</asrwt>
<pdfrwt beam="2">  1        2 0.59881086E-02 0.89835912E+02</pdfrwt>
<pdfrwt beam="1">  1       -2 0.79748697E-02 0.89835912E+02</pdfrwt>
<totfact> 0.98868617E+04</totfact>
</mgrwt>
</event>
<event>
 5    1  0.6027538E+000  0.8065185E+02  0.7546771E-02  0.1327212E+00
         -4   -1    0    0    0  501 -0.00000000000E+00  0.00000000000E+00  0.99392610433E+02  0.99392610433E+02  0.00000000000E+00 0.  1.
          4   -1    0    0  501    0  0.00000000000E+00 -0.00000000000E+00 -0.16361176603E+02  0.16361176603E+02  0.00000000000E+00 0. -1.
         23    2    1    2    0    0  0.00000000000E+00  0.00000000000E+00  0.83031433830E+02  0.11575378704E+03  0.80651845667E+02 0.  0.
        -13    1    3    3    0    0 -0.24524414524E+02  0.26667143386E+02  0.66931680318E+02  0.76108036857E+02  0.00000000000E+00 0.  1.
         13    1    3    3    0    0  0.24524414524E+02 -0.26667143386E+02  0.16099753512E+02  0.39645750179E+02  0.00000000000E+00 0. -1.
<mgrwt>
<rscale>  0 0.80651846E+02</rscale>
<asrwt>0</asrwt>
<pdfrwt beam="2">  1        4 0.25171042E-02 0.80651846E+02</pdfrwt>
<pdfrwt beam="1">  1       -4 0.15291170E-01 0.80651846E+02</pdfrwt>
<totfact> 0.35432020E+04</totfact>
</mgrwt>
</event>
<event>
 5    1  0.6027538E+000  0.9515987E+02  0.7546771E-02  0.1290816E+00
          2   -1    0    0  501    0  0.00000000000E+00  0.00000000000E+00  0.26120081527E+03  0.26120081527E+03  0.00000000000E+00 0. -1.
         -2   -1    0    0    0  501 -0.00000000000E+00 -0.00000000000E+00 -0.86670867326E+01  0.86670867326E+01  0.00000000000E+00 0.  1.
         23    2    1    2    0    0  0.00000000000E+00  0.00000000000E+00  0.25253372853E+03  0.26986790200E+03  0.95159868023E+02 0.  0.
        -13    1    3    3    0    0 -0.41773108318E+02  0.18821371124E+02  0.89881211798E+02  0.10088542424E+03  0.00000000000E+00 0.  1.
         13    1    3    3    0    0  0.41773108318E+02 -0.18821371124E+02  0.16265251674E+03  0.16898247776E+03  0.00000000000E+00 0. -1.
<mgrwt>
<rscale>  0 0.95159868E+02</rscale>
<asrwt>0</asrwt>
<pdfrwt beam="1">  1        2 0.40184735E-01 0.95159868E+02</pdfrwt>
<pdfrwt beam="2">  1       -2 0.13333982E-02 0.95159868E+02</pdfrwt>
<totfact> 0.15211856E+05</totfact>
</mgrwt>
</event>
<event>
 5    1  0.6027538E+000  0.9388926E+02  0.7546771E-02  0.1293698E+00
          1   -1    0    0  501    0  0.00000000000E+00  0.00000000000E+00  0.24847280117E+03  0.24847280117E+03  0.00000000000E+00 0. -1.
         -1   -1    0    0    0  501 -0.00000000000E+00 -0.00000000000E+00 -0.88693744761E+01  0.88693744761E+01  0.00000000000E+00 0.  1.
         23    2    1    2    0    0  0.00000000000E+00  0.00000000000E+00  0.23960342669E+03  0.25734217564E+03  0.93889260742E+02 0.  0.
        -13    1    3    3    0    0 -0.44167400566E+02 -0.70366020888E+01  0.80699240055E+02  0.92263971230E+02  0.00000000000E+00 0.  1.
         13    1    3    3    0    0  0.44167400566E+02  0.70366020888E+01  0.15890418664E+03  0.16507820441E+03  0.00000000000E+00 0. -1.
<mgrwt>
<rscale>  0 0.93889261E+02</rscale>
<asrwt>0</asrwt>
<pdfrwt beam="1">  1        1 0.38226579E-01 0.93889261E+02</pdfrwt>
<pdfrwt beam="2">  1       -1 0.13645193E-02 0.93889261E+02</pdfrwt>
<totfact> 0.11419730E+05</totfact>
</mgrwt>
</event>
<event>
 5    1  0.6027538E+000  0.9639755E+02  0.7546771E-02  0.1288059E+00
         -1   -1    0    0    0  501 -0.00000000000E+00  0.00000000000E+00  0.75302668276E+02  0.75302668276E+02  0.00000000000E+00 0.  1.
          1   -1    0    0  501    0  0.00000000000E+00 -0.00000000000E+00 -0.30850458255E+02  0.30850458255E+02  0.00000000000E+00 0. -1.
         23    2    1    2    0    0  0.00000000000E+00  0.00000000000E+00  0.44452210020E+02  0.10615312653E+03  0.96397548188E+02 0.  0.
        -13    1    3    3    0    0  0.41426929286E+02  0.22808871194E+02  0.32478920925E+02  0.57369986749E+02  0.00000000000E+00 0.  1.
         13    1    3    3    0    0 -0.41426929286E+02 -0.22808871194E+02  0.11973289095E+02  0.48783139782E+02  0.00000000000E+00 0. -1.
<mgrwt>
<rscale>  0 0.96397548E+02</rscale>
<asrwt>0</asrwt>
<pdfrwt beam="2">  1        1 0.47462244E-02 0.96397548E+02</pdfrwt>
<pdfrwt beam="1">  1       -1 0.11585026E-01 0.96397548E+02</pdfrwt>
<totfact> 0.74157452E+04</totfact>
</mgrwt>
</event>
<event>
 5    1  0.6027538E+000  0.9030565E+02  0.7546771E-02  0.1302113E+00
          1   -1    0    0  501    0  0.00000000000E+00  0.00000000000E+00  0.11004512389E+03  0.11004512389E+03  0.00000000000E+00 0. -1.
         -1   -1    0    0    0  501 -0.00000000000E+00 -0.00000000000E+00 -0.18526742618E+02  0.18526742618E+02  0.00000000000E+00 0.  1.
         23    2    1    2    0    0  0.00000000000E+00  0.00000000000E+00  0.91518381270E+02  0.12857186650E+03  0.90305651796E+02 0.  0.
        -13    1    3    3    0    0  0.44373636821E+02  0.80609804846E+01  0.42646879775E+02  0.62070567950E+02  0.00000000000E+00 0.  1.
         13    1    3    3    0    0 -0.44373636821E+02 -0.80609804846E+01  0.48871501494E+02  0.66501298554E+02  0.00000000000E+00 0. -1.
<mgrwt>
<rscale>  0 0.90305652E+02</rscale>
<asrwt>0</asrwt>
<pdfrwt beam="1">  1        1 0.16930019E-01 0.90305652E+02</pdfrwt>
<pdfrwt beam="2">  1       -1 0.28502682E-02 0.90305652E+02</pdfrwt>
<totfact> 0.10895036E+05</totfact>
</mgrwt>
</event>
<event>
 5    1  0.6027538E+000  0.9023160E+02  0.7546771E-02  0.1302292E+00
         -2   -1    0    0    0  501 -0.00000000000E+00  0.00000000000E+00  0.13301028857E+02  0.13301028857E+02  0.00000000000E+00 0.  1.
          2   -1    0    0  501    0  0.00000000000E+00 -0.00000000000E+00 -0.15302843279E+03  0.15302843279E+03  0.00000000000E+00 0. -1.
         23    2    1    2    0    0  0.00000000000E+00  0.00000000000E+00 -0.13972740393E+03  0.16632946164E+03  0.90231604230E+02 0.  0.
        -13    1    3    3    0    0  0.25514702989E+02  0.36845728296E+02 -0.79411502599E+02  0.91185495049E+02  0.00000000000E+00 0. -1.
         13    1    3    3    0    0 -0.25514702989E+02 -0.36845728296E+02 -0.60315901332E+02  0.75143966596E+02  0.00000000000E+00 0.  1.
<mgrwt>
<rscale>  0 0.90231604E+02</rscale>
<asrwt>0</asrwt>
<pdfrwt beam="2">  1        2 0.23542834E-01 0.90231604E+02</pdfrwt>
<pdfrwt beam="1">  1       -2 0.20463123E-02 0.90231604E+02</pdfrwt>
<totfact> 0.14479647E+05</totfact>
</mgrwt>
</event>
<event>
 5    1  0.6027538E+000  0.9093638E+02  0.7546771E-02  0.1300600E+00
         -1   -1    0    0    0  501 -0.00000000000E+00  0.00000000000E+00  0.15435007241E+02  0.15435007241E+02  0.00000000000E+00 0.  1.
          1   -1    0    0  501    0  0.00000000000E+00 -0.00000000000E+00 -0.13393944162E+03  0.13393944162E+03  0.00000000000E+00 0. -1.
         23    2    1    2    0    0  0.00000000000E+00  0.00000000000E+00 -0.11850443438E+03  0.14937444886E+03  0.90936378888E+02 0.  0.
        -13    1    3    3    0    0 -0.41275399568E+02  0.18512058769E+02 -0.51724522867E+02  0.68715218076E+02  0.00000000000E+00 0.  1.
         13    1    3    3    0    0  0.41275399568E+02 -0.18512058769E+02 -0.66779911515E+02  0.80659230788E+02  0.00000000000E+00 0. -1.
<mgrwt>
<rscale>  0 0.90936379E+02</rscale>
<asrwt>0</asrwt>
<pdfrwt beam="2">  1        1 0.20606068E-01 0.90936379E+02</pdfrwt>
<pdfrwt beam="1">  1       -1 0.23746165E-02 0.90936379E+02</pdfrwt>
<totfact> 0.11063847E+05</totfact>
</mgrwt>
</event>
<event>
 5    1  0.6027538E+000  0.8796927E+02  0.7546771E-02  0.1307845E+00
          2   -1    0    0  501    0  0.00000000000E+00  0.00000000000E+00  0.15109806978E+02  0.15109806978E+02  0.00000000000E+00 0. -1.
         -2   -1    0    0    0  501 -0.00000000000E+00 -0.00000000000E+00 -0.12803922434E+03  0.12803922434E+03  0.00000000000E+00 0.  1.
         23    2    1    2    0    0  0.00000000000E+00  0.00000000000E+00 -0.11292941736E+03  0.14314903132E+03  0.87969266573E+02 0.  0.
        -13    1    3    3    0    0  0.54984810222E+01  0.41444010511E+02 -0.78705792677E+02  0.89120374224E+02  0.00000000000E+00 0.  1.
         13    1    3    3    0    0 -0.54984810222E+01 -0.41444010511E+02 -0.34223624682E+02  0.54028657092E+02  0.00000000000E+00 0. -1.
<mgrwt>
<rscale>  0 0.87969267E+02</rscale>
<asrwt>0</asrwt>
<pdfrwt beam="1">  1        2 0.23245858E-02 0.87969267E+02</pdfrwt>
<pdfrwt beam="2">  1       -2 0.19698342E-01 0.87969267E+02</pdfrwt>
<totfact> 0.80779793E+04</totfact>
</mgrwt>
</event>
<event>
 5    1  0.6027538E+000  0.8977963E+02  0.7546771E-02  0.1303386E+00
          1   -1    0    0  501    0  0.00000000000E+00  0.00000000000E+00  0.14918439067E+03  0.14918439067E+03  0.00000000000E+00 0. -1.
         -1   -1    0    0    0  501 -0.00000000000E+00 -0.00000000000E+00 -0.13507414515E+02  0.13507414515E+02  0.00000000000E+00 0.  1.
         23    2    1    2    0    0  0.00000000000E+00  0.00000000000E+00  0.13567697616E+03  0.16269180518E+03  0.89779628065E+02 0.  0.
        -13    1    3    3    0    0 -0.88082433897E+01 -0.44006731933E+02  0.69574533834E+02  0.82793679500E+02  0.00000000000E+00 0.  1.
         13    1    3    3    0    0  0.88082433897E+01  0.44006731933E+02  0.66102442322E+02  0.79898125684E+02  0.00000000000E+00 0. -1.
<mgrwt>
<rscale>  0 0.89779628E+02</rscale>
<asrwt>0</asrwt>
<pdfrwt beam="1">  1        1 0.22951444E-01 0.89779628E+02</pdfrwt>
<pdfrwt beam="2">  1       -1 0.20780639E-02 0.89779628E+02</pdfrwt>
<totfact> 0.11677879E+05</totfact>
</mgrwt>
</event>
<event>
 5    1  0.6027538E+000  0.9217518E+02  0.7546771E-02  0.1297668E+00
          3   -1    0    0  501    0  0.00000000000E+00  0.00000000000E+00  0.74813264171E+02  0.74813264171E+02  0.00000000000E+00 0. -1.
         -3   -1    0    0    0  501 -0.00000000000E+00 -0.00000000000E+00 -0.28391569842E+02  0.28391569842E+02  0.00000000000E+00 0.  1.
         23    2    1    2    0    0  0.00000000000E+00  0.00000000000E+00  0.46421694328E+02  0.10320483401E+03  0.92175181363E+02 0.  0.
        -13    1    3    3    0    0 -0.22656934258E+02  0.12873167626E+02 -0.19351110996E+02  0.32457982246E+02  0.00000000000E+00 0.  1.
         13    1    3    3    0    0  0.22656934258E+02 -0.12873167626E+02  0.65772805324E+02  0.70746851767E+02  0.00000000000E+00 0. -1.
<mgrwt>
<rscale>  0 0.92175181E+02</rscale>
<asrwt>0</asrwt>
<pdfrwt beam="1">  1        3 0.11509733E-01 0.92175181E+02</pdfrwt>
<pdfrwt beam="2">  1       -3 0.43679338E-02 0.92175181E+02</pdfrwt>
<totfact> 0.33427541E+04</totfact>
</mgrwt>
</event>
<event>
 5    1  0.6027538E+000  0.9078036E+02  0.7546771E-02  0.1300973E+00
          1   -1    0    0  501    0  0.00000000000E+00  0.00000000000E+00  0.30148079713E+03  0.30148079713E+03  0.00000000000E+00 0. -1.
         -1   -1    0    0    0  501 -0.00000000000E+00 -0.00000000000E+00 -0.68338298459E+01  0.68338298459E+01  0.00000000000E+00 0.  1.
         23    2    1    2    0    0  0.00000000000E+00  0.00000000000E+00  0.29464696729E+03  0.30831462698E+03  0.90780360639E+02 0.  0.
        -13    1    3    3    0    0  0.74964997141E+01  0.40877633054E+02  0.20930797945E+03  0.21339402206E+03  0.00000000000E+00 0.  1.
         13    1    3    3    0    0 -0.74964997141E+01 -0.40877633054E+02  0.85338987839E+02  0.94920604915E+02  0.00000000000E+00 0. -1.
<mgrwt>
<rscale>  0 0.90780361E+02</rscale>
<asrwt>0</asrwt>
<pdfrwt beam="1">  1        1 0.46381651E-01 0.90780361E+02</pdfrwt>
<pdfrwt beam="2">  1       -1 0.10513587E-02 0.90780361E+02</pdfrwt>
<totfact> 0.12973923E+05</totfact>
</mgrwt>
</event>
<event>
 5    1  0.6027538E+000  0.8660988E+02  0.7546771E-02  0.1311275E+00
          2   -1    0    0  501    0  0.00000000000E+00  0.00000000000E+00  0.27235223352E+03  0.27235223352E+03  0.00000000000E+00 0.  1.
         -2   -1    0    0    0  501 -0.00000000000E+00 -0.00000000000E+00 -0.68856347151E+01  0.68856347151E+01  0.00000000000E+00 0. -1.
         23    2    1    2    0    0  0.00000000000E+00  0.00000000000E+00  0.26546659880E+03  0.27923786823E+03  0.86609883820E+02 0.  0.
        -13    1    3    3    0    0 -0.27572322940E+02 -0.31478916967E+02  0.96807818863E+02  0.10546520279E+03  0.00000000000E+00 0. -1.
         13    1    3    3    0    0  0.27572322940E+02  0.31478916967E+02  0.16865877994E+03  0.17377266545E+03  0.00000000000E+00 0.  1.
<mgrwt>
<rscale>  0 0.86609884E+02</rscale>
<asrwt>0</asrwt>
<pdfrwt beam="1">  1        2 0.41900335E-01 0.86609884E+02</pdfrwt>
<pdfrwt beam="2">  1       -2 0.10593286E-02 0.86609884E+02</pdfrwt>
<totfact> 0.19872141E+05</totfact>
</mgrwt>
</event>
<event>
 5    1  0.6027538E+000  0.9051592E+02  0.7546771E-02  0.1301607E+00
         -3   -1    0    0    0  501 -0.00000000000E+00  0.00000000000E+00  0.24527735925E+02  0.24527735925E+02  0.00000000000E+00 0.  1.
          3   -1    0    0  501    0  0.00000000000E+00 -0.00000000000E+00 -0.83508854237E+02  0.83508854237E+02  0.00000000000E+00 0. -1.
         23    2    1    2    0    0  0.00000000000E+00  0.00000000000E+00 -0.58981118311E+02  0.10803659016E+03  0.90515923995E+02 0.  0.
        -13    1    3    3    0    0  0.60594054185E+01  0.25220192736E+02  0.14776180444E+02  0.29851466031E+02  0.00000000000E+00 0.  1.
         13    1    3    3    0    0 -0.60594054185E+01 -0.25220192736E+02 -0.73757298755E+02  0.78185124131E+02  0.00000000000E+00 0. -1.
<mgrwt>
<rscale>  0 0.90515924E+02</rscale>
<asrwt>0</asrwt>
<pdfrwt beam="2">  1        3 0.12847516E-01 0.90515924E+02</pdfrwt>
<pdfrwt beam="1">  1       -3 0.37734978E-02 0.90515924E+02</pdfrwt>
<totfact> 0.34765212E+04</totfact>
</mgrwt>
</event>
<event>
 5    1  0.6027538E+000  0.9121408E+02  0.7546771E-02  0.1299938E+00
          3   -1    0    0  501    0  0.00000000000E+00  0.00000000000E+00  0.72780690473E+01  0.72780690473E+01  0.00000000000E+00 0. -1.
         -3   -1    0    0    0  501 -0.00000000000E+00 -0.00000000000E+00 -0.28579035229E+03  0.28579035229E+03  0.00000000000E+00 0.  1.
         23    2    1    2    0    0  0.00000000000E+00  0.00000000000E+00 -0.27851228324E+03  0.29306842134E+03  0.91214076041E+02 0.  0.
        -13    1    3    3    0    0  0.29896155305E+02 -0.34180958118E+02 -0.12566867512E+03  0.13362160718E+03  0.00000000000E+00 0. -1.
         13    1    3    3    0    0 -0.29896155305E+02  0.34180958118E+02 -0.15284360813E+03  0.15944681416E+03  0.00000000000E+00 0.  1.
<mgrwt>
<rscale>  0 0.91214076E+02</rscale>
<asrwt>0</asrwt>
<pdfrwt beam="1">  1        3 0.11197028E-02 0.91214076E+02</pdfrwt>
<pdfrwt beam="2">  1       -3 0.43967752E-01 0.91214076E+02</pdfrwt>
<totfact> 0.24267989E+04</totfact>
</mgrwt>
</event>
<event>
 5    1  0.6027538E+000  0.9053956E+02  0.7546771E-02  0.1301550E+00
         -1   -1    0    0    0  501 -0.00000000000E+00  0.00000000000E+00  0.25167576144E+02  0.25167576144E+02  0.00000000000E+00 0.  1.
          1   -1    0    0  501    0  0.00000000000E+00 -0.00000000000E+00 -0.81428306736E+02  0.81428306736E+02  0.00000000000E+00 0. -1.
         23    2    1    2    0    0  0.00000000000E+00  0.00000000000E+00 -0.56260730592E+02  0.10659588288E+03  0.90539562845E+02 0.  0.
        -13    1    3    3    0    0  0.12891315300E+02  0.40491036453E+02 -0.97531769474E+01  0.43598560800E+02  0.00000000000E+00 0.  1.
         13    1    3    3    0    0 -0.12891315300E+02 -0.40491036453E+02 -0.46507553645E+02  0.62997322080E+02  0.00000000000E+00 0. -1.
<mgrwt>
<rscale>  0 0.90539563E+02</rscale>
<asrwt>0</asrwt>
<pdfrwt beam="2">  1        1 0.12527432E-01 0.90539563E+02</pdfrwt>
<pdfrwt beam="1">  1       -1 0.38719348E-02 0.90539563E+02</pdfrwt>
<totfact> 0.10298708E+05</totfact>
</mgrwt>
</event>
<event>
 5    1  0.6027538E+000  0.9264922E+02  0.7546771E-02  0.1296560E+00
         -2   -1    0    0    0  501 -0.00000000000E+00  0.00000000000E+00  0.68525333642E+01  0.68525333642E+01  0.00000000000E+00 0.  1.
          2   -1    0    0  501    0  0.00000000000E+00 -0.00000000000E+00 -0.31316438592E+03  0.31316438592E+03  0.00000000000E+00 0. -1.
         23    2    1    2    0    0  0.00000000000E+00  0.00000000000E+00 -0.30631185255E+03  0.32001691928E+03  0.92649218086E+02 0.  0.
        -13    1    3    3    0    0  0.35601536902E+01  0.40145169066E+02 -0.74265374132E+02  0.84496479741E+02  0.00000000000E+00 0.  1.
         13    1    3    3    0    0 -0.35601536902E+01 -0.40145169066E+02 -0.23204647842E+03  0.23552043954E+03  0.00000000000E+00 0. -1.
<mgrwt>
<rscale>  0 0.92649218E+02</rscale>
<asrwt>0</asrwt>
<pdfrwt beam="2">  1        2 0.48179132E-01 0.92649218E+02</pdfrwt>
<pdfrwt beam="1">  1       -2 0.10542360E-02 0.92649218E+02</pdfrwt>
<totfact> 0.17490860E+05</totfact>
</mgrwt>
</event>
<event>
 5    1  0.6027538E+000  0.9298766E+02  0.7546771E-02  0.1295774E+00
         -1   -1    0    0    0  501 -0.00000000000E+00  0.00000000000E+00  0.11003867177E+02  0.11003867177E+02  0.00000000000E+00 0.  1.
          1   -1    0    0  501    0  0.00000000000E+00 -0.00000000000E+00 -0.19644697282E+03  0.19644697282E+03  0.00000000000E+00 0. -1.
         23    2    1    2    0    0  0.00000000000E+00  0.00000000000E+00 -0.18544310564E+03  0.20745083999E+03  0.92987663616E+02 0.  0.
        -13    1    3    3    0    0 -0.24772610286E+02 -0.38635018130E+02 -0.76126890082E+02  0.88891227013E+02  0.00000000000E+00 0. -1.
         13    1    3    3    0    0  0.24772610286E+02  0.38635018130E+02 -0.10931621556E+03  0.11855961298E+03  0.00000000000E+00 0.  1.
<mgrwt>
<rscale>  0 0.92987664E+02</rscale>
<asrwt>0</asrwt>
<pdfrwt beam="2">  1        1 0.30222609E-01 0.92987664E+02</pdfrwt>
<pdfrwt beam="1">  1       -1 0.16929028E-02 0.92987664E+02</pdfrwt>
<totfact> 0.11192074E+05</totfact>
</mgrwt>
</event>
<event>
 5    1  0.6027538E+000  0.8858424E+02  0.7546771E-02  0.1306317E+00
          2   -1    0    0  501    0  0.00000000000E+00  0.00000000000E+00  0.83594536947E+01  0.83594536947E+01  0.00000000000E+00 0. -1.
         -2   -1    0    0    0  501 -0.00000000000E+00 -0.00000000000E+00 -0.23467942609E+03  0.23467942609E+03  0.00000000000E+00 0.  1.
         23    2    1    2    0    0  0.00000000000E+00  0.00000000000E+00 -0.22631997239E+03  0.24303887978E+03  0.88584237773E+02 0.  0.
        -13    1    3    3    0    0 -0.26284941752E+02  0.29071360254E+02 -0.16977041567E+03  0.17423557670E+03  0.00000000000E+00 0.  1.
         13    1    3    3    0    0  0.26284941752E+02 -0.29071360254E+02 -0.56549556719E+02  0.68803303082E+02  0.00000000000E+00 0. -1.
<mgrwt>
<rscale>  0 0.88584238E+02</rscale>
<asrwt>0</asrwt>
<pdfrwt beam="1">  1        2 0.12860697E-02 0.88584238E+02</pdfrwt>
<pdfrwt beam="2">  1       -2 0.36104531E-01 0.88584238E+02</pdfrwt>
<totfact> 0.62382151E+04</totfact>
</mgrwt>
</event>
<event>
 5    1  0.6027538E+000  0.8838620E+02  0.7546771E-02  0.1306807E+00
         -2   -1    0    0    0  501 -0.00000000000E+00  0.00000000000E+00  0.11692685342E+02  0.11692685342E+02  0.00000000000E+00 0.  1.
          2   -1    0    0  501    0  0.00000000000E+00 -0.00000000000E+00 -0.16703009175E+03  0.16703009175E+03  0.00000000000E+00 0. -1.
         23    2    1    2    0    0  0.00000000000E+00  0.00000000000E+00 -0.15533740641E+03  0.17872277709E+03  0.88386204930E+02 0.  0.
        -13    1    3    3    0    0 -0.10243165118E+02 -0.33449173248E+02 -0.13227425715E+03  0.13682195996E+03  0.00000000000E+00 0.  1.
         13    1    3    3    0    0  0.10243165118E+02  0.33449173248E+02 -0.23063149257E+02  0.41900817132E+02  0.00000000000E+00 0. -1.
<mgrwt>
<rscale>  0 0.88386205E+02</rscale>
<asrwt>0</asrwt>
<pdfrwt beam="2">  1        2 0.25696935E-01 0.88386205E+02</pdfrwt>
<pdfrwt beam="1">  1       -2 0.17988748E-02 0.88386205E+02</pdfrwt>
<totfact> 0.15777658E+05</totfact>
</mgrwt>
</event>
<event>
 5    1  0.6027538E+000  0.9162748E+02  0.7546771E-02  0.1298958E+00
         -1   -1    0    0    0  501 -0.00000000000E+00  0.00000000000E+00  0.21874729244E+02  0.21874729244E+02  0.00000000000E+00 0.  1.
          1   -1    0    0  501    0  0.00000000000E+00 -0.00000000000E+00 -0.95950847623E+02  0.95950847623E+02  0.00000000000E+00 0. -1.
         23    2    1    2    0    0  0.00000000000E+00  0.00000000000E+00 -0.74076118380E+02  0.11782557687E+03  0.91627480866E+02 0.  0.
        -13    1    3    3    0    0 -0.34391535385E+02  0.26783866095E+02 -0.55166590250E+02  0.70310069470E+02  0.00000000000E+00 0.  1.
         13    1    3    3    0    0  0.34391535385E+02 -0.26783866095E+02 -0.18909528130E+02  0.47515507397E+02  0.00000000000E+00 0. -1.
<mgrwt>
<rscale>  0 0.91627481E+02</rscale>
<asrwt>0</asrwt>
<pdfrwt beam="2">  1        1 0.14761669E-01 0.91627481E+02</pdfrwt>
<pdfrwt beam="1">  1       -1 0.33653429E-02 0.91627481E+02</pdfrwt>
<totfact> 0.10235153E+05</totfact>
</mgrwt>
</event>
<event>
 5    1  0.6027538E+000  0.9177131E+02  0.7546771E-02  0.1298618E+00
         -3   -1    0    0    0  501 -0.00000000000E+00  0.00000000000E+00  0.57913292816E+02  0.57913292816E+02  0.00000000000E+00 0.  1.
          3   -1    0    0  501    0  0.00000000000E+00 -0.00000000000E+00 -0.36355959957E+02  0.36355959957E+02  0.00000000000E+00 0. -1.
         23    2    1    2    0    0  0.00000000000E+00  0.00000000000E+00  0.21557332859E+02  0.94269252773E+02  0.91771310432E+02 0.  0.
        -13    1    3    3    0    0 -0.76478366367E+01  0.25721298990E+02  0.49013011770E+02  0.55877991640E+02  0.00000000000E+00 0.  1.
         13    1    3    3    0    0  0.76478366367E+01 -0.25721298990E+02 -0.27455678911E+02  0.38391261134E+02  0.00000000000E+00 0. -1.
<mgrwt>
<rscale>  0 0.91771310E+02</rscale>
<asrwt>0</asrwt>
<pdfrwt beam="2">  1        3 0.55932246E-02 0.91771310E+02</pdfrwt>
<pdfrwt beam="1">  1       -3 0.89097374E-02 0.91771310E+02</pdfrwt>
<totfact> 0.34486082E+04</totfact>
</mgrwt>
</event>
<event>
 5    1  0.6027538E+000  0.9097344E+02  0.7546771E-02  0.1300511E+00
          1   -1    0    0  501    0  0.00000000000E+00  0.00000000000E+00  0.34981093804E+02  0.34981093804E+02  0.00000000000E+00 0. -1.
         -1   -1    0    0    0  501 -0.00000000000E+00 -0.00000000000E+00 -0.59147422341E+02  0.59147422341E+02  0.00000000000E+00 0.  1.
         23    2    1    2    0    0  0.00000000000E+00  0.00000000000E+00 -0.24166328537E+02  0.94128516145E+02  0.90973436324E+02 0.  0.
        -13    1    3    3    0    0  0.33901866166E+02  0.27223983917E+02  0.17428925064E+01  0.43514589554E+02  0.00000000000E+00 0. -1.
         13    1    3    3    0    0 -0.33901866166E+02 -0.27223983917E+02 -0.25909221043E+02  0.50613926590E+02  0.00000000000E+00 0.  1.
<mgrwt>
<rscale>  0 0.90973436E+02</rscale>
<asrwt>0</asrwt>
<pdfrwt beam="1">  1        1 0.53817068E-02 0.90973436E+02</pdfrwt>
<pdfrwt beam="2">  1       -1 0.90996034E-02 0.90973436E+02</pdfrwt>
<totfact> 0.89382828E+04</totfact>
</mgrwt>
</event>
<event>
 5    1  0.6027538E+000  0.9054154E+02  0.7546771E-02  0.1301546E+00
          2   -1    0    0  501    0  0.00000000000E+00  0.00000000000E+00  0.15880870278E+03  0.15880870278E+03  0.00000000000E+00 0. -1.
         -2   -1    0    0    0  501 -0.00000000000E+00 -0.00000000000E+00 -0.12905101527E+02  0.12905101527E+02  0.00000000000E+00 0.  1.
         23    2    1    2    0    0  0.00000000000E+00  0.00000000000E+00  0.14590360125E+03  0.17171380431E+03  0.90541535943E+02 0.  0.
        -13    1    3    3    0    0 -0.32460884408E+02 -0.28054865278E+02  0.45556578819E+02  0.62579440362E+02  0.00000000000E+00 0. -1.
         13    1    3    3    0    0  0.32460884408E+02  0.28054865278E+02  0.10034702243E+03  0.10913436394E+03  0.00000000000E+00 0.  1.
<mgrwt>
<rscale>  0 0.90541536E+02</rscale>
<asrwt>0</asrwt>
<pdfrwt beam="1">  1        2 0.24432107E-01 0.90541536E+02</pdfrwt>
<pdfrwt beam="2">  1       -2 0.19854004E-02 0.90541536E+02</pdfrwt>
<totfact> 0.14529249E+05</totfact>
</mgrwt>
</event>
<event>
 5    1  0.6027538E+000  0.9122987E+02  0.7546771E-02  0.1299900E+00
          3   -1    0    0  501    0  0.00000000000E+00  0.00000000000E+00  0.19765181898E+02  0.19765181898E+02  0.00000000000E+00 0. -1.
         -3   -1    0    0    0  501 -0.00000000000E+00 -0.00000000000E+00 -0.10527210186E+03  0.10527210186E+03  0.00000000000E+00 0.  1.
         23    2    1    2    0    0  0.00000000000E+00  0.00000000000E+00 -0.85506919958E+02  0.12503728375E+03  0.91229868837E+02 0.  0.
        -13    1    3    3    0    0  0.87369706851E+00 -0.42544477814E+02 -0.65271214663E+02  0.77917439656E+02  0.00000000000E+00 0.  1.
         13    1    3    3    0    0 -0.87369706851E+00  0.42544477814E+02 -0.20235705296E+02  0.47119844098E+02  0.00000000000E+00 0. -1.
<mgrwt>
<rscale>  0 0.91229869E+02</rscale>
<asrwt>0</asrwt>
<pdfrwt beam="1">  1        3 0.30407971E-02 0.91229869E+02</pdfrwt>
<pdfrwt beam="2">  1       -3 0.16195709E-01 0.91229869E+02</pdfrwt>
<totfact> 0.32854982E+04</totfact>
</mgrwt>
</event>
<event>
 5    1  0.6027538E+000  0.9150069E+02  0.7546771E-02  0.1299258E+00
          3   -1    0    0  501    0  0.00000000000E+00  0.00000000000E+00  0.18894832009E+02  0.18894832009E+02  0.00000000000E+00 0. -1.
         -3   -1    0    0    0  501 -0.00000000000E+00 -0.00000000000E+00 -0.11077600017E+03  0.11077600017E+03  0.00000000000E+00 0.  1.
         23    2    1    2    0    0  0.00000000000E+00  0.00000000000E+00 -0.91881168165E+02  0.12967083218E+03  0.91500686640E+02 0.  0.
        -13    1    3    3    0    0  0.30290945520E+02 -0.18818971819E+02 -0.86556381634E+02  0.93614647798E+02  0.00000000000E+00 0.  1.
         13    1    3    3    0    0 -0.30290945520E+02  0.18818971819E+02 -0.53247865311E+01  0.36056184385E+02  0.00000000000E+00 0. -1.
<mgrwt>
<rscale>  0 0.91500687E+02</rscale>
<asrwt>0</asrwt>
<pdfrwt beam="1">  1        3 0.29068971E-02 0.91500687E+02</pdfrwt>
<pdfrwt beam="2">  1       -3 0.17042462E-01 0.91500687E+02</pdfrwt>
<totfact> 0.32286522E+04</totfact>
</mgrwt>
</event>
<event>
 5    1  0.6027538E+000  0.1026745E+03  0.7546771E-02  0.1274770E+00
          2   -1    0    0  501    0  0.00000000000E+00  0.00000000000E+00  0.18369269744E+03  0.18369269744E+03  0.00000000000E+00 0. -1.
         -2   -1    0    0    0  501 -0.00000000000E+00 -0.00000000000E+00 -0.14347390700E+02  0.14347390700E+02  0.00000000000E+00 0.  1.
         23    2    1    2    0    0  0.00000000000E+00  0.00000000000E+00  0.16934530674E+03  0.19804008814E+03  0.10267445445E+03 0.  0.
        -13    1    3    3    0    0  0.35799452504E+02 -0.36159010276E+02  0.71528928480E+02  0.87780763458E+02  0.00000000000E+00 0.  1.
         13    1    3    3    0    0 -0.35799452504E+02  0.36159010276E+02  0.97816378260E+02  0.11025932468E+03  0.00000000000E+00 0. -1.
<mgrwt>
<rscale>  0 0.10267445E+03</rscale>
<asrwt>0</asrwt>
<pdfrwt beam="1">  1        2 0.28260413E-01 0.10267445E+03</pdfrwt>
<pdfrwt beam="2">  1       -2 0.22072910E-02 0.10267445E+03</pdfrwt>
<totfact> 0.10861555E+05</totfact>
</mgrwt>
</event>
<event>
 5    1  0.6027538E+000  0.8429960E+02  0.7546771E-02  0.1317274E+00
         -1   -1    0    0    0  501 -0.00000000000E+00  0.00000000000E+00  0.92226078011E+02  0.92226078011E+02  0.00000000000E+00 0.  1.
          1   -1    0    0  501    0  0.00000000000E+00 -0.00000000000E+00 -0.19263594465E+02  0.19263594465E+02  0.00000000000E+00 0. -1.
         23    2    1    2    0    0  0.00000000000E+00  0.00000000000E+00  0.72962483547E+02  0.11148967248E+03  0.84299602985E+02 0.  0.
        -13    1    3    3    0    0  0.16945170382E+02 -0.21549901905E+02 -0.58621453969E+01  0.28033940501E+02  0.00000000000E+00 0. -1.
         13    1    3    3    0    0 -0.16945170382E+02  0.21549901905E+02  0.78824628943E+02  0.83455731975E+02  0.00000000000E+00 0.  1.
<mgrwt>
<rscale>  0 0.84299603E+02</rscale>
<asrwt>0</asrwt>
<pdfrwt beam="2">  1        1 0.29636300E-02 0.84299603E+02</pdfrwt>
<pdfrwt beam="1">  1       -1 0.14188627E-01 0.84299603E+02</pdfrwt>
<totfact> 0.10098080E+05</totfact>
</mgrwt>
</event>
<event>
 5    1  0.6027538E+000  0.9105170E+02  0.7546771E-02  0.1300325E+00
         -3   -1    0    0    0  501 -0.00000000000E+00  0.00000000000E+00  0.87516234392E+01  0.87516234392E+01  0.00000000000E+00 0.  1.
          3   -1    0    0  501    0  0.00000000000E+00 -0.00000000000E+00 -0.23682495989E+03  0.23682495989E+03  0.00000000000E+00 0. -1.
         23    2    1    2    0    0  0.00000000000E+00  0.00000000000E+00 -0.22807333645E+03  0.24557658333E+03  0.91051696743E+02 0.  0.
        -13    1    3    3    0    0 -0.23291263313E+02  0.29679190544E+02 -0.18276093211E+03  0.18661429636E+03  0.00000000000E+00 0. -1.
         13    1    3    3    0    0  0.23291263313E+02 -0.29679190544E+02 -0.45312404336E+02  0.58962286971E+02  0.00000000000E+00 0.  1.
<mgrwt>
<rscale>  0 0.91051697E+02</rscale>
<asrwt>0</asrwt>
<pdfrwt beam="2">  1        3 0.36434609E-01 0.91051697E+02</pdfrwt>
<pdfrwt beam="1">  1       -3 0.13464036E-02 0.91051697E+02</pdfrwt>
<totfact> 0.26399056E+04</totfact>
</mgrwt>
</event>
<event>
 5    1  0.6027538E+000  0.9092441E+02  0.7546771E-02  0.1300628E+00
         -2   -1    0    0    0  501 -0.00000000000E+00  0.00000000000E+00  0.94974055426E+01  0.94974055426E+01  0.00000000000E+00 0.  1.
          2   -1    0    0  501    0  0.00000000000E+00 -0.00000000000E+00 -0.21761859215E+03  0.21761859215E+03  0.00000000000E+00 0. -1.
         23    2    1    2    0    0  0.00000000000E+00  0.00000000000E+00 -0.20812118660E+03  0.22711599769E+03  0.90924408675E+02 0.  0.
        -13    1    3    3    0    0  0.31060140945E+02  0.20649896752E+02 -0.16898856045E+03  0.17305572557E+03  0.00000000000E+00 0. -1.
         13    1    3    3    0    0 -0.31060140945E+02 -0.20649896752E+02 -0.39132626157E+02  0.54060272116E+02  0.00000000000E+00 0.  1.
<mgrwt>
<rscale>  0 0.90924409E+02</rscale>
<asrwt>0</asrwt>
<pdfrwt beam="2">  1        2 0.33479779E-01 0.90924409E+02</pdfrwt>
<pdfrwt beam="1">  1       -2 0.14611395E-02 0.90924409E+02</pdfrwt>
<totfact> 0.16069619E+05</totfact>
</mgrwt>
</event>
<event>
 5    1  0.6027538E+000  0.9116308E+02  0.7546771E-02  0.1300059E+00
         -4   -1    0    0    0  501 -0.00000000000E+00  0.00000000000E+00  0.50741901827E+02  0.50741901827E+02  0.00000000000E+00 0.  1.
          4   -1    0    0  501    0  0.00000000000E+00 -0.00000000000E+00 -0.40945981256E+02  0.40945981256E+02  0.00000000000E+00 0. -1.
         23    2    1    2    0    0  0.00000000000E+00  0.00000000000E+00  0.97959205707E+01  0.91687883084E+02  0.91163083781E+02 0.  0.
        -13    1    3    3    0    0  0.11568028710E+02  0.12216724593E+02 -0.37708739556E+02  0.41291847706E+02  0.00000000000E+00 0. -1.
         13    1    3    3    0    0 -0.11568028710E+02 -0.12216724593E+02  0.47504660127E+02  0.50396035378E+02  0.00000000000E+00 0.  1.
<mgrwt>
<rscale>  0 0.91163084E+02</rscale>
<asrwt>0</asrwt>
<pdfrwt beam="2">  1        4 0.62993817E-02 0.91163084E+02</pdfrwt>
<pdfrwt beam="1">  1       -4 0.78064465E-02 0.91163084E+02</pdfrwt>
<totfact> 0.26994646E+04</totfact>
</mgrwt>
</event>
<event>
 5    1  0.6027538E+000  0.9011316E+02  0.7546771E-02  0.1302578E+00
          1   -1    0    0  501    0  0.00000000000E+00  0.00000000000E+00  0.10252749702E+03  0.10252749702E+03  0.00000000000E+00 0. -1.
         -1   -1    0    0    0  501 -0.00000000000E+00 -0.00000000000E+00 -0.19800495986E+02  0.19800495986E+02  0.00000000000E+00 0.  1.
         23    2    1    2    0    0  0.00000000000E+00  0.00000000000E+00  0.82727001035E+02  0.12232799301E+03  0.90113157601E+02 0.  0.
        -13    1    3    3    0    0  0.55196043084E+01 -0.41751251935E+02  0.19624010886E+02  0.46462187563E+02  0.00000000000E+00 0. -1.
         13    1    3    3    0    0 -0.55196043084E+01  0.41751251935E+02  0.63102990148E+02  0.75865805443E+02  0.00000000000E+00 0.  1.
<mgrwt>
<rscale>  0 0.90113158E+02</rscale>
<asrwt>0</asrwt>
<pdfrwt beam="1">  1        1 0.15773461E-01 0.90113158E+02</pdfrwt>
<pdfrwt beam="2">  1       -1 0.30462302E-02 0.90113158E+02</pdfrwt>
<totfact> 0.10828949E+05</totfact>
</mgrwt>
</event>
<event>
 5    1  0.6027538E+000  0.9292374E+02  0.7546771E-02  0.1295922E+00
          2   -1    0    0  501    0  0.00000000000E+00  0.00000000000E+00  0.30151903658E+03  0.30151903658E+03  0.00000000000E+00 0. -1.
         -2   -1    0    0    0  501 -0.00000000000E+00 -0.00000000000E+00 -0.71594336712E+01  0.71594336712E+01  0.00000000000E+00 0.  1.
         23    2    1    2    0    0  0.00000000000E+00  0.00000000000E+00  0.29435960290E+03  0.30867847025E+03  0.92923743854E+02 0.  0.
        -13    1    3    3    0    0 -0.40247595454E+02  0.20895001670E+02  0.11359208171E+03  0.12230957061E+03  0.00000000000E+00 0.  1.
         13    1    3    3    0    0  0.40247595454E+02 -0.20895001670E+02  0.18076752119E+03  0.18636889964E+03  0.00000000000E+00 0. -1.
<mgrwt>
<rscale>  0 0.92923744E+02</rscale>
<asrwt>0</asrwt>
<pdfrwt beam="1">  1        2 0.46387534E-01 0.92923744E+02</pdfrwt>
<pdfrwt beam="2">  1       -2 0.11014516E-02 0.92923744E+02</pdfrwt>
<totfact> 0.17109690E+05</totfact>
</mgrwt>
</event>
<event>
 5    1  0.6027538E+000  0.8973699E+02  0.7546771E-02  0.1303490E+00
          1   -1    0    0  501    0  0.00000000000E+00  0.00000000000E+00  0.93811856927E+02  0.93811856927E+02  0.00000000000E+00 0. -1.
         -1   -1    0    0    0  501 -0.00000000000E+00 -0.00000000000E+00 -0.21459778536E+02  0.21459778536E+02  0.00000000000E+00 0.  1.
         23    2    1    2    0    0  0.00000000000E+00  0.00000000000E+00  0.72352078391E+02  0.11527163546E+03  0.89736986213E+02 0.  0.
        -13    1    3    3    0    0 -0.96332588276E+01 -0.26787595874E+02 -0.83740825679E+01  0.29673224078E+02  0.00000000000E+00 0.  1.
         13    1    3    3    0    0  0.96332588276E+01  0.26787595874E+02  0.80726160959E+02  0.85598411384E+02  0.00000000000E+00 0. -1.
<mgrwt>
<rscale>  0 0.89736986E+02</rscale>
<asrwt>0</asrwt>
<pdfrwt beam="1">  1        1 0.14432593E-01 0.89736986E+02</pdfrwt>
<pdfrwt beam="2">  1       -1 0.33015044E-02 0.89736986E+02</pdfrwt>
<totfact> 0.10794062E+05</totfact>
</mgrwt>
</event>
<event>
 5    1  0.6027538E+000  0.9149031E+02  0.7546771E-02  0.1299282E+00
          2   -1    0    0  501    0  0.00000000000E+00  0.00000000000E+00  0.17948429167E+03  0.17948429167E+03  0.00000000000E+00 0. -1.
         -2   -1    0    0    0  501 -0.00000000000E+00 -0.00000000000E+00 -0.11659066321E+02  0.11659066321E+02  0.00000000000E+00 0.  1.
         23    2    1    2    0    0  0.00000000000E+00  0.00000000000E+00  0.16782522535E+03  0.19114335799E+03  0.91490311183E+02 0.  0.
        -13    1    3    3    0    0  0.11518908376E+02 -0.41871792575E+02  0.11394851502E+03  0.12194341450E+03  0.00000000000E+00 0. -1.
         13    1    3    3    0    0 -0.11518908376E+02  0.41871792575E+02  0.53876710322E+02  0.69199943488E+02  0.00000000000E+00 0.  1.
<mgrwt>
<rscale>  0 0.91490311E+02</rscale>
<asrwt>0</asrwt>
<pdfrwt beam="1">  1        2 0.27612966E-01 0.91490311E+02</pdfrwt>
<pdfrwt beam="2">  1       -2 0.17937026E-02 0.91490311E+02</pdfrwt>
<totfact> 0.14742103E+05</totfact>
</mgrwt>
</event>
<event>
 5    1  0.6027538E+000  0.9118871E+02  0.7546771E-02  0.1299998E+00
          1   -1    0    0  501    0  0.00000000000E+00  0.00000000000E+00  0.29139457506E+02  0.29139457506E+02  0.00000000000E+00 0.  1.
         -1   -1    0    0    0  501 -0.00000000000E+00 -0.00000000000E+00 -0.71341242616E+02  0.71341242616E+02  0.00000000000E+00 0. -1.
         23    2    1    2    0    0  0.00000000000E+00  0.00000000000E+00 -0.42201785110E+02  0.10048070012E+03  0.91188707801E+02 0.  0.
        -13    1    3    3    0    0  0.29506009061E+02  0.14980073100E+01  0.17165243966E+02  0.34168614210E+02  0.00000000000E+00 0.  1.
         13    1    3    3    0    0 -0.29506009061E+02 -0.14980073100E+01 -0.59367029076E+02  0.66312085912E+02  0.00000000000E+00 0. -1.
<mgrwt>
<rscale>  0 0.91188708E+02</rscale>
<asrwt>0</asrwt>
<pdfrwt beam="1">  1        1 0.44829935E-02 0.91188708E+02</pdfrwt>
<pdfrwt beam="2">  1       -1 0.10975576E-01 0.91188708E+02</pdfrwt>
<totfact> 0.86244607E+04</totfact>
</mgrwt>
</event>
<event>
 5    1  0.6027538E+000  0.9585843E+02  0.7546771E-02  0.1289254E+00
         -1   -1    0    0    0  501 -0.00000000000E+00  0.00000000000E+00  0.46126881462E+02  0.46126881462E+02  0.00000000000E+00 0.  1.
          1   -1    0    0  501    0  0.00000000000E+00 -0.00000000000E+00 -0.49801972751E+02  0.49801972751E+02  0.00000000000E+00 0. -1.
         23    2    1    2    0    0  0.00000000000E+00  0.00000000000E+00 -0.36750912898E+01  0.95928854213E+02  0.95858430900E+02 0.  0.
        -13    1    3    3    0    0  0.33267107808E+02 -0.24946129355E+02 -0.25692000900E+02  0.48878305433E+02  0.00000000000E+00 0. -1.
         13    1    3    3    0    0 -0.33267107808E+02  0.24946129355E+02  0.22016909610E+02  0.47050548780E+02  0.00000000000E+00 0.  1.
<mgrwt>
<rscale>  0 0.95858431E+02</rscale>
<asrwt>0</asrwt>
<pdfrwt beam="2">  1        1 0.76618419E-02 0.95858431E+02</pdfrwt>
<pdfrwt beam="1">  1       -1 0.70964433E-02 0.95858431E+02</pdfrwt>
<totfact> 0.81411443E+04</totfact>
</mgrwt>
</event>
<event>
 5    1  0.6027538E+000  0.9161315E+02  0.7546771E-02  0.1298992E+00
         -2   -1    0    0    0  501 -0.00000000000E+00  0.00000000000E+00  0.11880819600E+02  0.11880819600E+02  0.00000000000E+00 0.  1.
          2   -1    0    0  501    0  0.00000000000E+00 -0.00000000000E+00 -0.17660755438E+03  0.17660755438E+03  0.00000000000E+00 0. -1.
         23    2    1    2    0    0  0.00000000000E+00  0.00000000000E+00 -0.16472673478E+03  0.18848837398E+03  0.91613153940E+02 0.  0.
        -13    1    3    3    0    0 -0.21075022579E+02  0.37937960822E+02 -0.52209648268E+02  0.67891772847E+02  0.00000000000E+00 0.  1.
         13    1    3    3    0    0  0.21075022579E+02 -0.37937960822E+02 -0.11251708652E+03  0.12059660114E+03  0.00000000000E+00 0. -1.
<mgrwt>
<rscale>  0 0.91613154E+02</rscale>
<asrwt>0</asrwt>
<pdfrwt beam="2">  1        2 0.27170389E-01 0.91613154E+02</pdfrwt>
<pdfrwt beam="1">  1       -2 0.18278186E-02 0.91613154E+02</pdfrwt>
<totfact> 0.14604798E+05</totfact>
</mgrwt>
</event>
<event>
 5    1  0.6027538E+000  0.9100729E+02  0.7546771E-02  0.1300431E+00
          2   -1    0    0  501    0  0.00000000000E+00  0.00000000000E+00  0.19569677903E+02  0.19569677903E+02  0.00000000000E+00 0. -1.
         -2   -1    0    0    0  501 -0.00000000000E+00 -0.00000000000E+00 -0.10580560605E+03  0.10580560605E+03  0.00000000000E+00 0.  1.
         23    2    1    2    0    0  0.00000000000E+00  0.00000000000E+00 -0.86235928145E+02  0.12537528395E+03  0.91007288294E+02 0.  0.
        -13    1    3    3    0    0  0.79371601989E+01 -0.35644077229E+02 -0.80519885776E+02  0.88413521358E+02  0.00000000000E+00 0.  1.
         13    1    3    3    0    0 -0.79371601989E+01  0.35644077229E+02 -0.57160423684E+01  0.36961762592E+02  0.00000000000E+00 0. -1.
<mgrwt>
<rscale>  0 0.91007288E+02</rscale>
<asrwt>0</asrwt>
<pdfrwt beam="1">  1        2 0.30107196E-02 0.91007288E+02</pdfrwt>
<pdfrwt beam="2">  1       -2 0.16277786E-01 0.91007288E+02</pdfrwt>
<totfact> 0.78824109E+04</totfact>
</mgrwt>
</event>
<event>
 5    1  0.6027538E+000  0.8831721E+02  0.7546771E-02  0.1306979E+00
          1   -1    0    0  501    0  0.00000000000E+00  0.00000000000E+00  0.40783492577E+02  0.40783492577E+02  0.00000000000E+00 0. -1.
         -1   -1    0    0    0  501 -0.00000000000E+00 -0.00000000000E+00 -0.47813031912E+02  0.47813031912E+02  0.00000000000E+00 0.  1.
         23    2    1    2    0    0  0.00000000000E+00  0.00000000000E+00 -0.70295393352E+01  0.88596524489E+02  0.88317210827E+02 0.  0.
        -13    1    3    3    0    0  0.21719896787E+02  0.33309728334E+02 -0.22776811528E+02  0.45826575931E+02  0.00000000000E+00 0.  1.
         13    1    3    3    0    0 -0.21719896787E+02 -0.33309728334E+02  0.15747272193E+02  0.42769948558E+02  0.00000000000E+00 0. -1.
<mgrwt>
<rscale>  0 0.88317211E+02</rscale>
<asrwt>0</asrwt>
<pdfrwt beam="1">  1        1 0.62743835E-02 0.88317211E+02</pdfrwt>
<pdfrwt beam="2">  1       -1 0.73558510E-02 0.88317211E+02</pdfrwt>
<totfact> 0.99455295E+04</totfact>
</mgrwt>
</event>
<event>
 5    1  0.6027538E+000  0.8669037E+02  0.7546771E-02  0.1311070E+00
          2   -1    0    0  501    0  0.00000000000E+00  0.00000000000E+00  0.11156018682E+02  0.11156018682E+02  0.00000000000E+00 0. -1.
         -2   -1    0    0    0  501 -0.00000000000E+00 -0.00000000000E+00 -0.16841179336E+03  0.16841179336E+03  0.00000000000E+00 0.  1.
         23    2    1    2    0    0  0.00000000000E+00  0.00000000000E+00 -0.15725577468E+03  0.17956781204E+03  0.86690371160E+02 0.  0.
        -13    1    3    3    0    0 -0.32100012881E+02 -0.24663475753E+02 -0.46531196038E+02  0.61675360298E+02  0.00000000000E+00 0. -1.
         13    1    3    3    0    0  0.32100012881E+02  0.24663475753E+02 -0.11072457864E+03  0.11789245174E+03  0.00000000000E+00 0.  1.
<mgrwt>
<rscale>  0 0.86690371E+02</rscale>
<asrwt>0</asrwt>
<pdfrwt beam="1">  1        2 0.17163106E-02 0.86690371E+02</pdfrwt>
<pdfrwt beam="2">  1       -2 0.25909506E-01 0.86690371E+02</pdfrwt>
<totfact> 0.76014544E+04</totfact>
</mgrwt>
</event>
<event>
 5    1  0.6027538E+000  0.8067579E+02  0.7546771E-02  0.1327145E+00
          3   -1    0    0  501    0  0.00000000000E+00  0.00000000000E+00  0.29717867800E+02  0.29717867800E+02  0.00000000000E+00 0. -1.
         -3   -1    0    0    0  501 -0.00000000000E+00 -0.00000000000E+00 -0.54753110355E+02  0.54753110355E+02  0.00000000000E+00 0.  1.
         23    2    1    2    0    0  0.00000000000E+00  0.00000000000E+00 -0.25035242555E+02  0.84470978155E+02  0.80675788070E+02 0.  0.
        -13    1    3    3    0    0 -0.32793374350E+02  0.23883891926E+01  0.11949050827E+02  0.34984133831E+02  0.00000000000E+00 0. -1.
         13    1    3    3    0    0  0.32793374350E+02 -0.23883891926E+01 -0.36984293382E+02  0.49486844324E+02  0.00000000000E+00 0.  1.
<mgrwt>
<rscale>  0 0.80675788E+02</rscale>
<asrwt>0</asrwt>
<pdfrwt beam="1">  1        3 0.45719797E-02 0.80675788E+02</pdfrwt>
<pdfrwt beam="2">  1       -3 0.84235554E-02 0.80675788E+02</pdfrwt>
<totfact> 0.49928204E+04</totfact>
</mgrwt>
</event>
<event>
 5    1  0.6027538E+000  0.8681321E+02  0.7546771E-02  0.1310758E+00
          1   -1    0    0  501    0  0.00000000000E+00  0.00000000000E+00  0.76707456293E+01  0.76707456293E+01  0.00000000000E+00 0. -1.
         -1   -1    0    0    0  501 -0.00000000000E+00 -0.00000000000E+00 -0.24562587037E+03  0.24562587037E+03  0.00000000000E+00 0.  1.
         23    2    1    2    0    0  0.00000000000E+00  0.00000000000E+00 -0.23795512474E+03  0.25329661600E+03  0.86813214929E+02 0.  0.
        -13    1    3    3    0    0  0.35863785914E+02  0.23827316881E+02 -0.13500681419E+03  0.14170671137E+03  0.00000000000E+00 0.  1.
         13    1    3    3    0    0 -0.35863785914E+02 -0.23827316881E+02 -0.10294831055E+03  0.11158990463E+03  0.00000000000E+00 0. -1.
<mgrwt>
<rscale>  0 0.86813215E+02</rscale>
<asrwt>0</asrwt>
<pdfrwt beam="1">  1        1 0.11801147E-02 0.86813215E+02</pdfrwt>
<pdfrwt beam="2">  1       -1 0.37788596E-01 0.86813215E+02</pdfrwt>
<totfact> 0.74029275E+04</totfact>
</mgrwt>
</event>
<event>
 5    1  0.6027538E+000  0.8535148E+02  0.7546771E-02  0.1314516E+00
          2   -1    0    0  501    0  0.00000000000E+00  0.00000000000E+00  0.37693387393E+02  0.37693387393E+02  0.00000000000E+00 0. -1.
         -2   -1    0    0    0  501 -0.00000000000E+00 -0.00000000000E+00 -0.48316669700E+02  0.48316669700E+02  0.00000000000E+00 0.  1.
         23    2    1    2    0    0  0.00000000000E+00  0.00000000000E+00 -0.10623282307E+02  0.86010057094E+02  0.85351483844E+02 0.  0.
        -13    1    3    3    0    0 -0.84354766107E+00  0.41083790712E+02 -0.16916991447E+02  0.44438429670E+02  0.00000000000E+00 0.  1.
         13    1    3    3    0    0  0.84354766107E+00 -0.41083790712E+02  0.62937091396E+01  0.41571627424E+02  0.00000000000E+00 0. -1.
<mgrwt>
<rscale>  0 0.85351484E+02</rscale>
<asrwt>0</asrwt>
<pdfrwt beam="1">  1        2 0.57989827E-02 0.85351484E+02</pdfrwt>
<pdfrwt beam="2">  1       -2 0.74333338E-02 0.85351484E+02</pdfrwt>
<totfact> 0.11365362E+05</totfact>
</mgrwt>
</event>
<event>
 5    1  0.6027538E+000  0.9634682E+02  0.7546771E-02  0.1288171E+00
         -3   -1    0    0    0  501 -0.00000000000E+00  0.00000000000E+00  0.99432161659E+01  0.99432161659E+01  0.00000000000E+00 0.  1.
          3   -1    0    0  501    0  0.00000000000E+00 -0.00000000000E+00 -0.23339305019E+03  0.23339305019E+03  0.00000000000E+00 0. -1.
         23    2    1    2    0    0  0.00000000000E+00  0.00000000000E+00 -0.22344983403E+03  0.24333626636E+03  0.96346822463E+02 0.  0.
        -13    1    3    3    0    0 -0.11752205897E+02 -0.43154582288E+02 -0.15692203903E+03  0.16317156201E+03  0.00000000000E+00 0. -1.
         13    1    3    3    0    0  0.11752205897E+02  0.43154582288E+02 -0.66527794994E+02  0.80164704344E+02  0.00000000000E+00 0.  1.
<mgrwt>
<rscale>  0 0.96346822E+02</rscale>
<asrwt>0</asrwt>
<pdfrwt beam="2">  1        3 0.35906620E-01 0.96346822E+02</pdfrwt>
<pdfrwt beam="1">  1       -3 0.15297257E-02 0.96346822E+02</pdfrwt>
<totfact> 0.22745780E+04</totfact>
</mgrwt>
</event>
<event>
 5    1  0.6027538E+000  0.8271849E+02  0.7546771E-02  0.1321509E+00
          2   -1    0    0  501    0  0.00000000000E+00  0.00000000000E+00  0.86265379852E+01  0.86265379852E+01  0.00000000000E+00 0. -1.
         -2   -1    0    0    0  501 -0.00000000000E+00 -0.00000000000E+00 -0.19829359758E+03  0.19829359758E+03  0.00000000000E+00 0.  1.
         23    2    1    2    0    0  0.00000000000E+00  0.00000000000E+00 -0.18966705960E+03  0.20692013557E+03  0.82718492534E+02 0.  0.
        -13    1    3    3    0    0  0.37847141586E+02  0.10095311160E+02 -0.61622358428E+02  0.73018055930E+02  0.00000000000E+00 0. -1.
         13    1    3    3    0    0 -0.37847141586E+02 -0.10095311160E+02 -0.12804470117E+03  0.13390207964E+03  0.00000000000E+00 0.  1.
<mgrwt>
<rscale>  0 0.82718493E+02</rscale>
<asrwt>0</asrwt>
<pdfrwt beam="1">  1        2 0.13271596E-02 0.82718493E+02</pdfrwt>
<pdfrwt beam="2">  1       -2 0.30506709E-01 0.82718493E+02</pdfrwt>
<totfact> 0.80157837E+04</totfact>
</mgrwt>
</event>
<event>
 5    1  0.6027538E+000  0.9109667E+02  0.7546771E-02  0.1300217E+00
          4   -1    0    0  501    0  0.00000000000E+00  0.00000000000E+00  0.67294140027E+02  0.67294140027E+02  0.00000000000E+00 0. -1.
         -4   -1    0    0    0  501 -0.00000000000E+00 -0.00000000000E+00 -0.30829592155E+02  0.30829592155E+02  0.00000000000E+00 0.  1.
         23    2    1    2    0    0  0.00000000000E+00  0.00000000000E+00  0.36464547872E+02  0.98123732182E+02  0.91096671541E+02 0.  0.
        -13    1    3    3    0    0 -0.22321852106E+02  0.27722905431E+02 -0.12382464264E+02  0.37684877447E+02  0.00000000000E+00 0.  1.
         13    1    3    3    0    0  0.22321852106E+02 -0.27722905431E+02  0.48847012136E+02  0.60438854734E+02  0.00000000000E+00 0. -1.
<mgrwt>
<rscale>  0 0.91096672E+02</rscale>
<asrwt>0</asrwt>
<pdfrwt beam="1">  1        4 0.10352945E-01 0.91096672E+02</pdfrwt>
<pdfrwt beam="2">  1       -4 0.47430142E-02 0.91096672E+02</pdfrwt>
<totfact> 0.26638468E+04</totfact>
</mgrwt>
</event>
<event>
 5    1  0.6027538E+000  0.9097134E+02  0.7546771E-02  0.1300516E+00
          2   -1    0    0  501    0  0.00000000000E+00  0.00000000000E+00  0.12587036697E+02  0.12587036697E+02  0.00000000000E+00 0. -1.
         -2   -1    0    0    0  501 -0.00000000000E+00 -0.00000000000E+00 -0.16437117492E+03  0.16437117492E+03  0.00000000000E+00 0.  1.
         23    2    1    2    0    0  0.00000000000E+00  0.00000000000E+00 -0.15178413822E+03  0.17695821161E+03  0.90971336376E+02 0.  0.
        -13    1    3    3    0    0  0.32578774448E+02 -0.31499421966E+02 -0.68269462158E+02  0.81940890843E+02  0.00000000000E+00 0.  1.
         13    1    3    3    0    0 -0.32578774448E+02  0.31499421966E+02 -0.83514676060E+02  0.95017320769E+02  0.00000000000E+00 0. -1.
<mgrwt>
<rscale>  0 0.90971336E+02</rscale>
<asrwt>0</asrwt>
<pdfrwt beam="1">  1        2 0.19364673E-02 0.90971336E+02</pdfrwt>
<pdfrwt beam="2">  1       -2 0.25287871E-01 0.90971336E+02</pdfrwt>
<totfact> 0.67896707E+04</totfact>
</mgrwt>
</event>
<event>
 5    1  0.6027538E+000  0.8847401E+02  0.7546771E-02  0.1306590E+00
         -1   -1    0    0    0  501 -0.00000000000E+00  0.00000000000E+00  0.64056722738E+01  0.64056722738E+01  0.00000000000E+00 0.  1.
          1   -1    0    0  501    0  0.00000000000E+00 -0.00000000000E+00 -0.30549686330E+03  0.30549686330E+03  0.00000000000E+00 0. -1.
         23    2    1    2    0    0  0.00000000000E+00  0.00000000000E+00 -0.29909119103E+03  0.31190253558E+03  0.88474013970E+02 0.  0.
        -13    1    3    3    0    0 -0.32320168818E+02  0.25334430203E+02 -0.91565935161E+02  0.10035311230E+03  0.00000000000E+00 0.  1.
         13    1    3    3    0    0  0.32320168818E+02 -0.25334430203E+02 -0.20752525587E+03  0.21154942328E+03  0.00000000000E+00 0. -1.
<mgrwt>
<rscale>  0 0.88474014E+02</rscale>
<asrwt>0</asrwt>
<pdfrwt beam="2">  1        1 0.46999511E-01 0.88474014E+02</pdfrwt>
<pdfrwt beam="1">  1       -1 0.98548818E-03 0.88474014E+02</pdfrwt>
<totfact> 0.13927214E+05</totfact>
</mgrwt>
</event>
<event>
 5    1  0.6027538E+000  0.8983942E+02  0.7546771E-02  0.1303241E+00
         -1   -1    0    0    0  501 -0.00000000000E+00  0.00000000000E+00  0.23109733533E+02  0.23109733533E+02  0.00000000000E+00 0.  1.
          1   -1    0    0  501    0  0.00000000000E+00 -0.00000000000E+00 -0.87313015504E+02  0.87313015504E+02  0.00000000000E+00 0. -1.
         23    2    1    2    0    0  0.00000000000E+00  0.00000000000E+00 -0.64203281971E+02  0.11042274904E+03  0.89839423913E+02 0.  0.
        -13    1    3    3    0    0 -0.18860376844E+01 -0.18294176428E+02 -0.82473457389E+02  0.84499143209E+02  0.00000000000E+00 0. -1.
         13    1    3    3    0    0  0.18860376844E+01  0.18294176428E+02  0.18270175418E+02  0.25923605828E+02  0.00000000000E+00 0.  1.
<mgrwt>
<rscale>  0 0.89839424E+02</rscale>
<asrwt>0</asrwt>
<pdfrwt beam="2">  1        1 0.13432771E-01 0.89839424E+02</pdfrwt>
<pdfrwt beam="1">  1       -1 0.35553437E-02 0.89839424E+02</pdfrwt>
<totfact> 0.10636787E+05</totfact>
</mgrwt>
</event>
<event>
 5    1  0.6027538E+000  0.9233253E+02  0.7546771E-02  0.1297299E+00
         -1   -1    0    0    0  501 -0.00000000000E+00  0.00000000000E+00  0.17043080971E+02  0.17043080971E+02  0.00000000000E+00 0.  1.
          1   -1    0    0  501    0  0.00000000000E+00 -0.00000000000E+00 -0.12505508094E+03  0.12505508094E+03  0.00000000000E+00 0. -1.
         23    2    1    2    0    0  0.00000000000E+00  0.00000000000E+00 -0.10801199997E+03  0.14209816191E+03  0.92332526669E+02 0.  0.
        -13    1    3    3    0    0  0.34796116005E+02 -0.27215810660E+02 -0.33366765413E+02  0.55360735843E+02  0.00000000000E+00 0.  1.
         13    1    3    3    0    0 -0.34796116005E+02  0.27215810660E+02 -0.74645234558E+02  0.86737426069E+02  0.00000000000E+00 0. -1.
<mgrwt>
<rscale>  0 0.92332527E+02</rscale>
<asrwt>0</asrwt>
<pdfrwt beam="2">  1        1 0.19239243E-01 0.92332527E+02</pdfrwt>
<pdfrwt beam="1">  1       -1 0.26220125E-02 0.92332527E+02</pdfrwt>
<totfact> 0.10487295E+05</totfact>
</mgrwt>
</event>
<event>
 5    1  0.6027538E+000  0.9062594E+02  0.7546771E-02  0.1301343E+00
          4   -1    0    0  501    0  0.00000000000E+00  0.00000000000E+00  0.18302850273E+03  0.18302850273E+03  0.00000000000E+00 0.  1.
         -4   -1    0    0    0  501 -0.00000000000E+00 -0.00000000000E+00 -0.11218282266E+02  0.11218282266E+02  0.00000000000E+00 0. -1.
         23    2    1    2    0    0  0.00000000000E+00  0.00000000000E+00  0.17181022046E+03  0.19424678499E+03  0.90625943445E+02 0.  0.
        -13    1    3    3    0    0 -0.44617394612E+02 -0.20427511221E+01  0.10228216661E+03  0.11160880942E+03  0.00000000000E+00 0. -1.
         13    1    3    3    0    0  0.44617394612E+02  0.20427511221E+01  0.69528053850E+02  0.82637975570E+02  0.00000000000E+00 0.  1.
<mgrwt>
<rscale>  0 0.90625943E+02</rscale>
<asrwt>0</asrwt>
<pdfrwt beam="1">  1        4 0.28158229E-01 0.90625943E+02</pdfrwt>
<pdfrwt beam="2">  1       -4 0.17258897E-02 0.90625943E+02</pdfrwt>
<totfact> 0.21982369E+04</totfact>
</mgrwt>
</event>
<event>
 5    1  0.6027538E+000  0.9278132E+02  0.7546771E-02  0.1296253E+00
          2   -1    0    0  501    0  0.00000000000E+00  0.00000000000E+00  0.12013945822E+02  0.12013945822E+02  0.00000000000E+00 0.  1.
         -2   -1    0    0    0  501 -0.00000000000E+00 -0.00000000000E+00 -0.17913294886E+03  0.17913294886E+03  0.00000000000E+00 0. -1.
         23    2    1    2    0    0  0.00000000000E+00  0.00000000000E+00 -0.16711900304E+03  0.19114689468E+03  0.92781324467E+02 0.  0.
        -13    1    3    3    0    0  0.85376787009E+01 -0.27227978826E+02 -0.15891389268E+03  0.16145550494E+03  0.00000000000E+00 0. -1.
         13    1    3    3    0    0 -0.85376787009E+01  0.27227978826E+02 -0.82051103511E+01  0.29691389735E+02  0.00000000000E+00 0.  1.
<mgrwt>
<rscale>  0 0.92781324E+02</rscale>
<asrwt>0</asrwt>
<pdfrwt beam="1">  1        2 0.18482994E-02 0.92781324E+02</pdfrwt>
<pdfrwt beam="2">  1       -2 0.27558915E-01 0.92781324E+02</pdfrwt>
<totfact> 0.62423369E+04</totfact>
</mgrwt>
</event>
<event>
 5    1  0.6027538E+000  0.9219997E+02  0.7546771E-02  0.1297610E+00
         -1   -1    0    0    0  501 -0.00000000000E+00  0.00000000000E+00  0.57909881132E+02  0.57909881132E+02  0.00000000000E+00 0.  1.
          1   -1    0    0  501    0  0.00000000000E+00 -0.00000000000E+00 -0.36698548811E+02  0.36698548811E+02  0.00000000000E+00 0. -1.
         23    2    1    2    0    0  0.00000000000E+00  0.00000000000E+00  0.21211332322E+02  0.94608429943E+02  0.92199969617E+02 0.  0.
        -13    1    3    3    0    0  0.38051335651E+02 -0.75462542115E+01  0.36163287221E+02  0.53034266659E+02  0.00000000000E+00 0.  1.
         13    1    3    3    0    0 -0.38051335651E+02  0.75462542115E+01 -0.14951954899E+02  0.41574163284E+02  0.00000000000E+00 0. -1.
<mgrwt>
<rscale>  0 0.92199970E+02</rscale>
<asrwt>0</asrwt>
<pdfrwt beam="2">  1        1 0.56459306E-02 0.92199970E+02</pdfrwt>
<pdfrwt beam="1">  1       -1 0.89092125E-02 0.92199970E+02</pdfrwt>
<totfact> 0.86683203E+04</totfact>
</mgrwt>
</event>
<event>
 5    1  0.6027538E+000  0.9155842E+02  0.7546771E-02  0.1299121E+00
          2   -1    0    0  501    0  0.00000000000E+00  0.00000000000E+00  0.46467459208E+02  0.46467459208E+02  0.00000000000E+00 0.  1.
         -2   -1    0    0    0  501 -0.00000000000E+00 -0.00000000000E+00 -0.45101154590E+02  0.45101154590E+02  0.00000000000E+00 0. -1.
         23    2    1    2    0    0  0.00000000000E+00  0.00000000000E+00  0.13663046183E+01  0.91568613798E+02  0.91558419845E+02 0.  0.
        -13    1    3    3    0    0 -0.16190054128E+02  0.74521167730E+01  0.42855182419E+02  0.46413560058E+02  0.00000000000E+00 0.  1.
         13    1    3    3    0    0  0.16190054128E+02 -0.74521167730E+01 -0.41488877801E+02  0.45155053740E+02  0.00000000000E+00 0. -1.
<mgrwt>
<rscale>  0 0.91558420E+02</rscale>
<asrwt>0</asrwt>
<pdfrwt beam="1">  1        2 0.71488399E-02 0.91558420E+02</pdfrwt>
<pdfrwt beam="2">  1       -2 0.69386392E-02 0.91558420E+02</pdfrwt>
<totfact> 0.97983739E+04</totfact>
</mgrwt>
</event>
<event>
 5    1  0.6027538E+000  0.9184690E+02  0.7546771E-02  0.1298440E+00
          4   -1    0    0  501    0  0.00000000000E+00  0.00000000000E+00  0.57846429816E+02  0.57846429816E+02  0.00000000000E+00 0. -1.
         -4   -1    0    0    0  501 -0.00000000000E+00 -0.00000000000E+00 -0.36457967049E+02  0.36457967049E+02  0.00000000000E+00 0.  1.
         23    2    1    2    0    0  0.00000000000E+00  0.00000000000E+00  0.21388462766E+02  0.94304396865E+02  0.91846899395E+02 0.  0.
        -13    1    3    3    0    0  0.25145817246E+02  0.85921459592E+01  0.49150696889E+02  0.55874216789E+02  0.00000000000E+00 0. -1.
         13    1    3    3    0    0 -0.25145817246E+02 -0.85921459592E+01 -0.27762234123E+02  0.38430180076E+02  0.00000000000E+00 0.  1.
<mgrwt>
<rscale>  0 0.91846899E+02</rscale>
<asrwt>0</asrwt>
<pdfrwt beam="1">  1        4 0.88994508E-02 0.91846899E+02</pdfrwt>
<pdfrwt beam="2">  1       -4 0.56089180E-02 0.91846899E+02</pdfrwt>
<totfact> 0.26287618E+04</totfact>
</mgrwt>
</event>
<event>
 5    1  0.6027538E+000  0.9121749E+02  0.7546771E-02  0.1299930E+00
          1   -1    0    0  501    0  0.00000000000E+00  0.00000000000E+00  0.19225739272E+03  0.19225739272E+03  0.00000000000E+00 0. -1.
         -1   -1    0    0    0  501 -0.00000000000E+00 -0.00000000000E+00 -0.10819649140E+02  0.10819649140E+02  0.00000000000E+00 0.  1.
         23    2    1    2    0    0  0.00000000000E+00  0.00000000000E+00  0.18143774358E+03  0.20307704186E+03  0.91217488100E+02 0.  0.
        -13    1    3    3    0    0 -0.44306460959E+02  0.38153989288E+01  0.11326254497E+03  0.12168000593E+03  0.00000000000E+00 0.  1.
         13    1    3    3    0    0  0.44306460959E+02 -0.38153989288E+01  0.68175198612E+02  0.81397035926E+02  0.00000000000E+00 0. -1.
<mgrwt>
<rscale>  0 0.91217488E+02</rscale>
<asrwt>0</asrwt>
<pdfrwt beam="1">  1        1 0.29578058E-01 0.91217488E+02</pdfrwt>
<pdfrwt beam="2">  1       -1 0.16645616E-02 0.91217488E+02</pdfrwt>
<totfact> 0.11736414E+05</totfact>
</mgrwt>
</event>
<event>
 5    1  0.6027538E+000  0.9036290E+02  0.7546771E-02  0.1301975E+00
          1   -1    0    0  501    0  0.00000000000E+00  0.00000000000E+00  0.37596555947E+02  0.37596555947E+02  0.00000000000E+00 0. -1.
         -1   -1    0    0    0  501 -0.00000000000E+00 -0.00000000000E+00 -0.54296555646E+02  0.54296555646E+02  0.00000000000E+00 0.  1.
         23    2    1    2    0    0  0.00000000000E+00  0.00000000000E+00 -0.16699999700E+02  0.91893111593E+02  0.90362901505E+02 0.  0.
        -13    1    3    3    0    0  0.10633666557E+02 -0.14607486744E+01 -0.52981181801E+02  0.54057508971E+02  0.00000000000E+00 0.  1.
         13    1    3    3    0    0 -0.10633666557E+02  0.14607486744E+01  0.36281182101E+02  0.37835602622E+02  0.00000000000E+00 0. -1.
<mgrwt>
<rscale>  0 0.90362902E+02</rscale>
<asrwt>0</asrwt>
<pdfrwt beam="1">  1        1 0.57840856E-02 0.90362902E+02</pdfrwt>
<pdfrwt beam="2">  1       -1 0.83533162E-02 0.90362902E+02</pdfrwt>
<totfact> 0.92118299E+04</totfact>
</mgrwt>
</event>
<event>
 5    1  0.6027538E+000  0.9155387E+02  0.7546771E-02  0.1299132E+00
         -2   -1    0    0    0  501 -0.00000000000E+00  0.00000000000E+00  0.46695610197E+02  0.46695610197E+02  0.00000000000E+00 0.  1.
          2   -1    0    0  501    0  0.00000000000E+00 -0.00000000000E+00 -0.44876331332E+02  0.44876331332E+02  0.00000000000E+00 0. -1.
         23    2    1    2    0    0  0.00000000000E+00  0.00000000000E+00  0.18192788645E+01  0.91571941529E+02  0.91553867749E+02 0.  0.
        -13    1    3    3    0    0  0.14123290585E+02  0.37928366002E+02  0.22303097299E+02  0.46210999055E+02  0.00000000000E+00 0.  1.
         13    1    3    3    0    0 -0.14123290585E+02 -0.37928366002E+02 -0.20483818434E+02  0.45360942475E+02  0.00000000000E+00 0. -1.
<mgrwt>
<rscale>  0 0.91553868E+02</rscale>
<asrwt>0</asrwt>
<pdfrwt beam="2">  1        2 0.69040510E-02 0.91553868E+02</pdfrwt>
<pdfrwt beam="1">  1       -2 0.71839401E-02 0.91553868E+02</pdfrwt>
<totfact> 0.97112608E+04</totfact>
</mgrwt>
</event>
<event>
 5    1  0.6027538E+000  0.9181635E+02  0.7546771E-02  0.1298512E+00
         -1   -1    0    0    0  501 -0.00000000000E+00  0.00000000000E+00  0.13653176233E+02  0.13653176233E+02  0.00000000000E+00 0.  1.
          1   -1    0    0  501    0  0.00000000000E+00 -0.00000000000E+00 -0.15436411767E+03  0.15436411767E+03  0.00000000000E+00 0. -1.
         23    2    1    2    0    0  0.00000000000E+00  0.00000000000E+00 -0.14071094143E+03  0.16801729390E+03  0.91816349361E+02 0.  0.
        -13    1    3    3    0    0 -0.14624200218E+02 -0.23445634459E+02 -0.32693203842E+01  0.27825410382E+02  0.00000000000E+00 0.  1.
         13    1    3    3    0    0  0.14624200218E+02  0.23445634459E+02 -0.13744162105E+03  0.14019188352E+03  0.00000000000E+00 0. -1.
<mgrwt>
<rscale>  0 0.91816349E+02</rscale>
<asrwt>0</asrwt>
<pdfrwt beam="2">  1        1 0.23748327E-01 0.91816349E+02</pdfrwt>
<pdfrwt beam="1">  1       -1 0.21004885E-02 0.91816349E+02</pdfrwt>
<totfact> 0.11062030E+05</totfact>
</mgrwt>
</event>
<event>
 5    1  0.6027538E+000  0.9219806E+02  0.7546771E-02  0.1297614E+00
          1   -1    0    0  501    0  0.00000000000E+00  0.00000000000E+00  0.24829026825E+03  0.24829026825E+03  0.00000000000E+00 0. -1.
         -1   -1    0    0    0  501 -0.00000000000E+00 -0.00000000000E+00 -0.85590164075E+01  0.85590164075E+01  0.00000000000E+00 0.  1.
         23    2    1    2    0    0  0.00000000000E+00  0.00000000000E+00  0.23973125185E+03  0.25684928466E+03  0.92198058110E+02 0.  0.
        -13    1    3    3    0    0 -0.20669120915E+02  0.36181996462E+02  0.64936391421E+02  0.77156233436E+02  0.00000000000E+00 0.  1.
         13    1    3    3    0    0  0.20669120915E+02 -0.36181996462E+02  0.17479486043E+03  0.17969305123E+03  0.00000000000E+00 0. -1.
<mgrwt>
<rscale>  0 0.92198058E+02</rscale>
<asrwt>0</asrwt>
<pdfrwt beam="1">  1        1 0.38198497E-01 0.92198058E+02</pdfrwt>
<pdfrwt beam="2">  1       -1 0.13167719E-02 0.92198058E+02</pdfrwt>
<totfact> 0.11987902E+05</totfact>
</mgrwt>
</event>
<event>
 5    1  0.6027538E+000  0.9001875E+02  0.7546771E-02  0.1302806E+00
         -3   -1    0    0    0  501 -0.00000000000E+00  0.00000000000E+00  0.26584108814E+02  0.26584108814E+02  0.00000000000E+00 0.  1.
          3   -1    0    0  501    0  0.00000000000E+00 -0.00000000000E+00 -0.76205066492E+02  0.76205066492E+02  0.00000000000E+00 0. -1.
         23    2    1    2    0    0  0.00000000000E+00  0.00000000000E+00 -0.49620957678E+02  0.10278917531E+03  0.90018748709E+02 0.  0.
        -13    1    3    3    0    0 -0.41612915252E+02  0.32379695162E+01 -0.44044182453E+02  0.60679561388E+02  0.00000000000E+00 0. -1.
         13    1    3    3    0    0  0.41612915252E+02 -0.32379695162E+01 -0.55767752249E+01  0.42109613917E+02  0.00000000000E+00 0.  1.
<mgrwt>
<rscale>  0 0.90018749E+02</rscale>
<asrwt>0</asrwt>
<pdfrwt beam="2">  1        3 0.11723857E-01 0.90018749E+02</pdfrwt>
<pdfrwt beam="1">  1       -3 0.40898628E-02 0.90018749E+02</pdfrwt>
<totfact> 0.35682745E+04</totfact>
</mgrwt>
</event>
<event>
 5    1  0.6027538E+000  0.8480748E+02  0.7546771E-02  0.1315937E+00
         -4   -1    0    0    0  501 -0.00000000000E+00  0.00000000000E+00  0.78520054632E+02  0.78520054632E+02  0.00000000000E+00 0.  1.
          4   -1    0    0  501    0  0.00000000000E+00 -0.00000000000E+00 -0.22899589806E+02  0.22899589806E+02  0.00000000000E+00 0. -1.
         23    2    1    2    0    0  0.00000000000E+00  0.00000000000E+00  0.55620464826E+02  0.10141964444E+03  0.84807477090E+02 0.  0.
        -13    1    3    3    0    0 -0.17906126495E+02 -0.19025236744E+02 -0.12130902377E+02  0.28805343111E+02  0.00000000000E+00 0. -1.
         13    1    3    3    0    0  0.17906126495E+02  0.19025236744E+02  0.67751367204E+02  0.72614301327E+02  0.00000000000E+00 0.  1.
<mgrwt>
<rscale>  0 0.84807477E+02</rscale>
<asrwt>0</asrwt>
<pdfrwt beam="2">  1        4 0.35230139E-02 0.84807477E+02</pdfrwt>
<pdfrwt beam="1">  1       -4 0.12080008E-01 0.84807477E+02</pdfrwt>
<totfact> 0.32045418E+04</totfact>
</mgrwt>
</event>
<event>
 5    1  0.6027538E+000  0.8992557E+02  0.7546771E-02  0.1303032E+00
          3   -1    0    0  501    0  0.00000000000E+00  0.00000000000E+00  0.10896646032E+02  0.10896646032E+02  0.00000000000E+00 0. -1.
         -3   -1    0    0    0  501 -0.00000000000E+00 -0.00000000000E+00 -0.18552973150E+03  0.18552973150E+03  0.00000000000E+00 0.  1.
         23    2    1    2    0    0  0.00000000000E+00  0.00000000000E+00 -0.17463308547E+03  0.19642637753E+03  0.89925565055E+02 0.  0.
        -13    1    3    3    0    0  0.23830891472E+02  0.29028155103E+02 -0.14131422658E+03  0.14621988857E+03  0.00000000000E+00 0.  1.
         13    1    3    3    0    0 -0.23830891472E+02 -0.29028155103E+02 -0.33318858884E+02  0.50206488967E+02  0.00000000000E+00 0. -1.
<mgrwt>
<rscale>  0 0.89925565E+02</rscale>
<asrwt>0</asrwt>
<pdfrwt beam="1">  1        3 0.16764073E-02 0.89925565E+02</pdfrwt>
<pdfrwt beam="2">  1       -3 0.28543033E-01 0.89925565E+02</pdfrwt>
<totfact> 0.29770834E+04</totfact>
</mgrwt>
</event>
<event>
 5    1  0.6027538E+000  0.9015273E+02  0.7546771E-02  0.1302482E+00
         -4   -1    0    0    0  501 -0.00000000000E+00  0.00000000000E+00  0.20688310886E+02  0.20688310886E+02  0.00000000000E+00 0.  1.
          4   -1    0    0  501    0  0.00000000000E+00 -0.00000000000E+00 -0.98213858152E+02  0.98213858152E+02  0.00000000000E+00 0. -1.
         23    2    1    2    0    0  0.00000000000E+00  0.00000000000E+00 -0.77525547266E+02  0.11890216904E+03  0.90152733309E+02 0.  0.
        -13    1    3    3    0    0 -0.15336912596E+02  0.24452919577E+02  0.69006453980E+01  0.29678023363E+02  0.00000000000E+00 0.  1.
         13    1    3    3    0    0  0.15336912596E+02 -0.24452919577E+02 -0.84426192664E+02  0.89224145675E+02  0.00000000000E+00 0. -1.
<mgrwt>
<rscale>  0 0.90152733E+02</rscale>
<asrwt>0</asrwt>
<pdfrwt beam="2">  1        4 0.15109824E-01 0.90152733E+02</pdfrwt>
<pdfrwt beam="1">  1       -4 0.31828171E-02 0.90152733E+02</pdfrwt>
<totfact> 0.26118483E+04</totfact>
</mgrwt>
</event>
<event>
 5    1  0.6027538E+000  0.8959096E+02  0.7546771E-02  0.1303845E+00
          3   -1    0    0  501    0  0.00000000000E+00  0.00000000000E+00  0.29076972191E+02  0.29076972191E+02  0.00000000000E+00 0. -1.
         -3   -1    0    0    0  501 -0.00000000000E+00 -0.00000000000E+00 -0.69011139354E+02  0.69011139354E+02  0.00000000000E+00 0.  1.
         23    2    1    2    0    0  0.00000000000E+00  0.00000000000E+00 -0.39934167163E+02  0.98088111545E+02  0.89590958916E+02 0.  0.
        -13    1    3    3    0    0 -0.15739601422E+02 -0.26106096498E+02 -0.55903516006E+02  0.63674692218E+02  0.00000000000E+00 0. -1.
         13    1    3    3    0    0  0.15739601422E+02  0.26106096498E+02  0.15969348842E+02  0.34413419327E+02  0.00000000000E+00 0.  1.
<mgrwt>
<rscale>  0 0.89590959E+02</rscale>
<asrwt>0</asrwt>
<pdfrwt beam="1">  1        3 0.44733804E-02 0.89590959E+02</pdfrwt>
<pdfrwt beam="2">  1       -3 0.10617098E-01 0.89590959E+02</pdfrwt>
<totfact> 0.36513871E+04</totfact>
</mgrwt>
</event>
<event>
 5    1  0.6027538E+000  0.9157435E+02  0.7546771E-02  0.1299083E+00
          2   -1    0    0  501    0  0.00000000000E+00  0.00000000000E+00  0.22957015339E+02  0.22957015339E+02  0.00000000000E+00 0. -1.
         -2   -1    0    0    0  501 -0.00000000000E+00 -0.00000000000E+00 -0.91321336017E+02  0.91321336017E+02  0.00000000000E+00 0.  1.
         23    2    1    2    0    0  0.00000000000E+00  0.00000000000E+00 -0.68364320678E+02  0.11427835136E+03  0.91574348193E+02 0.  0.
        -13    1    3    3    0    0 -0.43927262402E+02 -0.10571235759E+02 -0.24918023570E+02  0.51597124981E+02  0.00000000000E+00 0.  1.
         13    1    3    3    0    0  0.43927262402E+02  0.10571235759E+02 -0.43446297108E+02  0.62681226376E+02  0.00000000000E+00 0. -1.
<mgrwt>
<rscale>  0 0.91574348E+02</rscale>
<asrwt>0</asrwt>
<pdfrwt beam="1">  1        2 0.35318484E-02 0.91574348E+02</pdfrwt>
<pdfrwt beam="2">  1       -2 0.14049437E-01 0.91574348E+02</pdfrwt>
<totfact> 0.81080898E+04</totfact>
</mgrwt>
</event>
<event>
 5    1  0.6027538E+000  0.9067054E+02  0.7546771E-02  0.1301236E+00
          1   -1    0    0  501    0  0.00000000000E+00  0.00000000000E+00  0.79506572705E+02  0.79506572705E+02  0.00000000000E+00 0. -1.
         -1   -1    0    0    0  501 -0.00000000000E+00 -0.00000000000E+00 -0.25850526817E+02  0.25850526817E+02  0.00000000000E+00 0.  1.
         23    2    1    2    0    0  0.00000000000E+00  0.00000000000E+00  0.53656045888E+02  0.10535709952E+03  0.90670541850E+02 0.  0.
        -13    1    3    3    0    0  0.17627512781E+02 -0.11867416188E+02 -0.19705093629E+02  0.28980260329E+02  0.00000000000E+00 0.  1.
         13    1    3    3    0    0 -0.17627512781E+02  0.11867416188E+02  0.73361139517E+02  0.76376839193E+02  0.00000000000E+00 0. -1.
<mgrwt>
<rscale>  0 0.90670542E+02</rscale>
<asrwt>0</asrwt>
<pdfrwt beam="1">  1        1 0.12231780E-01 0.90670542E+02</pdfrwt>
<pdfrwt beam="2">  1       -1 0.39770042E-02 0.90670542E+02</pdfrwt>
<totfact> 0.10219503E+05</totfact>
</mgrwt>
</event>
<event>
 5    1  0.6027538E+000  0.9192763E+02  0.7546771E-02  0.1298250E+00
          1   -1    0    0  501    0  0.00000000000E+00  0.00000000000E+00  0.67669353067E+02  0.67669353067E+02  0.00000000000E+00 0. -1.
         -1   -1    0    0    0  501 -0.00000000000E+00 -0.00000000000E+00 -0.31220518952E+02  0.31220518952E+02  0.00000000000E+00 0.  1.
         23    2    1    2    0    0  0.00000000000E+00  0.00000000000E+00  0.36448834115E+02  0.98889872020E+02  0.91927630665E+02 0.  0.
        -13    1    3    3    0    0 -0.36200957907E+02 -0.17144943465E+02 -0.60265470652E+01  0.40506514406E+02  0.00000000000E+00 0.  1.
         13    1    3    3    0    0  0.36200957907E+02  0.17144943465E+02  0.42475381180E+02  0.58383357613E+02  0.00000000000E+00 0. -1.
<mgrwt>
<rscale>  0 0.91927631E+02</rscale>
<asrwt>0</asrwt>
<pdfrwt beam="1">  1        1 0.10410670E-01 0.91927631E+02</pdfrwt>
<pdfrwt beam="2">  1       -1 0.48031568E-02 0.91927631E+02</pdfrwt>
<totfact> 0.95952881E+04</totfact>
</mgrwt>
</event>
<event>
 5    1  0.6027538E+000  0.8709718E+02  0.7546771E-02  0.1310038E+00
         -1   -1    0    0    0  501 -0.00000000000E+00  0.00000000000E+00  0.19876672730E+02  0.19876672730E+02  0.00000000000E+00 0.  1.
          1   -1    0    0  501    0  0.00000000000E+00 -0.00000000000E+00 -0.95412326924E+02  0.95412326924E+02  0.00000000000E+00 0. -1.
         23    2    1    2    0    0  0.00000000000E+00  0.00000000000E+00 -0.75535654195E+02  0.11528899965E+03  0.87097177833E+02 0.  0.
        -13    1    3    3    0    0 -0.39371528743E+02  0.15049186032E+02 -0.52261050328E+02  0.67140246181E+02  0.00000000000E+00 0. -1.
         13    1    3    3    0    0  0.39371528743E+02 -0.15049186032E+02 -0.23274603866E+02  0.48148753473E+02  0.00000000000E+00 0.  1.
<mgrwt>
<rscale>  0 0.87097178E+02</rscale>
<asrwt>0</asrwt>
<pdfrwt beam="2">  1        1 0.14678819E-01 0.87097178E+02</pdfrwt>
<pdfrwt beam="1">  1       -1 0.30579497E-02 0.87097178E+02</pdfrwt>
<totfact> 0.11738382E+05</totfact>
</mgrwt>
</event>
<event>
 5    1  0.6027538E+000  0.9264134E+02  0.7546771E-02  0.1296578E+00
          1   -1    0    0  501    0  0.00000000000E+00  0.00000000000E+00  0.19092674280E+03  0.19092674280E+03  0.00000000000E+00 0. -1.
         -1   -1    0    0    0  501 -0.00000000000E+00 -0.00000000000E+00 -0.11237841308E+02  0.11237841308E+02  0.00000000000E+00 0.  1.
         23    2    1    2    0    0  0.00000000000E+00  0.00000000000E+00  0.17968890149E+03  0.20216458411E+03  0.92641339304E+02 0.  0.
        -13    1    3    3    0    0 -0.47405829156E+01  0.41711204923E+02  0.47120298506E+02  0.63108004832E+02  0.00000000000E+00 0.  1.
         13    1    3    3    0    0  0.47405829156E+01 -0.41711204923E+02  0.13256860299E+03  0.13905657928E+03  0.00000000000E+00 0. -1.
<mgrwt>
<rscale>  0 0.92641339E+02</rscale>
<asrwt>0</asrwt>
<pdfrwt beam="1">  1        1 0.29373343E-01 0.92641339E+02</pdfrwt>
<pdfrwt beam="2">  1       -1 0.17288988E-02 0.92641339E+02</pdfrwt>
<totfact> 0.11242615E+05</totfact>
</mgrwt>
</event>
<event>
 5    1  0.6027538E+000  0.8778163E+02  0.7546771E-02  0.1308314E+00
          2   -1    0    0  501    0  0.00000000000E+00  0.00000000000E+00  0.28162045139E+02  0.28162045139E+02  0.00000000000E+00 0. -1.
         -2   -1    0    0    0  501 -0.00000000000E+00 -0.00000000000E+00 -0.68404255366E+02  0.68404255366E+02  0.00000000000E+00 0.  1.
         23    2    1    2    0    0  0.00000000000E+00  0.00000000000E+00 -0.40242210227E+02  0.96566300504E+02  0.87781631958E+02 0.  0.
        -13    1    3    3    0    0 -0.12612339791E+02  0.41553155074E+02 -0.27136431809E+02  0.51206657213E+02  0.00000000000E+00 0. -1.
         13    1    3    3    0    0  0.12612339791E+02 -0.41553155074E+02 -0.13105778419E+02  0.45359643292E+02  0.00000000000E+00 0.  1.
<mgrwt>
<rscale>  0 0.87781632E+02</rscale>
<asrwt>0</asrwt>
<pdfrwt beam="1">  1        2 0.43326223E-02 0.87781632E+02</pdfrwt>
<pdfrwt beam="2">  1       -2 0.10523732E-01 0.87781632E+02</pdfrwt>
<totfact> 0.97347270E+04</totfact>
</mgrwt>
</event>
<event>
 5    1  0.6027538E+000  0.8973824E+02  0.7546771E-02  0.1303487E+00
          2   -1    0    0  501    0  0.00000000000E+00  0.00000000000E+00  0.44101278306E+02  0.44101278306E+02  0.00000000000E+00 0. -1.
         -2   -1    0    0    0  501 -0.00000000000E+00 -0.00000000000E+00 -0.45650334531E+02  0.45650334531E+02  0.00000000000E+00 0.  1.
         23    2    1    2    0    0  0.00000000000E+00  0.00000000000E+00 -0.15490562254E+01  0.89751612836E+02  0.89738243974E+02 0.  0.
        -13    1    3    3    0    0  0.60043096990E+01  0.25763166903E+02 -0.37021417323E+02  0.45501404863E+02  0.00000000000E+00 0.  1.
         13    1    3    3    0    0 -0.60043096990E+01 -0.25763166903E+02  0.35472361098E+02  0.44250207974E+02  0.00000000000E+00 0. -1.
<mgrwt>
<rscale>  0 0.89738244E+02</rscale>
<asrwt>0</asrwt>
<pdfrwt beam="1">  1        2 0.67848121E-02 0.89738244E+02</pdfrwt>
<pdfrwt beam="2">  1       -2 0.70231284E-02 0.89738244E+02</pdfrwt>
<totfact> 0.10239733E+05</totfact>
</mgrwt>
</event>
<event>
 5    1  0.6027538E+000  0.9132373E+02  0.7546771E-02  0.1299677E+00
          2   -1    0    0  501    0  0.00000000000E+00  0.00000000000E+00  0.72332960487E+02  0.72332960487E+02  0.00000000000E+00 0. -1.
         -2   -1    0    0    0  501 -0.00000000000E+00 -0.00000000000E+00 -0.28825116015E+02  0.28825116015E+02  0.00000000000E+00 0.  1.
         23    2    1    2    0    0  0.00000000000E+00  0.00000000000E+00  0.43507844472E+02  0.10115807650E+03  0.91323731368E+02 0.  0.
        -13    1    3    3    0    0  0.28780475314E+02  0.44087890619E+01  0.60716361390E+02  0.67336689262E+02  0.00000000000E+00 0. -1.
         13    1    3    3    0    0 -0.28780475314E+02 -0.44087890619E+01 -0.17208516918E+02  0.33821387240E+02  0.00000000000E+00 0.  1.
<mgrwt>
<rscale>  0 0.91323731E+02</rscale>
<asrwt>0</asrwt>
<pdfrwt beam="1">  1        2 0.11128148E-01 0.91323731E+02</pdfrwt>
<pdfrwt beam="2">  1       -2 0.44346333E-02 0.91323731E+02</pdfrwt>
<totfact> 0.11113131E+05</totfact>
</mgrwt>
</event>
<event>
 5    1  0.6027538E+000  0.9007521E+02  0.7546771E-02  0.1302670E+00
          1   -1    0    0  501    0  0.00000000000E+00  0.00000000000E+00  0.12656646334E+02  0.12656646334E+02  0.00000000000E+00 0. -1.
         -1   -1    0    0    0  501 -0.00000000000E+00 -0.00000000000E+00 -0.16026249704E+03  0.16026249704E+03  0.00000000000E+00 0.  1.
         23    2    1    2    0    0  0.00000000000E+00  0.00000000000E+00 -0.14760585071E+03  0.17291914338E+03  0.90075207370E+02 0.  0.
        -13    1    3    3    0    0  0.10910192409E+02 -0.36909009054E+02 -0.11870460921E+03  0.12478818652E+03  0.00000000000E+00 0.  1.
         13    1    3    3    0    0 -0.10910192409E+02  0.36909009054E+02 -0.28901241501E+02  0.48130956858E+02  0.00000000000E+00 0. -1.
<mgrwt>
<rscale>  0 0.90075207E+02</rscale>
<asrwt>0</asrwt>
<pdfrwt beam="1">  1        1 0.19471763E-02 0.90075207E+02</pdfrwt>
<pdfrwt beam="2">  1       -1 0.24655769E-01 0.90075207E+02</pdfrwt>
<totfact> 0.75973081E+04</totfact>
</mgrwt>
</event>
<event>
 5    1  0.6027538E+000  0.8802693E+02  0.7546771E-02  0.1307701E+00
          3   -1    0    0  501    0  0.00000000000E+00  0.00000000000E+00  0.51113930870E+02  0.51113930870E+02  0.00000000000E+00 0. -1.
         -3   -1    0    0    0  501 -0.00000000000E+00 -0.00000000000E+00 -0.37899357348E+02  0.37899357348E+02  0.00000000000E+00 0.  1.
         23    2    1    2    0    0  0.00000000000E+00  0.00000000000E+00  0.13214573522E+02  0.89013288219E+02  0.88026930687E+02 0.  0.
        -13    1    3    3    0    0 -0.54574377736E+01 -0.31761519503E+02  0.36919962698E+02  0.49006748451E+02  0.00000000000E+00 0. -1.
         13    1    3    3    0    0  0.54574377736E+01  0.31761519503E+02 -0.23705389175E+02  0.40006539767E+02  0.00000000000E+00 0.  1.
<mgrwt>
<rscale>  0 0.88026931E+02</rscale>
<asrwt>0</asrwt>
<pdfrwt beam="1">  1        3 0.78636817E-02 0.88026931E+02</pdfrwt>
<pdfrwt beam="2">  1       -3 0.58306704E-02 0.88026931E+02</pdfrwt>
<totfact> 0.39062990E+04</totfact>
</mgrwt>
</event>
<event>
 5    1  0.6027538E+000  0.8967505E+02  0.7546771E-02  0.1303641E+00
          1   -1    0    0  501    0  0.00000000000E+00  0.00000000000E+00  0.61363789991E+02  0.61363789991E+02  0.00000000000E+00 0. -1.
         -1   -1    0    0    0  501 -0.00000000000E+00 -0.00000000000E+00 -0.32762050272E+02  0.32762050272E+02  0.00000000000E+00 0.  1.
         23    2    1    2    0    0  0.00000000000E+00  0.00000000000E+00  0.28601739720E+02  0.94125840263E+02  0.89675048315E+02 0.  0.
        -13    1    3    3    0    0 -0.10414239527E+02 -0.45799718928E-01  0.60076700545E+02  0.60972685941E+02  0.00000000000E+00 0. -1.
         13    1    3    3    0    0  0.10414239527E+02  0.45799718928E-01 -0.31474960825E+02  0.33153154322E+02  0.00000000000E+00 0.  1.
<mgrwt>
<rscale>  0 0.89675048E+02</rscale>
<asrwt>0</asrwt>
<pdfrwt beam="1">  1        1 0.94405831E-02 0.89675048E+02</pdfrwt>
<pdfrwt beam="2">  1       -1 0.50403154E-02 0.89675048E+02</pdfrwt>
<totfact> 0.10124544E+05</totfact>
</mgrwt>
</event>
<event>
 5    1  0.6027538E+000  0.9159555E+02  0.7546771E-02  0.1299033E+00
         -4   -1    0    0    0  501 -0.00000000000E+00  0.00000000000E+00  0.13705370223E+03  0.13705370223E+03  0.00000000000E+00 0. -1.
          4   -1    0    0  501    0  0.00000000000E+00 -0.00000000000E+00 -0.15303755583E+02  0.15303755583E+02  0.00000000000E+00 0.  1.
         23    2    1    2    0    0  0.00000000000E+00  0.00000000000E+00  0.12174994664E+03  0.15235745781E+03  0.91595553617E+02 0.  0.
        -13    1    3    3    0    0  0.19439588502E+02  0.38530123982E+02  0.35377686584E+02  0.55803662632E+02  0.00000000000E+00 0.  1.
         13    1    3    3    0    0 -0.19439588502E+02 -0.38530123982E+02  0.86372260061E+02  0.96553795177E+02  0.00000000000E+00 0. -1.
<mgrwt>
<rscale>  0 0.91595554E+02</rscale>
<asrwt>0</asrwt>
<pdfrwt beam="2">  1        4 0.23544240E-02 0.91595554E+02</pdfrwt>
<pdfrwt beam="1">  1       -4 0.21085184E-01 0.91595554E+02</pdfrwt>
<totfact> 0.23266162E+04</totfact>
</mgrwt>
</event>
<event>
 5    1  0.6027538E+000  0.9249580E+02  0.7546771E-02  0.1296918E+00
          2   -1    0    0  501    0  0.00000000000E+00  0.00000000000E+00  0.36178087953E+02  0.36178087953E+02  0.00000000000E+00 0. -1.
         -2   -1    0    0    0  501 -0.00000000000E+00 -0.00000000000E+00 -0.59120549825E+02  0.59120549825E+02  0.00000000000E+00 0.  1.
         23    2    1    2    0    0  0.00000000000E+00  0.00000000000E+00 -0.22942461872E+02  0.95298637777E+02  0.92495804259E+02 0.  0.
        -13    1    3    3    0    0 -0.38809630508E+02 -0.24718893349E+02 -0.16265995033E+02  0.48803623872E+02  0.00000000000E+00 0.  1.
         13    1    3    3    0    0  0.38809630508E+02  0.24718893349E+02 -0.66764668397E+01  0.46495013906E+02  0.00000000000E+00 0. -1.
<mgrwt>
<rscale>  0 0.92495804E+02</rscale>
<asrwt>0</asrwt>
<pdfrwt beam="1">  1        2 0.55658597E-02 0.92495804E+02</pdfrwt>
<pdfrwt beam="2">  1       -2 0.90954692E-02 0.92495804E+02</pdfrwt>
<totfact> 0.89109805E+04</totfact>
</mgrwt>
</event>
<event>
 5    1  0.6027538E+000  0.9291224E+02  0.7546771E-02  0.1295949E+00
         -2   -1    0    0    0  501 -0.00000000000E+00  0.00000000000E+00  0.20376928276E+02  0.20376928276E+02  0.00000000000E+00 0.  1.
          2   -1    0    0  501    0  0.00000000000E+00 -0.00000000000E+00 -0.10591248431E+03  0.10591248431E+03  0.00000000000E+00 0. -1.
         23    2    1    2    0    0  0.00000000000E+00  0.00000000000E+00 -0.85535556031E+02  0.12628941258E+03  0.92912240232E+02 0.  0.
        -13    1    3    3    0    0  0.25644801108E+02 -0.37952686585E+02 -0.32229655747E+02  0.56007258033E+02  0.00000000000E+00 0.  1.
         13    1    3    3    0    0 -0.25644801108E+02  0.37952686585E+02 -0.53305900284E+02  0.70282154549E+02  0.00000000000E+00 0. -1.
<mgrwt>
<rscale>  0 0.92912240E+02</rscale>
<asrwt>0</asrwt>
<pdfrwt beam="2">  1        2 0.16294228E-01 0.92912240E+02</pdfrwt>
<pdfrwt beam="1">  1       -2 0.31349120E-02 0.92912240E+02</pdfrwt>
<totfact> 0.11854284E+05</totfact>
</mgrwt>
</event>
<event>
 5    1  0.6027538E+000  0.9707968E+02  0.7546771E-02  0.1286560E+00
          1   -1    0    0  501    0  0.00000000000E+00  0.00000000000E+00  0.10725770693E+03  0.10725770693E+03  0.00000000000E+00 0. -1.
         -1   -1    0    0    0  501 -0.00000000000E+00 -0.00000000000E+00 -0.21966871471E+02  0.21966871471E+02  0.00000000000E+00 0.  1.
         23    2    1    2    0    0  0.00000000000E+00  0.00000000000E+00  0.85290835458E+02  0.12922457840E+03  0.97079684022E+02 0.  0.
        -13    1    3    3    0    0  0.20007851619E+02 -0.19800203506E+02  0.95283613789E+02  0.99354563267E+02  0.00000000000E+00 0. -1.
         13    1    3    3    0    0 -0.20007851619E+02  0.19800203506E+02 -0.99927783311E+01  0.29870015134E+02  0.00000000000E+00 0.  1.
<mgrwt>
<rscale>  0 0.97079684E+02</rscale>
<asrwt>0</asrwt>
<pdfrwt beam="1">  1        1 0.16501185E-01 0.97079684E+02</pdfrwt>
<pdfrwt beam="2">  1       -1 0.33795187E-02 0.97079684E+02</pdfrwt>
<totfact> 0.89031117E+04</totfact>
</mgrwt>
</event>
<event>
 5    1  0.6027538E+000  0.9312445E+02  0.7546771E-02  0.1295457E+00
          2   -1    0    0  501    0  0.00000000000E+00  0.00000000000E+00  0.28978360108E+03  0.28978360108E+03  0.00000000000E+00 0.  1.
         -2   -1    0    0    0  501 -0.00000000000E+00 -0.00000000000E+00 -0.74815859014E+01  0.74815859014E+01  0.00000000000E+00 0. -1.
         23    2    1    2    0    0  0.00000000000E+00  0.00000000000E+00  0.28230201518E+03  0.29726518699E+03  0.93124452306E+02 0.  0.
        -13    1    3    3    0    0  0.11462918679E+02  0.42103021101E+02  0.19301479142E+03  0.19788575643E+03  0.00000000000E+00 0.  1.
         13    1    3    3    0    0 -0.11462918679E+02 -0.42103021101E+02  0.89287223764E+02  0.99379430558E+02  0.00000000000E+00 0. -1.
<mgrwt>
<rscale>  0 0.93124452E+02</rscale>
<asrwt>0</asrwt>
<pdfrwt beam="1">  1        2 0.44582084E-01 0.93124452E+02</pdfrwt>
<pdfrwt beam="2">  1       -2 0.11510134E-02 0.93124452E+02</pdfrwt>
<totfact> 0.16760671E+05</totfact>
</mgrwt>
</event>
<event>
 5    1  0.6027538E+000  0.9019800E+02  0.7546771E-02  0.1302373E+00
         -3   -1    0    0    0  501 -0.00000000000E+00  0.00000000000E+00  0.40038749294E+02  0.40038749294E+02  0.00000000000E+00 0.  1.
          3   -1    0    0  501    0  0.00000000000E+00 -0.00000000000E+00 -0.50798786456E+02  0.50798786456E+02  0.00000000000E+00 0. -1.
         23    2    1    2    0    0  0.00000000000E+00  0.00000000000E+00 -0.10760037163E+02  0.90837535750E+02  0.90198001649E+02 0.  0.
        -13    1    3    3    0    0  0.22980218085E+02  0.19121100832E+02  0.28626440538E+02  0.41390578857E+02  0.00000000000E+00 0.  1.
         13    1    3    3    0    0 -0.22980218085E+02 -0.19121100832E+02 -0.39386477701E+02  0.49446956893E+02  0.00000000000E+00 0. -1.
<mgrwt>
<rscale>  0 0.90198002E+02</rscale>
<asrwt>0</asrwt>
<pdfrwt beam="2">  1        3 0.78151979E-02 0.90198002E+02</pdfrwt>
<pdfrwt beam="1">  1       -3 0.61598076E-02 0.90198002E+02</pdfrwt>
<totfact> 0.36418601E+04</totfact>
</mgrwt>
</event>
<event>
 5    1  0.6027538E+000  0.1075205E+03  0.7546771E-02  0.1265232E+00
          1   -1    0    0  501    0  0.00000000000E+00  0.00000000000E+00  0.17240714439E+03  0.17240714439E+03  0.00000000000E+00 0. -1.
         -1   -1    0    0    0  501 -0.00000000000E+00 -0.00000000000E+00 -0.16763605366E+02  0.16763605366E+02  0.00000000000E+00 0.  1.
         23    2    1    2    0    0  0.00000000000E+00  0.00000000000E+00  0.15564353902E+03  0.18917074975E+03  0.10752051582E+03 0.  0.
        -13    1    3    3    0    0 -0.43934659014E+02  0.22469796822E+02  0.40291856795E+02  0.63706983573E+02  0.00000000000E+00 0.  1.
         13    1    3    3    0    0  0.43934659014E+02 -0.22469796822E+02  0.11535168223E+03  0.12546376618E+03  0.00000000000E+00 0. -1.
<mgrwt>
<rscale>  0 0.10752052E+03</rscale>
<asrwt>0</asrwt>
<pdfrwt beam="1">  1        1 0.26524175E-01 0.10752052E+03</pdfrwt>
<pdfrwt beam="2">  1       -1 0.25790163E-02 0.10752052E+03</pdfrwt>
<totfact> 0.73534127E+04</totfact>
</mgrwt>
</event>
<event>
 5    1  0.6027538E+000  0.8952876E+02  0.7546771E-02  0.1303997E+00
         -2   -1    0    0    0  501 -0.00000000000E+00  0.00000000000E+00  0.50930692009E+01  0.50930692009E+01  0.00000000000E+00 0.  1.
          2   -1    0    0  501    0  0.00000000000E+00 -0.00000000000E+00 -0.39344638336E+03  0.39344638336E+03  0.00000000000E+00 0. -1.
         23    2    1    2    0    0  0.00000000000E+00  0.00000000000E+00 -0.38835331416E+03  0.39853945256E+03  0.89528758670E+02 0.  0.
        -13    1    3    3    0    0  0.42454519289E+02 -0.65972172334E+01 -0.13823245771E+03  0.14475538625E+03  0.00000000000E+00 0.  1.
         13    1    3    3    0    0 -0.42454519289E+02  0.65972172334E+01 -0.25012085645E+03  0.25378406631E+03  0.00000000000E+00 0. -1.
<mgrwt>
<rscale>  0 0.89528759E+02</rscale>
<asrwt>0</asrwt>
<pdfrwt beam="2">  1        2 0.60530202E-01 0.89528759E+02</pdfrwt>
<pdfrwt beam="1">  1       -2 0.78354924E-03 0.89528759E+02</pdfrwt>
<totfact> 0.20828168E+05</totfact>
</mgrwt>
</event>
<event>
 5    1  0.6027538E+000  0.9116153E+02  0.7546771E-02  0.1300063E+00
          1   -1    0    0  501    0  0.00000000000E+00  0.00000000000E+00  0.39710329033E+03  0.39710329033E+03  0.00000000000E+00 0. -1.
         -1   -1    0    0    0  501 -0.00000000000E+00 -0.00000000000E+00 -0.52319034483E+01  0.52319034483E+01  0.00000000000E+00 0.  1.
         23    2    1    2    0    0  0.00000000000E+00  0.00000000000E+00  0.39187138688E+03  0.40233519377E+03  0.91161528596E+02 0.  0.
        -13    1    3    3    0    0  0.41860857495E+02  0.18035198429E+02  0.19558535014E+03  0.20082636521E+03  0.00000000000E+00 0. -1.
         13    1    3    3    0    0 -0.41860857495E+02 -0.18035198429E+02  0.19628603674E+03  0.20150882857E+03  0.00000000000E+00 0.  1.
<mgrwt>
<rscale>  0 0.91161529E+02</rscale>
<asrwt>0</asrwt>
<pdfrwt beam="1">  1        1 0.61092790E-01 0.91161529E+02</pdfrwt>
<pdfrwt beam="2">  1       -1 0.80490853E-03 0.91161529E+02</pdfrwt>
<totfact> 0.13479069E+05</totfact>
</mgrwt>
</event>
<event>
 5    1  0.6027538E+000  0.8953727E+02  0.7546771E-02  0.1303976E+00
          2   -1    0    0  501    0  0.00000000000E+00  0.00000000000E+00  0.24422885494E+03  0.24422885494E+03  0.00000000000E+00 0. -1.
         -2   -1    0    0    0  501 -0.00000000000E+00 -0.00000000000E+00 -0.82063623160E+01  0.82063623160E+01  0.00000000000E+00 0.  1.
         23    2    1    2    0    0  0.00000000000E+00  0.00000000000E+00  0.23602249262E+03  0.25243521725E+03  0.89537265350E+02 0.  0.
        -13    1    3    3    0    0 -0.30183788047E+02  0.29146301304E+02  0.74002348408E+02  0.85070062363E+02  0.00000000000E+00 0.  1.
         13    1    3    3    0    0  0.30183788047E+02 -0.29146301304E+02  0.16202014421E+03  0.16736515489E+03  0.00000000000E+00 0. -1.
<mgrwt>
<rscale>  0 0.89537265E+02</rscale>
<asrwt>0</asrwt>
<pdfrwt beam="1">  1        2 0.37573664E-01 0.89537265E+02</pdfrwt>
<pdfrwt beam="2">  1       -2 0.12625175E-02 0.89537265E+02</pdfrwt>
<totfact> 0.17469425E+05</totfact>
</mgrwt>
</event>
<event>
 5    1  0.6027538E+000  0.8859113E+02  0.7546771E-02  0.1306300E+00
         -1   -1    0    0    0  501 -0.00000000000E+00  0.00000000000E+00  0.67041075794E+02  0.67041075794E+02  0.00000000000E+00 0.  1.
          1   -1    0    0  501    0  0.00000000000E+00 -0.00000000000E+00 -0.29267091353E+02  0.29267091353E+02  0.00000000000E+00 0. -1.
         23    2    1    2    0    0  0.00000000000E+00  0.00000000000E+00  0.37773984441E+02  0.96308167147E+02  0.88591134763E+02 0.  0.
        -13    1    3    3    0    0  0.26992292555E+02 -0.10949193065E+02 -0.17390983169E+02  0.33925137903E+02  0.00000000000E+00 0. -1.
         13    1    3    3    0    0 -0.26992292555E+02  0.10949193065E+02  0.55164967610E+02  0.62383029243E+02  0.00000000000E+00 0.  1.
<mgrwt>
<rscale>  0 0.88591135E+02</rscale>
<asrwt>0</asrwt>
<pdfrwt beam="2">  1        1 0.45026295E-02 0.88591135E+02</pdfrwt>
<pdfrwt beam="1">  1       -1 0.10314012E-01 0.88591135E+02</pdfrwt>
<totfact> 0.93756096E+04</totfact>
</mgrwt>
</event>
<event>
 5    1  0.6027538E+000  0.9336779E+02  0.7546771E-02  0.1294895E+00
         -2   -1    0    0    0  501 -0.00000000000E+00  0.00000000000E+00  0.11603892702E+02  0.11603892702E+02  0.00000000000E+00 0. -1.
          2   -1    0    0  501    0  0.00000000000E+00 -0.00000000000E+00 -0.18781506870E+03  0.18781506870E+03  0.00000000000E+00 0.  1.
         23    2    1    2    0    0  0.00000000000E+00  0.00000000000E+00 -0.17621117600E+03  0.19941896140E+03  0.93367786845E+02 0.  0.
        -13    1    3    3    0    0 -0.19098924795E+01 -0.45685830263E+02 -0.10820330924E+03  0.11746828894E+03  0.00000000000E+00 0.  1.
         13    1    3    3    0    0  0.19098924795E+01  0.45685830263E+02 -0.68007866762E+02  0.81950672466E+02  0.00000000000E+00 0. -1.
<mgrwt>
<rscale>  0 0.93367787E+02</rscale>
<asrwt>0</asrwt>
<pdfrwt beam="2">  1        2 0.28894626E-01 0.93367787E+02</pdfrwt>
<pdfrwt beam="1">  1       -2 0.17852143E-02 0.93367787E+02</pdfrwt>
<totfact> 0.14182075E+05</totfact>
</mgrwt>
</event>
<event>
 5    1  0.6027538E+000  0.1188117E+03  0.7546771E-02  0.1245070E+00
         -1   -1    0    0    0  501 -0.00000000000E+00  0.00000000000E+00  0.13437598701E+03  0.13437598701E+03  0.00000000000E+00 0.  1.
          1   -1    0    0  501    0  0.00000000000E+00 -0.00000000000E+00 -0.26262536290E+02  0.26262536290E+02  0.00000000000E+00 0. -1.
         23    2    1    2    0    0  0.00000000000E+00  0.00000000000E+00  0.10811345072E+03  0.16063852330E+03  0.11881168689E+03 0.  0.
        -13    1    3    3    0    0  0.40447574009E+02 -0.38976801637E+02  0.27914457720E+02  0.62724909397E+02  0.00000000000E+00 0. -1.
         13    1    3    3    0    0 -0.40447574009E+02  0.38976801637E+02  0.80198992997E+02  0.97913613899E+02  0.00000000000E+00 0.  1.
<mgrwt>
<rscale>  0 0.11881169E+03</rscale>
<asrwt>0</asrwt>
<pdfrwt beam="2">  1        1 0.40403903E-02 0.11881169E+03</pdfrwt>
<pdfrwt beam="1">  1       -1 0.20673228E-01 0.11881169E+03</pdfrwt>
<totfact> 0.38475930E+04</totfact>
</mgrwt>
</event>
<event>
 5    1  0.6027538E+000  0.9075854E+02  0.7546771E-02  0.1301025E+00
         -1   -1    0    0    0  501 -0.00000000000E+00  0.00000000000E+00  0.68101669901E+01  0.68101669901E+01  0.00000000000E+00 0.  1.
          1   -1    0    0  501    0  0.00000000000E+00 -0.00000000000E+00 -0.30238291063E+03  0.30238291063E+03  0.00000000000E+00 0. -1.
         23    2    1    2    0    0  0.00000000000E+00  0.00000000000E+00 -0.29557274364E+03  0.30919307762E+03  0.90758539353E+02 0.  0.
        -13    1    3    3    0    0 -0.35639435219E+02 -0.13970199180E+02 -0.64760318194E+02  0.75227884594E+02  0.00000000000E+00 0.  1.
         13    1    3    3    0    0  0.35639435219E+02  0.13970199180E+02 -0.23081242545E+03  0.23396519303E+03  0.00000000000E+00 0. -1.
<mgrwt>
<rscale>  0 0.90758539E+02</rscale>
<asrwt>0</asrwt>
<pdfrwt beam="2">  1        1 0.46520453E-01 0.90758539E+02</pdfrwt>
<pdfrwt beam="1">  1       -1 0.10477179E-02 0.90758539E+02</pdfrwt>
<totfact> 0.12989604E+05</totfact>
</mgrwt>
</event>
<event>
 5    1  0.6027538E+000  0.9225858E+02  0.7546771E-02  0.1297473E+00
         -1   -1    0    0    0  501 -0.00000000000E+00  0.00000000000E+00  0.33740493422E+02  0.33740493422E+02  0.00000000000E+00 0.  1.
          1   -1    0    0  501    0  0.00000000000E+00 -0.00000000000E+00 -0.63066993576E+02  0.63066993576E+02  0.00000000000E+00 0. -1.
         23    2    1    2    0    0  0.00000000000E+00  0.00000000000E+00 -0.29326500155E+02  0.96807486998E+02  0.92258581864E+02 0.  0.
        -13    1    3    3    0    0  0.38031698240E+02  0.16166704862E+02  0.68446843648E+01  0.41888209811E+02  0.00000000000E+00 0. -1.
         13    1    3    3    0    0 -0.38031698240E+02 -0.16166704862E+02 -0.36171184519E+02  0.54919277186E+02  0.00000000000E+00 0.  1.
<mgrwt>
<rscale>  0 0.92258582E+02</rscale>
<asrwt>0</asrwt>
<pdfrwt beam="2">  1        1 0.97026144E-02 0.92258582E+02</pdfrwt>
<pdfrwt beam="1">  1       -1 0.51908452E-02 0.92258582E+02</pdfrwt>
<totfact> 0.93977898E+04</totfact>
</mgrwt>
</event>
<event>
 5    1  0.6027538E+000  0.8963955E+02  0.7546771E-02  0.1303727E+00
         -2   -1    0    0    0  501 -0.00000000000E+00  0.00000000000E+00  0.89434525873E+02  0.89434525873E+02  0.00000000000E+00 0.  1.
          2   -1    0    0  501    0  0.00000000000E+00 -0.00000000000E+00 -0.22461259929E+02  0.22461259929E+02  0.00000000000E+00 0. -1.
         23    2    1    2    0    0  0.00000000000E+00  0.00000000000E+00  0.66973265944E+02  0.11189578580E+03  0.89639547796E+02 0.  0.
        -13    1    3    3    0    0  0.20542729848E+02 -0.25622352697E+02 -0.45871809848E+01  0.33159477329E+02  0.00000000000E+00 0. -1.
         13    1    3    3    0    0 -0.20542729848E+02  0.25622352697E+02  0.71560446929E+02  0.78736308474E+02  0.00000000000E+00 0.  1.
<mgrwt>
<rscale>  0 0.89639548E+02</rscale>
<asrwt>0</asrwt>
<pdfrwt beam="2">  1        2 0.34555785E-02 0.89639548E+02</pdfrwt>
<pdfrwt beam="1">  1       -2 0.13759158E-01 0.89639548E+02</pdfrwt>
<totfact> 0.85992740E+04</totfact>
</mgrwt>
</event>
<event>
 5    1  0.6027538E+000  0.9148014E+02  0.7546771E-02  0.1299306E+00
         -4   -1    0    0    0  501 -0.00000000000E+00  0.00000000000E+00  0.66190188267E+02  0.66190188267E+02  0.00000000000E+00 0.  1.
          4   -1    0    0  501    0  0.00000000000E+00 -0.00000000000E+00 -0.31608221031E+02  0.31608221031E+02  0.00000000000E+00 0. -1.
         23    2    1    2    0    0  0.00000000000E+00  0.00000000000E+00  0.34581967235E+02  0.97798409298E+02  0.91480142126E+02 0.  0.
        -13    1    3    3    0    0 -0.88514477986E+01  0.44748021477E+02  0.20903820931E+02  0.50176720536E+02  0.00000000000E+00 0. -1.
         13    1    3    3    0    0  0.88514477986E+01 -0.44748021477E+02  0.13678146305E+02  0.47621688762E+02  0.00000000000E+00 0.  1.
<mgrwt>
<rscale>  0 0.91480142E+02</rscale>
<asrwt>0</asrwt>
<pdfrwt beam="2">  1        4 0.48628032E-02 0.91480142E+02</pdfrwt>
<pdfrwt beam="1">  1       -4 0.10183106E-01 0.91480142E+02</pdfrwt>
<totfact> 0.26356308E+04</totfact>
</mgrwt>
</event>
<event>
 5    1  0.6027538E+000  0.9061624E+02  0.7546771E-02  0.1301366E+00
         -2   -1    0    0    0  501 -0.00000000000E+00  0.00000000000E+00  0.38815448476E+02  0.38815448476E+02  0.00000000000E+00 0.  1.
          2   -1    0    0  501    0  0.00000000000E+00 -0.00000000000E+00 -0.52886822340E+02  0.52886822340E+02  0.00000000000E+00 0. -1.
         23    2    1    2    0    0  0.00000000000E+00  0.00000000000E+00 -0.14071373863E+02  0.91702270816E+02  0.90616239772E+02 0.  0.
        -13    1    3    3    0    0  0.41259319458E+01  0.45066471987E+02 -0.92564154041E+01  0.46191897968E+02  0.00000000000E+00 0. -1.
         13    1    3    3    0    0 -0.41259319458E+01 -0.45066471987E+02 -0.48149584590E+01  0.45510372848E+02  0.00000000000E+00 0.  1.
<mgrwt>
<rscale>  0 0.90616240E+02</rscale>
<asrwt>0</asrwt>
<pdfrwt beam="2">  1        2 0.81364342E-02 0.90616240E+02</pdfrwt>
<pdfrwt beam="1">  1       -2 0.59716075E-02 0.90616240E+02</pdfrwt>
<totfact> 0.10438745E+05</totfact>
</mgrwt>
</event>
<event>
 5    1  0.6027538E+000  0.8770506E+02  0.7546771E-02  0.1308506E+00
         -2   -1    0    0    0  501 -0.00000000000E+00  0.00000000000E+00  0.16656825487E+03  0.16656825487E+03  0.00000000000E+00 0.  1.
          2   -1    0    0  501    0  0.00000000000E+00 -0.00000000000E+00 -0.11545083560E+02  0.11545083560E+02  0.00000000000E+00 0. -1.
         23    2    1    2    0    0  0.00000000000E+00  0.00000000000E+00  0.15502317131E+03  0.17811333843E+03  0.87705060766E+02 0.  0.
        -13    1    3    3    0    0 -0.22449950511E+02 -0.20110797456E+02  0.14219891365E+03  0.14535809402E+03  0.00000000000E+00 0.  1.
         13    1    3    3    0    0  0.22449950511E+02  0.20110797456E+02  0.12824257661E+02  0.32755244417E+02  0.00000000000E+00 0. -1.
<mgrwt>
<rscale>  0 0.87705061E+02</rscale>
<asrwt>0</asrwt>
<pdfrwt beam="2">  1        2 0.17761668E-02 0.87705061E+02</pdfrwt>
<pdfrwt beam="1">  1       -2 0.25625884E-01 0.87705061E+02</pdfrwt>
<totfact> 0.74116585E+04</totfact>
</mgrwt>
</event>
<event>
 5    1  0.6027538E+000  0.9228244E+02  0.7546771E-02  0.1297417E+00
          1   -1    0    0  501    0  0.00000000000E+00  0.00000000000E+00  0.67009781549E+01  0.67009781549E+01  0.00000000000E+00 0.  1.
         -1   -1    0    0    0  501 -0.00000000000E+00 -0.00000000000E+00 -0.31771664191E+03  0.31771664191E+03  0.00000000000E+00 0. -1.
         23    2    1    2    0    0  0.00000000000E+00  0.00000000000E+00 -0.31101566375E+03  0.32441762006E+03  0.92282442032E+02 0.  0.
        -13    1    3    3    0    0  0.28994177800E+02 -0.34603536931E+02 -0.18903332364E+03  0.19434933640E+03  0.00000000000E+00 0. -1.
         13    1    3    3    0    0 -0.28994177800E+02  0.34603536931E+02 -0.12198234012E+03  0.13006828366E+03  0.00000000000E+00 0.  1.
<mgrwt>
<rscale>  0 0.92282442E+02</rscale>
<asrwt>0</asrwt>
<pdfrwt beam="1">  1        1 0.10309201E-02 0.92282442E+02</pdfrwt>
<pdfrwt beam="2">  1       -1 0.48879466E-01 0.92282442E+02</pdfrwt>
<totfact> 0.57361205E+04</totfact>
</mgrwt>
</event>
<event>
 5    1  0.6027538E+000  0.9182486E+02  0.7546771E-02  0.1298492E+00
         -2   -1    0    0    0  501 -0.00000000000E+00  0.00000000000E+00  0.21622227257E+03  0.21622227257E+03  0.00000000000E+00 0.  1.
          2   -1    0    0  501    0  0.00000000000E+00 -0.00000000000E+00 -0.97490010039E+01  0.97490010039E+01  0.00000000000E+00 0. -1.
         23    2    1    2    0    0  0.00000000000E+00  0.00000000000E+00  0.20647327157E+03  0.22597127358E+03  0.91824858342E+02 0.  0.
        -13    1    3    3    0    0  0.12165386425E+02  0.38925754419E+02  0.15513410075E+03  0.16040511276E+03  0.00000000000E+00 0. -1.
         13    1    3    3    0    0 -0.12165386425E+02 -0.38925754419E+02  0.51339170822E+02  0.65566160820E+02  0.00000000000E+00 0.  1.
<mgrwt>
<rscale>  0 0.91824858E+02</rscale>
<asrwt>0</asrwt>
<pdfrwt beam="2">  1        2 0.14998465E-02 0.91824858E+02</pdfrwt>
<pdfrwt beam="1">  1       -2 0.33264962E-01 0.91824858E+02</pdfrwt>
<totfact> 0.59117492E+04</totfact>
</mgrwt>
</event>
<event>
 5    1  0.6027538E+000  0.9033243E+02  0.7546771E-02  0.1302049E+00
          1   -1    0    0  501    0  0.00000000000E+00  0.00000000000E+00  0.17284767541E+03  0.17284767541E+03  0.00000000000E+00 0. -1.
         -1   -1    0    0    0  501 -0.00000000000E+00 -0.00000000000E+00 -0.11802223822E+02  0.11802223822E+02  0.00000000000E+00 0.  1.
         23    2    1    2    0    0  0.00000000000E+00  0.00000000000E+00  0.16104545159E+03  0.18464989923E+03  0.90332429441E+02 0.  0.
        -13    1    3    3    0    0 -0.44532003594E+02  0.75088215280E+01  0.81975640772E+02  0.93592133349E+02  0.00000000000E+00 0.  1.
         13    1    3    3    0    0  0.44532003594E+02 -0.75088215280E+01  0.79069810814E+02  0.91057765880E+02  0.00000000000E+00 0. -1.
<mgrwt>
<rscale>  0 0.90332429E+02</rscale>
<asrwt>0</asrwt>
<pdfrwt beam="1">  1        1 0.26591948E-01 0.90332429E+02</pdfrwt>
<pdfrwt beam="2">  1       -1 0.18157269E-02 0.90332429E+02</pdfrwt>
<totfact> 0.11804977E+05</totfact>
</mgrwt>
</event>
<event>
 5    1  0.6027538E+000  0.9054812E+02  0.7546771E-02  0.1301530E+00
         -2   -1    0    0    0  501 -0.00000000000E+00  0.00000000000E+00  0.82088147208E+02  0.82088147208E+02  0.00000000000E+00 0.  1.
          2   -1    0    0  501    0  0.00000000000E+00 -0.00000000000E+00 -0.24969992405E+02  0.24969992405E+02  0.00000000000E+00 0. -1.
         23    2    1    2    0    0  0.00000000000E+00  0.00000000000E+00  0.57118154803E+02  0.10705813961E+03  0.90548117868E+02 0.  0.
        -13    1    3    3    0    0  0.11486502969E+02 -0.88451498962E+01 -0.22151401728E+02  0.26473779966E+02  0.00000000000E+00 0. -1.
         13    1    3    3    0    0 -0.11486502969E+02  0.88451498962E+01  0.79269556531E+02  0.80584359648E+02  0.00000000000E+00 0.  1.
<mgrwt>
<rscale>  0 0.90548118E+02</rscale>
<asrwt>0</asrwt>
<pdfrwt beam="2">  1        2 0.38415373E-02 0.90548118E+02</pdfrwt>
<pdfrwt beam="1">  1       -2 0.12628946E-01 0.90548118E+02</pdfrwt>
<totfact> 0.85923178E+04</totfact>
</mgrwt>
</event>
<event>
 5    1  0.6027538E+000  0.9079996E+02  0.7546771E-02  0.1300926E+00
         -1   -1    0    0    0  501 -0.00000000000E+00  0.00000000000E+00  0.74308966376E+02  0.74308966376E+02  0.00000000000E+00 0.  1.
          1   -1    0    0  501    0  0.00000000000E+00 -0.00000000000E+00 -0.27737676890E+02  0.27737676890E+02  0.00000000000E+00 0. -1.
         23    2    1    2    0    0  0.00000000000E+00  0.00000000000E+00  0.46571289486E+02  0.10204664327E+03  0.90799958136E+02 0.  0.
        -13    1    3    3    0    0 -0.35594478431E+01 -0.30012512990E+02  0.61360157996E+02  0.68399485336E+02  0.00000000000E+00 0.  1.
         13    1    3    3    0    0  0.35594478431E+01  0.30012512990E+02 -0.14788868510E+02  0.33647157930E+02  0.00000000000E+00 0. -1.
<mgrwt>
<rscale>  0 0.90799958E+02</rscale>
<asrwt>0</asrwt>
<pdfrwt beam="2">  1        1 0.42673350E-02 0.90799958E+02</pdfrwt>
<pdfrwt beam="1">  1       -1 0.11432149E-01 0.90799958E+02</pdfrwt>
<totfact> 0.86610877E+04</totfact>
</mgrwt>
</event>
<event>
 5    1  0.6027538E+000  0.9113579E+02  0.7546771E-02  0.1300124E+00
          1   -1    0    0  501    0  0.00000000000E+00  0.00000000000E+00  0.23951592996E+02  0.23951592996E+02  0.00000000000E+00 0. -1.
         -1   -1    0    0    0  501 -0.00000000000E+00 -0.00000000000E+00 -0.86692893316E+02  0.86692893316E+02  0.00000000000E+00 0.  1.
         23    2    1    2    0    0  0.00000000000E+00  0.00000000000E+00 -0.62741300319E+02  0.11064448631E+03  0.91135786525E+02 0.  0.
        -13    1    3    3    0    0  0.38183370201E+02  0.13702698468E+02 -0.61748671824E+01  0.41034896002E+02  0.00000000000E+00 0. -1.
         13    1    3    3    0    0 -0.38183370201E+02 -0.13702698468E+02 -0.56566433137E+02  0.69609590310E+02  0.00000000000E+00 0.  1.
<mgrwt>
<rscale>  0 0.91135787E+02</rscale>
<asrwt>0</asrwt>
<pdfrwt beam="1">  1        1 0.36848604E-02 0.91135787E+02</pdfrwt>
<pdfrwt beam="2">  1       -1 0.13337368E-01 0.91135787E+02</pdfrwt>
<totfact> 0.83587006E+04</totfact>
</mgrwt>
</event>
<event>
 5    1  0.6027538E+000  0.9215013E+02  0.7546771E-02  0.1297727E+00
          1   -1    0    0  501    0  0.00000000000E+00  0.00000000000E+00  0.40599115077E+02  0.40599115077E+02  0.00000000000E+00 0. -1.
         -1   -1    0    0    0  501 -0.00000000000E+00 -0.00000000000E+00 -0.52289602460E+02  0.52289602460E+02  0.00000000000E+00 0.  1.
         23    2    1    2    0    0  0.00000000000E+00  0.00000000000E+00 -0.11690487383E+02  0.92888717537E+02  0.92150129411E+02 0.  0.
        -13    1    3    3    0    0 -0.29639651800E+02 -0.29220083919E+02 -0.25766980673E+02  0.48951604223E+02  0.00000000000E+00 0.  1.
         13    1    3    3    0    0  0.29639651800E+02  0.29220083919E+02  0.14076493290E+02  0.43937113314E+02  0.00000000000E+00 0. -1.
<mgrwt>
<rscale>  0 0.92150129E+02</rscale>
<asrwt>0</asrwt>
<pdfrwt beam="1">  1        1 0.62460177E-02 0.92150129E+02</pdfrwt>
<pdfrwt beam="2">  1       -1 0.80445542E-02 0.92150129E+02</pdfrwt>
<totfact> 0.88180564E+04</totfact>
</mgrwt>
</event>
<event>
 5    1  0.6027538E+000  0.9189512E+02  0.7546771E-02  0.1298326E+00
          1   -1    0    0  501    0  0.00000000000E+00  0.00000000000E+00  0.14879189123E+02  0.14879189123E+02  0.00000000000E+00 0. -1.
         -1   -1    0    0    0  501 -0.00000000000E+00 -0.00000000000E+00 -0.14188798953E+03  0.14188798953E+03  0.00000000000E+00 0.  1.
         23    2    1    2    0    0  0.00000000000E+00  0.00000000000E+00 -0.12700880040E+03  0.15676717865E+03  0.91895119142E+02 0.  0.
        -13    1    3    3    0    0 -0.35857204860E+02  0.20093579431E+01 -0.11239669951E+03  0.11799489277E+03  0.00000000000E+00 0.  1.
         13    1    3    3    0    0  0.35857204860E+02 -0.20093579431E+01 -0.14612100895E+02  0.38772285879E+02  0.00000000000E+00 0. -1.
<mgrwt>
<rscale>  0 0.91895119E+02</rscale>
<asrwt>0</asrwt>
<pdfrwt beam="1">  1        1 0.22891060E-02 0.91895119E+02</pdfrwt>
<pdfrwt beam="2">  1       -1 0.21828921E-01 0.91895119E+02</pdfrwt>
<totfact> 0.74223711E+04</totfact>
</mgrwt>
</event>
<event>
 5    1  0.6027538E+000  0.9048933E+02  0.7546771E-02  0.1301671E+00
         -3   -1    0    0    0  501 -0.00000000000E+00  0.00000000000E+00  0.12992127832E+02  0.12992127832E+02  0.00000000000E+00 0.  1.
          3   -1    0    0  501    0  0.00000000000E+00 -0.00000000000E+00 -0.15756306949E+03  0.15756306949E+03  0.00000000000E+00 0. -1.
         23    2    1    2    0    0  0.00000000000E+00  0.00000000000E+00 -0.14457094166E+03  0.17055519732E+03  0.90489326232E+02 0.  0.
        -13    1    3    3    0    0 -0.31752966704E+02 -0.31997267628E+02 -0.64984778528E+02  0.79089174167E+02  0.00000000000E+00 0.  1.
         13    1    3    3    0    0  0.31752966704E+02  0.31997267628E+02 -0.79586163131E+02  0.91466023156E+02  0.00000000000E+00 0. -1.
<mgrwt>
<rscale>  0 0.90489326E+02</rscale>
<asrwt>0</asrwt>
<pdfrwt beam="2">  1        3 0.24240470E-01 0.90489326E+02</pdfrwt>
<pdfrwt beam="1">  1       -3 0.19987890E-02 0.90489326E+02</pdfrwt>
<totfact> 0.30716230E+04</totfact>
</mgrwt>
</event>
<event>
 5    1  0.6027538E+000  0.8667182E+02  0.7546771E-02  0.1311118E+00
          2   -1    0    0  501    0  0.00000000000E+00  0.00000000000E+00  0.29928133949E+02  0.29928133949E+02  0.00000000000E+00 0. -1.
         -2   -1    0    0    0  501 -0.00000000000E+00 -0.00000000000E+00 -0.62750352747E+02  0.62750352747E+02  0.00000000000E+00 0.  1.
         23    2    1    2    0    0  0.00000000000E+00  0.00000000000E+00 -0.32822218797E+02  0.92678486696E+02  0.86671816927E+02 0.  0.
        -13    1    3    3    0    0 -0.85560095858E+01  0.42309978544E+02 -0.12316726750E+02  0.44889211869E+02  0.00000000000E+00 0.  1.
         13    1    3    3    0    0  0.85560095858E+01 -0.42309978544E+02 -0.20505492047E+02  0.47789274827E+02  0.00000000000E+00 0. -1.
<mgrwt>
<rscale>  0 0.86671817E+02</rscale>
<asrwt>0</asrwt>
<pdfrwt beam="1">  1        2 0.46043284E-02 0.86671817E+02</pdfrwt>
<pdfrwt beam="2">  1       -2 0.96539003E-02 0.86671817E+02</pdfrwt>
<totfact> 0.10265144E+05</totfact>
</mgrwt>
</event>
<event>
 5    1  0.6027538E+000  0.1024899E+03  0.7546771E-02  0.1275145E+00
          4   -1    0    0  501    0  0.00000000000E+00  0.00000000000E+00  0.28430596643E+03  0.28430596643E+03  0.00000000000E+00 0. -1.
         -4   -1    0    0    0  501 -0.00000000000E+00 -0.00000000000E+00 -0.92366931635E+01  0.92366931635E+01  0.00000000000E+00 0.  1.
         23    2    1    2    0    0  0.00000000000E+00  0.00000000000E+00  0.27506927327E+03  0.29354265959E+03  0.10248994051E+03 0.  0.
        -13    1    3    3    0    0  0.39936837892E+02  0.28903861325E+02  0.97471581279E+02  0.10922954443E+03  0.00000000000E+00 0.  1.
         13    1    3    3    0    0 -0.39936837892E+02 -0.28903861325E+02  0.17759769199E+03  0.18431311516E+03  0.00000000000E+00 0. -1.
<mgrwt>
<rscale>  0 0.10248994E+03</rscale>
<asrwt>0</asrwt>
<pdfrwt beam="1">  1        4 0.43739373E-01 0.10248994E+03</pdfrwt>
<pdfrwt beam="2">  1       -4 0.14210299E-02 0.10248994E+03</pdfrwt>
<totfact> 0.13166216E+04</totfact>
</mgrwt>
</event>
<event>
 5    1  0.6027538E+000  0.8936509E+02  0.7546771E-02  0.1304397E+00
          3   -1    0    0  501    0  0.00000000000E+00  0.00000000000E+00  0.10671530728E+03  0.10671530728E+03  0.00000000000E+00 0. -1.
         -3   -1    0    0    0  501 -0.00000000000E+00 -0.00000000000E+00 -0.18708937164E+02  0.18708937164E+02  0.00000000000E+00 0.  1.
         23    2    1    2    0    0  0.00000000000E+00  0.00000000000E+00  0.88006370120E+02  0.12542424445E+03  0.89365093373E+02 0.  0.
        -13    1    3    3    0    0 -0.36492493503E+02 -0.25251336187E+02  0.36683685263E+02  0.57576252272E+02  0.00000000000E+00 0.  1.
         13    1    3    3    0    0  0.36492493503E+02  0.25251336187E+02  0.51322684857E+02  0.67847992176E+02  0.00000000000E+00 0. -1.
<mgrwt>
<rscale>  0 0.89365093E+02</rscale>
<asrwt>0</asrwt>
<pdfrwt beam="1">  1        3 0.16417739E-01 0.89365093E+02</pdfrwt>
<pdfrwt beam="2">  1       -3 0.28782981E-02 0.89365093E+02</pdfrwt>
<totfact> 0.34715347E+04</totfact>
</mgrwt>
</event>
<event>
 5    1  0.6027538E+000  0.9018538E+02  0.7546771E-02  0.1302403E+00
         -2   -1    0    0    0  501 -0.00000000000E+00  0.00000000000E+00  0.12483211054E+02  0.12483211054E+02  0.00000000000E+00 0.  1.
          2   -1    0    0  501    0  0.00000000000E+00 -0.00000000000E+00 -0.16288683538E+03  0.16288683538E+03  0.00000000000E+00 0. -1.
         23    2    1    2    0    0  0.00000000000E+00  0.00000000000E+00 -0.15040362432E+03  0.17537004643E+03  0.90185381166E+02 0.  0.
        -13    1    3    3    0    0  0.36417444737E+02 -0.23584815472E+01 -0.23696612980E+02  0.43512322199E+02  0.00000000000E+00 0.  1.
         13    1    3    3    0    0 -0.36417444737E+02  0.23584815472E+01 -0.12670701134E+03  0.13185772423E+03  0.00000000000E+00 0. -1.
<mgrwt>
<rscale>  0 0.90185381E+02</rscale>
<asrwt>0</asrwt>
<pdfrwt beam="2">  1        2 0.25059515E-01 0.90185381E+02</pdfrwt>
<pdfrwt beam="1">  1       -2 0.19204939E-02 0.90185381E+02</pdfrwt>
<totfact> 0.14813794E+05</totfact>
</mgrwt>
</event>
<event>
 5    1  0.6027538E+000  0.8768699E+02  0.7546771E-02  0.1308552E+00
          2   -1    0    0  501    0  0.00000000000E+00  0.00000000000E+00  0.90275790042E+01  0.90275790042E+01  0.00000000000E+00 0. -1.
         -2   -1    0    0    0  501 -0.00000000000E+00 -0.00000000000E+00 -0.21293105960E+03  0.21293105960E+03  0.00000000000E+00 0.  1.
         23    2    1    2    0    0  0.00000000000E+00  0.00000000000E+00 -0.20390348060E+03  0.22195863861E+03  0.87686987929E+02 0.  0.
        -13    1    3    3    0    0 -0.60980853775E+01 -0.31468515912E+02 -0.26233700939E+02  0.41420540846E+02  0.00000000000E+00 0. -1.
         13    1    3    3    0    0  0.60980853775E+01  0.31468515912E+02 -0.17766977966E+03  0.18053809776E+03  0.00000000000E+00 0.  1.
<mgrwt>
<rscale>  0 0.87686988E+02</rscale>
<asrwt>0</asrwt>
<pdfrwt beam="1">  1        2 0.13888583E-02 0.87686988E+02</pdfrwt>
<pdfrwt beam="2">  1       -2 0.32758625E-01 0.87686988E+02</pdfrwt>
<totfact> 0.66972897E+04</totfact>
</mgrwt>
</event>
<event>
 5    1  0.6027538E+000  0.9902776E+02  0.7546771E-02  0.1282354E+00
         -2   -1    0    0    0  501 -0.00000000000E+00  0.00000000000E+00  0.67937497784E+02  0.67937497784E+02  0.00000000000E+00 0.  1.
          2   -1    0    0  501    0  0.00000000000E+00 -0.00000000000E+00 -0.36086470137E+02  0.36086470137E+02  0.00000000000E+00 0. -1.
         23    2    1    2    0    0  0.00000000000E+00  0.00000000000E+00  0.31851027647E+02  0.10402396792E+03  0.99027763480E+02 0.  0.
        -13    1    3    3    0    0 -0.20557184246E+02 -0.18074234586E+02  0.59266691435E+02  0.65282589514E+02  0.00000000000E+00 0.  1.
         13    1    3    3    0    0  0.20557184246E+02  0.18074234586E+02 -0.27415663788E+02  0.38741378407E+02  0.00000000000E+00 0. -1.
<mgrwt>
<rscale>  0 0.99027763E+02</rscale>
<asrwt>0</asrwt>
<pdfrwt beam="2">  1        2 0.55517646E-02 0.99027763E+02</pdfrwt>
<pdfrwt beam="1">  1       -2 0.10451923E-01 0.99027763E+02</pdfrwt>
<totfact> 0.72782775E+04</totfact>
</mgrwt>
</event>
<event>
 5    1  0.6027538E+000  0.9287615E+02  0.7546771E-02  0.1296032E+00
         -1   -1    0    0    0  501 -0.00000000000E+00  0.00000000000E+00  0.15262531638E+03  0.15262531638E+03  0.00000000000E+00 0.  1.
          1   -1    0    0  501    0  0.00000000000E+00 -0.00000000000E+00 -0.14129339768E+02  0.14129339768E+02  0.00000000000E+00 0. -1.
         23    2    1    2    0    0  0.00000000000E+00  0.00000000000E+00  0.13849597661E+03  0.16675465615E+03  0.92876153071E+02 0.  0.
        -13    1    3    3    0    0  0.17838550511E+02  0.41699780700E+02  0.51346572341E+02  0.68509532811E+02  0.00000000000E+00 0.  1.
         13    1    3    3    0    0 -0.17838550511E+02 -0.41699780700E+02  0.87149404272E+02  0.98245123338E+02  0.00000000000E+00 0. -1.
<mgrwt>
<rscale>  0 0.92876153E+02</rscale>
<asrwt>0</asrwt>
<pdfrwt beam="2">  1        1 0.21737447E-02 0.92876153E+02</pdfrwt>
<pdfrwt beam="1">  1       -1 0.23480817E-01 0.92876153E+02</pdfrwt>
<totfact> 0.70992386E+04</totfact>
</mgrwt>
</event>
<event>
 5    1  0.6027538E+000  0.9026552E+02  0.7546771E-02  0.1302210E+00
         -1   -1    0    0    0  501 -0.00000000000E+00  0.00000000000E+00  0.54192832824E+02  0.54192832824E+02  0.00000000000E+00 0.  1.
          1   -1    0    0  501    0  0.00000000000E+00 -0.00000000000E+00 -0.37587370677E+02  0.37587370677E+02  0.00000000000E+00 0. -1.
         23    2    1    2    0    0  0.00000000000E+00  0.00000000000E+00  0.16605462146E+02  0.91780203501E+02  0.90265521555E+02 0.  0.
        -13    1    3    3    0    0 -0.28059973066E+02 -0.34208185892E+02  0.17363152094E+02  0.47529371141E+02  0.00000000000E+00 0.  1.
         13    1    3    3    0    0  0.28059973066E+02  0.34208185892E+02 -0.75768994716E+00  0.44250832360E+02  0.00000000000E+00 0. -1.
<mgrwt>
<rscale>  0 0.90265522E+02</rscale>
<asrwt>0</asrwt>
<pdfrwt beam="2">  1        1 0.57826724E-02 0.90265522E+02</pdfrwt>
<pdfrwt beam="1">  1       -1 0.83373589E-02 0.90265522E+02</pdfrwt>
<totfact> 0.92396019E+04</totfact>
</mgrwt>
</event>
<event>
 5    1  0.6027538E+000  0.9158411E+02  0.7546771E-02  0.1299060E+00
          3   -1    0    0  501    0  0.00000000000E+00  0.00000000000E+00  0.58815602553E+02  0.58815602553E+02  0.00000000000E+00 0. -1.
         -3   -1    0    0    0  501 -0.00000000000E+00 -0.00000000000E+00 -0.35652310276E+02  0.35652310276E+02  0.00000000000E+00 0.  1.
         23    2    1    2    0    0  0.00000000000E+00  0.00000000000E+00  0.23163292278E+02  0.94467912829E+02  0.91584105854E+02 0.  0.
        -13    1    3    3    0    0  0.11303846743E+02 -0.44244179623E+01  0.57125783254E+02  0.58401263153E+02  0.00000000000E+00 0. -1.
         13    1    3    3    0    0 -0.11303846743E+02  0.44244179623E+01 -0.33962490977E+02  0.36066649676E+02  0.00000000000E+00 0.  1.
<mgrwt>
<rscale>  0 0.91584106E+02</rscale>
<asrwt>0</asrwt>
<pdfrwt beam="1">  1        3 0.90485542E-02 0.91584106E+02</pdfrwt>
<pdfrwt beam="2">  1       -3 0.54849708E-02 0.91584106E+02</pdfrwt>
<totfact> 0.34662980E+04</totfact>
</mgrwt>
</event>
<event>
 5    1  0.6027538E+000  0.8938869E+02  0.7546771E-02  0.1304339E+00
          2   -1    0    0  501    0  0.00000000000E+00  0.00000000000E+00  0.12626008574E+02  0.12626008574E+02  0.00000000000E+00 0. -1.
         -2   -1    0    0    0  501 -0.00000000000E+00 -0.00000000000E+00 -0.15821186154E+03  0.15821186154E+03  0.00000000000E+00 0.  1.
         23    2    1    2    0    0  0.00000000000E+00  0.00000000000E+00 -0.14558585296E+03  0.17083787011E+03  0.89388686541E+02 0.  0.
        -13    1    3    3    0    0  0.16271448158E+02  0.28450646334E+02 -0.13086843275E+03  0.13491014044E+03  0.00000000000E+00 0.  1.
         13    1    3    3    0    0 -0.16271448158E+02 -0.28450646334E+02 -0.14717420213E+02  0.35927729676E+02  0.00000000000E+00 0. -1.
<mgrwt>
<rscale>  0 0.89388687E+02</rscale>
<asrwt>0</asrwt>
<pdfrwt beam="1">  1        2 0.19424630E-02 0.89388687E+02</pdfrwt>
<pdfrwt beam="2">  1       -2 0.24340285E-01 0.89388687E+02</pdfrwt>
<totfact> 0.72018955E+04</totfact>
</mgrwt>
</event>
<event>
 5    1  0.6027538E+000  0.9037236E+02  0.7546771E-02  0.1301952E+00
          1   -1    0    0  501    0  0.00000000000E+00  0.00000000000E+00  0.22598656686E+02  0.22598656686E+02  0.00000000000E+00 0. -1.
         -1   -1    0    0    0  501 -0.00000000000E+00 -0.00000000000E+00 -0.90350091308E+02  0.90350091308E+02  0.00000000000E+00 0.  1.
         23    2    1    2    0    0  0.00000000000E+00  0.00000000000E+00 -0.67751434622E+02  0.11294874799E+03  0.90372356283E+02 0.  0.
        -13    1    3    3    0    0 -0.15129345690E+02  0.34012220362E+01 -0.86920403901E+02  0.88292819791E+02  0.00000000000E+00 0.  1.
         13    1    3    3    0    0  0.15129345690E+02 -0.34012220362E+01  0.19168969279E+02  0.24655928203E+02  0.00000000000E+00 0. -1.
<mgrwt>
<rscale>  0 0.90372356E+02</rscale>
<asrwt>0</asrwt>
<pdfrwt beam="1">  1        1 0.34767164E-02 0.90372356E+02</pdfrwt>
<pdfrwt beam="2">  1       -1 0.13900014E-01 0.90372356E+02</pdfrwt>
<totfact> 0.84791811E+04</totfact>
</mgrwt>
</event>
<event>
 5    1  0.6027538E+000  0.9255587E+02  0.7546771E-02  0.1296778E+00
         -2   -1    0    0    0  501 -0.00000000000E+00  0.00000000000E+00  0.18054225319E+03  0.18054225319E+03  0.00000000000E+00 0.  1.
          2   -1    0    0  501    0  0.00000000000E+00 -0.00000000000E+00 -0.11862305011E+02  0.11862305011E+02  0.00000000000E+00 0. -1.
         23    2    1    2    0    0  0.00000000000E+00  0.00000000000E+00  0.16867994818E+03  0.19240455820E+03  0.92555870147E+02 0.  0.
        -13    1    3    3    0    0 -0.12150665943E+01  0.43844973022E+02  0.53661794411E+02  0.69306898830E+02  0.00000000000E+00 0.  1.
         13    1    3    3    0    0  0.12150665943E+01 -0.43844973022E+02  0.11501815377E+03  0.12309765937E+03  0.00000000000E+00 0. -1.
<mgrwt>
<rscale>  0 0.92555870E+02</rscale>
<asrwt>0</asrwt>
<pdfrwt beam="2">  1        2 0.18249701E-02 0.92555870E+02</pdfrwt>
<pdfrwt beam="1">  1       -2 0.27775729E-01 0.92555870E+02</pdfrwt>
<totfact> 0.62611741E+04</totfact>
</mgrwt>
</event>
<event>
 5    1  0.6027538E+000  0.9327902E+02  0.7546771E-02  0.1295100E+00
          1   -1    0    0  501    0  0.00000000000E+00  0.00000000000E+00  0.90130014439E+02  0.90130014439E+02  0.00000000000E+00 0. -1.
         -1   -1    0    0    0  501 -0.00000000000E+00 -0.00000000000E+00 -0.24134510958E+02  0.24134510958E+02  0.00000000000E+00 0.  1.
         23    2    1    2    0    0  0.00000000000E+00  0.00000000000E+00  0.65995503481E+02  0.11426452540E+03  0.93279018458E+02 0.  0.
        -13    1    3    3    0    0 -0.43817007017E+02  0.64846732992E+01  0.50886705199E+02  0.67464345085E+02  0.00000000000E+00 0. -1.
         13    1    3    3    0    0  0.43817007017E+02 -0.64846732992E+01  0.15108798281E+02  0.46800180312E+02  0.00000000000E+00 0.  1.
<mgrwt>
<rscale>  0 0.93279018E+02</rscale>
<asrwt>0</asrwt>
<pdfrwt beam="1">  1        1 0.13866156E-01 0.93279018E+02</pdfrwt>
<pdfrwt beam="2">  1       -1 0.37130017E-02 0.93279018E+02</pdfrwt>
<totfact> 0.96464911E+04</totfact>
</mgrwt>
</event>
<event>
 5    1  0.6027538E+000  0.9058600E+02  0.7546771E-02  0.1301439E+00
          3   -1    0    0  501    0  0.00000000000E+00  0.00000000000E+00  0.94245536473E+02  0.94245536473E+02  0.00000000000E+00 0. -1.
         -3   -1    0    0    0  501 -0.00000000000E+00 -0.00000000000E+00 -0.21767138861E+02  0.21767138861E+02  0.00000000000E+00 0.  1.
         23    2    1    2    0    0  0.00000000000E+00  0.00000000000E+00  0.72478397612E+02  0.11601267533E+03  0.90585996256E+02 0.  0.
        -13    1    3    3    0    0 -0.19488672347E+02  0.37193823631E+02  0.57983312019E+02  0.71590874690E+02  0.00000000000E+00 0. -1.
         13    1    3    3    0    0  0.19488672347E+02 -0.37193823631E+02  0.14495085593E+02  0.44421800644E+02  0.00000000000E+00 0.  1.
<mgrwt>
<rscale>  0 0.90585996E+02</rscale>
<asrwt>0</asrwt>
<pdfrwt beam="1">  1        3 0.14499313E-01 0.90585996E+02</pdfrwt>
<pdfrwt beam="2">  1       -3 0.33487906E-02 0.90585996E+02</pdfrwt>
<totfact> 0.34117788E+04</totfact>
</mgrwt>
</event>
<event>
 5    1  0.6027538E+000  0.8835473E+02  0.7546771E-02  0.1306886E+00
          1   -1    0    0  501    0  0.00000000000E+00  0.00000000000E+00  0.32513834777E+02  0.32513834777E+02  0.00000000000E+00 0. -1.
         -1   -1    0    0    0  501 -0.00000000000E+00 -0.00000000000E+00 -0.60024903493E+02  0.60024903493E+02  0.00000000000E+00 0.  1.
         23    2    1    2    0    0  0.00000000000E+00  0.00000000000E+00 -0.27511068716E+02  0.92538738270E+02  0.88354734897E+02 0.  0.
        -13    1    3    3    0    0 -0.29944553442E+02 -0.78894741243E+01 -0.46755012228E+02  0.56079864936E+02  0.00000000000E+00 0.  1.
         13    1    3    3    0    0  0.29944553442E+02  0.78894741243E+01  0.19243943513E+02  0.36458873333E+02  0.00000000000E+00 0. -1.
<mgrwt>
<rscale>  0 0.88354735E+02</rscale>
<asrwt>0</asrwt>
<pdfrwt beam="1">  1        1 0.50021285E-02 0.88354735E+02</pdfrwt>
<pdfrwt beam="2">  1       -1 0.92346005E-02 0.88354735E+02</pdfrwt>
<totfact> 0.96025154E+04</totfact>
</mgrwt>
</event>
<event>
 5    1  0.6027538E+000  0.8132922E+02  0.7546771E-02  0.1325321E+00
         -2   -1    0    0    0  501 -0.00000000000E+00  0.00000000000E+00  0.10335823502E+02  0.10335823502E+02  0.00000000000E+00 0.  1.
          2   -1    0    0  501    0  0.00000000000E+00 -0.00000000000E+00 -0.15998827095E+03  0.15998827095E+03  0.00000000000E+00 0. -1.
         23    2    1    2    0    0  0.00000000000E+00  0.00000000000E+00 -0.14965244745E+03  0.17032409446E+03  0.81329220604E+02 0.  0.
        -13    1    3    3    0    0  0.27570350428E+02  0.31466590635E+01 -0.12574180913E+02  0.30465319818E+02  0.00000000000E+00 0.  1.
         13    1    3    3    0    0 -0.27570350428E+02 -0.31466590635E+01 -0.13707826654E+03  0.13985877464E+03  0.00000000000E+00 0. -1.
<mgrwt>
<rscale>  0 0.81329221E+02</rscale>
<asrwt>0</asrwt>
<pdfrwt beam="2">  1        2 0.24613579E-01 0.81329221E+02</pdfrwt>
<pdfrwt beam="1">  1       -2 0.15901267E-02 0.81329221E+02</pdfrwt>
<totfact> 0.19433558E+05</totfact>
</mgrwt>
</event>
<event>
 5    1  0.6027538E+000  0.9077698E+02  0.7546771E-02  0.1300981E+00
          1   -1    0    0  501    0  0.00000000000E+00  0.00000000000E+00  0.11714987154E+03  0.11714987154E+03  0.00000000000E+00 0. -1.
         -1   -1    0    0    0  501 -0.00000000000E+00 -0.00000000000E+00 -0.17585293827E+02  0.17585293827E+02  0.00000000000E+00 0.  1.
         23    2    1    2    0    0  0.00000000000E+00  0.00000000000E+00  0.99564577713E+02  0.13473516537E+03  0.90776977540E+02 0.  0.
        -13    1    3    3    0    0  0.33728484270E+02  0.29725576877E+02  0.40525753818E+02  0.60527326840E+02  0.00000000000E+00 0.  1.
         13    1    3    3    0    0 -0.33728484270E+02 -0.29725576877E+02  0.59038823896E+02  0.74207838527E+02  0.00000000000E+00 0. -1.
<mgrwt>
<rscale>  0 0.90776978E+02</rscale>
<asrwt>0</asrwt>
<pdfrwt beam="1">  1        1 0.18023057E-01 0.90776978E+02</pdfrwt>
<pdfrwt beam="2">  1       -1 0.27054299E-02 0.90776978E+02</pdfrwt>
<totfact> 0.10857781E+05</totfact>
</mgrwt>
</event>
<event>
 5    1  0.6027538E+000  0.9631848E+02  0.7546771E-02  0.1288234E+00
         -1   -1    0    0    0  501 -0.00000000000E+00  0.00000000000E+00  0.13446097062E+02  0.13446097062E+02  0.00000000000E+00 0.  1.
          1   -1    0    0  501    0  0.00000000000E+00 -0.00000000000E+00 -0.17248963443E+03  0.17248963443E+03  0.00000000000E+00 0. -1.
         23    2    1    2    0    0  0.00000000000E+00  0.00000000000E+00 -0.15904353736E+03  0.18593573149E+03  0.96318479363E+02 0.  0.
        -13    1    3    3    0    0  0.18382898668E+02  0.28294447104E+02 -0.13186811455E+02  0.36227043720E+02  0.00000000000E+00 0.  1.
         13    1    3    3    0    0 -0.18382898668E+02 -0.28294447104E+02 -0.14585672591E+03  0.14970868777E+03  0.00000000000E+00 0. -1.
<mgrwt>
<rscale>  0 0.96318479E+02</rscale>
<asrwt>0</asrwt>
<pdfrwt beam="2">  1        1 0.26536866E-01 0.96318479E+02</pdfrwt>
<pdfrwt beam="1">  1       -1 0.20686304E-02 0.96318479E+02</pdfrwt>
<totfact> 0.99246794E+04</totfact>
</mgrwt>
</event>
<event>
 5    1  0.6027538E+000  0.9217183E+02  0.7546771E-02  0.1297676E+00
         -3   -1    0    0    0  501 -0.00000000000E+00  0.00000000000E+00  0.16102950358E+02  0.16102950358E+02  0.00000000000E+00 0.  1.
          3   -1    0    0  501    0  0.00000000000E+00 -0.00000000000E+00 -0.13189580158E+03  0.13189580158E+03  0.00000000000E+00 0. -1.
         23    2    1    2    0    0  0.00000000000E+00  0.00000000000E+00 -0.11579285122E+03  0.14799875193E+03  0.92171829648E+02 0.  0.
        -13    1    3    3    0    0 -0.27403787065E+02 -0.35696384084E+02 -0.41943322259E+02  0.61517815828E+02  0.00000000000E+00 0.  1.
         13    1    3    3    0    0  0.27403787065E+02  0.35696384084E+02 -0.73849528959E+02  0.86480936105E+02  0.00000000000E+00 0. -1.
<mgrwt>
<rscale>  0 0.92171830E+02</rscale>
<asrwt>0</asrwt>
<pdfrwt beam="2">  1        3 0.20291663E-01 0.92171830E+02</pdfrwt>
<pdfrwt beam="1">  1       -3 0.24773769E-02 0.92171830E+02</pdfrwt>
<totfact> 0.30517412E+04</totfact>
</mgrwt>
</event>
<event>
 5    1  0.6027538E+000  0.9228644E+02  0.7546771E-02  0.1297407E+00
          1   -1    0    0  501    0  0.00000000000E+00  0.00000000000E+00  0.59652798986E+01  0.59652798986E+01  0.00000000000E+00 0. -1.
         -1   -1    0    0    0  501 -0.00000000000E+00 -0.00000000000E+00 -0.35693158751E+03  0.35693158751E+03  0.00000000000E+00 0.  1.
         23    2    1    2    0    0  0.00000000000E+00  0.00000000000E+00 -0.35096630761E+03  0.36289686741E+03  0.92286441564E+02 0.  0.
        -13    1    3    3    0    0  0.41756529763E+02  0.19550185534E+02 -0.18271181997E+03  0.18843945099E+03  0.00000000000E+00 0.  1.
         13    1    3    3    0    0 -0.41756529763E+02 -0.19550185534E+02 -0.16825448764E+03  0.17445741642E+03  0.00000000000E+00 0. -1.
<mgrwt>
<rscale>  0 0.92286442E+02</rscale>
<asrwt>0</asrwt>
<pdfrwt beam="1">  1        1 0.91773542E-03 0.92286442E+02</pdfrwt>
<pdfrwt beam="2">  1       -1 0.54912549E-01 0.92286442E+02</pdfrwt>
<totfact> 0.54529609E+04</totfact>
</mgrwt>
</event>
<event>
 5    1  0.6027538E+000  0.9130077E+02  0.7546771E-02  0.1299732E+00
          1   -1    0    0  501    0  0.00000000000E+00  0.00000000000E+00  0.22327387651E+03  0.22327387651E+03  0.00000000000E+00 0. -1.
         -1   -1    0    0    0  501 -0.00000000000E+00 -0.00000000000E+00 -0.93336392330E+01  0.93336392330E+01  0.00000000000E+00 0.  1.
         23    2    1    2    0    0  0.00000000000E+00  0.00000000000E+00  0.21394023728E+03  0.23260751574E+03  0.91300773567E+02 0.  0.
        -13    1    3    3    0    0 -0.17691636144E+02 -0.35658128803E+02  0.16390787768E+03  0.16867213316E+03  0.00000000000E+00 0. -1.
         13    1    3    3    0    0  0.17691636144E+02  0.35658128803E+02  0.50032359595E+02  0.63935382581E+02  0.00000000000E+00 0.  1.
<mgrwt>
<rscale>  0 0.91300774E+02</rscale>
<asrwt>0</asrwt>
<pdfrwt beam="1">  1        1 0.34349823E-01 0.91300774E+02</pdfrwt>
<pdfrwt beam="2">  1       -1 0.14359447E-02 0.91300774E+02</pdfrwt>
<totfact> 0.12053224E+05</totfact>
</mgrwt>
</event>
<event>
 5    1  0.6027538E+000  0.9278392E+02  0.7546771E-02  0.1296247E+00
         -1   -1    0    0    0  501 -0.00000000000E+00  0.00000000000E+00  0.87806426744E+01  0.87806426744E+01  0.00000000000E+00 0.  1.
          1   -1    0    0  501    0  0.00000000000E+00 -0.00000000000E+00 -0.24510892665E+03  0.24510892665E+03  0.00000000000E+00 0. -1.
         23    2    1    2    0    0  0.00000000000E+00  0.00000000000E+00 -0.23632828398E+03  0.25388956933E+03  0.92783918892E+02 0.  0.
        -13    1    3    3    0    0 -0.13214448758E+02 -0.32986466872E+02 -0.36554490700E+02  0.50979990614E+02  0.00000000000E+00 0.  1.
         13    1    3    3    0    0  0.13214448758E+02  0.32986466872E+02 -0.19977379328E+03  0.20290957871E+03  0.00000000000E+00 0. -1.
<mgrwt>
<rscale>  0 0.92783919E+02</rscale>
<asrwt>0</asrwt>
<pdfrwt beam="2">  1        1 0.37709064E-01 0.92783919E+02</pdfrwt>
<pdfrwt beam="1">  1       -1 0.13508681E-02 0.92783919E+02</pdfrwt>
<totfact> 0.11756599E+05</totfact>
</mgrwt>
</event>
<event>
 5    1  0.6027538E+000  0.9170197E+02  0.7546771E-02  0.1298782E+00
          2   -1    0    0  501    0  0.00000000000E+00  0.00000000000E+00  0.20000584710E+03  0.20000584710E+03  0.00000000000E+00 0. -1.
         -2   -1    0    0    0  501 -0.00000000000E+00 -0.00000000000E+00 -0.10511256648E+02  0.10511256648E+02  0.00000000000E+00 0.  1.
         23    2    1    2    0    0  0.00000000000E+00  0.00000000000E+00  0.18949459046E+03  0.21051710375E+03  0.91701969229E+02 0.  0.
        -13    1    3    3    0    0  0.34370989578E+02  0.33966158832E+01  0.25518177949E+02  0.42942744787E+02  0.00000000000E+00 0.  1.
         13    1    3    3    0    0 -0.34370989578E+02 -0.33966158832E+01  0.16397641251E+03  0.16757435897E+03  0.00000000000E+00 0. -1.
<mgrwt>
<rscale>  0 0.91701969E+02</rscale>
<asrwt>0</asrwt>
<pdfrwt beam="1">  1        2 0.30770127E-01 0.91701969E+02</pdfrwt>
<pdfrwt beam="2">  1       -2 0.16171166E-02 0.91701969E+02</pdfrwt>
<totfact> 0.15230530E+05</totfact>
</mgrwt>
</event>
<event>
 5    1  0.6027538E+000  0.9057066E+02  0.7546771E-02  0.1301476E+00
         -2   -1    0    0    0  501 -0.00000000000E+00  0.00000000000E+00  0.12190528345E+02  0.12190528345E+02  0.00000000000E+00 0.  1.
          2   -1    0    0  501    0  0.00000000000E+00 -0.00000000000E+00 -0.16822579568E+03  0.16822579568E+03  0.00000000000E+00 0. -1.
         23    2    1    2    0    0  0.00000000000E+00  0.00000000000E+00 -0.15603526733E+03  0.18041632402E+03  0.90570664801E+02 0.  0.
        -13    1    3    3    0    0  0.43726995662E+02 -0.93037666589E+01 -0.92402970646E+02  0.10264949687E+03  0.00000000000E+00 0. -1.
         13    1    3    3    0    0 -0.43726995662E+02  0.93037666589E+01 -0.63632296684E+02  0.77766827150E+02  0.00000000000E+00 0.  1.
<mgrwt>
<rscale>  0 0.90570665E+02</rscale>
<asrwt>0</asrwt>
<pdfrwt beam="2">  1        2 0.25880888E-01 0.90570665E+02</pdfrwt>
<pdfrwt beam="1">  1       -2 0.18754661E-02 0.90570665E+02</pdfrwt>
<totfact> 0.14809020E+05</totfact>
</mgrwt>
</event>
<event>
 5    1  0.6027538E+000  0.9141014E+02  0.7546771E-02  0.1299472E+00
          1   -1    0    0  501    0  0.00000000000E+00  0.00000000000E+00  0.55221976496E+02  0.55221976496E+02  0.00000000000E+00 0. -1.
         -1   -1    0    0    0  501 -0.00000000000E+00 -0.00000000000E+00 -0.37828300758E+02  0.37828300758E+02  0.00000000000E+00 0.  1.
         23    2    1    2    0    0  0.00000000000E+00  0.00000000000E+00  0.17393675738E+02  0.93050277255E+02  0.91410142443E+02 0.  0.
        -13    1    3    3    0    0 -0.22398608603E+02 -0.30786687375E+02 -0.17043944455E+02  0.41713472997E+02  0.00000000000E+00 0.  1.
         13    1    3    3    0    0  0.22398608603E+02  0.30786687375E+02  0.34437620193E+02  0.51336804258E+02  0.00000000000E+00 0. -1.
<mgrwt>
<rscale>  0 0.91410142E+02</rscale>
<asrwt>0</asrwt>
<pdfrwt beam="1">  1        1 0.84956887E-02 0.91410142E+02</pdfrwt>
<pdfrwt beam="2">  1       -1 0.58197386E-02 0.91410142E+02</pdfrwt>
<totfact> 0.94497491E+04</totfact>
</mgrwt>
</event>
<event>
 5    1  0.6027538E+000  0.9133948E+02  0.7546771E-02  0.1299640E+00
         -1   -1    0    0    0  501 -0.00000000000E+00  0.00000000000E+00  0.16801287952E+03  0.16801287952E+03  0.00000000000E+00 0.  1.
          1   -1    0    0  501    0  0.00000000000E+00 -0.00000000000E+00 -0.12414080105E+02  0.12414080105E+02  0.00000000000E+00 0. -1.
         23    2    1    2    0    0  0.00000000000E+00  0.00000000000E+00  0.15559879942E+03  0.18042695963E+03  0.91339484235E+02 0.  0.
        -13    1    3    3    0    0 -0.32205902231E+02 -0.13811405176E+02  0.13565205725E+03  0.14010515939E+03  0.00000000000E+00 0.  1.
         13    1    3    3    0    0  0.32205902231E+02  0.13811405176E+02  0.19946742170E+02  0.40321800241E+02  0.00000000000E+00 0. -1.
<mgrwt>
<rscale>  0 0.91339484E+02</rscale>
<asrwt>0</asrwt>
<pdfrwt beam="2">  1        1 0.19098586E-02 0.91339484E+02</pdfrwt>
<pdfrwt beam="1">  1       -1 0.25848134E-01 0.91339484E+02</pdfrwt>
<totfact> 0.72418237E+04</totfact>
</mgrwt>
</event>
<event>
 5    1  0.6027538E+000  0.9143191E+02  0.7546771E-02  0.1299421E+00
          1   -1    0    0  501    0  0.00000000000E+00  0.00000000000E+00  0.17887005703E+02  0.17887005703E+02  0.00000000000E+00 0. -1.
         -1   -1    0    0    0  501 -0.00000000000E+00 -0.00000000000E+00 -0.11684171975E+03  0.11684171975E+03  0.00000000000E+00 0.  1.
         23    2    1    2    0    0  0.00000000000E+00  0.00000000000E+00 -0.98954714042E+02  0.13472872545E+03  0.91431909254E+02 0.  0.
        -13    1    3    3    0    0 -0.11050816185E+02  0.22208519606E+02 -0.10606230812E+03  0.10892452472E+03  0.00000000000E+00 0.  1.
         13    1    3    3    0    0  0.11050816185E+02 -0.22208519606E+02  0.71075940823E+01  0.25804200726E+02  0.00000000000E+00 0. -1.
<mgrwt>
<rscale>  0 0.91431909E+02</rscale>
<asrwt>0</asrwt>
<pdfrwt beam="1">  1        1 0.27518469E-02 0.91431909E+02</pdfrwt>
<pdfrwt beam="2">  1       -1 0.17975650E-01 0.91431909E+02</pdfrwt>
<totfact> 0.78388557E+04</totfact>
</mgrwt>
</event>
<event>
 5    1  0.6027538E+000  0.9210019E+02  0.7546771E-02  0.1297844E+00
         -1   -1    0    0    0  501 -0.00000000000E+00  0.00000000000E+00  0.44557583902E+02  0.44557583902E+02  0.00000000000E+00 0.  1.
          1   -1    0    0  501    0  0.00000000000E+00 -0.00000000000E+00 -0.47592601618E+02  0.47592601618E+02  0.00000000000E+00 0. -1.
         23    2    1    2    0    0  0.00000000000E+00  0.00000000000E+00 -0.30350177154E+01  0.92150185520E+02  0.92100191959E+02 0.  0.
        -13    1    3    3    0    0 -0.29687792247E+00  0.43731779040E+02  0.12914422332E+02  0.45599769063E+02  0.00000000000E+00 0.  1.
         13    1    3    3    0    0  0.29687792247E+00 -0.43731779040E+02 -0.15949440047E+02  0.46550416457E+02  0.00000000000E+00 0. -1.
<mgrwt>
<rscale>  0 0.92100192E+02</rscale>
<asrwt>0</asrwt>
<pdfrwt beam="2">  1        1 0.73219387E-02 0.92100192E+02</pdfrwt>
<pdfrwt beam="1">  1       -1 0.68550129E-02 0.92100192E+02</pdfrwt>
<totfact> 0.90476939E+04</totfact>
</mgrwt>
</event>
<event>
 5    1  0.6027538E+000  0.9106932E+02  0.7546771E-02  0.1300283E+00
         -3   -1    0    0    0  501 -0.00000000000E+00  0.00000000000E+00  0.35717062483E+03  0.35717062483E+03  0.00000000000E+00 0.  1.
          3   -1    0    0  501    0  0.00000000000E+00 -0.00000000000E+00 -0.58050829913E+01  0.58050829913E+01  0.00000000000E+00 0. -1.
         23    2    1    2    0    0  0.00000000000E+00  0.00000000000E+00  0.35136554184E+03  0.36297570782E+03  0.91069316879E+02 0.  0.
        -13    1    3    3    0    0  0.45467503376E+02  0.32130128625E+00  0.18545224575E+03  0.19094484165E+03  0.00000000000E+00 0.  1.
         13    1    3    3    0    0 -0.45467503376E+02 -0.32130128625E+00  0.16591329609E+03  0.17203086617E+03  0.00000000000E+00 0. -1.
<mgrwt>
<rscale>  0 0.91069317E+02</rscale>
<asrwt>0</asrwt>
<pdfrwt beam="2">  1        3 0.89308997E-03 0.91069317E+02</pdfrwt>
<pdfrwt beam="1">  1       -3 0.54949310E-01 0.91069317E+02</pdfrwt>
<totfact> 0.21839580E+04</totfact>
</mgrwt>
</event>
<event>
 5    1  0.6027538E+000  0.8954995E+02  0.7546771E-02  0.1303945E+00
         -4   -1    0    0    0  501 -0.00000000000E+00  0.00000000000E+00  0.26014285852E+02  0.26014285852E+02  0.00000000000E+00 0.  1.
          4   -1    0    0  501    0  0.00000000000E+00 -0.00000000000E+00 -0.77065281550E+02  0.77065281550E+02  0.00000000000E+00 0. -1.
         23    2    1    2    0    0  0.00000000000E+00  0.00000000000E+00 -0.51050995699E+02  0.10307956740E+03  0.89549947258E+02 0.  0.
        -13    1    3    3    0    0 -0.11930196546E+02  0.52182808634E+01 -0.74837595296E+02  0.75962001781E+02  0.00000000000E+00 0. -1.
         13    1    3    3    0    0  0.11930196546E+02 -0.52182808634E+01  0.23786599597E+02  0.27117565621E+02  0.00000000000E+00 0.  1.
<mgrwt>
<rscale>  0 0.89549947E+02</rscale>
<asrwt>0</asrwt>
<pdfrwt beam="2">  1        4 0.11856197E-01 0.89549947E+02</pdfrwt>
<pdfrwt beam="1">  1       -4 0.40021979E-02 0.89549947E+02</pdfrwt>
<totfact> 0.27577796E+04</totfact>
</mgrwt>
</event>
<event>
 5    1  0.6027538E+000  0.9116667E+02  0.7546771E-02  0.1300051E+00
          1   -1    0    0  501    0  0.00000000000E+00  0.00000000000E+00  0.12381902340E+02  0.12381902340E+02  0.00000000000E+00 0. -1.
         -1   -1    0    0    0  501 -0.00000000000E+00 -0.00000000000E+00 -0.16781269941E+03  0.16781269941E+03  0.00000000000E+00 0.  1.
         23    2    1    2    0    0  0.00000000000E+00  0.00000000000E+00 -0.15543079707E+03  0.18019460175E+03  0.91166670565E+02 0.  0.
        -13    1    3    3    0    0  0.39070907311E+02 -0.18385939957E+02 -0.48851014935E+02  0.65199695140E+02  0.00000000000E+00 0. -1.
         13    1    3    3    0    0 -0.39070907311E+02  0.18385939957E+02 -0.10657978213E+03  0.11499490661E+03  0.00000000000E+00 0.  1.
<mgrwt>
<rscale>  0 0.91166671E+02</rscale>
<asrwt>0</asrwt>
<pdfrwt beam="1">  1        1 0.19049081E-02 0.91166671E+02</pdfrwt>
<pdfrwt beam="2">  1       -1 0.25817338E-01 0.91166671E+02</pdfrwt>
<totfact> 0.72797880E+04</totfact>
</mgrwt>
</event>
<event>
 5    1  0.6027538E+000  0.9149835E+02  0.7546771E-02  0.1299263E+00
         -1   -1    0    0    0  501 -0.00000000000E+00  0.00000000000E+00  0.44293896412E+02  0.44293896412E+02  0.00000000000E+00 0. -1.
          1   -1    0    0  501    0  0.00000000000E+00 -0.00000000000E+00 -0.47252270508E+02  0.47252270508E+02  0.00000000000E+00 0.  1.
         23    2    1    2    0    0  0.00000000000E+00  0.00000000000E+00 -0.29583740963E+01  0.91546166920E+02  0.91498353540E+02 0.  0.
        -13    1    3    3    0    0 -0.21796597975E+02  0.38738609217E+02 -0.12311462165E+02  0.46123135496E+02  0.00000000000E+00 0.  1.
         13    1    3    3    0    0  0.21796597975E+02 -0.38738609217E+02  0.93530880685E+01  0.45423031424E+02  0.00000000000E+00 0. -1.
<mgrwt>
<rscale>  0 0.91498354E+02</rscale>
<asrwt>0</asrwt>
<pdfrwt beam="2">  1        1 0.72695801E-02 0.91498354E+02</pdfrwt>
<pdfrwt beam="1">  1       -1 0.68144456E-02 0.91498354E+02</pdfrwt>
<totfact> 0.92057951E+04</totfact>
</mgrwt>
</event>
<event>
 5    1  0.6027538E+000  0.1265430E+03  0.7546771E-02  0.1232677E+00
         -2   -1    0    0    0  501 -0.00000000000E+00  0.00000000000E+00  0.25795641173E+02  0.25795641173E+02  0.00000000000E+00 0.  1.
          2   -1    0    0  501    0  0.00000000000E+00 -0.00000000000E+00 -0.15519230041E+03  0.15519230041E+03  0.00000000000E+00 0. -1.
         23    2    1    2    0    0  0.00000000000E+00  0.00000000000E+00 -0.12939665924E+03  0.18098794158E+03  0.12654303449E+03 0.  0.
        -13    1    3    3    0    0 -0.85916799821E+01  0.50914285759E+02 -0.11699934711E+03  0.12788638975E+03  0.00000000000E+00 0. -1.
         13    1    3    3    0    0  0.85916799821E+01 -0.50914285759E+02 -0.12397312129E+02  0.53101551835E+02  0.00000000000E+00 0.  1.
<mgrwt>
<rscale>  0 0.12654303E+03</rscale>
<asrwt>0</asrwt>
<pdfrwt beam="2">  1        2 0.23875738E-01 0.12654303E+03</pdfrwt>
<pdfrwt beam="1">  1       -2 0.39685603E-02 0.12654303E+03</pdfrwt>
<totfact> 0.56978117E+04</totfact>
</mgrwt>
</event>
<event>
 5    1  0.6027538E+000  0.9361374E+02  0.7546771E-02  0.1294329E+00
         -3   -1    0    0    0  501 -0.00000000000E+00  0.00000000000E+00  0.25747388149E+02  0.25747388149E+02  0.00000000000E+00 0.  1.
          3   -1    0    0  501    0  0.00000000000E+00 -0.00000000000E+00 -0.85091467138E+02  0.85091467138E+02  0.00000000000E+00 0. -1.
         23    2    1    2    0    0  0.00000000000E+00  0.00000000000E+00 -0.59344078990E+02  0.11083885529E+03  0.93613739004E+02 0.  0.
        -13    1    3    3    0    0  0.32333209699E+02  0.75627725741E+01  0.93865889166E+01  0.34507101152E+02  0.00000000000E+00 0.  1.
         13    1    3    3    0    0 -0.32333209699E+02 -0.75627725741E+01 -0.68730667906E+02  0.76331754135E+02  0.00000000000E+00 0. -1.
<mgrwt>
<rscale>  0 0.93613739E+02</rscale>
<asrwt>0</asrwt>
<pdfrwt beam="2">  1        3 0.13090995E-01 0.93613739E+02</pdfrwt>
<pdfrwt beam="1">  1       -3 0.39611367E-02 0.93613739E+02</pdfrwt>
<totfact> 0.31533831E+04</totfact>
</mgrwt>
</event>
<event>
 5    1  0.6027538E+000  0.9065376E+02  0.7546771E-02  0.1301276E+00
         -1   -1    0    0    0  501 -0.00000000000E+00  0.00000000000E+00  0.17719316693E+02  0.17719316693E+02  0.00000000000E+00 0.  1.
          1   -1    0    0  501    0  0.00000000000E+00 -0.00000000000E+00 -0.11594838578E+03  0.11594838578E+03  0.00000000000E+00 0. -1.
         23    2    1    2    0    0  0.00000000000E+00  0.00000000000E+00 -0.98229069091E+02  0.13366770248E+03  0.90653762585E+02 0.  0.
        -13    1    3    3    0    0  0.35886664945E+02 -0.25937338020E+02 -0.34824342826E+02  0.56332344862E+02  0.00000000000E+00 0. -1.
         13    1    3    3    0    0 -0.35886664945E+02  0.25937338020E+02 -0.63404726265E+02  0.77335357614E+02  0.00000000000E+00 0.  1.
<mgrwt>
<rscale>  0 0.90653763E+02</rscale>
<asrwt>0</asrwt>
<pdfrwt beam="2">  1        1 0.17838212E-01 0.90653763E+02</pdfrwt>
<pdfrwt beam="1">  1       -1 0.27260489E-02 0.90653763E+02</pdfrwt>
<totfact> 0.10878501E+05</totfact>
</mgrwt>
</event>
<event>
 5    1  0.6027538E+000  0.9167987E+02  0.7546771E-02  0.1298834E+00
          3   -1    0    0  501    0  0.00000000000E+00  0.00000000000E+00  0.13961169518E+03  0.13961169518E+03  0.00000000000E+00 0. -1.
         -3   -1    0    0    0  501 -0.00000000000E+00 -0.00000000000E+00 -0.15051030257E+02  0.15051030257E+02  0.00000000000E+00 0.  1.
         23    2    1    2    0    0  0.00000000000E+00  0.00000000000E+00  0.12456066493E+03  0.15466272544E+03  0.91679874531E+02 0.  0.
        -13    1    3    3    0    0 -0.32607192620E+02 -0.30662396920E+02  0.45589540744E+02  0.63889105650E+02  0.00000000000E+00 0.  1.
         13    1    3    3    0    0  0.32607192620E+02  0.30662396920E+02  0.78971124181E+02  0.90773619790E+02  0.00000000000E+00 0. -1.
<mgrwt>
<rscale>  0 0.91679875E+02</rscale>
<asrwt>0</asrwt>
<pdfrwt beam="1">  1        3 0.21478721E-01 0.91679875E+02</pdfrwt>
<pdfrwt beam="2">  1       -3 0.23155432E-02 0.91679875E+02</pdfrwt>
<totfact> 0.30564665E+04</totfact>
</mgrwt>
</event>
<event>
 5    1  0.6027538E+000  0.8384371E+02  0.7546771E-02  0.1318484E+00
          2   -1    0    0  501    0  0.00000000000E+00  0.00000000000E+00  0.14872654083E+03  0.14872654083E+03  0.00000000000E+00 0. -1.
         -2   -1    0    0    0  501 -0.00000000000E+00 -0.00000000000E+00 -0.11816598721E+02  0.11816598721E+02  0.00000000000E+00 0.  1.
         23    2    1    2    0    0  0.00000000000E+00  0.00000000000E+00  0.13690994211E+03  0.16054313955E+03  0.83843708224E+02 0.  0.
        -13    1    3    3    0    0  0.30401151236E+02  0.23013909834E+02  0.35092977534E+02  0.51820720899E+02  0.00000000000E+00 0.  1.
         13    1    3    3    0    0 -0.30401151236E+02 -0.23013909834E+02  0.10181696457E+03  0.10872241865E+03  0.00000000000E+00 0. -1.
<mgrwt>
<rscale>  0 0.83843708E+02</rscale>
<asrwt>0</asrwt>
<pdfrwt beam="1">  1        2 0.22881005E-01 0.83843708E+02</pdfrwt>
<pdfrwt beam="2">  1       -2 0.18179384E-02 0.83843708E+02</pdfrwt>
<totfact> 0.17479905E+05</totfact>
</mgrwt>
</event>
<event>
 5    1  0.6027538E+000  0.9455235E+02  0.7546771E-02  0.1292188E+00
         -3   -1    0    0    0  501 -0.00000000000E+00  0.00000000000E+00  0.16574084607E+03  0.16574084607E+03  0.00000000000E+00 0.  1.
          3   -1    0    0  501    0  0.00000000000E+00 -0.00000000000E+00 -0.13485128266E+02  0.13485128266E+02  0.00000000000E+00 0. -1.
         23    2    1    2    0    0  0.00000000000E+00  0.00000000000E+00  0.15225571781E+03  0.17922597434E+03  0.94552346734E+02 0.  0.
        -13    1    3    3    0    0  0.30257201268E+02  0.36227121767E+02  0.81190706218E+02  0.93913967844E+02  0.00000000000E+00 0.  1.
         13    1    3    3    0    0 -0.30257201268E+02 -0.36227121767E+02  0.71065011589E+02  0.85312006495E+02  0.00000000000E+00 0. -1.
<mgrwt>
<rscale>  0 0.94552347E+02</rscale>
<asrwt>0</asrwt>
<pdfrwt beam="2">  1        3 0.20746352E-02 0.94552347E+02</pdfrwt>
<pdfrwt beam="1">  1       -3 0.25498590E-01 0.94552347E+02</pdfrwt>
<totfact> 0.26829489E+04</totfact>
</mgrwt>
</event>
<event>
 5    1  0.6027538E+000  0.9233701E+02  0.7546771E-02  0.1297289E+00
         -1   -1    0    0    0  501 -0.00000000000E+00  0.00000000000E+00  0.66732791549E+02  0.66732791549E+02  0.00000000000E+00 0.  1.
          1   -1    0    0  501    0  0.00000000000E+00 -0.00000000000E+00 -0.31941283347E+02  0.31941283347E+02  0.00000000000E+00 0. -1.
         23    2    1    2    0    0  0.00000000000E+00  0.00000000000E+00  0.34791508202E+02  0.98674074896E+02  0.92337013238E+02 0.  0.
        -13    1    3    3    0    0 -0.57809452818E+01 -0.15942718799E+02  0.63283930327E+02  0.65516757007E+02  0.00000000000E+00 0.  1.
         13    1    3    3    0    0  0.57809452818E+01  0.15942718799E+02 -0.28492422125E+02  0.33157317889E+02  0.00000000000E+00 0. -1.
<mgrwt>
<rscale>  0 0.92337013E+02</rscale>
<asrwt>0</asrwt>
<pdfrwt beam="2">  1        1 0.49140436E-02 0.92337013E+02</pdfrwt>
<pdfrwt beam="1">  1       -1 0.10266583E-01 0.92337013E+02</pdfrwt>
<totfact> 0.84441650E+04</totfact>
</mgrwt>
</event>
<event>
 5    1  0.6027538E+000  0.8965111E+02  0.7546771E-02  0.1303699E+00
          2   -1    0    0  501    0  0.00000000000E+00  0.00000000000E+00  0.94891253872E+02  0.94891253872E+02  0.00000000000E+00 0. -1.
         -2   -1    0    0    0  501 -0.00000000000E+00 -0.00000000000E+00 -0.21175085350E+02  0.21175085350E+02  0.00000000000E+00 0.  1.
         23    2    1    2    0    0  0.00000000000E+00  0.00000000000E+00  0.73716168522E+02  0.11606633922E+03  0.89651110416E+02 0.  0.
        -13    1    3    3    0    0  0.19368512506E+02 -0.17218427877E+02  0.84209472365E+02  0.88107030203E+02  0.00000000000E+00 0. -1.
         13    1    3    3    0    0 -0.19368512506E+02  0.17218427877E+02 -0.10493303843E+02  0.27959309019E+02  0.00000000000E+00 0.  1.
<mgrwt>
<rscale>  0 0.89651110E+02</rscale>
<asrwt>0</asrwt>
<pdfrwt beam="1">  1        2 0.14598654E-01 0.89651110E+02</pdfrwt>
<pdfrwt beam="2">  1       -2 0.32577055E-02 0.89651110E+02</pdfrwt>
<totfact> 0.12648940E+05</totfact>
</mgrwt>
</event>
<event>
 5    1  0.6027538E+000  0.9102152E+02  0.7546771E-02  0.1300397E+00
         -1   -1    0    0    0  501 -0.00000000000E+00  0.00000000000E+00  0.23111695093E+03  0.23111695093E+03  0.00000000000E+00 0.  1.
          1   -1    0    0  501    0  0.00000000000E+00 -0.00000000000E+00 -0.89618237430E+01  0.89618237430E+01  0.00000000000E+00 0. -1.
         23    2    1    2    0    0  0.00000000000E+00  0.00000000000E+00  0.22215512719E+03  0.24007877468E+03  0.91021522253E+02 0.  0.
        -13    1    3    3    0    0 -0.42836304319E+01  0.40474004873E+02  0.57362645235E+02  0.70334682970E+02  0.00000000000E+00 0. -1.
         13    1    3    3    0    0  0.42836304319E+01 -0.40474004873E+02  0.16479248196E+03  0.16974409171E+03  0.00000000000E+00 0.  1.
<mgrwt>
<rscale>  0 0.91021522E+02</rscale>
<asrwt>0</asrwt>
<pdfrwt beam="2">  1        1 0.13787423E-02 0.91021522E+02</pdfrwt>
<pdfrwt beam="1">  1       -1 0.35556449E-01 0.91021522E+02</pdfrwt>
<totfact> 0.66755093E+04</totfact>
</mgrwt>
</event>
<event>
 5    1  0.6027538E+000  0.9415735E+02  0.7546771E-02  0.1293085E+00
          1   -1    0    0  501    0  0.00000000000E+00  0.00000000000E+00  0.11168966484E+03  0.11168966484E+03  0.00000000000E+00 0. -1.
         -1   -1    0    0    0  501 -0.00000000000E+00 -0.00000000000E+00 -0.19844287408E+02  0.19844287408E+02  0.00000000000E+00 0.  1.
         23    2    1    2    0    0  0.00000000000E+00  0.00000000000E+00  0.91845377427E+02  0.13153395224E+03  0.94157353607E+02 0.  0.
        -13    1    3    3    0    0  0.25864648801E+02 -0.14049188561E+01 -0.89948187978E+01  0.27420076947E+02  0.00000000000E+00 0.  1.
         13    1    3    3    0    0 -0.25864648801E+02  0.14049188561E+01  0.10084019623E+03  0.10411387530E+03  0.00000000000E+00 0. -1.
<mgrwt>
<rscale>  0 0.94157354E+02</rscale>
<asrwt>0</asrwt>
<pdfrwt beam="1">  1        1 0.17183025E-01 0.94157354E+02</pdfrwt>
<pdfrwt beam="2">  1       -1 0.30529674E-02 0.94157354E+02</pdfrwt>
<totfact> 0.97483869E+04</totfact>
</mgrwt>
</event>
<event>
 5    1  0.6027538E+000  0.9118382E+02  0.7546771E-02  0.1300010E+00
          3   -1    0    0  501    0  0.00000000000E+00  0.00000000000E+00  0.14944019214E+02  0.14944019214E+02  0.00000000000E+00 0. -1.
         -3   -1    0    0    0  501 -0.00000000000E+00 -0.00000000000E+00 -0.13909393200E+03  0.13909393200E+03  0.00000000000E+00 0.  1.
         23    2    1    2    0    0  0.00000000000E+00  0.00000000000E+00 -0.12414991279E+03  0.15403795121E+03  0.91183822960E+02 0.  0.
        -13    1    3    3    0    0  0.39238881162E+02 -0.66397613995E+01 -0.24495971702E+02  0.46731454674E+02  0.00000000000E+00 0. -1.
         13    1    3    3    0    0 -0.39238881162E+02  0.66397613995E+01 -0.99653941083E+02  0.10730649654E+03  0.00000000000E+00 0.  1.
<mgrwt>
<rscale>  0 0.91183823E+02</rscale>
<asrwt>0</asrwt>
<pdfrwt beam="1">  1        3 0.22990798E-02 0.91183823E+02</pdfrwt>
<pdfrwt beam="2">  1       -3 0.21399067E-01 0.91183823E+02</pdfrwt>
<totfact> 0.31056310E+04</totfact>
</mgrwt>
</event>
<event>
 5    1  0.6027538E+000  0.8842472E+02  0.7546771E-02  0.1306712E+00
         -1   -1    0    0    0  501 -0.00000000000E+00  0.00000000000E+00  0.14315219916E+02  0.14315219916E+02  0.00000000000E+00 0.  1.
          1   -1    0    0  501    0  0.00000000000E+00 -0.00000000000E+00 -0.13654927880E+03  0.13654927880E+03  0.00000000000E+00 0. -1.
         23    2    1    2    0    0  0.00000000000E+00  0.00000000000E+00 -0.12223405888E+03  0.15086449871E+03  0.88424724038E+02 0.  0.
        -13    1    3    3    0    0  0.14205297629E+02  0.23335001772E+02 -0.18077943283E+01  0.27378475282E+02  0.00000000000E+00 0.  1.
         13    1    3    3    0    0 -0.14205297629E+02 -0.23335001772E+02 -0.12042626455E+03  0.12348602343E+03  0.00000000000E+00 0. -1.
<mgrwt>
<rscale>  0 0.88424724E+02</rscale>
<asrwt>0</asrwt>
<pdfrwt beam="2">  1        1 0.21007582E-01 0.88424724E+02</pdfrwt>
<pdfrwt beam="1">  1       -1 0.22023414E-02 0.88424724E+02</pdfrwt>
<totfact> 0.11973001E+05</totfact>
</mgrwt>
</event>
<event>
 5    1  0.6027538E+000  0.9057983E+02  0.7546771E-02  0.1301454E+00
          2   -1    0    0  501    0  0.00000000000E+00  0.00000000000E+00  0.55020185708E+02  0.55020185708E+02  0.00000000000E+00 0. -1.
         -2   -1    0    0    0  501 -0.00000000000E+00 -0.00000000000E+00 -0.37280433285E+02  0.37280433285E+02  0.00000000000E+00 0.  1.
         23    2    1    2    0    0  0.00000000000E+00  0.00000000000E+00  0.17739752423E+02  0.92300618992E+02  0.90579829158E+02 0.  0.
        -13    1    3    3    0    0  0.40735267325E+01  0.21131039094E+02  0.49477430497E+02  0.53954893771E+02  0.00000000000E+00 0. -1.
         13    1    3    3    0    0 -0.40735267325E+01 -0.21131039094E+02 -0.31737678074E+02  0.38345725221E+02  0.00000000000E+00 0.  1.
<mgrwt>
<rscale>  0 0.90579829E+02</rscale>
<asrwt>0</asrwt>
<pdfrwt beam="1">  1        2 0.84646439E-02 0.90579829E+02</pdfrwt>
<pdfrwt beam="2">  1       -2 0.57354513E-02 0.90579829E+02</pdfrwt>
<totfact> 0.10559678E+05</totfact>
</mgrwt>
</event>
<event>
 5    1  0.6027538E+000  0.9173987E+02  0.7546771E-02  0.1298692E+00
         -1   -1    0    0    0  501 -0.00000000000E+00  0.00000000000E+00  0.19910359906E+02  0.19910359906E+02  0.00000000000E+00 0.  1.
          1   -1    0    0  501    0  0.00000000000E+00 -0.00000000000E+00 -0.10567617993E+03  0.10567617993E+03  0.00000000000E+00 0. -1.
         23    2    1    2    0    0  0.00000000000E+00  0.00000000000E+00 -0.85765820029E+02  0.12558653984E+03  0.91739866493E+02 0.  0.
        -13    1    3    3    0    0 -0.11106289966E+02  0.43179026269E+02 -0.57644190664E+02  0.72874074290E+02  0.00000000000E+00 0. -1.
         13    1    3    3    0    0  0.11106289966E+02 -0.43179026269E+02 -0.28121629365E+02  0.52712465551E+02  0.00000000000E+00 0.  1.
<mgrwt>
<rscale>  0 0.91739866E+02</rscale>
<asrwt>0</asrwt>
<pdfrwt beam="2">  1        1 0.16257874E-01 0.91739866E+02</pdfrwt>
<pdfrwt beam="1">  1       -1 0.30631323E-02 0.91739866E+02</pdfrwt>
<totfact> 0.10366744E+05</totfact>
</mgrwt>
</event>
<event>
 5    1  0.6027538E+000  0.9249461E+02  0.7546771E-02  0.1296921E+00
         -2   -1    0    0    0  501 -0.00000000000E+00  0.00000000000E+00  0.10538607821E+03  0.10538607821E+03  0.00000000000E+00 0.  1.
          2   -1    0    0  501    0  0.00000000000E+00 -0.00000000000E+00 -0.20295025882E+02  0.20295025882E+02  0.00000000000E+00 0. -1.
         23    2    1    2    0    0  0.00000000000E+00  0.00000000000E+00  0.85091052329E+02  0.12568110409E+03  0.92494609247E+02 0.  0.
        -13    1    3    3    0    0  0.23418132967E+02 -0.25777654232E+02  0.11989510148E+01  0.34847293911E+02  0.00000000000E+00 0. -1.
         13    1    3    3    0    0 -0.23418132967E+02  0.25777654232E+02  0.83892101314E+02  0.90833810182E+02  0.00000000000E+00 0.  1.
<mgrwt>
<rscale>  0 0.92494609E+02</rscale>
<asrwt>0</asrwt>
<pdfrwt beam="2">  1        2 0.31223118E-02 0.92494609E+02</pdfrwt>
<pdfrwt beam="1">  1       -2 0.16213242E-01 0.92494609E+02</pdfrwt>
<totfact> 0.75788753E+04</totfact>
</mgrwt>
</event>
<event>
 5    1  0.6027538E+000  0.9091356E+02  0.7546771E-02  0.1300654E+00
         -1   -1    0    0    0  501 -0.00000000000E+00  0.00000000000E+00  0.97756095032E+01  0.97756095032E+01  0.00000000000E+00 0.  1.
          1   -1    0    0  501    0  0.00000000000E+00 -0.00000000000E+00 -0.21137494753E+03  0.21137494753E+03  0.00000000000E+00 0. -1.
         23    2    1    2    0    0  0.00000000000E+00  0.00000000000E+00 -0.20159933803E+03  0.22115055704E+03  0.90913562153E+02 0.  0.
        -13    1    3    3    0    0  0.31834748111E+02  0.28315956220E+02 -0.13934400463E+03  0.14571203173E+03  0.00000000000E+00 0. -1.
         13    1    3    3    0    0 -0.31834748111E+02 -0.28315956220E+02 -0.62255333399E+02  0.75438525308E+02  0.00000000000E+00 0.  1.
<mgrwt>
<rscale>  0 0.90913562E+02</rscale>
<asrwt>0</asrwt>
<pdfrwt beam="2">  1        1 0.32519223E-01 0.90913562E+02</pdfrwt>
<pdfrwt beam="1">  1       -1 0.15039399E-02 0.90913562E+02</pdfrwt>
<totfact> 0.12061699E+05</totfact>
</mgrwt>
</event>
<event>
 5    1  0.6027538E+000  0.9168603E+02  0.7546771E-02  0.1298819E+00
          1   -1    0    0  501    0  0.00000000000E+00  0.00000000000E+00  0.42170777743E+03  0.42170777743E+03  0.00000000000E+00 0.  1.
         -1   -1    0    0    0  501 -0.00000000000E+00 -0.00000000000E+00 -0.49835026836E+01  0.49835026836E+01  0.00000000000E+00 0. -1.
         23    2    1    2    0    0  0.00000000000E+00  0.00000000000E+00  0.41672427474E+03  0.42669128011E+03  0.91686025991E+02 0.  0.
        -13    1    3    3    0    0 -0.44843744252E+02  0.90850967754E+01  0.19513226993E+03  0.20042480672E+03  0.00000000000E+00 0.  1.
         13    1    3    3    0    0  0.44843744252E+02 -0.90850967754E+01  0.22159200481E+03  0.22626647339E+03  0.00000000000E+00 0. -1.
<mgrwt>
<rscale>  0 0.91686026E+02</rscale>
<asrwt>0</asrwt>
<pdfrwt beam="1">  1        1 0.64878091E-01 0.91686026E+02</pdfrwt>
<pdfrwt beam="2">  1       -1 0.76669305E-03 0.91686026E+02</pdfrwt>
<totfact> 0.13403643E+05</totfact>
</mgrwt>
</event>
<event>
 5    1  0.6027538E+000  0.9774594E+02  0.7546771E-02  0.1285109E+00
          1   -1    0    0  501    0  0.00000000000E+00  0.00000000000E+00  0.31624743511E+03  0.31624743511E+03  0.00000000000E+00 0. -1.
         -1   -1    0    0    0  501 -0.00000000000E+00 -0.00000000000E+00 -0.75528429385E+01  0.75528429385E+01  0.00000000000E+00 0.  1.
         23    2    1    2    0    0  0.00000000000E+00  0.00000000000E+00  0.30869459217E+03  0.32380027805E+03  0.97745940215E+02 0.  0.
        -13    1    3    3    0    0 -0.48409818087E+02 -0.34223519118E+01  0.17347614417E+03  0.18013660254E+03  0.00000000000E+00 0.  1.
         13    1    3    3    0    0  0.48409818087E+02  0.34223519118E+01  0.13521844801E+03  0.14366367551E+03  0.00000000000E+00 0. -1.
<mgrwt>
<rscale>  0 0.97745940E+02</rscale>
<asrwt>0</asrwt>
<pdfrwt beam="1">  1        1 0.48653441E-01 0.97745940E+02</pdfrwt>
<pdfrwt beam="2">  1       -1 0.11619761E-02 0.97745940E+02</pdfrwt>
<totfact> 0.10744262E+05</totfact>
</mgrwt>
</event>
<event>
 5    1  0.6027538E+000  0.9110614E+02  0.7546771E-02  0.1300195E+00
          1   -1    0    0  501    0  0.00000000000E+00  0.00000000000E+00  0.38473890024E+02  0.38473890024E+02  0.00000000000E+00 0. -1.
         -1   -1    0    0    0  501 -0.00000000000E+00 -0.00000000000E+00 -0.53934815169E+02  0.53934815169E+02  0.00000000000E+00 0.  1.
         23    2    1    2    0    0  0.00000000000E+00  0.00000000000E+00 -0.15460925145E+02  0.92408705193E+02  0.91106139141E+02 0.  0.
        -13    1    3    3    0    0 -0.43462303399E+02  0.30075421188E+01  0.57663628331E+01  0.43946195133E+02  0.00000000000E+00 0.  1.
         13    1    3    3    0    0  0.43462303399E+02 -0.30075421188E+01 -0.21227287978E+02  0.48462510060E+02  0.00000000000E+00 0. -1.
<mgrwt>
<rscale>  0 0.91106139E+02</rscale>
<asrwt>0</asrwt>
<pdfrwt beam="1">  1        1 0.59190600E-02 0.91106139E+02</pdfrwt>
<pdfrwt beam="2">  1       -1 0.82976638E-02 0.91106139E+02</pdfrwt>
<totfact> 0.90326165E+04</totfact>
</mgrwt>
</event>
<event>
 5    1  0.6027538E+000  0.9130649E+02  0.7546771E-02  0.1299718E+00
         -3   -1    0    0    0  501 -0.00000000000E+00  0.00000000000E+00  0.41423475345E+02  0.41423475345E+02  0.00000000000E+00 0.  1.
          3   -1    0    0  501    0  0.00000000000E+00 -0.00000000000E+00 -0.50314917605E+02  0.50314917605E+02  0.00000000000E+00 0. -1.
         23    2    1    2    0    0  0.00000000000E+00  0.00000000000E+00 -0.88914422597E+01  0.91738392949E+02  0.91306489339E+02 0.  0.
        -13    1    3    3    0    0  0.23932967029E+02  0.76188781689E+00  0.34607814130E+02  0.42084060910E+02  0.00000000000E+00 0.  1.
         13    1    3    3    0    0 -0.23932967029E+02 -0.76188781689E+00 -0.43499256389E+02  0.49654332039E+02  0.00000000000E+00 0. -1.
<mgrwt>
<rscale>  0 0.91306489E+02</rscale>
<asrwt>0</asrwt>
<pdfrwt beam="2">  1        3 0.77407566E-02 0.91306489E+02</pdfrwt>
<pdfrwt beam="1">  1       -3 0.63728423E-02 0.91306489E+02</pdfrwt>
<totfact> 0.35158965E+04</totfact>
</mgrwt>
</event>
<event>
 5    1  0.6027538E+000  0.9218800E+02  0.7546771E-02  0.1297638E+00
         -1   -1    0    0    0  501 -0.00000000000E+00  0.00000000000E+00  0.10908139372E+02  0.10908139372E+02  0.00000000000E+00 0.  1.
          1   -1    0    0  501    0  0.00000000000E+00 -0.00000000000E+00 -0.19477721057E+03  0.19477721057E+03  0.00000000000E+00 0. -1.
         23    2    1    2    0    0  0.00000000000E+00  0.00000000000E+00 -0.18386907120E+03  0.20568534994E+03  0.92188002678E+02 0.  0.
        -13    1    3    3    0    0 -0.37124180785E+02 -0.11451816173E+02 -0.36589934884E+02  0.53368269856E+02  0.00000000000E+00 0.  1.
         13    1    3    3    0    0  0.37124180785E+02  0.11451816173E+02 -0.14727913631E+03  0.15231708009E+03  0.00000000000E+00 0. -1.
<mgrwt>
<rscale>  0 0.92188003E+02</rscale>
<asrwt>0</asrwt>
<pdfrwt beam="2">  1        1 0.29965725E-01 0.92188003E+02</pdfrwt>
<pdfrwt beam="1">  1       -1 0.16781753E-02 0.92188003E+02</pdfrwt>
<totfact> 0.11436111E+05</totfact>
</mgrwt>
</event>
<event>
 5    1  0.6027538E+000  0.8988816E+02  0.7546771E-02  0.1303123E+00
          2   -1    0    0  501    0  0.00000000000E+00  0.00000000000E+00  0.38515818793E+03  0.38515818793E+03  0.00000000000E+00 0.  1.
         -2   -1    0    0    0  501 -0.00000000000E+00 -0.00000000000E+00 -0.52445215653E+01  0.52445215653E+01  0.00000000000E+00 0. -1.
         23    2    1    2    0    0  0.00000000000E+00  0.00000000000E+00  0.37991366637E+03  0.39040270950E+03  0.89888162127E+02 0.  0.
        -13    1    3    3    0    0 -0.16580623611E+02  0.41766586022E+02  0.19333682724E+03  0.19849053770E+03  0.00000000000E+00 0.  1.
         13    1    3    3    0    0  0.16580623611E+02 -0.41766586022E+02  0.18657683912E+03  0.19191217180E+03  0.00000000000E+00 0. -1.
<mgrwt>
<rscale>  0 0.89888162E+02</rscale>
<asrwt>0</asrwt>
<pdfrwt beam="1">  1        2 0.59255083E-01 0.89888162E+02</pdfrwt>
<pdfrwt beam="2">  1       -2 0.80684978E-03 0.89888162E+02</pdfrwt>
<totfact> 0.20451071E+05</totfact>
</mgrwt>
</event>
<event>
 5    1  0.6027538E+000  0.9223807E+02  0.7546771E-02  0.1297521E+00
         -1   -1    0    0    0  501 -0.00000000000E+00  0.00000000000E+00  0.92259480368E+02  0.92259480368E+02  0.00000000000E+00 0.  1.
          1   -1    0    0  501    0  0.00000000000E+00 -0.00000000000E+00 -0.23054163655E+02  0.23054163655E+02  0.00000000000E+00 0. -1.
         23    2    1    2    0    0  0.00000000000E+00  0.00000000000E+00  0.69205316713E+02  0.11531364402E+03  0.92238065009E+02 0.  0.
        -13    1    3    3    0    0  0.72385346856E+01  0.44195541791E+02  0.20832408083E+02  0.49392626222E+02  0.00000000000E+00 0.  1.
         13    1    3    3    0    0 -0.72385346856E+01 -0.44195541791E+02  0.48372908630E+02  0.65921017801E+02  0.00000000000E+00 0. -1.
<mgrwt>
<rscale>  0 0.92238065E+02</rscale>
<asrwt>0</asrwt>
<pdfrwt beam="2">  1        1 0.35467944E-02 0.92238065E+02</pdfrwt>
<pdfrwt beam="1">  1       -1 0.14193766E-01 0.92238065E+02</pdfrwt>
<totfact> 0.80153715E+04</totfact>
</mgrwt>
</event>
<event>
 5    1  0.6027538E+000  0.8986948E+02  0.7546771E-02  0.1303168E+00
         -1   -1    0    0    0  501 -0.00000000000E+00  0.00000000000E+00  0.59301358723E+02  0.59301358723E+02  0.00000000000E+00 0.  1.
          1   -1    0    0  501    0  0.00000000000E+00 -0.00000000000E+00 -0.34048643435E+02  0.34048643435E+02  0.00000000000E+00 0. -1.
         23    2    1    2    0    0  0.00000000000E+00  0.00000000000E+00  0.25252715287E+02  0.93350002158E+02  0.89869479099E+02 0.  0.
        -13    1    3    3    0    0  0.13788488141E+02 -0.23860793089E+02  0.49492752279E+02  0.56647968898E+02  0.00000000000E+00 0.  1.
         13    1    3    3    0    0 -0.13788488141E+02  0.23860793089E+02 -0.24240036992E+02  0.36702033260E+02  0.00000000000E+00 0. -1.
<mgrwt>
<rscale>  0 0.89869479E+02</rscale>
<asrwt>0</asrwt>
<pdfrwt beam="2">  1        1 0.52382528E-02 0.89869479E+02</pdfrwt>
<pdfrwt beam="1">  1       -1 0.91232859E-02 0.89869479E+02</pdfrwt>
<totfact> 0.92151188E+04</totfact>
</mgrwt>
</event>
<event>
 5    1  0.6027538E+000  0.8959433E+02  0.7546771E-02  0.1303837E+00
          1   -1    0    0  501    0  0.00000000000E+00  0.00000000000E+00  0.34556549072E+02  0.34556549072E+02  0.00000000000E+00 0. -1.
         -1   -1    0    0    0  501 -0.00000000000E+00 -0.00000000000E+00 -0.58072519691E+02  0.58072519691E+02  0.00000000000E+00 0.  1.
         23    2    1    2    0    0  0.00000000000E+00  0.00000000000E+00 -0.23515970619E+02  0.92629068763E+02  0.89594327419E+02 0.  0.
        -13    1    3    3    0    0 -0.79170850743E+01 -0.41437701662E+02  0.38196400772E+01  0.42359804124E+02  0.00000000000E+00 0. -1.
         13    1    3    3    0    0  0.79170850743E+01  0.41437701662E+02 -0.27335610696E+02  0.50269264638E+02  0.00000000000E+00 0.  1.
<mgrwt>
<rscale>  0 0.89594327E+02</rscale>
<asrwt>0</asrwt>
<pdfrwt beam="1">  1        1 0.53163921E-02 0.89594327E+02</pdfrwt>
<pdfrwt beam="2">  1       -1 0.89342339E-02 0.89594327E+02</pdfrwt>
<totfact> 0.93168020E+04</totfact>
</mgrwt>
</event>
<event>
 5    1  0.6027538E+000  0.9090798E+02  0.7546771E-02  0.1300668E+00
         -2   -1    0    0    0  501 -0.00000000000E+00  0.00000000000E+00  0.13531303150E+02  0.13531303150E+02  0.00000000000E+00 0.  1.
          2   -1    0    0  501    0  0.00000000000E+00 -0.00000000000E+00 -0.15268783092E+03  0.15268783092E+03  0.00000000000E+00 0. -1.
         23    2    1    2    0    0  0.00000000000E+00  0.00000000000E+00 -0.13915652777E+03  0.16621913407E+03  0.90907982653E+02 0.  0.
        -13    1    3    3    0    0  0.46239384986E+00 -0.29560431507E+02 -0.13270640870E+03  0.13595964044E+03  0.00000000000E+00 0. -1.
         13    1    3    3    0    0 -0.46239384986E+00  0.29560431507E+02 -0.64501190779E+01  0.30259493635E+02  0.00000000000E+00 0.  1.
<mgrwt>
<rscale>  0 0.90907983E+02</rscale>
<asrwt>0</asrwt>
<pdfrwt beam="2">  1        2 0.23490435E-01 0.90907983E+02</pdfrwt>
<pdfrwt beam="1">  1       -2 0.20817390E-02 0.90907983E+02</pdfrwt>
<totfact> 0.14178982E+05</totfact>
</mgrwt>
</event>
<event>
 5    1  0.6027538E+000  0.9111713E+02  0.7546771E-02  0.1300169E+00
          2   -1    0    0  501    0  0.00000000000E+00  0.00000000000E+00  0.22330996086E+03  0.22330996086E+03  0.00000000000E+00 0.  1.
         -2   -1    0    0    0  501 -0.00000000000E+00 -0.00000000000E+00 -0.92946281431E+01  0.92946281431E+01  0.00000000000E+00 0. -1.
         23    2    1    2    0    0  0.00000000000E+00  0.00000000000E+00  0.21401533272E+03  0.23260458900E+03  0.91117134433E+02 0.  0.
        -13    1    3    3    0    0 -0.40169036851E+02  0.18753937716E+02  0.80194506320E+02  0.91631984293E+02  0.00000000000E+00 0. -1.
         13    1    3    3    0    0  0.40169036851E+02 -0.18753937716E+02  0.13382082640E+03  0.14097260471E+03  0.00000000000E+00 0.  1.
<mgrwt>
<rscale>  0 0.91117134E+02</rscale>
<asrwt>0</asrwt>
<pdfrwt beam="1">  1        2 0.34355375E-01 0.91117134E+02</pdfrwt>
<pdfrwt beam="2">  1       -2 0.14299430E-02 0.91117134E+02</pdfrwt>
<totfact> 0.16130274E+05</totfact>
</mgrwt>
</event>
<event>
 5    1  0.6027538E+000  0.9400355E+02  0.7546771E-02  0.1293436E+00
         -1   -1    0    0    0  501 -0.00000000000E+00  0.00000000000E+00  0.15775378749E+02  0.15775378749E+02  0.00000000000E+00 0.  1.
          1   -1    0    0  501    0  0.00000000000E+00 -0.00000000000E+00 -0.14003891511E+03  0.14003891511E+03  0.00000000000E+00 0. -1.
         23    2    1    2    0    0  0.00000000000E+00  0.00000000000E+00 -0.12426353636E+03  0.15581429386E+03  0.94003551538E+02 0.  0.
        -13    1    3    3    0    0  0.76204319334E+01 -0.42520787365E+02 -0.31430250927E+02  0.53422364365E+02  0.00000000000E+00 0.  1.
         13    1    3    3    0    0 -0.76204319334E+01  0.42520787365E+02 -0.92833285435E+02  0.10239192949E+03  0.00000000000E+00 0. -1.
<mgrwt>
<rscale>  0 0.94003552E+02</rscale>
<asrwt>0</asrwt>
<pdfrwt beam="2">  1        1 0.21544448E-01 0.94003552E+02</pdfrwt>
<pdfrwt beam="1">  1       -1 0.24269814E-02 0.94003552E+02</pdfrwt>
<totfact> 0.10194489E+05</totfact>
</mgrwt>
</event>
<event>
 5    1  0.6027538E+000  0.9064852E+02  0.7546771E-02  0.1301289E+00
         -1   -1    0    0    0  501 -0.00000000000E+00  0.00000000000E+00  0.57159955759E+02  0.57159955759E+02  0.00000000000E+00 0.  1.
          1   -1    0    0  501    0  0.00000000000E+00 -0.00000000000E+00 -0.35939296723E+02  0.35939296723E+02  0.00000000000E+00 0. -1.
         23    2    1    2    0    0  0.00000000000E+00  0.00000000000E+00  0.21220659036E+02  0.93099252481E+02  0.90648521459E+02 0.  0.
        -13    1    3    3    0    0 -0.66234465489E+01 -0.38299787919E+02  0.34554684723E+02  0.52007403657E+02  0.00000000000E+00 0.  1.
         13    1    3    3    0    0  0.66234465489E+01  0.38299787919E+02 -0.13334025687E+02  0.41091848825E+02  0.00000000000E+00 0. -1.
<mgrwt>
<rscale>  0 0.90648521E+02</rscale>
<asrwt>0</asrwt>
<pdfrwt beam="2">  1        1 0.55291226E-02 0.90648521E+02</pdfrwt>
<pdfrwt beam="1">  1       -1 0.87938393E-02 0.90648521E+02</pdfrwt>
<totfact> 0.90672499E+04</totfact>
</mgrwt>
</event>
<event>
 5    1  0.6027538E+000  0.9038597E+02  0.7546771E-02  0.1301920E+00
          3   -1    0    0  501    0  0.00000000000E+00  0.00000000000E+00  0.10226993155E+02  0.10226993155E+02  0.00000000000E+00 0. -1.
         -3   -1    0    0    0  501 -0.00000000000E+00 -0.00000000000E+00 -0.19970736895E+03  0.19970736895E+03  0.00000000000E+00 0.  1.
         23    2    1    2    0    0  0.00000000000E+00  0.00000000000E+00 -0.18948037580E+03  0.20993436211E+03  0.90385970046E+02 0.  0.
        -13    1    3    3    0    0  0.14483751615E+02 -0.38272653064E+02 -0.50194405747E+02  0.64761511732E+02  0.00000000000E+00 0. -1.
         13    1    3    3    0    0 -0.14483751615E+02  0.38272653064E+02 -0.13928597005E+03  0.14517285038E+03  0.00000000000E+00 0.  1.
<mgrwt>
<rscale>  0 0.90385970E+02</rscale>
<asrwt>0</asrwt>
<pdfrwt beam="1">  1        3 0.15733836E-02 0.90385970E+02</pdfrwt>
<pdfrwt beam="2">  1       -3 0.30724210E-01 0.90385970E+02</pdfrwt>
<totfact> 0.28655421E+04</totfact>
</mgrwt>
</event>
<event>
 5    1  0.6027538E+000  0.9026162E+02  0.7546771E-02  0.1302219E+00
         -1   -1    0    0    0  501 -0.00000000000E+00  0.00000000000E+00  0.12574537912E+03  0.12574537912E+03  0.00000000000E+00 0.  1.
          1   -1    0    0  501    0  0.00000000000E+00 -0.00000000000E+00 -0.16197731900E+02  0.16197731900E+02  0.00000000000E+00 0. -1.
         23    2    1    2    0    0  0.00000000000E+00  0.00000000000E+00  0.10954764722E+03  0.14194311102E+03  0.90261618394E+02 0.  0.
        -13    1    3    3    0    0  0.43033739754E+02  0.10233504055E+01  0.76095980419E+02  0.87427388381E+02  0.00000000000E+00 0. -1.
         13    1    3    3    0    0 -0.43033739754E+02 -0.10233504055E+01  0.33451666805E+02  0.54515722643E+02  0.00000000000E+00 0.  1.
<mgrwt>
<rscale>  0 0.90261618E+02</rscale>
<asrwt>0</asrwt>
<pdfrwt beam="2">  1        1 0.24919588E-02 0.90261618E+02</pdfrwt>
<pdfrwt beam="1">  1       -1 0.19345442E-01 0.90261618E+02</pdfrwt>
<totfact> 0.79827555E+04</totfact>
</mgrwt>
</event>
<event>
 5    1  0.6027538E+000  0.9282245E+02  0.7546771E-02  0.1296157E+00
          3   -1    0    0  501    0  0.00000000000E+00  0.00000000000E+00  0.28472489882E+02  0.28472489882E+02  0.00000000000E+00 0. -1.
         -3   -1    0    0    0  501 -0.00000000000E+00 -0.00000000000E+00 -0.75652029374E+02  0.75652029374E+02  0.00000000000E+00 0.  1.
         23    2    1    2    0    0  0.00000000000E+00  0.00000000000E+00 -0.47179539492E+02  0.10412451926E+03  0.92822446443E+02 0.  0.
        -13    1    3    3    0    0  0.39946120835E+02 -0.16544513708E+02 -0.42513571743E+02  0.60636765134E+02  0.00000000000E+00 0.  1.
         13    1    3    3    0    0 -0.39946120835E+02  0.16544513708E+02 -0.46659677490E+01  0.43487754122E+02  0.00000000000E+00 0. -1.
<mgrwt>
<rscale>  0 0.92822446E+02</rscale>
<asrwt>0</asrwt>
<pdfrwt beam="1">  1        3 0.43803831E-02 0.92822446E+02</pdfrwt>
<pdfrwt beam="2">  1       -3 0.11638774E-01 0.92822446E+02</pdfrwt>
<totfact> 0.32732679E+04</totfact>
</mgrwt>
</event>
<event>
 5    1  0.6027538E+000  0.9208968E+02  0.7546771E-02  0.1297869E+00
         -2   -1    0    0    0  501 -0.00000000000E+00  0.00000000000E+00  0.11955317756E+03  0.11955317756E+03  0.00000000000E+00 0.  1.
          2   -1    0    0  501    0  0.00000000000E+00 -0.00000000000E+00 -0.17733759196E+02  0.17733759196E+02  0.00000000000E+00 0. -1.
         23    2    1    2    0    0  0.00000000000E+00  0.00000000000E+00  0.10181941836E+03  0.13728693675E+03  0.92089679376E+02 0.  0.
        -13    1    3    3    0    0  0.38143226576E+02  0.46364594809E+00  0.89353943788E+02  0.97155792270E+02  0.00000000000E+00 0.  1.
         13    1    3    3    0    0 -0.38143226576E+02 -0.46364594809E+00  0.12465474573E+02  0.40131144483E+02  0.00000000000E+00 0. -1.
<mgrwt>
<rscale>  0 0.92089679E+02</rscale>
<asrwt>0</asrwt>
<pdfrwt beam="2">  1        2 0.27282707E-02 0.92089679E+02</pdfrwt>
<pdfrwt beam="1">  1       -2 0.18392796E-01 0.92089679E+02</pdfrwt>
<totfact> 0.73641887E+04</totfact>
</mgrwt>
</event>
<event>
 5    1  0.6027538E+000  0.9162731E+02  0.7546771E-02  0.1298958E+00
          2   -1    0    0  501    0  0.00000000000E+00  0.00000000000E+00  0.12799235380E+02  0.12799235380E+02  0.00000000000E+00 0. -1.
         -2   -1    0    0    0  501 -0.00000000000E+00 -0.00000000000E+00 -0.16398564991E+03  0.16398564991E+03  0.00000000000E+00 0.  1.
         23    2    1    2    0    0  0.00000000000E+00  0.00000000000E+00 -0.15118641452E+03  0.17678488529E+03  0.91627308858E+02 0.  0.
        -13    1    3    3    0    0  0.38041805759E+02  0.55773430085E+01 -0.27528322882E+02  0.47287358787E+02  0.00000000000E+00 0. -1.
         13    1    3    3    0    0 -0.38041805759E+02 -0.55773430085E+01 -0.12365809164E+03  0.12949752650E+03  0.00000000000E+00 0.  1.
<mgrwt>
<rscale>  0 0.91627309E+02</rscale>
<asrwt>0</asrwt>
<pdfrwt beam="1">  1        2 0.19691132E-02 0.91627309E+02</pdfrwt>
<pdfrwt beam="2">  1       -2 0.25228561E-01 0.91627309E+02</pdfrwt>
<totfact> 0.66728430E+04</totfact>
</mgrwt>
</event>
<event>
 5    1  0.6027538E+000  0.9271128E+02  0.7546771E-02  0.1296416E+00
         -1   -1    0    0    0  501 -0.00000000000E+00  0.00000000000E+00  0.12558373789E+02  0.12558373789E+02  0.00000000000E+00 0.  1.
          1   -1    0    0  501    0  0.00000000000E+00 -0.00000000000E+00 -0.17110857223E+03  0.17110857223E+03  0.00000000000E+00 0. -1.
         23    2    1    2    0    0  0.00000000000E+00  0.00000000000E+00 -0.15855019844E+03  0.18366694602E+03  0.92711281052E+02 0.  0.
        -13    1    3    3    0    0  0.40684525389E+02  0.21486205245E+02 -0.90474293243E+02  0.10150115940E+03  0.00000000000E+00 0. -1.
         13    1    3    3    0    0 -0.40684525389E+02 -0.21486205245E+02 -0.68075905193E+02  0.82165786614E+02  0.00000000000E+00 0.  1.
<mgrwt>
<rscale>  0 0.92711281E+02</rscale>
<asrwt>0</asrwt>
<pdfrwt beam="2">  1        1 0.26324396E-01 0.92711281E+02</pdfrwt>
<pdfrwt beam="1">  1       -1 0.19320575E-02 0.92711281E+02</pdfrwt>
<totfact> 0.10986279E+05</totfact>
</mgrwt>
</event>
<event>
 5    1  0.6027538E+000  0.8992163E+02  0.7546771E-02  0.1303042E+00
         -4   -1    0    0    0  501 -0.00000000000E+00  0.00000000000E+00  0.48105170238E+02  0.48105170238E+02  0.00000000000E+00 0.  1.
          4   -1    0    0  501    0  0.00000000000E+00 -0.00000000000E+00 -0.42021987478E+02  0.42021987478E+02  0.00000000000E+00 0. -1.
         23    2    1    2    0    0  0.00000000000E+00  0.00000000000E+00  0.60831827592E+01  0.90127157716E+02  0.89921629464E+02 0.  0.
        -13    1    3    3    0    0 -0.50220121198E+01  0.34707228297E+02 -0.25159217167E+02  0.43160149562E+02  0.00000000000E+00 0. -1.
         13    1    3    3    0    0  0.50220121198E+01 -0.34707228297E+02  0.31242399926E+02  0.46967008154E+02  0.00000000000E+00 0.  1.
<mgrwt>
<rscale>  0 0.89921629E+02</rscale>
<asrwt>0</asrwt>
<pdfrwt beam="2">  1        4 0.64649212E-02 0.89921629E+02</pdfrwt>
<pdfrwt beam="1">  1       -4 0.74007954E-02 0.89921629E+02</pdfrwt>
<totfact> 0.28120315E+04</totfact>
</mgrwt>
</event>
<event>
 5    1  0.6027538E+000  0.9073495E+02  0.7546771E-02  0.1301082E+00
          2   -1    0    0  501    0  0.00000000000E+00  0.00000000000E+00  0.48779412663E+02  0.48779412663E+02  0.00000000000E+00 0. -1.
         -2   -1    0    0    0  501 -0.00000000000E+00 -0.00000000000E+00 -0.42194189821E+02  0.42194189821E+02  0.00000000000E+00 0.  1.
         23    2    1    2    0    0  0.00000000000E+00  0.00000000000E+00  0.65852228416E+01  0.90973602484E+02  0.90734950207E+02 0.  0.
        -13    1    3    3    0    0 -0.34880430830E+02 -0.24901421389E+02  0.18214045003E+02  0.46566905388E+02  0.00000000000E+00 0. -1.
         13    1    3    3    0    0  0.34880430830E+02  0.24901421389E+02 -0.11628822161E+02  0.44406697095E+02  0.00000000000E+00 0.  1.
<mgrwt>
<rscale>  0 0.90734950E+02</rscale>
<asrwt>0</asrwt>
<pdfrwt beam="1">  1        2 0.75045250E-02 0.90734950E+02</pdfrwt>
<pdfrwt beam="2">  1       -2 0.64914138E-02 0.90734950E+02</pdfrwt>
<totfact> 0.10182922E+05</totfact>
</mgrwt>
</event>
<event>
 5    1  0.6027538E+000  0.8863658E+02  0.7546771E-02  0.1306187E+00
         -1   -1    0    0    0  501 -0.00000000000E+00  0.00000000000E+00  0.14474425085E+03  0.14474425085E+03  0.00000000000E+00 0. -1.
          1   -1    0    0  501    0  0.00000000000E+00 -0.00000000000E+00 -0.13569526975E+02  0.13569526975E+02  0.00000000000E+00 0.  1.
         23    2    1    2    0    0  0.00000000000E+00  0.00000000000E+00  0.13117472387E+03  0.15831377782E+03  0.88636584238E+02 0.  0.
        -13    1    3    3    0    0 -0.20820794072E+02 -0.23722939839E+02  0.10021926809E+02  0.33116798719E+02  0.00000000000E+00 0.  1.
         13    1    3    3    0    0  0.20820794072E+02  0.23722939839E+02  0.12115279706E+03  0.12519697911E+03  0.00000000000E+00 0. -1.
<mgrwt>
<rscale>  0 0.88636584E+02</rscale>
<asrwt>0</asrwt>
<pdfrwt beam="2">  1        1 0.20876196E-02 0.88636584E+02</pdfrwt>
<pdfrwt beam="1">  1       -1 0.22268345E-01 0.88636584E+02</pdfrwt>
<totfact> 0.81134619E+04</totfact>
</mgrwt>
</event>
<event>
 5    1  0.6027538E+000  0.9187152E+02  0.7546771E-02  0.1298382E+00
         -2   -1    0    0    0  501 -0.00000000000E+00  0.00000000000E+00  0.96605775632E+01  0.96605775632E+01  0.00000000000E+00 0.  1.
          2   -1    0    0  501    0  0.00000000000E+00 -0.00000000000E+00 -0.21842315795E+03  0.21842315795E+03  0.00000000000E+00 0. -1.
         23    2    1    2    0    0  0.00000000000E+00  0.00000000000E+00 -0.20876258039E+03  0.22808373551E+03  0.91871515912E+02 0.  0.
        -13    1    3    3    0    0  0.41831287958E+02 -0.17022341414E+02 -0.83539383559E+02  0.94965495654E+02  0.00000000000E+00 0.  1.
         13    1    3    3    0    0 -0.41831287958E+02  0.17022341414E+02 -0.12522319683E+03  0.13311823986E+03  0.00000000000E+00 0. -1.
<mgrwt>
<rscale>  0 0.91871516E+02</rscale>
<asrwt>0</asrwt>
<pdfrwt beam="2">  1        2 0.33603565E-01 0.91871516E+02</pdfrwt>
<pdfrwt beam="1">  1       -2 0.14862426E-02 0.91871516E+02</pdfrwt>
<totfact> 0.15649138E+05</totfact>
</mgrwt>
</event>
<event>
 5    1  0.6027538E+000  0.9329441E+02  0.7546771E-02  0.1295064E+00
          2   -1    0    0  501    0  0.00000000000E+00  0.00000000000E+00  0.18066591019E+03  0.18066591019E+03  0.00000000000E+00 0.  1.
         -2   -1    0    0    0  501 -0.00000000000E+00 -0.00000000000E+00 -0.12044118229E+02  0.12044118229E+02  0.00000000000E+00 0. -1.
         23    2    1    2    0    0  0.00000000000E+00  0.00000000000E+00  0.16862179197E+03  0.19271002842E+03  0.93294406742E+02 0.  0.
        -13    1    3    3    0    0 -0.88584690069E+00  0.29794253892E+02  0.10193724949E+02  0.31502290680E+02  0.00000000000E+00 0. -1.
         13    1    3    3    0    0  0.88584690069E+00 -0.29794253892E+02  0.15842806702E+03  0.16120773774E+03  0.00000000000E+00 0.  1.
<mgrwt>
<rscale>  0 0.93294407E+02</rscale>
<asrwt>0</asrwt>
<pdfrwt beam="1">  1        2 0.27794753E-01 0.93294407E+02</pdfrwt>
<pdfrwt beam="2">  1       -2 0.18529414E-02 0.93294407E+02</pdfrwt>
<totfact> 0.14016024E+05</totfact>
</mgrwt>
</event>
<event>
 5    1  0.6027538E+000  0.8942260E+02  0.7546771E-02  0.1304256E+00
         -1   -1    0    0    0  501 -0.00000000000E+00  0.00000000000E+00  0.19471871531E+02  0.19471871531E+02  0.00000000000E+00 0.  1.
          1   -1    0    0  501    0  0.00000000000E+00 -0.00000000000E+00 -0.10266606440E+03  0.10266606440E+03  0.00000000000E+00 0. -1.
         23    2    1    2    0    0  0.00000000000E+00  0.00000000000E+00 -0.83194192873E+02  0.12213793594E+03  0.89422601544E+02 0.  0.
        -13    1    3    3    0    0 -0.33665943721E+01 -0.27702902510E+02 -0.89310386755E+02  0.93568851374E+02  0.00000000000E+00 0. -1.
         13    1    3    3    0    0  0.33665943721E+01  0.27702902510E+02  0.61161938815E+01  0.28569084562E+02  0.00000000000E+00 0.  1.
<mgrwt>
<rscale>  0 0.89422602E+02</rscale>
<asrwt>0</asrwt>
<pdfrwt beam="2">  1        1 0.15794779E-01 0.89422602E+02</pdfrwt>
<pdfrwt beam="1">  1       -1 0.29956725E-02 0.89422602E+02</pdfrwt>
<totfact> 0.11060078E+05</totfact>
</mgrwt>
</event>
<event>
 5    1  0.6027538E+000  0.8740647E+02  0.7546771E-02  0.1309257E+00
          1   -1    0    0  501    0  0.00000000000E+00  0.00000000000E+00  0.14922063930E+02  0.14922063930E+02  0.00000000000E+00 0. -1.
         -1   -1    0    0    0  501 -0.00000000000E+00 -0.00000000000E+00 -0.12799655900E+03  0.12799655900E+03  0.00000000000E+00 0.  1.
         23    2    1    2    0    0  0.00000000000E+00  0.00000000000E+00 -0.11307449507E+03  0.14291862293E+03  0.87406471985E+02 0.  0.
        -13    1    3    3    0    0 -0.40369619892E+02 -0.56368713001E+01 -0.30762067537E+02  0.51066479489E+02  0.00000000000E+00 0. -1.
         13    1    3    3    0    0  0.40369619892E+02  0.56368713001E+01 -0.82312427533E+02  0.91852143441E+02  0.00000000000E+00 0.  1.
<mgrwt>
<rscale>  0 0.87406472E+02</rscale>
<asrwt>0</asrwt>
<pdfrwt beam="1">  1        1 0.22957022E-02 0.87406472E+02</pdfrwt>
<pdfrwt beam="2">  1       -1 0.19691778E-01 0.87406472E+02</pdfrwt>
<totfact> 0.86414700E+04</totfact>
</mgrwt>
</event>
<event>
 5    1  0.6027538E+000  0.9117448E+02  0.7546771E-02  0.1300032E+00
         -2   -1    0    0    0  501 -0.00000000000E+00  0.00000000000E+00  0.98915667005E+01  0.98915667005E+01  0.00000000000E+00 0. -1.
          2   -1    0    0  501    0  0.00000000000E+00 -0.00000000000E+00 -0.21009781877E+03  0.21009781877E+03  0.00000000000E+00 0.  1.
         23    2    1    2    0    0  0.00000000000E+00  0.00000000000E+00 -0.20020625207E+03  0.21998938547E+03  0.91174483009E+02 0.  0.
        -13    1    3    3    0    0  0.37300528118E+02 -0.17333747313E+02 -0.52673282354E+02  0.66830104502E+02  0.00000000000E+00 0. -1.
         13    1    3    3    0    0 -0.37300528118E+02  0.17333747313E+02 -0.14753296972E+03  0.15315928097E+03  0.00000000000E+00 0.  1.
<mgrwt>
<rscale>  0 0.91174483E+02</rscale>
<asrwt>0</asrwt>
<pdfrwt beam="2">  1        2 0.32322739E-01 0.91174483E+02</pdfrwt>
<pdfrwt beam="1">  1       -2 0.15217796E-02 0.91174483E+02</pdfrwt>
<totfact> 0.15748038E+05</totfact>
</mgrwt>
</event>
<event>
 5    1  0.6027538E+000  0.7757583E+02  0.7546771E-02  0.1336075E+00
         -2   -1    0    0    0  501 -0.00000000000E+00  0.00000000000E+00  0.71856170542E+02  0.71856170542E+02  0.00000000000E+00 0.  1.
          2   -1    0    0  501    0  0.00000000000E+00 -0.00000000000E+00 -0.20937692974E+02  0.20937692974E+02  0.00000000000E+00 0. -1.
         23    2    1    2    0    0  0.00000000000E+00  0.00000000000E+00  0.50918477568E+02  0.92793863516E+02  0.77575832245E+02 0.  0.
        -13    1    3    3    0    0  0.28366309696E+02  0.13236506182E+02  0.52857788559E+02  0.61431249646E+02  0.00000000000E+00 0.  1.
         13    1    3    3    0    0 -0.28366309696E+02 -0.13236506182E+02 -0.19393109911E+01  0.31362613871E+02  0.00000000000E+00 0. -1.
<mgrwt>
<rscale>  0 0.77575832E+02</rscale>
<asrwt>0</asrwt>
<pdfrwt beam="2">  1        2 0.32211836E-02 0.77575832E+02</pdfrwt>
<pdfrwt beam="1">  1       -2 0.11054795E-01 0.77575832E+02</pdfrwt>
<totfact> 0.13007301E+05</totfact>
</mgrwt>
</event>
<event>
 5    1  0.6027538E+000  0.7392567E+02  0.7546771E-02  0.1347231E+00
         -2   -1    0    0    0  501 -0.00000000000E+00  0.00000000000E+00  0.94558483049E+02  0.94558483049E+02  0.00000000000E+00 0.  1.
          2   -1    0    0  501    0  0.00000000000E+00 -0.00000000000E+00 -0.14448741305E+02  0.14448741305E+02  0.00000000000E+00 0. -1.
         23    2    1    2    0    0  0.00000000000E+00  0.00000000000E+00  0.80109741744E+02  0.10900722435E+03  0.73925666985E+02 0.  0.
        -13    1    3    3    0    0  0.12878183380E+02 -0.34612000668E+02  0.37764391899E+02  0.52820332192E+02  0.00000000000E+00 0.  1.
         13    1    3    3    0    0 -0.12878183380E+02  0.34612000668E+02  0.42345349845E+02  0.56186892163E+02  0.00000000000E+00 0. -1.
<mgrwt>
<rscale>  0 0.73925667E+02</rscale>
<asrwt>0</asrwt>
<pdfrwt beam="2">  1        2 0.22228833E-02 0.73925667E+02</pdfrwt>
<pdfrwt beam="1">  1       -2 0.14547459E-01 0.73925667E+02</pdfrwt>
<totfact> 0.13657506E+05</totfact>
</mgrwt>
</event>
<event>
 5    1  0.6027538E+000  0.9138845E+02  0.7546771E-02  0.1299524E+00
          2   -1    0    0  501    0  0.00000000000E+00  0.00000000000E+00  0.10496500195E+03  0.10496500195E+03  0.00000000000E+00 0. -1.
         -2   -1    0    0    0  501 -0.00000000000E+00 -0.00000000000E+00 -0.19891984088E+02  0.19891984088E+02  0.00000000000E+00 0.  1.
         23    2    1    2    0    0  0.00000000000E+00  0.00000000000E+00  0.85073017864E+02  0.12485698604E+03  0.91388448912E+02 0.  0.
        -13    1    3    3    0    0 -0.38427250087E+02 -0.20181534376E+02  0.62050756627E+02  0.75724793014E+02  0.00000000000E+00 0.  1.
         13    1    3    3    0    0  0.38427250087E+02  0.20181534376E+02  0.23022261236E+02  0.49132193025E+02  0.00000000000E+00 0. -1.
<mgrwt>
<rscale>  0 0.91388449E+02</rscale>
<asrwt>0</asrwt>
<pdfrwt beam="1">  1        2 0.16148461E-01 0.91388449E+02</pdfrwt>
<pdfrwt beam="2">  1       -2 0.30603053E-02 0.91388449E+02</pdfrwt>
<totfact> 0.12372079E+05</totfact>
</mgrwt>
</event>
<event>
 5    1  0.6027538E+000  0.9094110E+02  0.7546771E-02  0.1300589E+00
         -1   -1    0    0    0  501 -0.00000000000E+00  0.00000000000E+00  0.54371173074E+02  0.54371173074E+02  0.00000000000E+00 0.  1.
          1   -1    0    0  501    0  0.00000000000E+00 -0.00000000000E+00 -0.38026971568E+02  0.38026971568E+02  0.00000000000E+00 0. -1.
         23    2    1    2    0    0  0.00000000000E+00  0.00000000000E+00  0.16344201506E+02  0.92398144642E+02  0.90941102975E+02 0.  0.
        -13    1    3    3    0    0 -0.85152867364E+01 -0.22683796037E+02  0.47265926194E+02  0.53114334128E+02  0.00000000000E+00 0.  1.
         13    1    3    3    0    0  0.85152867364E+01  0.22683796037E+02 -0.30921724687E+02  0.39283810514E+02  0.00000000000E+00 0. -1.
<mgrwt>
<rscale>  0 0.90941103E+02</rscale>
<asrwt>0</asrwt>
<pdfrwt beam="2">  1        1 0.58503033E-02 0.90941103E+02</pdfrwt>
<pdfrwt beam="1">  1       -1 0.83647958E-02 0.90941103E+02</pdfrwt>
<totfact> 0.90629050E+04</totfact>
</mgrwt>
</event>
<event>
 5    1  0.6027538E+000  0.7744442E+02  0.7546771E-02  0.1336464E+00
          3   -1    0    0  501    0  0.00000000000E+00  0.00000000000E+00  0.57746657665E+01  0.57746657665E+01  0.00000000000E+00 0. -1.
         -3   -1    0    0    0  501 -0.00000000000E+00 -0.00000000000E+00 -0.25965306094E+03  0.25965306094E+03  0.00000000000E+00 0.  1.
         23    2    1    2    0    0  0.00000000000E+00  0.00000000000E+00 -0.25387839517E+03  0.26542772671E+03  0.77444422451E+02 0.  0.
        -13    1    3    3    0    0 -0.34258283060E+02  0.43992792632E+00 -0.18878199147E+03  0.19186574420E+03  0.00000000000E+00 0.  1.
         13    1    3    3    0    0  0.34258283060E+02 -0.43992792632E+00 -0.65096403702E+02  0.73561982503E+02  0.00000000000E+00 0. -1.
<mgrwt>
<rscale>  0 0.77444422E+02</rscale>
<asrwt>0</asrwt>
<pdfrwt beam="1">  1        3 0.88841017E-03 0.77444422E+02</pdfrwt>
<pdfrwt beam="2">  1       -3 0.39946623E-01 0.77444422E+02</pdfrwt>
<totfact> 0.39259062E+04</totfact>
</mgrwt>
</event>
<event>
 5    1  0.6027538E+000  0.9105239E+02  0.7546771E-02  0.1300323E+00
          2   -1    0    0  501    0  0.00000000000E+00  0.00000000000E+00  0.18247889834E+03  0.18247889834E+03  0.00000000000E+00 0. -1.
         -2   -1    0    0    0  501 -0.00000000000E+00 -0.00000000000E+00 -0.11358215505E+02  0.11358215505E+02  0.00000000000E+00 0.  1.
         23    2    1    2    0    0  0.00000000000E+00  0.00000000000E+00  0.17112068284E+03  0.19383711385E+03  0.91052394862E+02 0.  0.
        -13    1    3    3    0    0  0.44068427736E+02  0.48574064998E+01  0.63537886922E+02  0.77476988814E+02  0.00000000000E+00 0.  1.
         13    1    3    3    0    0 -0.44068427736E+02 -0.48574064998E+01  0.10758279592E+03  0.11636012504E+03  0.00000000000E+00 0. -1.
<mgrwt>
<rscale>  0 0.91052395E+02</rscale>
<asrwt>0</asrwt>
<pdfrwt beam="1">  1        2 0.28073675E-01 0.91052395E+02</pdfrwt>
<pdfrwt beam="2">  1       -2 0.17474179E-02 0.91052395E+02</pdfrwt>
<totfact> 0.15022574E+05</totfact>
</mgrwt>
</event>
<event>
 5    1  0.6027538E+000  0.9033256E+02  0.7546771E-02  0.1302048E+00
         -1   -1    0    0    0  501 -0.00000000000E+00  0.00000000000E+00  0.68262760220E+01  0.68262760220E+01  0.00000000000E+00 0.  1.
          1   -1    0    0  501    0  0.00000000000E+00 -0.00000000000E+00 -0.29884415055E+03  0.29884415055E+03  0.00000000000E+00 0. -1.
         23    2    1    2    0    0  0.00000000000E+00  0.00000000000E+00 -0.29201787452E+03  0.30567042657E+03  0.90332555797E+02 0.  0.
        -13    1    3    3    0    0 -0.42487094191E+02 -0.10817343213E+02 -0.18273945591E+03  0.18792518946E+03  0.00000000000E+00 0. -1.
         13    1    3    3    0    0  0.42487094191E+02  0.10817343213E+02 -0.10927841861E+03  0.11774523711E+03  0.00000000000E+00 0.  1.
<mgrwt>
<rscale>  0 0.90332556E+02</rscale>
<asrwt>0</asrwt>
<pdfrwt beam="2">  1        1 0.45976021E-01 0.90332556E+02</pdfrwt>
<pdfrwt beam="1">  1       -1 0.10501964E-02 0.90332556E+02</pdfrwt>
<totfact> 0.13123804E+05</totfact>
</mgrwt>
</event>
<event>
 5    1  0.6027538E+000  0.8864417E+02  0.7546771E-02  0.1306169E+00
         -2   -1    0    0    0  501 -0.00000000000E+00  0.00000000000E+00  0.71283160812E+01  0.71283160812E+01  0.00000000000E+00 0. -1.
          2   -1    0    0  501    0  0.00000000000E+00 -0.00000000000E+00 -0.27558364949E+03  0.27558364949E+03  0.00000000000E+00 0.  1.
         23    2    1    2    0    0  0.00000000000E+00  0.00000000000E+00 -0.26845533341E+03  0.28271196557E+03  0.88644173196E+02 0.  0.
        -13    1    3    3    0    0  0.26259690076E+02  0.26740396711E+02 -0.58766936668E+02  0.69700595295E+02  0.00000000000E+00 0.  1.
         13    1    3    3    0    0 -0.26259690076E+02 -0.26740396711E+02 -0.20968839674E+03  0.21301137028E+03  0.00000000000E+00 0. -1.
<mgrwt>
<rscale>  0 0.88644173E+02</rscale>
<asrwt>0</asrwt>
<pdfrwt beam="2">  1        2 0.42397476E-01 0.88644173E+02</pdfrwt>
<pdfrwt beam="1">  1       -2 0.10966642E-02 0.88644173E+02</pdfrwt>
<totfact> 0.18764161E+05</totfact>
</mgrwt>
</event>
<event>
 5    1  0.6027538E+000  0.9239385E+02  0.7546771E-02  0.1297156E+00
         -2   -1    0    0    0  501 -0.00000000000E+00  0.00000000000E+00  0.14239828135E+02  0.14239828135E+02  0.00000000000E+00 0. -1.
          2   -1    0    0  501    0  0.00000000000E+00 -0.00000000000E+00 -0.14987231955E+03  0.14987231955E+03  0.00000000000E+00 0.  1.
         23    2    1    2    0    0  0.00000000000E+00  0.00000000000E+00 -0.13563249141E+03  0.16411214768E+03  0.92393854179E+02 0.  0.
        -13    1    3    3    0    0 -0.45332295858E+02  0.66697230979E+01 -0.78272429137E+02  0.90697714508E+02  0.00000000000E+00 0.  1.
         13    1    3    3    0    0  0.45332295858E+02 -0.66697230979E+01 -0.57360062273E+02  0.73414433172E+02  0.00000000000E+00 0. -1.
<mgrwt>
<rscale>  0 0.92393854E+02</rscale>
<asrwt>0</asrwt>
<pdfrwt beam="2">  1        2 0.23057279E-01 0.92393854E+02</pdfrwt>
<pdfrwt beam="1">  1       -2 0.21907429E-02 0.92393854E+02</pdfrwt>
<totfact> 0.13482012E+05</totfact>
</mgrwt>
</event>
<event>
 5    1  0.6027538E+000  0.9097219E+02  0.7546771E-02  0.1300514E+00
         -2   -1    0    0    0  501 -0.00000000000E+00  0.00000000000E+00  0.57588187191E+01  0.57588187191E+01  0.00000000000E+00 0.  1.
          2   -1    0    0  501    0  0.00000000000E+00 -0.00000000000E+00 -0.35927244981E+03  0.35927244981E+03  0.00000000000E+00 0. -1.
         23    2    1    2    0    0  0.00000000000E+00  0.00000000000E+00 -0.35351363109E+03  0.36503126853E+03  0.90972191558E+02 0.  0.
        -13    1    3    3    0    0  0.21485838489E+02 -0.40023023047E+02 -0.16734543621E+03  0.17340120717E+03  0.00000000000E+00 0.  1.
         13    1    3    3    0    0 -0.21485838489E+02  0.40023023047E+02 -0.18616819488E+03  0.19163006135E+03  0.00000000000E+00 0. -1.
<mgrwt>
<rscale>  0 0.90972192E+02</rscale>
<asrwt>0</asrwt>
<pdfrwt beam="2">  1        2 0.55272705E-01 0.90972192E+02</pdfrwt>
<pdfrwt beam="1">  1       -2 0.88597178E-03 0.90972192E+02</pdfrwt>
<totfact> 0.19317273E+05</totfact>
</mgrwt>
</event>
<event>
 5    1  0.6027538E+000  0.8899468E+02  0.7546771E-02  0.1305305E+00
          2   -1    0    0  501    0  0.00000000000E+00  0.00000000000E+00  0.13502750694E+03  0.13502750694E+03  0.00000000000E+00 0. -1.
         -2   -1    0    0    0  501 -0.00000000000E+00 -0.00000000000E+00 -0.14663776292E+02  0.14663776292E+02  0.00000000000E+00 0.  1.
         23    2    1    2    0    0  0.00000000000E+00  0.00000000000E+00  0.12036373065E+03  0.14969128323E+03  0.88994677481E+02 0.  0.
        -13    1    3    3    0    0 -0.32213508270E+02 -0.30475999317E+02  0.53997933519E+02  0.69873267233E+02  0.00000000000E+00 0.  1.
         13    1    3    3    0    0  0.32213508270E+02  0.30475999317E+02  0.66365797130E+02  0.79818016000E+02  0.00000000000E+00 0. -1.
<mgrwt>
<rscale>  0 0.88994677E+02</rscale>
<asrwt>0</asrwt>
<pdfrwt beam="1">  1        2 0.20773462E-01 0.88994677E+02</pdfrwt>
<pdfrwt beam="2">  1       -2 0.22559657E-02 0.88994677E+02</pdfrwt>
<totfact> 0.14413932E+05</totfact>
</mgrwt>
</event>
<event>
 5    1  0.6027538E+000  0.9225278E+02  0.7546771E-02  0.1297486E+00
          3   -1    0    0  501    0  0.00000000000E+00  0.00000000000E+00  0.71208781051E+01  0.71208781051E+01  0.00000000000E+00 0. -1.
         -3   -1    0    0    0  501 -0.00000000000E+00 -0.00000000000E+00 -0.29878951019E+03  0.29878951019E+03  0.00000000000E+00 0.  1.
         23    2    1    2    0    0  0.00000000000E+00  0.00000000000E+00 -0.29166863209E+03  0.30591038830E+03  0.92252776244E+02 0.  0.
        -13    1    3    3    0    0 -0.30714967739E+01 -0.45673421240E+02 -0.12703279509E+03  0.13502898403E+03  0.00000000000E+00 0. -1.
         13    1    3    3    0    0  0.30714967739E+01  0.45673421240E+02 -0.16463583700E+03  0.17088140427E+03  0.00000000000E+00 0.  1.
<mgrwt>
<rscale>  0 0.92252776E+02</rscale>
<asrwt>0</asrwt>
<pdfrwt beam="1">  1        3 0.10955198E-02 0.92252776E+02</pdfrwt>
<pdfrwt beam="2">  1       -3 0.45967614E-01 0.92252776E+02</pdfrwt>
<totfact> 0.23057317E+04</totfact>
</mgrwt>
</event>
<event>
 5    1  0.6027538E+000  0.9599772E+02  0.7546771E-02  0.1288945E+00
          1   -1    0    0  501    0  0.00000000000E+00  0.00000000000E+00  0.63846287619E+02  0.63846287619E+02  0.00000000000E+00 0. -1.
         -1   -1    0    0    0  501 -0.00000000000E+00 -0.00000000000E+00 -0.36084955735E+02  0.36084955735E+02  0.00000000000E+00 0.  1.
         23    2    1    2    0    0  0.00000000000E+00  0.00000000000E+00  0.27761331885E+02  0.99931243354E+02  0.95997717943E+02 0.  0.
        -13    1    3    3    0    0  0.30900068315E+01  0.47690991199E+02  0.18525757951E+02  0.51256048340E+02  0.00000000000E+00 0. -1.
         13    1    3    3    0    0 -0.30900068315E+01 -0.47690991199E+02  0.92355739338E+01  0.48675195014E+02  0.00000000000E+00 0.  1.
<mgrwt>
<rscale>  0 0.95997718E+02</rscale>
<asrwt>0</asrwt>
<pdfrwt beam="1">  1        1 0.98225058E-02 0.95997718E+02</pdfrwt>
<pdfrwt beam="2">  1       -1 0.55515316E-02 0.95997718E+02</pdfrwt>
<totfact> 0.84301776E+04</totfact>
</mgrwt>
</event>
<event>
 5    1  0.6027538E+000  0.8903875E+02  0.7546771E-02  0.1305196E+00
         -3   -1    0    0    0  501 -0.00000000000E+00  0.00000000000E+00  0.30364921343E+02  0.30364921343E+02  0.00000000000E+00 0.  1.
          3   -1    0    0  501    0  0.00000000000E+00 -0.00000000000E+00 -0.65271862080E+02  0.65271862080E+02  0.00000000000E+00 0. -1.
         23    2    1    2    0    0  0.00000000000E+00  0.00000000000E+00 -0.34906940737E+02  0.95636783424E+02  0.89038754664E+02 0.  0.
        -13    1    3    3    0    0 -0.18663191348E+02  0.38303036433E+02 -0.31314710765E+02  0.52877674132E+02  0.00000000000E+00 0. -1.
         13    1    3    3    0    0  0.18663191348E+02 -0.38303036433E+02 -0.35922299722E+01  0.42759109292E+02  0.00000000000E+00 0.  1.
<mgrwt>
<rscale>  0 0.89038755E+02</rscale>
<asrwt>0</asrwt>
<pdfrwt beam="2">  1        3 0.10041825E-01 0.89038755E+02</pdfrwt>
<pdfrwt beam="1">  1       -3 0.46715264E-02 0.89038755E+02</pdfrwt>
<totfact> 0.37326895E+04</totfact>
</mgrwt>
</event>
<event>
 5    1  0.6027538E+000  0.7477584E+02  0.7546771E-02  0.1344567E+00
          2   -1    0    0  501    0  0.00000000000E+00  0.00000000000E+00  0.23533201991E+02  0.23533201991E+02  0.00000000000E+00 0. -1.
         -2   -1    0    0    0  501 -0.00000000000E+00 -0.00000000000E+00 -0.59399328867E+02  0.59399328867E+02  0.00000000000E+00 0.  1.
         23    2    1    2    0    0  0.00000000000E+00  0.00000000000E+00 -0.35866126876E+02  0.82932530858E+02  0.74775835785E+02 0.  0.
        -13    1    3    3    0    0 -0.10778580902E+02 -0.23217601022E+02  0.12290622784E+02  0.28395320246E+02  0.00000000000E+00 0. -1.
         13    1    3    3    0    0  0.10778580902E+02  0.23217601022E+02 -0.48156749660E+02  0.54537210612E+02  0.00000000000E+00 0.  1.
<mgrwt>
<rscale>  0 0.74775836E+02</rscale>
<asrwt>0</asrwt>
<pdfrwt beam="1">  1        2 0.36204927E-02 0.74775836E+02</pdfrwt>
<pdfrwt beam="2">  1       -2 0.91383582E-02 0.74775836E+02</pdfrwt>
<totfact> 0.14884241E+05</totfact>
</mgrwt>
</event>
<event>
 5    1  0.6027538E+000  0.9385135E+02  0.7546771E-02  0.1293784E+00
          3   -1    0    0  501    0  0.00000000000E+00  0.00000000000E+00  0.53747845982E+02  0.53747845982E+02  0.00000000000E+00 0. -1.
         -3   -1    0    0    0  501 -0.00000000000E+00 -0.00000000000E+00 -0.40969433476E+02  0.40969433476E+02  0.00000000000E+00 0.  1.
         23    2    1    2    0    0  0.00000000000E+00  0.00000000000E+00  0.12778412507E+02  0.94717279458E+02  0.93851346297E+02 0.  0.
        -13    1    3    3    0    0  0.27440268069E+01 -0.33957384619E+02 -0.26179041869E+02  0.42964821500E+02  0.00000000000E+00 0.  1.
         13    1    3    3    0    0 -0.27440268069E+01  0.33957384619E+02  0.38957454376E+02  0.51752457959E+02  0.00000000000E+00 0. -1.
<mgrwt>
<rscale>  0 0.93851346E+02</rscale>
<asrwt>0</asrwt>
<pdfrwt beam="1">  1        3 0.82688994E-02 0.93851346E+02</pdfrwt>
<pdfrwt beam="2">  1       -3 0.63029897E-02 0.93851346E+02</pdfrwt>
<totfact> 0.32404754E+04</totfact>
</mgrwt>
</event>
<event>
 5    1  0.6027538E+000  0.8369325E+02  0.7546771E-02  0.1318886E+00
          3   -1    0    0  501    0  0.00000000000E+00  0.00000000000E+00  0.33249591769E+02  0.33249591769E+02  0.00000000000E+00 0. -1.
         -3   -1    0    0    0  501 -0.00000000000E+00 -0.00000000000E+00 -0.52666508109E+02  0.52666508109E+02  0.00000000000E+00 0.  1.
         23    2    1    2    0    0  0.00000000000E+00  0.00000000000E+00 -0.19416916339E+02  0.85916099878E+02  0.83693246909E+02 0.  0.
        -13    1    3    3    0    0  0.29702976998E+02  0.23061174708E+02 -0.28555131384E+02  0.47217371272E+02  0.00000000000E+00 0.  1.
         13    1    3    3    0    0 -0.29702976998E+02 -0.23061174708E+02  0.91382150448E+01  0.38698728606E+02  0.00000000000E+00 0. -1.
<mgrwt>
<rscale>  0 0.83693247E+02</rscale>
<asrwt>0</asrwt>
<pdfrwt beam="1">  1        3 0.51153218E-02 0.83693247E+02</pdfrwt>
<pdfrwt beam="2">  1       -3 0.81025397E-02 0.83693247E+02</pdfrwt>
<totfact> 0.45083471E+04</totfact>
</mgrwt>
</event>
<event>
 5    1  0.6027538E+000  0.9076770E+02  0.7546771E-02  0.1301003E+00
          2   -1    0    0  501    0  0.00000000000E+00  0.00000000000E+00  0.80297732131E+01  0.80297732131E+01  0.00000000000E+00 0. -1.
         -2   -1    0    0    0  501 -0.00000000000E+00 -0.00000000000E+00 -0.25650711274E+03  0.25650711274E+03  0.00000000000E+00 0.  1.
         23    2    1    2    0    0  0.00000000000E+00  0.00000000000E+00 -0.24847733953E+03  0.26453688596E+03  0.90767702248E+02 0.  0.
        -13    1    3    3    0    0 -0.29929417197E+02  0.19193294973E+02 -0.42035933085E+02  0.55056082825E+02  0.00000000000E+00 0.  1.
         13    1    3    3    0    0  0.29929417197E+02 -0.19193294973E+02 -0.20644140644E+03  0.20948080313E+03  0.00000000000E+00 0. -1.
<mgrwt>
<rscale>  0 0.90767702E+02</rscale>
<asrwt>0</asrwt>
<pdfrwt beam="1">  1        2 0.12353497E-02 0.90767702E+02</pdfrwt>
<pdfrwt beam="2">  1       -2 0.39462634E-01 0.90767702E+02</pdfrwt>
<totfact> 0.56099224E+04</totfact>
</mgrwt>
</event>
<event>
 5    1  0.6027538E+000  0.9300770E+02  0.7546771E-02  0.1295727E+00
         -2   -1    0    0    0  501 -0.00000000000E+00  0.00000000000E+00  0.41863192956E+02  0.41863192956E+02  0.00000000000E+00 0.  1.
          2   -1    0    0  501    0  0.00000000000E+00 -0.00000000000E+00 -0.51658941848E+02  0.51658941848E+02  0.00000000000E+00 0. -1.
         23    2    1    2    0    0  0.00000000000E+00  0.00000000000E+00 -0.97957488921E+01  0.93522134804E+02  0.93007703992E+02 0.  0.
        -13    1    3    3    0    0 -0.35835029381E+02  0.26140599957E+02  0.91482086497E+01  0.45289844539E+02  0.00000000000E+00 0.  1.
         13    1    3    3    0    0  0.35835029381E+02 -0.26140599957E+02 -0.18943957542E+02  0.48232290265E+02  0.00000000000E+00 0. -1.
<mgrwt>
<rscale>  0 0.93007704E+02</rscale>
<asrwt>0</asrwt>
<pdfrwt beam="2">  1        2 0.79475295E-02 0.93007704E+02</pdfrwt>
<pdfrwt beam="1">  1       -2 0.64404912E-02 0.93007704E+02</pdfrwt>
<totfact> 0.96320553E+04</totfact>
</mgrwt>
</event>
<event>
 5    1  0.6027538E+000  0.9271690E+02  0.7546771E-02  0.1296403E+00
          1   -1    0    0  501    0  0.00000000000E+00  0.00000000000E+00  0.19234609497E+03  0.19234609497E+03  0.00000000000E+00 0. -1.
         -1   -1    0    0    0  501 -0.00000000000E+00 -0.00000000000E+00 -0.11173120188E+02  0.11173120188E+02  0.00000000000E+00 0.  1.
         23    2    1    2    0    0  0.00000000000E+00  0.00000000000E+00  0.18117297479E+03  0.20351921516E+03  0.92716903244E+02 0.  0.
        -13    1    3    3    0    0 -0.31708606334E+02 -0.33709828916E+02  0.84648552221E+02  0.96473652747E+02  0.00000000000E+00 0. -1.
         13    1    3    3    0    0  0.31708606334E+02  0.33709828916E+02  0.96524422565E+02  0.10704556241E+03  0.00000000000E+00 0.  1.
<mgrwt>
<rscale>  0 0.92716903E+02</rscale>
<asrwt>0</asrwt>
<pdfrwt beam="1">  1        1 0.29591704E-01 0.92716903E+02</pdfrwt>
<pdfrwt beam="2">  1       -1 0.17189417E-02 0.92716903E+02</pdfrwt>
<totfact> 0.11234095E+05</totfact>
</mgrwt>
</event>
<event>
 5    1  0.6027538E+000  0.9244010E+02  0.7546771E-02  0.1297048E+00
          2   -1    0    0  501    0  0.00000000000E+00  0.00000000000E+00  0.15221713554E+03  0.15221713554E+03  0.00000000000E+00 0. -1.
         -2   -1    0    0    0  501 -0.00000000000E+00 -0.00000000000E+00 -0.14034510173E+02  0.14034510173E+02  0.00000000000E+00 0.  1.
         23    2    1    2    0    0  0.00000000000E+00  0.00000000000E+00  0.13818262537E+03  0.16625164572E+03  0.92440098168E+02 0.  0.
        -13    1    3    3    0    0  0.28142972238E+02 -0.50191745102E+01  0.37722227982E+01  0.28834851551E+02  0.00000000000E+00 0.  1.
         13    1    3    3    0    0 -0.28142972238E+02  0.50191745102E+01  0.13441040257E+03  0.13741679416E+03  0.00000000000E+00 0. -1.
<mgrwt>
<rscale>  0 0.92440098E+02</rscale>
<asrwt>0</asrwt>
<pdfrwt beam="1">  1        2 0.23418020E-01 0.92440098E+02</pdfrwt>
<pdfrwt beam="2">  1       -2 0.21591555E-02 0.92440098E+02</pdfrwt>
<totfact> 0.13535309E+05</totfact>
</mgrwt>
</event>
<event>
 5    1  0.6027538E+000  0.9184056E+02  0.7546771E-02  0.1298455E+00
          1   -1    0    0  501    0  0.00000000000E+00  0.00000000000E+00  0.71464071444E+02  0.71464071444E+02  0.00000000000E+00 0. -1.
         -1   -1    0    0    0  501 -0.00000000000E+00 -0.00000000000E+00 -0.29506742979E+02  0.29506742979E+02  0.00000000000E+00 0.  1.
         23    2    1    2    0    0  0.00000000000E+00  0.00000000000E+00  0.41957328465E+02  0.10097081442E+03  0.91840557236E+02 0.  0.
        -13    1    3    3    0    0  0.18306700580E+02  0.28513339133E+02 -0.13094773729E+02  0.36326559067E+02  0.00000000000E+00 0.  1.
         13    1    3    3    0    0 -0.18306700580E+02 -0.28513339133E+02  0.55052102194E+02  0.64644255357E+02  0.00000000000E+00 0. -1.
<mgrwt>
<rscale>  0 0.91840557E+02</rscale>
<asrwt>0</asrwt>
<pdfrwt beam="1">  1        1 0.10994472E-01 0.91840557E+02</pdfrwt>
<pdfrwt beam="2">  1       -1 0.45394989E-02 0.91840557E+02</pdfrwt>
<totfact> 0.97021432E+04</totfact>
</mgrwt>
</event>
<event>
 5    1  0.6027538E+000  0.8876829E+02  0.7546771E-02  0.1305862E+00
         -1   -1    0    0    0  501 -0.00000000000E+00  0.00000000000E+00  0.84093483891E+01  0.84093483891E+01  0.00000000000E+00 0.  1.
          1   -1    0    0  501    0  0.00000000000E+00 -0.00000000000E+00 -0.23425740404E+03  0.23425740404E+03  0.00000000000E+00 0. -1.
         23    2    1    2    0    0  0.00000000000E+00  0.00000000000E+00 -0.22584805565E+03  0.24266675243E+03  0.88768285401E+02 0.  0.
        -13    1    3    3    0    0 -0.35835526620E+02 -0.14159621895E+02 -0.52703413563E+02  0.65286519753E+02  0.00000000000E+00 0.  1.
         13    1    3    3    0    0  0.35835526620E+02  0.14159621895E+02 -0.17314464208E+03  0.17738023267E+03  0.00000000000E+00 0. -1.
<mgrwt>
<rscale>  0 0.88768285E+02</rscale>
<asrwt>0</asrwt>
<pdfrwt beam="2">  1        1 0.36039601E-01 0.88768285E+02</pdfrwt>
<pdfrwt beam="1">  1       -1 0.12937459E-02 0.88768285E+02</pdfrwt>
<totfact> 0.13115516E+05</totfact>
</mgrwt>
</event>
<event>
 5    1  0.6027538E+000  0.9177240E+02  0.7546771E-02  0.1298615E+00
          1   -1    0    0  501    0  0.00000000000E+00  0.00000000000E+00  0.26183423231E+03  0.26183423231E+03  0.00000000000E+00 0. -1.
         -1   -1    0    0    0  501 -0.00000000000E+00 -0.00000000000E+00 -0.80415124983E+01  0.80415124983E+01  0.00000000000E+00 0.  1.
         23    2    1    2    0    0  0.00000000000E+00  0.00000000000E+00  0.25379271981E+03  0.26987574481E+03  0.91772397846E+02 0.  0.
        -13    1    3    3    0    0 -0.32552854282E+02  0.22420506593E+02  0.19543287006E+03  0.19939000511E+03  0.00000000000E+00 0. -1.
         13    1    3    3    0    0  0.32552854282E+02 -0.22420506593E+02  0.58359849754E+02  0.70485739700E+02  0.00000000000E+00 0.  1.
<mgrwt>
<rscale>  0 0.91772398E+02</rscale>
<asrwt>0</asrwt>
<pdfrwt beam="1">  1        1 0.40282183E-01 0.91772398E+02</pdfrwt>
<pdfrwt beam="2">  1       -1 0.12371560E-02 0.91772398E+02</pdfrwt>
<totfact> 0.12263891E+05</totfact>
</mgrwt>
</event>
<event>
 5    1  0.6027538E+000  0.9135100E+02  0.7546771E-02  0.1299613E+00
         -1   -1    0    0    0  501 -0.00000000000E+00  0.00000000000E+00  0.75801003464E+02  0.75801003464E+02  0.00000000000E+00 0.  1.
          1   -1    0    0  501    0  0.00000000000E+00 -0.00000000000E+00 -0.27522742271E+02  0.27522742271E+02  0.00000000000E+00 0. -1.
         23    2    1    2    0    0  0.00000000000E+00  0.00000000000E+00  0.48278261193E+02  0.10332374573E+03  0.91351003984E+02 0.  0.
        -13    1    3    3    0    0 -0.29783122115E+02  0.15531872132E+02  0.59146912951E+02  0.68019340827E+02  0.00000000000E+00 0.  1.
         13    1    3    3    0    0  0.29783122115E+02 -0.15531872132E+02 -0.10868651758E+02  0.35304404908E+02  0.00000000000E+00 0. -1.
<mgrwt>
<rscale>  0 0.91351004E+02</rscale>
<asrwt>0</asrwt>
<pdfrwt beam="2">  1        1 0.42342681E-02 0.91351004E+02</pdfrwt>
<pdfrwt beam="1">  1       -1 0.11661693E-01 0.91351004E+02</pdfrwt>
<totfact> 0.85002427E+04</totfact>
</mgrwt>
</event>
<event>
 5    1  0.6027538E+000  0.9294524E+02  0.7546771E-02  0.1295872E+00
          3   -1    0    0  501    0  0.00000000000E+00  0.00000000000E+00  0.77352931952E+02  0.77352931952E+02  0.00000000000E+00 0.  1.
         -3   -1    0    0    0  501 -0.00000000000E+00 -0.00000000000E+00 -0.27920138483E+02  0.27920138483E+02  0.00000000000E+00 0. -1.
         23    2    1    2    0    0  0.00000000000E+00  0.00000000000E+00  0.49432793469E+02  0.10527307043E+03  0.92945243496E+02 0.  0.
        -13    1    3    3    0    0 -0.37321887021E+02  0.27053273898E+02  0.31407740859E+02  0.55778571740E+02  0.00000000000E+00 0.  1.
         13    1    3    3    0    0  0.37321887021E+02 -0.27053273898E+02  0.18025052610E+02  0.49494498695E+02  0.00000000000E+00 0. -1.
<mgrwt>
<rscale>  0 0.92945243E+02</rscale>
<asrwt>0</asrwt>
<pdfrwt beam="1">  1        3 0.11900451E-01 0.92945243E+02</pdfrwt>
<pdfrwt beam="2">  1       -3 0.42954060E-02 0.92945243E+02</pdfrwt>
<totfact> 0.32534510E+04</totfact>
</mgrwt>
</event>
<event>
 5    1  0.6027538E+000  0.8980029E+02  0.7546771E-02  0.1303336E+00
         -2   -1    0    0    0  501 -0.00000000000E+00  0.00000000000E+00  0.29317408437E+02  0.29317408437E+02  0.00000000000E+00 0.  1.
          2   -1    0    0  501    0  0.00000000000E+00 -0.00000000000E+00 -0.68765385644E+02  0.68765385644E+02  0.00000000000E+00 0. -1.
         23    2    1    2    0    0  0.00000000000E+00  0.00000000000E+00 -0.39447977207E+02  0.98082794081E+02  0.89800287243E+02 0.  0.
        -13    1    3    3    0    0 -0.30239135588E+02 -0.30285733095E+02 -0.48924543760E+01  0.43076293480E+02  0.00000000000E+00 0. -1.
         13    1    3    3    0    0  0.30239135588E+02  0.30285733095E+02 -0.34555522831E+02  0.55006500601E+02  0.00000000000E+00 0.  1.
<mgrwt>
<rscale>  0 0.89800287E+02</rscale>
<asrwt>0</asrwt>
<pdfrwt beam="2">  1        2 0.10579290E-01 0.89800287E+02</pdfrwt>
<pdfrwt beam="1">  1       -2 0.45103706E-02 0.89800287E+02</pdfrwt>
<totfact> 0.11485698E+05</totfact>
</mgrwt>
</event>
<event>
 5    1  0.6027538E+000  0.9508768E+02  0.7546771E-02  0.1290979E+00
         -1   -1    0    0    0  501 -0.00000000000E+00  0.00000000000E+00  0.35434158871E+02  0.35434158871E+02  0.00000000000E+00 0.  1.
          1   -1    0    0  501    0  0.00000000000E+00 -0.00000000000E+00 -0.63792028571E+02  0.63792028571E+02  0.00000000000E+00 0. -1.
         23    2    1    2    0    0  0.00000000000E+00  0.00000000000E+00 -0.28357869700E+02  0.99226187442E+02  0.95087683221E+02 0.  0.
        -13    1    3    3    0    0  0.33807754919E+02 -0.32836441224E+02 -0.76437215753E+01  0.47745393960E+02  0.00000000000E+00 0.  1.
         13    1    3    3    0    0 -0.33807754919E+02  0.32836441224E+02 -0.20714148125E+02  0.51480793481E+02  0.00000000000E+00 0. -1.
<mgrwt>
<rscale>  0 0.95087683E+02</rscale>
<asrwt>0</asrwt>
<pdfrwt beam="2">  1        1 0.98141582E-02 0.95087683E+02</pdfrwt>
<pdfrwt beam="1">  1       -1 0.54514091E-02 0.95087683E+02</pdfrwt>
<totfact> 0.86559202E+04</totfact>
</mgrwt>
</event>
<event>
 5    1  0.6027538E+000  0.9180883E+02  0.7546771E-02  0.1298530E+00
          1   -1    0    0  501    0  0.00000000000E+00  0.00000000000E+00  0.89588873572E+02  0.89588873572E+02  0.00000000000E+00 0. -1.
         -1   -1    0    0    0  501 -0.00000000000E+00 -0.00000000000E+00 -0.23520947284E+02  0.23520947284E+02  0.00000000000E+00 0.  1.
         23    2    1    2    0    0  0.00000000000E+00  0.00000000000E+00  0.66067926288E+02  0.11310982086E+03  0.91808826864E+02 0.  0.
        -13    1    3    3    0    0 -0.15518978114E+02 -0.24477908214E+02  0.76891063569E+02  0.82172028872E+02  0.00000000000E+00 0. -1.
         13    1    3    3    0    0  0.15518978114E+02  0.24477908214E+02 -0.10823137280E+02  0.30937791984E+02  0.00000000000E+00 0.  1.
<mgrwt>
<rscale>  0 0.91808827E+02</rscale>
<asrwt>0</asrwt>
<pdfrwt beam="1">  1        1 0.13782903E-01 0.91808827E+02</pdfrwt>
<pdfrwt beam="2">  1       -1 0.36186073E-02 0.91808827E+02</pdfrwt>
<totfact> 0.10066172E+05</totfact>
</mgrwt>
</event>
<event>
 5    1  0.6027538E+000  0.8888872E+02  0.7546771E-02  0.1305565E+00
          3   -1    0    0  501    0  0.00000000000E+00  0.00000000000E+00  0.13618731601E+02  0.13618731601E+02  0.00000000000E+00 0. -1.
         -3   -1    0    0    0  501 -0.00000000000E+00 -0.00000000000E+00 -0.14504294893E+03  0.14504294893E+03  0.00000000000E+00 0.  1.
         23    2    1    2    0    0  0.00000000000E+00  0.00000000000E+00 -0.13142421733E+03  0.15866168053E+03  0.88888716766E+02 0.  0.
        -13    1    3    3    0    0 -0.20397055906E+02  0.12615035201E+02  0.10774158387E+01  0.24007078698E+02  0.00000000000E+00 0. -1.
         13    1    3    3    0    0  0.20397055906E+02 -0.12615035201E+02 -0.13250163316E+03  0.13465460183E+03  0.00000000000E+00 0.  1.
<mgrwt>
<rscale>  0 0.88888717E+02</rscale>
<asrwt>0</asrwt>
<pdfrwt beam="1">  1        3 0.20951895E-02 0.88888717E+02</pdfrwt>
<pdfrwt beam="2">  1       -3 0.22314300E-01 0.88888717E+02</pdfrwt>
<totfact> 0.32971688E+04</totfact>
</mgrwt>
</event>
<event>
 5    1  0.6027538E+000  0.9203283E+02  0.7546771E-02  0.1298002E+00
          2   -1    0    0  501    0  0.00000000000E+00  0.00000000000E+00  0.10340824256E+03  0.10340824256E+03  0.00000000000E+00 0. -1.
         -2   -1    0    0    0  501 -0.00000000000E+00 -0.00000000000E+00 -0.20477191201E+02  0.20477191201E+02  0.00000000000E+00 0.  1.
         23    2    1    2    0    0  0.00000000000E+00  0.00000000000E+00  0.82931051361E+02  0.12388543376E+03  0.92032827940E+02 0.  0.
        -13    1    3    3    0    0  0.95572372006E+01  0.22400240402E+02  0.94022067120E+02  0.97124974433E+02  0.00000000000E+00 0. -1.
         13    1    3    3    0    0 -0.95572372006E+01 -0.22400240402E+02 -0.11091015759E+02  0.26760459330E+02  0.00000000000E+00 0.  1.
<mgrwt>
<rscale>  0 0.92032828E+02</rscale>
<asrwt>0</asrwt>
<pdfrwt beam="1">  1        2 0.15908960E-01 0.92032828E+02</pdfrwt>
<pdfrwt beam="2">  1       -2 0.31503372E-02 0.92032828E+02</pdfrwt>
<totfact> 0.12079190E+05</totfact>
</mgrwt>
</event>
<event>
 5    1  0.6027538E+000  0.8830567E+02  0.7546771E-02  0.1307007E+00
         -2   -1    0    0    0  501 -0.00000000000E+00  0.00000000000E+00  0.77740785405E+02  0.77740785405E+02  0.00000000000E+00 0.  1.
          2   -1    0    0  501    0  0.00000000000E+00 -0.00000000000E+00 -0.25076578621E+02  0.25076578621E+02  0.00000000000E+00 0. -1.
         23    2    1    2    0    0  0.00000000000E+00  0.00000000000E+00  0.52664206785E+02  0.10281736403E+03  0.88305671783E+02 0.  0.
        -13    1    3    3    0    0 -0.35673199930E+02 -0.47054833676E+01  0.56125292737E+02  0.66669087678E+02  0.00000000000E+00 0.  1.
         13    1    3    3    0    0  0.35673199930E+02  0.47054833676E+01 -0.34610859529E+01  0.36148276348E+02  0.00000000000E+00 0. -1.
<mgrwt>
<rscale>  0 0.88305672E+02</rscale>
<asrwt>0</asrwt>
<pdfrwt beam="2">  1        2 0.38579352E-02 0.88305672E+02</pdfrwt>
<pdfrwt beam="1">  1       -2 0.11960121E-01 0.88305672E+02</pdfrwt>
<totfact> 0.92749972E+04</totfact>
</mgrwt>
</event>
<event>
 5    1  0.6027538E+000  0.9104247E+02  0.7546771E-02  0.1300347E+00
          2   -1    0    0  501    0  0.00000000000E+00  0.00000000000E+00  0.26781763482E+03  0.26781763482E+03  0.00000000000E+00 0.  1.
         -2   -1    0    0    0  501 -0.00000000000E+00 -0.00000000000E+00 -0.77372905961E+01  0.77372905961E+01  0.00000000000E+00 0. -1.
         23    2    1    2    0    0  0.00000000000E+00  0.00000000000E+00  0.26008034422E+03  0.27555492541E+03  0.91042470690E+02 0.  0.
        -13    1    3    3    0    0  0.42833971689E+02  0.14292967776E+02  0.11261520759E+03  0.12133104730E+03  0.00000000000E+00 0. -1.
         13    1    3    3    0    0 -0.42833971689E+02 -0.14292967776E+02  0.14746513663E+03  0.15422387811E+03  0.00000000000E+00 0.  1.
<mgrwt>
<rscale>  0 0.91042471E+02</rscale>
<asrwt>0</asrwt>
<pdfrwt beam="1">  1        2 0.41202706E-01 0.91042471E+02</pdfrwt>
<pdfrwt beam="2">  1       -2 0.11903526E-02 0.91042471E+02</pdfrwt>
<totfact> 0.17289518E+05</totfact>
</mgrwt>
</event>
<event>
 5    1  0.6027538E+000  0.8940205E+02  0.7546771E-02  0.1304306E+00
         -2   -1    0    0    0  501 -0.00000000000E+00  0.00000000000E+00  0.12569298798E+02  0.12569298798E+02  0.00000000000E+00 0.  1.
          2   -1    0    0  501    0  0.00000000000E+00 -0.00000000000E+00 -0.15897318740E+03  0.15897318740E+03  0.00000000000E+00 0. -1.
         23    2    1    2    0    0  0.00000000000E+00  0.00000000000E+00 -0.14640388860E+03  0.17154248619E+03  0.89402046805E+02 0.  0.
        -13    1    3    3    0    0 -0.28856258076E+02 -0.25023933203E+02 -0.11776138203E+03  0.12380074298E+03  0.00000000000E+00 0. -1.
         13    1    3    3    0    0  0.28856258076E+02  0.25023933203E+02 -0.28642506564E+02  0.47741743216E+02  0.00000000000E+00 0.  1.
<mgrwt>
<rscale>  0 0.89402047E+02</rscale>
<asrwt>0</asrwt>
<pdfrwt beam="2">  1        2 0.24457413E-01 0.89402047E+02</pdfrwt>
<pdfrwt beam="1">  1       -2 0.19337383E-02 0.89402047E+02</pdfrwt>
<totfact> 0.15040482E+05</totfact>
</mgrwt>
</event>
<event>
 5    1  0.6027538E+000  0.9145622E+02  0.7546771E-02  0.1299363E+00
          1   -1    0    0  501    0  0.00000000000E+00  0.00000000000E+00  0.15786820778E+02  0.15786820778E+02  0.00000000000E+00 0. -1.
         -1   -1    0    0    0  501 -0.00000000000E+00 -0.00000000000E+00 -0.13245605384E+03  0.13245605384E+03  0.00000000000E+00 0.  1.
         23    2    1    2    0    0  0.00000000000E+00  0.00000000000E+00 -0.11666923306E+03  0.14824287462E+03  0.91456218661E+02 0.  0.
        -13    1    3    3    0    0 -0.15380108400E+02  0.16944897820E+02 -0.12250699104E+03  0.12462600110E+03  0.00000000000E+00 0.  1.
         13    1    3    3    0    0  0.15380108400E+02 -0.16944897820E+02  0.58377579791E+01  0.23616873517E+02  0.00000000000E+00 0. -1.
<mgrwt>
<rscale>  0 0.91456219E+02</rscale>
<asrwt>0</asrwt>
<pdfrwt beam="1">  1        1 0.24287417E-02 0.91456219E+02</pdfrwt>
<pdfrwt beam="2">  1       -1 0.20377854E-01 0.91456219E+02</pdfrwt>
<totfact> 0.76306043E+04</totfact>
</mgrwt>
</event>
<event>
 5    1  0.6027538E+000  0.9098289E+02  0.7546771E-02  0.1300489E+00
          1   -1    0    0  501    0  0.00000000000E+00  0.00000000000E+00  0.28064636077E+02  0.28064636077E+02  0.00000000000E+00 0. -1.
         -1   -1    0    0    0  501 -0.00000000000E+00 -0.00000000000E+00 -0.73739478687E+02  0.73739478687E+02  0.00000000000E+00 0.  1.
         23    2    1    2    0    0  0.00000000000E+00  0.00000000000E+00 -0.45674842610E+02  0.10180411476E+03  0.90982891444E+02 0.  0.
        -13    1    3    3    0    0 -0.41428574337E+02 -0.11631518780E+02 -0.63221008840E+01  0.43492389682E+02  0.00000000000E+00 0. -1.
         13    1    3    3    0    0  0.41428574337E+02  0.11631518780E+02 -0.39352741726E+02  0.58311725082E+02  0.00000000000E+00 0.  1.
<mgrwt>
<rscale>  0 0.90982891E+02</rscale>
<asrwt>0</asrwt>
<pdfrwt beam="1">  1        1 0.43176363E-02 0.90982891E+02</pdfrwt>
<pdfrwt beam="2">  1       -1 0.11344535E-01 0.90982891E+02</pdfrwt>
<totfact> 0.86276318E+04</totfact>
</mgrwt>
</event>
<event>
 5    1  0.6027538E+000  0.1007017E+03  0.7546771E-02  0.1278827E+00
         -3   -1    0    0    0  501 -0.00000000000E+00  0.00000000000E+00  0.42849652608E+03  0.42849652608E+03  0.00000000000E+00 0.  1.
          3   -1    0    0  501    0  0.00000000000E+00 -0.00000000000E+00 -0.59165228795E+01  0.59165228795E+01  0.00000000000E+00 0. -1.
         23    2    1    2    0    0  0.00000000000E+00  0.00000000000E+00  0.42258000320E+03  0.43441304896E+03  0.10070172790E+03 0.  0.
        -13    1    3    3    0    0  0.91096630655E+01  0.46899414822E+02  0.27986115102E+03  0.28390985351E+03  0.00000000000E+00 0. -1.
         13    1    3    3    0    0 -0.91096630655E+01 -0.46899414822E+02  0.14271885218E+03  0.15050319545E+03  0.00000000000E+00 0.  1.
<mgrwt>
<rscale>  0 0.10070173E+03</rscale>
<asrwt>0</asrwt>
<pdfrwt beam="2">  1        3 0.91023462E-03 0.10070173E+03</pdfrwt>
<pdfrwt beam="1">  1       -3 0.65922518E-01 0.10070173E+03</pdfrwt>
<totfact> 0.15003279E+04</totfact>
</mgrwt>
</event>
<event>
 5    1  0.6027538E+000  0.9162880E+02  0.7546771E-02  0.1298955E+00
         -1   -1    0    0    0  501 -0.00000000000E+00  0.00000000000E+00  0.29135764043E+03  0.29135764043E+03  0.00000000000E+00 0.  1.
          1   -1    0    0  501    0  0.00000000000E+00 -0.00000000000E+00 -0.72040652272E+01  0.72040652272E+01  0.00000000000E+00 0. -1.
         23    2    1    2    0    0  0.00000000000E+00  0.00000000000E+00  0.28415357520E+03  0.29856170565E+03  0.91628804337E+02 0.  0.
        -13    1    3    3    0    0 -0.98836251392E+01  0.37201198609E+02  0.22303590736E+03  0.22633300952E+03  0.00000000000E+00 0.  1.
         13    1    3    3    0    0  0.98836251392E+01 -0.37201198609E+02  0.61117667837E+02  0.72228696137E+02  0.00000000000E+00 0. -1.
<mgrwt>
<rscale>  0 0.91628804E+02</rscale>
<asrwt>0</asrwt>
<pdfrwt beam="2">  1        1 0.11083180E-02 0.91628804E+02</pdfrwt>
<pdfrwt beam="1">  1       -1 0.44824243E-01 0.91628804E+02</pdfrwt>
<totfact> 0.60491399E+04</totfact>
</mgrwt>
</event>
<event>
 5    1  0.6027538E+000  0.8369624E+02  0.7546771E-02  0.1318878E+00
         -3   -1    0    0    0  501 -0.00000000000E+00  0.00000000000E+00  0.10893343952E+02  0.10893343952E+02  0.00000000000E+00 0.  1.
          3   -1    0    0  501    0  0.00000000000E+00 -0.00000000000E+00 -0.16076468862E+03  0.16076468862E+03  0.00000000000E+00 0. -1.
         23    2    1    2    0    0  0.00000000000E+00  0.00000000000E+00 -0.14987134466E+03  0.17165803257E+03  0.83696237632E+02 0.  0.
        -13    1    3    3    0    0  0.15797956870E+02  0.38667010764E+02 -0.80185455351E+02  0.90412501417E+02  0.00000000000E+00 0. -1.
         13    1    3    3    0    0 -0.15797956870E+02 -0.38667010764E+02 -0.69685889313E+02  0.81245531151E+02  0.00000000000E+00 0.  1.
<mgrwt>
<rscale>  0 0.83696238E+02</rscale>
<asrwt>0</asrwt>
<pdfrwt beam="2">  1        3 0.24733028E-01 0.83696238E+02</pdfrwt>
<pdfrwt beam="1">  1       -3 0.16758992E-02 0.83696238E+02</pdfrwt>
<totfact> 0.37797153E+04</totfact>
</mgrwt>
</event>
<event>
 5    1  0.6027538E+000  0.8788316E+02  0.7546771E-02  0.1308060E+00
         -2   -1    0    0    0  501 -0.00000000000E+00  0.00000000000E+00  0.74909982967E+02  0.74909982967E+02  0.00000000000E+00 0.  1.
          2   -1    0    0  501    0  0.00000000000E+00 -0.00000000000E+00 -0.25775771515E+02  0.25775771515E+02  0.00000000000E+00 0. -1.
         23    2    1    2    0    0  0.00000000000E+00  0.00000000000E+00  0.49134211452E+02  0.10068575448E+03  0.87883163466E+02 0.  0.
        -13    1    3    3    0    0  0.26316619753E+02 -0.35172447154E+02  0.25820610419E+02  0.50954582094E+02  0.00000000000E+00 0. -1.
         13    1    3    3    0    0 -0.26316619753E+02  0.35172447154E+02  0.23313601033E+02  0.49731172389E+02  0.00000000000E+00 0.  1.
<mgrwt>
<rscale>  0 0.87883163E+02</rscale>
<asrwt>0</asrwt>
<pdfrwt beam="2">  1        2 0.39655033E-02 0.87883163E+02</pdfrwt>
<pdfrwt beam="1">  1       -2 0.11524613E-01 0.87883163E+02</pdfrwt>
<totfact> 0.94782434E+04</totfact>
</mgrwt>
</event>
<event>
 5    1  0.6027538E+000  0.9928385E+02  0.7546771E-02  0.1281809E+00
         -1   -1    0    0    0  501 -0.00000000000E+00  0.00000000000E+00  0.67168196885E+02  0.67168196885E+02  0.00000000000E+00 0.  1.
          1   -1    0    0  501    0  0.00000000000E+00 -0.00000000000E+00 -0.36688803559E+02  0.36688803559E+02  0.00000000000E+00 0. -1.
         23    2    1    2    0    0  0.00000000000E+00  0.00000000000E+00  0.30479393325E+02  0.10385700044E+03  0.99283851274E+02 0.  0.
        -13    1    3    3    0    0 -0.38973901775E+02  0.50740313742E+01  0.46961582280E+02  0.61238068423E+02  0.00000000000E+00 0.  1.
         13    1    3    3    0    0  0.38973901775E+02 -0.50740313742E+01 -0.16482188955E+02  0.42618932021E+02  0.00000000000E+00 0. -1.
<mgrwt>
<rscale>  0 0.99283851E+02</rscale>
<asrwt>0</asrwt>
<pdfrwt beam="2">  1        1 0.56444313E-02 0.99283851E+02</pdfrwt>
<pdfrwt beam="1">  1       -1 0.10333569E-01 0.99283851E+02</pdfrwt>
<totfact> 0.70116601E+04</totfact>
</mgrwt>
</event>
<event>
 5    1  0.6027538E+000  0.9055105E+02  0.7546771E-02  0.1301523E+00
         -2   -1    0    0    0  501 -0.00000000000E+00  0.00000000000E+00  0.15855710935E+02  0.15855710935E+02  0.00000000000E+00 0.  1.
          2   -1    0    0  501    0  0.00000000000E+00 -0.00000000000E+00 -0.12928294537E+03  0.12928294537E+03  0.00000000000E+00 0. -1.
         23    2    1    2    0    0  0.00000000000E+00  0.00000000000E+00 -0.11342723444E+03  0.14513865631E+03  0.90551046613E+02 0.  0.
        -13    1    3    3    0    0  0.39601160745E+02 -0.55425464043E+01 -0.22678257341E+02  0.45970372078E+02  0.00000000000E+00 0.  1.
         13    1    3    3    0    0 -0.39601160745E+02  0.55425464043E+01 -0.90748977095E+02  0.99168284228E+02  0.00000000000E+00 0. -1.
<mgrwt>
<rscale>  0 0.90551047E+02</rscale>
<asrwt>0</asrwt>
<pdfrwt beam="2">  1        2 0.19889684E-01 0.90551047E+02</pdfrwt>
<pdfrwt beam="1">  1       -2 0.24393401E-02 0.90551047E+02</pdfrwt>
<totfact> 0.13555899E+05</totfact>
</mgrwt>
</event>
<event>
 5    1  0.6027538E+000  0.9177202E+02  0.7546771E-02  0.1298616E+00
          2   -1    0    0  501    0  0.00000000000E+00  0.00000000000E+00  0.16659740860E+02  0.16659740860E+02  0.00000000000E+00 0. -1.
         -2   -1    0    0    0  501 -0.00000000000E+00 -0.00000000000E+00 -0.12638406945E+03  0.12638406945E+03  0.00000000000E+00 0.  1.
         23    2    1    2    0    0  0.00000000000E+00  0.00000000000E+00 -0.10972432859E+03  0.14304381031E+03  0.91772018521E+02 0.  0.
        -13    1    3    3    0    0 -0.44907977672E+02  0.94165855647E+01 -0.55418297964E+02  0.71948497493E+02  0.00000000000E+00 0.  1.
         13    1    3    3    0    0  0.44907977672E+02 -0.94165855647E+01 -0.54306030625E+02  0.71095312816E+02  0.00000000000E+00 0. -1.
<mgrwt>
<rscale>  0 0.91772019E+02</rscale>
<asrwt>0</asrwt>
<pdfrwt beam="1">  1        2 0.25630370E-02 0.91772019E+02</pdfrwt>
<pdfrwt beam="2">  1       -2 0.19443703E-01 0.91772019E+02</pdfrwt>
<totfact> 0.72940416E+04</totfact>
</mgrwt>
</event>
<event>
 5    1  0.6027538E+000  0.9222586E+02  0.7546771E-02  0.1297549E+00
         -3   -1    0    0    0  501 -0.00000000000E+00  0.00000000000E+00  0.18632078006E+02  0.18632078006E+02  0.00000000000E+00 0.  1.
          3   -1    0    0  501    0  0.00000000000E+00 -0.00000000000E+00 -0.11412587292E+03  0.11412587292E+03  0.00000000000E+00 0. -1.
         23    2    1    2    0    0  0.00000000000E+00  0.00000000000E+00 -0.95493794914E+02  0.13275795093E+03  0.92225856825E+02 0.  0.
        -13    1    3    3    0    0 -0.32303819021E+02 -0.31442252867E+02 -0.61721804625E+02  0.76431231540E+02  0.00000000000E+00 0.  1.
         13    1    3    3    0    0  0.32303819021E+02  0.31442252867E+02 -0.33771990289E+02  0.56326719386E+02  0.00000000000E+00 0. -1.
<mgrwt>
<rscale>  0 0.92225857E+02</rscale>
<asrwt>0</asrwt>
<pdfrwt beam="2">  1        3 0.17557827E-01 0.92225857E+02</pdfrwt>
<pdfrwt beam="1">  1       -3 0.28664735E-02 0.92225857E+02</pdfrwt>
<totfact> 0.31403503E+04</totfact>
</mgrwt>
</event>
<event>
 5    1  0.6027538E+000  0.9829099E+02  0.7546771E-02  0.1283931E+00
          1   -1    0    0  501    0  0.00000000000E+00  0.00000000000E+00  0.29705695839E+03  0.29705695839E+03  0.00000000000E+00 0. -1.
         -1   -1    0    0    0  501 -0.00000000000E+00 -0.00000000000E+00 -0.81306961174E+01  0.81306961174E+01  0.00000000000E+00 0.  1.
         23    2    1    2    0    0  0.00000000000E+00  0.00000000000E+00  0.28892626228E+03  0.30518765451E+03  0.98290993652E+02 0.  0.
        -13    1    3    3    0    0 -0.46307302674E+02 -0.14098651501E+02  0.17083531716E+03  0.17756081731E+03  0.00000000000E+00 0.  1.
         13    1    3    3    0    0  0.46307302674E+02  0.14098651501E+02  0.11809094511E+03  0.12762683720E+03  0.00000000000E+00 0. -1.
<mgrwt>
<rscale>  0 0.98290994E+02</rscale>
<asrwt>0</asrwt>
<pdfrwt beam="1">  1        1 0.45701062E-01 0.98290994E+02</pdfrwt>
<pdfrwt beam="2">  1       -1 0.12508766E-02 0.98290994E+02</pdfrwt>
<totfact> 0.10458581E+05</totfact>
</mgrwt>
</event>
<event>
 5    1  0.6027538E+000  0.1021932E+03  0.7546771E-02  0.1275751E+00
         -2   -1    0    0    0  501 -0.00000000000E+00  0.00000000000E+00  0.77809207401E+01  0.77809207401E+01  0.00000000000E+00 0. -1.
          2   -1    0    0  501    0  0.00000000000E+00 -0.00000000000E+00 -0.33554642749E+03  0.33554642749E+03  0.00000000000E+00 0.  1.
         23    2    1    2    0    0  0.00000000000E+00  0.00000000000E+00 -0.32776550675E+03  0.34332734823E+03  0.10219315353E+03 0.  0.
        -13    1    3    3    0    0  0.39651598303E+02 -0.22084052959E+02 -0.24273701286E+03  0.24694374269E+03  0.00000000000E+00 0. -1.
         13    1    3    3    0    0 -0.39651598303E+02  0.22084052959E+02 -0.85028493886E+02  0.96383605534E+02  0.00000000000E+00 0.  1.
<mgrwt>
<rscale>  0 0.10219315E+03</rscale>
<asrwt>0</asrwt>
<pdfrwt beam="2">  1        2 0.51622533E-01 0.10219315E+03</pdfrwt>
<pdfrwt beam="1">  1       -2 0.11970646E-02 0.10219315E+03</pdfrwt>
<totfact> 0.13794410E+05</totfact>
</mgrwt>
</event>
<event>
 5    1  0.6027538E+000  0.9153175E+02  0.7546771E-02  0.1299184E+00
         -2   -1    0    0    0  501 -0.00000000000E+00  0.00000000000E+00  0.70789362224E+01  0.70789362224E+01  0.00000000000E+00 0.  1.
          2   -1    0    0  501    0  0.00000000000E+00 -0.00000000000E+00 -0.29587997436E+03  0.29587997436E+03  0.00000000000E+00 0. -1.
         23    2    1    2    0    0  0.00000000000E+00  0.00000000000E+00 -0.28880103814E+03  0.30295891058E+03  0.91531753353E+02 0.  0.
        -13    1    3    3    0    0  0.32137625520E+02 -0.27958371432E+02 -0.89013895226E+02  0.98681158538E+02  0.00000000000E+00 0.  1.
         13    1    3    3    0    0 -0.32137625520E+02  0.27958371432E+02 -0.19978714291E+03  0.20427775204E+03  0.00000000000E+00 0. -1.
<mgrwt>
<rscale>  0 0.91531753E+02</rscale>
<asrwt>0</asrwt>
<pdfrwt beam="2">  1        2 0.45519992E-01 0.91531753E+02</pdfrwt>
<pdfrwt beam="1">  1       -2 0.10890672E-02 0.91531753E+02</pdfrwt>
<totfact> 0.17689175E+05</totfact>
</mgrwt>
</event>
<event>
 5    1  0.6027538E+000  0.9113128E+02  0.7546771E-02  0.1300135E+00
          2   -1    0    0  501    0  0.00000000000E+00  0.00000000000E+00  0.14676144781E+02  0.14676144781E+02  0.00000000000E+00 0. -1.
         -2   -1    0    0    0  501 -0.00000000000E+00 -0.00000000000E+00 -0.14146954674E+03  0.14146954674E+03  0.00000000000E+00 0.  1.
         23    2    1    2    0    0  0.00000000000E+00  0.00000000000E+00 -0.12679340196E+03  0.15614569152E+03  0.91131280031E+02 0.  0.
        -13    1    3    3    0    0 -0.29699811541E+02  0.34266951637E+02 -0.71044900224E+02  0.84283335410E+02  0.00000000000E+00 0.  1.
         13    1    3    3    0    0  0.29699811541E+02 -0.34266951637E+02 -0.55748501731E+02  0.71862356107E+02  0.00000000000E+00 0. -1.
<mgrwt>
<rscale>  0 0.91131280E+02</rscale>
<asrwt>0</asrwt>
<pdfrwt beam="1">  1        2 0.22578685E-02 0.91131280E+02</pdfrwt>
<pdfrwt beam="2">  1       -2 0.21764545E-01 0.91131280E+02</pdfrwt>
<totfact> 0.71427613E+04</totfact>
</mgrwt>
</event>
<event>
 5    1  0.6027538E+000  0.8997425E+02  0.7546771E-02  0.1302914E+00
          2   -1    0    0  501    0  0.00000000000E+00  0.00000000000E+00  0.62710932172E+02  0.62710932172E+02  0.00000000000E+00 0. -1.
         -2   -1    0    0    0  501 -0.00000000000E+00 -0.00000000000E+00 -0.32272546286E+02  0.32272546286E+02  0.00000000000E+00 0.  1.
         23    2    1    2    0    0  0.00000000000E+00  0.00000000000E+00  0.30438385886E+02  0.94983478458E+02  0.89974251009E+02 0.  0.
        -13    1    3    3    0    0 -0.16003617560E+02  0.36134605255E+02  0.37910438359E+02  0.54763371048E+02  0.00000000000E+00 0. -1.
         13    1    3    3    0    0  0.16003617560E+02 -0.36134605255E+02 -0.74720524729E+01  0.40220107410E+02  0.00000000000E+00 0.  1.
<mgrwt>
<rscale>  0 0.89974251E+02</rscale>
<asrwt>0</asrwt>
<pdfrwt beam="1">  1        2 0.96478357E-02 0.89974251E+02</pdfrwt>
<pdfrwt beam="2">  1       -2 0.49650071E-02 0.89974251E+02</pdfrwt>
<totfact> 0.11141784E+05</totfact>
</mgrwt>
</event>
<event>
 5    1  0.6027538E+000  0.9180415E+02  0.7546771E-02  0.1298541E+00
         -1   -1    0    0    0  501 -0.00000000000E+00  0.00000000000E+00  0.28761755240E+02  0.28761755240E+02  0.00000000000E+00 0.  1.
          1   -1    0    0  501    0  0.00000000000E+00 -0.00000000000E+00 -0.73257020082E+02  0.73257020082E+02  0.00000000000E+00 0. -1.
         23    2    1    2    0    0  0.00000000000E+00  0.00000000000E+00 -0.44495264842E+02  0.10201877532E+03  0.91804149824E+02 0.  0.
        -13    1    3    3    0    0 -0.26778164401E+02 -0.12408559558E+02  0.16820230623E+02  0.33970024981E+02  0.00000000000E+00 0.  1.
         13    1    3    3    0    0  0.26778164401E+02  0.12408559558E+02 -0.61315495465E+02  0.68048750342E+02  0.00000000000E+00 0. -1.
<mgrwt>
<rscale>  0 0.91804150E+02</rscale>
<asrwt>0</asrwt>
<pdfrwt beam="2">  1        1 0.11270311E-01 0.91804150E+02</pdfrwt>
<pdfrwt beam="1">  1       -1 0.44248854E-02 0.91804150E+02</pdfrwt>
<totfact> 0.97503516E+04</totfact>
</mgrwt>
</event>
<event>
 5    1  0.6027538E+000  0.8925043E+02  0.7546771E-02  0.1304677E+00
          3   -1    0    0  501    0  0.00000000000E+00  0.00000000000E+00  0.14313729072E+03  0.14313729072E+03  0.00000000000E+00 0. -1.
         -3   -1    0    0    0  501 -0.00000000000E+00 -0.00000000000E+00 -0.13912584497E+02  0.13912584497E+02  0.00000000000E+00 0.  1.
         23    2    1    2    0    0  0.00000000000E+00  0.00000000000E+00  0.12922470622E+03  0.15704987521E+03  0.89250426368E+02 0.  0.
        -13    1    3    3    0    0 -0.43065162032E+02  0.93790033145E+01  0.52315434289E+02  0.68406714209E+02  0.00000000000E+00 0.  1.
         13    1    3    3    0    0  0.43065162032E+02 -0.93790033145E+01  0.76909271929E+02  0.88643161003E+02  0.00000000000E+00 0. -1.
<mgrwt>
<rscale>  0 0.89250426E+02</rscale>
<asrwt>0</asrwt>
<pdfrwt beam="1">  1        3 0.22021121E-01 0.89250426E+02</pdfrwt>
<pdfrwt beam="2">  1       -3 0.21403977E-02 0.89250426E+02</pdfrwt>
<totfact> 0.32713690E+04</totfact>
</mgrwt>
</event>
<event>
 5    1  0.6027538E+000  0.9129803E+02  0.7546771E-02  0.1299738E+00
         -2   -1    0    0    0  501 -0.00000000000E+00  0.00000000000E+00  0.23098920116E+02  0.23098920116E+02  0.00000000000E+00 0.  1.
          2   -1    0    0  501    0  0.00000000000E+00 -0.00000000000E+00 -0.90213426934E+02  0.90213426934E+02  0.00000000000E+00 0. -1.
         23    2    1    2    0    0  0.00000000000E+00  0.00000000000E+00 -0.67114506818E+02  0.11331234705E+03  0.91298033761E+02 0.  0.
        -13    1    3    3    0    0 -0.27818310065E+02  0.22023963993E+02  0.20896298136E+01  0.35542649277E+02  0.00000000000E+00 0.  1.
         13    1    3    3    0    0  0.27818310065E+02 -0.22023963993E+02 -0.69204136632E+02  0.77769697773E+02  0.00000000000E+00 0. -1.
<mgrwt>
<rscale>  0 0.91298034E+02</rscale>
<asrwt>0</asrwt>
<pdfrwt beam="2">  1        2 0.13878989E-01 0.91298034E+02</pdfrwt>
<pdfrwt beam="1">  1       -2 0.35536801E-02 0.91298034E+02</pdfrwt>
<totfact> 0.11850521E+05</totfact>
</mgrwt>
</event>
<event>
 5    1  0.6027538E+000  0.9392644E+02  0.7546771E-02  0.1293612E+00
         -2   -1    0    0    0  501 -0.00000000000E+00  0.00000000000E+00  0.58754972069E+01  0.58754972069E+01  0.00000000000E+00 0.  1.
          2   -1    0    0  501    0  0.00000000000E+00 -0.00000000000E+00 -0.37537998226E+03  0.37537998226E+03  0.00000000000E+00 0. -1.
         23    2    1    2    0    0  0.00000000000E+00  0.00000000000E+00 -0.36950448505E+03  0.38125547947E+03  0.93926440096E+02 0.  0.
        -13    1    3    3    0    0  0.28633145674E+02 -0.36580866321E+02 -0.15676890815E+03  0.16350690314E+03  0.00000000000E+00 0.  1.
         13    1    3    3    0    0 -0.28633145674E+02  0.36580866321E+02 -0.21273557690E+03  0.21774857632E+03  0.00000000000E+00 0. -1.
<mgrwt>
<rscale>  0 0.93926440E+02</rscale>
<asrwt>0</asrwt>
<pdfrwt beam="2">  1        2 0.57750767E-01 0.93926440E+02</pdfrwt>
<pdfrwt beam="1">  1       -2 0.90392263E-03 0.93926440E+02</pdfrwt>
<totfact> 0.18026269E+05</totfact>
</mgrwt>
</event>
<event>
 5    1  0.6027538E+000  0.9181511E+02  0.7546771E-02  0.1298515E+00
          1   -1    0    0  501    0  0.00000000000E+00  0.00000000000E+00  0.30919658128E+02  0.30919658128E+02  0.00000000000E+00 0. -1.
         -1   -1    0    0    0  501 -0.00000000000E+00 -0.00000000000E+00 -0.68160637160E+02  0.68160637160E+02  0.00000000000E+00 0.  1.
         23    2    1    2    0    0  0.00000000000E+00  0.00000000000E+00 -0.37240979032E+02  0.99080295288E+02  0.91815109841E+02 0.  0.
        -13    1    3    3    0    0  0.25088914124E+02 -0.32926562541E+02  0.27966477396E+01  0.41490159933E+02  0.00000000000E+00 0. -1.
         13    1    3    3    0    0 -0.25088914124E+02  0.32926562541E+02 -0.40037626772E+02  0.57590135355E+02  0.00000000000E+00 0.  1.
<mgrwt>
<rscale>  0 0.91815110E+02</rscale>
<asrwt>0</asrwt>
<pdfrwt beam="1">  1        1 0.47568705E-02 0.91815110E+02</pdfrwt>
<pdfrwt beam="2">  1       -1 0.10486252E-01 0.91815110E+02</pdfrwt>
<totfact> 0.85379107E+04</totfact>
</mgrwt>
</event>
<event>
 5    1  0.6027538E+000  0.9052300E+02  0.7546771E-02  0.1301590E+00
         -1   -1    0    0    0  501 -0.00000000000E+00  0.00000000000E+00  0.22004798470E+03  0.22004798470E+03  0.00000000000E+00 0.  1.
          1   -1    0    0  501    0  0.00000000000E+00 -0.00000000000E+00 -0.93098028197E+01  0.93098028197E+01  0.00000000000E+00 0. -1.
         23    2    1    2    0    0  0.00000000000E+00  0.00000000000E+00  0.21073818188E+03  0.22935778751E+03  0.90522999252E+02 0.  0.
        -13    1    3    3    0    0  0.24613673018E+02  0.37722849022E+02  0.11663111034E+03  0.12502664571E+03  0.00000000000E+00 0.  1.
         13    1    3    3    0    0 -0.24613673018E+02 -0.37722849022E+02  0.94107071537E+02  0.10433114181E+03  0.00000000000E+00 0. -1.
<mgrwt>
<rscale>  0 0.90522999E+02</rscale>
<asrwt>0</asrwt>
<pdfrwt beam="2">  1        1 0.14322775E-02 0.90522999E+02</pdfrwt>
<pdfrwt beam="1">  1       -1 0.33853532E-01 0.90522999E+02</pdfrwt>
<totfact> 0.68764580E+04</totfact>
</mgrwt>
</event>
<event>
 5    1  0.6027538E+000  0.9032770E+02  0.7546771E-02  0.1302060E+00
         -1   -1    0    0    0  501 -0.00000000000E+00  0.00000000000E+00  0.18095226089E+02  0.18095226089E+02  0.00000000000E+00 0.  1.
          1   -1    0    0  501    0  0.00000000000E+00 -0.00000000000E+00 -0.11272438177E+03  0.11272438177E+03  0.00000000000E+00 0. -1.
         23    2    1    2    0    0  0.00000000000E+00  0.00000000000E+00 -0.94629155677E+02  0.13081960786E+03  0.90327696170E+02 0.  0.
        -13    1    3    3    0    0  0.35145606543E+02  0.14502062612E+02 -0.12009563439E+02  0.39871707930E+02  0.00000000000E+00 0.  1.
         13    1    3    3    0    0 -0.35145606543E+02 -0.14502062612E+02 -0.82619592238E+02  0.90947899926E+02  0.00000000000E+00 0. -1.
<mgrwt>
<rscale>  0 0.90327696E+02</rscale>
<asrwt>0</asrwt>
<pdfrwt beam="2">  1        1 0.17342212E-01 0.90327696E+02</pdfrwt>
<pdfrwt beam="1">  1       -1 0.27838810E-02 0.90327696E+02</pdfrwt>
<totfact> 0.10932395E+05</totfact>
</mgrwt>
</event>
<event>
 5    1  0.6027538E+000  0.9667676E+02  0.7546771E-02  0.1287444E+00
         -1   -1    0    0    0  501 -0.00000000000E+00  0.00000000000E+00  0.89305244775E+02  0.89305244775E+02  0.00000000000E+00 0.  1.
          1   -1    0    0  501    0  0.00000000000E+00 -0.00000000000E+00 -0.26164186580E+02  0.26164186580E+02  0.00000000000E+00 0. -1.
         23    2    1    2    0    0  0.00000000000E+00  0.00000000000E+00  0.63141058195E+02  0.11546943135E+03  0.96676762189E+02 0.  0.
        -13    1    3    3    0    0 -0.43769164067E+02 -0.11113169216E+02  0.10974481257E+02  0.46472373428E+02  0.00000000000E+00 0. -1.
         13    1    3    3    0    0  0.43769164067E+02  0.11113169216E+02  0.52166576938E+02  0.68997057927E+02  0.00000000000E+00 0.  1.
<mgrwt>
<rscale>  0 0.96676762E+02</rscale>
<asrwt>0</asrwt>
<pdfrwt beam="2">  1        1 0.40252595E-02 0.96676762E+02</pdfrwt>
<pdfrwt beam="1">  1       -1 0.13739268E-01 0.96676762E+02</pdfrwt>
<totfact> 0.71441806E+04</totfact>
</mgrwt>
</event>
<event>
 5    1  0.6027538E+000  0.8967653E+02  0.7546771E-02  0.1303637E+00
          1   -1    0    0  501    0  0.00000000000E+00  0.00000000000E+00  0.73741848287E+02  0.73741848287E+02  0.00000000000E+00 0. -1.
         -1   -1    0    0    0  501 -0.00000000000E+00 -0.00000000000E+00 -0.27263621473E+02  0.27263621473E+02  0.00000000000E+00 0.  1.
         23    2    1    2    0    0  0.00000000000E+00  0.00000000000E+00  0.46478226814E+02  0.10100546976E+03  0.89676526214E+02 0.  0.
        -13    1    3    3    0    0  0.12900432867E+02  0.31720778734E+02 -0.93630849954E+01  0.35500652562E+02  0.00000000000E+00 0.  1.
         13    1    3    3    0    0 -0.12900432867E+02 -0.31720778734E+02  0.55841311810E+02  0.65504817199E+02  0.00000000000E+00 0. -1.
<mgrwt>
<rscale>  0 0.89676526E+02</rscale>
<asrwt>0</asrwt>
<pdfrwt beam="1">  1        1 0.11344900E-01 0.89676526E+02</pdfrwt>
<pdfrwt beam="2">  1       -1 0.41944033E-02 0.89676526E+02</pdfrwt>
<totfact> 0.10410547E+05</totfact>
</mgrwt>
</event>
<event>
 5    1  0.6027538E+000  0.1137552E+03  0.7546771E-02  0.1253770E+00
          1   -1    0    0  501    0  0.00000000000E+00  0.00000000000E+00  0.73928364068E+02  0.73928364068E+02  0.00000000000E+00 0. -1.
         -1   -1    0    0    0  501 -0.00000000000E+00 -0.00000000000E+00 -0.43759413065E+02  0.43759413065E+02  0.00000000000E+00 0.  1.
         23    2    1    2    0    0  0.00000000000E+00  0.00000000000E+00  0.30168951003E+02  0.11768777713E+03  0.11375520771E+03 0.  0.
        -13    1    3    3    0    0  0.29964630465E+02  0.23655212263E+01  0.65040272209E+02  0.71649925182E+02  0.00000000000E+00 0. -1.
         13    1    3    3    0    0 -0.29964630465E+02 -0.23655212263E+01 -0.34871321206E+02  0.46037851950E+02  0.00000000000E+00 0.  1.
<mgrwt>
<rscale>  0 0.11375521E+03</rscale>
<asrwt>0</asrwt>
<pdfrwt beam="1">  1        1 0.11373595E-01 0.11375521E+03</pdfrwt>
<pdfrwt beam="2">  1       -1 0.67322174E-02 0.11375521E+03</pdfrwt>
<totfact> 0.53568821E+04</totfact>
</mgrwt>
</event>
<event>
 5    1  0.6027538E+000  0.9272287E+02  0.7546771E-02  0.1296389E+00
          1   -1    0    0  501    0  0.00000000000E+00  0.00000000000E+00  0.22129340085E+02  0.22129340085E+02  0.00000000000E+00 0. -1.
         -1   -1    0    0    0  501 -0.00000000000E+00 -0.00000000000E+00 -0.97128176570E+02  0.97128176570E+02  0.00000000000E+00 0.  1.
         23    2    1    2    0    0  0.00000000000E+00  0.00000000000E+00 -0.74998836484E+02  0.11925751666E+03  0.92722865598E+02 0.  0.
        -13    1    3    3    0    0  0.26565801598E+02  0.25785853096E+02 -0.73390990699E+02  0.82200301400E+02  0.00000000000E+00 0.  1.
         13    1    3    3    0    0 -0.26565801598E+02 -0.25785853096E+02 -0.16078457854E+01  0.37057215255E+02  0.00000000000E+00 0. -1.
<mgrwt>
<rscale>  0 0.92722866E+02</rscale>
<asrwt>0</asrwt>
<pdfrwt beam="1">  1        1 0.34045139E-02 0.92722866E+02</pdfrwt>
<pdfrwt beam="2">  1       -1 0.14942796E-01 0.92722866E+02</pdfrwt>
<totfact> 0.78341170E+04</totfact>
</mgrwt>
</event>
<event>
 5    1  0.6027538E+000  0.8930308E+02  0.7546771E-02  0.1304548E+00
         -2   -1    0    0    0  501 -0.00000000000E+00  0.00000000000E+00  0.16232873024E+02  0.16232873024E+02  0.00000000000E+00 0. -1.
          2   -1    0    0  501    0  0.00000000000E+00 -0.00000000000E+00 -0.12282238632E+03  0.12282238632E+03  0.00000000000E+00 0.  1.
         23    2    1    2    0    0  0.00000000000E+00  0.00000000000E+00 -0.10658951330E+03  0.13905525935E+03  0.89303083972E+02 0.  0.
        -13    1    3    3    0    0 -0.10479260162E+01 -0.36082727946E+02 -0.12371959382E+02  0.38159229341E+02  0.00000000000E+00 0. -1.
         13    1    3    3    0    0  0.10479260162E+01  0.36082727946E+02 -0.94217553918E+02  0.10089603001E+03  0.00000000000E+00 0.  1.
<mgrwt>
<rscale>  0 0.89303084E+02</rscale>
<asrwt>0</asrwt>
<pdfrwt beam="2">  1        2 0.18895751E-01 0.89303084E+02</pdfrwt>
<pdfrwt beam="1">  1       -2 0.24973651E-02 0.89303084E+02</pdfrwt>
<totfact> 0.13845782E+05</totfact>
</mgrwt>
</event>
<event>
 5    1  0.6027538E+000  0.9197204E+02  0.7546771E-02  0.1298145E+00
          1   -1    0    0  501    0  0.00000000000E+00  0.00000000000E+00  0.27662244408E+03  0.27662244408E+03  0.00000000000E+00 0. -1.
         -1   -1    0    0    0  501 -0.00000000000E+00 -0.00000000000E+00 -0.76447658604E+01  0.76447658604E+01  0.00000000000E+00 0.  1.
         23    2    1    2    0    0  0.00000000000E+00  0.00000000000E+00  0.26897767822E+03  0.28426720994E+03  0.91972035243E+02 0.  0.
        -13    1    3    3    0    0 -0.21879783754E+02 -0.38969178102E+02  0.10100075588E+03  0.11044670419E+03  0.00000000000E+00 0.  1.
         13    1    3    3    0    0  0.21879783754E+02  0.38969178102E+02  0.16797692234E+03  0.17382050575E+03  0.00000000000E+00 0. -1.
<mgrwt>
<rscale>  0 0.91972035E+02</rscale>
<asrwt>0</asrwt>
<pdfrwt beam="1">  1        1 0.42557291E-01 0.91972035E+02</pdfrwt>
<pdfrwt beam="2">  1       -1 0.11761180E-02 0.91972035E+02</pdfrwt>
<totfact> 0.12324437E+05</totfact>
</mgrwt>
</event>
<event>
 5    1  0.6027538E+000  0.9095617E+02  0.7546771E-02  0.1300553E+00
         -3   -1    0    0    0  501 -0.00000000000E+00  0.00000000000E+00  0.53821313514E+02  0.53821313514E+02  0.00000000000E+00 0.  1.
          3   -1    0    0  501    0  0.00000000000E+00 -0.00000000000E+00 -0.38428203958E+02  0.38428203958E+02  0.00000000000E+00 0. -1.
         23    2    1    2    0    0  0.00000000000E+00  0.00000000000E+00  0.15393109556E+02  0.92249517472E+02  0.90956174348E+02 0.  0.
        -13    1    3    3    0    0  0.42797471075E+02  0.13795612467E+02  0.14598760068E+02  0.47276487277E+02  0.00000000000E+00 0.  1.
         13    1    3    3    0    0 -0.42797471075E+02 -0.13795612467E+02  0.79434948760E+00  0.44973030194E+02  0.00000000000E+00 0. -1.
<mgrwt>
<rscale>  0 0.90956174E+02</rscale>
<asrwt>0</asrwt>
<pdfrwt beam="2">  1        3 0.59120314E-02 0.90956174E+02</pdfrwt>
<pdfrwt beam="1">  1       -3 0.82802021E-02 0.90956174E+02</pdfrwt>
<totfact> 0.35490656E+04</totfact>
</mgrwt>
</event>
<event>
 5    1  0.6027538E+000  0.9421749E+02  0.7546771E-02  0.1292948E+00
          2   -1    0    0  501    0  0.00000000000E+00  0.00000000000E+00  0.10731120552E+02  0.10731120552E+02  0.00000000000E+00 0. -1.
         -2   -1    0    0    0  501 -0.00000000000E+00 -0.00000000000E+00 -0.20680354464E+03  0.20680354464E+03  0.00000000000E+00 0.  1.
         23    2    1    2    0    0  0.00000000000E+00  0.00000000000E+00 -0.19607242409E+03  0.21753466519E+03  0.94217488144E+02 0.  0.
        -13    1    3    3    0    0 -0.43658193567E+02 -0.69874113857E+01 -0.13557711097E+03  0.14260439966E+03  0.00000000000E+00 0.  1.
         13    1    3    3    0    0  0.43658193567E+02  0.69874113857E+01 -0.60495313120E+02  0.74930265534E+02  0.00000000000E+00 0. -1.
<mgrwt>
<rscale>  0 0.94217488E+02</rscale>
<asrwt>0</asrwt>
<pdfrwt beam="1">  1        2 0.16509416E-02 0.94217488E+02</pdfrwt>
<pdfrwt beam="2">  1       -2 0.31815931E-01 0.94217488E+02</pdfrwt>
<totfact> 0.56468637E+04</totfact>
</mgrwt>
</event>
<event>
 5    1  0.6027538E+000  0.8318057E+02  0.7546771E-02  0.1320260E+00
         -2   -1    0    0    0  501 -0.00000000000E+00  0.00000000000E+00  0.42311659151E+01  0.42311659151E+01  0.00000000000E+00 0. -1.
          2   -1    0    0  501    0  0.00000000000E+00 -0.00000000000E+00 -0.40881208400E+03  0.40881208400E+03  0.00000000000E+00 0.  1.
         23    2    1    2    0    0  0.00000000000E+00  0.00000000000E+00 -0.40458091809E+03  0.41304324992E+03  0.83180568777E+02 0.  0.
        -13    1    3    3    0    0  0.35734932549E+02  0.19852353526E+02 -0.16426196106E+03  0.16927224579E+03  0.00000000000E+00 0.  1.
         13    1    3    3    0    0 -0.35734932549E+02 -0.19852353526E+02 -0.24031895703E+03  0.24377100412E+03  0.00000000000E+00 0. -1.
<mgrwt>
<rscale>  0 0.83180569E+02</rscale>
<asrwt>0</asrwt>
<pdfrwt beam="2">  1        2 0.62894187E-01 0.83180569E+02</pdfrwt>
<pdfrwt beam="1">  1       -2 0.65094839E-03 0.83180569E+02</pdfrwt>
<totfact> 0.25635020E+05</totfact>
</mgrwt>
</event>
<event>
 5    1  0.6027538E+000  0.8413108E+02  0.7546771E-02  0.1317721E+00
          2   -1    0    0  501    0  0.00000000000E+00  0.00000000000E+00  0.31959822592E+03  0.31959822592E+03  0.00000000000E+00 0. -1.
         -2   -1    0    0    0  501 -0.00000000000E+00 -0.00000000000E+00 -0.55366689262E+01  0.55366689262E+01  0.00000000000E+00 0.  1.
         23    2    1    2    0    0  0.00000000000E+00  0.00000000000E+00  0.31406155699E+03  0.32513489484E+03  0.84131077880E+02 0.  0.
        -13    1    3    3    0    0  0.34546273842E+02 -0.23923335197E+02  0.14955838937E+03  0.15534955048E+03  0.00000000000E+00 0. -1.
         13    1    3    3    0    0 -0.34546273842E+02  0.23923335197E+02  0.16450316762E+03  0.16978534437E+03  0.00000000000E+00 0.  1.
<mgrwt>
<rscale>  0 0.84131078E+02</rscale>
<asrwt>0</asrwt>
<pdfrwt beam="1">  1        2 0.49168943E-01 0.84131078E+02</pdfrwt>
<pdfrwt beam="2">  1       -2 0.85179547E-03 0.84131078E+02</pdfrwt>
<totfact> 0.22766297E+05</totfact>
</mgrwt>
</event>
<event>
 5    1  0.6027538E+000  0.8893452E+02  0.7546771E-02  0.1305453E+00
         -1   -1    0    0    0  501 -0.00000000000E+00  0.00000000000E+00  0.14587851677E+03  0.14587851677E+03  0.00000000000E+00 0.  1.
          1   -1    0    0  501    0  0.00000000000E+00 -0.00000000000E+00 -0.13554682772E+02  0.13554682772E+02  0.00000000000E+00 0. -1.
         23    2    1    2    0    0  0.00000000000E+00  0.00000000000E+00  0.13232383400E+03  0.15943319954E+03  0.88934515640E+02 0.  0.
        -13    1    3    3    0    0 -0.32868944497E+02  0.24943686747E+02  0.95878752176E+02  0.10438050651E+03  0.00000000000E+00 0.  1.
         13    1    3    3    0    0  0.32868944497E+02 -0.24943686747E+02  0.36445081825E+02  0.55052693032E+02  0.00000000000E+00 0. -1.
<mgrwt>
<rscale>  0 0.88934516E+02</rscale>
<asrwt>0</asrwt>
<pdfrwt beam="2">  1        1 0.20853359E-02 0.88934516E+02</pdfrwt>
<pdfrwt beam="1">  1       -1 0.22442848E-01 0.88934516E+02</pdfrwt>
<totfact> 0.80289635E+04</totfact>
</mgrwt>
</event>
<event>
 5    1  0.6027538E+000  0.8648720E+02  0.7546771E-02  0.1311589E+00
         -2   -1    0    0    0  501 -0.00000000000E+00  0.00000000000E+00  0.50713577483E+02  0.50713577483E+02  0.00000000000E+00 0.  1.
          2   -1    0    0  501    0  0.00000000000E+00 -0.00000000000E+00 -0.36873931329E+02  0.36873931329E+02  0.00000000000E+00 0. -1.
         23    2    1    2    0    0  0.00000000000E+00  0.00000000000E+00  0.13839646154E+02  0.87587508812E+02  0.86487200753E+02 0.  0.
        -13    1    3    3    0    0 -0.17325458682E+02 -0.25368522380E+02  0.37741795546E+02  0.48663914529E+02  0.00000000000E+00 0.  1.
         13    1    3    3    0    0  0.17325458682E+02  0.25368522380E+02 -0.23902149393E+02  0.38923594282E+02  0.00000000000E+00 0. -1.
<mgrwt>
<rscale>  0 0.86487201E+02</rscale>
<asrwt>0</asrwt>
<pdfrwt beam="2">  1        2 0.56729126E-02 0.86487201E+02</pdfrwt>
<pdfrwt beam="1">  1       -2 0.78020888E-02 0.86487201E+02</pdfrwt>
<totfact> 0.10882730E+05</totfact>
</mgrwt>
</event>
<event>
 5    1  0.6027538E+000  0.9031877E+02  0.7546771E-02  0.1302082E+00
         -4   -1    0    0    0  501 -0.00000000000E+00  0.00000000000E+00  0.12532016177E+03  0.12532016177E+03  0.00000000000E+00 0. -1.
          4   -1    0    0  501    0  0.00000000000E+00 -0.00000000000E+00 -0.16273278998E+02  0.16273278998E+02  0.00000000000E+00 0.  1.
         23    2    1    2    0    0  0.00000000000E+00  0.00000000000E+00  0.10904688278E+03  0.14159344077E+03  0.90318767854E+02 0.  0.
        -13    1    3    3    0    0 -0.27322288765E+02 -0.71192778293E+01  0.10977660046E+03  0.11334943135E+03  0.00000000000E+00 0. -1.
         13    1    3    3    0    0  0.27322288765E+02  0.71192778293E+01 -0.72971768132E+00  0.28244009419E+02  0.00000000000E+00 0.  1.
<mgrwt>
<rscale>  0 0.90318768E+02</rscale>
<asrwt>0</asrwt>
<pdfrwt beam="2">  1        4 0.25035815E-02 0.90318768E+02</pdfrwt>
<pdfrwt beam="1">  1       -4 0.19280024E-01 0.90318768E+02</pdfrwt>
<totfact> 0.24722705E+04</totfact>
</mgrwt>
</event>
<event>
 5    1  0.6027538E+000  0.8478860E+02  0.7546771E-02  0.1315986E+00
          1   -1    0    0  501    0  0.00000000000E+00  0.00000000000E+00  0.82684429500E+02  0.82684429500E+02  0.00000000000E+00 0. -1.
         -1   -1    0    0    0  501 -0.00000000000E+00 -0.00000000000E+00 -0.21736579814E+02  0.21736579814E+02  0.00000000000E+00 0.  1.
         23    2    1    2    0    0  0.00000000000E+00  0.00000000000E+00  0.60947849686E+02  0.10442100931E+03  0.84788600677E+02 0.  0.
        -13    1    3    3    0    0  0.38908975697E+02 -0.16513291847E+02  0.34498554799E+02  0.54559577350E+02  0.00000000000E+00 0.  1.
         13    1    3    3    0    0 -0.38908975697E+02  0.16513291847E+02  0.26449294888E+02  0.49861431964E+02  0.00000000000E+00 0. -1.
<mgrwt>
<rscale>  0 0.84788601E+02</rscale>
<asrwt>0</asrwt>
<pdfrwt beam="1">  1        1 0.12720681E-01 0.84788601E+02</pdfrwt>
<pdfrwt beam="2">  1       -1 0.33440893E-02 0.84788601E+02</pdfrwt>
<totfact> 0.12345226E+05</totfact>
</mgrwt>
</event>
<event>
 5    1  0.6027538E+000  0.9100061E+02  0.7546771E-02  0.1300447E+00
         -2   -1    0    0    0  501 -0.00000000000E+00  0.00000000000E+00  0.14834027347E+03  0.14834027347E+03  0.00000000000E+00 0.  1.
          2   -1    0    0  501    0  0.00000000000E+00 -0.00000000000E+00 -0.13956274405E+02  0.13956274405E+02  0.00000000000E+00 0. -1.
         23    2    1    2    0    0  0.00000000000E+00  0.00000000000E+00  0.13438399907E+03  0.16229654788E+03  0.91000605754E+02 0.  0.
        -13    1    3    3    0    0 -0.17651874227E+02  0.32007996037E+02  0.18867717256E+02  0.41135036507E+02  0.00000000000E+00 0. -1.
         13    1    3    3    0    0  0.17651874227E+02 -0.32007996037E+02  0.11551628181E+03  0.12116151137E+03  0.00000000000E+00 0.  1.
<mgrwt>
<rscale>  0 0.91000606E+02</rscale>
<asrwt>0</asrwt>
<pdfrwt beam="2">  1        2 0.21471192E-02 0.91000606E+02</pdfrwt>
<pdfrwt beam="1">  1       -2 0.22821579E-01 0.91000606E+02</pdfrwt>
<totfact> 0.70483726E+04</totfact>
</mgrwt>
</event>
<event>
 5    1  0.6027538E+000  0.9011497E+02  0.7546771E-02  0.1302574E+00
          2   -1    0    0  501    0  0.00000000000E+00  0.00000000000E+00  0.15618094266E+03  0.15618094266E+03  0.00000000000E+00 0. -1.
         -2   -1    0    0    0  501 -0.00000000000E+00 -0.00000000000E+00 -0.12998878929E+02  0.12998878929E+02  0.00000000000E+00 0.  1.
         23    2    1    2    0    0  0.00000000000E+00  0.00000000000E+00  0.14318206373E+03  0.16917982159E+03  0.90114974665E+02 0.  0.
        -13    1    3    3    0    0  0.39180860854E+02 -0.14249355000E+02  0.39510766009E+02  0.57439399421E+02  0.00000000000E+00 0.  1.
         13    1    3    3    0    0 -0.39180860854E+02  0.14249355000E+02  0.10367129772E+03  0.11174042217E+03  0.00000000000E+00 0. -1.
<mgrwt>
<rscale>  0 0.90114975E+02</rscale>
<asrwt>0</asrwt>
<pdfrwt beam="1">  1        2 0.24027836E-01 0.90114975E+02</pdfrwt>
<pdfrwt beam="2">  1       -2 0.19998276E-02 0.90114975E+02</pdfrwt>
<totfact> 0.14631986E+05</totfact>
</mgrwt>
</event>
<event>
 5    1  0.6027538E+000  0.9338770E+02  0.7546771E-02  0.1294849E+00
         -3   -1    0    0    0  501 -0.00000000000E+00  0.00000000000E+00  0.72917872454E+01  0.72917872454E+01  0.00000000000E+00 0.  1.
          3   -1    0    0  501    0  0.00000000000E+00 -0.00000000000E+00 -0.29900975791E+03  0.29900975791E+03  0.00000000000E+00 0. -1.
         23    2    1    2    0    0  0.00000000000E+00  0.00000000000E+00 -0.29171797067E+03  0.30630154516E+03  0.93387698097E+02 0.  0.
        -13    1    3    3    0    0 -0.26180428750E+02 -0.31242739612E+02 -0.22056509395E+03  0.22429998729E+03  0.00000000000E+00 0. -1.
         13    1    3    3    0    0  0.26180428750E+02  0.31242739612E+02 -0.71152876719E+02  0.82001557872E+02  0.00000000000E+00 0.  1.
<mgrwt>
<rscale>  0 0.93387698E+02</rscale>
<asrwt>0</asrwt>
<pdfrwt beam="2">  1        3 0.46001507E-01 0.93387698E+02</pdfrwt>
<pdfrwt beam="1">  1       -3 0.11218133E-02 0.93387698E+02</pdfrwt>
<totfact> 0.22304382E+04</totfact>
</mgrwt>
</event>
<event>
 5    1  0.6027538E+000  0.9233202E+02  0.7546771E-02  0.1297301E+00
          2   -1    0    0  501    0  0.00000000000E+00  0.00000000000E+00  0.11763759430E+02  0.11763759430E+02  0.00000000000E+00 0. -1.
         -2   -1    0    0    0  501 -0.00000000000E+00 -0.00000000000E+00 -0.18117512328E+03  0.18117512328E+03  0.00000000000E+00 0.  1.
         23    2    1    2    0    0  0.00000000000E+00  0.00000000000E+00 -0.16941136385E+03  0.19293888271E+03  0.92332021854E+02 0.  0.
        -13    1    3    3    0    0  0.15665742654E+02  0.25641436825E+02 -0.15794387717E+03  0.16077676173E+03  0.00000000000E+00 0.  1.
         13    1    3    3    0    0 -0.15665742654E+02 -0.25641436825E+02 -0.11467486677E+02  0.32162120982E+02  0.00000000000E+00 0. -1.
<mgrwt>
<rscale>  0 0.92332022E+02</rscale>
<asrwt>0</asrwt>
<pdfrwt beam="1">  1        2 0.18098092E-02 0.92332022E+02</pdfrwt>
<pdfrwt beam="2">  1       -2 0.27873095E-01 0.92332022E+02</pdfrwt>
<totfact> 0.62909556E+04</totfact>
</mgrwt>
</event>
<event>
 5    1  0.6027538E+000  0.8685087E+02  0.7546771E-02  0.1310662E+00
          2   -1    0    0  501    0  0.00000000000E+00  0.00000000000E+00  0.24732297442E+03  0.24732297442E+03  0.00000000000E+00 0. -1.
         -2   -1    0    0    0  501 -0.00000000000E+00 -0.00000000000E+00 -0.76247200052E+01  0.76247200052E+01  0.00000000000E+00 0.  1.
         23    2    1    2    0    0  0.00000000000E+00  0.00000000000E+00  0.23969825441E+03  0.25494769442E+03  0.86850870595E+02 0.  0.
        -13    1    3    3    0    0 -0.39205158013E+02 -0.11734716338E+02  0.77206968372E+02  0.87382286235E+02  0.00000000000E+00 0.  1.
         13    1    3    3    0    0  0.39205158013E+02  0.11734716338E+02  0.16249128604E+03  0.16756540819E+03  0.00000000000E+00 0. -1.
<mgrwt>
<rscale>  0 0.86850871E+02</rscale>
<asrwt>0</asrwt>
<pdfrwt beam="1">  1        2 0.38049682E-01 0.86850871E+02</pdfrwt>
<pdfrwt beam="2">  1       -2 0.11730340E-02 0.86850871E+02</pdfrwt>
<totfact> 0.19036040E+05</totfact>
</mgrwt>
</event>
<event>
 5    1  0.6027538E+000  0.8866759E+02  0.7546771E-02  0.1306111E+00
          1   -1    0    0  501    0  0.00000000000E+00  0.00000000000E+00  0.17141419085E+03  0.17141419085E+03  0.00000000000E+00 0. -1.
         -1   -1    0    0    0  501 -0.00000000000E+00 -0.00000000000E+00 -0.11466293634E+02  0.11466293634E+02  0.00000000000E+00 0.  1.
         23    2    1    2    0    0  0.00000000000E+00  0.00000000000E+00  0.15994789722E+03  0.18288048449E+03  0.88667591493E+02 0.  0.
        -13    1    3    3    0    0  0.48996093162E+01 -0.42197435446E+02  0.10613292226E+03  0.11431897007E+03  0.00000000000E+00 0.  1.
         13    1    3    3    0    0 -0.48996093162E+01  0.42197435446E+02  0.53814974958E+02  0.68561514419E+02  0.00000000000E+00 0. -1.
<mgrwt>
<rscale>  0 0.88667591E+02</rscale>
<asrwt>0</asrwt>
<pdfrwt beam="1">  1        1 0.26371412E-01 0.88667591E+02</pdfrwt>
<pdfrwt beam="2">  1       -1 0.17640453E-02 0.88667591E+02</pdfrwt>
<totfact> 0.12389448E+05</totfact>
</mgrwt>
</event>
<event>
 5    1  0.6027538E+000  0.8819356E+02  0.7546771E-02  0.1307286E+00
          3   -1    0    0  501    0  0.00000000000E+00  0.00000000000E+00  0.38028170613E+02  0.38028170613E+02  0.00000000000E+00 0. -1.
         -3   -1    0    0    0  501 -0.00000000000E+00 -0.00000000000E+00 -0.51133835551E+02  0.51133835551E+02  0.00000000000E+00 0.  1.
         23    2    1    2    0    0  0.00000000000E+00  0.00000000000E+00 -0.13105664938E+02  0.89162006164E+02  0.88193564899E+02 0.  0.
        -13    1    3    3    0    0  0.30089162917E+02  0.72419513461E+01  0.25204241458E+02  0.39913122802E+02  0.00000000000E+00 0. -1.
         13    1    3    3    0    0 -0.30089162917E+02 -0.72419513461E+01 -0.38309906396E+02  0.49248883362E+02  0.00000000000E+00 0.  1.
<mgrwt>
<rscale>  0 0.88193565E+02</rscale>
<asrwt>0</asrwt>
<pdfrwt beam="1">  1        3 0.58504878E-02 0.88193565E+02</pdfrwt>
<pdfrwt beam="2">  1       -3 0.78667440E-02 0.88193565E+02</pdfrwt>
<totfact> 0.38851168E+04</totfact>
</mgrwt>
</event>
<event>
 5    1  0.6027538E+000  0.6723781E+02  0.7546771E-02  0.1369746E+00
         -1   -1    0    0    0  501 -0.00000000000E+00  0.00000000000E+00  0.11229308502E+02  0.11229308502E+02  0.00000000000E+00 0.  1.
          1   -1    0    0  501    0  0.00000000000E+00 -0.00000000000E+00 -0.10065008607E+03  0.10065008607E+03  0.00000000000E+00 0. -1.
         23    2    1    2    0    0  0.00000000000E+00  0.00000000000E+00 -0.89420777572E+02  0.11187939458E+03  0.67237812793E+02 0.  0.
        -13    1    3    3    0    0  0.28588173090E+02  0.11480785089E+02 -0.22315842215E+02  0.38040621454E+02  0.00000000000E+00 0.  1.
         13    1    3    3    0    0 -0.28588173090E+02 -0.11480785089E+02 -0.67104935357E+02  0.73838773122E+02  0.00000000000E+00 0. -1.
<mgrwt>
<rscale>  0 0.67237813E+02</rscale>
<asrwt>0</asrwt>
<pdfrwt beam="2">  1        1 0.15484628E-01 0.67237813E+02</pdfrwt>
<pdfrwt beam="1">  1       -1 0.17275860E-02 0.67237813E+02</pdfrwt>
<totfact> 0.23590276E+05</totfact>
</mgrwt>
</event>
<event>
 5    1  0.6027538E+000  0.9070639E+02  0.7546771E-02  0.1301150E+00
          2   -1    0    0  501    0  0.00000000000E+00  0.00000000000E+00  0.50648602900E+02  0.50648602900E+02  0.00000000000E+00 0. -1.
         -2   -1    0    0    0  501 -0.00000000000E+00 -0.00000000000E+00 -0.40611428199E+02  0.40611428199E+02  0.00000000000E+00 0.  1.
         23    2    1    2    0    0  0.00000000000E+00  0.00000000000E+00  0.10037174702E+02  0.91260031099E+02  0.90706385664E+02 0.  0.
        -13    1    3    3    0    0 -0.24244998474E+02  0.21979920641E+02  0.36610487949E+02  0.49104630029E+02  0.00000000000E+00 0. -1.
         13    1    3    3    0    0  0.24244998474E+02 -0.21979920641E+02 -0.26573313248E+02  0.42155401070E+02  0.00000000000E+00 0.  1.
<mgrwt>
<rscale>  0 0.90706386E+02</rscale>
<asrwt>0</asrwt>
<pdfrwt beam="1">  1        2 0.77920928E-02 0.90706386E+02</pdfrwt>
<pdfrwt beam="2">  1       -2 0.62479120E-02 0.90706386E+02</pdfrwt>
<totfact> 0.10292355E+05</totfact>
</mgrwt>
</event>
<event>
 5    1  0.6027538E+000  0.9006096E+02  0.7546771E-02  0.1302704E+00
         -3   -1    0    0    0  501 -0.00000000000E+00  0.00000000000E+00  0.13809861300E+03  0.13809861300E+03  0.00000000000E+00 0.  1.
          3   -1    0    0  501    0  0.00000000000E+00 -0.00000000000E+00 -0.14683306789E+02  0.14683306789E+02  0.00000000000E+00 0. -1.
         23    2    1    2    0    0  0.00000000000E+00  0.00000000000E+00  0.12341530621E+03  0.15278191978E+03  0.90060963835E+02 0.  0.
        -13    1    3    3    0    0  0.32800988847E+02 -0.27568081653E+02  0.85204268167E+02  0.95371228939E+02  0.00000000000E+00 0.  1.
         13    1    3    3    0    0 -0.32800988847E+02  0.27568081653E+02  0.38211038040E+02  0.57410690846E+02  0.00000000000E+00 0. -1.
<mgrwt>
<rscale>  0 0.90060964E+02</rscale>
<asrwt>0</asrwt>
<pdfrwt beam="2">  1        3 0.22589704E-02 0.90060964E+02</pdfrwt>
<pdfrwt beam="1">  1       -3 0.21245940E-01 0.90060964E+02</pdfrwt>
<totfact> 0.32192255E+04</totfact>
</mgrwt>
</event>
<event>
 5    1  0.6027538E+000  0.9210622E+02  0.7546771E-02  0.1297830E+00
          2   -1    0    0  501    0  0.00000000000E+00  0.00000000000E+00  0.16027499586E+02  0.16027499586E+02  0.00000000000E+00 0. -1.
         -2   -1    0    0    0  501 -0.00000000000E+00 -0.00000000000E+00 -0.13232811122E+03  0.13232811122E+03  0.00000000000E+00 0.  1.
         23    2    1    2    0    0  0.00000000000E+00  0.00000000000E+00 -0.11630061164E+03  0.14835561081E+03  0.92106215814E+02 0.  0.
        -13    1    3    3    0    0  0.25441536818E+02  0.19738336386E+02 -0.51189552009E+01  0.32604868061E+02  0.00000000000E+00 0. -1.
         13    1    3    3    0    0 -0.25441536818E+02 -0.19738336386E+02 -0.11118165644E+03  0.11575074275E+03  0.00000000000E+00 0.  1.
<mgrwt>
<rscale>  0 0.92106216E+02</rscale>
<asrwt>0</asrwt>
<pdfrwt beam="1">  1        2 0.24657691E-02 0.92106216E+02</pdfrwt>
<pdfrwt beam="2">  1       -2 0.20358171E-01 0.92106216E+02</pdfrwt>
<totfact> 0.71163596E+04</totfact>
</mgrwt>
</event>
<event>
 5    1  0.6027538E+000  0.9101116E+02  0.7546771E-02  0.1300421E+00
          2   -1    0    0  501    0  0.00000000000E+00  0.00000000000E+00  0.82936835508E+02  0.82936835508E+02  0.00000000000E+00 0. -1.
         -2   -1    0    0    0  501 -0.00000000000E+00 -0.00000000000E+00 -0.24967889735E+02  0.24967889735E+02  0.00000000000E+00 0.  1.
         23    2    1    2    0    0  0.00000000000E+00  0.00000000000E+00  0.57968945773E+02  0.10790472524E+03  0.91011158962E+02 0.  0.
        -13    1    3    3    0    0 -0.26591324624E+02  0.32848701158E+02  0.48986779961E+02  0.64698070481E+02  0.00000000000E+00 0.  1.
         13    1    3    3    0    0  0.26591324624E+02 -0.32848701158E+02  0.89821658125E+01  0.43206654762E+02  0.00000000000E+00 0. -1.
<mgrwt>
<rscale>  0 0.91011159E+02</rscale>
<asrwt>0</asrwt>
<pdfrwt beam="1">  1        2 0.12759513E-01 0.91011159E+02</pdfrwt>
<pdfrwt beam="2">  1       -2 0.38412138E-02 0.91011159E+02</pdfrwt>
<totfact> 0.11663949E+05</totfact>
</mgrwt>
</event>
<event>
 5    1  0.6027538E+000  0.9280398E+02  0.7546771E-02  0.1296200E+00
          3   -1    0    0  501    0  0.00000000000E+00  0.00000000000E+00  0.19328725399E+03  0.19328725399E+03  0.00000000000E+00 0. -1.
         -3   -1    0    0    0  501 -0.00000000000E+00 -0.00000000000E+00 -0.11139610167E+02  0.11139610167E+02  0.00000000000E+00 0.  1.
         23    2    1    2    0    0  0.00000000000E+00  0.00000000000E+00  0.18214764382E+03  0.20442686415E+03  0.92803979649E+02 0.  0.
        -13    1    3    3    0    0 -0.66360621204E+01  0.38898287626E+02  0.37295700156E+02  0.54296255403E+02  0.00000000000E+00 0.  1.
         13    1    3    3    0    0  0.66360621204E+01 -0.38898287626E+02  0.14485194366E+03  0.15013060875E+03  0.00000000000E+00 0. -1.
<mgrwt>
<rscale>  0 0.92803980E+02</rscale>
<asrwt>0</asrwt>
<pdfrwt beam="1">  1        3 0.29736498E-01 0.92803980E+02</pdfrwt>
<pdfrwt beam="2">  1       -3 0.17137863E-02 0.92803980E+02</pdfrwt>
<totfact> 0.26950994E+04</totfact>
</mgrwt>
</event>
<event>
 5    1  0.6027538E+000  0.9115104E+02  0.7546771E-02  0.1300088E+00
          1   -1    0    0  501    0  0.00000000000E+00  0.00000000000E+00  0.16676601899E+02  0.16676601899E+02  0.00000000000E+00 0. -1.
         -1   -1    0    0    0  501 -0.00000000000E+00 -0.00000000000E+00 -0.12455344605E+03  0.12455344605E+03  0.00000000000E+00 0.  1.
         23    2    1    2    0    0  0.00000000000E+00  0.00000000000E+00 -0.10787684415E+03  0.14123004795E+03  0.91151044645E+02 0.  0.
        -13    1    3    3    0    0  0.16187068936E+02 -0.42059946156E+02 -0.43422073719E+02  0.62582239952E+02  0.00000000000E+00 0.  1.
         13    1    3    3    0    0 -0.16187068936E+02  0.42059946156E+02 -0.64454770434E+02  0.78647807999E+02  0.00000000000E+00 0. -1.
<mgrwt>
<rscale>  0 0.91151045E+02</rscale>
<asrwt>0</asrwt>
<pdfrwt beam="1">  1        1 0.25656310E-02 0.91151045E+02</pdfrwt>
<pdfrwt beam="2">  1       -1 0.19162069E-01 0.91151045E+02</pdfrwt>
<totfact> 0.77985140E+04</totfact>
</mgrwt>
</event>
<event>
 5    1  0.6027538E+000  0.9418329E+02  0.7546771E-02  0.1293026E+00
          1   -1    0    0  501    0  0.00000000000E+00  0.00000000000E+00  0.10216219293E+03  0.10216219293E+03  0.00000000000E+00 0. -1.
         -1   -1    0    0    0  501 -0.00000000000E+00 -0.00000000000E+00 -0.21706886902E+02  0.21706886902E+02  0.00000000000E+00 0.  1.
         23    2    1    2    0    0  0.00000000000E+00  0.00000000000E+00  0.80455306033E+02  0.12386907984E+03  0.94183292948E+02 0.  0.
        -13    1    3    3    0    0 -0.15782126589E+02 -0.21511475739E+02 -0.10807952582E+02  0.28785950517E+02  0.00000000000E+00 0.  1.
         13    1    3    3    0    0  0.15782126589E+02  0.21511475739E+02  0.91263258615E+02  0.95083129320E+02  0.00000000000E+00 0. -1.
<mgrwt>
<rscale>  0 0.94183293E+02</rscale>
<asrwt>0</asrwt>
<pdfrwt beam="1">  1        1 0.15717260E-01 0.94183293E+02</pdfrwt>
<pdfrwt beam="2">  1       -1 0.33395211E-02 0.94183293E+02</pdfrwt>
<totfact> 0.95932496E+04</totfact>
</mgrwt>
</event>
<event>
 5    1  0.6027538E+000  0.8991263E+02  0.7546771E-02  0.1303063E+00
         -3   -1    0    0    0  501 -0.00000000000E+00  0.00000000000E+00  0.10216585656E+03  0.10216585656E+03  0.00000000000E+00 0.  1.
          3   -1    0    0  501    0  0.00000000000E+00 -0.00000000000E+00 -0.19782248921E+02  0.19782248921E+02  0.00000000000E+00 0. -1.
         23    2    1    2    0    0  0.00000000000E+00  0.00000000000E+00  0.82383607639E+02  0.12194810548E+03  0.89912633276E+02 0.  0.
        -13    1    3    3    0    0  0.32994566814E+01  0.40279234168E+02  0.14483892578E+02  0.42931180554E+02  0.00000000000E+00 0. -1.
         13    1    3    3    0    0 -0.32994566814E+01 -0.40279234168E+02  0.67899715061E+02  0.79016924927E+02  0.00000000000E+00 0.  1.
<mgrwt>
<rscale>  0 0.89912633E+02</rscale>
<asrwt>0</asrwt>
<pdfrwt beam="2">  1        3 0.30434230E-02 0.89912633E+02</pdfrwt>
<pdfrwt beam="1">  1       -3 0.15717824E-01 0.89912633E+02</pdfrwt>
<totfact> 0.34392139E+04</totfact>
</mgrwt>
</event>
<event>
 5    1  0.6027538E+000  0.8632136E+02  0.7546771E-02  0.1312013E+00
          1   -1    0    0  501    0  0.00000000000E+00  0.00000000000E+00  0.58394214628E+02  0.58394214628E+02  0.00000000000E+00 0. -1.
         -1   -1    0    0    0  501 -0.00000000000E+00 -0.00000000000E+00 -0.31901182144E+02  0.31901182144E+02  0.00000000000E+00 0.  1.
         23    2    1    2    0    0  0.00000000000E+00  0.00000000000E+00  0.26493032485E+02  0.90295396772E+02  0.86321364146E+02 0.  0.
        -13    1    3    3    0    0  0.25505447757E+02 -0.75519129177E+01  0.48800799246E+02  0.55579467981E+02  0.00000000000E+00 0. -1.
         13    1    3    3    0    0 -0.25505447757E+02  0.75519129177E+01 -0.22307766761E+02  0.34715928792E+02  0.00000000000E+00 0.  1.
<mgrwt>
<rscale>  0 0.86321364E+02</rscale>
<asrwt>0</asrwt>
<pdfrwt beam="1">  1        1 0.89837253E-02 0.86321364E+02</pdfrwt>
<pdfrwt beam="2">  1       -1 0.49078742E-02 0.86321364E+02</pdfrwt>
<totfact> 0.11164413E+05</totfact>
</mgrwt>
</event>
<event>
 5    1  0.6027538E+000  0.9224389E+02  0.7546771E-02  0.1297507E+00
         -4   -1    0    0    0  501 -0.00000000000E+00  0.00000000000E+00  0.13107744637E+02  0.13107744637E+02  0.00000000000E+00 0.  1.
          4   -1    0    0  501    0  0.00000000000E+00 -0.00000000000E+00 -0.16228830979E+03  0.16228830979E+03  0.00000000000E+00 0. -1.
         23    2    1    2    0    0  0.00000000000E+00  0.00000000000E+00 -0.14918056515E+03  0.17539605443E+03  0.92243888087E+02 0.  0.
        -13    1    3    3    0    0 -0.45252868108E+02 -0.88449137488E+01 -0.76655030123E+02  0.89454168233E+02  0.00000000000E+00 0.  1.
         13    1    3    3    0    0  0.45252868108E+02  0.88449137488E+01 -0.72525535028E+02  0.85941886192E+02  0.00000000000E+00 0. -1.
<mgrwt>
<rscale>  0 0.92243888E+02</rscale>
<asrwt>0</asrwt>
<pdfrwt beam="2">  1        4 0.24967432E-01 0.92243888E+02</pdfrwt>
<pdfrwt beam="1">  1       -4 0.20165761E-02 0.92243888E+02</pdfrwt>
<totfact> 0.21767209E+04</totfact>
</mgrwt>
</event>
<event>
 5    1  0.6027538E+000  0.1168829E+03  0.7546771E-02  0.1248330E+00
          1   -1    0    0  501    0  0.00000000000E+00  0.00000000000E+00  0.15405351904E+02  0.15405351904E+02  0.00000000000E+00 0.  1.
         -1   -1    0    0    0  501 -0.00000000000E+00 -0.00000000000E+00 -0.22170239537E+03  0.22170239537E+03  0.00000000000E+00 0. -1.
         23    2    1    2    0    0  0.00000000000E+00  0.00000000000E+00 -0.20629704346E+03  0.23710774727E+03  0.11688290583E+03 0.  0.
        -13    1    3    3    0    0  0.47494696924E+02  0.20091884728E+01 -0.34187714946E+02  0.58554102568E+02  0.00000000000E+00 0.  1.
         13    1    3    3    0    0 -0.47494696924E+02 -0.20091884728E+01 -0.17210932852E+03  0.17855364470E+03  0.00000000000E+00 0. -1.
<mgrwt>
<rscale>  0 0.11688291E+03</rscale>
<asrwt>0</asrwt>
<pdfrwt beam="1">  1        1 0.23700545E-02 0.11688291E+03</pdfrwt>
<pdfrwt beam="2">  1       -1 0.34108055E-01 0.11688291E+03</pdfrwt>
<totfact> 0.35060280E+04</totfact>
</mgrwt>
</event>
<event>
 5    1  0.6027538E+000  0.9201243E+02  0.7546771E-02  0.1298050E+00
          1   -1    0    0  501    0  0.00000000000E+00  0.00000000000E+00  0.12013868533E+02  0.12013868533E+02  0.00000000000E+00 0. -1.
         -1   -1    0    0    0  501 -0.00000000000E+00 -0.00000000000E+00 -0.17617737471E+03  0.17617737471E+03  0.00000000000E+00 0.  1.
         23    2    1    2    0    0  0.00000000000E+00  0.00000000000E+00 -0.16416350618E+03  0.18819124324E+03  0.92012429990E+02 0.  0.
        -13    1    3    3    0    0 -0.29253182849E+02  0.22422013178E+01 -0.96027189466E+01  0.30870509952E+02  0.00000000000E+00 0. -1.
         13    1    3    3    0    0  0.29253182849E+02 -0.22422013178E+01 -0.15456078723E+03  0.15732073329E+03  0.00000000000E+00 0.  1.
<mgrwt>
<rscale>  0 0.92012430E+02</rscale>
<asrwt>0</asrwt>
<pdfrwt beam="1">  1        1 0.18482875E-02 0.92012430E+02</pdfrwt>
<pdfrwt beam="2">  1       -1 0.27104211E-01 0.92012430E+02</pdfrwt>
<totfact> 0.70186936E+04</totfact>
</mgrwt>
</event>
<event>
 5    1  0.6027538E+000  0.8589806E+02  0.7546771E-02  0.1313101E+00
          1   -1    0    0  501    0  0.00000000000E+00  0.00000000000E+00  0.20643705304E+03  0.20643705304E+03  0.00000000000E+00 0. -1.
         -1   -1    0    0    0  501 -0.00000000000E+00 -0.00000000000E+00 -0.89355036384E+01  0.89355036384E+01  0.00000000000E+00 0.  1.
         23    2    1    2    0    0  0.00000000000E+00  0.00000000000E+00  0.19750154940E+03  0.21537255668E+03  0.85898056755E+02 0.  0.
        -13    1    3    3    0    0  0.40977567946E+02 -0.63216922988E+01  0.12683864430E+03  0.13344349575E+03  0.00000000000E+00 0.  1.
         13    1    3    3    0    0 -0.40977567946E+02  0.63216922988E+01  0.70662905100E+02  0.81929060934E+02  0.00000000000E+00 0. -1.
<mgrwt>
<rscale>  0 0.85898057E+02</rscale>
<asrwt>0</asrwt>
<pdfrwt beam="1">  1        1 0.31759543E-01 0.85898057E+02</pdfrwt>
<pdfrwt beam="2">  1       -1 0.13746930E-02 0.85898057E+02</pdfrwt>
<totfact> 0.13970148E+05</totfact>
</mgrwt>
</event>
<event>
 5    1  0.6027538E+000  0.9190560E+02  0.7546771E-02  0.1298302E+00
         -1   -1    0    0    0  501 -0.00000000000E+00  0.00000000000E+00  0.58286783387E+02  0.58286783387E+02  0.00000000000E+00 0.  1.
          1   -1    0    0  501    0  0.00000000000E+00 -0.00000000000E+00 -0.36228790800E+02  0.36228790800E+02  0.00000000000E+00 0. -1.
         23    2    1    2    0    0  0.00000000000E+00  0.00000000000E+00  0.22057992587E+02  0.94515574187E+02  0.91905596820E+02 0.  0.
        -13    1    3    3    0    0 -0.41800877321E+02 -0.11522857702E+02 -0.46205822848E+01  0.43605497074E+02  0.00000000000E+00 0.  1.
         13    1    3    3    0    0  0.41800877321E+02  0.11522857702E+02  0.26678574872E+02  0.50910077113E+02  0.00000000000E+00 0. -1.
<mgrwt>
<rscale>  0 0.91905597E+02</rscale>
<asrwt>0</asrwt>
<pdfrwt beam="2">  1        1 0.55736601E-02 0.91905597E+02</pdfrwt>
<pdfrwt beam="1">  1       -1 0.89671975E-02 0.91905597E+02</pdfrwt>
<totfact> 0.87300490E+04</totfact>
</mgrwt>
</event>
<event>
 5    1  0.6027538E+000  0.9336539E+02  0.7546771E-02  0.1294901E+00
          2   -1    0    0  501    0  0.00000000000E+00  0.00000000000E+00  0.21222965891E+02  0.21222965891E+02  0.00000000000E+00 0. -1.
         -2   -1    0    0    0  501 -0.00000000000E+00 -0.00000000000E+00 -0.10268471062E+03  0.10268471062E+03  0.00000000000E+00 0.  1.
         23    2    1    2    0    0  0.00000000000E+00  0.00000000000E+00 -0.81461744731E+02  0.12390767651E+03  0.93365392113E+02 0.  0.
        -13    1    3    3    0    0  0.22148761608E+02 -0.37507280410E+02 -0.63013573037E+02  0.76603355745E+02  0.00000000000E+00 0.  1.
         13    1    3    3    0    0 -0.22148761608E+02  0.37507280410E+02 -0.18448171694E+02  0.47304320769E+02  0.00000000000E+00 0. -1.
<mgrwt>
<rscale>  0 0.93365392E+02</rscale>
<asrwt>0</asrwt>
<pdfrwt beam="1">  1        2 0.32650717E-02 0.93365392E+02</pdfrwt>
<pdfrwt beam="2">  1       -2 0.15797648E-01 0.93365392E+02</pdfrwt>
<totfact> 0.74627479E+04</totfact>
</mgrwt>
</event>
<event>
 5    1  0.6027538E+000  0.9150086E+02  0.7546771E-02  0.1299257E+00
         -1   -1    0    0    0  501 -0.00000000000E+00  0.00000000000E+00  0.26426361242E+02  0.26426361242E+02  0.00000000000E+00 0.  1.
          1   -1    0    0  501    0  0.00000000000E+00 -0.00000000000E+00 -0.79205079166E+02  0.79205079166E+02  0.00000000000E+00 0. -1.
         23    2    1    2    0    0  0.00000000000E+00  0.00000000000E+00 -0.52778717924E+02  0.10563144041E+03  0.91500864133E+02 0.  0.
        -13    1    3    3    0    0 -0.40601220238E+02  0.95793402961E+01 -0.48075437669E+02  0.63651163009E+02  0.00000000000E+00 0. -1.
         13    1    3    3    0    0  0.40601220238E+02 -0.95793402961E+01 -0.47032802548E+01  0.41980277399E+02  0.00000000000E+00 0.  1.
<mgrwt>
<rscale>  0 0.91500864E+02</rscale>
<asrwt>0</asrwt>
<pdfrwt beam="2">  1        1 0.12185397E-01 0.91500864E+02</pdfrwt>
<pdfrwt beam="1">  1       -1 0.40655941E-02 0.91500864E+02</pdfrwt>
<totfact> 0.99609481E+04</totfact>
</mgrwt>
</event>
<event>
 5    1  0.6027538E+000  0.8953006E+02  0.7546771E-02  0.1303994E+00
         -4   -1    0    0    0  501 -0.00000000000E+00  0.00000000000E+00  0.12457041590E+02  0.12457041590E+02  0.00000000000E+00 0.  1.
          4   -1    0    0  501    0  0.00000000000E+00 -0.00000000000E+00 -0.16086547855E+03  0.16086547855E+03  0.00000000000E+00 0. -1.
         23    2    1    2    0    0  0.00000000000E+00  0.00000000000E+00 -0.14840843696E+03  0.17332252014E+03  0.89530061025E+02 0.  0.
        -13    1    3    3    0    0  0.26715897703E+02  0.22558676018E+02 -0.20092908059E+02  0.40328129241E+02  0.00000000000E+00 0.  1.
         13    1    3    3    0    0 -0.26715897703E+02 -0.22558676018E+02 -0.12831552890E+03  0.13299439090E+03  0.00000000000E+00 0. -1.
<mgrwt>
<rscale>  0 0.89530061E+02</rscale>
<asrwt>0</asrwt>
<pdfrwt beam="2">  1        4 0.24748533E-01 0.89530061E+02</pdfrwt>
<pdfrwt beam="1">  1       -4 0.19164681E-02 0.89530061E+02</pdfrwt>
<totfact> 0.23681420E+04</totfact>
</mgrwt>
</event>
<event>
 5    1  0.6027538E+000  0.9066870E+02  0.7546771E-02  0.1301240E+00
         -1   -1    0    0    0  501 -0.00000000000E+00  0.00000000000E+00  0.29007085549E+02  0.29007085549E+02  0.00000000000E+00 0.  1.
          1   -1    0    0  501    0  0.00000000000E+00 -0.00000000000E+00 -0.70851764016E+02  0.70851764016E+02  0.00000000000E+00 0. -1.
         23    2    1    2    0    0  0.00000000000E+00  0.00000000000E+00 -0.41844678467E+02  0.99858849565E+02  0.90668697578E+02 0.  0.
        -13    1    3    3    0    0  0.43818465387E+02 -0.30800434818E+01 -0.85763670165E+01  0.44755990079E+02  0.00000000000E+00 0.  1.
         13    1    3    3    0    0 -0.43818465387E+02  0.30800434818E+01 -0.33268311450E+02  0.55102859486E+02  0.00000000000E+00 0. -1.
<mgrwt>
<rscale>  0 0.90668698E+02</rscale>
<asrwt>0</asrwt>
<pdfrwt beam="2">  1        1 0.10900271E-01 0.90668698E+02</pdfrwt>
<pdfrwt beam="1">  1       -1 0.44626286E-02 0.90668698E+02</pdfrwt>
<totfact> 0.10038494E+05</totfact>
</mgrwt>
</event>
<event>
 5    1  0.6027538E+000  0.9075541E+02  0.7546771E-02  0.1301033E+00
          3   -1    0    0  501    0  0.00000000000E+00  0.00000000000E+00  0.43827061239E+02  0.43827061239E+02  0.00000000000E+00 0. -1.
         -3   -1    0    0    0  501 -0.00000000000E+00 -0.00000000000E+00 -0.46983208211E+02  0.46983208211E+02  0.00000000000E+00 0.  1.
         23    2    1    2    0    0  0.00000000000E+00  0.00000000000E+00 -0.31561469719E+01  0.90810269449E+02  0.90755406306E+02 0.  0.
        -13    1    3    3    0    0 -0.18417725981E+02 -0.39040218607E+01  0.39734679584E+02  0.43969293588E+02  0.00000000000E+00 0. -1.
         13    1    3    3    0    0  0.18417725981E+02  0.39040218607E+01 -0.42890826556E+02  0.46840975861E+02  0.00000000000E+00 0.  1.
<mgrwt>
<rscale>  0 0.90755406E+02</rscale>
<asrwt>0</asrwt>
<pdfrwt beam="1">  1        3 0.67426248E-02 0.90755406E+02</pdfrwt>
<pdfrwt beam="2">  1       -3 0.72281859E-02 0.90755406E+02</pdfrwt>
<totfact> 0.35815832E+04</totfact>
</mgrwt>
</event>
<event>
 5    1  0.6027538E+000  0.8834058E+02  0.7546771E-02  0.1306921E+00
         -2   -1    0    0    0  501 -0.00000000000E+00  0.00000000000E+00  0.72811452579E+02  0.72811452579E+02  0.00000000000E+00 0. -1.
          2   -1    0    0  501    0  0.00000000000E+00 -0.00000000000E+00 -0.26795432308E+02  0.26795432308E+02  0.00000000000E+00 0.  1.
         23    2    1    2    0    0  0.00000000000E+00  0.00000000000E+00  0.46016020271E+02  0.99606884888E+02  0.88340576155E+02 0.  0.
        -13    1    3    3    0    0  0.41990997121E+02 -0.13660483949E+02  0.21792737081E+02  0.49242015093E+02  0.00000000000E+00 0. -1.
         13    1    3    3    0    0 -0.41990997121E+02  0.13660483949E+02  0.24223283191E+02  0.50364869795E+02  0.00000000000E+00 0.  1.
<mgrwt>
<rscale>  0 0.88340576E+02</rscale>
<asrwt>0</asrwt>
<pdfrwt beam="2">  1        2 0.41223742E-02 0.88340576E+02</pdfrwt>
<pdfrwt beam="1">  1       -2 0.11201762E-01 0.88340576E+02</pdfrwt>
<totfact> 0.94294631E+04</totfact>
</mgrwt>
</event>
<event>
 5    1  0.6027538E+000  0.9275250E+02  0.7546771E-02  0.1296320E+00
         -3   -1    0    0    0  501 -0.00000000000E+00  0.00000000000E+00  0.70849781524E+02  0.70849781524E+02  0.00000000000E+00 0.  1.
          3   -1    0    0  501    0  0.00000000000E+00 -0.00000000000E+00 -0.30356575497E+02  0.30356575497E+02  0.00000000000E+00 0. -1.
         23    2    1    2    0    0  0.00000000000E+00  0.00000000000E+00  0.40493206027E+02  0.10120635702E+03  0.92752503832E+02 0.  0.
        -13    1    3    3    0    0 -0.43847576129E+02  0.15104473487E+02  0.20291461128E+02  0.50621126483E+02  0.00000000000E+00 0.  1.
         13    1    3    3    0    0  0.43847576129E+02 -0.15104473487E+02  0.20201744899E+02  0.50585230538E+02  0.00000000000E+00 0. -1.
<mgrwt>
<rscale>  0 0.92752504E+02</rscale>
<asrwt>0</asrwt>
<pdfrwt beam="2">  1        3 0.46702424E-02 0.92752504E+02</pdfrwt>
<pdfrwt beam="1">  1       -3 0.10899966E-01 0.92752504E+02</pdfrwt>
<totfact> 0.33003431E+04</totfact>
</mgrwt>
</event>
<event>
 5    1  0.6027538E+000  0.8986175E+02  0.7546771E-02  0.1303187E+00
         -1   -1    0    0    0  501 -0.00000000000E+00  0.00000000000E+00  0.65051050187E+02  0.65051050187E+02  0.00000000000E+00 0.  1.
          1   -1    0    0  501    0  0.00000000000E+00 -0.00000000000E+00 -0.31033837844E+02  0.31033837844E+02  0.00000000000E+00 0. -1.
         23    2    1    2    0    0  0.00000000000E+00  0.00000000000E+00  0.34017212343E+02  0.96084888031E+02  0.89861754781E+02 0.  0.
        -13    1    3    3    0    0  0.99083416492E+01 -0.43511035853E+02  0.11411780923E+02  0.46060983696E+02  0.00000000000E+00 0. -1.
         13    1    3    3    0    0 -0.99083416492E+01  0.43511035853E+02  0.22605431420E+02  0.50023904335E+02  0.00000000000E+00 0.  1.
<mgrwt>
<rscale>  0 0.89861755E+02</rscale>
<asrwt>0</asrwt>
<pdfrwt beam="2">  1        1 0.47744366E-02 0.89861755E+02</pdfrwt>
<pdfrwt beam="1">  1       -1 0.10007854E-01 0.89861755E+02</pdfrwt>
<totfact> 0.90853699E+04</totfact>
</mgrwt>
</event>
<event>
 5    1  0.6027538E+000  0.8929447E+02  0.7546771E-02  0.1304569E+00
          2   -1    0    0  501    0  0.00000000000E+00  0.00000000000E+00  0.11560146437E+02  0.11560146437E+02  0.00000000000E+00 0. -1.
         -2   -1    0    0    0  501 -0.00000000000E+00 -0.00000000000E+00 -0.17243513277E+03  0.17243513277E+03  0.00000000000E+00 0.  1.
         23    2    1    2    0    0  0.00000000000E+00  0.00000000000E+00 -0.16087498634E+03  0.18399527921E+03  0.89294465356E+02 0.  0.
        -13    1    3    3    0    0 -0.19746520245E+02 -0.22517072491E+02 -0.14866711194E+03  0.15165372989E+03  0.00000000000E+00 0.  1.
         13    1    3    3    0    0  0.19746520245E+02  0.22517072491E+02 -0.12207874391E+02  0.32341549321E+02  0.00000000000E+00 0. -1.
<mgrwt>
<rscale>  0 0.89294465E+02</rscale>
<asrwt>0</asrwt>
<pdfrwt beam="1">  1        2 0.17784843E-02 0.89294465E+02</pdfrwt>
<pdfrwt beam="2">  1       -2 0.26528479E-01 0.89294465E+02</pdfrwt>
<totfact> 0.69868581E+04</totfact>
</mgrwt>
</event>
<event>
 5    1  0.6027538E+000  0.9250287E+02  0.7546771E-02  0.1296901E+00
          2   -1    0    0  501    0  0.00000000000E+00  0.00000000000E+00  0.41441934170E+03  0.41441934170E+03  0.00000000000E+00 0. -1.
         -2   -1    0    0    0  501 -0.00000000000E+00 -0.00000000000E+00 -0.51619097346E+01  0.51619097346E+01  0.00000000000E+00 0.  1.
         23    2    1    2    0    0  0.00000000000E+00  0.00000000000E+00  0.40925743196E+03  0.41958125143E+03  0.92502869883E+02 0.  0.
        -13    1    3    3    0    0 -0.41118537738E+02 -0.19230319066E+02  0.24485654230E+03  0.24902864418E+03  0.00000000000E+00 0.  1.
         13    1    3    3    0    0  0.41118537738E+02  0.19230319066E+02  0.16440088966E+03  0.17055260725E+03  0.00000000000E+00 0. -1.
<mgrwt>
<rscale>  0 0.92502870E+02</rscale>
<asrwt>0</asrwt>
<pdfrwt beam="1">  1        2 0.63756796E-01 0.92502870E+02</pdfrwt>
<pdfrwt beam="2">  1       -2 0.79414029E-03 0.92502870E+02</pdfrwt>
<totfact> 0.19454658E+05</totfact>
</mgrwt>
</event>
<event>
 5    1  0.6027538E+000  0.9333343E+02  0.7546771E-02  0.1294974E+00
          4   -1    0    0  501    0  0.00000000000E+00  0.00000000000E+00  0.14037689366E+02  0.14037689366E+02  0.00000000000E+00 0. -1.
         -4   -1    0    0    0  501 -0.00000000000E+00 -0.00000000000E+00 -0.15513822799E+03  0.15513822799E+03  0.00000000000E+00 0.  1.
         23    2    1    2    0    0  0.00000000000E+00  0.00000000000E+00 -0.14110053862E+03  0.16917591736E+03  0.93333429236E+02 0.  0.
        -13    1    3    3    0    0  0.23811951991E+02  0.19172110640E+02 -0.13446079745E+03  0.13789229469E+03  0.00000000000E+00 0.  1.
         13    1    3    3    0    0 -0.23811951991E+02 -0.19172110640E+02 -0.66397411702E+01  0.31283622661E+02  0.00000000000E+00 0. -1.
<mgrwt>
<rscale>  0 0.93333429E+02</rscale>
<asrwt>0</asrwt>
<pdfrwt beam="1">  1        4 0.21596445E-02 0.93333429E+02</pdfrwt>
<pdfrwt beam="2">  1       -4 0.23867420E-01 0.93333429E+02</pdfrwt>
<totfact> 0.21357402E+04</totfact>
</mgrwt>
</event>
<event>
 5    1  0.6027538E+000  0.9146879E+02  0.7546771E-02  0.1299333E+00
         -2   -1    0    0    0  501 -0.00000000000E+00  0.00000000000E+00  0.10986333779E+02  0.10986333779E+02  0.00000000000E+00 0.  1.
          2   -1    0    0  501    0  0.00000000000E+00 -0.00000000000E+00 -0.19038513963E+03  0.19038513963E+03  0.00000000000E+00 0. -1.
         23    2    1    2    0    0  0.00000000000E+00  0.00000000000E+00 -0.17939880585E+03  0.20137147341E+03  0.91468785726E+02 0.  0.
        -13    1    3    3    0    0  0.98040950437E+01 -0.34287040646E+02 -0.15273835537E+03  0.15684618783E+03  0.00000000000E+00 0. -1.
         13    1    3    3    0    0 -0.98040950437E+01  0.34287040646E+02 -0.26660450478E+02  0.44525285575E+02  0.00000000000E+00 0.  1.
<mgrwt>
<rscale>  0 0.91468786E+02</rscale>
<asrwt>0</asrwt>
<pdfrwt beam="2">  1        2 0.29290020E-01 0.91468786E+02</pdfrwt>
<pdfrwt beam="1">  1       -2 0.16902053E-02 0.91468786E+02</pdfrwt>
<totfact> 0.15065354E+05</totfact>
</mgrwt>
</event>
<event>
 5    1  0.6027538E+000  0.8650794E+02  0.7546771E-02  0.1311536E+00
         -2   -1    0    0    0  501 -0.00000000000E+00  0.00000000000E+00  0.11764452468E+02  0.11764452468E+02  0.00000000000E+00 0.  1.
          2   -1    0    0  501    0  0.00000000000E+00 -0.00000000000E+00 -0.15903043083E+03  0.15903043083E+03  0.00000000000E+00 0. -1.
         23    2    1    2    0    0  0.00000000000E+00  0.00000000000E+00 -0.14726597836E+03  0.17079488330E+03  0.86507940550E+02 0.  0.
        -13    1    3    3    0    0  0.69082348563E+01  0.27831752071E+02 -0.97009141381E+01  0.30272724807E+02  0.00000000000E+00 0.  1.
         13    1    3    3    0    0 -0.69082348563E+01 -0.27831752071E+02 -0.13756506422E+03  0.14052215849E+03  0.00000000000E+00 0. -1.
<mgrwt>
<rscale>  0 0.86507941E+02</rscale>
<asrwt>0</asrwt>
<pdfrwt beam="2">  1        2 0.24466218E-01 0.86507941E+02</pdfrwt>
<pdfrwt beam="1">  1       -2 0.18099160E-02 0.86507941E+02</pdfrwt>
<totfact> 0.16437279E+05</totfact>
</mgrwt>
</event>
<event>
 5    1  0.6027538E+000  0.8984449E+02  0.7546771E-02  0.1303229E+00
          1   -1    0    0  501    0  0.00000000000E+00  0.00000000000E+00  0.23536323673E+02  0.23536323673E+02  0.00000000000E+00 0. -1.
         -1   -1    0    0    0  501 -0.00000000000E+00 -0.00000000000E+00 -0.85740150352E+02  0.85740150352E+02  0.00000000000E+00 0.  1.
         23    2    1    2    0    0  0.00000000000E+00  0.00000000000E+00 -0.62203826679E+02  0.10927647402E+03  0.89844486318E+02 0.  0.
        -13    1    3    3    0    0  0.44228521001E+02 -0.54803919418E+01 -0.37961927755E+02  0.58543186834E+02  0.00000000000E+00 0.  1.
         13    1    3    3    0    0 -0.44228521001E+02  0.54803919418E+01 -0.24241898924E+02  0.50733287191E+02  0.00000000000E+00 0. -1.
<mgrwt>
<rscale>  0 0.89844486E+02</rscale>
<asrwt>0</asrwt>
<pdfrwt beam="1">  1        1 0.36209728E-02 0.89844486E+02</pdfrwt>
<pdfrwt beam="2">  1       -1 0.13190793E-01 0.89844486E+02</pdfrwt>
<totfact> 0.86866787E+04</totfact>
</mgrwt>
</event>
<event>
 5    1  0.6027538E+000  0.8969900E+02  0.7546771E-02  0.1303582E+00
         -2   -1    0    0    0  501 -0.00000000000E+00  0.00000000000E+00  0.30492006606E+02  0.30492006606E+02  0.00000000000E+00 0.  1.
          2   -1    0    0  501    0  0.00000000000E+00 -0.00000000000E+00 -0.65967372238E+02  0.65967372238E+02  0.00000000000E+00 0. -1.
         23    2    1    2    0    0  0.00000000000E+00  0.00000000000E+00 -0.35475365632E+02  0.96459378843E+02  0.89698997766E+02 0.  0.
        -13    1    3    3    0    0 -0.14555266938E+02  0.20558073723E+02  0.22166814756E+02  0.33553805556E+02  0.00000000000E+00 0.  1.
         13    1    3    3    0    0  0.14555266938E+02 -0.20558073723E+02 -0.57642180388E+02  0.62905573288E+02  0.00000000000E+00 0. -1.
<mgrwt>
<rscale>  0 0.89698998E+02</rscale>
<asrwt>0</asrwt>
<pdfrwt beam="2">  1        2 0.10148826E-01 0.89698998E+02</pdfrwt>
<pdfrwt beam="1">  1       -2 0.46910780E-02 0.89698998E+02</pdfrwt>
<totfact> 0.11392320E+05</totfact>
</mgrwt>
</event>
<event>
 5    1  0.6027538E+000  0.9010941E+02  0.7546771E-02  0.1302587E+00
          1   -1    0    0  501    0  0.00000000000E+00  0.00000000000E+00  0.19568885735E+02  0.19568885735E+02  0.00000000000E+00 0. -1.
         -1   -1    0    0    0  501 -0.00000000000E+00 -0.00000000000E+00 -0.10373234549E+03  0.10373234549E+03  0.00000000000E+00 0.  1.
         23    2    1    2    0    0  0.00000000000E+00  0.00000000000E+00 -0.84163459759E+02  0.12330123123E+03  0.90109409410E+02 0.  0.
        -13    1    3    3    0    0 -0.24100948228E+02  0.10899944773E+02  0.78257739423E+01  0.27584547112E+02  0.00000000000E+00 0. -1.
         13    1    3    3    0    0  0.24100948228E+02 -0.10899944773E+02 -0.91989233702E+02  0.95716684118E+02  0.00000000000E+00 0.  1.
<mgrwt>
<rscale>  0 0.90109409E+02</rscale>
<asrwt>0</asrwt>
<pdfrwt beam="1">  1        1 0.30105979E-02 0.90109409E+02</pdfrwt>
<pdfrwt beam="2">  1       -1 0.15958822E-01 0.90109409E+02</pdfrwt>
<totfact> 0.83301094E+04</totfact>
</mgrwt>
</event>
<event>
 5    1  0.6027538E+000  0.9165958E+02  0.7546771E-02  0.1298882E+00
         -1   -1    0    0    0  501 -0.00000000000E+00  0.00000000000E+00  0.12531428372E+03  0.12531428372E+03  0.00000000000E+00 0.  1.
          1   -1    0    0  501    0  0.00000000000E+00 -0.00000000000E+00 -0.16760816566E+02  0.16760816566E+02  0.00000000000E+00 0. -1.
         23    2    1    2    0    0  0.00000000000E+00  0.00000000000E+00  0.10855346716E+03  0.14207510029E+03  0.91659581554E+02 0.  0.
        -13    1    3    3    0    0 -0.36148384341E+02  0.75503569800E+01  0.96346733192E+02  0.10318142555E+03  0.00000000000E+00 0. -1.
         13    1    3    3    0    0  0.36148384341E+02 -0.75503569800E+01  0.12206733967E+02  0.38893674745E+02  0.00000000000E+00 0.  1.
<mgrwt>
<rscale>  0 0.91659582E+02</rscale>
<asrwt>0</asrwt>
<pdfrwt beam="2">  1        1 0.25785872E-02 0.91659582E+02</pdfrwt>
<pdfrwt beam="1">  1       -1 0.19279120E-01 0.91659582E+02</pdfrwt>
<totfact> 0.76771349E+04</totfact>
</mgrwt>
</event>
<event>
 4    1  0.6027538E+000  0.3608885E+02  0.7546771E-02  0.1539139E+00
         -3   -1    0    0    0  501 -0.00000000000E+00  0.00000000000E+00  0.32798669529E+02  0.32798669529E+02  0.00000000000E+00 0.  1.
          3   -1    0    0  501    0  0.00000000000E+00 -0.00000000000E+00 -0.99272703858E+01  0.99272703858E+01  0.00000000000E+00 0. -1.
        -13    1    1    2    0    0 -0.16563107296E+01 -0.13366135775E+02  0.25652691313E+02  0.28973393353E+02  0.00000000000E+00 0.  1.
         13    1    1    2    0    0  0.16563107296E+01  0.13366135775E+02 -0.27812921699E+01  0.13752546562E+02  0.00000000000E+00 0. -1.
<mgrwt>
<rscale>  0 0.36088849E+02</rscale>
<asrwt>0</asrwt>
<pdfrwt beam="2">  1        3 0.15272724E-02 0.36088849E+02</pdfrwt>
<pdfrwt beam="1">  1       -3 0.50459491E-02 0.36088849E+02</pdfrwt>
<totfact> 0.43112250E+05</totfact>
</mgrwt>
</event>
<event>
 5    1  0.6027538E+000  0.8878502E+02  0.7546771E-02  0.1305821E+00
         -2   -1    0    0    0  501 -0.00000000000E+00  0.00000000000E+00  0.83942107603E+02  0.83942107603E+02  0.00000000000E+00 0.  1.
          2   -1    0    0  501    0  0.00000000000E+00 -0.00000000000E+00 -0.23476836263E+02  0.23476836263E+02  0.00000000000E+00 0. -1.
         23    2    1    2    0    0  0.00000000000E+00  0.00000000000E+00  0.60465271341E+02  0.10741894387E+03  0.88785023867E+02 0.  0.
        -13    1    3    3    0    0 -0.82260661238E+01 -0.32005050358E+02 -0.56316669774E+01  0.33521740487E+02  0.00000000000E+00 0. -1.
         13    1    3    3    0    0  0.82260661238E+01  0.32005050358E+02  0.66096938318E+02  0.73897203380E+02  0.00000000000E+00 0.  1.
<mgrwt>
<rscale>  0 0.88785024E+02</rscale>
<asrwt>0</asrwt>
<pdfrwt beam="2">  1        2 0.36118210E-02 0.88785024E+02</pdfrwt>
<pdfrwt beam="1">  1       -2 0.12914170E-01 0.88785024E+02</pdfrwt>
<totfact> 0.89628624E+04</totfact>
</mgrwt>
</event>
<event>
 5    1  0.6027538E+000  0.9325600E+02  0.7546771E-02  0.1295153E+00
          3   -1    0    0  501    0  0.00000000000E+00  0.00000000000E+00  0.11989205862E+03  0.11989205862E+03  0.00000000000E+00 0. -1.
         -3   -1    0    0    0  501 -0.00000000000E+00 -0.00000000000E+00 -0.18134399249E+02  0.18134399249E+02  0.00000000000E+00 0.  1.
         23    2    1    2    0    0  0.00000000000E+00  0.00000000000E+00  0.10175765937E+03  0.13802645787E+03  0.93256001583E+02 0.  0.
        -13    1    3    3    0    0  0.14268235152E-01 -0.32752353065E+02  0.99999994873E+02  0.10522697282E+03  0.00000000000E+00 0. -1.
         13    1    3    3    0    0 -0.14268235152E-01  0.32752353065E+02  0.17576644990E+01  0.32799485047E+02  0.00000000000E+00 0.  1.
<mgrwt>
<rscale>  0 0.93256002E+02</rscale>
<asrwt>0</asrwt>
<pdfrwt beam="1">  1        3 0.18444932E-01 0.93256002E+02</pdfrwt>
<pdfrwt beam="2">  1       -3 0.27899076E-02 0.93256002E+02</pdfrwt>
<totfact> 0.30149923E+04</totfact>
</mgrwt>
</event>
<event>
 5    1  0.6027538E+000  0.9810892E+02  0.7546771E-02  0.1284324E+00
          2   -1    0    0  501    0  0.00000000000E+00  0.00000000000E+00  0.11561949731E+02  0.11561949731E+02  0.00000000000E+00 0. -1.
         -2   -1    0    0    0  501 -0.00000000000E+00 -0.00000000000E+00 -0.20812578249E+03  0.20812578249E+03  0.00000000000E+00 0.  1.
         23    2    1    2    0    0  0.00000000000E+00  0.00000000000E+00 -0.19656383276E+03  0.21968773222E+03  0.98108915700E+02 0.  0.
        -13    1    3    3    0    0  0.47440989845E+02  0.73790143902E+01 -0.75751008946E+02  0.89684517767E+02  0.00000000000E+00 0. -1.
         13    1    3    3    0    0 -0.47440989845E+02 -0.73790143902E+01 -0.12081282381E+03  0.13000321445E+03  0.00000000000E+00 0.  1.
<mgrwt>
<rscale>  0 0.98108916E+02</rscale>
<asrwt>0</asrwt>
<pdfrwt beam="1">  1        2 0.17787616E-02 0.98108916E+02</pdfrwt>
<pdfrwt beam="2">  1       -2 0.32019349E-01 0.98108916E+02</pdfrwt>
<totfact> 0.50764293E+04</totfact>
</mgrwt>
</event>
<event>
 5    1  0.6027538E+000  0.7733146E+02  0.7546771E-02  0.1336800E+00
         -1   -1    0    0    0  501 -0.00000000000E+00  0.00000000000E+00  0.14700815510E+03  0.14700815510E+03  0.00000000000E+00 0.  1.
          1   -1    0    0  501    0  0.00000000000E+00 -0.00000000000E+00 -0.10169765773E+02  0.10169765773E+02  0.00000000000E+00 0. -1.
         23    2    1    2    0    0  0.00000000000E+00  0.00000000000E+00  0.13683838933E+03  0.15717792088E+03  0.77331455542E+02 0.  0.
        -13    1    3    3    0    0 -0.12544208162E+02  0.22511794223E+02  0.98310349903E+01  0.27582372750E+02  0.00000000000E+00 0. -1.
         13    1    3    3    0    0  0.12544208162E+02 -0.22511794223E+02  0.12700735434E+03  0.12959554813E+03  0.00000000000E+00 0.  1.
<mgrwt>
<rscale>  0 0.77331456E+02</rscale>
<asrwt>0</asrwt>
<pdfrwt beam="2">  1        1 0.15645795E-02 0.77331456E+02</pdfrwt>
<pdfrwt beam="1">  1       -1 0.22616638E-01 0.77331456E+02</pdfrwt>
<totfact> 0.11496394E+05</totfact>
</mgrwt>
</event>
<event>
 5    1  0.6027538E+000  0.9142873E+02  0.7546771E-02  0.1299428E+00
         -1   -1    0    0    0  501 -0.00000000000E+00  0.00000000000E+00  0.54360119687E+01  0.54360119687E+01  0.00000000000E+00 0.  1.
          1   -1    0    0  501    0  0.00000000000E+00 -0.00000000000E+00 -0.38443681731E+03  0.38443681731E+03  0.00000000000E+00 0. -1.
         23    2    1    2    0    0  0.00000000000E+00  0.00000000000E+00 -0.37900080534E+03  0.38987282928E+03  0.91428729404E+02 0.  0.
        -13    1    3    3    0    0  0.35095698843E+02  0.29266075685E+02 -0.19488056051E+03  0.20016654098E+03  0.00000000000E+00 0.  1.
         13    1    3    3    0    0 -0.35095698843E+02 -0.29266075685E+02 -0.18412024483E+03  0.18970628830E+03  0.00000000000E+00 0. -1.
<mgrwt>
<rscale>  0 0.91428729E+02</rscale>
<asrwt>0</asrwt>
<pdfrwt beam="2">  1        1 0.59144132E-01 0.91428729E+02</pdfrwt>
<pdfrwt beam="1">  1       -1 0.83630945E-03 0.91428729E+02</pdfrwt>
<totfact> 0.13302342E+05</totfact>
</mgrwt>
</event>
<event>
 4    1  0.6027538E+000  0.4554906E+02  0.7546771E-02  0.1470943E+00
         -1   -1    0    0    0  501 -0.00000000000E+00  0.00000000000E+00  0.11445257870E+03  0.11445257870E+03  0.00000000000E+00 0.  1.
          1   -1    0    0  501    0  0.00000000000E+00 -0.00000000000E+00 -0.45318255131E+01  0.45318255131E+01  0.00000000000E+00 0. -1.
        -13    1    1    2    0    0  0.43997296599E+01  0.19382016519E+02  0.84008856241E+02  0.86327910390E+02  0.00000000000E+00 0.  1.
         13    1    1    2    0    0 -0.43997296599E+01 -0.19382016519E+02  0.25911896941E+02  0.32656493818E+02  0.00000000000E+00 0. -1.
<mgrwt>
<rscale>  0 0.45549056E+02</rscale>
<asrwt>0</asrwt>
<pdfrwt beam="2">  1        1 0.69720401E-03 0.45549056E+02</pdfrwt>
<pdfrwt beam="1">  1       -1 0.17608087E-01 0.45549056E+02</pdfrwt>
<totfact> 0.45741899E+05</totfact>
</mgrwt>
</event>
<event>
 5    1  0.6027538E+000  0.9476639E+02  0.7546771E-02  0.1291703E+00
          4   -1    0    0  501    0  0.00000000000E+00  0.00000000000E+00  0.10412254211E+02  0.10412254211E+02  0.00000000000E+00 0. -1.
         -4   -1    0    0    0  501 -0.00000000000E+00 -0.00000000000E+00 -0.21562737951E+03  0.21562737951E+03  0.00000000000E+00 0.  1.
         23    2    1    2    0    0  0.00000000000E+00  0.00000000000E+00 -0.20521512529E+03  0.22603963372E+03  0.94766388352E+02 0.  0.
        -13    1    3    3    0    0 -0.38090255959E+02  0.61877454545E+01 -0.16819103518E+03  0.17256123582E+03  0.00000000000E+00 0.  1.
         13    1    3    3    0    0  0.38090255959E+02 -0.61877454545E+01 -0.37024090115E+02  0.53478397897E+02  0.00000000000E+00 0. -1.
<mgrwt>
<rscale>  0 0.94766388E+02</rscale>
<asrwt>0</asrwt>
<pdfrwt beam="1">  1        4 0.16018854E-02 0.94766388E+02</pdfrwt>
<pdfrwt beam="2">  1       -4 0.33173440E-01 0.94766388E+02</pdfrwt>
<totfact> 0.18343508E+04</totfact>
</mgrwt>
</event>
<event>
 5    1  0.6027538E+000  0.8502771E+02  0.7546771E-02  0.1315360E+00
          3   -1    0    0  501    0  0.00000000000E+00  0.00000000000E+00  0.43209351595E+02  0.43209351595E+02  0.00000000000E+00 0. -1.
         -3   -1    0    0    0  501 -0.00000000000E+00 -0.00000000000E+00 -0.41829552374E+02  0.41829552374E+02  0.00000000000E+00 0.  1.
         23    2    1    2    0    0  0.00000000000E+00  0.00000000000E+00  0.13797992212E+01  0.85038903968E+02  0.85027709261E+02 0.  0.
        -13    1    3    3    0    0  0.16009694581E+01  0.18921369387E+02 -0.37352544056E+02  0.41902194097E+02  0.00000000000E+00 0.  1.
         13    1    3    3    0    0 -0.16009694581E+01 -0.18921369387E+02  0.38732343278E+02  0.43136709871E+02  0.00000000000E+00 0. -1.
<mgrwt>
<rscale>  0 0.85027709E+02</rscale>
<asrwt>0</asrwt>
<pdfrwt beam="1">  1        3 0.66475926E-02 0.85027709E+02</pdfrwt>
<pdfrwt beam="2">  1       -3 0.64353157E-02 0.85027709E+02</pdfrwt>
<totfact> 0.43284238E+04</totfact>
</mgrwt>
</event>
<event>
 5    1  0.6027538E+000  0.8902400E+02  0.7546771E-02  0.1305233E+00
         -2   -1    0    0    0  501 -0.00000000000E+00  0.00000000000E+00  0.23290787410E+03  0.23290787410E+03  0.00000000000E+00 0.  1.
          2   -1    0    0  501    0  0.00000000000E+00 -0.00000000000E+00 -0.85068755680E+01  0.85068755680E+01  0.00000000000E+00 0. -1.
         23    2    1    2    0    0  0.00000000000E+00  0.00000000000E+00  0.22440099853E+03  0.24141474966E+03  0.89024003589E+02 0.  0.
        -13    1    3    3    0    0 -0.10430648220E+02 -0.35882086959E+02  0.46611195284E+02  0.59740489725E+02  0.00000000000E+00 0. -1.
         13    1    3    3    0    0  0.10430648220E+02  0.35882086959E+02  0.17778980324E+03  0.18167425994E+03  0.00000000000E+00 0.  1.
<mgrwt>
<rscale>  0 0.89024004E+02</rscale>
<asrwt>0</asrwt>
<pdfrwt beam="2">  1        2 0.13087503E-02 0.89024004E+02</pdfrwt>
<pdfrwt beam="1">  1       -2 0.35831976E-01 0.89024004E+02</pdfrwt>
<totfact> 0.61819583E+04</totfact>
</mgrwt>
</event>
<event>
 5    1  0.6027538E+000  0.8891636E+02  0.7546771E-02  0.1305497E+00
         -1   -1    0    0    0  501 -0.00000000000E+00  0.00000000000E+00  0.58511632436E+01  0.58511632436E+01  0.00000000000E+00 0.  1.
          1   -1    0    0  501    0  0.00000000000E+00 -0.00000000000E+00 -0.33780117911E+03  0.33780117911E+03  0.00000000000E+00 0. -1.
         23    2    1    2    0    0  0.00000000000E+00  0.00000000000E+00 -0.33195001586E+03  0.34365234235E+03  0.88916361662E+02 0.  0.
        -13    1    3    3    0    0  0.69070781761E+01 -0.43882034951E+02 -0.15907303544E+03  0.16515923021E+03  0.00000000000E+00 0.  1.
         13    1    3    3    0    0 -0.69070781761E+01  0.43882034951E+02 -0.17287698042E+03  0.17849311214E+03  0.00000000000E+00 0. -1.
<mgrwt>
<rscale>  0 0.88916362E+02</rscale>
<asrwt>0</asrwt>
<pdfrwt beam="2">  1        1 0.51969429E-01 0.88916362E+02</pdfrwt>
<pdfrwt beam="1">  1       -1 0.90017867E-03 0.88916362E+02</pdfrwt>
<totfact> 0.14002266E+05</totfact>
</mgrwt>
</event>
<event>
 5    1  0.6027538E+000  0.9652476E+02  0.7546771E-02  0.1287778E+00
          4   -1    0    0  501    0  0.00000000000E+00  0.00000000000E+00  0.15815229806E+03  0.15815229806E+03  0.00000000000E+00 0. -1.
         -4   -1    0    0    0  501 -0.00000000000E+00 -0.00000000000E+00 -0.14727938342E+02  0.14727938342E+02  0.00000000000E+00 0.  1.
         23    2    1    2    0    0  0.00000000000E+00  0.00000000000E+00  0.14342435972E+03  0.17288023640E+03  0.96524759402E+02 0.  0.
        -13    1    3    3    0    0 -0.33655258703E+02 -0.29909227791E+02  0.40586150990E+02  0.60617439715E+02  0.00000000000E+00 0.  1.
         13    1    3    3    0    0  0.33655258703E+02  0.29909227791E+02  0.10283820873E+03  0.11226279669E+03  0.00000000000E+00 0. -1.
<mgrwt>
<rscale>  0 0.96524759E+02</rscale>
<asrwt>0</asrwt>
<pdfrwt beam="1">  1        4 0.24331122E-01 0.96524759E+02</pdfrwt>
<pdfrwt beam="2">  1       -4 0.22658368E-02 0.96524759E+02</pdfrwt>
<totfact> 0.19355733E+04</totfact>
</mgrwt>
</event>
<event>
 5    1  0.6027538E+000  0.9166643E+02  0.7546771E-02  0.1298866E+00
         -3   -1    0    0    0  501 -0.00000000000E+00  0.00000000000E+00  0.16885337266E+02  0.16885337266E+02  0.00000000000E+00 0.  1.
          3   -1    0    0  501    0  0.00000000000E+00 -0.00000000000E+00 -0.12440875652E+03  0.12440875652E+03  0.00000000000E+00 0. -1.
         23    2    1    2    0    0  0.00000000000E+00  0.00000000000E+00 -0.10752341926E+03  0.14129409379E+03  0.91666434701E+02 0.  0.
        -13    1    3    3    0    0 -0.11307690602E+02 -0.18369860638E+02 -0.11609519886E+03  0.11808222070E+03  0.00000000000E+00 0. -1.
         13    1    3    3    0    0  0.11307690602E+02  0.18369860638E+02  0.85717796059E+01  0.23211873087E+02  0.00000000000E+00 0.  1.
<mgrwt>
<rscale>  0 0.91666435E+02</rscale>
<asrwt>0</asrwt>
<pdfrwt beam="2">  1        3 0.19139809E-01 0.91666435E+02</pdfrwt>
<pdfrwt beam="1">  1       -3 0.25977442E-02 0.91666435E+02</pdfrwt>
<totfact> 0.31388487E+04</totfact>
</mgrwt>
</event>
<event>
 5    1  0.6027538E+000  0.9106922E+02  0.7546771E-02  0.1300283E+00
         -1   -1    0    0    0  501 -0.00000000000E+00  0.00000000000E+00  0.15913724110E+02  0.15913724110E+02  0.00000000000E+00 0.  1.
          1   -1    0    0  501    0  0.00000000000E+00 -0.00000000000E+00 -0.13029009388E+03  0.13029009388E+03  0.00000000000E+00 0. -1.
         23    2    1    2    0    0  0.00000000000E+00  0.00000000000E+00 -0.11437636977E+03  0.14620381799E+03  0.91069217815E+02 0.  0.
        -13    1    3    3    0    0  0.24861631085E+02  0.19721260147E+02 -0.47628232829E+01  0.32089145948E+02  0.00000000000E+00 0.  1.
         13    1    3    3    0    0 -0.24861631085E+02 -0.19721260147E+02 -0.10961354649E+03  0.11411467205E+03  0.00000000000E+00 0. -1.
<mgrwt>
<rscale>  0 0.91069218E+02</rscale>
<asrwt>0</asrwt>
<pdfrwt beam="2">  1        1 0.20044631E-01 0.91069218E+02</pdfrwt>
<pdfrwt beam="1">  1       -1 0.24482652E-02 0.91069218E+02</pdfrwt>
<totfact> 0.10966077E+05</totfact>
</mgrwt>
</event>
<event>
 5    1  0.6027538E+000  0.9170533E+02  0.7546771E-02  0.1298774E+00
          1   -1    0    0  501    0  0.00000000000E+00  0.00000000000E+00  0.16628332712E+03  0.16628332712E+03  0.00000000000E+00 0. -1.
         -1   -1    0    0    0  501 -0.00000000000E+00 -0.00000000000E+00 -0.12643883767E+02  0.12643883767E+02  0.00000000000E+00 0.  1.
         23    2    1    2    0    0  0.00000000000E+00  0.00000000000E+00  0.15363944336E+03  0.17892721089E+03  0.91705333770E+02 0.  0.
        -13    1    3    3    0    0 -0.17373277742E+02  0.26732972956E+02  0.14111714916E+03  0.14467388296E+03  0.00000000000E+00 0. -1.
         13    1    3    3    0    0  0.17373277742E+02 -0.26732972956E+02  0.12522294196E+02  0.34253327933E+02  0.00000000000E+00 0.  1.
<mgrwt>
<rscale>  0 0.91705334E+02</rscale>
<asrwt>0</asrwt>
<pdfrwt beam="1">  1        1 0.25582049E-01 0.91705334E+02</pdfrwt>
<pdfrwt beam="2">  1       -1 0.19452130E-02 0.91705334E+02</pdfrwt>
<totfact> 0.11253345E+05</totfact>
</mgrwt>
</event>
<event>
 5    1  0.6027538E+000  0.9132353E+02  0.7546771E-02  0.1299678E+00
         -2   -1    0    0    0  501 -0.00000000000E+00  0.00000000000E+00  0.43423135788E+02  0.43423135788E+02  0.00000000000E+00 0.  1.
          2   -1    0    0  501    0  0.00000000000E+00 -0.00000000000E+00 -0.48015803463E+02  0.48015803463E+02  0.00000000000E+00 0. -1.
         23    2    1    2    0    0  0.00000000000E+00  0.00000000000E+00 -0.45926676747E+01  0.91438939251E+02  0.91323529361E+02 0.  0.
        -13    1    3    3    0    0 -0.10326113062E+02 -0.39836400083E+02 -0.22105910616E+02  0.46714437455E+02  0.00000000000E+00 0. -1.
         13    1    3    3    0    0  0.10326113062E+02  0.39836400083E+02  0.17513242941E+02  0.44724501796E+02  0.00000000000E+00 0.  1.
<mgrwt>
<rscale>  0 0.91323529E+02</rscale>
<asrwt>0</asrwt>
<pdfrwt beam="2">  1        2 0.73870467E-02 0.91323529E+02</pdfrwt>
<pdfrwt beam="1">  1       -2 0.66804824E-02 0.91323529E+02</pdfrwt>
<totfact> 0.99555318E+04</totfact>
</mgrwt>
</event>
<event>
 5    1  0.6027538E+000  0.8960200E+02  0.7546771E-02  0.1303818E+00
         -1   -1    0    0    0  501 -0.00000000000E+00  0.00000000000E+00  0.10985029990E+02  0.10985029990E+02  0.00000000000E+00 0.  1.
          1   -1    0    0  501    0  0.00000000000E+00 -0.00000000000E+00 -0.18271499479E+03  0.18271499479E+03  0.00000000000E+00 0. -1.
         23    2    1    2    0    0  0.00000000000E+00  0.00000000000E+00 -0.17172996480E+03  0.19370002478E+03  0.89602002152E+02 0.  0.
        -13    1    3    3    0    0 -0.35170332852E+02 -0.22720514487E+02 -0.51414852464E+02  0.66307323467E+02  0.00000000000E+00 0.  1.
         13    1    3    3    0    0  0.35170332852E+02  0.22720514487E+02 -0.12031511233E+03  0.12739270131E+03  0.00000000000E+00 0. -1.
<mgrwt>
<rscale>  0 0.89602002E+02</rscale>
<asrwt>0</asrwt>
<pdfrwt beam="2">  1        1 0.28109999E-01 0.89602002E+02</pdfrwt>
<pdfrwt beam="1">  1       -1 0.16900046E-02 0.89602002E+02</pdfrwt>
<totfact> 0.12192571E+05</totfact>
</mgrwt>
</event>
<event>
 5    1  0.6027538E+000  0.8931371E+02  0.7546771E-02  0.1304522E+00
         -4   -1    0    0    0  501 -0.00000000000E+00  0.00000000000E+00  0.47183256876E+02  0.47183256876E+02  0.00000000000E+00 0.  1.
          4   -1    0    0  501    0  0.00000000000E+00 -0.00000000000E+00 -0.42265724999E+02  0.42265724999E+02  0.00000000000E+00 0. -1.
         23    2    1    2    0    0  0.00000000000E+00  0.00000000000E+00  0.49175318770E+01  0.89448981874E+02  0.89313706891E+02 0.  0.
        -13    1    3    3    0    0 -0.98511427386E+00  0.13056547053E+02  0.45217583576E+02  0.47075192358E+02  0.00000000000E+00 0.  1.
         13    1    3    3    0    0  0.98511427386E+00 -0.13056547053E+02 -0.40300051699E+02  0.42373789517E+02  0.00000000000E+00 0. -1.
<mgrwt>
<rscale>  0 0.89313707E+02</rscale>
<asrwt>0</asrwt>
<pdfrwt beam="2">  1        4 0.65024192E-02 0.89313707E+02</pdfrwt>
<pdfrwt beam="1">  1       -4 0.72589626E-02 0.89313707E+02</pdfrwt>
<totfact> 0.28687478E+04</totfact>
</mgrwt>
</event>
<event>
 5    1  0.6027538E+000  0.9146532E+02  0.7546771E-02  0.1299342E+00
         -2   -1    0    0    0  501 -0.00000000000E+00  0.00000000000E+00  0.16870805195E+02  0.16870805195E+02  0.00000000000E+00 0. -1.
          2   -1    0    0  501    0  0.00000000000E+00 -0.00000000000E+00 -0.12397014139E+03  0.12397014139E+03  0.00000000000E+00 0.  1.
         23    2    1    2    0    0  0.00000000000E+00  0.00000000000E+00 -0.10709933620E+03  0.14084094659E+03  0.91465318137E+02 0.  0.
        -13    1    3    3    0    0 -0.35228837026E+02 -0.22625234654E+02 -0.81880173813E+02  0.91963770393E+02  0.00000000000E+00 0.  1.
         13    1    3    3    0    0  0.35228837026E+02  0.22625234654E+02 -0.25219162383E+02  0.48877176194E+02  0.00000000000E+00 0. -1.
<mgrwt>
<rscale>  0 0.91465318E+02</rscale>
<asrwt>0</asrwt>
<pdfrwt beam="2">  1        2 0.19072329E-01 0.91465318E+02</pdfrwt>
<pdfrwt beam="1">  1       -2 0.25955085E-02 0.91465318E+02</pdfrwt>
<totfact> 0.13010432E+05</totfact>
</mgrwt>
</event>
<event>
 5    1  0.6027538E+000  0.7642194E+02  0.7546771E-02  0.1339523E+00
          1   -1    0    0  501    0  0.00000000000E+00  0.00000000000E+00  0.52577734014E+02  0.52577734014E+02  0.00000000000E+00 0. -1.
         -1   -1    0    0    0  501 -0.00000000000E+00 -0.00000000000E+00 -0.27769899173E+02  0.27769899173E+02  0.00000000000E+00 0.  1.
         23    2    1    2    0    0  0.00000000000E+00  0.00000000000E+00  0.24807834842E+02  0.80347633187E+02  0.76421943767E+02 0.  0.
        -13    1    3    3    0    0 -0.93642178833E+01 -0.12038222764E+02 -0.24431078551E+02  0.28800780945E+02  0.00000000000E+00 0.  1.
         13    1    3    3    0    0  0.93642178833E+01  0.12038222764E+02  0.49238913393E+02  0.51546852241E+02  0.00000000000E+00 0. -1.
<mgrwt>
<rscale>  0 0.76421944E+02</rscale>
<asrwt>0</asrwt>
<pdfrwt beam="1">  1        1 0.80888821E-02 0.76421944E+02</pdfrwt>
<pdfrwt beam="2">  1       -1 0.42722922E-02 0.76421944E+02</pdfrwt>
<totfact> 0.15352244E+05</totfact>
</mgrwt>
</event>
<event>
 5    1  0.6027538E+000  0.8999253E+02  0.7546771E-02  0.1302870E+00
          2   -1    0    0  501    0  0.00000000000E+00  0.00000000000E+00  0.44613768535E+02  0.44613768535E+02  0.00000000000E+00 0. -1.
         -2   -1    0    0    0  501 -0.00000000000E+00 -0.00000000000E+00 -0.45382040101E+02  0.45382040101E+02  0.00000000000E+00 0.  1.
         23    2    1    2    0    0  0.00000000000E+00  0.00000000000E+00 -0.76827156620E+00  0.89995808637E+02  0.89992529306E+02 0.  0.
        -13    1    3    3    0    0  0.18427821424E+02  0.97686417675E+01 -0.40256039731E+02  0.45338280726E+02  0.00000000000E+00 0.  1.
         13    1    3    3    0    0 -0.18427821424E+02 -0.97686417675E+01  0.39487768165E+02  0.44657527910E+02  0.00000000000E+00 0. -1.
<mgrwt>
<rscale>  0 0.89992529E+02</rscale>
<asrwt>0</asrwt>
<pdfrwt beam="1">  1        2 0.68636567E-02 0.89992529E+02</pdfrwt>
<pdfrwt beam="2">  1       -2 0.69818523E-02 0.89992529E+02</pdfrwt>
<totfact> 0.10187216E+05</totfact>
</mgrwt>
</event>
<event>
 5    1  0.6027538E+000  0.8618575E+02  0.7546771E-02  0.1312360E+00
         -2   -1    0    0    0  501 -0.00000000000E+00  0.00000000000E+00  0.13801220895E+02  0.13801220895E+02  0.00000000000E+00 0.  1.
          2   -1    0    0  501    0  0.00000000000E+00 -0.00000000000E+00 -0.13455301443E+03  0.13455301443E+03  0.00000000000E+00 0. -1.
         23    2    1    2    0    0  0.00000000000E+00  0.00000000000E+00 -0.12075179354E+03  0.14835423533E+03  0.86185749964E+02 0.  0.
        -13    1    3    3    0    0  0.38473590580E+02  0.15095276120E+02 -0.39370621772E+02  0.57080034968E+02  0.00000000000E+00 0. -1.
         13    1    3    3    0    0 -0.38473590580E+02 -0.15095276120E+02 -0.81381171765E+02  0.91274200358E+02  0.00000000000E+00 0.  1.
<mgrwt>
<rscale>  0 0.86185750E+02</rscale>
<asrwt>0</asrwt>
<pdfrwt beam="2">  1        2 0.20700463E-01 0.86185750E+02</pdfrwt>
<pdfrwt beam="1">  1       -2 0.21232648E-02 0.86185750E+02</pdfrwt>
<totfact> 0.15703098E+05</totfact>
</mgrwt>
</event>
<event>
 5    1  0.6027538E+000  0.9037199E+02  0.7546771E-02  0.1301953E+00
          2   -1    0    0  501    0  0.00000000000E+00  0.00000000000E+00  0.20374393083E+02  0.20374393083E+02  0.00000000000E+00 0. -1.
         -2   -1    0    0    0  501 -0.00000000000E+00 -0.00000000000E+00 -0.10021274999E+03  0.10021274999E+03  0.00000000000E+00 0.  1.
         23    2    1    2    0    0  0.00000000000E+00  0.00000000000E+00 -0.79838356903E+02  0.12058714307E+03  0.90371985928E+02 0.  0.
        -13    1    3    3    0    0  0.17513989628E+02  0.36797306452E+02 -0.65964235707E+02  0.77537487626E+02  0.00000000000E+00 0.  1.
         13    1    3    3    0    0 -0.17513989628E+02 -0.36797306452E+02 -0.13874121196E+02  0.43049655443E+02  0.00000000000E+00 0. -1.
<mgrwt>
<rscale>  0 0.90371986E+02</rscale>
<asrwt>0</asrwt>
<pdfrwt beam="1">  1        2 0.31345220E-02 0.90371986E+02</pdfrwt>
<pdfrwt beam="2">  1       -2 0.15417346E-01 0.90371986E+02</pdfrwt>
<totfact> 0.81533938E+04</totfact>
</mgrwt>
</event>
<event>
 5    1  0.6027538E+000  0.8825360E+02  0.7546771E-02  0.1307137E+00
          2   -1    0    0  501    0  0.00000000000E+00  0.00000000000E+00  0.47587751440E+02  0.47587751440E+02  0.00000000000E+00 0.  1.
         -2   -1    0    0    0  501 -0.00000000000E+00 -0.00000000000E+00 -0.40917554391E+02  0.40917554391E+02  0.00000000000E+00 0. -1.
         23    2    1    2    0    0  0.00000000000E+00  0.00000000000E+00  0.66701970486E+01  0.88505305831E+02  0.88253598406E+02 0.  0.
        -13    1    3    3    0    0 -0.10245048472E+02  0.41797778493E+01  0.46173940255E+02  0.47481199645E+02  0.00000000000E+00 0.  1.
         13    1    3    3    0    0  0.10245048472E+02 -0.41797778493E+01 -0.39503743206E+02  0.41024106186E+02  0.00000000000E+00 0. -1.
<mgrwt>
<rscale>  0 0.88253598E+02</rscale>
<asrwt>0</asrwt>
<pdfrwt beam="1">  1        2 0.73211925E-02 0.88253598E+02</pdfrwt>
<pdfrwt beam="2">  1       -2 0.62950084E-02 0.88253598E+02</pdfrwt>
<totfact> 0.10949196E+05</totfact>
</mgrwt>
</event>
<event>
 5    1  0.6027538E+000  0.9285814E+02  0.7546771E-02  0.1296074E+00
         -1   -1    0    0    0  501 -0.00000000000E+00  0.00000000000E+00  0.60472567256E+01  0.60472567256E+01  0.00000000000E+00 0.  1.
          1   -1    0    0  501    0  0.00000000000E+00 -0.00000000000E+00 -0.35646885933E+03  0.35646885933E+03  0.00000000000E+00 0. -1.
         23    2    1    2    0    0  0.00000000000E+00  0.00000000000E+00 -0.35042160261E+03  0.36251611606E+03  0.92858143576E+02 0.  0.
        -13    1    3    3    0    0 -0.19436705754E+02 -0.39715553772E+02 -0.11992463813E+03  0.12781639008E+03  0.00000000000E+00 0.  1.
         13    1    3    3    0    0  0.19436705754E+02  0.39715553772E+02 -0.23049696448E+03  0.23469972598E+03  0.00000000000E+00 0. -1.
<mgrwt>
<rscale>  0 0.92858144E+02</rscale>
<asrwt>0</asrwt>
<pdfrwt beam="2">  1        1 0.54841354E-01 0.92858144E+02</pdfrwt>
<pdfrwt beam="1">  1       -1 0.93034734E-03 0.92858144E+02</pdfrwt>
<totfact> 0.12598164E+05</totfact>
</mgrwt>
</event>
<event>
 5    1  0.6027538E+000  0.8881522E+02  0.7546771E-02  0.1305746E+00
         -3   -1    0    0    0  501 -0.00000000000E+00  0.00000000000E+00  0.25624014954E+02  0.25624014954E+02  0.00000000000E+00 0.  1.
          3   -1    0    0  501    0  0.00000000000E+00 -0.00000000000E+00 -0.76960460979E+02  0.76960460979E+02  0.00000000000E+00 0. -1.
         23    2    1    2    0    0  0.00000000000E+00  0.00000000000E+00 -0.51336446025E+02  0.10258447593E+03  0.88815223987E+02 0.  0.
        -13    1    3    3    0    0  0.30176106012E+02  0.32157110177E+02 -0.19626740862E+02  0.48268893357E+02  0.00000000000E+00 0.  1.
         13    1    3    3    0    0 -0.30176106012E+02 -0.32157110177E+02 -0.31709705163E+02  0.54315582576E+02  0.00000000000E+00 0. -1.
<mgrwt>
<rscale>  0 0.88815224E+02</rscale>
<asrwt>0</asrwt>
<pdfrwt beam="2">  1        3 0.11840071E-01 0.88815224E+02</pdfrwt>
<pdfrwt beam="1">  1       -3 0.39421562E-02 0.88815224E+02</pdfrwt>
<totfact> 0.37024394E+04</totfact>
</mgrwt>
</event>
<event>
 5    1  0.6027538E+000  0.8647703E+02  0.7546771E-02  0.1311615E+00
          4   -1    0    0  501    0  0.00000000000E+00  0.00000000000E+00  0.19773516165E+03  0.19773516165E+03  0.00000000000E+00 0.  1.
         -4   -1    0    0    0  501 -0.00000000000E+00 -0.00000000000E+00 -0.94549144147E+01  0.94549144147E+01  0.00000000000E+00 0. -1.
         23    2    1    2    0    0  0.00000000000E+00  0.00000000000E+00  0.18828024724E+03  0.20719007607E+03  0.86477026550E+02 0.  0.
        -13    1    3    3    0    0  0.46822788979E+01 -0.40955967979E+02  0.12540212947E+03  0.13200382238E+03  0.00000000000E+00 0.  1.
         13    1    3    3    0    0 -0.46822788979E+01  0.40955967979E+02  0.62878117773E+02  0.75186253687E+02  0.00000000000E+00 0. -1.
<mgrwt>
<rscale>  0 0.86477027E+02</rscale>
<asrwt>0</asrwt>
<pdfrwt beam="1">  1        4 0.30420791E-01 0.86477027E+02</pdfrwt>
<pdfrwt beam="2">  1       -4 0.14546024E-02 0.86477027E+02</pdfrwt>
<totfact> 0.24279390E+04</totfact>
</mgrwt>
</event>
<event>
 5    1  0.6027538E+000  0.9536586E+02  0.7546771E-02  0.1290354E+00
         -1   -1    0    0    0  501 -0.00000000000E+00  0.00000000000E+00  0.59980606572E+01  0.59980606572E+01  0.00000000000E+00 0.  1.
          1   -1    0    0  501    0  0.00000000000E+00 -0.00000000000E+00 -0.37906616898E+03  0.37906616898E+03  0.00000000000E+00 0. -1.
         23    2    1    2    0    0  0.00000000000E+00  0.00000000000E+00 -0.37306810832E+03  0.38506422963E+03  0.95365861284E+02 0.  0.
        -13    1    3    3    0    0 -0.27426595966E+02 -0.35446252048E+02 -0.25226484419E+03  0.25621515678E+03  0.00000000000E+00 0.  1.
         13    1    3    3    0    0  0.27426595966E+02  0.35446252048E+02 -0.12080326413E+03  0.12884907285E+03  0.00000000000E+00 0. -1.
<mgrwt>
<rscale>  0 0.95365861E+02</rscale>
<asrwt>0</asrwt>
<pdfrwt beam="2">  1        1 0.58317880E-01 0.95365861E+02</pdfrwt>
<pdfrwt beam="1">  1       -1 0.92277843E-03 0.95365861E+02</pdfrwt>
<totfact> 0.11860477E+05</totfact>
</mgrwt>
</event>
<event>
 5    1  0.6027538E+000  0.9331997E+02  0.7546771E-02  0.1295005E+00
         -4   -1    0    0    0  501 -0.00000000000E+00  0.00000000000E+00  0.21375239352E+02  0.21375239352E+02  0.00000000000E+00 0.  1.
          4   -1    0    0  501    0  0.00000000000E+00 -0.00000000000E+00 -0.10185403319E+03  0.10185403319E+03  0.00000000000E+00 0. -1.
         23    2    1    2    0    0  0.00000000000E+00  0.00000000000E+00 -0.80478793839E+02  0.12322927254E+03  0.93319972962E+02 0.  0.
        -13    1    3    3    0    0  0.59327031123E+01 -0.16250271790E+02  0.16984034526E+02  0.24243055258E+02  0.00000000000E+00 0.  1.
         13    1    3    3    0    0 -0.59327031123E+01  0.16250271790E+02 -0.97462828364E+02  0.98986217284E+02  0.00000000000E+00 0. -1.
<mgrwt>
<rscale>  0 0.93319973E+02</rscale>
<asrwt>0</asrwt>
<pdfrwt beam="2">  1        4 0.15669852E-01 0.93319973E+02</pdfrwt>
<pdfrwt beam="1">  1       -4 0.32884983E-02 0.93319973E+02</pdfrwt>
<totfact> 0.23559932E+04</totfact>
</mgrwt>
</event>
<event>
 5    1  0.6027538E+000  0.9126800E+02  0.7546771E-02  0.1299810E+00
         -3   -1    0    0    0  501 -0.00000000000E+00  0.00000000000E+00  0.14698593497E+03  0.14698593497E+03  0.00000000000E+00 0.  1.
          3   -1    0    0  501    0  0.00000000000E+00 -0.00000000000E+00 -0.14167764364E+02  0.14167764364E+02  0.00000000000E+00 0. -1.
         23    2    1    2    0    0  0.00000000000E+00  0.00000000000E+00  0.13281817060E+03  0.16115369933E+03  0.91268002970E+02 0.  0.
        -13    1    3    3    0    0 -0.50756419106E+01  0.35199625686E+02  0.11690021558E+03  0.12219016405E+03  0.00000000000E+00 0.  1.
         13    1    3    3    0    0  0.50756419106E+01 -0.35199625686E+02  0.15917955025E+02  0.38963535279E+02  0.00000000000E+00 0. -1.
<mgrwt>
<rscale>  0 0.91268003E+02</rscale>
<asrwt>0</asrwt>
<pdfrwt beam="2">  1        3 0.21796562E-02 0.91268003E+02</pdfrwt>
<pdfrwt beam="1">  1       -3 0.22613220E-01 0.91268003E+02</pdfrwt>
<totfact> 0.30556136E+04</totfact>
</mgrwt>
</event>
<event>
 5    1  0.6027538E+000  0.9142068E+02  0.7546771E-02  0.1299447E+00
         -3   -1    0    0    0  501 -0.00000000000E+00  0.00000000000E+00  0.25331636176E+02  0.25331636176E+02  0.00000000000E+00 0.  1.
          3   -1    0    0  501    0  0.00000000000E+00 -0.00000000000E+00 -0.82483230500E+02  0.82483230500E+02  0.00000000000E+00 0. -1.
         23    2    1    2    0    0  0.00000000000E+00  0.00000000000E+00 -0.57151594324E+02  0.10781486668E+03  0.91420680060E+02 0.  0.
        -13    1    3    3    0    0 -0.40796376564E+02  0.23799266306E+01 -0.52728308134E+02  0.66710440489E+02  0.00000000000E+00 0. -1.
         13    1    3    3    0    0  0.40796376564E+02 -0.23799266306E+01 -0.44232861895E+01  0.41104426187E+02  0.00000000000E+00 0.  1.
<mgrwt>
<rscale>  0 0.91420680E+02</rscale>
<asrwt>0</asrwt>
<pdfrwt beam="2">  1        3 0.12689728E-01 0.91420680E+02</pdfrwt>
<pdfrwt beam="1">  1       -3 0.38971748E-02 0.91420680E+02</pdfrwt>
<totfact> 0.33853918E+04</totfact>
</mgrwt>
</event>
<event>
 5    1  0.6027538E+000  0.9057426E+02  0.7546771E-02  0.1301467E+00
         -1   -1    0    0    0  501 -0.00000000000E+00  0.00000000000E+00  0.23762551623E+02  0.23762551623E+02  0.00000000000E+00 0.  1.
          1   -1    0    0  501    0  0.00000000000E+00 -0.00000000000E+00 -0.86309080492E+02  0.86309080492E+02  0.00000000000E+00 0. -1.
         23    2    1    2    0    0  0.00000000000E+00  0.00000000000E+00 -0.62546528869E+02  0.11007163212E+03  0.90574256403E+02 0.  0.
        -13    1    3    3    0    0  0.16864009095E+01 -0.34820049812E+02  0.38569920912E+01  0.35073582721E+02  0.00000000000E+00 0.  1.
         13    1    3    3    0    0 -0.16864009095E+01  0.34820049812E+02 -0.66403520960E+02  0.74998049394E+02  0.00000000000E+00 0. -1.
<mgrwt>
<rscale>  0 0.90574256E+02</rscale>
<asrwt>0</asrwt>
<pdfrwt beam="2">  1        1 0.13278320E-01 0.90574256E+02</pdfrwt>
<pdfrwt beam="1">  1       -1 0.36557772E-02 0.90574256E+02</pdfrwt>
<totfact> 0.10383533E+05</totfact>
</mgrwt>
</event>
<event>
 5    1  0.6027538E+000  0.9328248E+02  0.7546771E-02  0.1295092E+00
          1   -1    0    0  501    0  0.00000000000E+00  0.00000000000E+00  0.25007100960E+02  0.25007100960E+02  0.00000000000E+00 0. -1.
         -1   -1    0    0    0  501 -0.00000000000E+00 -0.00000000000E+00 -0.86991493329E+02  0.86991493329E+02  0.00000000000E+00 0.  1.
         23    2    1    2    0    0  0.00000000000E+00  0.00000000000E+00 -0.61984392369E+02  0.11199859429E+03  0.93282475446E+02 0.  0.
        -13    1    3    3    0    0  0.26950336598E+02 -0.91302801857E+01 -0.75362635139E+02  0.80555629438E+02  0.00000000000E+00 0.  1.
         13    1    3    3    0    0 -0.26950336598E+02  0.91302801857E+01  0.13378242770E+02  0.31442964851E+02  0.00000000000E+00 0. -1.
<mgrwt>
<rscale>  0 0.93282475E+02</rscale>
<asrwt>0</asrwt>
<pdfrwt beam="1">  1        1 0.38472463E-02 0.93282475E+02</pdfrwt>
<pdfrwt beam="2">  1       -1 0.13383307E-01 0.93282475E+02</pdfrwt>
<totfact> 0.78686563E+04</totfact>
</mgrwt>
</event>
<event>
 5    1  0.6027538E+000  0.9042294E+02  0.7546771E-02  0.1301831E+00
         -1   -1    0    0    0  501 -0.00000000000E+00  0.00000000000E+00  0.34925537826E+02  0.34925537826E+02  0.00000000000E+00 0.  1.
          1   -1    0    0  501    0  0.00000000000E+00 -0.00000000000E+00 -0.58526714102E+02  0.58526714102E+02  0.00000000000E+00 0. -1.
         23    2    1    2    0    0  0.00000000000E+00  0.00000000000E+00 -0.23601176276E+02  0.93452251928E+02  0.90422938842E+02 0.  0.
        -13    1    3    3    0    0 -0.69911075510E+01  0.85652835015E+01  0.33506845425E+02  0.35283825708E+02  0.00000000000E+00 0.  1.
         13    1    3    3    0    0  0.69911075510E+01 -0.85652835015E+01 -0.57108021701E+02  0.58168426220E+02  0.00000000000E+00 0. -1.
<mgrwt>
<rscale>  0 0.90422939E+02</rscale>
<asrwt>0</asrwt>
<pdfrwt beam="2">  1        1 0.90041099E-02 0.90422939E+02</pdfrwt>
<pdfrwt beam="1">  1       -1 0.53731596E-02 0.90422939E+02</pdfrwt>
<totfact> 0.98245935E+04</totfact>
</mgrwt>
</event>
<event>
 5    1  0.6027538E+000  0.9111426E+02  0.7546771E-02  0.1300176E+00
          1   -1    0    0  501    0  0.00000000000E+00  0.00000000000E+00  0.10265686252E+03  0.10265686252E+03  0.00000000000E+00 0. -1.
         -1   -1    0    0    0  501 -0.00000000000E+00 -0.00000000000E+00 -0.20217371425E+02  0.20217371425E+02  0.00000000000E+00 0.  1.
         23    2    1    2    0    0  0.00000000000E+00  0.00000000000E+00  0.82439491097E+02  0.12287423395E+03  0.91114256161E+02 0.  0.
        -13    1    3    3    0    0 -0.37416318620E+02 -0.10700862004E+02  0.73160225088E+02  0.82866808082E+02  0.00000000000E+00 0. -1.
         13    1    3    3    0    0  0.37416318620E+02  0.10700862004E+02  0.92792660088E+01  0.40007425865E+02  0.00000000000E+00 0.  1.
<mgrwt>
<rscale>  0 0.91114256E+02</rscale>
<asrwt>0</asrwt>
<pdfrwt beam="1">  1        1 0.15793363E-01 0.91114256E+02</pdfrwt>
<pdfrwt beam="2">  1       -1 0.31103649E-02 0.91114256E+02</pdfrwt>
<totfact> 0.10510614E+05</totfact>
</mgrwt>
</event>
<event>
 5    1  0.6027538E+000  0.9110916E+02  0.7546771E-02  0.1300188E+00
          1   -1    0    0  501    0  0.00000000000E+00  0.00000000000E+00  0.41650727591E+02  0.41650727591E+02  0.00000000000E+00 0. -1.
         -1   -1    0    0    0  501 -0.00000000000E+00 -0.00000000000E+00 -0.49824333730E+02  0.49824333730E+02  0.00000000000E+00 0.  1.
         23    2    1    2    0    0  0.00000000000E+00  0.00000000000E+00 -0.81736061394E+01  0.91475061321E+02  0.91109159838E+02 0.  0.
        -13    1    3    3    0    0 -0.29936349555E+02  0.14561763093E+02 -0.35308148197E+02  0.48527263453E+02  0.00000000000E+00 0.  1.
         13    1    3    3    0    0  0.29936349555E+02 -0.14561763093E+02  0.27134542058E+02  0.42947797869E+02  0.00000000000E+00 0. -1.
<mgrwt>
<rscale>  0 0.91109160E+02</rscale>
<asrwt>0</asrwt>
<pdfrwt beam="1">  1        1 0.64078043E-02 0.91109160E+02</pdfrwt>
<pdfrwt beam="2">  1       -1 0.76652821E-02 0.91109160E+02</pdfrwt>
<totfact> 0.91412677E+04</totfact>
</mgrwt>
</event>
<event>
 5    1  0.6027538E+000  0.9632128E+02  0.7546771E-02  0.1288228E+00
          2   -1    0    0  501    0  0.00000000000E+00  0.00000000000E+00  0.18763104408E+03  0.18763104408E+03  0.00000000000E+00 0.  1.
         -2   -1    0    0    0  501 -0.00000000000E+00 -0.00000000000E+00 -0.12361745419E+02  0.12361745419E+02  0.00000000000E+00 0. -1.
         23    2    1    2    0    0  0.00000000000E+00  0.00000000000E+00  0.17526929866E+03  0.19999278950E+03  0.96321279055E+02 0.  0.
        -13    1    3    3    0    0  0.27989793129E+02  0.12470458316E+02  0.16478027423E+03  0.16760513007E+03  0.00000000000E+00 0.  1.
         13    1    3    3    0    0 -0.27989793129E+02 -0.12470458316E+02  0.10489024433E+02  0.32387659433E+02  0.00000000000E+00 0. -1.
<mgrwt>
<rscale>  0 0.96321279E+02</rscale>
<asrwt>0</asrwt>
<pdfrwt beam="1">  1        2 0.28866312E-01 0.96321279E+02</pdfrwt>
<pdfrwt beam="2">  1       -2 0.19018071E-02 0.96321279E+02</pdfrwt>
<totfact> 0.13029104E+05</totfact>
</mgrwt>
</event>
<event>
 5    1  0.6027538E+000  0.8541263E+02  0.7546771E-02  0.1314357E+00
          2   -1    0    0  501    0  0.00000000000E+00  0.00000000000E+00  0.35127069411E+02  0.35127069411E+02  0.00000000000E+00 0. -1.
         -2   -1    0    0    0  501 -0.00000000000E+00 -0.00000000000E+00 -0.51920912154E+02  0.51920912154E+02  0.00000000000E+00 0.  1.
         23    2    1    2    0    0  0.00000000000E+00  0.00000000000E+00 -0.16793842743E+02  0.87047981565E+02  0.85412633377E+02 0.  0.
        -13    1    3    3    0    0 -0.16436799159E+02  0.24622479621E+02  0.22972177968E+02  0.37472067328E+02  0.00000000000E+00 0. -1.
         13    1    3    3    0    0  0.16436799159E+02 -0.24622479621E+02 -0.39766020711E+02  0.49575914237E+02  0.00000000000E+00 0.  1.
<mgrwt>
<rscale>  0 0.85412633E+02</rscale>
<asrwt>0</asrwt>
<pdfrwt beam="1">  1        2 0.54041645E-02 0.85412633E+02</pdfrwt>
<pdfrwt beam="2">  1       -2 0.79878326E-02 0.85412633E+02</pdfrwt>
<totfact> 0.11147429E+05</totfact>
</mgrwt>
</event>
<event>
 5    1  0.6027538E+000  0.9196198E+02  0.7546771E-02  0.1298169E+00
          1   -1    0    0  501    0  0.00000000000E+00  0.00000000000E+00  0.19950385371E+02  0.19950385371E+02  0.00000000000E+00 0. -1.
         -1   -1    0    0    0  501 -0.00000000000E+00 -0.00000000000E+00 -0.10597547270E+03  0.10597547270E+03  0.00000000000E+00 0.  1.
         23    2    1    2    0    0  0.00000000000E+00  0.00000000000E+00 -0.86025087333E+02  0.12592585807E+03  0.91961981716E+02 0.  0.
        -13    1    3    3    0    0  0.64946466848E+01  0.33111501020E+02 -0.85785045890E+02  0.92182569034E+02  0.00000000000E+00 0.  1.
         13    1    3    3    0    0 -0.64946466848E+01 -0.33111501020E+02 -0.24004144300E+00  0.33743289040E+02  0.00000000000E+00 0. -1.
<mgrwt>
<rscale>  0 0.91961982E+02</rscale>
<asrwt>0</asrwt>
<pdfrwt beam="1">  1        1 0.30692900E-02 0.91961982E+02</pdfrwt>
<pdfrwt beam="2">  1       -1 0.16303919E-01 0.91961982E+02</pdfrwt>
<totfact> 0.78722715E+04</totfact>
</mgrwt>
</event>
<event>
 5    1  0.6027538E+000  0.9303881E+02  0.7546771E-02  0.1295655E+00
          2   -1    0    0  501    0  0.00000000000E+00  0.00000000000E+00  0.15708502512E+03  0.15708502512E+03  0.00000000000E+00 0. -1.
         -2   -1    0    0    0  501 -0.00000000000E+00 -0.00000000000E+00 -0.13776329302E+02  0.13776329302E+02  0.00000000000E+00 0.  1.
         23    2    1    2    0    0  0.00000000000E+00  0.00000000000E+00  0.14330869582E+03  0.17086135442E+03  0.93038809848E+02 0.  0.
        -13    1    3    3    0    0  0.21935431055E+02 -0.40604032175E+02  0.60913931206E+02  0.76422232232E+02  0.00000000000E+00 0.  1.
         13    1    3    3    0    0 -0.21935431055E+02  0.40604032175E+02  0.82394764613E+02  0.94439122190E+02  0.00000000000E+00 0. -1.
<mgrwt>
<rscale>  0 0.93038810E+02</rscale>
<asrwt>0</asrwt>
<pdfrwt beam="1">  1        2 0.24166926E-01 0.93038810E+02</pdfrwt>
<pdfrwt beam="2">  1       -2 0.21194354E-02 0.93038810E+02</pdfrwt>
<totfact> 0.13444522E+05</totfact>
</mgrwt>
</event>
<event>
 5    1  0.6027538E+000  0.9464096E+02  0.7546771E-02  0.1291987E+00
          1   -1    0    0  501    0  0.00000000000E+00  0.00000000000E+00  0.64770352390E+02  0.64770352390E+02  0.00000000000E+00 0. -1.
         -1   -1    0    0    0  501 -0.00000000000E+00 -0.00000000000E+00 -0.34571802566E+02  0.34571802566E+02  0.00000000000E+00 0.  1.
         23    2    1    2    0    0  0.00000000000E+00  0.00000000000E+00  0.30198549824E+02  0.99342154956E+02  0.94640960159E+02 0.  0.
        -13    1    3    3    0    0 -0.30491996543E+01 -0.35398851108E+02 -0.17707891788E+02  0.39698182702E+02  0.00000000000E+00 0.  1.
         13    1    3    3    0    0  0.30491996543E+01  0.35398851108E+02  0.47906441611E+02  0.59643972254E+02  0.00000000000E+00 0. -1.
<mgrwt>
<rscale>  0 0.94640960E+02</rscale>
<asrwt>0</asrwt>
<pdfrwt beam="1">  1        1 0.99646696E-02 0.94640960E+02</pdfrwt>
<pdfrwt beam="2">  1       -1 0.53187389E-02 0.94640960E+02</pdfrwt>
<totfact> 0.87911250E+04</totfact>
</mgrwt>
</event>
<event>
 5    1  0.6027538E+000  0.9186807E+02  0.7546771E-02  0.1298390E+00
          1   -1    0    0  501    0  0.00000000000E+00  0.00000000000E+00  0.18092853727E+02  0.18092853727E+02  0.00000000000E+00 0. -1.
         -1   -1    0    0    0  501 -0.00000000000E+00 -0.00000000000E+00 -0.11661707728E+03  0.11661707728E+03  0.00000000000E+00 0.  1.
         23    2    1    2    0    0  0.00000000000E+00  0.00000000000E+00 -0.98524223550E+02  0.13470993100E+03  0.91868073263E+02 0.  0.
        -13    1    3    3    0    0 -0.26891642122E+02 -0.37211671263E+02 -0.47154031816E+02  0.65813156820E+02  0.00000000000E+00 0.  1.
         13    1    3    3    0    0  0.26891642122E+02  0.37211671263E+02 -0.51370191735E+02  0.68896774184E+02  0.00000000000E+00 0. -1.
<mgrwt>
<rscale>  0 0.91868073E+02</rscale>
<asrwt>0</asrwt>
<pdfrwt beam="1">  1        1 0.27835160E-02 0.91868073E+02</pdfrwt>
<pdfrwt beam="2">  1       -1 0.17941089E-01 0.91868073E+02</pdfrwt>
<totfact> 0.77459527E+04</totfact>
</mgrwt>
</event>
<event>
 5    1  0.6027538E+000  0.9175751E+02  0.7546771E-02  0.1298651E+00
         -2   -1    0    0    0  501 -0.00000000000E+00  0.00000000000E+00  0.11101495436E+02  0.11101495436E+02  0.00000000000E+00 0.  1.
          2   -1    0    0  501    0  0.00000000000E+00 -0.00000000000E+00 -0.18960149393E+03  0.18960149393E+03  0.00000000000E+00 0. -1.
         23    2    1    2    0    0  0.00000000000E+00  0.00000000000E+00 -0.17849999850E+03  0.20070298937E+03  0.91757509111E+02 0.  0.
        -13    1    3    3    0    0  0.43757980296E+01 -0.29324684465E+02 -0.12669591415E+02  0.32242879431E+02  0.00000000000E+00 0.  1.
         13    1    3    3    0    0 -0.43757980296E+01  0.29324684465E+02 -0.16583040708E+03  0.16846010994E+03  0.00000000000E+00 0. -1.
<mgrwt>
<rscale>  0 0.91757509E+02</rscale>
<asrwt>0</asrwt>
<pdfrwt beam="2">  1        2 0.29169458E-01 0.91757509E+02</pdfrwt>
<pdfrwt beam="1">  1       -2 0.17079225E-02 0.91757509E+02</pdfrwt>
<totfact> 0.14915624E+05</totfact>
</mgrwt>
</event>
<event>
 5    1  0.6027538E+000  0.9082077E+02  0.7546771E-02  0.1300876E+00
         -1   -1    0    0    0  501 -0.00000000000E+00  0.00000000000E+00  0.66589587401E+02  0.66589587401E+02  0.00000000000E+00 0.  1.
          1   -1    0    0  501    0  0.00000000000E+00 -0.00000000000E+00 -0.30967346806E+02  0.30967346806E+02  0.00000000000E+00 0. -1.
         23    2    1    2    0    0  0.00000000000E+00  0.00000000000E+00  0.35622240595E+02  0.97556934208E+02  0.90820765175E+02 0.  0.
        -13    1    3    3    0    0  0.15583817709E+02 -0.37116176722E+02  0.40384971740E+02  0.57021153016E+02  0.00000000000E+00 0. -1.
         13    1    3    3    0    0 -0.15583817709E+02  0.37116176722E+02 -0.47627311445E+01  0.40535781192E+02  0.00000000000E+00 0.  1.
<mgrwt>
<rscale>  0 0.90820765E+02</rscale>
<asrwt>0</asrwt>
<pdfrwt beam="2">  1        1 0.47642072E-02 0.90820765E+02</pdfrwt>
<pdfrwt beam="1">  1       -1 0.10244552E-01 0.90820765E+02</pdfrwt>
<totfact> 0.88109284E+04</totfact>
</mgrwt>
</event>
<event>
 5    1  0.6027538E+000  0.9244638E+02  0.7546771E-02  0.1297033E+00
         -3   -1    0    0    0  501 -0.00000000000E+00  0.00000000000E+00  0.16791917774E+02  0.16791917774E+02  0.00000000000E+00 0.  1.
          3   -1    0    0  501    0  0.00000000000E+00 -0.00000000000E+00 -0.12723879130E+03  0.12723879130E+03  0.00000000000E+00 0. -1.
         23    2    1    2    0    0  0.00000000000E+00  0.00000000000E+00 -0.11044687353E+03  0.14403070908E+03  0.92446380594E+02 0.  0.
        -13    1    3    3    0    0  0.19812304949E+02  0.36769506177E+02 -0.24374438121E+02  0.48359458698E+02  0.00000000000E+00 0.  1.
         13    1    3    3    0    0 -0.19812304949E+02 -0.36769506177E+02 -0.86072435409E+02  0.95671250379E+02  0.00000000000E+00 0. -1.
<mgrwt>
<rscale>  0 0.92446381E+02</rscale>
<asrwt>0</asrwt>
<pdfrwt beam="2">  1        3 0.19575199E-01 0.92446381E+02</pdfrwt>
<pdfrwt beam="1">  1       -3 0.25833719E-02 0.92446381E+02</pdfrwt>
<totfact> 0.30508733E+04</totfact>
</mgrwt>
</event>
<event>
 5    1  0.6027538E+000  0.9320931E+02  0.7546771E-02  0.1295261E+00
         -2   -1    0    0    0  501 -0.00000000000E+00  0.00000000000E+00  0.23387871264E+02  0.23387871264E+02  0.00000000000E+00 0.  1.
          2   -1    0    0  501    0  0.00000000000E+00 -0.00000000000E+00 -0.92868390687E+02  0.92868390687E+02  0.00000000000E+00 0. -1.
         23    2    1    2    0    0  0.00000000000E+00  0.00000000000E+00 -0.69480519423E+02  0.11625626195E+03  0.93209312108E+02 0.  0.
        -13    1    3    3    0    0 -0.14807562880E+02 -0.11324430356E+02 -0.88015752695E+02  0.89968213075E+02  0.00000000000E+00 0. -1.
         13    1    3    3    0    0  0.14807562880E+02  0.11324430356E+02  0.18535233272E+02  0.26288048877E+02  0.00000000000E+00 0.  1.
<mgrwt>
<rscale>  0 0.93209312E+02</rscale>
<asrwt>0</asrwt>
<pdfrwt beam="2">  1        2 0.14287445E-01 0.93209312E+02</pdfrwt>
<pdfrwt beam="1">  1       -2 0.35981341E-02 0.93209312E+02</pdfrwt>
<totfact> 0.11286788E+05</totfact>
</mgrwt>
</event>
<event>
 5    1  0.6027538E+000  0.1079754E+03  0.7546771E-02  0.1264366E+00
         -1   -1    0    0    0  501 -0.00000000000E+00  0.00000000000E+00  0.78257228057E+01  0.78257228057E+01  0.00000000000E+00 0.  1.
          1   -1    0    0  501    0  0.00000000000E+00 -0.00000000000E+00 -0.37244730742E+03  0.37244730742E+03  0.00000000000E+00 0. -1.
         23    2    1    2    0    0  0.00000000000E+00  0.00000000000E+00 -0.36462158461E+03  0.38027303022E+03  0.10797535622E+03 0.  0.
        -13    1    3    3    0    0 -0.41889830066E+02 -0.26958001593E+02 -0.25561078187E+03  0.26041959127E+03  0.00000000000E+00 0.  1.
         13    1    3    3    0    0  0.41889830066E+02  0.26958001593E+02 -0.10901080275E+03  0.11985343895E+03  0.00000000000E+00 0. -1.
<mgrwt>
<rscale>  0 0.10797536E+03</rscale>
<asrwt>0</asrwt>
<pdfrwt beam="2">  1        1 0.57299604E-01 0.10797536E+03</pdfrwt>
<pdfrwt beam="1">  1       -1 0.12039570E-02 0.10797536E+03</pdfrwt>
<totfact> 0.84700338E+04</totfact>
</mgrwt>
</event>
<event>
 5    1  0.6027538E+000  0.9306412E+02  0.7546771E-02  0.1295597E+00
          1   -1    0    0  501    0  0.00000000000E+00  0.00000000000E+00  0.18985624414E+02  0.18985624414E+02  0.00000000000E+00 0. -1.
         -1   -1    0    0    0  501 -0.00000000000E+00 -0.00000000000E+00 -0.11404590957E+03  0.11404590957E+03  0.00000000000E+00 0.  1.
         23    2    1    2    0    0  0.00000000000E+00  0.00000000000E+00 -0.95060285155E+02  0.13303153398E+03  0.93064124239E+02 0.  0.
        -13    1    3    3    0    0  0.14519117454E+02  0.22477399231E+02 -0.10194727486E+03  0.10540059345E+03  0.00000000000E+00 0.  1.
         13    1    3    3    0    0 -0.14519117454E+02 -0.22477399231E+02  0.68869897025E+01  0.27630940538E+02  0.00000000000E+00 0. -1.
<mgrwt>
<rscale>  0 0.93064124E+02</rscale>
<asrwt>0</asrwt>
<pdfrwt beam="1">  1        1 0.29208654E-02 0.93064124E+02</pdfrwt>
<pdfrwt beam="2">  1       -1 0.17545524E-01 0.93064124E+02</pdfrwt>
<totfact> 0.75246718E+04</totfact>
</mgrwt>
</event>
<event>
 5    1  0.6027538E+000  0.9253567E+02  0.7546771E-02  0.1296825E+00
          1   -1    0    0  501    0  0.00000000000E+00  0.00000000000E+00  0.64307156315E+02  0.64307156315E+02  0.00000000000E+00 0. -1.
         -1   -1    0    0    0  501 -0.00000000000E+00 -0.00000000000E+00 -0.33288870415E+02  0.33288870415E+02  0.00000000000E+00 0.  1.
         23    2    1    2    0    0  0.00000000000E+00  0.00000000000E+00  0.31018285900E+02  0.97596026730E+02  0.92535670816E+02 0.  0.
        -13    1    3    3    0    0 -0.37030765869E+02  0.19430787708E+02 -0.53693530647E+01  0.42162342014E+02  0.00000000000E+00 0. -1.
         13    1    3    3    0    0  0.37030765869E+02 -0.19430787708E+02  0.36387638964E+02  0.55433684716E+02  0.00000000000E+00 0.  1.
<mgrwt>
<rscale>  0 0.92535671E+02</rscale>
<asrwt>0</asrwt>
<pdfrwt beam="1">  1        1 0.98934086E-02 0.92535671E+02</pdfrwt>
<pdfrwt beam="2">  1       -1 0.51213647E-02 0.92535671E+02</pdfrwt>
<totfact> 0.93478363E+04</totfact>
</mgrwt>
</event>
<event>
 4    1  0.6027538E+000  0.1578439E+03  0.7546771E-02  0.1191153E+00
          1   -1    0    0  501    0  0.00000000000E+00  0.00000000000E+00  0.32629091104E+03  0.32629091104E+03  0.00000000000E+00 0. -1.
         -1   -1    0    0    0  501 -0.00000000000E+00 -0.00000000000E+00 -0.19089334265E+02  0.19089334265E+02  0.00000000000E+00 0.  1.
        -13    1    1    2    0    0 -0.72158305948E+02 -0.29478222398E+02  0.18065647298E+03  0.19675504553E+03  0.00000000000E+00 0. -1.
         13    1    1    2    0    0  0.72158305948E+02  0.29478222398E+02  0.12654510380E+03  0.14862519978E+03  0.00000000000E+00 0.  1.
<mgrwt>
<rscale>  0 0.15784393E+03</rscale>
<asrwt>0</asrwt>
<pdfrwt beam="1">  1        1 0.50198598E-01 0.15784393E+03</pdfrwt>
<pdfrwt beam="2">  1       -1 0.29368209E-02 0.15784393E+03</pdfrwt>
<totfact> 0.28921644E+04</totfact>
</mgrwt>
</event>
<event>
 5    1  0.6027538E+000  0.9076288E+02  0.7546771E-02  0.1301015E+00
         -1   -1    0    0    0  501 -0.00000000000E+00  0.00000000000E+00  0.96924943098E+01  0.96924943098E+01  0.00000000000E+00 0.  1.
          1   -1    0    0  501    0  0.00000000000E+00 -0.00000000000E+00 -0.21248142186E+03  0.21248142186E+03  0.00000000000E+00 0. -1.
         23    2    1    2    0    0  0.00000000000E+00  0.00000000000E+00 -0.20278892755E+03  0.22217391617E+03  0.90762877263E+02 0.  0.
        -13    1    3    3    0    0 -0.18688283948E+02  0.39504264744E+02 -0.71450934968E+02  0.83756044544E+02  0.00000000000E+00 0. -1.
         13    1    3    3    0    0  0.18688283948E+02 -0.39504264744E+02 -0.13133799258E+03  0.13841787162E+03  0.00000000000E+00 0.  1.
<mgrwt>
<rscale>  0 0.90762877E+02</rscale>
<asrwt>0</asrwt>
<pdfrwt beam="2">  1        1 0.32689448E-01 0.90762877E+02</pdfrwt>
<pdfrwt beam="1">  1       -1 0.14911530E-02 0.90762877E+02</pdfrwt>
<totfact> 0.12127677E+05</totfact>
</mgrwt>
</event>
<event>
 5    1  0.6027538E+000  0.8972677E+02  0.7546771E-02  0.1303515E+00
         -1   -1    0    0    0  501 -0.00000000000E+00  0.00000000000E+00  0.15745766659E+02  0.15745766659E+02  0.00000000000E+00 0.  1.
          1   -1    0    0  501    0  0.00000000000E+00 -0.00000000000E+00 -0.12782630259E+03  0.12782630259E+03  0.00000000000E+00 0. -1.
         23    2    1    2    0    0  0.00000000000E+00  0.00000000000E+00 -0.11208053593E+03  0.14357206925E+03  0.89726765983E+02 0.  0.
        -13    1    3    3    0    0  0.31402157089E+02  0.46327962355E+01 -0.53100656531E+01  0.32183148821E+02  0.00000000000E+00 0.  1.
         13    1    3    3    0    0 -0.31402157089E+02 -0.46327962355E+01 -0.10677047027E+03  0.11138892043E+03  0.00000000000E+00 0. -1.
<mgrwt>
<rscale>  0 0.89726766E+02</rscale>
<asrwt>0</asrwt>
<pdfrwt beam="2">  1        1 0.19665584E-01 0.89726766E+02</pdfrwt>
<pdfrwt beam="1">  1       -1 0.24224257E-02 0.89726766E+02</pdfrwt>
<totfact> 0.11376571E+05</totfact>
</mgrwt>
</event>
<event>
 5    1  0.6027538E+000  0.7539276E+02  0.7546771E-02  0.1342659E+00
          2   -1    0    0  501    0  0.00000000000E+00  0.00000000000E+00  0.12677509122E+03  0.12677509122E+03  0.00000000000E+00 0. -1.
         -2   -1    0    0    0  501 -0.00000000000E+00 -0.00000000000E+00 -0.11208961226E+02  0.11208961226E+02  0.00000000000E+00 0.  1.
         23    2    1    2    0    0  0.00000000000E+00  0.00000000000E+00  0.11556612999E+03  0.13798405244E+03  0.75392760443E+02 0.  0.
        -13    1    3    3    0    0  0.10042633345E+02 -0.22221635223E+02  0.51711275682E+01  0.24927818132E+02  0.00000000000E+00 0.  1.
         13    1    3    3    0    0 -0.10042633345E+02  0.22221635223E+02  0.11039500242E+03  0.11305623431E+03  0.00000000000E+00 0. -1.
<mgrwt>
<rscale>  0 0.75392760E+02</rscale>
<asrwt>0</asrwt>
<pdfrwt beam="1">  1        2 0.19503859E-01 0.75392760E+02</pdfrwt>
<pdfrwt beam="2">  1       -2 0.17244557E-02 0.75392760E+02</pdfrwt>
<totfact> 0.22058060E+05</totfact>
</mgrwt>
</event>
<event>
 5    1  0.6027538E+000  0.9152951E+02  0.7546771E-02  0.1299189E+00
          1   -1    0    0  501    0  0.00000000000E+00  0.00000000000E+00  0.27119208884E+02  0.27119208884E+02  0.00000000000E+00 0. -1.
         -1   -1    0    0    0  501 -0.00000000000E+00 -0.00000000000E+00 -0.77229863390E+02  0.77229863390E+02  0.00000000000E+00 0.  1.
         23    2    1    2    0    0  0.00000000000E+00  0.00000000000E+00 -0.50110654506E+02  0.10434907227E+03  0.91529509939E+02 0.  0.
        -13    1    3    3    0    0 -0.27717719526E+02  0.30919028179E+02 -0.31212695041E+01  0.41641332863E+02  0.00000000000E+00 0. -1.
         13    1    3    3    0    0  0.27717719526E+02 -0.30919028179E+02 -0.46989385002E+02  0.62707739412E+02  0.00000000000E+00 0.  1.
<mgrwt>
<rscale>  0 0.91529510E+02</rscale>
<asrwt>0</asrwt>
<pdfrwt beam="1">  1        1 0.41721860E-02 0.91529510E+02</pdfrwt>
<pdfrwt beam="2">  1       -1 0.11881517E-01 0.91529510E+02</pdfrwt>
<totfact> 0.84315945E+04</totfact>
</mgrwt>
</event>
<event>
 5    1  0.6027538E+000  0.9184717E+02  0.7546771E-02  0.1298439E+00
         -1   -1    0    0    0  501 -0.00000000000E+00  0.00000000000E+00  0.19551346058E+02  0.19551346058E+02  0.00000000000E+00 0.  1.
          1   -1    0    0  501    0  0.00000000000E+00 -0.00000000000E+00 -0.10786857188E+03  0.10786857188E+03  0.00000000000E+00 0. -1.
         23    2    1    2    0    0  0.00000000000E+00  0.00000000000E+00 -0.88317225820E+02  0.12741991794E+03  0.91847172576E+02 0.  0.
        -13    1    3    3    0    0 -0.77690488347E+01 -0.41210889411E+02 -0.70123076577E+02  0.81706434230E+02  0.00000000000E+00 0. -1.
         13    1    3    3    0    0  0.77690488347E+01  0.41210889411E+02 -0.18194149243E+02  0.45713483706E+02  0.00000000000E+00 0.  1.
<mgrwt>
<rscale>  0 0.91847173E+02</rscale>
<asrwt>0</asrwt>
<pdfrwt beam="2">  1        1 0.16595165E-01 0.91847173E+02</pdfrwt>
<pdfrwt beam="1">  1       -1 0.30078994E-02 0.91847173E+02</pdfrwt>
<totfact> 0.10369784E+05</totfact>
</mgrwt>
</event>
<event>
 5    1  0.6027538E+000  0.9020397E+02  0.7546771E-02  0.1302359E+00
          3   -1    0    0  501    0  0.00000000000E+00  0.00000000000E+00  0.16401947667E+02  0.16401947667E+02  0.00000000000E+00 0. -1.
         -3   -1    0    0    0  501 -0.00000000000E+00 -0.00000000000E+00 -0.12402118000E+03  0.12402118000E+03  0.00000000000E+00 0.  1.
         23    2    1    2    0    0  0.00000000000E+00  0.00000000000E+00 -0.10761923234E+03  0.14042312767E+03  0.90203966741E+02 0.  0.
        -13    1    3    3    0    0  0.40170726825E+02  0.49006766552E+01 -0.84807095194E+02  0.93967799381E+02  0.00000000000E+00 0.  1.
         13    1    3    3    0    0 -0.40170726825E+02 -0.49006766552E+01 -0.22812137142E+02  0.46455328288E+02  0.00000000000E+00 0. -1.
<mgrwt>
<rscale>  0 0.90203967E+02</rscale>
<asrwt>0</asrwt>
<pdfrwt beam="1">  1        3 0.25233765E-02 0.90203967E+02</pdfrwt>
<pdfrwt beam="2">  1       -3 0.19080182E-01 0.90203967E+02</pdfrwt>
<totfact> 0.32844188E+04</totfact>
</mgrwt>
</event>
<event>
 5    1  0.6027538E+000  0.8831364E+02  0.7546771E-02  0.1306988E+00
          1   -1    0    0  501    0  0.00000000000E+00  0.00000000000E+00  0.94108071201E+01  0.94108071201E+01  0.00000000000E+00 0. -1.
         -1   -1    0    0    0  501 -0.00000000000E+00 -0.00000000000E+00 -0.20718997772E+03  0.20718997772E+03  0.00000000000E+00 0.  1.
         23    2    1    2    0    0  0.00000000000E+00  0.00000000000E+00 -0.19777917060E+03  0.21660078484E+03  0.88313643738E+02 0.  0.
        -13    1    3    3    0    0  0.30616369621E+02  0.20267865683E+02 -0.15905040274E+03  0.16323351090E+03  0.00000000000E+00 0.  1.
         13    1    3    3    0    0 -0.30616369621E+02 -0.20267865683E+02 -0.38728767859E+02  0.53367273942E+02  0.00000000000E+00 0. -1.
<mgrwt>
<rscale>  0 0.88313644E+02</rscale>
<asrwt>0</asrwt>
<pdfrwt beam="1">  1        1 0.14478165E-02 0.88313644E+02</pdfrwt>
<pdfrwt beam="2">  1       -1 0.31875382E-01 0.88313644E+02</pdfrwt>
<totfact> 0.74666566E+04</totfact>
</mgrwt>
</event>
<event>
 5    1  0.6027538E+000  0.9148899E+02  0.7546771E-02  0.1299285E+00
         -1   -1    0    0    0  501 -0.00000000000E+00  0.00000000000E+00  0.81233913475E+01  0.81233913475E+01  0.00000000000E+00 0. -1.
          1   -1    0    0  501    0  0.00000000000E+00 -0.00000000000E+00 -0.25759671173E+03  0.25759671173E+03  0.00000000000E+00 0.  1.
         23    2    1    2    0    0  0.00000000000E+00  0.00000000000E+00 -0.24947332038E+03  0.26572010308E+03  0.91488991670E+02 0.  0.
        -13    1    3    3    0    0 -0.35098007602E+02  0.24850799643E+02 -0.17002347090E+03  0.17537791490E+03  0.00000000000E+00 0. -1.
         13    1    3    3    0    0  0.35098007602E+02 -0.24850799643E+02 -0.79449849484E+02  0.90342188171E+02  0.00000000000E+00 0.  1.
<mgrwt>
<rscale>  0 0.91488992E+02</rscale>
<asrwt>0</asrwt>
<pdfrwt beam="2">  1        1 0.39630255E-01 0.91488992E+02</pdfrwt>
<pdfrwt beam="1">  1       -1 0.12497528E-02 0.91488992E+02</pdfrwt>
<totfact> 0.12326212E+05</totfact>
</mgrwt>
</event>
<event>
 5    1  0.6027538E+000  0.9362798E+02  0.7546771E-02  0.1294296E+00
          1   -1    0    0  501    0  0.00000000000E+00  0.00000000000E+00  0.74442531121E+02  0.74442531121E+02  0.00000000000E+00 0. -1.
         -1   -1    0    0    0  501 -0.00000000000E+00 -0.00000000000E+00 -0.29439486370E+02  0.29439486370E+02  0.00000000000E+00 0.  1.
         23    2    1    2    0    0  0.00000000000E+00  0.00000000000E+00  0.45003044751E+02  0.10388201749E+03  0.93627984712E+02 0.  0.
        -13    1    3    3    0    0  0.19358335499E+02  0.15916651465E+02 -0.21369602735E+02  0.32935465204E+02  0.00000000000E+00 0.  1.
         13    1    3    3    0    0 -0.19358335499E+02 -0.15916651465E+02  0.66372647487E+02  0.70946552288E+02  0.00000000000E+00 0. -1.
<mgrwt>
<rscale>  0 0.93627985E+02</rscale>
<asrwt>0</asrwt>
<pdfrwt beam="1">  1        1 0.11452697E-01 0.93627985E+02</pdfrwt>
<pdfrwt beam="2">  1       -1 0.45291518E-02 0.93627985E+02</pdfrwt>
<totfact> 0.92581328E+04</totfact>
</mgrwt>
</event>
<event>
 5    1  0.6027538E+000  0.8287187E+02  0.7546771E-02  0.1321094E+00
          1   -1    0    0  501    0  0.00000000000E+00  0.00000000000E+00  0.78448792204E+02  0.78448792204E+02  0.00000000000E+00 0. -1.
         -1   -1    0    0    0  501 -0.00000000000E+00 -0.00000000000E+00 -0.21886084450E+02  0.21886084450E+02  0.00000000000E+00 0.  1.
         23    2    1    2    0    0  0.00000000000E+00  0.00000000000E+00  0.56562707754E+02  0.10033487665E+03  0.82871874389E+02 0.  0.
        -13    1    3    3    0    0  0.14474676943E+02  0.27170550694E+02 -0.52969888314E+01  0.31238008713E+02  0.00000000000E+00 0.  1.
         13    1    3    3    0    0 -0.14474676943E+02 -0.27170550694E+02  0.61859696586E+02  0.69096867941E+02  0.00000000000E+00 0. -1.
<mgrwt>
<rscale>  0 0.82871874E+02</rscale>
<asrwt>0</asrwt>
<pdfrwt beam="1">  1        1 0.12069045E-01 0.82871874E+02</pdfrwt>
<pdfrwt beam="2">  1       -1 0.33670900E-02 0.82871874E+02</pdfrwt>
<totfact> 0.13031098E+05</totfact>
</mgrwt>
</event>
<event>
 5    1  0.6027538E+000  0.9241157E+02  0.7546771E-02  0.1297115E+00
          1   -1    0    0  501    0  0.00000000000E+00  0.00000000000E+00  0.43272421241E+03  0.43272421241E+03  0.00000000000E+00 0. -1.
         -1   -1    0    0    0  501 -0.00000000000E+00 -0.00000000000E+00 -0.49338001076E+01  0.49338001076E+01  0.00000000000E+00 0.  1.
         23    2    1    2    0    0  0.00000000000E+00  0.00000000000E+00  0.42779041230E+03  0.43765801251E+03  0.92411574291E+02 0.  0.
        -13    1    3    3    0    0  0.16519966498E+02 -0.41681481593E+02  0.16100493318E+03  0.16713121704E+03  0.00000000000E+00 0.  1.
         13    1    3    3    0    0 -0.16519966498E+02  0.41681481593E+02  0.26678547912E+03  0.27052679547E+03  0.00000000000E+00 0. -1.
<mgrwt>
<rscale>  0 0.92411574E+02</rscale>
<asrwt>0</asrwt>
<pdfrwt beam="1">  1        1 0.66572926E-01 0.92411574E+02</pdfrwt>
<pdfrwt beam="2">  1       -1 0.75904651E-03 0.92411574E+02</pdfrwt>
<totfact> 0.13177734E+05</totfact>
</mgrwt>
</event>
<event>
 5    1  0.6027538E+000  0.9402674E+02  0.7546771E-02  0.1293383E+00
         -2   -1    0    0    0  501 -0.00000000000E+00  0.00000000000E+00  0.44012963163E+02  0.44012963163E+02  0.00000000000E+00 0. -1.
          2   -1    0    0  501    0  0.00000000000E+00 -0.00000000000E+00 -0.50218313072E+02  0.50218313072E+02  0.00000000000E+00 0.  1.
         23    2    1    2    0    0  0.00000000000E+00  0.00000000000E+00 -0.62053499086E+01  0.94231276235E+02  0.94026735843E+02 0.  0.
        -13    1    3    3    0    0  0.44314298924E+02  0.94361504130E+01 -0.15678228150E+02  0.47943767704E+02  0.00000000000E+00 0.  1.
         13    1    3    3    0    0 -0.44314298924E+02 -0.94361504130E+01  0.94728782416E+01  0.46287508530E+02  0.00000000000E+00 0. -1.
<mgrwt>
<rscale>  0 0.94026736E+02</rscale>
<asrwt>0</asrwt>
<pdfrwt beam="2">  1        2 0.77258943E-02 0.94026736E+02</pdfrwt>
<pdfrwt beam="1">  1       -2 0.67712251E-02 0.94026736E+02</pdfrwt>
<totfact> 0.92657930E+04</totfact>
</mgrwt>
</event>
<event>
 5    1  0.6027538E+000  0.9018285E+02  0.7546771E-02  0.1302409E+00
          1   -1    0    0  501    0  0.00000000000E+00  0.00000000000E+00  0.16224780162E+03  0.16224780162E+03  0.00000000000E+00 0. -1.
         -1   -1    0    0    0  501 -0.00000000000E+00 -0.00000000000E+00 -0.12531674806E+02  0.12531674806E+02  0.00000000000E+00 0.  1.
         23    2    1    2    0    0  0.00000000000E+00  0.00000000000E+00  0.14971612681E+03  0.17477947642E+03  0.90182851759E+02 0.  0.
        -13    1    3    3    0    0  0.69120171534E+01  0.35002917993E+02  0.21420515298E+02  0.41615126153E+02  0.00000000000E+00 0.  1.
         13    1    3    3    0    0 -0.69120171534E+01 -0.35002917993E+02  0.12829561151E+03  0.13316435027E+03  0.00000000000E+00 0. -1.
<mgrwt>
<rscale>  0 0.90182852E+02</rscale>
<asrwt>0</asrwt>
<pdfrwt beam="1">  1        1 0.24961199E-01 0.90182852E+02</pdfrwt>
<pdfrwt beam="2">  1       -1 0.19279501E-02 0.90182852E+02</pdfrwt>
<totfact> 0.11717976E+05</totfact>
</mgrwt>
</event>
<event>
 5    1  0.6027538E+000  0.9304668E+02  0.7546771E-02  0.1295637E+00
         -2   -1    0    0    0  501 -0.00000000000E+00  0.00000000000E+00  0.27528911404E+02  0.27528911404E+02  0.00000000000E+00 0.  1.
          2   -1    0    0  501    0  0.00000000000E+00 -0.00000000000E+00 -0.78623569795E+02  0.78623569795E+02  0.00000000000E+00 0. -1.
         23    2    1    2    0    0  0.00000000000E+00  0.00000000000E+00 -0.51094658391E+02  0.10615248120E+03  0.93046682631E+02 0.  0.
        -13    1    3    3    0    0 -0.28682265987E+02 -0.32374544707E+02 -0.45096809064E+02  0.62486044161E+02  0.00000000000E+00 0. -1.
         13    1    3    3    0    0  0.28682265987E+02  0.32374544707E+02 -0.59978493272E+01  0.43666437039E+02  0.00000000000E+00 0.  1.
<mgrwt>
<rscale>  0 0.93046683E+02</rscale>
<asrwt>0</asrwt>
<pdfrwt beam="2">  1        2 0.12095934E-01 0.93046683E+02</pdfrwt>
<pdfrwt beam="1">  1       -2 0.42352171E-02 0.93046683E+02</pdfrwt>
<totfact> 0.10799813E+05</totfact>
</mgrwt>
</event>
<event>
 5    1  0.6027538E+000  0.8973143E+02  0.7546771E-02  0.1303503E+00
          3   -1    0    0  501    0  0.00000000000E+00  0.00000000000E+00  0.90771768558E+02  0.90771768558E+02  0.00000000000E+00 0. -1.
         -3   -1    0    0    0  501 -0.00000000000E+00 -0.00000000000E+00 -0.22175753980E+02  0.22175753980E+02  0.00000000000E+00 0.  1.
         23    2    1    2    0    0  0.00000000000E+00  0.00000000000E+00  0.68596014579E+02  0.11294752254E+03  0.89731430566E+02 0.  0.
        -13    1    3    3    0    0 -0.11623343981E+02 -0.32386578486E+02 -0.19424457334E+01  0.34463976654E+02  0.00000000000E+00 0.  1.
         13    1    3    3    0    0  0.11623343981E+02  0.32386578486E+02  0.70538460312E+02  0.78483545884E+02  0.00000000000E+00 0. -1.
<mgrwt>
<rscale>  0 0.89731431E+02</rscale>
<asrwt>0</asrwt>
<pdfrwt beam="1">  1        3 0.13964887E-01 0.89731431E+02</pdfrwt>
<pdfrwt beam="2">  1       -3 0.34116545E-02 0.89731431E+02</pdfrwt>
<totfact> 0.35229488E+04</totfact>
</mgrwt>
</event>
<event>
 5    1  0.6027538E+000  0.8985457E+02  0.7546771E-02  0.1303204E+00
         -1   -1    0    0    0  501 -0.00000000000E+00  0.00000000000E+00  0.61950364080E+02  0.61950364080E+02  0.00000000000E+00 0.  1.
          1   -1    0    0  501    0  0.00000000000E+00 -0.00000000000E+00 -0.32581904855E+02  0.32581904855E+02  0.00000000000E+00 0. -1.
         23    2    1    2    0    0  0.00000000000E+00  0.00000000000E+00  0.29368459224E+02  0.94532268935E+02  0.89854568458E+02 0.  0.
        -13    1    3    3    0    0 -0.82815515012E+01  0.31978909772E+02 -0.17351361628E+02  0.37313596930E+02  0.00000000000E+00 0. -1.
         13    1    3    3    0    0  0.82815515012E+01 -0.31978909772E+02  0.46719820853E+02  0.57218672005E+02  0.00000000000E+00 0.  1.
<mgrwt>
<rscale>  0 0.89854568E+02</rscale>
<asrwt>0</asrwt>
<pdfrwt beam="2">  1        1 0.50126007E-02 0.89854568E+02</pdfrwt>
<pdfrwt beam="1">  1       -1 0.95308252E-02 0.89854568E+02</pdfrwt>
<totfact> 0.91568736E+04</totfact>
</mgrwt>
</event>
<event>
 5    1  0.6027538E+000  0.8988635E+02  0.7546771E-02  0.1303127E+00
          2   -1    0    0  501    0  0.00000000000E+00  0.00000000000E+00  0.68250373809E+01  0.68250373809E+01  0.00000000000E+00 0.  1.
         -2   -1    0    0    0  501 -0.00000000000E+00 -0.00000000000E+00 -0.29595278827E+03  0.29595278827E+03  0.00000000000E+00 0. -1.
         23    2    1    2    0    0  0.00000000000E+00  0.00000000000E+00 -0.28912775089E+03  0.30277782566E+03  0.89886346971E+02 0.  0.
        -13    1    3    3    0    0  0.82389664639E+01 -0.36765867249E+02 -0.62034793986E+02  0.72580474150E+02  0.00000000000E+00 0. -1.
         13    1    3    3    0    0 -0.82389664639E+01  0.36765867249E+02 -0.22709295691E+03  0.23019735151E+03  0.00000000000E+00 0.  1.
<mgrwt>
<rscale>  0 0.89886347E+02</rscale>
<asrwt>0</asrwt>
<pdfrwt beam="1">  1        2 0.10500054E-02 0.89886347E+02</pdfrwt>
<pdfrwt beam="2">  1       -2 0.45531214E-01 0.89886347E+02</pdfrwt>
<totfact> 0.53309842E+04</totfact>
</mgrwt>
</event>
<event>
 5    1  0.6027538E+000  0.9174307E+02  0.7546771E-02  0.1298685E+00
          2   -1    0    0  501    0  0.00000000000E+00  0.00000000000E+00  0.72235460708E+02  0.72235460708E+02  0.00000000000E+00 0. -1.
         -2   -1    0    0    0  501 -0.00000000000E+00 -0.00000000000E+00 -0.29129708072E+02  0.29129708072E+02  0.00000000000E+00 0.  1.
         23    2    1    2    0    0  0.00000000000E+00  0.00000000000E+00  0.43105752636E+02  0.10136516878E+03  0.91743073480E+02 0.  0.
        -13    1    3    3    0    0  0.23938775000E+02 -0.22867544510E+01  0.64712636607E+02  0.69036363832E+02  0.00000000000E+00 0. -1.
         13    1    3    3    0    0 -0.23938775000E+02  0.22867544510E+01 -0.21606883972E+02  0.32328804949E+02  0.00000000000E+00 0.  1.
<mgrwt>
<rscale>  0 0.91743073E+02</rscale>
<asrwt>0</asrwt>
<pdfrwt beam="1">  1        2 0.11113148E-01 0.91743073E+02</pdfrwt>
<pdfrwt beam="2">  1       -2 0.44814936E-02 0.91743073E+02</pdfrwt>
<totfact> 0.10967464E+05</totfact>
</mgrwt>
</event>
<event>
 5    1  0.6027538E+000  0.9867880E+02  0.7546771E-02  0.1283099E+00
          3   -1    0    0  501    0  0.00000000000E+00  0.00000000000E+00  0.79099963396E+02  0.79099963396E+02  0.00000000000E+00 0. -1.
         -3   -1    0    0    0  501 -0.00000000000E+00 -0.00000000000E+00 -0.30775947856E+02  0.30775947856E+02  0.00000000000E+00 0.  1.
         23    2    1    2    0    0  0.00000000000E+00  0.00000000000E+00  0.48324015539E+02  0.10987591125E+03  0.98678799119E+02 0.  0.
        -13    1    3    3    0    0  0.31278955820E+02  0.13679743003E+02 -0.15501109144E+02  0.37493903911E+02  0.00000000000E+00 0.  1.
         13    1    3    3    0    0 -0.31278955820E+02 -0.13679743003E+02  0.63825124684E+02  0.72382007341E+02  0.00000000000E+00 0. -1.
<mgrwt>
<rscale>  0 0.98678799E+02</rscale>
<asrwt>0</asrwt>
<pdfrwt beam="1">  1        3 0.12169225E-01 0.98678799E+02</pdfrwt>
<pdfrwt beam="2">  1       -3 0.47347612E-02 0.98678799E+02</pdfrwt>
<totfact> 0.27350805E+04</totfact>
</mgrwt>
</event>
<event>
 5    1  0.6027538E+000  0.8879810E+02  0.7546771E-02  0.1305789E+00
         -1   -1    0    0    0  501 -0.00000000000E+00  0.00000000000E+00  0.11878046277E+02  0.11878046277E+02  0.00000000000E+00 0.  1.
          1   -1    0    0  501    0  0.00000000000E+00 -0.00000000000E+00 -0.16595959931E+03  0.16595959931E+03  0.00000000000E+00 0. -1.
         23    2    1    2    0    0  0.00000000000E+00  0.00000000000E+00 -0.15408155304E+03  0.17783764559E+03  0.88798103600E+02 0.  0.
        -13    1    3    3    0    0  0.31364606409E+02  0.29184290912E+02 -0.53701200313E+02  0.68697018031E+02  0.00000000000E+00 0.  1.
         13    1    3    3    0    0 -0.31364606409E+02 -0.29184290912E+02 -0.10038035272E+03  0.10914062756E+03  0.00000000000E+00 0. -1.
<mgrwt>
<rscale>  0 0.88798104E+02</rscale>
<asrwt>0</asrwt>
<pdfrwt beam="2">  1        1 0.25532244E-01 0.88798104E+02</pdfrwt>
<pdfrwt beam="1">  1       -1 0.18273919E-02 0.88798104E+02</pdfrwt>
<totfact> 0.12266467E+05</totfact>
</mgrwt>
</event>
<event>
 5    1  0.6027538E+000  0.7849155E+02  0.7546771E-02  0.1333388E+00
         -1   -1    0    0    0  501 -0.00000000000E+00  0.00000000000E+00  0.82547220819E+01  0.82547220819E+01  0.00000000000E+00 0.  1.
          1   -1    0    0  501    0  0.00000000000E+00 -0.00000000000E+00 -0.18658785016E+03  0.18658785016E+03  0.00000000000E+00 0. -1.
         23    2    1    2    0    0  0.00000000000E+00  0.00000000000E+00 -0.17833312808E+03  0.19484257224E+03  0.78491549785E+02 0.  0.
        -13    1    3    3    0    0  0.24701466792E+02  0.28623134407E+02 -0.11529422745E+03  0.12133509455E+03  0.00000000000E+00 0.  1.
         13    1    3    3    0    0 -0.24701466792E+02 -0.28623134407E+02 -0.63038900626E+02  0.73507477695E+02  0.00000000000E+00 0. -1.
<mgrwt>
<rscale>  0 0.78491550E+02</rscale>
<asrwt>0</asrwt>
<pdfrwt beam="2">  1        1 0.28705821E-01 0.78491550E+02</pdfrwt>
<pdfrwt beam="1">  1       -1 0.12699573E-02 0.78491550E+02</pdfrwt>
<totfact> 0.17407718E+05</totfact>
</mgrwt>
</event>
<event>
 5    1  0.6027538E+000  0.9004733E+02  0.7546771E-02  0.1302737E+00
          1   -1    0    0  501    0  0.00000000000E+00  0.00000000000E+00  0.52486901667E+02  0.52486901667E+02  0.00000000000E+00 0. -1.
         -1   -1    0    0    0  501 -0.00000000000E+00 -0.00000000000E+00 -0.38621642854E+02  0.38621642854E+02  0.00000000000E+00 0.  1.
         23    2    1    2    0    0  0.00000000000E+00  0.00000000000E+00  0.13865258814E+02  0.91108544521E+02  0.90047329126E+02 0.  0.
        -13    1    3    3    0    0 -0.13108327137E+02 -0.98665334712E+01  0.49354711767E+02  0.52010232614E+02  0.00000000000E+00 0. -1.
         13    1    3    3    0    0  0.13108327137E+02  0.98665334712E+01 -0.35489452953E+02  0.39098311907E+02  0.00000000000E+00 0.  1.
<mgrwt>
<rscale>  0 0.90047329E+02</rscale>
<asrwt>0</asrwt>
<pdfrwt beam="1">  1        1 0.80749080E-02 0.90047329E+02</pdfrwt>
<pdfrwt beam="2">  1       -1 0.59417912E-02 0.90047329E+02</pdfrwt>
<totfact> 0.97785056E+04</totfact>
</mgrwt>
</event>
<event>
 5    1  0.6027538E+000  0.9374265E+02  0.7546771E-02  0.1294033E+00
         -1   -1    0    0    0  501 -0.00000000000E+00  0.00000000000E+00  0.50376612245E+02  0.50376612245E+02  0.00000000000E+00 0.  1.
          1   -1    0    0  501    0  0.00000000000E+00 -0.00000000000E+00 -0.43609945226E+02  0.43609945226E+02  0.00000000000E+00 0. -1.
         23    2    1    2    0    0  0.00000000000E+00  0.00000000000E+00  0.67666670191E+01  0.93986557471E+02  0.93742654126E+02 0.  0.
        -13    1    3    3    0    0  0.37458236745E+02 -0.28082221320E+02  0.10991067277E+01  0.46828823281E+02  0.00000000000E+00 0.  1.
         13    1    3    3    0    0 -0.37458236745E+02  0.28082221320E+02  0.56675602914E+01  0.47157734190E+02  0.00000000000E+00 0. -1.
<mgrwt>
<rscale>  0 0.93742654E+02</rscale>
<asrwt>0</asrwt>
<pdfrwt beam="2">  1        1 0.67092223E-02 0.93742654E+02</pdfrwt>
<pdfrwt beam="1">  1       -1 0.77502481E-02 0.93742654E+02</pdfrwt>
<totfact> 0.84937409E+04</totfact>
</mgrwt>
</event>
<event>
 5    1  0.6027538E+000  0.9246742E+02  0.7546771E-02  0.1296984E+00
         -4   -1    0    0    0  501 -0.00000000000E+00  0.00000000000E+00  0.34656600434E+02  0.34656600434E+02  0.00000000000E+00 0.  1.
          4   -1    0    0  501    0  0.00000000000E+00 -0.00000000000E+00 -0.61678182496E+02  0.61678182496E+02  0.00000000000E+00 0. -1.
         23    2    1    2    0    0  0.00000000000E+00  0.00000000000E+00 -0.27021582062E+02  0.96334782929E+02  0.92467424020E+02 0.  0.
        -13    1    3    3    0    0 -0.36538462290E+01  0.17334095657E+02 -0.58002100713E+02  0.60647053940E+02  0.00000000000E+00 0. -1.
         13    1    3    3    0    0  0.36538462290E+01 -0.17334095657E+02  0.30980518651E+02  0.35687728989E+02  0.00000000000E+00 0.  1.
<mgrwt>
<rscale>  0 0.92467424E+02</rscale>
<asrwt>0</asrwt>
<pdfrwt beam="2">  1        4 0.94889511E-02 0.92467424E+02</pdfrwt>
<pdfrwt beam="1">  1       -4 0.53317847E-02 0.92467424E+02</pdfrwt>
<totfact> 0.25686415E+04</totfact>
</mgrwt>
</event>
<event>
 5    1  0.6027538E+000  0.9443780E+02  0.7546771E-02  0.1292447E+00
         -3   -1    0    0    0  501 -0.00000000000E+00  0.00000000000E+00  0.13262052556E+02  0.13262052556E+02  0.00000000000E+00 0.  1.
          3   -1    0    0  501    0  0.00000000000E+00 -0.00000000000E+00 -0.16812060552E+03  0.16812060552E+03  0.00000000000E+00 0. -1.
         23    2    1    2    0    0  0.00000000000E+00  0.00000000000E+00 -0.15485855296E+03  0.18138265808E+03  0.94437795529E+02 0.  0.
        -13    1    3    3    0    0 -0.11692406967E+02  0.39810895341E+02 -0.12071889084E+03  0.12765057922E+03  0.00000000000E+00 0. -1.
         13    1    3    3    0    0  0.11692406967E+02 -0.39810895341E+02 -0.34139662121E+02  0.53732078856E+02  0.00000000000E+00 0.  1.
<mgrwt>
<rscale>  0 0.94437796E+02</rscale>
<asrwt>0</asrwt>
<pdfrwt beam="2">  1        3 0.25864710E-01 0.94437796E+02</pdfrwt>
<pdfrwt beam="1">  1       -3 0.20403157E-02 0.94437796E+02</pdfrwt>
<totfact> 0.26810737E+04</totfact>
</mgrwt>
</event>
<event>
 5    1  0.6027538E+000  0.9111042E+02  0.7546771E-02  0.1300185E+00
          3   -1    0    0  501    0  0.00000000000E+00  0.00000000000E+00  0.57257572068E+02  0.57257572068E+02  0.00000000000E+00 0. -1.
         -3   -1    0    0    0  501 -0.00000000000E+00 -0.00000000000E+00 -0.36244585293E+02  0.36244585293E+02  0.00000000000E+00 0.  1.
         23    2    1    2    0    0  0.00000000000E+00  0.00000000000E+00  0.21012986774E+02  0.93502157361E+02  0.91110415529E+02 0.  0.
        -13    1    3    3    0    0  0.30469587504E+02  0.61980896868E+01 -0.23661114321E+02  0.39072501959E+02  0.00000000000E+00 0.  1.
         13    1    3    3    0    0 -0.30469587504E+02 -0.61980896868E+01  0.44674101096E+02  0.54429655401E+02  0.00000000000E+00 0. -1.
<mgrwt>
<rscale>  0 0.91110416E+02</rscale>
<asrwt>0</asrwt>
<pdfrwt beam="1">  1        3 0.88088572E-02 0.91110416E+02</pdfrwt>
<pdfrwt beam="2">  1       -3 0.55760900E-02 0.91110416E+02</pdfrwt>
<totfact> 0.35230727E+04</totfact>
</mgrwt>
</event>
<event>
 5    1  0.6027538E+000  0.1003369E+03  0.7546771E-02  0.1279589E+00
         -1   -1    0    0    0  501 -0.00000000000E+00  0.00000000000E+00  0.56573534200E+02  0.56573534200E+02  0.00000000000E+00 0.  1.
          1   -1    0    0  501    0  0.00000000000E+00 -0.00000000000E+00 -0.44488536100E+02  0.44488536100E+02  0.00000000000E+00 0. -1.
         23    2    1    2    0    0  0.00000000000E+00  0.00000000000E+00  0.12084998099E+02  0.10106207030E+03  0.10033690684E+03 0.  0.
        -13    1    3    3    0    0  0.24256471022E+02 -0.43124465823E+02  0.14395673621E+02  0.51529907413E+02  0.00000000000E+00 0.  1.
         13    1    3    3    0    0 -0.24256471022E+02  0.43124465823E+02 -0.23106755212E+01  0.49532162888E+02  0.00000000000E+00 0. -1.
<mgrwt>
<rscale>  0 0.10033691E+03</rscale>
<asrwt>0</asrwt>
<pdfrwt beam="2">  1        1 0.68443901E-02 0.10033691E+03</pdfrwt>
<pdfrwt beam="1">  1       -1 0.87036207E-02 0.10033691E+03</pdfrwt>
<totfact> 0.70235136E+04</totfact>
</mgrwt>
</event>
<event>
 5    1  0.6027538E+000  0.9200332E+02  0.7546771E-02  0.1298072E+00
          2   -1    0    0  501    0  0.00000000000E+00  0.00000000000E+00  0.20167142471E+03  0.20167142471E+03  0.00000000000E+00 0. -1.
         -2   -1    0    0    0  501 -0.00000000000E+00 -0.00000000000E+00 -0.10493072660E+02  0.10493072660E+02  0.00000000000E+00 0.  1.
         23    2    1    2    0    0  0.00000000000E+00  0.00000000000E+00  0.19117835205E+03  0.21216449737E+03  0.92003324133E+02 0.  0.
        -13    1    3    3    0    0 -0.26652051464E+02  0.24727329454E+02  0.30593657745E+02  0.47515729641E+02  0.00000000000E+00 0.  1.
         13    1    3    3    0    0  0.26652051464E+02 -0.24727329454E+02  0.16058469431E+03  0.16464876773E+03  0.00000000000E+00 0. -1.
<mgrwt>
<rscale>  0 0.92003324E+02</rscale>
<asrwt>0</asrwt>
<pdfrwt beam="1">  1        2 0.31026370E-01 0.92003324E+02</pdfrwt>
<pdfrwt beam="2">  1       -2 0.16143190E-02 0.92003324E+02</pdfrwt>
<totfact> 0.15141815E+05</totfact>
</mgrwt>
</event>
<event>
 5    1  0.6027538E+000  0.8934612E+02  0.7546771E-02  0.1304443E+00
          1   -1    0    0  501    0  0.00000000000E+00  0.00000000000E+00  0.67813961937E+02  0.67813961937E+02  0.00000000000E+00 0. -1.
         -1   -1    0    0    0  501 -0.00000000000E+00 -0.00000000000E+00 -0.29428781618E+02  0.29428781618E+02  0.00000000000E+00 0.  1.
         23    2    1    2    0    0  0.00000000000E+00  0.00000000000E+00  0.38385180319E+02  0.97242743556E+02  0.89346119704E+02 0.  0.
        -13    1    3    3    0    0 -0.34427155292E+02  0.21585774961E+02 -0.10087831774E+01  0.40647168975E+02  0.00000000000E+00 0. -1.
         13    1    3    3    0    0  0.34427155292E+02 -0.21585774961E+02  0.39393963496E+02  0.56595574581E+02  0.00000000000E+00 0.  1.
<mgrwt>
<rscale>  0 0.89346120E+02</rscale>
<asrwt>0</asrwt>
<pdfrwt beam="1">  1        1 0.10432917E-01 0.89346120E+02</pdfrwt>
<pdfrwt beam="2">  1       -1 0.45275049E-02 0.89346120E+02</pdfrwt>
<totfact> 0.10382839E+05</totfact>
</mgrwt>
</event>
<event>
 5    1  0.6027538E+000  0.9383529E+02  0.7546771E-02  0.1293821E+00
         -2   -1    0    0    0  501 -0.00000000000E+00  0.00000000000E+00  0.12156463505E+03  0.12156463505E+03  0.00000000000E+00 0.  1.
          2   -1    0    0  501    0  0.00000000000E+00 -0.00000000000E+00 -0.18107777969E+02  0.18107777969E+02  0.00000000000E+00 0. -1.
         23    2    1    2    0    0  0.00000000000E+00  0.00000000000E+00  0.10345685708E+03  0.13967241302E+03  0.93835290172E+02 0.  0.
        -13    1    3    3    0    0  0.43070034439E+02 -0.18038982633E+02  0.58522291647E+02  0.74868493912E+02  0.00000000000E+00 0.  1.
         13    1    3    3    0    0 -0.43070034439E+02  0.18038982633E+02  0.44934565434E+02  0.64803919108E+02  0.00000000000E+00 0. -1.
<mgrwt>
<rscale>  0 0.93835290E+02</rscale>
<asrwt>0</asrwt>
<pdfrwt beam="2">  1        2 0.27858121E-02 0.93835290E+02</pdfrwt>
<pdfrwt beam="1">  1       -2 0.18702251E-01 0.93835290E+02</pdfrwt>
<totfact> 0.69867610E+04</totfact>
</mgrwt>
</event>
<event>
 5    1  0.6027538E+000  0.7656533E+02  0.7546771E-02  0.1339091E+00
          2   -1    0    0  501    0  0.00000000000E+00  0.00000000000E+00  0.47937454728E+02  0.47937454728E+02  0.00000000000E+00 0. -1.
         -2   -1    0    0    0  501 -0.00000000000E+00 -0.00000000000E+00 -0.30572385046E+02  0.30572385046E+02  0.00000000000E+00 0.  1.
         23    2    1    2    0    0  0.00000000000E+00  0.00000000000E+00  0.17365069682E+02  0.78509839774E+02  0.76565326985E+02 0.  0.
        -13    1    3    3    0    0  0.22764617018E+02  0.26292252614E+02  0.25090549145E+02  0.42884099523E+02  0.00000000000E+00 0.  1.
         13    1    3    3    0    0 -0.22764617018E+02 -0.26292252614E+02 -0.77254794633E+01  0.35625740251E+02  0.00000000000E+00 0. -1.
<mgrwt>
<rscale>  0 0.76565327E+02</rscale>
<asrwt>0</asrwt>
<pdfrwt beam="1">  1        2 0.73749931E-02 0.76565327E+02</pdfrwt>
<pdfrwt beam="2">  1       -2 0.47034438E-02 0.76565327E+02</pdfrwt>
<totfact> 0.16334532E+05</totfact>
</mgrwt>
</event>
<event>
 5    1  0.6027538E+000  0.9522590E+02  0.7546771E-02  0.1290668E+00
          1   -1    0    0  501    0  0.00000000000E+00  0.00000000000E+00  0.42170401801E+02  0.42170401801E+02  0.00000000000E+00 0. -1.
         -1   -1    0    0    0  501 -0.00000000000E+00 -0.00000000000E+00 -0.53757917476E+02  0.53757917476E+02  0.00000000000E+00 0.  1.
         23    2    1    2    0    0  0.00000000000E+00  0.00000000000E+00 -0.11587515675E+02  0.95928319278E+02  0.95225899418E+02 0.  0.
        -13    1    3    3    0    0  0.86095843181E+01 -0.28978154825E+02 -0.42850074473E+02  0.52440321143E+02  0.00000000000E+00 0.  1.
         13    1    3    3    0    0 -0.86095843181E+01  0.28978154825E+02  0.31262558798E+02  0.43487998135E+02  0.00000000000E+00 0. -1.
<mgrwt>
<rscale>  0 0.95225899E+02</rscale>
<asrwt>0</asrwt>
<pdfrwt beam="1">  1        1 0.64877542E-02 0.95225899E+02</pdfrwt>
<pdfrwt beam="2">  1       -1 0.82704488E-02 0.95225899E+02</pdfrwt>
<totfact> 0.80817013E+04</totfact>
</mgrwt>
</event>
<event>
 5    1  0.6027538E+000  0.9025516E+02  0.7546771E-02  0.1302235E+00
          2   -1    0    0  501    0  0.00000000000E+00  0.00000000000E+00  0.99279210922E+02  0.99279210922E+02  0.00000000000E+00 0. -1.
         -2   -1    0    0    0  501 -0.00000000000E+00 -0.00000000000E+00 -0.20512838112E+02  0.20512838112E+02  0.00000000000E+00 0.  1.
         23    2    1    2    0    0  0.00000000000E+00  0.00000000000E+00  0.78766372811E+02  0.11979204903E+03  0.90255157891E+02 0.  0.
        -13    1    3    3    0    0 -0.30643606101E+02 -0.45774401462E+01 -0.41645887000E+01  0.31262235240E+02  0.00000000000E+00 0.  1.
         13    1    3    3    0    0  0.30643606101E+02  0.45774401462E+01  0.82930961511E+02  0.88529813793E+02  0.00000000000E+00 0. -1.
<mgrwt>
<rscale>  0 0.90255158E+02</rscale>
<asrwt>0</asrwt>
<pdfrwt beam="1">  1        2 0.15273724E-01 0.90255158E+02</pdfrwt>
<pdfrwt beam="2">  1       -2 0.31558213E-02 0.90255158E+02</pdfrwt>
<totfact> 0.12587475E+05</totfact>
</mgrwt>
</event>
<event>
 5    1  0.6027538E+000  0.9274550E+02  0.7546771E-02  0.1296336E+00
         -1   -1    0    0    0  501 -0.00000000000E+00  0.00000000000E+00  0.97958672854E+02  0.97958672854E+02  0.00000000000E+00 0.  1.
          1   -1    0    0  501    0  0.00000000000E+00 -0.00000000000E+00 -0.21952439892E+02  0.21952439892E+02  0.00000000000E+00 0. -1.
         23    2    1    2    0    0  0.00000000000E+00  0.00000000000E+00  0.76006232962E+02  0.11991111275E+03  0.92745498602E+02 0.  0.
        -13    1    3    3    0    0  0.23462921207E+02  0.48409414451E+01  0.89337930770E+02  0.92494374207E+02  0.00000000000E+00 0.  1.
         13    1    3    3    0    0 -0.23462921207E+02 -0.48409414451E+01 -0.13331697808E+02  0.27416738539E+02  0.00000000000E+00 0. -1.
<mgrwt>
<rscale>  0 0.92745499E+02</rscale>
<asrwt>0</asrwt>
<pdfrwt beam="2">  1        1 0.33772985E-02 0.92745499E+02</pdfrwt>
<pdfrwt beam="1">  1       -1 0.15070565E-01 0.92745499E+02</pdfrwt>
<totfact> 0.78168752E+04</totfact>
</mgrwt>
</event>
<event>
 5    1  0.6027538E+000  0.9392535E+02  0.7546771E-02  0.1293615E+00
         -1   -1    0    0    0  501 -0.00000000000E+00  0.00000000000E+00  0.23787600986E+03  0.23787600986E+03  0.00000000000E+00 0.  1.
          1   -1    0    0  501    0  0.00000000000E+00 -0.00000000000E+00 -0.92716073426E+01  0.92716073426E+01  0.00000000000E+00 0. -1.
         23    2    1    2    0    0  0.00000000000E+00  0.00000000000E+00  0.22860440252E+03  0.24714761720E+03  0.93925352481E+02 0.  0.
        -13    1    3    3    0    0  0.37173677698E+02  0.24883271011E+02  0.15192486960E+03  0.15837368940E+03  0.00000000000E+00 0.  1.
         13    1    3    3    0    0 -0.37173677698E+02 -0.24883271011E+02  0.76679532916E+02  0.88773927805E+02  0.00000000000E+00 0. -1.
<mgrwt>
<rscale>  0 0.93925352E+02</rscale>
<asrwt>0</asrwt>
<pdfrwt beam="2">  1        1 0.14264013E-02 0.93925352E+02</pdfrwt>
<pdfrwt beam="1">  1       -1 0.36596305E-01 0.93925352E+02</pdfrwt>
<totfact> 0.60924814E+04</totfact>
</mgrwt>
</event>
<event>
 5    1  0.6027538E+000  0.9048912E+02  0.7546771E-02  0.1301672E+00
          4   -1    0    0  501    0  0.00000000000E+00  0.00000000000E+00  0.71647353316E+01  0.71647353316E+01  0.00000000000E+00 0. -1.
         -4   -1    0    0    0  501 -0.00000000000E+00 -0.00000000000E+00 -0.28571471212E+03  0.28571471212E+03  0.00000000000E+00 0.  1.
         23    2    1    2    0    0  0.00000000000E+00  0.00000000000E+00 -0.27854997678E+03  0.29287944745E+03  0.90489121836E+02 0.  0.
        -13    1    3    3    0    0  0.41229326300E+02 -0.13800275070E+02 -0.17979947915E+03  0.18498150621E+03  0.00000000000E+00 0.  1.
         13    1    3    3    0    0 -0.41229326300E+02  0.13800275070E+02 -0.98750497636E+02  0.10789794123E+03  0.00000000000E+00 0. -1.
<mgrwt>
<rscale>  0 0.90489122E+02</rscale>
<asrwt>0</asrwt>
<pdfrwt beam="1">  1        4 0.11022668E-02 0.90489122E+02</pdfrwt>
<pdfrwt beam="2">  1       -4 0.43956117E-01 0.90489122E+02</pdfrwt>
<totfact> 0.18405879E+04</totfact>
</mgrwt>
</event>
<event>
 5    1  0.6027538E+000  0.9095785E+02  0.7546771E-02  0.1300549E+00
         -2   -1    0    0    0  501 -0.00000000000E+00  0.00000000000E+00  0.16737400571E+02  0.16737400571E+02  0.00000000000E+00 0.  1.
          2   -1    0    0  501    0  0.00000000000E+00 -0.00000000000E+00 -0.12357550061E+03  0.12357550061E+03  0.00000000000E+00 0. -1.
         23    2    1    2    0    0  0.00000000000E+00  0.00000000000E+00 -0.10683810004E+03  0.14031290119E+03  0.90957850779E+02 0.  0.
        -13    1    3    3    0    0 -0.30167413003E+02  0.70023903703E+01 -0.20421958672E+01  0.31036701535E+02  0.00000000000E+00 0.  1.
         13    1    3    3    0    0  0.30167413003E+02 -0.70023903703E+01 -0.10479590418E+03  0.10927619965E+03  0.00000000000E+00 0. -1.
<mgrwt>
<rscale>  0 0.90957851E+02</rscale>
<asrwt>0</asrwt>
<pdfrwt beam="2">  1        2 0.19011615E-01 0.90957851E+02</pdfrwt>
<pdfrwt beam="1">  1       -2 0.25749848E-02 0.90957851E+02</pdfrwt>
<totfact> 0.13196137E+05</totfact>
</mgrwt>
</event>
<event>
 5    1  0.6027538E+000  0.9209292E+02  0.7546771E-02  0.1297861E+00
          1   -1    0    0  501    0  0.00000000000E+00  0.00000000000E+00  0.18433443838E+03  0.18433443838E+03  0.00000000000E+00 0. -1.
         -1   -1    0    0    0  501 -0.00000000000E+00 -0.00000000000E+00 -0.11502334675E+02  0.11502334675E+02  0.00000000000E+00 0.  1.
         23    2    1    2    0    0  0.00000000000E+00  0.00000000000E+00  0.17283210371E+03  0.19583677305E+03  0.92092918346E+02 0.  0.
        -13    1    3    3    0    0 -0.22346748721E+01 -0.38305234487E+02  0.32284221677E+02  0.50145346047E+02  0.00000000000E+00 0.  1.
         13    1    3    3    0    0  0.22346748721E+01  0.38305234487E+02  0.14054788203E+03  0.14569142701E+03  0.00000000000E+00 0. -1.
<mgrwt>
<rscale>  0 0.92092918E+02</rscale>
<asrwt>0</asrwt>
<pdfrwt beam="1">  1        1 0.28359142E-01 0.92092918E+02</pdfrwt>
<pdfrwt beam="2">  1       -1 0.17695901E-02 0.92092918E+02</pdfrwt>
<totfact> 0.11346420E+05</totfact>
</mgrwt>
</event>
<event>
 5    1  0.6027538E+000  0.9148245E+02  0.7546771E-02  0.1299301E+00
          2   -1    0    0  501    0  0.00000000000E+00  0.00000000000E+00  0.20995409183E+03  0.20995409183E+03  0.00000000000E+00 0. -1.
         -2   -1    0    0    0  501 -0.00000000000E+00 -0.00000000000E+00 -0.99653201735E+01  0.99653201735E+01  0.00000000000E+00 0.  1.
         23    2    1    2    0    0  0.00000000000E+00  0.00000000000E+00  0.19998877166E+03  0.21991941200E+03  0.91482451799E+02 0.  0.
        -13    1    3    3    0    0  0.45441440401E+02  0.23147363424E+01  0.88724686909E+02  0.99711346281E+02  0.00000000000E+00 0.  1.
         13    1    3    3    0    0 -0.45441440401E+02 -0.23147363424E+01  0.11126408475E+03  0.12020806572E+03  0.00000000000E+00 0. -1.
<mgrwt>
<rscale>  0 0.91482452E+02</rscale>
<asrwt>0</asrwt>
<pdfrwt beam="1">  1        2 0.32300626E-01 0.91482452E+02</pdfrwt>
<pdfrwt beam="2">  1       -2 0.15331263E-02 0.91482452E+02</pdfrwt>
<totfact> 0.15601853E+05</totfact>
</mgrwt>
</event>
<event>
 5    1  0.6027538E+000  0.9134650E+02  0.7546771E-02  0.1299623E+00
         -1   -1    0    0    0  501 -0.00000000000E+00  0.00000000000E+00  0.33792139797E+02  0.33792139797E+02  0.00000000000E+00 0.  1.
          1   -1    0    0  501    0  0.00000000000E+00 -0.00000000000E+00 -0.61731684501E+02  0.61731684501E+02  0.00000000000E+00 0. -1.
         23    2    1    2    0    0  0.00000000000E+00  0.00000000000E+00 -0.27939544704E+02  0.95523824298E+02  0.91346498839E+02 0.  0.
        -13    1    3    3    0    0  0.20999098103E+02 -0.21435555230E+02 -0.49976942706E+02  0.58293566981E+02  0.00000000000E+00 0. -1.
         13    1    3    3    0    0 -0.20999098103E+02  0.21435555230E+02  0.22037398002E+02  0.37230257317E+02  0.00000000000E+00 0.  1.
<mgrwt>
<rscale>  0 0.91346499E+02</rscale>
<asrwt>0</asrwt>
<pdfrwt beam="2">  1        1 0.94971822E-02 0.91346499E+02</pdfrwt>
<pdfrwt beam="1">  1       -1 0.51987907E-02 0.91346499E+02</pdfrwt>
<totfact> 0.96289909E+04</totfact>
</mgrwt>
</event>
<event>
 5    1  0.6027538E+000  0.8837611E+02  0.7546771E-02  0.1306833E+00
          2   -1    0    0  501    0  0.00000000000E+00  0.00000000000E+00  0.14103832644E+02  0.14103832644E+02  0.00000000000E+00 0. -1.
         -2   -1    0    0    0  501 -0.00000000000E+00 -0.00000000000E+00 -0.13844352817E+03  0.13844352817E+03  0.00000000000E+00 0.  1.
         23    2    1    2    0    0  0.00000000000E+00  0.00000000000E+00 -0.12433969553E+03  0.15254736081E+03  0.88376113331E+02 0.  0.
        -13    1    3    3    0    0  0.82772449471E+01 -0.35271503636E+02 -0.10583724194E+03  0.11186649871E+03  0.00000000000E+00 0.  1.
         13    1    3    3    0    0 -0.82772449471E+01  0.35271503636E+02 -0.18502453589E+02  0.40680862104E+02  0.00000000000E+00 0. -1.
<mgrwt>
<rscale>  0 0.88376113E+02</rscale>
<asrwt>0</asrwt>
<pdfrwt beam="1">  1        2 0.21698203E-02 0.88376113E+02</pdfrwt>
<pdfrwt beam="2">  1       -2 0.21299005E-01 0.88376113E+02</pdfrwt>
<totfact> 0.77764135E+04</totfact>
</mgrwt>
</event>
<event>
 5    1  0.6027538E+000  0.8027911E+02  0.7546771E-02  0.1328261E+00
          1   -1    0    0  501    0  0.00000000000E+00  0.00000000000E+00  0.79998173380E+02  0.79998173380E+02  0.00000000000E+00 0. -1.
         -1   -1    0    0    0  501 -0.00000000000E+00 -0.00000000000E+00 -0.20140258225E+02  0.20140258225E+02  0.00000000000E+00 0.  1.
         23    2    1    2    0    0  0.00000000000E+00  0.00000000000E+00  0.59857915155E+02  0.10013843161E+03  0.80279109846E+02 0.  0.
        -13    1    3    3    0    0 -0.25108183112E+02  0.15736154618E+02  0.63703590868E+02  0.70258059401E+02  0.00000000000E+00 0. -1.
         13    1    3    3    0    0  0.25108183112E+02 -0.15736154618E+02 -0.38456757126E+01  0.29880372204E+02  0.00000000000E+00 0.  1.
<mgrwt>
<rscale>  0 0.80279110E+02</rscale>
<asrwt>0</asrwt>
<pdfrwt beam="1">  1        1 0.12307411E-01 0.80279110E+02</pdfrwt>
<pdfrwt beam="2">  1       -1 0.30985013E-02 0.80279110E+02</pdfrwt>
<totfact> 0.14241785E+05</totfact>
</mgrwt>
</event>
<event>
 5    1  0.6027538E+000  0.8938100E+02  0.7546771E-02  0.1304358E+00
          1   -1    0    0  501    0  0.00000000000E+00  0.00000000000E+00  0.10766346663E+03  0.10766346663E+03  0.00000000000E+00 0. -1.
         -1   -1    0    0    0  501 -0.00000000000E+00 -0.00000000000E+00 -0.18550776981E+02  0.18550776981E+02  0.00000000000E+00 0.  1.
         23    2    1    2    0    0  0.00000000000E+00  0.00000000000E+00  0.89112689645E+02  0.12621424361E+03  0.89381003763E+02 0.  0.
        -13    1    3    3    0    0 -0.12159587294E+02 -0.26397247615E+02 -0.33835339475E+01  0.29259503529E+02  0.00000000000E+00 0.  1.
         13    1    3    3    0    0  0.12159587294E+02  0.26397247615E+02  0.92496223593E+02  0.96954740078E+02  0.00000000000E+00 0. -1.
<mgrwt>
<rscale>  0 0.89381004E+02</rscale>
<asrwt>0</asrwt>
<pdfrwt beam="1">  1        1 0.16563610E-01 0.89381004E+02</pdfrwt>
<pdfrwt beam="2">  1       -1 0.28539658E-02 0.89381004E+02</pdfrwt>
<totfact> 0.11162156E+05</totfact>
</mgrwt>
</event>
<event>
 5    1  0.6027538E+000  0.9330705E+02  0.7546771E-02  0.1295035E+00
         -1   -1    0    0    0  501 -0.00000000000E+00  0.00000000000E+00  0.59490506539E+02  0.59490506539E+02  0.00000000000E+00 0.  1.
          1   -1    0    0  501    0  0.00000000000E+00 -0.00000000000E+00 -0.36586534702E+02  0.36586534702E+02  0.00000000000E+00 0. -1.
         23    2    1    2    0    0  0.00000000000E+00  0.00000000000E+00  0.22903971838E+02  0.96077041241E+02  0.93307051865E+02 0.  0.
        -13    1    3    3    0    0  0.36831807320E+02 -0.11554947189E+02  0.38430029042E+02  0.54469862926E+02  0.00000000000E+00 0. -1.
         13    1    3    3    0    0 -0.36831807320E+02  0.11554947189E+02 -0.15526057204E+02  0.41607178315E+02  0.00000000000E+00 0.  1.
<mgrwt>
<rscale>  0 0.93307052E+02</rscale>
<asrwt>0</asrwt>
<pdfrwt beam="2">  1        1 0.56286976E-02 0.93307052E+02</pdfrwt>
<pdfrwt beam="1">  1       -1 0.91523856E-02 0.93307052E+02</pdfrwt>
<totfact> 0.83744578E+04</totfact>
</mgrwt>
</event>
<event>
 5    1  0.6027538E+000  0.8901255E+02  0.7546771E-02  0.1305261E+00
         -2   -1    0    0    0  501 -0.00000000000E+00  0.00000000000E+00  0.39956362430E+02  0.39956362430E+02  0.00000000000E+00 0.  1.
          2   -1    0    0  501    0  0.00000000000E+00 -0.00000000000E+00 -0.49574300789E+02  0.49574300789E+02  0.00000000000E+00 0. -1.
         23    2    1    2    0    0  0.00000000000E+00  0.00000000000E+00 -0.96179383588E+01  0.89530663219E+02  0.89012554834E+02 0.  0.
        -13    1    3    3    0    0 -0.28319721375E+02  0.31933603961E+02  0.78758226046E+01  0.43402652711E+02  0.00000000000E+00 0.  1.
         13    1    3    3    0    0  0.28319721375E+02 -0.31933603961E+02 -0.17493760963E+02  0.46128010507E+02  0.00000000000E+00 0. -1.
<mgrwt>
<rscale>  0 0.89012555E+02</rscale>
<asrwt>0</asrwt>
<pdfrwt beam="2">  1        2 0.76268155E-02 0.89012555E+02</pdfrwt>
<pdfrwt beam="1">  1       -2 0.61471327E-02 0.89012555E+02</pdfrwt>
<totfact> 0.10798489E+05</totfact>
</mgrwt>
</event>
<event>
 5    1  0.6027538E+000  0.9697749E+02  0.7546771E-02  0.1286783E+00
         -2   -1    0    0    0  501 -0.00000000000E+00  0.00000000000E+00  0.17884140501E+03  0.17884140501E+03  0.00000000000E+00 0.  1.
          2   -1    0    0  501    0  0.00000000000E+00 -0.00000000000E+00 -0.13146611577E+02  0.13146611577E+02  0.00000000000E+00 0. -1.
         23    2    1    2    0    0  0.00000000000E+00  0.00000000000E+00  0.16569479344E+03  0.19198801659E+03  0.96977491938E+02 0.  0.
        -13    1    3    3    0    0 -0.10979648778E+02 -0.47024166756E+02  0.74142595538E+02  0.88481350688E+02  0.00000000000E+00 0.  1.
         13    1    3    3    0    0  0.10979648778E+02  0.47024166756E+02  0.91552197897E+02  0.10350666590E+03  0.00000000000E+00 0. -1.
<mgrwt>
<rscale>  0 0.96977492E+02</rscale>
<asrwt>0</asrwt>
<pdfrwt beam="2">  1        2 0.20225558E-02 0.96977492E+02</pdfrwt>
<pdfrwt beam="1">  1       -2 0.27514060E-01 0.96977492E+02</pdfrwt>
<totfact> 0.55803680E+04</totfact>
</mgrwt>
</event>
<event>
 5    1  0.6027538E+000  0.9040499E+02  0.7546771E-02  0.1301874E+00
          1   -1    0    0  501    0  0.00000000000E+00  0.00000000000E+00  0.70782714026E+02  0.70782714026E+02  0.00000000000E+00 0. -1.
         -1   -1    0    0    0  501 -0.00000000000E+00 -0.00000000000E+00 -0.28866733204E+02  0.28866733204E+02  0.00000000000E+00 0.  1.
         23    2    1    2    0    0  0.00000000000E+00  0.00000000000E+00  0.41915980822E+02  0.99649447230E+02  0.90404993695E+02 0.  0.
        -13    1    3    3    0    0 -0.21341352974E+01  0.40307945825E+02  0.43385059263E+02  0.59258319224E+02  0.00000000000E+00 0. -1.
         13    1    3    3    0    0  0.21341352974E+01 -0.40307945825E+02 -0.14690784412E+01  0.40391128005E+02  0.00000000000E+00 0.  1.
<mgrwt>
<rscale>  0 0.90404994E+02</rscale>
<asrwt>0</asrwt>
<pdfrwt beam="1">  1        1 0.10889648E-01 0.90404994E+02</pdfrwt>
<pdfrwt beam="2">  1       -1 0.44410359E-02 0.90404994E+02</pdfrwt>
<totfact> 0.10117740E+05</totfact>
</mgrwt>
</event>
<event>
 5    1  0.6027538E+000  0.9079385E+02  0.7546771E-02  0.1300941E+00
          3   -1    0    0  501    0  0.00000000000E+00  0.00000000000E+00  0.18623186194E+02  0.18623186194E+02  0.00000000000E+00 0. -1.
         -3   -1    0    0    0  501 -0.00000000000E+00 -0.00000000000E+00 -0.11066208555E+03  0.11066208555E+03  0.00000000000E+00 0.  1.
         23    2    1    2    0    0  0.00000000000E+00  0.00000000000E+00 -0.92038899352E+02  0.12928527174E+03  0.90793846129E+02 0.  0.
        -13    1    3    3    0    0  0.33896009445E+02  0.29880353954E+02 -0.39795398575E+02  0.60211699498E+02  0.00000000000E+00 0.  1.
         13    1    3    3    0    0 -0.33896009445E+02 -0.29880353954E+02 -0.52243500777E+02  0.69073572241E+02  0.00000000000E+00 0. -1.
<mgrwt>
<rscale>  0 0.90793846E+02</rscale>
<asrwt>0</asrwt>
<pdfrwt beam="1">  1        3 0.28651056E-02 0.90793846E+02</pdfrwt>
<pdfrwt beam="2">  1       -3 0.17024936E-01 0.90793846E+02</pdfrwt>
<totfact> 0.32999027E+04</totfact>
</mgrwt>
</event>
<event>
 5    1  0.6027538E+000  0.9458285E+02  0.7546771E-02  0.1292118E+00
          1   -1    0    0  501    0  0.00000000000E+00  0.00000000000E+00  0.29227611254E+02  0.29227611254E+02  0.00000000000E+00 0. -1.
         -1   -1    0    0    0  501 -0.00000000000E+00 -0.00000000000E+00 -0.76519391860E+02  0.76519391860E+02  0.00000000000E+00 0.  1.
         23    2    1    2    0    0  0.00000000000E+00  0.00000000000E+00 -0.47291780606E+02  0.10574700311E+03  0.94582853387E+02 0.  0.
        -13    1    3    3    0    0  0.38443522231E+02 -0.26712384604E+02 -0.16143950491E+02  0.49518511995E+02  0.00000000000E+00 0.  1.
         13    1    3    3    0    0 -0.38443522231E+02  0.26712384604E+02 -0.31147830114E+02  0.56228491119E+02  0.00000000000E+00 0. -1.
<mgrwt>
<rscale>  0 0.94582853E+02</rscale>
<asrwt>0</asrwt>
<pdfrwt beam="1">  1        1 0.44965556E-02 0.94582853E+02</pdfrwt>
<pdfrwt beam="2">  1       -1 0.11772214E-01 0.94582853E+02</pdfrwt>
<totfact> 0.77642403E+04</totfact>
</mgrwt>
</event>
<event>
 5    1  0.6027538E+000  0.9167570E+02  0.7546771E-02  0.1298844E+00
          2   -1    0    0  501    0  0.00000000000E+00  0.00000000000E+00  0.24984048188E+02  0.24984048188E+02  0.00000000000E+00 0. -1.
         -2   -1    0    0    0  501 -0.00000000000E+00 -0.00000000000E+00 -0.84098007226E+02  0.84098007226E+02  0.00000000000E+00 0.  1.
         23    2    1    2    0    0  0.00000000000E+00  0.00000000000E+00 -0.59113959038E+02  0.10908205541E+03  0.91675703762E+02 0.  0.
        -13    1    3    3    0    0  0.21282960675E+02  0.21523539812E+02 -0.70514769669E+02  0.76736952784E+02  0.00000000000E+00 0.  1.
         13    1    3    3    0    0 -0.21282960675E+02 -0.21523539812E+02  0.11400810631E+02  0.32345102630E+02  0.00000000000E+00 0. -1.
<mgrwt>
<rscale>  0 0.91675704E+02</rscale>
<asrwt>0</asrwt>
<pdfrwt beam="1">  1        2 0.38436997E-02 0.91675704E+02</pdfrwt>
<pdfrwt beam="2">  1       -2 0.12938155E-01 0.91675704E+02</pdfrwt>
<totfact> 0.82782714E+04</totfact>
</mgrwt>
</event>
<event>
 5    1  0.6027538E+000  0.9145427E+02  0.7546771E-02  0.1299368E+00
          1   -1    0    0  501    0  0.00000000000E+00  0.00000000000E+00  0.47223649540E+03  0.47223649540E+03  0.00000000000E+00 0.  1.
         -1   -1    0    0    0  501 -0.00000000000E+00 -0.00000000000E+00 -0.44278040436E+01  0.44278040436E+01  0.00000000000E+00 0. -1.
         23    2    1    2    0    0  0.00000000000E+00  0.00000000000E+00  0.46780869136E+03  0.47666429945E+03  0.91454265376E+02 0.  0.
        -13    1    3    3    0    0 -0.36307681998E+02 -0.27728292199E+02  0.22365805313E+03  0.22827621577E+03  0.00000000000E+00 0. -1.
         13    1    3    3    0    0  0.36307681998E+02  0.27728292199E+02  0.24415063823E+03  0.24838808367E+03  0.00000000000E+00 0.  1.
<mgrwt>
<rscale>  0 0.91454265E+02</rscale>
<asrwt>0</asrwt>
<pdfrwt beam="1">  1        1 0.72651729E-01 0.91454265E+02</pdfrwt>
<pdfrwt beam="2">  1       -1 0.68120100E-03 0.91454265E+02</pdfrwt>
<totfact> 0.13716210E+05</totfact>
</mgrwt>
</event>
<event>
 5    1  0.6027538E+000  0.9228300E+02  0.7546771E-02  0.1297415E+00
          1   -1    0    0  501    0  0.00000000000E+00  0.00000000000E+00  0.37435553637E+02  0.37435553637E+02  0.00000000000E+00 0. -1.
         -1   -1    0    0    0  501 -0.00000000000E+00 -0.00000000000E+00 -0.56872091191E+02  0.56872091191E+02  0.00000000000E+00 0.  1.
         23    2    1    2    0    0  0.00000000000E+00  0.00000000000E+00 -0.19436537555E+02  0.94307644828E+02  0.92283004290E+02 0.  0.
        -13    1    3    3    0    0 -0.42808051277E+02 -0.96855749229E+01  0.48313144782E+01  0.44155194658E+02  0.00000000000E+00 0.  1.
         13    1    3    3    0    0  0.42808051277E+02  0.96855749229E+01 -0.24267852033E+02  0.50152450170E+02  0.00000000000E+00 0. -1.
<mgrwt>
<rscale>  0 0.92283004E+02</rscale>
<asrwt>0</asrwt>
<pdfrwt beam="1">  1        1 0.57593160E-02 0.92283004E+02</pdfrwt>
<pdfrwt beam="2">  1       -1 0.87495524E-02 0.92283004E+02</pdfrwt>
<totfact> 0.86729165E+04</totfact>
</mgrwt>
</event>
<event>
 5    1  0.6027538E+000  0.9133297E+02  0.7546771E-02  0.1299655E+00
          1   -1    0    0  501    0  0.00000000000E+00  0.00000000000E+00  0.50404148242E+02  0.50404148242E+02  0.00000000000E+00 0. -1.
         -1   -1    0    0    0  501 -0.00000000000E+00 -0.00000000000E+00 -0.41374135808E+02  0.41374135808E+02  0.00000000000E+00 0.  1.
         23    2    1    2    0    0  0.00000000000E+00  0.00000000000E+00  0.90300124342E+01  0.91778284050E+02  0.91332974870E+02 0.  0.
        -13    1    3    3    0    0  0.21179881885E+02  0.63101334324E+01  0.44672620223E+02  0.49840226506E+02  0.00000000000E+00 0. -1.
         13    1    3    3    0    0 -0.21179881885E+02 -0.63101334324E+01 -0.35642607789E+02  0.41938057544E+02  0.00000000000E+00 0.  1.
<mgrwt>
<rscale>  0 0.91332975E+02</rscale>
<asrwt>0</asrwt>
<pdfrwt beam="1">  1        1 0.77544843E-02 0.91332975E+02</pdfrwt>
<pdfrwt beam="2">  1       -1 0.63652517E-02 0.91332975E+02</pdfrwt>
<totfact> 0.93429001E+04</totfact>
</mgrwt>
</event>
<event>
 5    1  0.6027538E+000  0.9218812E+02  0.7546771E-02  0.1297638E+00
          1   -1    0    0  501    0  0.00000000000E+00  0.00000000000E+00  0.59207845702E+02  0.59207845702E+02  0.00000000000E+00 0. -1.
         -1   -1    0    0    0  501 -0.00000000000E+00 -0.00000000000E+00 -0.35884808860E+02  0.35884808860E+02  0.00000000000E+00 0.  1.
         23    2    1    2    0    0  0.00000000000E+00  0.00000000000E+00  0.23323036842E+02  0.95092654562E+02  0.92188116935E+02 0.  0.
        -13    1    3    3    0    0 -0.22917837404E+02  0.63377007265E+01  0.52393213170E+02  0.57536445042E+02  0.00000000000E+00 0. -1.
         13    1    3    3    0    0  0.22917837404E+02 -0.63377007265E+01 -0.29070176328E+02  0.37556209520E+02  0.00000000000E+00 0.  1.
<mgrwt>
<rscale>  0 0.92188117E+02</rscale>
<asrwt>0</asrwt>
<pdfrwt beam="1">  1        1 0.91088994E-02 0.92188117E+02</pdfrwt>
<pdfrwt beam="2">  1       -1 0.55207398E-02 0.92188117E+02</pdfrwt>
<totfact> 0.93272993E+04</totfact>
</mgrwt>
</event>
<event>
 5    1  0.6027538E+000  0.9241179E+02  0.7546771E-02  0.1297114E+00
          1   -1    0    0  501    0  0.00000000000E+00  0.00000000000E+00  0.44535337806E+02  0.44535337806E+02  0.00000000000E+00 0. -1.
         -1   -1    0    0    0  501 -0.00000000000E+00 -0.00000000000E+00 -0.47939119151E+02  0.47939119151E+02  0.00000000000E+00 0.  1.
         23    2    1    2    0    0  0.00000000000E+00  0.00000000000E+00 -0.34037813451E+01  0.92474456956E+02  0.92411792873E+02 0.  0.
        -13    1    3    3    0    0  0.35360996295E+02  0.22138230005E+02  0.18173188088E+02  0.45505670548E+02  0.00000000000E+00 0. -1.
         13    1    3    3    0    0 -0.35360996295E+02 -0.22138230005E+02 -0.21576969433E+02  0.46968786408E+02  0.00000000000E+00 0.  1.
<mgrwt>
<rscale>  0 0.92411793E+02</rscale>
<asrwt>0</asrwt>
<pdfrwt beam="1">  1        1 0.68515905E-02 0.92411793E+02</pdfrwt>
<pdfrwt beam="2">  1       -1 0.73752491E-02 0.92411793E+02</pdfrwt>
<totfact> 0.88722121E+04</totfact>
</mgrwt>
</event>
<event>
 5    1  0.6027538E+000  0.9109538E+02  0.7546771E-02  0.1300221E+00
          2   -1    0    0  501    0  0.00000000000E+00  0.00000000000E+00  0.29880492199E+03  0.29880492199E+03  0.00000000000E+00 0. -1.
         -2   -1    0    0    0  501 -0.00000000000E+00 -0.00000000000E+00 -0.69429654616E+01  0.69429654616E+01  0.00000000000E+00 0.  1.
         23    2    1    2    0    0  0.00000000000E+00  0.00000000000E+00  0.29186195653E+03  0.30574788745E+03  0.91095384145E+02 0.  0.
        -13    1    3    3    0    0 -0.41192513618E+02 -0.10133912663E+02  0.90264853602E+02  0.99735967232E+02  0.00000000000E+00 0.  1.
         13    1    3    3    0    0  0.41192513618E+02  0.10133912663E+02  0.20159710292E+03  0.20601192022E+03  0.00000000000E+00 0. -1.
<mgrwt>
<rscale>  0 0.91095384E+02</rscale>
<asrwt>0</asrwt>
<pdfrwt beam="1">  1        2 0.45969978E-01 0.91095384E+02</pdfrwt>
<pdfrwt beam="2">  1       -2 0.10681488E-02 0.91095384E+02</pdfrwt>
<totfact> 0.17982191E+05</totfact>
</mgrwt>
</event>
<event>
 5    1  0.6027538E+000  0.8892742E+02  0.7546771E-02  0.1305470E+00
         -4   -1    0    0    0  501 -0.00000000000E+00  0.00000000000E+00  0.50250611443E+02  0.50250611443E+02  0.00000000000E+00 0.  1.
          4   -1    0    0  501    0  0.00000000000E+00 -0.00000000000E+00 -0.39343229824E+02  0.39343229824E+02  0.00000000000E+00 0. -1.
         23    2    1    2    0    0  0.00000000000E+00  0.00000000000E+00  0.10907381619E+02  0.89593841268E+02  0.88927416578E+02 0.  0.
        -13    1    3    3    0    0  0.11209824540E+02  0.43012603270E+02  0.43151117609E+01  0.44658307131E+02  0.00000000000E+00 0.  1.
         13    1    3    3    0    0 -0.11209824540E+02 -0.43012603270E+02  0.65922698577E+01  0.44935534137E+02  0.00000000000E+00 0. -1.
<mgrwt>
<rscale>  0 0.88927417E+02</rscale>
<asrwt>0</asrwt>
<pdfrwt beam="2">  1        4 0.60528046E-02 0.88927417E+02</pdfrwt>
<pdfrwt beam="1">  1       -4 0.77308633E-02 0.88927417E+02</pdfrwt>
<totfact> 0.29015435E+04</totfact>
</mgrwt>
</event>
<event>
 5    1  0.6027538E+000  0.8950666E+02  0.7546771E-02  0.1304051E+00
          2   -1    0    0  501    0  0.00000000000E+00  0.00000000000E+00  0.14781951562E+03  0.14781951562E+03  0.00000000000E+00 0. -1.
         -2   -1    0    0    0  501 -0.00000000000E+00 -0.00000000000E+00 -0.13549364163E+02  0.13549364163E+02  0.00000000000E+00 0.  1.
         23    2    1    2    0    0  0.00000000000E+00  0.00000000000E+00  0.13427015145E+03  0.16136887978E+03  0.89506657797E+02 0.  0.
        -13    1    3    3    0    0 -0.26977359288E+00  0.34008090122E+02  0.14689293105E+02  0.37045894556E+02  0.00000000000E+00 0.  1.
         13    1    3    3    0    0  0.26977359288E+00 -0.34008090122E+02  0.11958085835E+03  0.12432298522E+03  0.00000000000E+00 0. -1.
<mgrwt>
<rscale>  0 0.89506658E+02</rscale>
<asrwt>0</asrwt>
<pdfrwt beam="1">  1        2 0.22741463E-01 0.89506658E+02</pdfrwt>
<pdfrwt beam="2">  1       -2 0.20845177E-02 0.89506658E+02</pdfrwt>
<totfact> 0.14626444E+05</totfact>
</mgrwt>
</event>
<event>
 5    1  0.6027538E+000  0.9070122E+02  0.7546771E-02  0.1301162E+00
          2   -1    0    0  501    0  0.00000000000E+00  0.00000000000E+00  0.11536794855E+03  0.11536794855E+03  0.00000000000E+00 0. -1.
         -2   -1    0    0    0  501 -0.00000000000E+00 -0.00000000000E+00 -0.17827118001E+02  0.17827118001E+02  0.00000000000E+00 0.  1.
         23    2    1    2    0    0  0.00000000000E+00  0.00000000000E+00  0.97540830549E+02  0.13319506655E+03  0.90701224519E+02 0.  0.
        -13    1    3    3    0    0 -0.19459164384E+02  0.40715426893E+02  0.55382427419E+02  0.71439613188E+02  0.00000000000E+00 0.  1.
         13    1    3    3    0    0  0.19459164384E+02 -0.40715426893E+02  0.42158403129E+02  0.61755453362E+02  0.00000000000E+00 0. -1.
<mgrwt>
<rscale>  0 0.90701225E+02</rscale>
<asrwt>0</asrwt>
<pdfrwt beam="1">  1        2 0.17748915E-01 0.90701225E+02</pdfrwt>
<pdfrwt beam="2">  1       -2 0.27426336E-02 0.90701225E+02</pdfrwt>
<totfact> 0.13009438E+05</totfact>
</mgrwt>
</event>
<event>
 5    1  0.6027538E+000  0.9862553E+02  0.7546771E-02  0.1283213E+00
          4   -1    0    0  501    0  0.00000000000E+00  0.00000000000E+00  0.58282900497E+02  0.58282900497E+02  0.00000000000E+00 0. -1.
         -4   -1    0    0    0  501 -0.00000000000E+00 -0.00000000000E+00 -0.41723196162E+02  0.41723196162E+02  0.00000000000E+00 0.  1.
         23    2    1    2    0    0  0.00000000000E+00  0.00000000000E+00  0.16559704335E+02  0.10000609666E+03  0.98625531995E+02 0.  0.
        -13    1    3    3    0    0  0.25497238027E+02  0.42052529982E+02  0.45924018158E+01  0.49392454680E+02  0.00000000000E+00 0.  1.
         13    1    3    3    0    0 -0.25497238027E+02 -0.42052529982E+02  0.11967302519E+02  0.50613641980E+02  0.00000000000E+00 0. -1.
<mgrwt>
<rscale>  0 0.98625532E+02</rscale>
<asrwt>0</asrwt>
<pdfrwt beam="1">  1        4 0.89666001E-02 0.98625532E+02</pdfrwt>
<pdfrwt beam="2">  1       -4 0.64189532E-02 0.98625532E+02</pdfrwt>
<totfact> 0.21354675E+04</totfact>
</mgrwt>
</event>
<event>
 5    1  0.6027538E+000  0.9284481E+02  0.7546771E-02  0.1296105E+00
         -2   -1    0    0    0  501 -0.00000000000E+00  0.00000000000E+00  0.24334308578E+02  0.24334308578E+02  0.00000000000E+00 0. -1.
          2   -1    0    0  501    0  0.00000000000E+00 -0.00000000000E+00 -0.88559729242E+02  0.88559729242E+02  0.00000000000E+00 0.  1.
         23    2    1    2    0    0  0.00000000000E+00  0.00000000000E+00 -0.64225420664E+02  0.11289403782E+03  0.92844812004E+02 0.  0.
        -13    1    3    3    0    0 -0.35378292811E+02  0.21317037662E+02 -0.57878091726E+02  0.71104944967E+02  0.00000000000E+00 0.  1.
         13    1    3    3    0    0  0.35378292811E+02 -0.21317037662E+02 -0.63473289383E+01  0.41789092854E+02  0.00000000000E+00 0. -1.
<mgrwt>
<rscale>  0 0.92844812E+02</rscale>
<asrwt>0</asrwt>
<pdfrwt beam="2">  1        2 0.13624574E-01 0.92844812E+02</pdfrwt>
<pdfrwt beam="1">  1       -2 0.37437398E-02 0.92844812E+02</pdfrwt>
<totfact> 0.11249400E+05</totfact>
</mgrwt>
</event>
<event>
 5    1  0.6027538E+000  0.9413635E+02  0.7546771E-02  0.1293133E+00
          2   -1    0    0  501    0  0.00000000000E+00  0.00000000000E+00  0.17661960572E+03  0.17661960572E+03  0.00000000000E+00 0. -1.
         -2   -1    0    0    0  501 -0.00000000000E+00 -0.00000000000E+00 -0.12543415225E+02  0.12543415225E+02  0.00000000000E+00 0.  1.
         23    2    1    2    0    0  0.00000000000E+00  0.00000000000E+00  0.16407619049E+03  0.18916302094E+03  0.94136349013E+02 0.  0.
        -13    1    3    3    0    0 -0.33563573200E+02  0.31956558305E+02  0.98569227713E+02  0.10892028148E+03  0.00000000000E+00 0.  1.
         13    1    3    3    0    0  0.33563573200E+02 -0.31956558305E+02  0.65506962779E+02  0.80242739467E+02  0.00000000000E+00 0. -1.
<mgrwt>
<rscale>  0 0.94136349E+02</rscale>
<asrwt>0</asrwt>
<pdfrwt beam="1">  1        2 0.27172245E-01 0.94136349E+02</pdfrwt>
<pdfrwt beam="2">  1       -2 0.19297563E-02 0.94136349E+02</pdfrwt>
<totfact> 0.13568701E+05</totfact>
</mgrwt>
</event>
<event>
 5    1  0.6027538E+000  0.9227439E+02  0.7546771E-02  0.1297436E+00
         -1   -1    0    0    0  501 -0.00000000000E+00  0.00000000000E+00  0.36802888241E+02  0.36802888241E+02  0.00000000000E+00 0.  1.
          1   -1    0    0  501    0  0.00000000000E+00 -0.00000000000E+00 -0.57838957651E+02  0.57838957651E+02  0.00000000000E+00 0. -1.
         23    2    1    2    0    0  0.00000000000E+00  0.00000000000E+00 -0.21036069410E+02  0.94641845892E+02  0.92274388524E+02 0.  0.
        -13    1    3    3    0    0 -0.37859450367E+00 -0.26329738975E+02 -0.49374619333E+02  0.55957586819E+02  0.00000000000E+00 0. -1.
         13    1    3    3    0    0  0.37859450367E+00  0.26329738975E+02  0.28338549923E+02  0.38684259073E+02  0.00000000000E+00 0.  1.
<mgrwt>
<rscale>  0 0.92274389E+02</rscale>
<asrwt>0</asrwt>
<pdfrwt beam="2">  1        1 0.88983011E-02 0.92274389E+02</pdfrwt>
<pdfrwt beam="1">  1       -1 0.56619828E-02 0.92274389E+02</pdfrwt>
<totfact> 0.92699620E+04</totfact>
</mgrwt>
</event>
<event>
 5    1  0.6027538E+000  0.7808693E+02  0.7546771E-02  0.1334570E+00
         -3   -1    0    0    0  501 -0.00000000000E+00  0.00000000000E+00  0.25241559692E+02  0.25241559692E+02  0.00000000000E+00 0.  1.
          3   -1    0    0  501    0  0.00000000000E+00 -0.00000000000E+00 -0.60392151792E+02  0.60392151792E+02  0.00000000000E+00 0. -1.
         23    2    1    2    0    0  0.00000000000E+00  0.00000000000E+00 -0.35150592100E+02  0.85633711484E+02  0.78086928596E+02 0.  0.
        -13    1    3    3    0    0 -0.22224783909E+01  0.98173494703E+01  0.23794170006E+02  0.25835678568E+02  0.00000000000E+00 0.  1.
         13    1    3    3    0    0  0.22224783909E+01 -0.98173494703E+01 -0.58944762106E+02  0.59798032916E+02  0.00000000000E+00 0. -1.
<mgrwt>
<rscale>  0 0.78086929E+02</rscale>
<asrwt>0</asrwt>
<pdfrwt beam="2">  1        3 0.92911003E-02 0.78086929E+02</pdfrwt>
<pdfrwt beam="1">  1       -3 0.38833169E-02 0.78086929E+02</pdfrwt>
<totfact> 0.54345385E+04</totfact>
</mgrwt>
</event>
<event>
 5    1  0.6027538E+000  0.9161479E+02  0.7546771E-02  0.1298988E+00
         -2   -1    0    0    0  501 -0.00000000000E+00  0.00000000000E+00  0.12767605286E+02  0.12767605286E+02  0.00000000000E+00 0.  1.
          2   -1    0    0  501    0  0.00000000000E+00 -0.00000000000E+00 -0.16434696941E+03  0.16434696941E+03  0.00000000000E+00 0. -1.
         23    2    1    2    0    0  0.00000000000E+00  0.00000000000E+00 -0.15157936412E+03  0.17711457469E+03  0.91614785605E+02 0.  0.
        -13    1    3    3    0    0 -0.26271108710E+02  0.94974876951E+01 -0.56058336502E+01  0.28492083046E+02  0.00000000000E+00 0.  1.
         13    1    3    3    0    0  0.26271108710E+02 -0.94974876951E+01 -0.14597353047E+03  0.14862249165E+03  0.00000000000E+00 0. -1.
<mgrwt>
<rscale>  0 0.91614786E+02</rscale>
<asrwt>0</asrwt>
<pdfrwt beam="2">  1        2 0.25284149E-01 0.91614786E+02</pdfrwt>
<pdfrwt beam="1">  1       -2 0.19642470E-02 0.91614786E+02</pdfrwt>
<totfact> 0.14240760E+05</totfact>
</mgrwt>
</event>
<event>
 5    1  0.6027538E+000  0.8882469E+02  0.7546771E-02  0.1305723E+00
          4   -1    0    0  501    0  0.00000000000E+00  0.00000000000E+00  0.77842983610E+01  0.77842983610E+01  0.00000000000E+00 0. -1.
         -4   -1    0    0    0  501 -0.00000000000E+00 -0.00000000000E+00 -0.25338913264E+03  0.25338913264E+03  0.00000000000E+00 0.  1.
         23    2    1    2    0    0  0.00000000000E+00  0.00000000000E+00 -0.24560483428E+03  0.26117343100E+03  0.88824694987E+02 0.  0.
        -13    1    3    3    0    0 -0.76448882653E+01 -0.38774585588E+02 -0.18237892205E+03  0.18661185389E+03  0.00000000000E+00 0.  1.
         13    1    3    3    0    0  0.76448882653E+01  0.38774585588E+02 -0.63225912230E+02  0.74561577112E+02  0.00000000000E+00 0. -1.
<mgrwt>
<rscale>  0 0.88824695E+02</rscale>
<asrwt>0</asrwt>
<pdfrwt beam="1">  1        4 0.11975846E-02 0.88824695E+02</pdfrwt>
<pdfrwt beam="2">  1       -4 0.38982937E-01 0.88824695E+02</pdfrwt>
<totfact> 0.20445459E+04</totfact>
</mgrwt>
</event>
<event>
 5    1  0.6027538E+000  0.9196159E+02  0.7546771E-02  0.1298170E+00
         -2   -1    0    0    0  501 -0.00000000000E+00  0.00000000000E+00  0.30501874544E+02  0.30501874544E+02  0.00000000000E+00 0. -1.
          2   -1    0    0  501    0  0.00000000000E+00 -0.00000000000E+00 -0.69314865600E+02  0.69314865600E+02  0.00000000000E+00 0.  1.
         23    2    1    2    0    0  0.00000000000E+00  0.00000000000E+00 -0.38812991056E+02  0.99816740144E+02  0.91961586210E+02 0.  0.
        -13    1    3    3    0    0 -0.16936783589E+02  0.40844831459E+02 -0.33096468463E+02  0.55231613411E+02  0.00000000000E+00 0.  1.
         13    1    3    3    0    0  0.16936783589E+02 -0.40844831459E+02 -0.57165225928E+01  0.44585126733E+02  0.00000000000E+00 0. -1.
<mgrwt>
<rscale>  0 0.91961586E+02</rscale>
<asrwt>0</asrwt>
<pdfrwt beam="2">  1        2 0.10663826E-01 0.91961586E+02</pdfrwt>
<pdfrwt beam="1">  1       -2 0.46925961E-02 0.91961586E+02</pdfrwt>
<totfact> 0.10769963E+05</totfact>
</mgrwt>
</event>
<event>
 5    1  0.6027538E+000  0.8925893E+02  0.7546771E-02  0.1304656E+00
         -1   -1    0    0    0  501 -0.00000000000E+00  0.00000000000E+00  0.46537647848E+02  0.46537647848E+02  0.00000000000E+00 0.  1.
          1   -1    0    0  501    0  0.00000000000E+00 -0.00000000000E+00 -0.42799522419E+02  0.42799522419E+02  0.00000000000E+00 0. -1.
         23    2    1    2    0    0  0.00000000000E+00  0.00000000000E+00  0.37381254286E+01  0.89337170267E+02  0.89258929019E+02 0.  0.
        -13    1    3    3    0    0  0.30983763911E+02  0.31717532068E+02  0.69522580914E+01  0.44881280721E+02  0.00000000000E+00 0.  1.
         13    1    3    3    0    0 -0.30983763911E+02 -0.31717532068E+02 -0.32141326629E+01  0.44455889546E+02  0.00000000000E+00 0. -1.
<mgrwt>
<rscale>  0 0.89258929E+02</rscale>
<asrwt>0</asrwt>
<pdfrwt beam="2">  1        1 0.65845419E-02 0.89258929E+02</pdfrwt>
<pdfrwt beam="1">  1       -1 0.71596382E-02 0.89258929E+02</pdfrwt>
<totfact> 0.97231677E+04</totfact>
</mgrwt>
</event>
<event>
 5    1  0.6027538E+000  0.8978201E+02  0.7546771E-02  0.1303380E+00
          1   -1    0    0  501    0  0.00000000000E+00  0.00000000000E+00  0.57085912291E+02  0.57085912291E+02  0.00000000000E+00 0. -1.
         -1   -1    0    0    0  501 -0.00000000000E+00 -0.00000000000E+00 -0.35301220926E+02  0.35301220926E+02  0.00000000000E+00 0.  1.
         23    2    1    2    0    0  0.00000000000E+00  0.00000000000E+00  0.21784691366E+02  0.92387133217E+02  0.89782011596E+02 0.  0.
        -13    1    3    3    0    0 -0.11952704842E+02  0.34178823752E+02  0.38198005247E+02  0.52632183604E+02  0.00000000000E+00 0.  1.
         13    1    3    3    0    0  0.11952704842E+02 -0.34178823752E+02 -0.16413313881E+02  0.39754949613E+02  0.00000000000E+00 0. -1.
<mgrwt>
<rscale>  0 0.89782012E+02</rscale>
<asrwt>0</asrwt>
<pdfrwt beam="1">  1        1 0.87824480E-02 0.89782012E+02</pdfrwt>
<pdfrwt beam="2">  1       -1 0.54309571E-02 0.89782012E+02</pdfrwt>
<totfact> 0.99828326E+04</totfact>
</mgrwt>
</event>
<event>
 5    1  0.6027538E+000  0.9059281E+02  0.7546771E-02  0.1301422E+00
          2   -1    0    0  501    0  0.00000000000E+00  0.00000000000E+00  0.19006156848E+03  0.19006156848E+03  0.00000000000E+00 0. -1.
         -2   -1    0    0    0  501 -0.00000000000E+00 -0.00000000000E+00 -0.10795262440E+02  0.10795262440E+02  0.00000000000E+00 0.  1.
         23    2    1    2    0    0  0.00000000000E+00  0.00000000000E+00  0.17926630604E+03  0.20085683092E+03  0.90592814537E+02 0.  0.
        -13    1    3    3    0    0  0.95014821999E-01  0.37383237110E+02  0.14634377488E+03  0.15104309283E+03  0.00000000000E+00 0. -1.
         13    1    3    3    0    0 -0.95014821999E-01 -0.37383237110E+02  0.32922531155E+02  0.49813738087E+02  0.00000000000E+00 0.  1.
<mgrwt>
<rscale>  0 0.90592815E+02</rscale>
<asrwt>0</asrwt>
<pdfrwt beam="1">  1        2 0.29240239E-01 0.90592815E+02</pdfrwt>
<pdfrwt beam="2">  1       -2 0.16608097E-02 0.90592815E+02</pdfrwt>
<totfact> 0.15451773E+05</totfact>
</mgrwt>
</event>
<event>
 5    1  0.6027538E+000  0.9561889E+02  0.7546771E-02  0.1289788E+00
          2   -1    0    0  501    0  0.00000000000E+00  0.00000000000E+00  0.14699324166E+03  0.14699324166E+03  0.00000000000E+00 0. -1.
         -2   -1    0    0    0  501 -0.00000000000E+00 -0.00000000000E+00 -0.15549988315E+02  0.15549988315E+02  0.00000000000E+00 0.  1.
         23    2    1    2    0    0  0.00000000000E+00  0.00000000000E+00  0.13144325334E+03  0.16254322997E+03  0.95618893324E+02 0.  0.
        -13    1    3    3    0    0  0.35568623264E+01 -0.39826242908E+02  0.11027613172E+03  0.11730134748E+03  0.00000000000E+00 0. -1.
         13    1    3    3    0    0 -0.35568623264E+01  0.39826242908E+02  0.21167121627E+02  0.45241882496E+02  0.00000000000E+00 0.  1.
<mgrwt>
<rscale>  0 0.95618893E+02</rscale>
<asrwt>0</asrwt>
<pdfrwt beam="1">  1        2 0.22614344E-01 0.95618893E+02</pdfrwt>
<pdfrwt beam="2">  1       -2 0.23923060E-02 0.95618893E+02</pdfrwt>
<totfact> 0.12196329E+05</totfact>
</mgrwt>
</event>
<event>
 5    1  0.6027538E+000  0.9081034E+02  0.7546771E-02  0.1300901E+00
          1   -1    0    0  501    0  0.00000000000E+00  0.00000000000E+00  0.42664591007E+02  0.42664591007E+02  0.00000000000E+00 0. -1.
         -1   -1    0    0    0  501 -0.00000000000E+00 -0.00000000000E+00 -0.48321792839E+02  0.48321792839E+02  0.00000000000E+00 0.  1.
         23    2    1    2    0    0  0.00000000000E+00  0.00000000000E+00 -0.56572018319E+01  0.90986383846E+02  0.90810341442E+02 0.  0.
        -13    1    3    3    0    0  0.51817164017E+01  0.45100934306E+02 -0.36578938374E+01  0.45544754335E+02  0.00000000000E+00 0.  1.
         13    1    3    3    0    0 -0.51817164017E+01 -0.45100934306E+02 -0.19993079945E+01  0.45441629511E+02  0.00000000000E+00 0. -1.
<mgrwt>
<rscale>  0 0.90810341E+02</rscale>
<asrwt>0</asrwt>
<pdfrwt beam="1">  1        1 0.65637833E-02 0.90810341E+02</pdfrwt>
<pdfrwt beam="2">  1       -1 0.74341219E-02 0.90810341E+02</pdfrwt>
<totfact> 0.92597179E+04</totfact>
</mgrwt>
</event>
<event>
 5    1  0.6027538E+000  0.9432569E+02  0.7546771E-02  0.1292702E+00
         -2   -1    0    0    0  501 -0.00000000000E+00  0.00000000000E+00  0.17667771458E+02  0.17667771458E+02  0.00000000000E+00 0.  1.
          2   -1    0    0  501    0  0.00000000000E+00 -0.00000000000E+00 -0.12589783335E+03  0.12589783335E+03  0.00000000000E+00 0. -1.
         23    2    1    2    0    0  0.00000000000E+00  0.00000000000E+00 -0.10823006189E+03  0.14356560480E+03  0.94325694201E+02 0.  0.
        -13    1    3    3    0    0 -0.35958575729E+02 -0.10201586756E+02 -0.10338953732E+02  0.38781251980E+02  0.00000000000E+00 0.  1.
         13    1    3    3    0    0  0.35958575729E+02  0.10201586756E+02 -0.97891108157E+02  0.10478435283E+03  0.00000000000E+00 0. -1.
<mgrwt>
<rscale>  0 0.94325694E+02</rscale>
<asrwt>0</asrwt>
<pdfrwt beam="2">  1        2 0.19368898E-01 0.94325694E+02</pdfrwt>
<pdfrwt beam="1">  1       -2 0.27181186E-02 0.94325694E+02</pdfrwt>
<totfact> 0.12018342E+05</totfact>
</mgrwt>
</event>
<event>
 5    1  0.6027538E+000  0.9148907E+02  0.7546771E-02  0.1299285E+00
         -2   -1    0    0    0  501 -0.00000000000E+00  0.00000000000E+00  0.51358685352E+02  0.51358685352E+02  0.00000000000E+00 0.  1.
          2   -1    0    0  501    0  0.00000000000E+00 -0.00000000000E+00 -0.40744083501E+02  0.40744083501E+02  0.00000000000E+00 0. -1.
         23    2    1    2    0    0  0.00000000000E+00  0.00000000000E+00  0.10614601850E+02  0.92102768853E+02  0.91489071796E+02 0.  0.
        -13    1    3    3    0    0 -0.45155890092E+02  0.67262715303E+01  0.24130506607E+01  0.45717829697E+02  0.00000000000E+00 0. -1.
         13    1    3    3    0    0  0.45155890092E+02 -0.67262715303E+01  0.82015511898E+01  0.46384939157E+02  0.00000000000E+00 0.  1.
<mgrwt>
<rscale>  0 0.91489072E+02</rscale>
<asrwt>0</asrwt>
<pdfrwt beam="2">  1        2 0.62683205E-02 0.91489072E+02</pdfrwt>
<pdfrwt beam="1">  1       -2 0.79013363E-02 0.91489072E+02</pdfrwt>
<totfact> 0.94900134E+04</totfact>
</mgrwt>
</event>
<event>
 5    1  0.6027538E+000  0.8975878E+02  0.7546771E-02  0.1303437E+00
         -1   -1    0    0    0  501 -0.00000000000E+00  0.00000000000E+00  0.92178795694E+02  0.92178795694E+02  0.00000000000E+00 0.  1.
          1   -1    0    0  501    0  0.00000000000E+00 -0.00000000000E+00 -0.21850572400E+02  0.21850572400E+02  0.00000000000E+00 0. -1.
         23    2    1    2    0    0  0.00000000000E+00  0.00000000000E+00  0.70328223294E+02  0.11402936809E+03  0.89758775595E+02 0.  0.
        -13    1    3    3    0    0 -0.31093009541E+02 -0.15262124397E+02  0.71419493408E+02  0.79375384862E+02  0.00000000000E+00 0.  1.
         13    1    3    3    0    0  0.31093009541E+02  0.15262124397E+02 -0.10912701139E+01  0.34653983232E+02  0.00000000000E+00 0. -1.
<mgrwt>
<rscale>  0 0.89758776E+02</rscale>
<asrwt>0</asrwt>
<pdfrwt beam="2">  1        1 0.33616266E-02 0.89758776E+02</pdfrwt>
<pdfrwt beam="1">  1       -1 0.14181353E-01 0.89758776E+02</pdfrwt>
<totfact> 0.85980396E+04</totfact>
</mgrwt>
</event>
<event>
 5    1  0.6027538E+000  0.9016649E+02  0.7546771E-02  0.1302449E+00
         -2   -1    0    0    0  501 -0.00000000000E+00  0.00000000000E+00  0.12559779885E+02  0.12559779885E+02  0.00000000000E+00 0.  1.
          2   -1    0    0  501    0  0.00000000000E+00 -0.00000000000E+00 -0.16182599211E+03  0.16182599211E+03  0.00000000000E+00 0. -1.
         23    2    1    2    0    0  0.00000000000E+00  0.00000000000E+00 -0.14926621222E+03  0.17438577199E+03  0.90166486913E+02 0.  0.
        -13    1    3    3    0    0  0.13215660605E+02  0.42371548793E+02 -0.59343527601E+02  0.74105708960E+02  0.00000000000E+00 0.  1.
         13    1    3    3    0    0 -0.13215660605E+02 -0.42371548793E+02 -0.89922684623E+02  0.10028006303E+03  0.00000000000E+00 0. -1.
<mgrwt>
<rscale>  0 0.90166487E+02</rscale>
<asrwt>0</asrwt>
<pdfrwt beam="2">  1        2 0.24896303E-01 0.90166487E+02</pdfrwt>
<pdfrwt beam="1">  1       -2 0.19322741E-02 0.90166487E+02</pdfrwt>
<totfact> 0.14788772E+05</totfact>
</mgrwt>
</event>
<event>
 5    1  0.6027538E+000  0.9071133E+02  0.7546771E-02  0.1301138E+00
          1   -1    0    0  501    0  0.00000000000E+00  0.00000000000E+00  0.13752628725E+02  0.13752628725E+02  0.00000000000E+00 0. -1.
         -1   -1    0    0    0  501 -0.00000000000E+00 -0.00000000000E+00 -0.14958133540E+03  0.14958133540E+03  0.00000000000E+00 0.  1.
         23    2    1    2    0    0  0.00000000000E+00  0.00000000000E+00 -0.13582870668E+03  0.16333396413E+03  0.90711334902E+02 0.  0.
        -13    1    3    3    0    0 -0.39029043191E+02  0.22677980260E+02 -0.59946955452E+02  0.75041285098E+02  0.00000000000E+00 0.  1.
         13    1    3    3    0    0  0.39029043191E+02 -0.22677980260E+02 -0.75881751224E+02  0.88292679028E+02  0.00000000000E+00 0. -1.
<mgrwt>
<rscale>  0 0.90711335E+02</rscale>
<asrwt>0</asrwt>
<pdfrwt beam="1">  1        1 0.21157890E-02 0.90711335E+02</pdfrwt>
<pdfrwt beam="2">  1       -1 0.23012514E-01 0.90711335E+02</pdfrwt>
<totfact> 0.75837755E+04</totfact>
</mgrwt>
</event>
<event>
 5    1  0.6027538E+000  0.8903226E+02  0.7546771E-02  0.1305212E+00
         -4   -1    0    0    0  501 -0.00000000000E+00  0.00000000000E+00  0.46372538563E+02  0.46372538563E+02  0.00000000000E+00 0. -1.
          4   -1    0    0  501    0  0.00000000000E+00 -0.00000000000E+00 -0.42734042767E+02  0.42734042767E+02  0.00000000000E+00 0.  1.
         23    2    1    2    0    0  0.00000000000E+00  0.00000000000E+00  0.36384957961E+01  0.89106581329E+02  0.89032264851E+02 0.  0.
        -13    1    3    3    0    0  0.33444503327E+02 -0.18301873915E+02 -0.21182378179E+02  0.43614063522E+02  0.00000000000E+00 0.  1.
         13    1    3    3    0    0 -0.33444503327E+02  0.18301873915E+02  0.24820873975E+02  0.45492517807E+02  0.00000000000E+00 0. -1.
<mgrwt>
<rscale>  0 0.89032265E+02</rscale>
<asrwt>0</asrwt>
<pdfrwt beam="2">  1        4 0.65744681E-02 0.89032265E+02</pdfrwt>
<pdfrwt beam="1">  1       -4 0.71342367E-02 0.89032265E+02</pdfrwt>
<totfact> 0.28957022E+04</totfact>
</mgrwt>
</event>
<event>
 4    1  0.6027538E+000  0.1419944E+03  0.7546771E-02  0.1210670E+00
          1   -1    0    0  501    0  0.00000000000E+00  0.00000000000E+00  0.20118322098E+02  0.20118322098E+02  0.00000000000E+00 0. -1.
         -1   -1    0    0    0  501 -0.00000000000E+00 -0.00000000000E+00 -0.25054770045E+03  0.25054770045E+03  0.00000000000E+00 0.  1.
        -13    1    1    2    0    0 -0.59407262921E+02  0.17915047220E+02 -0.18098261388E+03  0.19132401399E+03  0.00000000000E+00 0.  1.
         13    1    1    2    0    0  0.59407262921E+02 -0.17915047220E+02 -0.49446764476E+02  0.79342008557E+02  0.00000000000E+00 0. -1.
<mgrwt>
<rscale>  0 0.14199436E+03</rscale>
<asrwt>0</asrwt>
<pdfrwt beam="1">  1        1 0.30951265E-02 0.14199436E+03</pdfrwt>
<pdfrwt beam="2">  1       -1 0.38545799E-01 0.14199436E+03</pdfrwt>
<totfact> 0.20064320E+04</totfact>
</mgrwt>
</event>
<event>
 5    1  0.6027538E+000  0.1018892E+03  0.7546771E-02  0.1276373E+00
          2   -1    0    0  501    0  0.00000000000E+00  0.00000000000E+00  0.11457617978E+03  0.11457617978E+03  0.00000000000E+00 0. -1.
         -2   -1    0    0    0  501 -0.00000000000E+00 -0.00000000000E+00 -0.22651777443E+02  0.22651777443E+02  0.00000000000E+00 0.  1.
         23    2    1    2    0    0  0.00000000000E+00  0.00000000000E+00  0.91924402338E+02  0.13722795722E+03  0.10188923642E+03 0.  0.
        -13    1    3    3    0    0 -0.25060255601E+02  0.44354384138E+02  0.45743691692E+02  0.68467606448E+02  0.00000000000E+00 0.  1.
         13    1    3    3    0    0  0.25060255601E+02 -0.44354384138E+02  0.46180710646E+02  0.68760350776E+02  0.00000000000E+00 0. -1.
<mgrwt>
<rscale>  0 0.10188924E+03</rscale>
<asrwt>0</asrwt>
<pdfrwt beam="1">  1        2 0.17627104E-01 0.10188924E+03</pdfrwt>
<pdfrwt beam="2">  1       -2 0.34848889E-02 0.10188924E+03</pdfrwt>
<totfact> 0.94153268E+04</totfact>
</mgrwt>
</event>
<event>
 4    1  0.6027538E+000  0.1892075E+03  0.7546771E-02  0.1159178E+00
         -1   -1    0    0    0  501 -0.00000000000E+00  0.00000000000E+00  0.54935692387E+03  0.54935692387E+03  0.00000000000E+00 0.  1.
          1   -1    0    0  501    0  0.00000000000E+00 -0.00000000000E+00 -0.16291545116E+02  0.16291545116E+02  0.00000000000E+00 0. -1.
        -13    1    1    2    0    0  0.76384610333E+02  0.19544958088E+02  0.42282894612E+03  0.43011734650E+03  0.00000000000E+00 0.  1.
         13    1    1    2    0    0 -0.76384610333E+02 -0.19544958088E+02  0.11023643263E+03  0.13553112248E+03  0.00000000000E+00 0. -1.
<mgrwt>
<rscale>  0 0.18920754E+03</rscale>
<asrwt>0</asrwt>
<pdfrwt beam="2">  1        1 0.25063920E-02 0.18920754E+03</pdfrwt>
<pdfrwt beam="1">  1       -1 0.84516435E-01 0.18920754E+03</pdfrwt>
<totfact> 0.62234091E+03</totfact>
</mgrwt>
</event>
<event>
 5    1  0.6027538E+000  0.9292751E+02  0.7546771E-02  0.1295913E+00
          4   -1    0    0  501    0  0.00000000000E+00  0.00000000000E+00  0.33905930437E+02  0.33905930437E+02  0.00000000000E+00 0. -1.
         -4   -1    0    0    0  501 -0.00000000000E+00 -0.00000000000E+00 -0.63672650177E+02  0.63672650177E+02  0.00000000000E+00 0.  1.
         23    2    1    2    0    0  0.00000000000E+00  0.00000000000E+00 -0.29766719740E+02  0.97578580613E+02  0.92927508255E+02 0.  0.
        -13    1    3    3    0    0 -0.43478158182E+02 -0.64769958227E+01 -0.30689279782E+02  0.53610946712E+02  0.00000000000E+00 0.  1.
         13    1    3    3    0    0  0.43478158182E+02  0.64769958227E+01  0.92256004231E+00  0.43967633901E+02  0.00000000000E+00 0. -1.
<mgrwt>
<rscale>  0 0.92927508E+02</rscale>
<asrwt>0</asrwt>
<pdfrwt beam="1">  1        4 0.52162970E-02 0.92927508E+02</pdfrwt>
<pdfrwt beam="2">  1       -4 0.97957922E-02 0.92927508E+02</pdfrwt>
<totfact> 0.25267527E+04</totfact>
</mgrwt>
</event>
<event>
 5    1  0.6027538E+000  0.9388892E+02  0.7546771E-02  0.1293698E+00
         -1   -1    0    0    0  501 -0.00000000000E+00  0.00000000000E+00  0.12083237205E+02  0.12083237205E+02  0.00000000000E+00 0.  1.
          1   -1    0    0  501    0  0.00000000000E+00 -0.00000000000E+00 -0.18238343338E+03  0.18238343338E+03  0.00000000000E+00 0. -1.
         23    2    1    2    0    0  0.00000000000E+00  0.00000000000E+00 -0.17030019618E+03  0.19446667059E+03  0.93888919214E+02 0.  0.
        -13    1    3    3    0    0 -0.34698159101E+02 -0.91549029013E+00 -0.19685025580E+02  0.39903641432E+02  0.00000000000E+00 0.  1.
         13    1    3    3    0    0  0.34698159101E+02  0.91549029013E+00 -0.15061517060E+03  0.15456302915E+03  0.00000000000E+00 0. -1.
<mgrwt>
<rscale>  0 0.93888919E+02</rscale>
<asrwt>0</asrwt>
<pdfrwt beam="2">  1        1 0.28058988E-01 0.93888919E+02</pdfrwt>
<pdfrwt beam="1">  1       -1 0.18589597E-02 0.93888919E+02</pdfrwt>
<totfact> 0.10749035E+05</totfact>
</mgrwt>
</event>
<event>
 5    1  0.6027538E+000  0.8936335E+02  0.7546771E-02  0.1304401E+00
         -1   -1    0    0    0  501 -0.00000000000E+00  0.00000000000E+00  0.62387712404E+02  0.62387712404E+02  0.00000000000E+00 0.  1.
          1   -1    0    0  501    0  0.00000000000E+00 -0.00000000000E+00 -0.32000727200E+02  0.32000727200E+02  0.00000000000E+00 0. -1.
         23    2    1    2    0    0  0.00000000000E+00  0.00000000000E+00  0.30386985204E+02  0.94388439605E+02  0.89363351891E+02 0.  0.
        -13    1    3    3    0    0 -0.26729314302E+02  0.25216707707E+01 -0.22530958285E+02  0.35049381560E+02  0.00000000000E+00 0. -1.
         13    1    3    3    0    0  0.26729314302E+02 -0.25216707707E+01  0.52917943489E+02  0.59339058045E+02  0.00000000000E+00 0.  1.
<mgrwt>
<rscale>  0 0.89363352E+02</rscale>
<asrwt>0</asrwt>
<pdfrwt beam="2">  1        1 0.49231888E-02 0.89363352E+02</pdfrwt>
<pdfrwt beam="1">  1       -1 0.95981096E-02 0.89363352E+02</pdfrwt>
<totfact> 0.92749080E+04</totfact>
</mgrwt>
</event>
<event>
 5    1  0.6027538E+000  0.8753148E+02  0.7546771E-02  0.1308942E+00
         -1   -1    0    0    0  501 -0.00000000000E+00  0.00000000000E+00  0.92538450405E+01  0.92538450405E+01  0.00000000000E+00 0.  1.
          1   -1    0    0  501    0  0.00000000000E+00 -0.00000000000E+00 -0.20698855231E+03  0.20698855231E+03  0.00000000000E+00 0. -1.
         23    2    1    2    0    0  0.00000000000E+00  0.00000000000E+00 -0.19773470727E+03  0.21624239735E+03  0.87531479782E+02 0.  0.
        -13    1    3    3    0    0  0.11322708191E+02  0.39989870495E+02 -0.64990019054E+02  0.77143347345E+02  0.00000000000E+00 0.  1.
         13    1    3    3    0    0 -0.11322708191E+02 -0.39989870495E+02 -0.13274468822E+03  0.13909905001E+03  0.00000000000E+00 0. -1.
<mgrwt>
<rscale>  0 0.87531480E+02</rscale>
<asrwt>0</asrwt>
<pdfrwt beam="2">  1        1 0.31844393E-01 0.87531480E+02</pdfrwt>
<pdfrwt beam="1">  1       -1 0.14236685E-02 0.87531480E+02</pdfrwt>
<totfact> 0.13293179E+05</totfact>
</mgrwt>
</event>
<event>
 5    1  0.6027538E+000  0.9426597E+02  0.7546771E-02  0.1292838E+00
          1   -1    0    0  501    0  0.00000000000E+00  0.00000000000E+00  0.26734188638E+02  0.26734188638E+02  0.00000000000E+00 0. -1.
         -1   -1    0    0    0  501 -0.00000000000E+00 -0.00000000000E+00 -0.83096536622E+02  0.83096536622E+02  0.00000000000E+00 0.  1.
         23    2    1    2    0    0  0.00000000000E+00  0.00000000000E+00 -0.56362347985E+02  0.10983072526E+03  0.94265974460E+02 0.  0.
        -13    1    3    3    0    0  0.24960230228E+02  0.21726962925E+01 -0.74695178230E+02  0.78785172165E+02  0.00000000000E+00 0.  1.
         13    1    3    3    0    0 -0.24960230228E+02 -0.21726962925E+01  0.18332830245E+02  0.31045553096E+02  0.00000000000E+00 0. -1.
<mgrwt>
<rscale>  0 0.94265974E+02</rscale>
<asrwt>0</asrwt>
<pdfrwt beam="1">  1        1 0.41129521E-02 0.94265974E+02</pdfrwt>
<pdfrwt beam="2">  1       -1 0.12784082E-01 0.94265974E+02</pdfrwt>
<totfact> 0.77213052E+04</totfact>
</mgrwt>
</event>
<event>
 5    1  0.6027538E+000  0.9043753E+02  0.7546771E-02  0.1301796E+00
         -2   -1    0    0    0  501 -0.00000000000E+00  0.00000000000E+00  0.63992156015E+02  0.63992156015E+02  0.00000000000E+00 0.  1.
          2   -1    0    0  501    0  0.00000000000E+00 -0.00000000000E+00 -0.31952930398E+02  0.31952930398E+02  0.00000000000E+00 0. -1.
         23    2    1    2    0    0  0.00000000000E+00  0.00000000000E+00  0.32039225617E+02  0.95945086413E+02  0.90437534402E+02 0.  0.
        -13    1    3    3    0    0  0.29095169358E+02 -0.23625034762E+02  0.42859848321E+02  0.56935382194E+02  0.00000000000E+00 0.  1.
         13    1    3    3    0    0 -0.29095169358E+02  0.23625034762E+02 -0.10820622704E+02  0.39009704218E+02  0.00000000000E+00 0. -1.
<mgrwt>
<rscale>  0 0.90437534E+02</rscale>
<asrwt>0</asrwt>
<pdfrwt beam="2">  1        2 0.49158355E-02 0.90437534E+02</pdfrwt>
<pdfrwt beam="1">  1       -2 0.98449471E-02 0.90437534E+02</pdfrwt>
<totfact> 0.92144074E+04</totfact>
</mgrwt>
</event>
<event>
 5    1  0.6027538E+000  0.9199059E+02  0.7546771E-02  0.1298102E+00
          2   -1    0    0  501    0  0.00000000000E+00  0.00000000000E+00  0.13708634292E+03  0.13708634292E+03  0.00000000000E+00 0. -1.
         -2   -1    0    0    0  501 -0.00000000000E+00 -0.00000000000E+00 -0.15432369836E+02  0.15432369836E+02  0.00000000000E+00 0.  1.
         23    2    1    2    0    0  0.00000000000E+00  0.00000000000E+00  0.12165397308E+03  0.15251871275E+03  0.91990589591E+02 0.  0.
        -13    1    3    3    0    0  0.30245977300E+02  0.34569913487E+02  0.56879359659E+02  0.73110598524E+02  0.00000000000E+00 0. -1.
         13    1    3    3    0    0 -0.30245977300E+02 -0.34569913487E+02  0.64774613422E+02  0.79408114228E+02  0.00000000000E+00 0.  1.
<mgrwt>
<rscale>  0 0.91990590E+02</rscale>
<asrwt>0</asrwt>
<pdfrwt beam="1">  1        2 0.21090206E-01 0.91990590E+02</pdfrwt>
<pdfrwt beam="2">  1       -2 0.23742108E-02 0.91990590E+02</pdfrwt>
<totfact> 0.13239286E+05</totfact>
</mgrwt>
</event>
<event>
 5    1  0.6027538E+000  0.8836080E+02  0.7546771E-02  0.1306870E+00
         -2   -1    0    0    0  501 -0.00000000000E+00  0.00000000000E+00  0.20721460770E+02  0.20721460770E+02  0.00000000000E+00 0.  1.
          2   -1    0    0  501    0  0.00000000000E+00 -0.00000000000E+00 -0.94197410530E+02  0.94197410530E+02  0.00000000000E+00 0. -1.
         23    2    1    2    0    0  0.00000000000E+00  0.00000000000E+00 -0.73475949760E+02  0.11491887130E+03  0.88360804589E+02 0.  0.
        -13    1    3    3    0    0 -0.62114693571E+01 -0.16896986970E+02  0.15734861078E+02  0.23909754775E+02  0.00000000000E+00 0.  1.
         13    1    3    3    0    0  0.62114693571E+01  0.16896986970E+02 -0.89210810838E+02  0.91009116524E+02  0.00000000000E+00 0. -1.
<mgrwt>
<rscale>  0 0.88360805E+02</rscale>
<asrwt>0</asrwt>
<pdfrwt beam="2">  1        2 0.14491909E-01 0.88360805E+02</pdfrwt>
<pdfrwt beam="1">  1       -2 0.31879171E-02 0.88360805E+02</pdfrwt>
<totfact> 0.13134156E+05</totfact>
</mgrwt>
</event>
<event>
 5    1  0.6027538E+000  0.9111848E+02  0.7546771E-02  0.1300166E+00
          1   -1    0    0  501    0  0.00000000000E+00  0.00000000000E+00  0.27771596268E+03  0.27771596268E+03  0.00000000000E+00 0. -1.
         -1   -1    0    0    0  501 -0.00000000000E+00 -0.00000000000E+00 -0.74739823150E+01  0.74739823150E+01  0.00000000000E+00 0.  1.
         23    2    1    2    0    0  0.00000000000E+00  0.00000000000E+00  0.27024198037E+03  0.28518994500E+03  0.91118476583E+02 0.  0.
        -13    1    3    3    0    0  0.42136429914E+02 -0.12604137750E+02  0.17232593397E+03  0.17784985390E+03  0.00000000000E+00 0.  1.
         13    1    3    3    0    0 -0.42136429914E+02  0.12604137750E+02  0.97916046402E+02  0.10734009110E+03  0.00000000000E+00 0. -1.
<mgrwt>
<rscale>  0 0.91118477E+02</rscale>
<asrwt>0</asrwt>
<pdfrwt beam="1">  1        1 0.42725525E-01 0.91118477E+02</pdfrwt>
<pdfrwt beam="2">  1       -1 0.11498436E-02 0.91118477E+02</pdfrwt>
<totfact> 0.12644833E+05</totfact>
</mgrwt>
</event>
<event>
 5    1  0.6027538E+000  0.9159611E+02  0.7546771E-02  0.1299032E+00
          2   -1    0    0  501    0  0.00000000000E+00  0.00000000000E+00  0.29966716105E+02  0.29966716105E+02  0.00000000000E+00 0.  1.
         -2   -1    0    0    0  501 -0.00000000000E+00 -0.00000000000E+00 -0.69993046936E+02  0.69993046936E+02  0.00000000000E+00 0. -1.
         23    2    1    2    0    0  0.00000000000E+00  0.00000000000E+00 -0.40026330831E+02  0.99959763040E+02  0.91596108363E+02 0.  0.
        -13    1    3    3    0    0  0.31631914931E+02 -0.24765312248E+02  0.39848176514E+01  0.40370502903E+02  0.00000000000E+00 0.  1.
         13    1    3    3    0    0 -0.31631914931E+02  0.24765312248E+02 -0.44011148482E+02  0.59589260137E+02  0.00000000000E+00 0. -1.
<mgrwt>
<rscale>  0 0.91596108E+02</rscale>
<asrwt>0</asrwt>
<pdfrwt beam="1">  1        2 0.46102641E-02 0.91596108E+02</pdfrwt>
<pdfrwt beam="2">  1       -2 0.10768161E-01 0.91596108E+02</pdfrwt>
<totfact> 0.87241882E+04</totfact>
</mgrwt>
</event>
<event>
 5    1  0.6027538E+000  0.9014033E+02  0.7546771E-02  0.1302512E+00
         -2   -1    0    0    0  501 -0.00000000000E+00  0.00000000000E+00  0.82811675678E+01  0.82811675678E+01  0.00000000000E+00 0.  1.
          2   -1    0    0  501    0  0.00000000000E+00 -0.00000000000E+00 -0.24529387924E+03  0.24529387924E+03  0.00000000000E+00 0. -1.
         23    2    1    2    0    0  0.00000000000E+00  0.00000000000E+00 -0.23701271167E+03  0.25357504681E+03  0.90140328763E+02 0.  0.
        -13    1    3    3    0    0 -0.17164551157E+02 -0.33257244806E+02 -0.47861132004E+02  0.60756514920E+02  0.00000000000E+00 0.  1.
         13    1    3    3    0    0  0.17164551157E+02  0.33257244806E+02 -0.18915157967E+03  0.19281853189E+03  0.00000000000E+00 0. -1.
<mgrwt>
<rscale>  0 0.90140329E+02</rscale>
<asrwt>0</asrwt>
<pdfrwt beam="2">  1        2 0.37737522E-01 0.90140329E+02</pdfrwt>
<pdfrwt beam="1">  1       -2 0.12740257E-02 0.90140329E+02</pdfrwt>
<totfact> 0.17186329E+05</totfact>
</mgrwt>
</event>
<event>
 5    1  0.6027538E+000  0.9091775E+02  0.7546771E-02  0.1300644E+00
          2   -1    0    0  501    0  0.00000000000E+00  0.00000000000E+00  0.98059476085E+02  0.98059476085E+02  0.00000000000E+00 0. -1.
         -2   -1    0    0    0  501 -0.00000000000E+00 -0.00000000000E+00 -0.21074039510E+02  0.21074039510E+02  0.00000000000E+00 0.  1.
         23    2    1    2    0    0  0.00000000000E+00  0.00000000000E+00  0.76985436575E+02  0.11913351560E+03  0.90917749057E+02 0.  0.
        -13    1    3    3    0    0 -0.11940640054E+02  0.22822921923E+02  0.87574579706E+02  0.91284016457E+02  0.00000000000E+00 0. -1.
         13    1    3    3    0    0  0.11940640054E+02 -0.22822921923E+02 -0.10589143131E+02  0.27849499138E+02  0.00000000000E+00 0.  1.
<mgrwt>
<rscale>  0 0.90917749E+02</rscale>
<asrwt>0</asrwt>
<pdfrwt beam="1">  1        2 0.15086073E-01 0.90917749E+02</pdfrwt>
<pdfrwt beam="2">  1       -2 0.32421600E-02 0.90917749E+02</pdfrwt>
<totfact> 0.12290810E+05</totfact>
</mgrwt>
</event>
<event>
 5    1  0.6027538E+000  0.9071202E+02  0.7546771E-02  0.1301137E+00
         -2   -1    0    0    0  501 -0.00000000000E+00  0.00000000000E+00  0.80927717068E+01  0.80927717068E+01  0.00000000000E+00 0.  1.
          2   -1    0    0  501    0  0.00000000000E+00 -0.00000000000E+00 -0.25419817214E+03  0.25419817214E+03  0.00000000000E+00 0. -1.
         23    2    1    2    0    0  0.00000000000E+00  0.00000000000E+00 -0.24610540043E+03  0.26229094385E+03  0.90712022917E+02 0.  0.
        -13    1    3    3    0    0 -0.42304915829E+02 -0.13032624699E+02 -0.15162013915E+03  0.15795006112E+03  0.00000000000E+00 0. -1.
         13    1    3    3    0    0  0.42304915829E+02  0.13032624699E+02 -0.94485261278E+02  0.10434088273E+03  0.00000000000E+00 0.  1.
<mgrwt>
<rscale>  0 0.90712023E+02</rscale>
<asrwt>0</asrwt>
<pdfrwt beam="2">  1        2 0.39107409E-01 0.90712023E+02</pdfrwt>
<pdfrwt beam="1">  1       -2 0.12450419E-02 0.90712023E+02</pdfrwt>
<totfact> 0.17122413E+05</totfact>
</mgrwt>
</event>
<event>
 5    1  0.6027538E+000  0.9015362E+02  0.7546771E-02  0.1302480E+00
          1   -1    0    0  501    0  0.00000000000E+00  0.00000000000E+00  0.13527013132E+02  0.13527013132E+02  0.00000000000E+00 0. -1.
         -1   -1    0    0    0  501 -0.00000000000E+00 -0.00000000000E+00 -0.15021193377E+03  0.15021193377E+03  0.00000000000E+00 0.  1.
         23    2    1    2    0    0  0.00000000000E+00  0.00000000000E+00 -0.13668492064E+03  0.16373894691E+03  0.90153620023E+02 0.  0.
        -13    1    3    3    0    0 -0.19592521596E+02  0.40547172809E+02 -0.71965207966E+02  0.84893646894E+02  0.00000000000E+00 0. -1.
         13    1    3    3    0    0  0.19592521596E+02 -0.40547172809E+02 -0.64719712676E+02  0.78845300013E+02  0.00000000000E+00 0.  1.
<mgrwt>
<rscale>  0 0.90153620E+02</rscale>
<asrwt>0</asrwt>
<pdfrwt beam="1">  1        1 0.20810789E-02 0.90153620E+02</pdfrwt>
<pdfrwt beam="2">  1       -1 0.23109528E-01 0.90153620E+02</pdfrwt>
<totfact> 0.76984062E+04</totfact>
</mgrwt>
</event>
<event>
 5    1  0.6027538E+000  0.9145016E+02  0.7546771E-02  0.1299377E+00
         -3   -1    0    0    0  501 -0.00000000000E+00  0.00000000000E+00  0.18475800484E+02  0.18475800484E+02  0.00000000000E+00 0.  1.
          3   -1    0    0  501    0  0.00000000000E+00 -0.00000000000E+00 -0.11316330889E+03  0.11316330889E+03  0.00000000000E+00 0. -1.
         23    2    1    2    0    0  0.00000000000E+00  0.00000000000E+00 -0.94687508409E+02  0.13163910938E+03  0.91450155106E+02 0.  0.
        -13    1    3    3    0    0  0.44984014159E+02  0.38998248330E+01 -0.36962386417E+02  0.58352276504E+02  0.00000000000E+00 0. -1.
         13    1    3    3    0    0 -0.44984014159E+02 -0.38998248330E+01 -0.57725121992E+02  0.73286832873E+02  0.00000000000E+00 0.  1.
<mgrwt>
<rscale>  0 0.91450155E+02</rscale>
<asrwt>0</asrwt>
<pdfrwt beam="2">  1        3 0.17409740E-01 0.91450155E+02</pdfrwt>
<pdfrwt beam="1">  1       -3 0.28424309E-02 0.91450155E+02</pdfrwt>
<totfact> 0.32205332E+04</totfact>
</mgrwt>
</event>
<event>
 5    1  0.6027538E+000  0.9191612E+02  0.7546771E-02  0.1298277E+00
         -3   -1    0    0    0  501 -0.00000000000E+00  0.00000000000E+00  0.65345066911E+02  0.65345066911E+02  0.00000000000E+00 0.  1.
          3   -1    0    0  501    0  0.00000000000E+00 -0.00000000000E+00 -0.32322921109E+02  0.32322921109E+02  0.00000000000E+00 0. -1.
         23    2    1    2    0    0  0.00000000000E+00  0.00000000000E+00  0.33022145803E+02  0.97667988020E+02  0.91916123561E+02 0.  0.
        -13    1    3    3    0    0  0.61892193129E+01  0.11023500513E+02 -0.30438968624E+02  0.32959896999E+02  0.00000000000E+00 0. -1.
         13    1    3    3    0    0 -0.61892193129E+01 -0.11023500513E+02  0.63461114427E+02  0.64708091021E+02  0.00000000000E+00 0.  1.
<mgrwt>
<rscale>  0 0.91916124E+02</rscale>
<asrwt>0</asrwt>
<pdfrwt beam="2">  1        3 0.49727571E-02 0.91916124E+02</pdfrwt>
<pdfrwt beam="1">  1       -3 0.10053087E-01 0.91916124E+02</pdfrwt>
<totfact> 0.34086640E+04</totfact>
</mgrwt>
</event>
<event>
 5    1  0.6027538E+000  0.9006685E+02  0.7546771E-02  0.1302690E+00
         -1   -1    0    0    0  501 -0.00000000000E+00  0.00000000000E+00  0.13931765536E+03  0.13931765536E+03  0.00000000000E+00 0.  1.
          1   -1    0    0  501    0  0.00000000000E+00 -0.00000000000E+00 -0.14556729212E+02  0.14556729212E+02  0.00000000000E+00 0. -1.
         23    2    1    2    0    0  0.00000000000E+00  0.00000000000E+00  0.12476092614E+03  0.15387438457E+03  0.90066850359E+02 0.  0.
        -13    1    3    3    0    0  0.67150386241E+01  0.40162985864E+02  0.29524404805E+02  0.50297590960E+02  0.00000000000E+00 0. -1.
         13    1    3    3    0    0 -0.67150386241E+01 -0.40162985864E+02  0.95236521339E+02  0.10357679361E+03  0.00000000000E+00 0.  1.
<mgrwt>
<rscale>  0 0.90066850E+02</rscale>
<asrwt>0</asrwt>
<pdfrwt beam="2">  1        1 0.22394969E-02 0.90066850E+02</pdfrwt>
<pdfrwt beam="1">  1       -1 0.21433485E-01 0.90066850E+02</pdfrwt>
<totfact> 0.78514748E+04</totfact>
</mgrwt>
</event>
<event>
 5    1  0.6027538E+000  0.9010689E+02  0.7546771E-02  0.1302593E+00
         -3   -1    0    0    0  501 -0.00000000000E+00  0.00000000000E+00  0.67369100379E+02  0.67369100379E+02  0.00000000000E+00 0.  1.
          3   -1    0    0  501    0  0.00000000000E+00 -0.00000000000E+00 -0.30129731986E+02  0.30129731986E+02  0.00000000000E+00 0. -1.
         23    2    1    2    0    0  0.00000000000E+00  0.00000000000E+00  0.37239368393E+02  0.97498832364E+02  0.90106890714E+02 0.  0.
        -13    1    3    3    0    0  0.15328292524E+02  0.41787003471E+02  0.11068448022E+02  0.45865245583E+02  0.00000000000E+00 0.  1.
         13    1    3    3    0    0 -0.15328292524E+02 -0.41787003471E+02  0.26170920371E+02  0.51633586781E+02  0.00000000000E+00 0. -1.
<mgrwt>
<rscale>  0 0.90106891E+02</rscale>
<asrwt>0</asrwt>
<pdfrwt beam="2">  1        3 0.46353434E-02 0.90106891E+02</pdfrwt>
<pdfrwt beam="1">  1       -3 0.10364477E-01 0.90106891E+02</pdfrwt>
<totfact> 0.35994949E+04</totfact>
</mgrwt>
</event>
<event>
 5    1  0.6027538E+000  0.9278082E+02  0.7546771E-02  0.1296254E+00
         -2   -1    0    0    0  501 -0.00000000000E+00  0.00000000000E+00  0.79793065854E+01  0.79793065854E+01  0.00000000000E+00 0.  1.
          2   -1    0    0  501    0  0.00000000000E+00 -0.00000000000E+00 -0.26970639481E+03  0.26970639481E+03  0.00000000000E+00 0. -1.
         23    2    1    2    0    0  0.00000000000E+00  0.00000000000E+00 -0.26172708822E+03  0.27768570139E+03  0.92780817246E+02 0.  0.
        -13    1    3    3    0    0  0.28781099267E+02 -0.25786696429E+02 -0.20768109535E+03  0.21124569287E+03  0.00000000000E+00 0. -1.
         13    1    3    3    0    0 -0.28781099267E+02  0.25786696429E+02 -0.54045992869E+02  0.66440008526E+02  0.00000000000E+00 0.  1.
<mgrwt>
<rscale>  0 0.92780817E+02</rscale>
<asrwt>0</asrwt>
<pdfrwt beam="2">  1        2 0.41493292E-01 0.92780817E+02</pdfrwt>
<pdfrwt beam="1">  1       -2 0.12275856E-02 0.92780817E+02</pdfrwt>
<totfact> 0.16478746E+05</totfact>
</mgrwt>
</event>
<event>
 5    1  0.6027538E+000  0.9010130E+02  0.7546771E-02  0.1302607E+00
         -2   -1    0    0    0  501 -0.00000000000E+00  0.00000000000E+00  0.49803548768E+02  0.49803548768E+02  0.00000000000E+00 0.  1.
          2   -1    0    0  501    0  0.00000000000E+00 -0.00000000000E+00 -0.40751334345E+02  0.40751334345E+02  0.00000000000E+00 0. -1.
         23    2    1    2    0    0  0.00000000000E+00  0.00000000000E+00  0.90522144227E+01  0.90554883113E+02  0.90101300044E+02 0.  0.
        -13    1    3    3    0    0 -0.41175652309E+02 -0.10898643910E+02  0.19274663473E+02  0.46751763968E+02  0.00000000000E+00 0.  1.
         13    1    3    3    0    0  0.41175652309E+02  0.10898643910E+02 -0.10222449050E+02  0.43803119144E+02  0.00000000000E+00 0. -1.
<mgrwt>
<rscale>  0 0.90101300E+02</rscale>
<asrwt>0</asrwt>
<pdfrwt beam="2">  1        2 0.62694361E-02 0.90101300E+02</pdfrwt>
<pdfrwt beam="1">  1       -2 0.76620844E-02 0.90101300E+02</pdfrwt>
<totfact> 0.99189348E+04</totfact>
</mgrwt>
</event>
<event>
 5    1  0.6027538E+000  0.9116423E+02  0.7546771E-02  0.1300057E+00
         -3   -1    0    0    0  501 -0.00000000000E+00  0.00000000000E+00  0.13265339489E+03  0.13265339489E+03  0.00000000000E+00 0.  1.
          3   -1    0    0  501    0  0.00000000000E+00 -0.00000000000E+00 -0.15662842067E+02  0.15662842067E+02  0.00000000000E+00 0. -1.
         23    2    1    2    0    0  0.00000000000E+00  0.00000000000E+00  0.11699055282E+03  0.14831623696E+03  0.91164229254E+02 0.  0.
        -13    1    3    3    0    0  0.52332568516E+01 -0.45254780792E+02  0.60987700252E+02  0.76124120644E+02  0.00000000000E+00 0.  1.
         13    1    3    3    0    0 -0.52332568516E+01  0.45254780792E+02  0.56002852572E+02  0.72192116315E+02  0.00000000000E+00 0. -1.
<mgrwt>
<rscale>  0 0.91164229E+02</rscale>
<asrwt>0</asrwt>
<pdfrwt beam="2">  1        3 0.24096681E-02 0.91164229E+02</pdfrwt>
<pdfrwt beam="1">  1       -3 0.20408214E-01 0.91164229E+02</pdfrwt>
<totfact> 0.31423266E+04</totfact>
</mgrwt>
</event>
<event>
 5    1  0.6027538E+000  0.9128390E+02  0.7546771E-02  0.1299772E+00
          3   -1    0    0  501    0  0.00000000000E+00  0.00000000000E+00  0.51497793473E+02  0.51497793473E+02  0.00000000000E+00 0. -1.
         -3   -1    0    0    0  501 -0.00000000000E+00 -0.00000000000E+00 -0.40451975822E+02  0.40451975822E+02  0.00000000000E+00 0.  1.
         23    2    1    2    0    0  0.00000000000E+00  0.00000000000E+00  0.11045817651E+02  0.91949769296E+02  0.91283897736E+02 0.  0.
        -13    1    3    3    0    0  0.23431115132E+02 -0.10300882879E+01 -0.33917646509E+02  0.41236937118E+02  0.00000000000E+00 0.  1.
         13    1    3    3    0    0 -0.23431115132E+02  0.10300882879E+01  0.44963464160E+02  0.50712832177E+02  0.00000000000E+00 0. -1.
<mgrwt>
<rscale>  0 0.91283898E+02</rscale>
<asrwt>0</asrwt>
<pdfrwt beam="1">  1        3 0.79227374E-02 0.91283898E+02</pdfrwt>
<pdfrwt beam="2">  1       -3 0.62233809E-02 0.91283898E+02</pdfrwt>
<totfact> 0.35166713E+04</totfact>
</mgrwt>
</event>
<event>
 5    1  0.6027538E+000  0.9751681E+02  0.7546771E-02  0.1285606E+00
          1   -1    0    0  501    0  0.00000000000E+00  0.00000000000E+00  0.62937225190E+02  0.62937225190E+02  0.00000000000E+00 0. -1.
         -1   -1    0    0    0  501 -0.00000000000E+00 -0.00000000000E+00 -0.37773858284E+02  0.37773858284E+02  0.00000000000E+00 0.  1.
         23    2    1    2    0    0  0.00000000000E+00  0.00000000000E+00  0.25163366906E+02  0.10071108347E+03  0.97516805221E+02 0.  0.
        -13    1    3    3    0    0  0.35597598488E+02  0.10137268139E+02  0.45361380977E+02  0.58545777880E+02  0.00000000000E+00 0. -1.
         13    1    3    3    0    0 -0.35597598488E+02 -0.10137268139E+02 -0.20198014071E+02  0.42165305594E+02  0.00000000000E+00 0.  1.
<mgrwt>
<rscale>  0 0.97516805E+02</rscale>
<asrwt>0</asrwt>
<pdfrwt beam="1">  1        1 0.96826500E-02 0.97516805E+02</pdfrwt>
<pdfrwt beam="2">  1       -1 0.58113628E-02 0.97516805E+02</pdfrwt>
<totfact> 0.80499965E+04</totfact>
</mgrwt>
</event>
<event>
 5    1  0.6027538E+000  0.9480943E+02  0.7546771E-02  0.1291606E+00
          1   -1    0    0  501    0  0.00000000000E+00  0.00000000000E+00  0.41619074898E+02  0.41619074898E+02  0.00000000000E+00 0. -1.
         -1   -1    0    0    0  501 -0.00000000000E+00 -0.00000000000E+00 -0.53994635720E+02  0.53994635720E+02  0.00000000000E+00 0.  1.
         23    2    1    2    0    0  0.00000000000E+00  0.00000000000E+00 -0.12375560822E+02  0.95613710618E+02  0.94809425441E+02 0.  0.
        -13    1    3    3    0    0 -0.30545797120E+02 -0.26981593608E+02 -0.30603794891E+02  0.50967091119E+02  0.00000000000E+00 0.  1.
         13    1    3    3    0    0  0.30545797120E+02  0.26981593608E+02  0.18228234070E+02  0.44646619499E+02  0.00000000000E+00 0. -1.
<mgrwt>
<rscale>  0 0.94809425E+02</rscale>
<asrwt>0</asrwt>
<pdfrwt beam="1">  1        1 0.64029346E-02 0.94809425E+02</pdfrwt>
<pdfrwt beam="2">  1       -1 0.83068670E-02 0.94809425E+02</pdfrwt>
<totfact> 0.81660414E+04</totfact>
</mgrwt>
</event>
<event>
 5    1  0.6027538E+000  0.9261315E+02  0.7546771E-02  0.1296644E+00
          3   -1    0    0  501    0  0.00000000000E+00  0.00000000000E+00  0.32773096824E+02  0.32773096824E+02  0.00000000000E+00 0. -1.
         -3   -1    0    0    0  501 -0.00000000000E+00 -0.00000000000E+00 -0.65428624865E+02  0.65428624865E+02  0.00000000000E+00 0.  1.
         23    2    1    2    0    0  0.00000000000E+00  0.00000000000E+00 -0.32655528040E+02  0.98201721689E+02  0.92613145023E+02 0.  0.
        -13    1    3    3    0    0  0.13348135535E+02 -0.38613563018E+02 -0.39440296011E+02  0.56786591029E+02  0.00000000000E+00 0. -1.
         13    1    3    3    0    0 -0.13348135535E+02  0.38613563018E+02  0.67847679710E+01  0.41415130660E+02  0.00000000000E+00 0.  1.
<mgrwt>
<rscale>  0 0.92613145E+02</rscale>
<asrwt>0</asrwt>
<pdfrwt beam="1">  1        3 0.50420150E-02 0.92613145E+02</pdfrwt>
<pdfrwt beam="2">  1       -3 0.10065942E-01 0.92613145E+02</pdfrwt>
<totfact> 0.33352470E+04</totfact>
</mgrwt>
</event>
<event>
 5    1  0.6027538E+000  0.9106360E+02  0.7546771E-02  0.1300296E+00
          1   -1    0    0  501    0  0.00000000000E+00  0.00000000000E+00  0.96950163493E+01  0.96950163493E+01  0.00000000000E+00 0. -1.
         -1   -1    0    0    0  501 -0.00000000000E+00 -0.00000000000E+00 -0.21383612439E+03  0.21383612439E+03  0.00000000000E+00 0.  1.
         23    2    1    2    0    0  0.00000000000E+00  0.00000000000E+00 -0.20414110804E+03  0.22353114074E+03  0.91063598041E+02 0.  0.
        -13    1    3    3    0    0  0.33696388701E+02 -0.47618997397E+01 -0.27818393205E+02  0.43954354746E+02  0.00000000000E+00 0. -1.
         13    1    3    3    0    0 -0.33696388701E+02  0.47618997397E+01 -0.17632271483E+03  0.17957678599E+03  0.00000000000E+00 0.  1.
<mgrwt>
<rscale>  0 0.91063598E+02</rscale>
<asrwt>0</asrwt>
<pdfrwt beam="1">  1        1 0.14915410E-02 0.91063598E+02</pdfrwt>
<pdfrwt beam="2">  1       -1 0.32897865E-01 0.91063598E+02</pdfrwt>
<totfact> 0.68297378E+04</totfact>
</mgrwt>
</event>
<event>
 5    1  0.6027538E+000  0.9205398E+02  0.7546771E-02  0.1297953E+00
         -2   -1    0    0    0  501 -0.00000000000E+00  0.00000000000E+00  0.75172124875E+01  0.75172124875E+01  0.00000000000E+00 0.  1.
          2   -1    0    0  501    0  0.00000000000E+00 -0.00000000000E+00 -0.28181776342E+03  0.28181776342E+03  0.00000000000E+00 0. -1.
         23    2    1    2    0    0  0.00000000000E+00  0.00000000000E+00 -0.27430055093E+03  0.28933497591E+03  0.92053984387E+02 0.  0.
        -13    1    3    3    0    0  0.45119751112E+02 -0.91392651824E-02 -0.10856844377E+03  0.11757082549E+03  0.00000000000E+00 0.  1.
         13    1    3    3    0    0 -0.45119751112E+02  0.91392651824E-02 -0.16573210716E+03  0.17176415041E+03  0.00000000000E+00 0. -1.
<mgrwt>
<rscale>  0 0.92053984E+02</rscale>
<asrwt>0</asrwt>
<pdfrwt beam="2">  1        2 0.43356572E-01 0.92053984E+02</pdfrwt>
<pdfrwt beam="1">  1       -2 0.11564944E-02 0.92053984E+02</pdfrwt>
<totfact> 0.17108278E+05</totfact>
</mgrwt>
</event>
<event>
 5    1  0.6027538E+000  0.8588797E+02  0.7546771E-02  0.1313127E+00
          1   -1    0    0  501    0  0.00000000000E+00  0.00000000000E+00  0.41065516500E+01  0.41065516500E+01  0.00000000000E+00 0. -1.
         -1   -1    0    0    0  501 -0.00000000000E+00 -0.00000000000E+00 -0.44908380430E+03  0.44908380430E+03  0.00000000000E+00 0.  1.
         23    2    1    2    0    0  0.00000000000E+00  0.00000000000E+00 -0.44497725265E+03  0.45319035595E+03  0.85887969763E+02 0.  0.
        -13    1    3    3    0    0  0.24514518386E+02  0.34796392603E+02 -0.19243774599E+03  0.19708890540E+03  0.00000000000E+00 0. -1.
         13    1    3    3    0    0 -0.24514518386E+02 -0.34796392603E+02 -0.25253950666E+03  0.25610145055E+03  0.00000000000E+00 0.  1.
<mgrwt>
<rscale>  0 0.85887970E+02</rscale>
<asrwt>0</asrwt>
<pdfrwt beam="1">  1        1 0.63177711E-03 0.85887970E+02</pdfrwt>
<pdfrwt beam="2">  1       -1 0.69089824E-01 0.85887970E+02</pdfrwt>
<totfact> 0.58581898E+04</totfact>
</mgrwt>
</event>
<event>
 5    1  0.6027538E+000  0.9641483E+02  0.7546771E-02  0.1288021E+00
         -2   -1    0    0    0  501 -0.00000000000E+00  0.00000000000E+00  0.45838116628E+01  0.45838116628E+01  0.00000000000E+00 0. -1.
          2   -1    0    0  501    0  0.00000000000E+00 -0.00000000000E+00 -0.50699176944E+03  0.50699176944E+03  0.00000000000E+00 0.  1.
         23    2    1    2    0    0  0.00000000000E+00  0.00000000000E+00 -0.50240795778E+03  0.51157558111E+03  0.96414828439E+02 0.  0.
        -13    1    3    3    0    0  0.46272852423E+02 -0.11850791537E+02 -0.28572822792E+03  0.28969335229E+03  0.00000000000E+00 0.  1.
         13    1    3    3    0    0 -0.46272852423E+02  0.11850791537E+02 -0.21667972986E+03  0.22188222881E+03  0.00000000000E+00 0. -1.
<mgrwt>
<rscale>  0 0.96414828E+02</rscale>
<asrwt>0</asrwt>
<pdfrwt beam="2">  1        2 0.77998716E-01 0.96414828E+02</pdfrwt>
<pdfrwt beam="1">  1       -2 0.70520196E-03 0.96414828E+02</pdfrwt>
<totfact> 0.18663318E+05</totfact>
</mgrwt>
</event>
<event>
 5    1  0.6027538E+000  0.8456308E+02  0.7546771E-02  0.1316579E+00
         -2   -1    0    0    0  501 -0.00000000000E+00  0.00000000000E+00  0.19728165598E+03  0.19728165598E+03  0.00000000000E+00 0.  1.
          2   -1    0    0  501    0  0.00000000000E+00 -0.00000000000E+00 -0.90618095262E+01  0.90618095262E+01  0.00000000000E+00 0. -1.
         23    2    1    2    0    0  0.00000000000E+00  0.00000000000E+00  0.18821984646E+03  0.20634346551E+03  0.84563083897E+02 0.  0.
        -13    1    3    3    0    0  0.28881867093E+02  0.97936162743E+01  0.16557031032E+03  0.16835559042E+03  0.00000000000E+00 0.  1.
         13    1    3    3    0    0 -0.28881867093E+02 -0.97936162743E+01  0.22649536136E+02  0.37987875088E+02  0.00000000000E+00 0. -1.
<mgrwt>
<rscale>  0 0.84563084E+02</rscale>
<asrwt>0</asrwt>
<pdfrwt beam="2">  1        2 0.13941247E-02 0.84563084E+02</pdfrwt>
<pdfrwt beam="1">  1       -2 0.30351021E-01 0.84563084E+02</pdfrwt>
<totfact> 0.75948247E+04</totfact>
</mgrwt>
</event>
<event>
 5    1  0.6027538E+000  0.8843938E+02  0.7546771E-02  0.1306676E+00
          1   -1    0    0  501    0  0.00000000000E+00  0.00000000000E+00  0.16961344971E+02  0.16961344971E+02  0.00000000000E+00 0. -1.
         -1   -1    0    0    0  501 -0.00000000000E+00 -0.00000000000E+00 -0.11528454620E+03  0.11528454620E+03  0.00000000000E+00 0.  1.
         23    2    1    2    0    0  0.00000000000E+00  0.00000000000E+00 -0.98323201227E+02  0.13224589117E+03  0.88439379416E+02 0.  0.
        -13    1    3    3    0    0  0.41186202245E+02 -0.15736599206E+02 -0.44104572474E+02  0.62363107067E+02  0.00000000000E+00 0.  1.
         13    1    3    3    0    0 -0.41186202245E+02  0.15736599206E+02 -0.54218628753E+02  0.69882784102E+02  0.00000000000E+00 0. -1.
<mgrwt>
<rscale>  0 0.88439379E+02</rscale>
<asrwt>0</asrwt>
<pdfrwt beam="1">  1        1 0.26094377E-02 0.88439379E+02</pdfrwt>
<pdfrwt beam="2">  1       -1 0.17736084E-01 0.88439379E+02</pdfrwt>
<totfact> 0.85646099E+04</totfact>
</mgrwt>
</event>
<event>
 5    1  0.6027538E+000  0.9208332E+02  0.7546771E-02  0.1297884E+00
         -1   -1    0    0    0  501 -0.00000000000E+00  0.00000000000E+00  0.16318119042E+02  0.16318119042E+02  0.00000000000E+00 0.  1.
          1   -1    0    0  501    0  0.00000000000E+00 -0.00000000000E+00 -0.12990678553E+03  0.12990678553E+03  0.00000000000E+00 0. -1.
         23    2    1    2    0    0  0.00000000000E+00  0.00000000000E+00 -0.11358866649E+03  0.14622490457E+03  0.92083318589E+02 0.  0.
        -13    1    3    3    0    0 -0.42339756010E+02 -0.87392167159E+01 -0.81942651587E+02  0.92647865582E+02  0.00000000000E+00 0. -1.
         13    1    3    3    0    0  0.42339756010E+02  0.87392167159E+01 -0.31646014900E+02  0.53577038989E+02  0.00000000000E+00 0.  1.
<mgrwt>
<rscale>  0 0.92083319E+02</rscale>
<asrwt>0</asrwt>
<pdfrwt beam="2">  1        1 0.19985659E-01 0.92083319E+02</pdfrwt>
<pdfrwt beam="1">  1       -1 0.25104799E-02 0.92083319E+02</pdfrwt>
<totfact> 0.10636223E+05</totfact>
</mgrwt>
</event>
<event>
 5    1  0.6027538E+000  0.9004603E+02  0.7546771E-02  0.1302740E+00
         -1   -1    0    0    0  501 -0.00000000000E+00  0.00000000000E+00  0.10319417570E+02  0.10319417570E+02  0.00000000000E+00 0.  1.
          1   -1    0    0  501    0  0.00000000000E+00 -0.00000000000E+00 -0.19643280042E+03  0.19643280042E+03  0.00000000000E+00 0. -1.
         23    2    1    2    0    0  0.00000000000E+00  0.00000000000E+00 -0.18611338285E+03  0.20675221799E+03  0.90046034714E+02 0.  0.
        -13    1    3    3    0    0 -0.14116210898E+01  0.40377116208E+02 -0.13867681975E+03  0.14444225325E+03  0.00000000000E+00 0. -1.
         13    1    3    3    0    0  0.14116210898E+01 -0.40377116208E+02 -0.47436563103E+02  0.62309964744E+02  0.00000000000E+00 0.  1.
<mgrwt>
<rscale>  0 0.90046035E+02</rscale>
<asrwt>0</asrwt>
<pdfrwt beam="2">  1        1 0.30220430E-01 0.90046035E+02</pdfrwt>
<pdfrwt beam="1">  1       -1 0.15876027E-02 0.90046035E+02</pdfrwt>
<totfact> 0.12200596E+05</totfact>
</mgrwt>
</event>
<event>
 5    1  0.6027538E+000  0.9230669E+02  0.7546771E-02  0.1297360E+00
         -1   -1    0    0    0  501 -0.00000000000E+00  0.00000000000E+00  0.65997893011E+02  0.65997893011E+02  0.00000000000E+00 0.  1.
          1   -1    0    0  501    0  0.00000000000E+00 -0.00000000000E+00 -0.32275747006E+02  0.32275747006E+02  0.00000000000E+00 0. -1.
         23    2    1    2    0    0  0.00000000000E+00  0.00000000000E+00  0.33722146005E+02  0.98273640017E+02  0.92306690933E+02 0.  0.
        -13    1    3    3    0    0 -0.15517249835E+02 -0.42638041494E+02  0.25853596718E+02  0.52222563018E+02  0.00000000000E+00 0. -1.
         13    1    3    3    0    0  0.15517249835E+02  0.42638041494E+02  0.78685492869E+01  0.46051076999E+02  0.00000000000E+00 0.  1.
<mgrwt>
<rscale>  0 0.92306691E+02</rscale>
<asrwt>0</asrwt>
<pdfrwt beam="2">  1        1 0.49654995E-02 0.92306691E+02</pdfrwt>
<pdfrwt beam="1">  1       -1 0.10153522E-01 0.92306691E+02</pdfrwt>
<totfact> 0.84662704E+04</totfact>
</mgrwt>
</event>
<event>
 5    1  0.6027538E+000  0.8449315E+02  0.7546771E-02  0.1316763E+00
         -2   -1    0    0    0  501 -0.00000000000E+00  0.00000000000E+00  0.79067929513E+01  0.79067929513E+01  0.00000000000E+00 0.  1.
          2   -1    0    0  501    0  0.00000000000E+00 -0.00000000000E+00 -0.22572653217E+03  0.22572653217E+03  0.00000000000E+00 0. -1.
         23    2    1    2    0    0  0.00000000000E+00  0.00000000000E+00 -0.21781973922E+03  0.23363332512E+03  0.84493146550E+02 0.  0.
        -13    1    3    3    0    0  0.32417537164E+02 -0.20639220544E+02 -0.60390258235E+02  0.71581124818E+02  0.00000000000E+00 0.  1.
         13    1    3    3    0    0 -0.32417537164E+02  0.20639220544E+02 -0.15742948098E+03  0.16205220030E+03  0.00000000000E+00 0. -1.
<mgrwt>
<rscale>  0 0.84493147E+02</rscale>
<asrwt>0</asrwt>
<pdfrwt beam="2">  1        2 0.34727157E-01 0.84493147E+02</pdfrwt>
<pdfrwt beam="1">  1       -2 0.12164297E-02 0.84493147E+02</pdfrwt>
<totfact> 0.19810781E+05</totfact>
</mgrwt>
</event>
<event>
 5    1  0.6027538E+000  0.9172417E+02  0.7546771E-02  0.1298729E+00
         -1   -1    0    0    0  501 -0.00000000000E+00  0.00000000000E+00  0.33933257345E+02  0.33933257345E+02  0.00000000000E+00 0.  1.
          1   -1    0    0  501    0  0.00000000000E+00 -0.00000000000E+00 -0.61984350131E+02  0.61984350131E+02  0.00000000000E+00 0. -1.
         23    2    1    2    0    0  0.00000000000E+00  0.00000000000E+00 -0.28051092786E+02  0.95917607475E+02  0.91724171391E+02 0.  0.
        -13    1    3    3    0    0  0.39197052199E+02 -0.43995535847E+01 -0.38495477683E+02  0.55115032204E+02  0.00000000000E+00 0. -1.
         13    1    3    3    0    0 -0.39197052199E+02  0.43995535847E+01  0.10444384897E+02  0.40802575271E+02  0.00000000000E+00 0.  1.
<mgrwt>
<rscale>  0 0.91724171E+02</rscale>
<asrwt>0</asrwt>
<pdfrwt beam="2">  1        1 0.95360538E-02 0.91724171E+02</pdfrwt>
<pdfrwt beam="1">  1       -1 0.52205012E-02 0.91724171E+02</pdfrwt>
<totfact> 0.95252976E+04</totfact>
</mgrwt>
</event>
<event>
 5    1  0.6027538E+000  0.9388292E+02  0.7546771E-02  0.1293712E+00
          2   -1    0    0  501    0  0.00000000000E+00  0.00000000000E+00  0.76213630302E+02  0.76213630302E+02  0.00000000000E+00 0. -1.
         -2   -1    0    0    0  501 -0.00000000000E+00 -0.00000000000E+00 -0.28912162807E+02  0.28912162807E+02  0.00000000000E+00 0.  1.
         23    2    1    2    0    0  0.00000000000E+00  0.00000000000E+00  0.47301467495E+02  0.10512579311E+03  0.93882924696E+02 0.  0.
        -13    1    3    3    0    0 -0.54116106534E+00 -0.35656698694E+02  0.57831820136E+02  0.67942714379E+02  0.00000000000E+00 0. -1.
         13    1    3    3    0    0  0.54116106534E+00  0.35656698694E+02 -0.10530352640E+02  0.37183078729E+02  0.00000000000E+00 0.  1.
<mgrwt>
<rscale>  0 0.93882925E+02</rscale>
<asrwt>0</asrwt>
<pdfrwt beam="1">  1        2 0.11725174E-01 0.93882925E+02</pdfrwt>
<pdfrwt beam="2">  1       -2 0.44480251E-02 0.93882925E+02</pdfrwt>
<totfact> 0.10439096E+05</totfact>
</mgrwt>
</event>
<event>
 5    1  0.6027538E+000  0.9047585E+02  0.7546771E-02  0.1301703E+00
          1   -1    0    0  501    0  0.00000000000E+00  0.00000000000E+00  0.34391610070E+02  0.34391610070E+02  0.00000000000E+00 0. -1.
         -1   -1    0    0    0  501 -0.00000000000E+00 -0.00000000000E+00 -0.59504910934E+02  0.59504910934E+02  0.00000000000E+00 0.  1.
         23    2    1    2    0    0  0.00000000000E+00  0.00000000000E+00 -0.25113300864E+02  0.93896521004E+02  0.90475846370E+02 0.  0.
        -13    1    3    3    0    0 -0.14426583866E+02  0.11089824644E+02  0.30426117603E+02  0.35452209593E+02  0.00000000000E+00 0. -1.
         13    1    3    3    0    0  0.14426583866E+02 -0.11089824644E+02 -0.55539418467E+02  0.58444311411E+02  0.00000000000E+00 0.  1.
<mgrwt>
<rscale>  0 0.90475846E+02</rscale>
<asrwt>0</asrwt>
<pdfrwt beam="1">  1        1 0.52910170E-02 0.90475846E+02</pdfrwt>
<pdfrwt beam="2">  1       -1 0.91546015E-02 0.90475846E+02</pdfrwt>
<totfact> 0.90547847E+04</totfact>
</mgrwt>
</event>
<event>
 5    1  0.6027538E+000  0.9299976E+02  0.7546771E-02  0.1295746E+00
          2   -1    0    0  501    0  0.00000000000E+00  0.00000000000E+00  0.27523944373E+02  0.27523944373E+02  0.00000000000E+00 0. -1.
         -2   -1    0    0    0  501 -0.00000000000E+00 -0.00000000000E+00 -0.78558460576E+02  0.78558460576E+02  0.00000000000E+00 0.  1.
         23    2    1    2    0    0  0.00000000000E+00  0.00000000000E+00 -0.51034516203E+02  0.10608240495E+03  0.92999756965E+02 0.  0.
        -13    1    3    3    0    0 -0.28229402920E+02  0.26985650133E+02 -0.54309148767E+02  0.66892511854E+02  0.00000000000E+00 0.  1.
         13    1    3    3    0    0  0.28229402920E+02 -0.26985650133E+02  0.32746325643E+01  0.39189893094E+02  0.00000000000E+00 0. -1.
<mgrwt>
<rscale>  0 0.92999757E+02</rscale>
<asrwt>0</asrwt>
<pdfrwt beam="1">  1        2 0.42344530E-02 0.92999757E+02</pdfrwt>
<pdfrwt beam="2">  1       -2 0.12085917E-01 0.92999757E+02</pdfrwt>
<totfact> 0.81449067E+04</totfact>
</mgrwt>
</event>
<event>
 5    1  0.6027538E+000  0.9208017E+02  0.7546771E-02  0.1297891E+00
         -2   -1    0    0    0  501 -0.00000000000E+00  0.00000000000E+00  0.16480173945E+03  0.16480173945E+03  0.00000000000E+00 0.  1.
          2   -1    0    0  501    0  0.00000000000E+00 -0.00000000000E+00 -0.12862056502E+02  0.12862056502E+02  0.00000000000E+00 0. -1.
         23    2    1    2    0    0  0.00000000000E+00  0.00000000000E+00  0.15193968295E+03  0.17766379595E+03  0.92080166907E+02 0.  0.
        -13    1    3    3    0    0  0.40685478096E+02  0.67741984265E+01  0.11544065739E+03  0.12258769624E+03  0.00000000000E+00 0. -1.
         13    1    3    3    0    0 -0.40685478096E+02 -0.67741984265E+01  0.36499025560E+02  0.55076099708E+02  0.00000000000E+00 0.  1.
<mgrwt>
<rscale>  0 0.92080167E+02</rscale>
<asrwt>0</asrwt>
<pdfrwt beam="2">  1        2 0.19787780E-02 0.92080167E+02</pdfrwt>
<pdfrwt beam="1">  1       -2 0.25354112E-01 0.92080167E+02</pdfrwt>
<totfact> 0.65771863E+04</totfact>
</mgrwt>
</event>
<event>
 5    1  0.6027538E+000  0.9198801E+02  0.7546771E-02  0.1298108E+00
          2   -1    0    0  501    0  0.00000000000E+00  0.00000000000E+00  0.97632688452E+01  0.97632688452E+01  0.00000000000E+00 0.  1.
         -2   -1    0    0    0  501 -0.00000000000E+00 -0.00000000000E+00 -0.21667419579E+03  0.21667419579E+03  0.00000000000E+00 0. -1.
         23    2    1    2    0    0  0.00000000000E+00  0.00000000000E+00 -0.20691092694E+03  0.22643746463E+03  0.91988008464E+02 0.  0.
        -13    1    3    3    0    0  0.31515478904E+02 -0.29542717650E+02 -0.64576958173E+02  0.77692863916E+02  0.00000000000E+00 0.  1.
         13    1    3    3    0    0 -0.31515478904E+02  0.29542717650E+02 -0.14233396877E+03  0.14874460072E+03  0.00000000000E+00 0. -1.
<mgrwt>
<rscale>  0 0.91988008E+02</rscale>
<asrwt>0</asrwt>
<pdfrwt beam="1">  1        2 0.15020414E-02 0.91988008E+02</pdfrwt>
<pdfrwt beam="2">  1       -2 0.33334490E-01 0.91988008E+02</pdfrwt>
<totfact> 0.58793353E+04</totfact>
</mgrwt>
</event>
<event>
 5    1  0.6027538E+000  0.8607457E+02  0.7546771E-02  0.1312646E+00
         -2   -1    0    0    0  501 -0.00000000000E+00  0.00000000000E+00  0.15067364926E+02  0.15067364926E+02  0.00000000000E+00 0.  1.
          2   -1    0    0  501    0  0.00000000000E+00 -0.00000000000E+00 -0.12292845241E+03  0.12292845241E+03  0.00000000000E+00 0. -1.
         23    2    1    2    0    0  0.00000000000E+00  0.00000000000E+00 -0.10786108749E+03  0.13799581734E+03  0.86074568887E+02 0.  0.
        -13    1    3    3    0    0  0.22150502273E+02  0.22822690702E+02 -0.74460117537E+01  0.32664400390E+02  0.00000000000E+00 0.  1.
         13    1    3    3    0    0 -0.22150502273E+02 -0.22822690702E+02 -0.10041507573E+03  0.10533141695E+03  0.00000000000E+00 0. -1.
<mgrwt>
<rscale>  0 0.86074569E+02</rscale>
<asrwt>0</asrwt>
<pdfrwt beam="2">  1        2 0.18912069E-01 0.86074569E+02</pdfrwt>
<pdfrwt beam="1">  1       -2 0.23180562E-02 0.86074569E+02</pdfrwt>
<totfact> 0.15305895E+05</totfact>
</mgrwt>
</event>
<event>
 5    1  0.6027538E+000  0.9088784E+02  0.7546771E-02  0.1300716E+00
         -1   -1    0    0    0  501 -0.00000000000E+00  0.00000000000E+00  0.65586408380E+02  0.65586408380E+02  0.00000000000E+00 0.  1.
          1   -1    0    0  501    0  0.00000000000E+00 -0.00000000000E+00 -0.31487469099E+02  0.31487469099E+02  0.00000000000E+00 0. -1.
         23    2    1    2    0    0  0.00000000000E+00  0.00000000000E+00  0.34098939281E+02  0.97073877479E+02  0.90887843129E+02 0.  0.
        -13    1    3    3    0    0 -0.17832014493E+02  0.39689620080E+02  0.31053038056E+02  0.53455943126E+02  0.00000000000E+00 0.  1.
         13    1    3    3    0    0  0.17832014493E+02 -0.39689620080E+02  0.30459012255E+01  0.43617934353E+02  0.00000000000E+00 0. -1.
<mgrwt>
<rscale>  0 0.90887843E+02</rscale>
<asrwt>0</asrwt>
<pdfrwt beam="2">  1        1 0.48442260E-02 0.90887843E+02</pdfrwt>
<pdfrwt beam="1">  1       -1 0.10090217E-01 0.90887843E+02</pdfrwt>
<totfact> 0.88156539E+04</totfact>
</mgrwt>
</event>
<event>
 5    1  0.6027538E+000  0.7677697E+02  0.7546771E-02  0.1338455E+00
         -1   -1    0    0    0  501 -0.00000000000E+00  0.00000000000E+00  0.97152629429E+02  0.97152629429E+02  0.00000000000E+00 0.  1.
          1   -1    0    0  501    0  0.00000000000E+00 -0.00000000000E+00 -0.15168665443E+02  0.15168665443E+02  0.00000000000E+00 0. -1.
         23    2    1    2    0    0  0.00000000000E+00  0.00000000000E+00  0.81983963986E+02  0.11232129487E+03  0.76776968752E+02 0.  0.
        -13    1    3    3    0    0 -0.11062345399E+02 -0.28962226870E+02  0.74110713496E+02  0.80334201470E+02  0.00000000000E+00 0.  1.
         13    1    3    3    0    0  0.11062345399E+02  0.28962226870E+02  0.78732504904E+01  0.31987093401E+02  0.00000000000E+00 0. -1.
<mgrwt>
<rscale>  0 0.76776969E+02</rscale>
<asrwt>0</asrwt>
<pdfrwt beam="2">  1        1 0.23336409E-02 0.76776969E+02</pdfrwt>
<pdfrwt beam="1">  1       -1 0.14946558E-01 0.76776969E+02</pdfrwt>
<totfact> 0.12711147E+05</totfact>
</mgrwt>
</event>
<event>
 5    1  0.6027538E+000  0.9071804E+02  0.7546771E-02  0.1301122E+00
          1   -1    0    0  501    0  0.00000000000E+00  0.00000000000E+00  0.23058862875E+03  0.23058862875E+03  0.00000000000E+00 0. -1.
         -1   -1    0    0    0  501 -0.00000000000E+00 -0.00000000000E+00 -0.89225596670E+01  0.89225596670E+01  0.00000000000E+00 0.  1.
         23    2    1    2    0    0  0.00000000000E+00  0.00000000000E+00  0.22166606908E+03  0.23951118841E+03  0.90718042274E+02 0.  0.
        -13    1    3    3    0    0  0.27802575980E+02  0.18633221012E+02  0.30004942675E+02  0.44949713473E+02  0.00000000000E+00 0.  1.
         13    1    3    3    0    0 -0.27802575980E+02 -0.18633221012E+02  0.19166112641E+03  0.19456147494E+03  0.00000000000E+00 0. -1.
<mgrwt>
<rscale>  0 0.90718042E+02</rscale>
<asrwt>0</asrwt>
<pdfrwt beam="1">  1        1 0.35475169E-01 0.90718042E+02</pdfrwt>
<pdfrwt beam="2">  1       -1 0.13727017E-02 0.90718042E+02</pdfrwt>
<totfact> 0.12338867E+05</totfact>
</mgrwt>
</event>
<event>
 5    1  0.6027538E+000  0.8954742E+02  0.7546771E-02  0.1303951E+00
         -1   -1    0    0    0  501 -0.00000000000E+00  0.00000000000E+00  0.83182754877E+02  0.83182754877E+02  0.00000000000E+00 0.  1.
          1   -1    0    0  501    0  0.00000000000E+00 -0.00000000000E+00 -0.24099768524E+02  0.24099768524E+02  0.00000000000E+00 0. -1.
         23    2    1    2    0    0  0.00000000000E+00  0.00000000000E+00  0.59082986352E+02  0.10728252340E+03  0.89547420682E+02 0.  0.
        -13    1    3    3    0    0  0.87381719705E+01 -0.19883242147E+02  0.76449288067E+02  0.79474477750E+02  0.00000000000E+00 0.  1.
         13    1    3    3    0    0 -0.87381719705E+01  0.19883242147E+02 -0.17366301715E+02  0.27808045650E+02  0.00000000000E+00 0. -1.
<mgrwt>
<rscale>  0 0.89547421E+02</rscale>
<asrwt>0</asrwt>
<pdfrwt beam="2">  1        1 0.37076567E-02 0.89547421E+02</pdfrwt>
<pdfrwt beam="1">  1       -1 0.12797347E-01 0.89547421E+02</pdfrwt>
<totfact> 0.88062831E+04</totfact>
</mgrwt>
</event>
<event>
 5    1  0.6027538E+000  0.9187067E+02  0.7546771E-02  0.1298384E+00
          1   -1    0    0  501    0  0.00000000000E+00  0.00000000000E+00  0.65943277003E+02  0.65943277003E+02  0.00000000000E+00 0. -1.
         -1   -1    0    0    0  501 -0.00000000000E+00 -0.00000000000E+00 -0.31998027301E+02  0.31998027301E+02  0.00000000000E+00 0.  1.
         23    2    1    2    0    0  0.00000000000E+00  0.00000000000E+00  0.33945249702E+02  0.97941304303E+02  0.91870665129E+02 0.  0.
        -13    1    3    3    0    0  0.15377661029E+02  0.24649321615E+02  0.54904535597E+02  0.62117385199E+02  0.00000000000E+00 0. -1.
         13    1    3    3    0    0 -0.15377661029E+02 -0.24649321615E+02 -0.20959285895E+02  0.35823919105E+02  0.00000000000E+00 0.  1.
<mgrwt>
<rscale>  0 0.91870665E+02</rscale>
<asrwt>0</asrwt>
<pdfrwt beam="1">  1        1 0.10145119E-01 0.91870665E+02</pdfrwt>
<pdfrwt beam="2">  1       -1 0.49227735E-02 0.91870665E+02</pdfrwt>
<totfact> 0.95735762E+04</totfact>
</mgrwt>
</event>
<event>
 5    1  0.6027538E+000  0.9285029E+02  0.7546771E-02  0.1296093E+00
          3   -1    0    0  501    0  0.00000000000E+00  0.00000000000E+00  0.39201706026E+02  0.39201706026E+02  0.00000000000E+00 0. -1.
         -3   -1    0    0    0  501 -0.00000000000E+00 -0.00000000000E+00 -0.54979595356E+02  0.54979595356E+02  0.00000000000E+00 0.  1.
         23    2    1    2    0    0  0.00000000000E+00  0.00000000000E+00 -0.15777889330E+02  0.94181301382E+02  0.92850286690E+02 0.  0.
        -13    1    3    3    0    0  0.21155845403E+02 -0.11302563930E+02  0.32429772825E+02  0.40336186131E+02  0.00000000000E+00 0. -1.
         13    1    3    3    0    0 -0.21155845403E+02  0.11302563930E+02 -0.48207662154E+02  0.53845115252E+02  0.00000000000E+00 0.  1.
<mgrwt>
<rscale>  0 0.92850287E+02</rscale>
<asrwt>0</asrwt>
<pdfrwt beam="1">  1        3 0.60310317E-02 0.92850287E+02</pdfrwt>
<pdfrwt beam="2">  1       -3 0.84583993E-02 0.92850287E+02</pdfrwt>
<totfact> 0.33408538E+04</totfact>
</mgrwt>
</event>
<event>
 5    1  0.6027538E+000  0.9192475E+02  0.7546771E-02  0.1298256E+00
         -2   -1    0    0    0  501 -0.00000000000E+00  0.00000000000E+00  0.16942664877E+02  0.16942664877E+02  0.00000000000E+00 0.  1.
          2   -1    0    0  501    0  0.00000000000E+00 -0.00000000000E+00 -0.12468758658E+03  0.12468758658E+03  0.00000000000E+00 0. -1.
         23    2    1    2    0    0  0.00000000000E+00  0.00000000000E+00 -0.10774492171E+03  0.14163025146E+03  0.91924751702E+02 0.  0.
        -13    1    3    3    0    0  0.22556718399E+02  0.19998975465E+02 -0.41648057974E+00  0.30148598983E+02  0.00000000000E+00 0.  1.
         13    1    3    3    0    0 -0.22556718399E+02 -0.19998975465E+02 -0.10732844113E+03  0.11148165248E+03  0.00000000000E+00 0. -1.
<mgrwt>
<rscale>  0 0.91924752E+02</rscale>
<asrwt>0</asrwt>
<pdfrwt beam="2">  1        2 0.19182706E-01 0.91924752E+02</pdfrwt>
<pdfrwt beam="1">  1       -2 0.26065638E-02 0.91924752E+02</pdfrwt>
<totfact> 0.12857419E+05</totfact>
</mgrwt>
</event>
<event>
 5    1  0.6027538E+000  0.9085456E+02  0.7546771E-02  0.1300795E+00
          2   -1    0    0  501    0  0.00000000000E+00  0.00000000000E+00  0.10351109110E+03  0.10351109110E+03  0.00000000000E+00 0. -1.
         -2   -1    0    0    0  501 -0.00000000000E+00 -0.00000000000E+00 -0.19936393951E+02  0.19936393951E+02  0.00000000000E+00 0.  1.
         23    2    1    2    0    0  0.00000000000E+00  0.00000000000E+00  0.83574697147E+02  0.12344748505E+03  0.90854562691E+02 0.  0.
        -13    1    3    3    0    0 -0.13370793203E+02  0.40169467469E+02  0.19408418461E+02  0.46573070919E+02  0.00000000000E+00 0.  1.
         13    1    3    3    0    0  0.13370793203E+02 -0.40169467469E+02  0.64166278685E+02  0.76874414131E+02  0.00000000000E+00 0. -1.
<mgrwt>
<rscale>  0 0.90854563E+02</rscale>
<asrwt>0</asrwt>
<pdfrwt beam="1">  1        2 0.15924783E-01 0.90854563E+02</pdfrwt>
<pdfrwt beam="2">  1       -2 0.30671376E-02 0.90854563E+02</pdfrwt>
<totfact> 0.12519077E+05</totfact>
</mgrwt>
</event>
<event>
 5    1  0.6027538E+000  0.9117093E+02  0.7546771E-02  0.1300041E+00
         -1   -1    0    0    0  501 -0.00000000000E+00  0.00000000000E+00  0.48879889598E+02  0.48879889598E+02  0.00000000000E+00 0.  1.
          1   -1    0    0  501    0  0.00000000000E+00 -0.00000000000E+00 -0.42513080643E+02  0.42513080643E+02  0.00000000000E+00 0. -1.
         23    2    1    2    0    0  0.00000000000E+00  0.00000000000E+00  0.63668089550E+01  0.91392970240E+02  0.91170931514E+02 0.  0.
        -13    1    3    3    0    0 -0.14164413394E+02  0.25069769111E+00 -0.40250413724E+02  0.42670707295E+02  0.00000000000E+00 0. -1.
         13    1    3    3    0    0  0.14164413394E+02 -0.25069769111E+00  0.46617222679E+02  0.48722262945E+02  0.00000000000E+00 0.  1.
<mgrwt>
<rscale>  0 0.91170932E+02</rscale>
<asrwt>0</asrwt>
<pdfrwt beam="2">  1        1 0.65404740E-02 0.91170932E+02</pdfrwt>
<pdfrwt beam="1">  1       -1 0.75199830E-02 0.91170932E+02</pdfrwt>
<totfact> 0.91521076E+04</totfact>
</mgrwt>
</event>
<event>
 5    1  0.6027538E+000  0.9880437E+02  0.7546771E-02  0.1282830E+00
         -4   -1    0    0    0  501 -0.00000000000E+00  0.00000000000E+00  0.12419631248E+03  0.12419631248E+03  0.00000000000E+00 0.  1.
          4   -1    0    0  501    0  0.00000000000E+00 -0.00000000000E+00 -0.19650951900E+02  0.19650951900E+02  0.00000000000E+00 0. -1.
         23    2    1    2    0    0  0.00000000000E+00  0.00000000000E+00  0.10454536058E+03  0.14384726438E+03  0.98804367570E+02 0.  0.
        -13    1    3    3    0    0  0.32291672699E+02  0.28114510797E+02  0.88153480037E+02  0.98001091248E+02  0.00000000000E+00 0.  1.
         13    1    3    3    0    0 -0.32291672699E+02 -0.28114510797E+02  0.16391880540E+02  0.45846173130E+02  0.00000000000E+00 0. -1.
<mgrwt>
<rscale>  0 0.98804368E+02</rscale>
<asrwt>0</asrwt>
<pdfrwt beam="2">  1        4 0.30232234E-02 0.98804368E+02</pdfrwt>
<pdfrwt beam="1">  1       -4 0.19107125E-01 0.98804368E+02</pdfrwt>
<totfact> 0.19290690E+04</totfact>
</mgrwt>
</event>
<event>
 5    1  0.6027538E+000  0.9291328E+02  0.7546771E-02  0.1295946E+00
          2   -1    0    0  501    0  0.00000000000E+00  0.00000000000E+00  0.89259341002E+02  0.89259341002E+02  0.00000000000E+00 0. -1.
         -2   -1    0    0    0  501 -0.00000000000E+00 -0.00000000000E+00 -0.24179200738E+02  0.24179200738E+02  0.00000000000E+00 0.  1.
         23    2    1    2    0    0  0.00000000000E+00  0.00000000000E+00  0.65080140264E+02  0.11343854174E+03  0.92913282663E+02 0.  0.
        -13    1    3    3    0    0  0.30049535739E+00  0.37584512364E+02 -0.79615788218E+00  0.37594144949E+02  0.00000000000E+00 0.  1.
         13    1    3    3    0    0 -0.30049535739E+00 -0.37584512364E+02  0.65876298146E+02  0.75844396790E+02  0.00000000000E+00 0. -1.
<mgrwt>
<rscale>  0 0.92913283E+02</rscale>
<asrwt>0</asrwt>
<pdfrwt beam="1">  1        2 0.13732206E-01 0.92913283E+02</pdfrwt>
<pdfrwt beam="2">  1       -2 0.37198771E-02 0.92913283E+02</pdfrwt>
<totfact> 0.11252658E+05</totfact>
</mgrwt>
</event>
<event>
 5    1  0.6027538E+000  0.9017556E+02  0.7546771E-02  0.1302427E+00
         -3   -1    0    0    0  501 -0.00000000000E+00  0.00000000000E+00  0.11976867901E+03  0.11976867901E+03  0.00000000000E+00 0.  1.
          3   -1    0    0  501    0  0.00000000000E+00 -0.00000000000E+00 -0.16973618817E+02  0.16973618817E+02  0.00000000000E+00 0. -1.
         23    2    1    2    0    0  0.00000000000E+00  0.00000000000E+00  0.10279506019E+03  0.13674229783E+03  0.90175559965E+02 0.  0.
        -13    1    3    3    0    0  0.35215122563E+02 -0.22958417682E+02  0.26679074681E+02  0.49789223988E+02  0.00000000000E+00 0. -1.
         13    1    3    3    0    0 -0.35215122563E+02  0.22958417682E+02  0.76115985514E+02  0.86953073840E+02  0.00000000000E+00 0.  1.
<mgrwt>
<rscale>  0 0.90175560E+02</rscale>
<asrwt>0</asrwt>
<pdfrwt beam="2">  1        3 0.26113260E-02 0.90175560E+02</pdfrwt>
<pdfrwt beam="1">  1       -3 0.18425950E-01 0.90175560E+02</pdfrwt>
<totfact> 0.33114324E+04</totfact>
</mgrwt>
</event>
<event>
 5    1  0.6027538E+000  0.9191157E+02  0.7546771E-02  0.1298287E+00
         -1   -1    0    0    0  501 -0.00000000000E+00  0.00000000000E+00  0.18448241168E+02  0.18448241168E+02  0.00000000000E+00 0.  1.
          1   -1    0    0  501    0  0.00000000000E+00 -0.00000000000E+00 -0.11447888625E+03  0.11447888625E+03  0.00000000000E+00 0. -1.
         23    2    1    2    0    0  0.00000000000E+00  0.00000000000E+00 -0.96030645082E+02  0.13292712742E+03  0.91911568415E+02 0.  0.
        -13    1    3    3    0    0 -0.11907595555E+02  0.16264535745E+02  0.11713378979E+02  0.23313712746E+02  0.00000000000E+00 0.  1.
         13    1    3    3    0    0  0.11907595555E+02 -0.16264535745E+02 -0.10774402406E+03  0.10961341467E+03  0.00000000000E+00 0. -1.
<mgrwt>
<rscale>  0 0.91911568E+02</rscale>
<asrwt>0</asrwt>
<pdfrwt beam="2">  1        1 0.17612136E-01 0.91911568E+02</pdfrwt>
<pdfrwt beam="1">  1       -1 0.28381910E-02 0.91911568E+02</pdfrwt>
<totfact> 0.10455879E+05</totfact>
</mgrwt>
</event>
<event>
 5    1  0.6027538E+000  0.9137159E+02  0.7546771E-02  0.1299564E+00
          2   -1    0    0  501    0  0.00000000000E+00  0.00000000000E+00  0.17527221036E+03  0.17527221036E+03  0.00000000000E+00 0.  1.
         -2   -1    0    0    0  501 -0.00000000000E+00 -0.00000000000E+00 -0.11908288194E+02  0.11908288194E+02  0.00000000000E+00 0. -1.
         23    2    1    2    0    0  0.00000000000E+00  0.00000000000E+00  0.16336392217E+03  0.18718049856E+03  0.91371592817E+02 0.  0.
        -13    1    3    3    0    0  0.33637373013E+02  0.19823078579E+02  0.13027933733E+03  0.13600416554E+03  0.00000000000E+00 0.  1.
         13    1    3    3    0    0 -0.33637373013E+02 -0.19823078579E+02  0.33084584834E+02  0.51176333019E+02  0.00000000000E+00 0. -1.
<mgrwt>
<rscale>  0 0.91371593E+02</rscale>
<asrwt>0</asrwt>
<pdfrwt beam="1">  1        2 0.26964954E-01 0.91371593E+02</pdfrwt>
<pdfrwt beam="2">  1       -2 0.18320445E-02 0.91371593E+02</pdfrwt>
<totfact> 0.14670179E+05</totfact>
</mgrwt>
</event>
<event>
 5    1  0.6027538E+000  0.9242874E+02  0.7546771E-02  0.1297074E+00
          4   -1    0    0  501    0  0.00000000000E+00  0.00000000000E+00  0.13077110228E+02  0.13077110228E+02  0.00000000000E+00 0. -1.
         -4   -1    0    0    0  501 -0.00000000000E+00 -0.00000000000E+00 -0.16332109272E+03  0.16332109272E+03  0.00000000000E+00 0.  1.
         23    2    1    2    0    0  0.00000000000E+00  0.00000000000E+00 -0.15024398250E+03  0.17639820295E+03  0.92428738650E+02 0.  0.
        -13    1    3    3    0    0 -0.11731830528E+02  0.27603239877E+02 -0.80207875236E+01  0.31046863476E+02  0.00000000000E+00 0. -1.
         13    1    3    3    0    0  0.11731830528E+02 -0.27603239877E+02 -0.14222319497E+03  0.14535133948E+03  0.00000000000E+00 0.  1.
<mgrwt>
<rscale>  0 0.92428739E+02</rscale>
<asrwt>0</asrwt>
<pdfrwt beam="1">  1        4 0.20118632E-02 0.92428739E+02</pdfrwt>
<pdfrwt beam="2">  1       -4 0.25126321E-01 0.92428739E+02</pdfrwt>
<totfact> 0.21606359E+04</totfact>
</mgrwt>
</event>
<event>
 5    1  0.6027538E+000  0.9116968E+02  0.7546771E-02  0.1300044E+00
          3   -1    0    0  501    0  0.00000000000E+00  0.00000000000E+00  0.35691993401E+03  0.35691993401E+03  0.00000000000E+00 0. -1.
         -3   -1    0    0    0  501 -0.00000000000E+00 -0.00000000000E+00 -0.58219709807E+01  0.58219709807E+01  0.00000000000E+00 0.  1.
         23    2    1    2    0    0  0.00000000000E+00  0.00000000000E+00  0.35109796303E+03  0.36274190499E+03  0.91169676938E+02 0.  0.
        -13    1    3    3    0    0 -0.42666297311E+02 -0.26402048992E+00  0.23939467375E+03  0.24316721089E+03  0.00000000000E+00 0.  1.
         13    1    3    3    0    0  0.42666297311E+02  0.26402048992E+00  0.11170328928E+03  0.11957469410E+03  0.00000000000E+00 0. -1.
<mgrwt>
<rscale>  0 0.91169677E+02</rscale>
<asrwt>0</asrwt>
<pdfrwt beam="1">  1        3 0.54910742E-01 0.91169677E+02</pdfrwt>
<pdfrwt beam="2">  1       -3 0.89568812E-03 0.91169677E+02</pdfrwt>
<totfact> 0.21794978E+04</totfact>
</mgrwt>
</event>
<event>
 5    1  0.6027538E+000  0.8877108E+02  0.7546771E-02  0.1305855E+00
          1   -1    0    0  501    0  0.00000000000E+00  0.00000000000E+00  0.78260199183E+01  0.78260199183E+01  0.00000000000E+00 0. -1.
         -1   -1    0    0    0  501 -0.00000000000E+00 -0.00000000000E+00 -0.25173409420E+03  0.25173409420E+03  0.00000000000E+00 0.  1.
         23    2    1    2    0    0  0.00000000000E+00  0.00000000000E+00 -0.24390807428E+03  0.25956011412E+03  0.88771077166E+02 0.  0.
        -13    1    3    3    0    0  0.36780341058E+02 -0.13280618886E+01 -0.19449563665E+03  0.19794724022E+03  0.00000000000E+00 0.  1.
         13    1    3    3    0    0 -0.36780341058E+02  0.13280618886E+01 -0.49412437632E+02  0.61612873894E+02  0.00000000000E+00 0. -1.
<mgrwt>
<rscale>  0 0.88771077E+02</rscale>
<asrwt>0</asrwt>
<pdfrwt beam="1">  1        1 0.12040031E-02 0.88771077E+02</pdfrwt>
<pdfrwt beam="2">  1       -1 0.38728322E-01 0.88771077E+02</pdfrwt>
<totfact> 0.69278853E+04</totfact>
</mgrwt>
</event>
<event>
 5    1  0.6027538E+000  0.9069224E+02  0.7546771E-02  0.1301184E+00
         -3   -1    0    0    0  501 -0.00000000000E+00  0.00000000000E+00  0.97451065597E+01  0.97451065597E+01  0.00000000000E+00 0.  1.
          3   -1    0    0  501    0  0.00000000000E+00 -0.00000000000E+00 -0.21100547133E+03  0.21100547133E+03  0.00000000000E+00 0. -1.
         23    2    1    2    0    0  0.00000000000E+00  0.00000000000E+00 -0.20126036477E+03  0.22075057789E+03  0.90692244492E+02 0.  0.
        -13    1    3    3    0    0  0.43751216152E+02 -0.93426601055E+01 -0.11865154841E+03  0.12680553676E+03  0.00000000000E+00 0.  1.
         13    1    3    3    0    0 -0.43751216152E+02  0.93426601055E+01 -0.82608816360E+02  0.93945041131E+02  0.00000000000E+00 0. -1.
<mgrwt>
<rscale>  0 0.90692244E+02</rscale>
<asrwt>0</asrwt>
<pdfrwt beam="2">  1        3 0.32462379E-01 0.90692244E+02</pdfrwt>
<pdfrwt beam="1">  1       -3 0.14992472E-02 0.90692244E+02</pdfrwt>
<totfact> 0.27856978E+04</totfact>
</mgrwt>
</event>
<event>
 5    1  0.6027538E+000  0.9132637E+02  0.7546771E-02  0.1299671E+00
          2   -1    0    0  501    0  0.00000000000E+00  0.00000000000E+00  0.72382089781E+02  0.72382089781E+02  0.00000000000E+00 0. -1.
         -2   -1    0    0    0  501 -0.00000000000E+00 -0.00000000000E+00 -0.28807216486E+02  0.28807216486E+02  0.00000000000E+00 0.  1.
         23    2    1    2    0    0  0.00000000000E+00  0.00000000000E+00  0.43574873294E+02  0.10118930627E+03  0.91326371439E+02 0.  0.
        -13    1    3    3    0    0  0.21753768376E+02  0.39137774498E+02  0.11868874468E+02  0.46323449919E+02  0.00000000000E+00 0.  1.
         13    1    3    3    0    0 -0.21753768376E+02 -0.39137774498E+02  0.31705998826E+02  0.54865856348E+02  0.00000000000E+00 0. -1.
<mgrwt>
<rscale>  0 0.91326371E+02</rscale>
<asrwt>0</asrwt>
<pdfrwt beam="1">  1        2 0.11135706E-01 0.91326371E+02</pdfrwt>
<pdfrwt beam="2">  1       -2 0.44318795E-02 0.91326371E+02</pdfrwt>
<totfact> 0.11114341E+05</totfact>
</mgrwt>
</event>
<event>
 5    1  0.6027538E+000  0.9402895E+02  0.7546771E-02  0.1293378E+00
         -1   -1    0    0    0  501 -0.00000000000E+00  0.00000000000E+00  0.30441066899E+02  0.30441066899E+02  0.00000000000E+00 0.  1.
          1   -1    0    0  501    0  0.00000000000E+00 -0.00000000000E+00 -0.72611145322E+02  0.72611145322E+02  0.00000000000E+00 0. -1.
         23    2    1    2    0    0  0.00000000000E+00  0.00000000000E+00 -0.42170078423E+02  0.10305221222E+03  0.94028947296E+02 0.  0.
        -13    1    3    3    0    0 -0.12962208466E+02 -0.31042137300E+02  0.14910745007E+02  0.36796242378E+02  0.00000000000E+00 0.  1.
         13    1    3    3    0    0  0.12962208466E+02  0.31042137300E+02 -0.57080823430E+02  0.66255969843E+02  0.00000000000E+00 0. -1.
<mgrwt>
<rscale>  0 0.94028947E+02</rscale>
<asrwt>0</asrwt>
<pdfrwt beam="2">  1        1 0.11170945E-01 0.94028947E+02</pdfrwt>
<pdfrwt beam="1">  1       -1 0.46832411E-02 0.94028947E+02</pdfrwt>
<totfact> 0.91132937E+04</totfact>
</mgrwt>
</event>
<event>
 5    1  0.6027538E+000  0.9816694E+02  0.7546771E-02  0.1284199E+00
          3   -1    0    0  501    0  0.00000000000E+00  0.00000000000E+00  0.78223337248E+02  0.78223337248E+02  0.00000000000E+00 0. -1.
         -3   -1    0    0    0  501 -0.00000000000E+00 -0.00000000000E+00 -0.30798828061E+02  0.30798828061E+02  0.00000000000E+00 0.  1.
         23    2    1    2    0    0  0.00000000000E+00  0.00000000000E+00  0.47424509187E+02  0.10902216531E+03  0.98166941774E+02 0.  0.
        -13    1    3    3    0    0  0.68723130945E+01  0.48185822610E+02  0.16680882401E+02  0.51452444311E+02  0.00000000000E+00 0.  1.
         13    1    3    3    0    0 -0.68723130945E+01 -0.48185822610E+02  0.30743626786E+02  0.57569720999E+02  0.00000000000E+00 0. -1.
<mgrwt>
<rscale>  0 0.98166942E+02</rscale>
<asrwt>0</asrwt>
<pdfrwt beam="1">  1        3 0.12034360E-01 0.98166942E+02</pdfrwt>
<pdfrwt beam="2">  1       -3 0.47382812E-02 0.98166942E+02</pdfrwt>
<totfact> 0.27793342E+04</totfact>
</mgrwt>
</event>
<event>
 5    1  0.6027538E+000  0.9355231E+02  0.7546771E-02  0.1294470E+00
         -1   -1    0    0    0  501 -0.00000000000E+00  0.00000000000E+00  0.19605526514E+03  0.19605526514E+03  0.00000000000E+00 0.  1.
          1   -1    0    0  501    0  0.00000000000E+00 -0.00000000000E+00 -0.11160163378E+02  0.11160163378E+02  0.00000000000E+00 0. -1.
         23    2    1    2    0    0  0.00000000000E+00  0.00000000000E+00  0.18489510176E+03  0.20721542852E+03  0.93552312425E+02 0.  0.
        -13    1    3    3    0    0 -0.16898194042E+02  0.43601221383E+02  0.89833022740E+02  0.10127481149E+03  0.00000000000E+00 0.  1.
         13    1    3    3    0    0  0.16898194042E+02 -0.43601221383E+02  0.95062079025E+02  0.10594061703E+03  0.00000000000E+00 0. -1.
<mgrwt>
<rscale>  0 0.93552312E+02</rscale>
<asrwt>0</asrwt>
<pdfrwt beam="2">  1        1 0.17169484E-02 0.93552312E+02</pdfrwt>
<pdfrwt beam="1">  1       -1 0.30162346E-01 0.93552312E+02</pdfrwt>
<totfact> 0.65287509E+04</totfact>
</mgrwt>
</event>
<event>
 5    1  0.6027538E+000  0.5751944E+02  0.7546771E-02  0.1408546E+00
         -3   -1    0    0    0  501 -0.00000000000E+00  0.00000000000E+00  0.36143326065E+02  0.36143326065E+02  0.00000000000E+00 0.  1.
          3   -1    0    0  501    0  0.00000000000E+00 -0.00000000000E+00 -0.22884490712E+02  0.22884490712E+02  0.00000000000E+00 0. -1.
         23    2    1    2    0    0  0.00000000000E+00  0.00000000000E+00  0.13258835353E+02  0.59027816778E+02  0.57519444005E+02 0.  0.
        -13    1    3    3    0    0 -0.24383832939E+02 -0.14327128993E+02  0.11989771783E+02  0.30717951777E+02  0.00000000000E+00 0.  1.
         13    1    3    3    0    0  0.24383832939E+02  0.14327128993E+02  0.12690635701E+01  0.28309865000E+02  0.00000000000E+00 0. -1.
<mgrwt>
<rscale>  0 0.57519444E+02</rscale>
<asrwt>0</asrwt>
<pdfrwt beam="2">  1        3 0.35206909E-02 0.57519444E+02</pdfrwt>
<pdfrwt beam="1">  1       -3 0.55605117E-02 0.57519444E+02</pdfrwt>
<totfact> 0.12915225E+05</totfact>
</mgrwt>
</event>
<event>
 5    1  0.6027538E+000  0.9948083E+02  0.7546771E-02  0.1281391E+00
          1   -1    0    0  501    0  0.00000000000E+00  0.00000000000E+00  0.95178298384E+01  0.95178298384E+01  0.00000000000E+00 0. -1.
         -1   -1    0    0    0  501 -0.00000000000E+00 -0.00000000000E+00 -0.25994465913E+03  0.25994465913E+03  0.00000000000E+00 0.  1.
         23    2    1    2    0    0  0.00000000000E+00  0.00000000000E+00 -0.25042682929E+03  0.26946248897E+03  0.99480832988E+02 0.  0.
        -13    1    3    3    0    0  0.42676959546E+02  0.24995386278E+02 -0.13955074648E+03  0.14805574307E+03  0.00000000000E+00 0.  1.
         13    1    3    3    0    0 -0.42676959546E+02 -0.24995386278E+02 -0.11087608281E+03  0.12140674590E+03  0.00000000000E+00 0. -1.
<mgrwt>
<rscale>  0 0.99480833E+02</rscale>
<asrwt>0</asrwt>
<pdfrwt beam="1">  1        1 0.14642815E-02 0.99480833E+02</pdfrwt>
<pdfrwt beam="2">  1       -1 0.39991487E-01 0.99480833E+02</pdfrwt>
<totfact> 0.50850728E+04</totfact>
</mgrwt>
</event>
<event>
 5    1  0.6027538E+000  0.9182367E+02  0.7546771E-02  0.1298495E+00
          1   -1    0    0  501    0  0.00000000000E+00  0.00000000000E+00  0.13722952624E+03  0.13722952624E+03  0.00000000000E+00 0. -1.
         -1   -1    0    0    0  501 -0.00000000000E+00 -0.00000000000E+00 -0.15360370532E+02  0.15360370532E+02  0.00000000000E+00 0.  1.
         23    2    1    2    0    0  0.00000000000E+00  0.00000000000E+00  0.12186915570E+03  0.15258989677E+03  0.91823665163E+02 0.  0.
        -13    1    3    3    0    0  0.25642742244E+01 -0.26577887955E+02 -0.11306582764E+01  0.26725231872E+02  0.00000000000E+00 0.  1.
         13    1    3    3    0    0 -0.25642742244E+01  0.26577887955E+02  0.12299981398E+03  0.12586466490E+03  0.00000000000E+00 0. -1.
<mgrwt>
<rscale>  0 0.91823665E+02</rscale>
<asrwt>0</asrwt>
<pdfrwt beam="1">  1        1 0.21112234E-01 0.91823665E+02</pdfrwt>
<pdfrwt beam="2">  1       -1 0.23631340E-02 0.91823665E+02</pdfrwt>
<totfact> 0.10823993E+05</totfact>
</mgrwt>
</event>
<event>
 5    1  0.6027538E+000  0.9121685E+02  0.7546771E-02  0.1299931E+00
         -1   -1    0    0    0  501 -0.00000000000E+00  0.00000000000E+00  0.91928129325E+02  0.91928129325E+02  0.00000000000E+00 0.  1.
          1   -1    0    0  501    0  0.00000000000E+00 -0.00000000000E+00 -0.22627767439E+02  0.22627767439E+02  0.00000000000E+00 0. -1.
         23    2    1    2    0    0  0.00000000000E+00  0.00000000000E+00  0.69300361886E+02  0.11455589676E+03  0.91216847819E+02 0.  0.
        -13    1    3    3    0    0 -0.35981316667E+02  0.15621071693E+02  0.63873106677E+02  0.74956299178E+02  0.00000000000E+00 0.  1.
         13    1    3    3    0    0  0.35981316667E+02 -0.15621071693E+02  0.54272552089E+01  0.39599597586E+02  0.00000000000E+00 0. -1.
<mgrwt>
<rscale>  0 0.91216848E+02</rscale>
<asrwt>0</asrwt>
<pdfrwt beam="2">  1        1 0.34811951E-02 0.91216848E+02</pdfrwt>
<pdfrwt beam="1">  1       -1 0.14142789E-01 0.91216848E+02</pdfrwt>
<totfact> 0.82536223E+04</totfact>
</mgrwt>
</event>
<event>
 5    1  0.6027538E+000  0.8985812E+02  0.7546771E-02  0.1303196E+00
         -2   -1    0    0    0  501 -0.00000000000E+00  0.00000000000E+00  0.23800203487E+02  0.23800203487E+02  0.00000000000E+00 0. -1.
          2   -1    0    0  501    0  0.00000000000E+00 -0.00000000000E+00 -0.84815262392E+02  0.84815262392E+02  0.00000000000E+00 0.  1.
         23    2    1    2    0    0  0.00000000000E+00  0.00000000000E+00 -0.61015058904E+02  0.10861546588E+03  0.89858121587E+02 0.  0.
        -13    1    3    3    0    0  0.25518489909E+02 -0.21521470685E+02 -0.66855438029E+02  0.74726277987E+02  0.00000000000E+00 0.  1.
         13    1    3    3    0    0 -0.25518489909E+02  0.21521470685E+02  0.58403791245E+01  0.33889187893E+02  0.00000000000E+00 0. -1.
<mgrwt>
<rscale>  0 0.89858122E+02</rscale>
<asrwt>0</asrwt>
<pdfrwt beam="2">  1        2 0.13048502E-01 0.89858122E+02</pdfrwt>
<pdfrwt beam="1">  1       -2 0.36615698E-02 0.89858122E+02</pdfrwt>
<totfact> 0.12161227E+05</totfact>
</mgrwt>
</event>
<event>
 5    1  0.6027538E+000  0.6317502E+02  0.7546771E-02  0.1384971E+00
         -3   -1    0    0    0  501 -0.00000000000E+00  0.00000000000E+00  0.22672153354E+02  0.22672153354E+02  0.00000000000E+00 0.  1.
          3   -1    0    0  501    0  0.00000000000E+00 -0.00000000000E+00 -0.44008644049E+02  0.44008644049E+02  0.00000000000E+00 0. -1.
         23    2    1    2    0    0  0.00000000000E+00  0.00000000000E+00 -0.21336490695E+02  0.66680797403E+02  0.63175018062E+02 0.  0.
        -13    1    3    3    0    0  0.13955738673E+01 -0.22591179838E+02  0.12587640843E+02  0.25898991001E+02  0.00000000000E+00 0.  1.
         13    1    3    3    0    0 -0.13955738673E+01  0.22591179838E+02 -0.33924131538E+02  0.40781806403E+02  0.00000000000E+00 0. -1.
<mgrwt>
<rscale>  0 0.63175018E+02</rscale>
<asrwt>0</asrwt>
<pdfrwt beam="2">  1        3 0.67705606E-02 0.63175018E+02</pdfrwt>
<pdfrwt beam="1">  1       -3 0.34880236E-02 0.63175018E+02</pdfrwt>
<totfact> 0.99404482E+04</totfact>
</mgrwt>
</event>
<event>
 5    1  0.6027538E+000  0.8908145E+02  0.7546771E-02  0.1305091E+00
         -1   -1    0    0    0  501 -0.00000000000E+00  0.00000000000E+00  0.28451111643E+02  0.28451111643E+02  0.00000000000E+00 0.  1.
          1   -1    0    0  501    0  0.00000000000E+00 -0.00000000000E+00 -0.69729300067E+02  0.69729300067E+02  0.00000000000E+00 0. -1.
         23    2    1    2    0    0  0.00000000000E+00  0.00000000000E+00 -0.41278188424E+02  0.98180411710E+02  0.89081448147E+02 0.  0.
        -13    1    3    3    0    0  0.32975058372E+01 -0.24147178689E+02 -0.61728693618E+02  0.66365588969E+02  0.00000000000E+00 0. -1.
         13    1    3    3    0    0 -0.32975058372E+01  0.24147178689E+02  0.20450505194E+02  0.31814822741E+02  0.00000000000E+00 0.  1.
<mgrwt>
<rscale>  0 0.89081448E+02</rscale>
<asrwt>0</asrwt>
<pdfrwt beam="2">  1        1 0.10727585E-01 0.89081448E+02</pdfrwt>
<pdfrwt beam="1">  1       -1 0.43770941E-02 0.89081448E+02</pdfrwt>
<totfact> 0.10512198E+05</totfact>
</mgrwt>
</event>
<event>
 5    1  0.6027538E+000  0.9084121E+02  0.7546771E-02  0.1300827E+00
         -1   -1    0    0    0  501 -0.00000000000E+00  0.00000000000E+00  0.33146905893E+02  0.33146905893E+02  0.00000000000E+00 0.  1.
          1   -1    0    0  501    0  0.00000000000E+00 -0.00000000000E+00 -0.62239038622E+02  0.62239038622E+02  0.00000000000E+00 0. -1.
         23    2    1    2    0    0  0.00000000000E+00  0.00000000000E+00 -0.29092132728E+02  0.95385944515E+02  0.90841214349E+02 0.  0.
        -13    1    3    3    0    0 -0.40681553660E+02  0.17777405083E+02 -0.44741761543E+01  0.44621107023E+02  0.00000000000E+00 0.  1.
         13    1    3    3    0    0  0.40681553660E+02 -0.17777405083E+02 -0.24617956574E+02  0.50764837492E+02  0.00000000000E+00 0. -1.
<mgrwt>
<rscale>  0 0.90841214E+02</rscale>
<asrwt>0</asrwt>
<pdfrwt beam="2">  1        1 0.95752367E-02 0.90841214E+02</pdfrwt>
<pdfrwt beam="1">  1       -1 0.50995240E-02 0.90841214E+02</pdfrwt>
<totfact> 0.97902678E+04</totfact>
</mgrwt>
</event>
<event>
 5    1  0.6027538E+000  0.1013647E+03  0.7546771E-02  0.1277452E+00
         -2   -1    0    0    0  501 -0.00000000000E+00  0.00000000000E+00  0.19254787952E+02  0.19254787952E+02  0.00000000000E+00 0.  1.
          2   -1    0    0  501    0  0.00000000000E+00 -0.00000000000E+00 -0.13340578417E+03  0.13340578417E+03  0.00000000000E+00 0. -1.
         23    2    1    2    0    0  0.00000000000E+00  0.00000000000E+00 -0.11415099622E+03  0.15266057212E+03  0.10136468982E+03 0.  0.
        -13    1    3    3    0    0 -0.94912414734E+01 -0.47806409438E+02 -0.36143876378E+02  0.60678795700E+02  0.00000000000E+00 0.  1.
         13    1    3    3    0    0  0.94912414734E+01  0.47806409438E+02 -0.78007119840E+02  0.91981776423E+02  0.00000000000E+00 0. -1.
<mgrwt>
<rscale>  0 0.10136469E+03</rscale>
<asrwt>0</asrwt>
<pdfrwt beam="2">  1        2 0.20523966E-01 0.10136469E+03</pdfrwt>
<pdfrwt beam="1">  1       -2 0.29622752E-02 0.10136469E+03</pdfrwt>
<totfact> 0.10049987E+05</totfact>
</mgrwt>
</event>
<event>
 5    1  0.6027538E+000  0.9146635E+02  0.7546771E-02  0.1299339E+00
         -2   -1    0    0    0  501 -0.00000000000E+00  0.00000000000E+00  0.11048614096E+02  0.11048614096E+02  0.00000000000E+00 0.  1.
          2   -1    0    0  501    0  0.00000000000E+00 -0.00000000000E+00 -0.18930185501E+03  0.18930185501E+03  0.00000000000E+00 0. -1.
         23    2    1    2    0    0  0.00000000000E+00  0.00000000000E+00 -0.17825324091E+03  0.20035046910E+03  0.91466346677E+02 0.  0.
        -13    1    3    3    0    0 -0.74994475423E-03 -0.39948351280E+02 -0.40360565295E+02  0.56787727561E+02  0.00000000000E+00 0.  1.
         13    1    3    3    0    0  0.74994475423E-03  0.39948351280E+02 -0.13789267562E+03  0.14356274154E+03  0.00000000000E+00 0. -1.
<mgrwt>
<rscale>  0 0.91466347E+02</rscale>
<asrwt>0</asrwt>
<pdfrwt beam="2">  1        2 0.29123362E-01 0.91466347E+02</pdfrwt>
<pdfrwt beam="1">  1       -2 0.16997868E-02 0.91466347E+02</pdfrwt>
<totfact> 0.15035624E+05</totfact>
</mgrwt>
</event>
<event>
 5    1  0.6027538E+000  0.8681578E+02  0.7546771E-02  0.1310751E+00
          1   -1    0    0  501    0  0.00000000000E+00  0.00000000000E+00  0.62618764443E+02  0.62618764443E+02  0.00000000000E+00 0. -1.
         -1   -1    0    0    0  501 -0.00000000000E+00 -0.00000000000E+00 -0.30090737315E+02  0.30090737315E+02  0.00000000000E+00 0.  1.
         23    2    1    2    0    0  0.00000000000E+00  0.00000000000E+00  0.32528027127E+02  0.92709501758E+02  0.86815777180E+02 0.  0.
        -13    1    3    3    0    0  0.41618221724E+02 -0.11973821653E+02  0.19431161746E+02  0.47465975511E+02  0.00000000000E+00 0. -1.
         13    1    3    3    0    0 -0.41618221724E+02  0.11973821653E+02  0.13096865381E+02  0.45243526247E+02  0.00000000000E+00 0.  1.
<mgrwt>
<rscale>  0 0.86815777E+02</rscale>
<asrwt>0</asrwt>
<pdfrwt beam="1">  1        1 0.96336560E-02 0.86815777E+02</pdfrwt>
<pdfrwt beam="2">  1       -1 0.46293442E-02 0.86815777E+02</pdfrwt>
<totfact> 0.11103161E+05</totfact>
</mgrwt>
</event>
<event>
 5    1  0.6027538E+000  0.8825549E+02  0.7546771E-02  0.1307132E+00
          2   -1    0    0  501    0  0.00000000000E+00  0.00000000000E+00  0.14124809532E+03  0.14124809532E+03  0.00000000000E+00 0. -1.
         -2   -1    0    0    0  501 -0.00000000000E+00 -0.00000000000E+00 -0.13786080918E+02  0.13786080918E+02  0.00000000000E+00 0.  1.
         23    2    1    2    0    0  0.00000000000E+00  0.00000000000E+00  0.12746201441E+03  0.15503417624E+03  0.88255485305E+02 0.  0.
        -13    1    3    3    0    0 -0.25349055123E+02  0.34631572135E+02  0.45701792781E+02  0.62694291985E+02  0.00000000000E+00 0.  1.
         13    1    3    3    0    0  0.25349055123E+02 -0.34631572135E+02  0.81760221626E+02  0.92339884256E+02  0.00000000000E+00 0. -1.
<mgrwt>
<rscale>  0 0.88255485E+02</rscale>
<asrwt>0</asrwt>
<pdfrwt beam="1">  1        2 0.21730475E-01 0.88255485E+02</pdfrwt>
<pdfrwt beam="2">  1       -2 0.21209356E-02 0.88255485E+02</pdfrwt>
<totfact> 0.14964692E+05</totfact>
</mgrwt>
</event>
<event>
 5    1  0.6027538E+000  0.9630189E+02  0.7546771E-02  0.1288271E+00
          2   -1    0    0  501    0  0.00000000000E+00  0.00000000000E+00  0.42431314977E+03  0.42431314977E+03  0.00000000000E+00 0. -1.
         -2   -1    0    0    0  501 -0.00000000000E+00 -0.00000000000E+00 -0.54641569558E+01  0.54641569558E+01  0.00000000000E+00 0.  1.
         23    2    1    2    0    0  0.00000000000E+00  0.00000000000E+00  0.41884899281E+03  0.42977730672E+03  0.96301892997E+02 0.  0.
        -13    1    3    3    0    0 -0.99766615484E-01 -0.46434214396E+02  0.26629120765E+03  0.27030936627E+03  0.00000000000E+00 0. -1.
         13    1    3    3    0    0  0.99766615484E-01  0.46434214396E+02  0.15255778516E+03  0.15946794046E+03  0.00000000000E+00 0.  1.
<mgrwt>
<rscale>  0 0.96301893E+02</rscale>
<asrwt>0</asrwt>
<pdfrwt beam="1">  1        2 0.65278920E-01 0.96301893E+02</pdfrwt>
<pdfrwt beam="2">  1       -2 0.84063987E-03 0.96301893E+02</pdfrwt>
<totfact> 0.17623238E+05</totfact>
</mgrwt>
</event>
<event>
 5    1  0.6027538E+000  0.9104805E+02  0.7546771E-02  0.1300333E+00
         -3   -1    0    0    0  501 -0.00000000000E+00  0.00000000000E+00  0.30813924647E+02  0.30813924647E+02  0.00000000000E+00 0.  1.
          3   -1    0    0  501    0  0.00000000000E+00 -0.00000000000E+00 -0.67256501519E+02  0.67256501519E+02  0.00000000000E+00 0. -1.
         23    2    1    2    0    0  0.00000000000E+00  0.00000000000E+00 -0.36442576872E+02  0.98070426165E+02  0.91048048190E+02 0.  0.
        -13    1    3    3    0    0  0.22980344817E+02  0.36894624987E+02 -0.36451054033E+01  0.43618761952E+02  0.00000000000E+00 0.  1.
         13    1    3    3    0    0 -0.22980344817E+02 -0.36894624987E+02 -0.32797471468E+02  0.54451664213E+02  0.00000000000E+00 0. -1.
<mgrwt>
<rscale>  0 0.91048048E+02</rscale>
<asrwt>0</asrwt>
<pdfrwt beam="2">  1        3 0.10347154E-01 0.91048048E+02</pdfrwt>
<pdfrwt beam="1">  1       -3 0.47406039E-02 0.91048048E+02</pdfrwt>
<totfact> 0.34949145E+04</totfact>
</mgrwt>
</event>
<event>
 5    1  0.6027538E+000  0.9176974E+02  0.7546771E-02  0.1298622E+00
         -2   -1    0    0    0  501 -0.00000000000E+00  0.00000000000E+00  0.28645157819E+03  0.28645157819E+03  0.00000000000E+00 0.  1.
          2   -1    0    0  501    0  0.00000000000E+00 -0.00000000000E+00 -0.73500077112E+01  0.73500077112E+01  0.00000000000E+00 0. -1.
         23    2    1    2    0    0  0.00000000000E+00  0.00000000000E+00  0.27910157048E+03  0.29380158590E+03  0.91769740298E+02 0.  0.
        -13    1    3    3    0    0  0.38038753876E+02 -0.24716297314E+02  0.11746753393E+03  0.12592245105E+03  0.00000000000E+00 0.  1.
         13    1    3    3    0    0 -0.38038753876E+02  0.24716297314E+02  0.16163403655E+03  0.16787913485E+03  0.00000000000E+00 0. -1.
<mgrwt>
<rscale>  0 0.91769740E+02</rscale>
<asrwt>0</asrwt>
<pdfrwt beam="2">  1        2 0.11307706E-02 0.91769740E+02</pdfrwt>
<pdfrwt beam="1">  1       -2 0.44069465E-01 0.91769740E+02</pdfrwt>
<totfact> 0.51457495E+04</totfact>
</mgrwt>
</event>
<event>
 5    1  0.6027538E+000  0.9219461E+02  0.7546771E-02  0.1297623E+00
         -4   -1    0    0    0  501 -0.00000000000E+00  0.00000000000E+00  0.88596969120E+02  0.88596969120E+02  0.00000000000E+00 0.  1.
          4   -1    0    0  501    0  0.00000000000E+00 -0.00000000000E+00 -0.23984583233E+02  0.23984583233E+02  0.00000000000E+00 0. -1.
         23    2    1    2    0    0  0.00000000000E+00  0.00000000000E+00  0.64612385888E+02  0.11258155235E+03  0.92194606784E+02 0.  0.
        -13    1    3    3    0    0 -0.78545941195E+01 -0.23603556054E+02  0.79697013145E+02  0.83489139482E+02  0.00000000000E+00 0.  1.
         13    1    3    3    0    0  0.78545941195E+01  0.23603556054E+02 -0.15084627257E+02  0.29092412871E+02  0.00000000000E+00 0. -1.
<mgrwt>
<rscale>  0 0.92194607E+02</rscale>
<asrwt>0</asrwt>
<pdfrwt beam="2">  1        4 0.36899359E-02 0.92194607E+02</pdfrwt>
<pdfrwt beam="1">  1       -4 0.13630303E-01 0.92194607E+02</pdfrwt>
<totfact> 0.24938349E+04</totfact>
</mgrwt>
</event>
<event>
 5    1  0.6027538E+000  0.1018498E+03  0.7546771E-02  0.1276453E+00
          2   -1    0    0  501    0  0.00000000000E+00  0.00000000000E+00  0.22516418355E+03  0.22516418355E+03  0.00000000000E+00 0. -1.
         -2   -1    0    0    0  501 -0.00000000000E+00 -0.00000000000E+00 -0.11517582420E+02  0.11517582420E+02  0.00000000000E+00 0.  1.
         23    2    1    2    0    0  0.00000000000E+00  0.00000000000E+00  0.21364660113E+03  0.23668176597E+03  0.10184983146E+03 0.  0.
        -13    1    3    3    0    0 -0.16211278607E+02  0.44145502573E+02  0.15222527293E+03  0.15932408691E+03  0.00000000000E+00 0. -1.
         13    1    3    3    0    0  0.16211278607E+02 -0.44145502573E+02  0.61421328197E+02  0.77357679056E+02  0.00000000000E+00 0.  1.
<mgrwt>
<rscale>  0 0.10184983E+03</rscale>
<asrwt>0</asrwt>
<pdfrwt beam="1">  1        2 0.34640640E-01 0.10184983E+03</pdfrwt>
<pdfrwt beam="2">  1       -2 0.17719359E-02 0.10184983E+03</pdfrwt>
<totfact> 0.11973514E+05</totfact>
</mgrwt>
</event>
<event>
 5    1  0.6027538E+000  0.9240871E+02  0.7546771E-02  0.1297121E+00
          2   -1    0    0  501    0  0.00000000000E+00  0.00000000000E+00  0.36207761281E+02  0.36207761281E+02  0.00000000000E+00 0. -1.
         -2   -1    0    0    0  501 -0.00000000000E+00 -0.00000000000E+00 -0.58960904220E+02  0.58960904220E+02  0.00000000000E+00 0.  1.
         23    2    1    2    0    0  0.00000000000E+00  0.00000000000E+00 -0.22753142940E+02  0.95168665501E+02  0.92408708354E+02 0.  0.
        -13    1    3    3    0    0 -0.63191744326E+01 -0.44345074410E+02  0.29435821144E+00  0.44794020100E+02  0.00000000000E+00 0.  1.
         13    1    3    3    0    0  0.63191744326E+01  0.44345074410E+02 -0.23047501151E+02  0.50374645401E+02  0.00000000000E+00 0. -1.
<mgrwt>
<rscale>  0 0.92408708E+02</rscale>
<asrwt>0</asrwt>
<pdfrwt beam="1">  1        2 0.55704249E-02 0.92408708E+02</pdfrwt>
<pdfrwt beam="2">  1       -2 0.90709083E-02 0.92408708E+02</pdfrwt>
<totfact> 0.89375612E+04</totfact>
</mgrwt>
</event>
<event>
 5    1  0.6027538E+000  0.8999755E+02  0.7546771E-02  0.1302858E+00
         -3   -1    0    0    0  501 -0.00000000000E+00  0.00000000000E+00  0.77483763710E+02  0.77483763710E+02  0.00000000000E+00 0.  1.
          3   -1    0    0  501    0  0.00000000000E+00 -0.00000000000E+00 -0.26133086985E+02  0.26133086985E+02  0.00000000000E+00 0. -1.
         23    2    1    2    0    0  0.00000000000E+00  0.00000000000E+00  0.51350676725E+02  0.10361685070E+03  0.89997554122E+02 0.  0.
        -13    1    3    3    0    0  0.15159824045E+02 -0.21451508955E+01 -0.23041933863E+02  0.27665007746E+02  0.00000000000E+00 0. -1.
         13    1    3    3    0    0 -0.15159824045E+02  0.21451508955E+01  0.74392610588E+02  0.75951842950E+02  0.00000000000E+00 0.  1.
<mgrwt>
<rscale>  0 0.89997554E+02</rscale>
<asrwt>0</asrwt>
<pdfrwt beam="2">  1        3 0.40204749E-02 0.89997554E+02</pdfrwt>
<pdfrwt beam="1">  1       -3 0.11920579E-01 0.89997554E+02</pdfrwt>
<totfact> 0.35644293E+04</totfact>
</mgrwt>
</event>
<event>
 5    1  0.6027538E+000  0.9036603E+02  0.7546771E-02  0.1301968E+00
          1   -1    0    0  501    0  0.00000000000E+00  0.00000000000E+00  0.37450365657E+02  0.37450365657E+02  0.00000000000E+00 0. -1.
         -1   -1    0    0    0  501 -0.00000000000E+00 -0.00000000000E+00 -0.54512283710E+02  0.54512283710E+02  0.00000000000E+00 0.  1.
         23    2    1    2    0    0  0.00000000000E+00  0.00000000000E+00 -0.17061918053E+02  0.91962649368E+02  0.90366032507E+02 0.  0.
        -13    1    3    3    0    0 -0.71839836320E+01 -0.36521029267E+02 -0.34598166454E+02  0.50817598541E+02  0.00000000000E+00 0.  1.
         13    1    3    3    0    0  0.71839836320E+01  0.36521029267E+02  0.17536248400E+02  0.41145050826E+02  0.00000000000E+00 0. -1.
<mgrwt>
<rscale>  0 0.90366033E+02</rscale>
<asrwt>0</asrwt>
<pdfrwt beam="1">  1        1 0.57615948E-02 0.90366033E+02</pdfrwt>
<pdfrwt beam="2">  1       -1 0.83865051E-02 0.90366033E+02</pdfrwt>
<totfact> 0.92054739E+04</totfact>
</mgrwt>
</event>
<event>
 5    1  0.6027538E+000  0.8305517E+02  0.7546771E-02  0.1320598E+00
         -2   -1    0    0    0  501 -0.00000000000E+00  0.00000000000E+00  0.90624934504E+01  0.90624934504E+01  0.00000000000E+00 0.  1.
          2   -1    0    0  501    0  0.00000000000E+00 -0.00000000000E+00 -0.19029424501E+03  0.19029424501E+03  0.00000000000E+00 0. -1.
         23    2    1    2    0    0  0.00000000000E+00  0.00000000000E+00 -0.18123175156E+03  0.19935673846E+03  0.83055170798E+02 0.  0.
        -13    1    3    3    0    0  0.49789785619E+01 -0.32083639956E+02 -0.15276400535E+03  0.15617615539E+03  0.00000000000E+00 0. -1.
         13    1    3    3    0    0 -0.49789785619E+01  0.32083639956E+02 -0.28467746206E+02  0.43180583072E+02  0.00000000000E+00 0.  1.
<mgrwt>
<rscale>  0 0.83055171E+02</rscale>
<asrwt>0</asrwt>
<pdfrwt beam="2">  1        2 0.29276035E-01 0.83055171E+02</pdfrwt>
<pdfrwt beam="1">  1       -2 0.13942299E-02 0.83055171E+02</pdfrwt>
<totfact> 0.19507746E+05</totfact>
</mgrwt>
</event>
<event>
 5    1  0.6027538E+000  0.9365543E+02  0.7546771E-02  0.1294233E+00
         -1   -1    0    0    0  501 -0.00000000000E+00  0.00000000000E+00  0.53596479148E+02  0.53596479148E+02  0.00000000000E+00 0.  1.
          1   -1    0    0  501    0  0.00000000000E+00 -0.00000000000E+00 -0.40913787870E+02  0.40913787870E+02  0.00000000000E+00 0. -1.
         23    2    1    2    0    0  0.00000000000E+00  0.00000000000E+00  0.12682691278E+02  0.94510267018E+02  0.93655431843E+02 0.  0.
        -13    1    3    3    0    0  0.27293704561E+02  0.36058133715E+02 -0.59227568523E+01  0.45609367069E+02  0.00000000000E+00 0.  1.
         13    1    3    3    0    0 -0.27293704561E+02 -0.36058133715E+02  0.18605448130E+02  0.48900899949E+02  0.00000000000E+00 0. -1.
<mgrwt>
<rscale>  0 0.93655432E+02</rscale>
<asrwt>0</asrwt>
<pdfrwt beam="2">  1        1 0.62944289E-02 0.93655432E+02</pdfrwt>
<pdfrwt beam="1">  1       -1 0.82456122E-02 0.93655432E+02</pdfrwt>
<totfact> 0.84323679E+04</totfact>
</mgrwt>
</event>
<event>
 5    1  0.6027538E+000  0.9016343E+02  0.7546771E-02  0.1302456E+00
         -1   -1    0    0    0  501 -0.00000000000E+00  0.00000000000E+00  0.15029565153E+02  0.15029565153E+02  0.00000000000E+00 0.  1.
          1   -1    0    0  501    0  0.00000000000E+00 -0.00000000000E+00 -0.13522420326E+03  0.13522420326E+03  0.00000000000E+00 0. -1.
         23    2    1    2    0    0  0.00000000000E+00  0.00000000000E+00 -0.12019463810E+03  0.15025376841E+03  0.90163428796E+02 0.  0.
        -13    1    3    3    0    0  0.35948000785E+02  0.24707724077E+02 -0.41123764857E+02  0.59949098621E+02  0.00000000000E+00 0.  1.
         13    1    3    3    0    0 -0.35948000785E+02 -0.24707724077E+02 -0.79070873248E+02  0.90304669788E+02  0.00000000000E+00 0. -1.
<mgrwt>
<rscale>  0 0.90163429E+02</rscale>
<asrwt>0</asrwt>
<pdfrwt beam="2">  1        1 0.20803724E-01 0.90163429E+02</pdfrwt>
<pdfrwt beam="1">  1       -1 0.23122408E-02 0.90163429E+02</pdfrwt>
<totfact> 0.11341143E+05</totfact>
</mgrwt>
</event>
<event>
 5    1  0.6027538E+000  0.9114368E+02  0.7546771E-02  0.1300106E+00
          1   -1    0    0  501    0  0.00000000000E+00  0.00000000000E+00  0.10673108297E+02  0.10673108297E+02  0.00000000000E+00 0. -1.
         -1   -1    0    0    0  501 -0.00000000000E+00 -0.00000000000E+00 -0.19458178848E+03  0.19458178848E+03  0.00000000000E+00 0.  1.
         23    2    1    2    0    0  0.00000000000E+00  0.00000000000E+00 -0.18390868018E+03  0.20525489677E+03  0.91143677806E+02 0.  0.
        -13    1    3    3    0    0 -0.18378587825E+02  0.27964402839E+02 -0.16162111583E+03  0.16504897879E+03  0.00000000000E+00 0.  1.
         13    1    3    3    0    0  0.18378587825E+02 -0.27964402839E+02 -0.22287564352E+02  0.40205917989E+02  0.00000000000E+00 0. -1.
<mgrwt>
<rscale>  0 0.91143678E+02</rscale>
<asrwt>0</asrwt>
<pdfrwt beam="1">  1        1 0.16420167E-02 0.91143678E+02</pdfrwt>
<pdfrwt beam="2">  1       -1 0.29935658E-01 0.91143678E+02</pdfrwt>
<totfact> 0.70033129E+04</totfact>
</mgrwt>
</event>
<event>
 5    1  0.6027538E+000  0.9203372E+02  0.7546771E-02  0.1298000E+00
          2   -1    0    0  501    0  0.00000000000E+00  0.00000000000E+00  0.89910932050E+02  0.89910932050E+02  0.00000000000E+00 0. -1.
         -2   -1    0    0    0  501 -0.00000000000E+00 -0.00000000000E+00 -0.23551659096E+02  0.23551659096E+02  0.00000000000E+00 0.  1.
         23    2    1    2    0    0  0.00000000000E+00  0.00000000000E+00  0.66359272955E+02  0.11346259115E+03  0.92033724702E+02 0.  0.
        -13    1    3    3    0    0  0.44344665680E+02  0.54199039070E+01  0.19577755877E+02  0.48776154603E+02  0.00000000000E+00 0.  1.
         13    1    3    3    0    0 -0.44344665680E+02 -0.54199039070E+01  0.46781517077E+02  0.64686436543E+02  0.00000000000E+00 0. -1.
<mgrwt>
<rscale>  0 0.92033725E+02</rscale>
<asrwt>0</asrwt>
<pdfrwt beam="1">  1        2 0.13832451E-01 0.92033725E+02</pdfrwt>
<pdfrwt beam="2">  1       -2 0.36233322E-02 0.92033725E+02</pdfrwt>
<totfact> 0.11578477E+05</totfact>
</mgrwt>
</event>
<event>
 5    1  0.6027538E+000  0.9141429E+02  0.7546771E-02  0.1299462E+00
          3   -1    0    0  501    0  0.00000000000E+00  0.00000000000E+00  0.11380062596E+03  0.11380062596E+03  0.00000000000E+00 0. -1.
         -3   -1    0    0    0  501 -0.00000000000E+00 -0.00000000000E+00 -0.18357923824E+02  0.18357923824E+02  0.00000000000E+00 0.  1.
         23    2    1    2    0    0  0.00000000000E+00  0.00000000000E+00  0.95442702135E+02  0.13215854978E+03  0.91414292591E+02 0.  0.
        -13    1    3    3    0    0  0.14317073561E+02 -0.34942595851E+02  0.10491032867E+02  0.39192159557E+02  0.00000000000E+00 0. -1.
         13    1    3    3    0    0 -0.14317073561E+02  0.34942595851E+02  0.84951669269E+02  0.92966390226E+02  0.00000000000E+00 0.  1.
<mgrwt>
<rscale>  0 0.91414293E+02</rscale>
<asrwt>0</asrwt>
<pdfrwt beam="1">  1        3 0.17507788E-01 0.91414293E+02</pdfrwt>
<pdfrwt beam="2">  1       -3 0.28242961E-02 0.91414293E+02</pdfrwt>
<totfact> 0.32205999E+04</totfact>
</mgrwt>
</event>
<event>
 5    1  0.6027538E+000  0.9243322E+02  0.7546771E-02  0.1297064E+00
          3   -1    0    0  501    0  0.00000000000E+00  0.00000000000E+00  0.81409309425E+02  0.81409309425E+02  0.00000000000E+00 0. -1.
         -3   -1    0    0    0  501 -0.00000000000E+00 -0.00000000000E+00 -0.26237477535E+02  0.26237477535E+02  0.00000000000E+00 0.  1.
         23    2    1    2    0    0  0.00000000000E+00  0.00000000000E+00  0.55171831890E+02  0.10764678696E+03  0.92433217561E+02 0.  0.
        -13    1    3    3    0    0  0.19829222381E+02 -0.91309487764E+00 -0.21020095645E+02  0.28911524059E+02  0.00000000000E+00 0.  1.
         13    1    3    3    0    0 -0.19829222381E+02  0.91309487764E+00  0.76191927535E+02  0.78735262901E+02  0.00000000000E+00 0. -1.
<mgrwt>
<rscale>  0 0.92433218E+02</rscale>
<asrwt>0</asrwt>
<pdfrwt beam="1">  1        3 0.12524509E-01 0.92433218E+02</pdfrwt>
<pdfrwt beam="2">  1       -3 0.40365350E-02 0.92433218E+02</pdfrwt>
<totfact> 0.32864094E+04</totfact>
</mgrwt>
</event>
<event>
 5    1  0.6027538E+000  0.9130573E+02  0.7546771E-02  0.1299720E+00
          2   -1    0    0  501    0  0.00000000000E+00  0.00000000000E+00  0.14720584164E+02  0.14720584164E+02  0.00000000000E+00 0.  1.
         -2   -1    0    0    0  501 -0.00000000000E+00 -0.00000000000E+00 -0.14158297747E+03  0.14158297747E+03  0.00000000000E+00 0. -1.
         23    2    1    2    0    0  0.00000000000E+00  0.00000000000E+00 -0.12686239330E+03  0.15630356163E+03  0.91305731166E+02 0.  0.
        -13    1    3    3    0    0 -0.37765090824E+02 -0.88912953903E+01 -0.10462033500E+03  0.11158257801E+03  0.00000000000E+00 0. -1.
         13    1    3    3    0    0  0.37765090824E+02  0.88912953903E+01 -0.22242058298E+02  0.44720983621E+02  0.00000000000E+00 0.  1.
<mgrwt>
<rscale>  0 0.91305731E+02</rscale>
<asrwt>0</asrwt>
<pdfrwt beam="1">  1        2 0.22647052E-02 0.91305731E+02</pdfrwt>
<pdfrwt beam="2">  1       -2 0.21781997E-01 0.91305731E+02</pdfrwt>
<totfact> 0.71062901E+04</totfact>
</mgrwt>
</event>
<event>
 5    1  0.6027538E+000  0.9010281E+02  0.7546771E-02  0.1302603E+00
          2   -1    0    0  501    0  0.00000000000E+00  0.00000000000E+00  0.76782049030E+01  0.76782049030E+01  0.00000000000E+00 0. -1.
         -2   -1    0    0    0  501 -0.00000000000E+00 -0.00000000000E+00 -0.26433641956E+03  0.26433641956E+03  0.00000000000E+00 0.  1.
         23    2    1    2    0    0  0.00000000000E+00  0.00000000000E+00 -0.25665821466E+03  0.27201462447E+03  0.90102812225E+02 0.  0.
        -13    1    3    3    0    0  0.26756889597E+02  0.30019344800E+02 -0.67011478062E+02  0.78151330092E+02  0.00000000000E+00 0. -1.
         13    1    3    3    0    0 -0.26756889597E+02 -0.30019344800E+02 -0.18964673660E+03  0.19386329437E+03  0.00000000000E+00 0.  1.
<mgrwt>
<rscale>  0 0.90102812E+02</rscale>
<asrwt>0</asrwt>
<pdfrwt beam="1">  1        2 0.11812622E-02 0.90102812E+02</pdfrwt>
<pdfrwt beam="2">  1       -2 0.40667146E-01 0.90102812E+02</pdfrwt>
<totfact> 0.56293564E+04</totfact>
</mgrwt>
</event>
<event>
 5    1  0.6027538E+000  0.8283142E+02  0.7546771E-02  0.1321203E+00
         -4   -1    0    0    0  501 -0.00000000000E+00  0.00000000000E+00  0.11972838198E+03  0.11972838198E+03  0.00000000000E+00 0.  1.
          4   -1    0    0  501    0  0.00000000000E+00 -0.00000000000E+00 -0.14326269386E+02  0.14326269386E+02  0.00000000000E+00 0. -1.
         23    2    1    2    0    0  0.00000000000E+00  0.00000000000E+00  0.10540211260E+03  0.13405465137E+03  0.82831420451E+02 0.  0.
        -13    1    3    3    0    0 -0.31232705163E+02 -0.20708088468E+02  0.24162300878E+02  0.44588379468E+02  0.00000000000E+00 0. -1.
         13    1    3    3    0    0  0.31232705163E+02  0.20708088468E+02  0.81239811720E+02  0.89466271903E+02  0.00000000000E+00 0.  1.
<mgrwt>
<rscale>  0 0.82831420E+02</rscale>
<asrwt>0</asrwt>
<pdfrwt beam="2">  1        4 0.22040415E-02 0.82831420E+02</pdfrwt>
<pdfrwt beam="1">  1       -4 0.18419750E-01 0.82831420E+02</pdfrwt>
<totfact> 0.31670148E+04</totfact>
</mgrwt>
</event>
<event>
 5    1  0.6027538E+000  0.9173483E+02  0.7546771E-02  0.1298704E+00
          3   -1    0    0  501    0  0.00000000000E+00  0.00000000000E+00  0.29355465960E+02  0.29355465960E+02  0.00000000000E+00 0. -1.
         -3   -1    0    0    0  501 -0.00000000000E+00 -0.00000000000E+00 -0.71667048819E+02  0.71667048819E+02  0.00000000000E+00 0.  1.
         23    2    1    2    0    0  0.00000000000E+00  0.00000000000E+00 -0.42311582859E+02  0.10102251478E+03  0.91734826801E+02 0.  0.
        -13    1    3    3    0    0 -0.14854948521E+02 -0.34210275162E+02  0.82457409347E+01  0.38196919585E+02  0.00000000000E+00 0. -1.
         13    1    3    3    0    0  0.14854948521E+02  0.34210275162E+02 -0.50557323793E+02  0.62825595193E+02  0.00000000000E+00 0.  1.
<mgrwt>
<rscale>  0 0.91734827E+02</rscale>
<asrwt>0</asrwt>
<pdfrwt beam="1">  1        3 0.45162256E-02 0.91734827E+02</pdfrwt>
<pdfrwt beam="2">  1       -3 0.11025700E-01 0.91734827E+02</pdfrwt>
<totfact> 0.34025859E+04</totfact>
</mgrwt>
</event>
<event>
 5    1  0.6027538E+000  0.9094197E+02  0.7546771E-02  0.1300586E+00
         -1   -1    0    0    0  501 -0.00000000000E+00  0.00000000000E+00  0.24141033277E+02  0.24141033277E+02  0.00000000000E+00 0. -1.
          1   -1    0    0  501    0  0.00000000000E+00 -0.00000000000E+00 -0.85647143319E+02  0.85647143319E+02  0.00000000000E+00 0.  1.
         23    2    1    2    0    0  0.00000000000E+00  0.00000000000E+00 -0.61506110042E+02  0.10978817660E+03  0.90941971321E+02 0.  0.
        -13    1    3    3    0    0 -0.70553790197E+01 -0.21715284711E+02 -0.78224787023E+02  0.81488951815E+02  0.00000000000E+00 0.  1.
         13    1    3    3    0    0  0.70553790197E+01  0.21715284711E+02  0.16718676981E+02  0.28299224780E+02  0.00000000000E+00 0. -1.
<mgrwt>
<rscale>  0 0.90941971E+02</rscale>
<asrwt>0</asrwt>
<pdfrwt beam="2">  1        1 0.13176484E-01 0.90941971E+02</pdfrwt>
<pdfrwt beam="1">  1       -1 0.37140051E-02 0.90941971E+02</pdfrwt>
<totfact> 0.10256498E+05</totfact>
</mgrwt>
</event>
<event>
 5    1  0.6027538E+000  0.7459545E+02  0.7546771E-02  0.1345128E+00
         -1   -1    0    0    0  501 -0.00000000000E+00  0.00000000000E+00  0.96558583458E+02  0.96558583458E+02  0.00000000000E+00 0.  1.
          1   -1    0    0  501    0  0.00000000000E+00 -0.00000000000E+00 -0.14407008006E+02  0.14407008006E+02  0.00000000000E+00 0. -1.
         23    2    1    2    0    0  0.00000000000E+00  0.00000000000E+00  0.82151575452E+02  0.11096559146E+03  0.74595449859E+02 0.  0.
        -13    1    3    3    0    0  0.26486994850E+02 -0.26172442612E+02  0.37898299660E+02  0.53130393991E+02  0.00000000000E+00 0. -1.
         13    1    3    3    0    0 -0.26486994850E+02  0.26172442612E+02  0.44253275792E+02  0.57835197474E+02  0.00000000000E+00 0.  1.
<mgrwt>
<rscale>  0 0.74595450E+02</rscale>
<asrwt>0</asrwt>
<pdfrwt beam="2">  1        1 0.22164628E-02 0.74595450E+02</pdfrwt>
<pdfrwt beam="1">  1       -1 0.14855166E-01 0.74595450E+02</pdfrwt>
<totfact> 0.13695961E+05</totfact>
</mgrwt>
</event>
<event>
 5    1  0.6027538E+000  0.9112823E+02  0.7546771E-02  0.1300142E+00
         -1   -1    0    0    0  501 -0.00000000000E+00  0.00000000000E+00  0.13289945341E+02  0.13289945341E+02  0.00000000000E+00 0. -1.
          1   -1    0    0  501    0  0.00000000000E+00 -0.00000000000E+00 -0.15621497800E+03  0.15621497800E+03  0.00000000000E+00 0.  1.
         23    2    1    2    0    0  0.00000000000E+00  0.00000000000E+00 -0.14292503266E+03  0.16950492334E+03  0.91128228756E+02 0.  0.
        -13    1    3    3    0    0  0.40013133969E+02  0.57405039943E+00 -0.11198935307E+03  0.11892432730E+03  0.00000000000E+00 0.  1.
         13    1    3    3    0    0 -0.40013133969E+02 -0.57405039943E+00 -0.30935679594E+02  0.50580596040E+02  0.00000000000E+00 0. -1.
<mgrwt>
<rscale>  0 0.91128229E+02</rscale>
<asrwt>0</asrwt>
<pdfrwt beam="2">  1        1 0.24033075E-01 0.91128229E+02</pdfrwt>
<pdfrwt beam="1">  1       -1 0.20446069E-02 0.91128229E+02</pdfrwt>
<totfact> 0.11313904E+05</totfact>
</mgrwt>
</event>
<event>
 5    1  0.6027538E+000  0.9266836E+02  0.7546771E-02  0.1296516E+00
          2   -1    0    0  501    0  0.00000000000E+00  0.00000000000E+00  0.30268928257E+02  0.30268928257E+02  0.00000000000E+00 0. -1.
         -2   -1    0    0    0  501 -0.00000000000E+00 -0.00000000000E+00 -0.70926075587E+02  0.70926075587E+02  0.00000000000E+00 0.  1.
         23    2    1    2    0    0  0.00000000000E+00  0.00000000000E+00 -0.40657147329E+02  0.10119500384E+03  0.92668361235E+02 0.  0.
        -13    1    3    3    0    0  0.27496986611E+02 -0.18338669045E+02  0.15131833827E+02  0.36350563269E+02  0.00000000000E+00 0. -1.
         13    1    3    3    0    0 -0.27496986611E+02  0.18338669045E+02 -0.55788981156E+02  0.64844440575E+02  0.00000000000E+00 0.  1.
<mgrwt>
<rscale>  0 0.92668361E+02</rscale>
<asrwt>0</asrwt>
<pdfrwt beam="1">  1        2 0.46567582E-02 0.92668361E+02</pdfrwt>
<pdfrwt beam="2">  1       -2 0.10911704E-01 0.92668361E+02</pdfrwt>
<totfact> 0.84499227E+04</totfact>
</mgrwt>
</event>
<event>
 5    1  0.6027538E+000  0.9555957E+02  0.7546771E-02  0.1289921E+00
          1   -1    0    0  501    0  0.00000000000E+00  0.00000000000E+00  0.11360428691E+02  0.11360428691E+02  0.00000000000E+00 0. -1.
         -1   -1    0    0    0  501 -0.00000000000E+00 -0.00000000000E+00 -0.20095261932E+03  0.20095261932E+03  0.00000000000E+00 0.  1.
         23    2    1    2    0    0  0.00000000000E+00  0.00000000000E+00 -0.18959219063E+03  0.21231304802E+03  0.95559570993E+02 0.  0.
        -13    1    3    3    0    0 -0.83596273093E+01 -0.33170606268E+02 -0.16890978739E+03  0.17233887769E+03  0.00000000000E+00 0.  1.
         13    1    3    3    0    0  0.83596273093E+01  0.33170606268E+02 -0.20682403244E+02  0.39974170321E+02  0.00000000000E+00 0. -1.
<mgrwt>
<rscale>  0 0.95559571E+02</rscale>
<asrwt>0</asrwt>
<pdfrwt beam="1">  1        1 0.17477584E-02 0.95559571E+02</pdfrwt>
<pdfrwt beam="2">  1       -1 0.30915785E-01 0.95559571E+02</pdfrwt>
<totfact> 0.61331799E+04</totfact>
</mgrwt>
</event>
<event>
 4    1  0.6027538E+000  0.1631577E+03  0.7546771E-02  0.1185177E+00
         -2   -1    0    0    0  501 -0.00000000000E+00  0.00000000000E+00  0.14399320616E+03  0.14399320616E+03  0.00000000000E+00 0.  1.
          2   -1    0    0  501    0  0.00000000000E+00 -0.00000000000E+00 -0.46218208112E+02  0.46218208112E+02  0.00000000000E+00 0. -1.
        -13    1    1    2    0    0  0.45808430161E+02  0.33944733850E+02  0.11690999341E+03  0.13007153335E+03  0.00000000000E+00 0.  1.
         13    1    1    2    0    0 -0.45808430161E+02 -0.33944733850E+02 -0.19134995359E+02  0.60139880922E+02  0.00000000000E+00 0. -1.
<mgrwt>
<rscale>  0 0.16315769E+03</rscale>
<asrwt>0</asrwt>
<pdfrwt beam="2">  1        2 0.71104936E-02 0.16315769E+03</pdfrwt>
<pdfrwt beam="1">  1       -2 0.22152801E-01 0.16315769E+03</pdfrwt>
<totfact> 0.16466398E+04</totfact>
</mgrwt>
</event>
<event>
 5    1  0.6027538E+000  0.9205117E+02  0.7546771E-02  0.1297959E+00
          3   -1    0    0  501    0  0.00000000000E+00  0.00000000000E+00  0.67741615213E+02  0.67741615213E+02  0.00000000000E+00 0. -1.
         -3   -1    0    0    0  501 -0.00000000000E+00 -0.00000000000E+00 -0.31271095318E+02  0.31271095318E+02  0.00000000000E+00 0.  1.
         23    2    1    2    0    0  0.00000000000E+00  0.00000000000E+00  0.36470519895E+02  0.99012710530E+02  0.92051170689E+02 0.  0.
        -13    1    3    3    0    0  0.69339146433E+01 -0.40730152236E+02  0.40050341642E+02  0.57541761696E+02  0.00000000000E+00 0. -1.
         13    1    3    3    0    0 -0.69339146433E+01  0.40730152236E+02 -0.35798217476E+01  0.41470948834E+02  0.00000000000E+00 0.  1.
<mgrwt>
<rscale>  0 0.92051171E+02</rscale>
<asrwt>0</asrwt>
<pdfrwt beam="1">  1        3 0.10421787E-01 0.92051171E+02</pdfrwt>
<pdfrwt beam="2">  1       -3 0.48109377E-02 0.92051171E+02</pdfrwt>
<totfact> 0.33851395E+04</totfact>
</mgrwt>
</event>
<event>
 5    1  0.6027538E+000  0.9076541E+02  0.7546771E-02  0.1301009E+00
          2   -1    0    0  501    0  0.00000000000E+00  0.00000000000E+00  0.31752145277E+02  0.31752145277E+02  0.00000000000E+00 0. -1.
         -2   -1    0    0    0  501 -0.00000000000E+00 -0.00000000000E+00 -0.64864597773E+02  0.64864597773E+02  0.00000000000E+00 0.  1.
         23    2    1    2    0    0  0.00000000000E+00  0.00000000000E+00 -0.33112452496E+02  0.96616743051E+02  0.90765414820E+02 0.  0.
        -13    1    3    3    0    0 -0.11239748797E+02 -0.26599902773E+02  0.20710795196E+02  0.35536232471E+02  0.00000000000E+00 0. -1.
         13    1    3    3    0    0  0.11239748797E+02  0.26599902773E+02 -0.53823247692E+02  0.61080510580E+02  0.00000000000E+00 0.  1.
<mgrwt>
<rscale>  0 0.90765415E+02</rscale>
<asrwt>0</asrwt>
<pdfrwt beam="1">  1        2 0.48849455E-02 0.90765415E+02</pdfrwt>
<pdfrwt beam="2">  1       -2 0.99791688E-02 0.90765415E+02</pdfrwt>
<totfact> 0.91016592E+04</totfact>
</mgrwt>
</event>
<event>
 5    1  0.6027538E+000  0.8898158E+02  0.7546771E-02  0.1305337E+00
         -1   -1    0    0    0  501 -0.00000000000E+00  0.00000000000E+00  0.66356515309E+02  0.66356515309E+02  0.00000000000E+00 0.  1.
          1   -1    0    0  501    0  0.00000000000E+00 -0.00000000000E+00 -0.29830230899E+02  0.29830230899E+02  0.00000000000E+00 0. -1.
         23    2    1    2    0    0  0.00000000000E+00  0.00000000000E+00  0.36526284410E+02  0.96186746208E+02  0.88981575022E+02 0.  0.
        -13    1    3    3    0    0  0.32434998034E+02 -0.17379168305E+01  0.51128667994E+02  0.60573840420E+02  0.00000000000E+00 0.  1.
         13    1    3    3    0    0 -0.32434998034E+02  0.17379168305E+01 -0.14602383583E+02  0.35612905789E+02  0.00000000000E+00 0. -1.
<mgrwt>
<rscale>  0 0.88981575E+02</rscale>
<asrwt>0</asrwt>
<pdfrwt beam="2">  1        1 0.45892663E-02 0.88981575E+02</pdfrwt>
<pdfrwt beam="1">  1       -1 0.10208695E-01 0.88981575E+02</pdfrwt>
<totfact> 0.92863750E+04</totfact>
</mgrwt>
</event>
<event>
 5    1  0.6027538E+000  0.9197304E+02  0.7546771E-02  0.1298143E+00
         -4   -1    0    0    0  501 -0.00000000000E+00  0.00000000000E+00  0.17603899329E+03  0.17603899329E+03  0.00000000000E+00 0.  1.
          4   -1    0    0  501    0  0.00000000000E+00 -0.00000000000E+00 -0.12013020449E+02  0.12013020449E+02  0.00000000000E+00 0. -1.
         23    2    1    2    0    0  0.00000000000E+00  0.00000000000E+00  0.16402597284E+03  0.18805201374E+03  0.91973040098E+02 0.  0.
        -13    1    3    3    0    0  0.26843300328E+02 -0.34878866446E+02  0.10926600631E+03  0.11779710622E+03  0.00000000000E+00 0. -1.
         13    1    3    3    0    0 -0.26843300328E+02  0.34878866446E+02  0.54759966531E+02  0.70254907526E+02  0.00000000000E+00 0.  1.
<mgrwt>
<rscale>  0 0.91973040E+02</rscale>
<asrwt>0</asrwt>
<pdfrwt beam="2">  1        4 0.18481571E-02 0.91973040E+02</pdfrwt>
<pdfrwt beam="1">  1       -4 0.27082920E-01 0.91973040E+02</pdfrwt>
<totfact> 0.21390375E+04</totfact>
</mgrwt>
</event>
<event>
 5    1  0.6027538E+000  0.9100233E+02  0.7546771E-02  0.1300442E+00
         -2   -1    0    0    0  501 -0.00000000000E+00  0.00000000000E+00  0.20070759774E+02  0.20070759774E+02  0.00000000000E+00 0.  1.
          2   -1    0    0  501    0  0.00000000000E+00 -0.00000000000E+00 -0.10315285587E+03  0.10315285587E+03  0.00000000000E+00 0. -1.
         23    2    1    2    0    0  0.00000000000E+00  0.00000000000E+00 -0.83082096098E+02  0.12322361565E+03  0.91002333822E+02 0.  0.
        -13    1    3    3    0    0  0.39246713942E+02 -0.15041279774E+02 -0.17939333745E+02  0.45698625228E+02  0.00000000000E+00 0.  1.
         13    1    3    3    0    0 -0.39246713942E+02  0.15041279774E+02 -0.65142762353E+02  0.77524990419E+02  0.00000000000E+00 0. -1.
<mgrwt>
<rscale>  0 0.91002334E+02</rscale>
<asrwt>0</asrwt>
<pdfrwt beam="2">  1        2 0.15869670E-01 0.91002334E+02</pdfrwt>
<pdfrwt beam="1">  1       -2 0.30878092E-02 0.91002334E+02</pdfrwt>
<totfact> 0.12450081E+05</totfact>
</mgrwt>
</event>
<event>
 5    1  0.6027538E+000  0.9084234E+02  0.7546771E-02  0.1300825E+00
          4   -1    0    0  501    0  0.00000000000E+00  0.00000000000E+00  0.10800835827E+03  0.10800835827E+03  0.00000000000E+00 0. -1.
         -4   -1    0    0    0  501 -0.00000000000E+00 -0.00000000000E+00 -0.19101138810E+02  0.19101138810E+02  0.00000000000E+00 0.  1.
         23    2    1    2    0    0  0.00000000000E+00  0.00000000000E+00  0.88907219456E+02  0.12710949708E+03  0.90842339112E+02 0.  0.
        -13    1    3    3    0    0  0.30819782727E+02  0.21672961453E+02  0.79948523049E+02  0.88381800181E+02  0.00000000000E+00 0. -1.
         13    1    3    3    0    0 -0.30819782727E+02 -0.21672961453E+02  0.89586964073E+01  0.38727696895E+02  0.00000000000E+00 0.  1.
<mgrwt>
<rscale>  0 0.90842339E+02</rscale>
<asrwt>0</asrwt>
<pdfrwt beam="1">  1        4 0.16616670E-01 0.90842339E+02</pdfrwt>
<pdfrwt beam="2">  1       -4 0.29386368E-02 0.90842339E+02</pdfrwt>
<totfact> 0.25123709E+04</totfact>
</mgrwt>
</event>
<event>
 5    1  0.6027538E+000  0.9025589E+02  0.7546771E-02  0.1302233E+00
         -3   -1    0    0    0  501 -0.00000000000E+00  0.00000000000E+00  0.16884361859E+02  0.16884361859E+02  0.00000000000E+00 0.  1.
          3   -1    0    0  501    0  0.00000000000E+00 -0.00000000000E+00 -0.12061643326E+03  0.12061643326E+03  0.00000000000E+00 0. -1.
         23    2    1    2    0    0  0.00000000000E+00  0.00000000000E+00 -0.10373207141E+03  0.13750079512E+03  0.90255891894E+02 0.  0.
        -13    1    3    3    0    0  0.33316977975E+02 -0.24162286338E+02 -0.80068246410E+02  0.90026447146E+02  0.00000000000E+00 0. -1.
         13    1    3    3    0    0 -0.33316977975E+02  0.24162286338E+02 -0.23663824995E+02  0.47474347978E+02  0.00000000000E+00 0.  1.
<mgrwt>
<rscale>  0 0.90255892E+02</rscale>
<asrwt>0</asrwt>
<pdfrwt beam="2">  1        3 0.18556374E-01 0.90255892E+02</pdfrwt>
<pdfrwt beam="1">  1       -3 0.25975941E-02 0.90255892E+02</pdfrwt>
<totfact> 0.32983178E+04</totfact>
</mgrwt>
</event>
<event>
 5    1  0.6027538E+000  0.9225057E+02  0.7546771E-02  0.1297491E+00
         -1   -1    0    0    0  501 -0.00000000000E+00  0.00000000000E+00  0.59004855142E+02  0.59004855142E+02  0.00000000000E+00 0.  1.
          1   -1    0    0  501    0  0.00000000000E+00 -0.00000000000E+00 -0.36057068163E+02  0.36057068163E+02  0.00000000000E+00 0. -1.
         23    2    1    2    0    0  0.00000000000E+00  0.00000000000E+00  0.22947786979E+02  0.95061923304E+02  0.92250573630E+02 0.  0.
        -13    1    3    3    0    0 -0.24254876641E+02  0.24252952814E+02 -0.20304819289E+02  0.39859634311E+02  0.00000000000E+00 0. -1.
         13    1    3    3    0    0  0.24254876641E+02 -0.24252952814E+02  0.43252606269E+02  0.55202288993E+02  0.00000000000E+00 0.  1.
<mgrwt>
<rscale>  0 0.92250574E+02</rscale>
<asrwt>0</asrwt>
<pdfrwt beam="2">  1        1 0.55472413E-02 0.92250574E+02</pdfrwt>
<pdfrwt beam="1">  1       -1 0.90776700E-02 0.92250574E+02</pdfrwt>
<totfact> 0.86309952E+04</totfact>
</mgrwt>
</event>
<event>
 5    1  0.6027538E+000  0.9174933E+02  0.7546771E-02  0.1298670E+00
         -1   -1    0    0    0  501 -0.00000000000E+00  0.00000000000E+00  0.14169793460E+03  0.14169793460E+03  0.00000000000E+00 0.  1.
          1   -1    0    0  501    0  0.00000000000E+00 -0.00000000000E+00 -0.14851910497E+02  0.14851910497E+02  0.00000000000E+00 0. -1.
         23    2    1    2    0    0  0.00000000000E+00  0.00000000000E+00  0.12684602410E+03  0.15654984509E+03  0.91749333342E+02 0.  0.
        -13    1    3    3    0    0  0.17176278613E+02 -0.36301694117E+02  0.25589501404E+02  0.47619955112E+02  0.00000000000E+00 0. -1.
         13    1    3    3    0    0 -0.17176278613E+02  0.36301694117E+02  0.10125652270E+03  0.10892988998E+03  0.00000000000E+00 0.  1.
<mgrwt>
<rscale>  0 0.91749333E+02</rscale>
<asrwt>0</asrwt>
<pdfrwt beam="2">  1        1 0.22849094E-02 0.91749333E+02</pdfrwt>
<pdfrwt beam="1">  1       -1 0.21799681E-01 0.91749333E+02</pdfrwt>
<totfact> 0.74552925E+04</totfact>
</mgrwt>
</event>
<event>
 5    1  0.6027538E+000  0.9187777E+02  0.7546771E-02  0.1298367E+00
          2   -1    0    0  501    0  0.00000000000E+00  0.00000000000E+00  0.46869634692E+02  0.46869634692E+02  0.00000000000E+00 0. -1.
         -2   -1    0    0    0  501 -0.00000000000E+00 -0.00000000000E+00 -0.45026620053E+02  0.45026620053E+02  0.00000000000E+00 0.  1.
         23    2    1    2    0    0  0.00000000000E+00  0.00000000000E+00  0.18430146389E+01  0.91896254745E+02  0.91877771704E+02 0.  0.
        -13    1    3    3    0    0  0.13754188697E+02 -0.18773915031E+02 -0.38693829009E+02  0.45153626607E+02  0.00000000000E+00 0.  1.
         13    1    3    3    0    0 -0.13754188697E+02  0.18773915031E+02  0.40536843648E+02  0.46742628138E+02  0.00000000000E+00 0. -1.
<mgrwt>
<rscale>  0 0.91877772E+02</rscale>
<asrwt>0</asrwt>
<pdfrwt beam="1">  1        2 0.72107130E-02 0.91877772E+02</pdfrwt>
<pdfrwt beam="2">  1       -2 0.69271723E-02 0.91877772E+02</pdfrwt>
<totfact> 0.97227514E+04</totfact>
</mgrwt>
</event>
<event>
 5    1  0.6027538E+000  0.9492738E+02  0.7546771E-02  0.1291340E+00
          2   -1    0    0  501    0  0.00000000000E+00  0.00000000000E+00  0.20817603116E+02  0.20817603116E+02  0.00000000000E+00 0. -1.
         -2   -1    0    0    0  501 -0.00000000000E+00 -0.00000000000E+00 -0.10821620081E+03  0.10821620081E+03  0.00000000000E+00 0.  1.
         23    2    1    2    0    0  0.00000000000E+00  0.00000000000E+00 -0.87398597695E+02  0.12903380393E+03  0.94927381070E+02 0.  0.
        -13    1    3    3    0    0  0.40575699416E+02 -0.14190443822E+02 -0.16342574822E+02  0.45987344246E+02  0.00000000000E+00 0. -1.
         13    1    3    3    0    0 -0.40575699416E+02  0.14190443822E+02 -0.71056022874E+02  0.83046459681E+02  0.00000000000E+00 0.  1.
<mgrwt>
<rscale>  0 0.94927381E+02</rscale>
<asrwt>0</asrwt>
<pdfrwt beam="1">  1        2 0.32027082E-02 0.94927381E+02</pdfrwt>
<pdfrwt beam="2">  1       -2 0.16648646E-01 0.94927381E+02</pdfrwt>
<totfact> 0.70449808E+04</totfact>
</mgrwt>
</event>
<event>
 5    1  0.6027538E+000  0.9056656E+02  0.7546771E-02  0.1301485E+00
          4   -1    0    0  501    0  0.00000000000E+00  0.00000000000E+00  0.82369270226E+02  0.82369270226E+02  0.00000000000E+00 0. -1.
         -4   -1    0    0    0  501 -0.00000000000E+00 -0.00000000000E+00 -0.24894907007E+02  0.24894907007E+02  0.00000000000E+00 0.  1.
         23    2    1    2    0    0  0.00000000000E+00  0.00000000000E+00  0.57474363219E+02  0.10726417723E+03  0.90566557238E+02 0.  0.
        -13    1    3    3    0    0 -0.46606721777E+01 -0.44961634500E+02  0.25536124644E+02  0.51916896131E+02  0.00000000000E+00 0. -1.
         13    1    3    3    0    0  0.46606721777E+01  0.44961634500E+02  0.31938238575E+02  0.55347281102E+02  0.00000000000E+00 0.  1.
<mgrwt>
<rscale>  0 0.90566557E+02</rscale>
<asrwt>0</asrwt>
<pdfrwt beam="1">  1        4 0.12672195E-01 0.90566557E+02</pdfrwt>
<pdfrwt beam="2">  1       -4 0.38299857E-02 0.90566557E+02</pdfrwt>
<totfact> 0.26492327E+04</totfact>
</mgrwt>
</event>
<event>
 5    1  0.6027538E+000  0.9130893E+02  0.7546771E-02  0.1299713E+00
          3   -1    0    0  501    0  0.00000000000E+00  0.00000000000E+00  0.50149893474E+02  0.50149893474E+02  0.00000000000E+00 0. -1.
         -3   -1    0    0    0  501 -0.00000000000E+00 -0.00000000000E+00 -0.41562010422E+02  0.41562010422E+02  0.00000000000E+00 0.  1.
         23    2    1    2    0    0  0.00000000000E+00  0.00000000000E+00  0.85878830516E+01  0.91711903896E+02  0.91308934836E+02 0.  0.
        -13    1    3    3    0    0 -0.78658468956E+01  0.36127773884E+02  0.31193523562E+02  0.48374823053E+02  0.00000000000E+00 0.  1.
         13    1    3    3    0    0  0.78658468956E+01 -0.36127773884E+02 -0.22605640510E+02  0.43337080844E+02  0.00000000000E+00 0. -1.
<mgrwt>
<rscale>  0 0.91308935E+02</rscale>
<asrwt>0</asrwt>
<pdfrwt beam="1">  1        3 0.77153683E-02 0.91308935E+02</pdfrwt>
<pdfrwt beam="2">  1       -3 0.63941554E-02 0.91308935E+02</pdfrwt>
<totfact> 0.35158401E+04</totfact>
</mgrwt>
</event>
<event>
 5    1  0.6027538E+000  0.9097659E+02  0.7546771E-02  0.1300504E+00
         -2   -1    0    0    0  501 -0.00000000000E+00  0.00000000000E+00  0.43731963603E+02  0.43731963603E+02  0.00000000000E+00 0.  1.
          2   -1    0    0  501    0  0.00000000000E+00 -0.00000000000E+00 -0.47315161462E+02  0.47315161462E+02  0.00000000000E+00 0. -1.
         23    2    1    2    0    0  0.00000000000E+00  0.00000000000E+00 -0.35831978596E+01  0.91047125065E+02  0.90976588613E+02 0.  0.
        -13    1    3    3    0    0 -0.59694904007E+00  0.31202660081E+02  0.31328206935E+02  0.44220118658E+02  0.00000000000E+00 0.  1.
         13    1    3    3    0    0  0.59694904007E+00 -0.31202660081E+02 -0.34911404795E+02  0.46827006407E+02  0.00000000000E+00 0. -1.
<mgrwt>
<rscale>  0 0.90976589E+02</rscale>
<asrwt>0</asrwt>
<pdfrwt beam="2">  1        2 0.72792556E-02 0.90976589E+02</pdfrwt>
<pdfrwt beam="1">  1       -2 0.67279944E-02 0.90976589E+02</pdfrwt>
<totfact> 0.10026177E+05</totfact>
</mgrwt>
</event>
<event>
 5    1  0.6027538E+000  0.7540208E+02  0.7546771E-02  0.1342630E+00
          3   -1    0    0  501    0  0.00000000000E+00  0.00000000000E+00  0.14017145540E+03  0.14017145540E+03  0.00000000000E+00 0. -1.
         -3   -1    0    0    0  501 -0.00000000000E+00 -0.00000000000E+00 -0.10140213963E+02  0.10140213963E+02  0.00000000000E+00 0.  1.
         23    2    1    2    0    0  0.00000000000E+00  0.00000000000E+00  0.13003124144E+03  0.15031166937E+03  0.75402083507E+02 0.  0.
        -13    1    3    3    0    0 -0.18038908329E+02  0.23154180271E+02  0.17847855700E+02  0.34352062977E+02  0.00000000000E+00 0.  1.
         13    1    3    3    0    0  0.18038908329E+02 -0.23154180271E+02  0.11218338574E+03  0.11595960639E+03  0.00000000000E+00 0. -1.
<mgrwt>
<rscale>  0 0.75402084E+02</rscale>
<asrwt>0</asrwt>
<pdfrwt beam="1">  1        3 0.21564838E-01 0.75402084E+02</pdfrwt>
<pdfrwt beam="2">  1       -3 0.15600330E-02 0.75402084E+02</pdfrwt>
<totfact> 0.52012277E+04</totfact>
</mgrwt>
</event>
<event>
 5    1  0.6027538E+000  0.9121429E+02  0.7546771E-02  0.1299937E+00
         -2   -1    0    0    0  501 -0.00000000000E+00  0.00000000000E+00  0.58782543816E+01  0.58782543816E+01  0.00000000000E+00 0.  1.
          2   -1    0    0  501    0  0.00000000000E+00 -0.00000000000E+00 -0.35384856211E+03  0.35384856211E+03  0.00000000000E+00 0. -1.
         23    2    1    2    0    0  0.00000000000E+00  0.00000000000E+00 -0.34797030773E+03  0.35972681649E+03  0.91214294070E+02 0.  0.
        -13    1    3    3    0    0 -0.12041339661E+02 -0.40739776884E+02 -0.23941923530E+03  0.24315898814E+03  0.00000000000E+00 0. -1.
         13    1    3    3    0    0  0.12041339661E+02  0.40739776884E+02 -0.10855107243E+03  0.11656782835E+03  0.00000000000E+00 0.  1.
<mgrwt>
<rscale>  0 0.91214294E+02</rscale>
<asrwt>0</asrwt>
<pdfrwt beam="2">  1        2 0.54438247E-01 0.91214294E+02</pdfrwt>
<pdfrwt beam="1">  1       -2 0.90434672E-03 0.91214294E+02</pdfrwt>
<totfact> 0.19075031E+05</totfact>
</mgrwt>
</event>
<event>
 5    1  0.6027538E+000  0.8926251E+02  0.7546771E-02  0.1304648E+00
          2   -1    0    0  501    0  0.00000000000E+00  0.00000000000E+00  0.83909454023E+02  0.83909454023E+02  0.00000000000E+00 0. -1.
         -2   -1    0    0    0  501 -0.00000000000E+00 -0.00000000000E+00 -0.23739267043E+02  0.23739267043E+02  0.00000000000E+00 0.  1.
         23    2    1    2    0    0  0.00000000000E+00  0.00000000000E+00  0.60170186979E+02  0.10764872107E+03  0.89262510305E+02 0.  0.
        -13    1    3    3    0    0 -0.42878671227E+02 -0.55040015837E+01  0.43464096215E+02  0.61302545946E+02  0.00000000000E+00 0. -1.
         13    1    3    3    0    0  0.42878671227E+02  0.55040015837E+01  0.16706090765E+02  0.46346175120E+02  0.00000000000E+00 0.  1.
<mgrwt>
<rscale>  0 0.89262510E+02</rscale>
<asrwt>0</asrwt>
<pdfrwt beam="1">  1        2 0.12909147E-01 0.89262510E+02</pdfrwt>
<pdfrwt beam="2">  1       -2 0.36521950E-02 0.89262510E+02</pdfrwt>
<totfact> 0.12348418E+05</totfact>
</mgrwt>
</event>
<event>
 5    1  0.6027538E+000  0.9425512E+02  0.7546771E-02  0.1292863E+00
         -3   -1    0    0    0  501 -0.00000000000E+00  0.00000000000E+00  0.21391359612E+02  0.21391359612E+02  0.00000000000E+00 0.  1.
          3   -1    0    0  501    0  0.00000000000E+00 -0.00000000000E+00 -0.10382729974E+03  0.10382729974E+03  0.00000000000E+00 0. -1.
         23    2    1    2    0    0  0.00000000000E+00  0.00000000000E+00 -0.82435940130E+02  0.12521865935E+03  0.94255124132E+02 0.  0.
        -13    1    3    3    0    0 -0.30916670403E+02 -0.19005042838E+02 -0.12748232538E+01  0.36313321748E+02  0.00000000000E+00 0.  1.
         13    1    3    3    0    0  0.30916670403E+02  0.19005042838E+02 -0.81161116876E+02  0.88905337605E+02  0.00000000000E+00 0. -1.
<mgrwt>
<rscale>  0 0.94255124E+02</rscale>
<asrwt>0</asrwt>
<pdfrwt beam="2">  1        3 0.15973431E-01 0.94255124E+02</pdfrwt>
<pdfrwt beam="1">  1       -3 0.32909784E-02 0.94255124E+02</pdfrwt>
<totfact> 0.30048678E+04</totfact>
</mgrwt>
</event>
<event>
 5    1  0.6027538E+000  0.6811930E+02  0.7546771E-02  0.1366608E+00
         -1   -1    0    0    0  501 -0.00000000000E+00  0.00000000000E+00  0.10647670954E+02  0.10647670954E+02  0.00000000000E+00 0.  1.
          1   -1    0    0  501    0  0.00000000000E+00 -0.00000000000E+00 -0.10894961616E+03  0.10894961616E+03  0.00000000000E+00 0. -1.
         23    2    1    2    0    0  0.00000000000E+00  0.00000000000E+00 -0.98301945209E+02  0.11959728712E+03  0.68119297221E+02 0.  0.
        -13    1    3    3    0    0 -0.71974898282E+01 -0.32686822325E+02 -0.38070904754E+02  0.50691478597E+02  0.00000000000E+00 0. -1.
         13    1    3    3    0    0  0.71974898282E+01  0.32686822325E+02 -0.60231040454E+02  0.68905808520E+02  0.00000000000E+00 0.  1.
<mgrwt>
<rscale>  0 0.68119297E+02</rscale>
<asrwt>0</asrwt>
<pdfrwt beam="2">  1        1 0.16761478E-01 0.68119297E+02</pdfrwt>
<pdfrwt beam="1">  1       -1 0.16381034E-02 0.68119297E+02</pdfrwt>
<totfact> 0.23069939E+05</totfact>
</mgrwt>
</event>
<event>
 5    1  0.6027538E+000  0.9092195E+02  0.7546771E-02  0.1300634E+00
          2   -1    0    0  501    0  0.00000000000E+00  0.00000000000E+00  0.25386037459E+02  0.25386037459E+02  0.00000000000E+00 0.  1.
         -2   -1    0    0    0  501 -0.00000000000E+00 -0.00000000000E+00 -0.81410896712E+02  0.81410896712E+02  0.00000000000E+00 0. -1.
         23    2    1    2    0    0  0.00000000000E+00  0.00000000000E+00 -0.56024859253E+02  0.10679693417E+03  0.90921946163E+02 0.  0.
        -13    1    3    3    0    0  0.25792593417E+02 -0.20804391610E+01  0.15891761495E+02  0.30366662406E+02  0.00000000000E+00 0.  1.
         13    1    3    3    0    0 -0.25792593417E+02  0.20804391610E+01 -0.71916620748E+02  0.76430271765E+02  0.00000000000E+00 0. -1.
<mgrwt>
<rscale>  0 0.90921946E+02</rscale>
<asrwt>0</asrwt>
<pdfrwt beam="1">  1        2 0.39055442E-02 0.90921946E+02</pdfrwt>
<pdfrwt beam="2">  1       -2 0.12524753E-01 0.90921946E+02</pdfrwt>
<totfact> 0.85253012E+04</totfact>
</mgrwt>
</event>
<event>
 5    1  0.6027538E+000  0.9240411E+02  0.7546771E-02  0.1297132E+00
         -4   -1    0    0    0  501 -0.00000000000E+00  0.00000000000E+00  0.99295037064E+02  0.99295037064E+02  0.00000000000E+00 0.  1.
          4   -1    0    0  501    0  0.00000000000E+00 -0.00000000000E+00 -0.21497851843E+02  0.21497851843E+02  0.00000000000E+00 0. -1.
         23    2    1    2    0    0  0.00000000000E+00  0.00000000000E+00  0.77797185221E+02  0.12079288891E+03  0.92404112366E+02 0.  0.
        -13    1    3    3    0    0  0.20944082388E+02  0.76238492352E+01  0.91802462318E+02  0.94469411727E+02  0.00000000000E+00 0.  1.
         13    1    3    3    0    0 -0.20944082388E+02 -0.76238492352E+01 -0.14005277098E+02  0.26323477180E+02  0.00000000000E+00 0. -1.
<mgrwt>
<rscale>  0 0.92404112E+02</rscale>
<asrwt>0</asrwt>
<pdfrwt beam="2">  1        4 0.33073619E-02 0.92404112E+02</pdfrwt>
<pdfrwt beam="1">  1       -4 0.15276159E-01 0.92404112E+02</pdfrwt>
<totfact> 0.24330382E+04</totfact>
</mgrwt>
</event>
<event>
 5    1  0.6027538E+000  0.8850168E+02  0.7546771E-02  0.1306521E+00
         -2   -1    0    0    0  501 -0.00000000000E+00  0.00000000000E+00  0.66221739675E+01  0.66221739675E+01  0.00000000000E+00 0.  1.
          2   -1    0    0  501    0  0.00000000000E+00 -0.00000000000E+00 -0.29569397648E+03  0.29569397648E+03  0.00000000000E+00 0. -1.
         23    2    1    2    0    0  0.00000000000E+00  0.00000000000E+00 -0.28907180251E+03  0.30231615045E+03  0.88501682546E+02 0.  0.
        -13    1    3    3    0    0  0.40285585884E+02  0.13603365289E+02 -0.10267750562E+03  0.11113347892E+03  0.00000000000E+00 0.  1.
         13    1    3    3    0    0 -0.40285585884E+02 -0.13603365289E+02 -0.18639429689E+03  0.19118267152E+03  0.00000000000E+00 0. -1.
<mgrwt>
<rscale>  0 0.88501683E+02</rscale>
<asrwt>0</asrwt>
<pdfrwt beam="2">  1        2 0.45491374E-01 0.88501683E+02</pdfrwt>
<pdfrwt beam="1">  1       -2 0.10187962E-02 0.88501683E+02</pdfrwt>
<totfact> 0.19344341E+05</totfact>
</mgrwt>
</event>
<event>
 5    1  0.6027538E+000  0.9164735E+02  0.7546771E-02  0.1298911E+00
         -1   -1    0    0    0  501 -0.00000000000E+00  0.00000000000E+00  0.11639004548E+02  0.11639004548E+02  0.00000000000E+00 0.  1.
          1   -1    0    0  501    0  0.00000000000E+00 -0.00000000000E+00 -0.18041140074E+03  0.18041140074E+03  0.00000000000E+00 0. -1.
         23    2    1    2    0    0  0.00000000000E+00  0.00000000000E+00 -0.16877239619E+03  0.19205040529E+03  0.91647348325E+02 0.  0.
        -13    1    3    3    0    0  0.87492419162E+01 -0.43781250137E+02 -0.62764357196E+02  0.77024097735E+02  0.00000000000E+00 0. -1.
         13    1    3    3    0    0 -0.87492419162E+01  0.43781250137E+02 -0.10600803900E+03  0.11502630756E+03  0.00000000000E+00 0.  1.
<mgrwt>
<rscale>  0 0.91647348E+02</rscale>
<asrwt>0</asrwt>
<pdfrwt beam="2">  1        1 0.27755601E-01 0.91647348E+02</pdfrwt>
<pdfrwt beam="1">  1       -1 0.17906160E-02 0.91647348E+02</pdfrwt>
<totfact> 0.11448073E+05</totfact>
</mgrwt>
</event>
<event>
 5    1  0.6027538E+000  0.9065609E+02  0.7546771E-02  0.1301271E+00
         -2   -1    0    0    0  501 -0.00000000000E+00  0.00000000000E+00  0.10245033011E+03  0.10245033011E+03  0.00000000000E+00 0.  1.
          2   -1    0    0  501    0  0.00000000000E+00 -0.00000000000E+00 -0.20054903438E+02  0.20054903438E+02  0.00000000000E+00 0. -1.
         23    2    1    2    0    0  0.00000000000E+00  0.00000000000E+00  0.82395426668E+02  0.12250523354E+03  0.90656085896E+02 0.  0.
        -13    1    3    3    0    0 -0.23106926805E+02 -0.11135383420E+02 -0.93044482768E+01  0.27285519750E+02  0.00000000000E+00 0. -1.
         13    1    3    3    0    0  0.23106926805E+02  0.11135383420E+02  0.91699874945E+02  0.95219713795E+02  0.00000000000E+00 0.  1.
<mgrwt>
<rscale>  0 0.90656086E+02</rscale>
<asrwt>0</asrwt>
<pdfrwt beam="2">  1        2 0.30853698E-02 0.90656086E+02</pdfrwt>
<pdfrwt beam="1">  1       -2 0.15761589E-01 0.90656086E+02</pdfrwt>
<totfact> 0.80367346E+04</totfact>
</mgrwt>
</event>
<event>
 5    1  0.6027538E+000  0.8914933E+02  0.7546771E-02  0.1304925E+00
          1   -1    0    0  501    0  0.00000000000E+00  0.00000000000E+00  0.10613411075E+02  0.10613411075E+02  0.00000000000E+00 0. -1.
         -1   -1    0    0    0  501 -0.00000000000E+00 -0.00000000000E+00 -0.18720661809E+03  0.18720661809E+03  0.00000000000E+00 0.  1.
         23    2    1    2    0    0  0.00000000000E+00  0.00000000000E+00 -0.17659320701E+03  0.19782002916E+03  0.89149330759E+02 0.  0.
        -13    1    3    3    0    0  0.40169285498E+02  0.11580615131E+02 -0.12261679413E+03  0.12954752158E+03  0.00000000000E+00 0.  1.
         13    1    3    3    0    0 -0.40169285498E+02 -0.11580615131E+02 -0.53976412886E+02  0.68272507587E+02  0.00000000000E+00 0. -1.
<mgrwt>
<rscale>  0 0.89149331E+02</rscale>
<asrwt>0</asrwt>
<pdfrwt beam="1">  1        1 0.16328325E-02 0.89149331E+02</pdfrwt>
<pdfrwt beam="2">  1       -1 0.28801018E-01 0.89149331E+02</pdfrwt>
<totfact> 0.74976284E+04</totfact>
</mgrwt>
</event>
<event>
 5    1  0.6027538E+000  0.9152249E+02  0.7546771E-02  0.1299206E+00
         -2   -1    0    0    0  501 -0.00000000000E+00  0.00000000000E+00  0.10197002767E+02  0.10197002767E+02  0.00000000000E+00 0.  1.
          2   -1    0    0  501    0  0.00000000000E+00 -0.00000000000E+00 -0.20536345352E+03  0.20536345352E+03  0.00000000000E+00 0. -1.
         23    2    1    2    0    0  0.00000000000E+00  0.00000000000E+00 -0.19516645075E+03  0.21556045628E+03  0.91522493494E+02 0.  0.
        -13    1    3    3    0    0  0.35827766002E+02 -0.94739833510E+01 -0.16081283171E+03  0.16502773106E+03  0.00000000000E+00 0. -1.
         13    1    3    3    0    0 -0.35827766002E+02  0.94739833510E+01 -0.34353619042E+02  0.50532725224E+02  0.00000000000E+00 0.  1.
<mgrwt>
<rscale>  0 0.91522493E+02</rscale>
<asrwt>0</asrwt>
<pdfrwt beam="2">  1        2 0.31594376E-01 0.91522493E+02</pdfrwt>
<pdfrwt beam="1">  1       -2 0.15687697E-02 0.91522493E+02</pdfrwt>
<totfact> 0.15458645E+05</totfact>
</mgrwt>
</event>
<event>
 5    1  0.6027538E+000  0.7792721E+02  0.7546771E-02  0.1335039E+00
         -2   -1    0    0    0  501 -0.00000000000E+00  0.00000000000E+00  0.43718884607E+02  0.43718884607E+02  0.00000000000E+00 0.  1.
          2   -1    0    0  501    0  0.00000000000E+00 -0.00000000000E+00 -0.34725557300E+02  0.34725557300E+02  0.00000000000E+00 0. -1.
         23    2    1    2    0    0  0.00000000000E+00  0.00000000000E+00  0.89933273074E+01  0.78444441907E+02  0.77927213027E+02 0.  0.
        -13    1    3    3    0    0 -0.34944124710E+02 -0.49770941409E+01  0.21107683888E+02  0.41126604977E+02  0.00000000000E+00 0.  1.
         13    1    3    3    0    0  0.34944124710E+02  0.49770941409E+01 -0.12114356581E+02  0.37317836930E+02  0.00000000000E+00 0. -1.
<mgrwt>
<rscale>  0 0.77927213E+02</rscale>
<asrwt>0</asrwt>
<pdfrwt beam="2">  1        2 0.53423935E-02 0.77927213E+02</pdfrwt>
<pdfrwt beam="1">  1       -2 0.67259822E-02 0.77927213E+02</pdfrwt>
<totfact> 0.14445953E+05</totfact>
</mgrwt>
</event>
<event>
 5    1  0.6027538E+000  0.9485033E+02  0.7546771E-02  0.1291514E+00
          1   -1    0    0  501    0  0.00000000000E+00  0.00000000000E+00  0.56533693016E+02  0.56533693016E+02  0.00000000000E+00 0. -1.
         -1   -1    0    0    0  501 -0.00000000000E+00 -0.00000000000E+00 -0.39784175118E+02  0.39784175118E+02  0.00000000000E+00 0.  1.
         23    2    1    2    0    0  0.00000000000E+00  0.00000000000E+00  0.16749517898E+02  0.96317868134E+02  0.94850331429E+02 0.  0.
        -13    1    3    3    0    0 -0.40385222803E+02 -0.22912245718E+02 -0.14291034886E+01  0.46454058611E+02  0.00000000000E+00 0.  1.
         13    1    3    3    0    0  0.40385222803E+02  0.22912245718E+02  0.18178621386E+02  0.49863809523E+02  0.00000000000E+00 0. -1.
<mgrwt>
<rscale>  0 0.94850331E+02</rscale>
<asrwt>0</asrwt>
<pdfrwt beam="1">  1        1 0.86974912E-02 0.94850331E+02</pdfrwt>
<pdfrwt beam="2">  1       -1 0.61206423E-02 0.94850331E+02</pdfrwt>
<totfact> 0.85539043E+04</totfact>
</mgrwt>
</event>
<event>
 5    1  0.6027538E+000  0.9249800E+02  0.7546771E-02  0.1296913E+00
         -4   -1    0    0    0  501 -0.00000000000E+00  0.00000000000E+00  0.14155512437E+02  0.14155512437E+02  0.00000000000E+00 0.  1.
          4   -1    0    0  501    0  0.00000000000E+00 -0.00000000000E+00 -0.15110509411E+03  0.15110509411E+03  0.00000000000E+00 0. -1.
         23    2    1    2    0    0  0.00000000000E+00  0.00000000000E+00 -0.13694958167E+03  0.16526060654E+03  0.92498000820E+02 0.  0.
        -13    1    3    3    0    0  0.40495867752E+02 -0.96826585612E+01 -0.10444357494E+03  0.11243722483E+03  0.00000000000E+00 0. -1.
         13    1    3    3    0    0 -0.40495867752E+02  0.96826585612E+01 -0.32506006728E+02  0.52823381710E+02  0.00000000000E+00 0.  1.
<mgrwt>
<rscale>  0 0.92498001E+02</rscale>
<asrwt>0</asrwt>
<pdfrwt beam="2">  1        4 0.23246937E-01 0.92498001E+02</pdfrwt>
<pdfrwt beam="1">  1       -4 0.21777712E-02 0.92498001E+02</pdfrwt>
<totfact> 0.22058042E+04</totfact>
</mgrwt>
</event>
<event>
 5    1  0.6027538E+000  0.9093866E+02  0.7546771E-02  0.1300594E+00
         -1   -1    0    0    0  501 -0.00000000000E+00  0.00000000000E+00  0.17379410168E+02  0.17379410168E+02  0.00000000000E+00 0.  1.
          1   -1    0    0  501    0  0.00000000000E+00 -0.00000000000E+00 -0.11896031009E+03  0.11896031009E+03  0.00000000000E+00 0. -1.
         23    2    1    2    0    0  0.00000000000E+00  0.00000000000E+00 -0.10158089992E+03  0.13633972025E+03  0.90938661144E+02 0.  0.
        -13    1    3    3    0    0  0.22121111717E+02  0.20628383635E+02 -0.10168960297E+03  0.10609264417E+03  0.00000000000E+00 0. -1.
         13    1    3    3    0    0 -0.22121111717E+02 -0.20628383635E+02  0.10870305554E+00  0.30247076079E+02  0.00000000000E+00 0.  1.
<mgrwt>
<rscale>  0 0.90938661E+02</rscale>
<asrwt>0</asrwt>
<pdfrwt beam="2">  1        1 0.18301586E-01 0.90938661E+02</pdfrwt>
<pdfrwt beam="1">  1       -1 0.26737554E-02 0.90938661E+02</pdfrwt>
<totfact> 0.10834225E+05</totfact>
</mgrwt>
</event>
<event>
 5    1  0.6027538E+000  0.8943414E+02  0.7546771E-02  0.1304228E+00
         -3   -1    0    0    0  501 -0.00000000000E+00  0.00000000000E+00  0.43269995764E+02  0.43269995764E+02  0.00000000000E+00 0.  1.
          3   -1    0    0  501    0  0.00000000000E+00 -0.00000000000E+00 -0.46212543590E+02  0.46212543590E+02  0.00000000000E+00 0. -1.
         23    2    1    2    0    0  0.00000000000E+00  0.00000000000E+00 -0.29425478263E+01  0.89482539354E+02  0.89434144830E+02 0.  0.
        -13    1    3    3    0    0 -0.44316325244E+02 -0.38117511455E+01 -0.60727227518E+01  0.44892583926E+02  0.00000000000E+00 0. -1.
         13    1    3    3    0    0  0.44316325244E+02  0.38117511455E+01  0.31301749256E+01  0.44589955427E+02  0.00000000000E+00 0.  1.
<mgrwt>
<rscale>  0 0.89434145E+02</rscale>
<asrwt>0</asrwt>
<pdfrwt beam="2">  1        3 0.71096221E-02 0.89434145E+02</pdfrwt>
<pdfrwt beam="1">  1       -3 0.66569224E-02 0.89434145E+02</pdfrwt>
<totfact> 0.37379824E+04</totfact>
</mgrwt>
</event>
<event>
 5    1  0.6027538E+000  0.9354777E+02  0.7546771E-02  0.1294481E+00
          3   -1    0    0  501    0  0.00000000000E+00  0.00000000000E+00  0.20945882135E+02  0.20945882135E+02  0.00000000000E+00 0. -1.
         -3   -1    0    0    0  501 -0.00000000000E+00 -0.00000000000E+00 -0.10444993820E+03  0.10444993820E+03  0.00000000000E+00 0.  1.
         23    2    1    2    0    0  0.00000000000E+00  0.00000000000E+00 -0.83504056061E+02  0.12539582033E+03  0.93547765221E+02 0.  0.
        -13    1    3    3    0    0 -0.21743250963E+02  0.19292648288E+01 -0.97203536165E+02  0.99624386915E+02  0.00000000000E+00 0.  1.
         13    1    3    3    0    0  0.21743250963E+02 -0.19292648288E+01  0.13699480104E+02  0.25771433416E+02  0.00000000000E+00 0. -1.
<mgrwt>
<rscale>  0 0.93547765E+02</rscale>
<asrwt>0</asrwt>
<pdfrwt beam="1">  1        3 0.32224434E-02 0.93547765E+02</pdfrwt>
<pdfrwt beam="2">  1       -3 0.16069221E-01 0.93547765E+02</pdfrwt>
<totfact> 0.30662947E+04</totfact>
</mgrwt>
</event>
<event>
 5    1  0.6027538E+000  0.9245813E+02  0.7546771E-02  0.1297006E+00
         -1   -1    0    0    0  501 -0.00000000000E+00  0.00000000000E+00  0.19345867934E+02  0.19345867934E+02  0.00000000000E+00 0.  1.
          1   -1    0    0  501    0  0.00000000000E+00 -0.00000000000E+00 -0.11046940368E+03  0.11046940368E+03  0.00000000000E+00 0. -1.
         23    2    1    2    0    0  0.00000000000E+00  0.00000000000E+00 -0.91123535742E+02  0.12981527161E+03  0.92458130939E+02 0.  0.
        -13    1    3    3    0    0 -0.30148501783E+02 -0.28675628097E+02 -0.17274458516E+02  0.45051423102E+02  0.00000000000E+00 0.  1.
         13    1    3    3    0    0  0.30148501783E+02  0.28675628097E+02 -0.73849077226E+02  0.84763848506E+02  0.00000000000E+00 0. -1.
<mgrwt>
<rscale>  0 0.92458131E+02</rscale>
<asrwt>0</asrwt>
<pdfrwt beam="2">  1        1 0.16995293E-01 0.92458131E+02</pdfrwt>
<pdfrwt beam="1">  1       -1 0.29762874E-02 0.92458131E+02</pdfrwt>
<totfact> 0.10225589E+05</totfact>
</mgrwt>
</event>
<event>
 5    1  0.6027538E+000  0.1079252E+03  0.7546771E-02  0.1264461E+00
         -1   -1    0    0    0  501 -0.00000000000E+00  0.00000000000E+00  0.39368927761E+02  0.39368927761E+02  0.00000000000E+00 0.  1.
          1   -1    0    0  501    0  0.00000000000E+00 -0.00000000000E+00 -0.73966059442E+02  0.73966059442E+02  0.00000000000E+00 0. -1.
         23    2    1    2    0    0  0.00000000000E+00  0.00000000000E+00 -0.34597131680E+02  0.11333498720E+03  0.10792524174E+03 0.  0.
        -13    1    3    3    0    0  0.46332208575E+02 -0.15344304289E+02 -0.41470681450E+02  0.64046378863E+02  0.00000000000E+00 0. -1.
         13    1    3    3    0    0 -0.46332208575E+02  0.15344304289E+02  0.68735497696E+01  0.49288608339E+02  0.00000000000E+00 0.  1.
<mgrwt>
<rscale>  0 0.10792524E+03</rscale>
<asrwt>0</asrwt>
<pdfrwt beam="2">  1        1 0.11379394E-01 0.10792524E+03</pdfrwt>
<pdfrwt beam="1">  1       -1 0.60567581E-02 0.10792524E+03</pdfrwt>
<totfact> 0.62192292E+04</totfact>
</mgrwt>
</event>
<event>
 5    1  0.6027538E+000  0.9455440E+02  0.7546771E-02  0.1292183E+00
          1   -1    0    0  501    0  0.00000000000E+00  0.00000000000E+00  0.66348036727E+02  0.66348036727E+02  0.00000000000E+00 0. -1.
         -1   -1    0    0    0  501 -0.00000000000E+00 -0.00000000000E+00 -0.33688014906E+02  0.33688014906E+02  0.00000000000E+00 0.  1.
         23    2    1    2    0    0  0.00000000000E+00  0.00000000000E+00  0.32660021820E+02  0.10003605163E+03  0.94554400220E+02 0.  0.
        -13    1    3    3    0    0  0.17917330708E+02 -0.24931109228E+02 -0.21706200101E+02  0.37599867950E+02  0.00000000000E+00 0.  1.
         13    1    3    3    0    0 -0.17917330708E+02  0.24931109228E+02  0.54366221921E+02  0.62436183684E+02  0.00000000000E+00 0. -1.
<mgrwt>
<rscale>  0 0.94554400E+02</rscale>
<asrwt>0</asrwt>
<pdfrwt beam="1">  1        1 0.10207390E-01 0.94554400E+02</pdfrwt>
<pdfrwt beam="2">  1       -1 0.51827715E-02 0.94554400E+02</pdfrwt>
<totfact> 0.88468417E+04</totfact>
</mgrwt>
</event>
<event>
 5    1  0.6027538E+000  0.8807934E+02  0.7546771E-02  0.1307571E+00
         -2   -1    0    0    0  501 -0.00000000000E+00  0.00000000000E+00  0.68211062032E+01  0.68211062032E+01  0.00000000000E+00 0.  1.
          2   -1    0    0  501    0  0.00000000000E+00 -0.00000000000E+00 -0.28433692761E+03  0.28433692761E+03  0.00000000000E+00 0. -1.
         23    2    1    2    0    0  0.00000000000E+00  0.00000000000E+00 -0.27751582140E+03  0.29115803381E+03  0.88079336525E+02 0.  0.
        -13    1    3    3    0    0 -0.33953125772E+02 -0.21904196564E+02 -0.19666633231E+03  0.20077413888E+03  0.00000000000E+00 0. -1.
         13    1    3    3    0    0  0.33953125772E+02  0.21904196564E+02 -0.80849489091E+02  0.90383894932E+02  0.00000000000E+00 0.  1.
<mgrwt>
<rscale>  0 0.88079337E+02</rscale>
<asrwt>0</asrwt>
<pdfrwt beam="2">  1        2 0.43744133E-01 0.88079337E+02</pdfrwt>
<pdfrwt beam="1">  1       -2 0.10494012E-02 0.88079337E+02</pdfrwt>
<totfact> 0.19309116E+05</totfact>
</mgrwt>
</event>
<event>
 5    1  0.6027538E+000  0.1098164E+03  0.7546771E-02  0.1260910E+00
          2   -1    0    0  501    0  0.00000000000E+00  0.00000000000E+00  0.41208472317E+02  0.41208472317E+02  0.00000000000E+00 0.  1.
         -2   -1    0    0    0  501 -0.00000000000E+00 -0.00000000000E+00 -0.73162343723E+02  0.73162343723E+02  0.00000000000E+00 0. -1.
         23    2    1    2    0    0  0.00000000000E+00  0.00000000000E+00 -0.31953871406E+02  0.11437081604E+03  0.10981636337E+03 0.  0.
        -13    1    3    3    0    0 -0.17057588510E+01  0.27087007254E+02 -0.65687985521E+02  0.71074095260E+02  0.00000000000E+00 0. -1.
         13    1    3    3    0    0  0.17057588510E+01 -0.27087007254E+02  0.33734114114E+02  0.43296720780E+02  0.00000000000E+00 0.  1.
<mgrwt>
<rscale>  0 0.10981636E+03</rscale>
<asrwt>0</asrwt>
<pdfrwt beam="1">  1        2 0.63397650E-02 0.10981636E+03</pdfrwt>
<pdfrwt beam="2">  1       -2 0.11255745E-01 0.10981636E+03</pdfrwt>
<totfact> 0.55494163E+04</totfact>
</mgrwt>
</event>
<event>
 5    1  0.6027538E+000  0.9109604E+02  0.7546771E-02  0.1300219E+00
          2   -1    0    0  501    0  0.00000000000E+00  0.00000000000E+00  0.77761463893E+02  0.77761463893E+02  0.00000000000E+00 0. -1.
         -2   -1    0    0    0  501 -0.00000000000E+00 -0.00000000000E+00 -0.26679307108E+02  0.26679307108E+02  0.00000000000E+00 0.  1.
         23    2    1    2    0    0  0.00000000000E+00  0.00000000000E+00  0.51082156785E+02  0.10444077100E+03  0.91096036716E+02 0.  0.
        -13    1    3    3    0    0  0.39600302710E+02  0.21100134736E+02  0.16570396366E+02  0.47832809831E+02  0.00000000000E+00 0.  1.
         13    1    3    3    0    0 -0.39600302710E+02 -0.21100134736E+02  0.34511760420E+02  0.56607961170E+02  0.00000000000E+00 0. -1.
<mgrwt>
<rscale>  0 0.91096037E+02</rscale>
<asrwt>0</asrwt>
<pdfrwt beam="1">  1        2 0.11963302E-01 0.91096037E+02</pdfrwt>
<pdfrwt beam="2">  1       -2 0.41045088E-02 0.91096037E+02</pdfrwt>
<totfact> 0.11421218E+05</totfact>
</mgrwt>
</event>
<event>
 5    1  0.6027538E+000  0.9299773E+02  0.7546771E-02  0.1295750E+00
          2   -1    0    0  501    0  0.00000000000E+00  0.00000000000E+00  0.82008649621E+02  0.82008649621E+02  0.00000000000E+00 0. -1.
         -2   -1    0    0    0  501 -0.00000000000E+00 -0.00000000000E+00 -0.26364834097E+02  0.26364834097E+02  0.00000000000E+00 0.  1.
         23    2    1    2    0    0  0.00000000000E+00  0.00000000000E+00  0.55643815524E+02  0.10837348372E+03  0.92997729903E+02 0.  0.
        -13    1    3    3    0    0 -0.23421883809E+02  0.39923663533E+02  0.32989072193E+02  0.56839796227E+02  0.00000000000E+00 0. -1.
         13    1    3    3    0    0  0.23421883809E+02 -0.39923663533E+02  0.22654743331E+02  0.51533687491E+02  0.00000000000E+00 0.  1.
<mgrwt>
<rscale>  0 0.92997730E+02</rscale>
<asrwt>0</asrwt>
<pdfrwt beam="1">  1        2 0.12616715E-01 0.92997730E+02</pdfrwt>
<pdfrwt beam="2">  1       -2 0.40561284E-02 0.92997730E+02</pdfrwt>
<totfact> 0.10948215E+05</totfact>
</mgrwt>
</event>
<event>
 5    1  0.6027538E+000  0.9352990E+02  0.7546771E-02  0.1294522E+00
          4   -1    0    0  501    0  0.00000000000E+00  0.00000000000E+00  0.24761534566E+03  0.24761534566E+03  0.00000000000E+00 0. -1.
         -4   -1    0    0    0  501 -0.00000000000E+00 -0.00000000000E+00 -0.88320873329E+01  0.88320873329E+01  0.00000000000E+00 0.  1.
         23    2    1    2    0    0  0.00000000000E+00  0.00000000000E+00  0.23878325833E+03  0.25644743300E+03  0.93529895923E+02 0.  0.
        -13    1    3    3    0    0  0.35602708660E+02  0.30240368563E+02  0.11330515526E+03  0.12255648071E+03  0.00000000000E+00 0.  1.
         13    1    3    3    0    0 -0.35602708660E+02 -0.30240368563E+02  0.12547810307E+03  0.13389095228E+03  0.00000000000E+00 0. -1.
<mgrwt>
<rscale>  0 0.93529896E+02</rscale>
<asrwt>0</asrwt>
<pdfrwt beam="1">  1        4 0.38094663E-01 0.93529896E+02</pdfrwt>
<pdfrwt beam="2">  1       -4 0.13587829E-02 0.93529896E+02</pdfrwt>
<totfact> 0.17970446E+04</totfact>
</mgrwt>
</event>
<event>
 5    1  0.6027538E+000  0.9129538E+02  0.7546771E-02  0.1299745E+00
         -2   -1    0    0    0  501 -0.00000000000E+00  0.00000000000E+00  0.21574989968E+02  0.21574989968E+02  0.00000000000E+00 0. -1.
          2   -1    0    0  501    0  0.00000000000E+00 -0.00000000000E+00 -0.96579958919E+02  0.96579958919E+02  0.00000000000E+00 0.  1.
         23    2    1    2    0    0  0.00000000000E+00  0.00000000000E+00 -0.75004968951E+02  0.11815494889E+03  0.91295380930E+02 0.  0.
        -13    1    3    3    0    0  0.19417728363E+01  0.30576258838E+02 -0.81296242978E+02  0.86877829212E+02  0.00000000000E+00 0.  1.
         13    1    3    3    0    0 -0.19417728363E+01 -0.30576258838E+02  0.62912740274E+01  0.31277119675E+02  0.00000000000E+00 0. -1.
<mgrwt>
<rscale>  0 0.91295381E+02</rscale>
<asrwt>0</asrwt>
<pdfrwt beam="2">  1        2 0.14858456E-01 0.91295381E+02</pdfrwt>
<pdfrwt beam="1">  1       -2 0.33192292E-02 0.91295381E+02</pdfrwt>
<totfact> 0.12095487E+05</totfact>
</mgrwt>
</event>
<event>
 5    1  0.6027538E+000  0.8678883E+02  0.7546771E-02  0.1310820E+00
          1   -1    0    0  501    0  0.00000000000E+00  0.00000000000E+00  0.16764678893E+02  0.16764678893E+02  0.00000000000E+00 0. -1.
         -1   -1    0    0    0  501 -0.00000000000E+00 -0.00000000000E+00 -0.11232395564E+03  0.11232395564E+03  0.00000000000E+00 0.  1.
         23    2    1    2    0    0  0.00000000000E+00  0.00000000000E+00 -0.95559276743E+02  0.12908863453E+03  0.86788825275E+02 0.  0.
        -13    1    3    3    0    0 -0.80393178892E+01 -0.18217131415E+02 -0.10512765711E+03  0.10699681677E+03  0.00000000000E+00 0.  1.
         13    1    3    3    0    0  0.80393178892E+01  0.18217131415E+02  0.95683803664E+01  0.22091817760E+02  0.00000000000E+00 0. -1.
<mgrwt>
<rscale>  0 0.86788825E+02</rscale>
<asrwt>0</asrwt>
<pdfrwt beam="1">  1        1 0.25791814E-02 0.86788825E+02</pdfrwt>
<pdfrwt beam="2">  1       -1 0.17280609E-01 0.86788825E+02</pdfrwt>
<totfact> 0.90366351E+04</totfact>
</mgrwt>
</event>
<event>
 5    1  0.6027538E+000  0.9122958E+02  0.7546771E-02  0.1299901E+00
          2   -1    0    0  501    0  0.00000000000E+00  0.00000000000E+00  0.46739700119E+02  0.46739700119E+02  0.00000000000E+00 0. -1.
         -2   -1    0    0    0  501 -0.00000000000E+00 -0.00000000000E+00 -0.44516957740E+02  0.44516957740E+02  0.00000000000E+00 0.  1.
         23    2    1    2    0    0  0.00000000000E+00  0.00000000000E+00  0.22227423788E+01  0.91256657858E+02  0.91229584126E+02 0.  0.
        -13    1    3    3    0    0 -0.31209385031E+00 -0.39342442981E+02 -0.21977593767E+02  0.45065950007E+02  0.00000000000E+00 0.  1.
         13    1    3    3    0    0  0.31209385031E+00  0.39342442981E+02  0.24200336145E+02  0.46190707851E+02  0.00000000000E+00 0. -1.
<mgrwt>
<rscale>  0 0.91229584E+02</rscale>
<asrwt>0</asrwt>
<pdfrwt beam="1">  1        2 0.71907231E-02 0.91229584E+02</pdfrwt>
<pdfrwt beam="2">  1       -2 0.68487627E-02 0.91229584E+02</pdfrwt>
<totfact> 0.99151369E+04</totfact>
</mgrwt>
</event>
<event>
 5    1  0.6027538E+000  0.9058386E+02  0.7546771E-02  0.1301444E+00
          1   -1    0    0  501    0  0.00000000000E+00  0.00000000000E+00  0.24169536774E+02  0.24169536774E+02  0.00000000000E+00 0. -1.
         -1   -1    0    0    0  501 -0.00000000000E+00 -0.00000000000E+00 -0.84873733753E+02  0.84873733753E+02  0.00000000000E+00 0.  1.
         23    2    1    2    0    0  0.00000000000E+00  0.00000000000E+00 -0.60704196979E+02  0.10904327053E+03  0.90583857924E+02 0.  0.
        -13    1    3    3    0    0  0.18203557022E+02  0.29792511911E+02 -0.65082750540E+02  0.73856128195E+02  0.00000000000E+00 0.  1.
         13    1    3    3    0    0 -0.18203557022E+02 -0.29792511911E+02  0.43785535611E+01  0.35187142332E+02  0.00000000000E+00 0. -1.
<mgrwt>
<rscale>  0 0.90583858E+02</rscale>
<asrwt>0</asrwt>
<pdfrwt beam="1">  1        1 0.37183903E-02 0.90583858E+02</pdfrwt>
<pdfrwt beam="2">  1       -1 0.13057497E-01 0.90583858E+02</pdfrwt>
<totfact> 0.85211760E+04</totfact>
</mgrwt>
</event>
<event>
 5    1  0.6027538E+000  0.8920656E+02  0.7546771E-02  0.1304785E+00
          1   -1    0    0  501    0  0.00000000000E+00  0.00000000000E+00  0.37664038747E+02  0.37664038747E+02  0.00000000000E+00 0. -1.
         -1   -1    0    0    0  501 -0.00000000000E+00 -0.00000000000E+00 -0.52821012764E+02  0.52821012764E+02  0.00000000000E+00 0.  1.
         23    2    1    2    0    0  0.00000000000E+00  0.00000000000E+00 -0.15156974018E+02  0.90485051511E+02  0.89206561897E+02 0.  0.
        -13    1    3    3    0    0  0.72406011381E+00 -0.38092210401E+02  0.15946837268E+02  0.41301844694E+02  0.00000000000E+00 0. -1.
         13    1    3    3    0    0 -0.72406011381E+00  0.38092210401E+02 -0.31103811286E+02  0.49183206817E+02  0.00000000000E+00 0.  1.
<mgrwt>
<rscale>  0 0.89206562E+02</rscale>
<asrwt>0</asrwt>
<pdfrwt beam="1">  1        1 0.57944675E-02 0.89206562E+02</pdfrwt>
<pdfrwt beam="2">  1       -1 0.81263096E-02 0.89206562E+02</pdfrwt>
<totfact> 0.95555444E+04</totfact>
</mgrwt>
</event>
<event>
 5    1  0.6027538E+000  0.9109129E+02  0.7546771E-02  0.1300230E+00
          3   -1    0    0  501    0  0.00000000000E+00  0.00000000000E+00  0.22216544925E+02  0.22216544925E+02  0.00000000000E+00 0. -1.
         -3   -1    0    0    0  501 -0.00000000000E+00 -0.00000000000E+00 -0.93372113231E+02  0.93372113231E+02  0.00000000000E+00 0.  1.
         23    2    1    2    0    0  0.00000000000E+00  0.00000000000E+00 -0.71155568305E+02  0.11558865816E+03  0.91091289339E+02 0.  0.
        -13    1    3    3    0    0  0.24586709359E+02 -0.20700080424E+02 -0.76527268768E+02  0.83002544971E+02  0.00000000000E+00 0.  1.
         13    1    3    3    0    0 -0.24586709359E+02  0.20700080424E+02  0.53717004621E+01  0.32586113185E+02  0.00000000000E+00 0. -1.
<mgrwt>
<rscale>  0 0.91091289E+02</rscale>
<asrwt>0</asrwt>
<pdfrwt beam="1">  1        3 0.34179300E-02 0.91091289E+02</pdfrwt>
<pdfrwt beam="2">  1       -3 0.14364941E-01 0.91091289E+02</pdfrwt>
<totfact> 0.33638305E+04</totfact>
</mgrwt>
</event>
<event>
 5    1  0.6027538E+000  0.9091520E+02  0.7546771E-02  0.1300650E+00
         -1   -1    0    0    0  501 -0.00000000000E+00  0.00000000000E+00  0.99976616898E+02  0.99976616898E+02  0.00000000000E+00 0. -1.
          1   -1    0    0  501    0  0.00000000000E+00 -0.00000000000E+00 -0.20668767658E+02  0.20668767658E+02  0.00000000000E+00 0.  1.
         23    2    1    2    0    0  0.00000000000E+00  0.00000000000E+00  0.79307849239E+02  0.12064538456E+03  0.90915201499E+02 0.  0.
        -13    1    3    3    0    0 -0.37531591170E+01 -0.19817864444E+02 -0.14405400772E+02  0.24786075242E+02  0.00000000000E+00 0.  1.
         13    1    3    3    0    0  0.37531591170E+01  0.19817864444E+02  0.93713250012E+02  0.95859309314E+02  0.00000000000E+00 0. -1.
<mgrwt>
<rscale>  0 0.90915201E+02</rscale>
<asrwt>0</asrwt>
<pdfrwt beam="2">  1        1 0.31798105E-02 0.90915201E+02</pdfrwt>
<pdfrwt beam="1">  1       -1 0.15381018E-01 0.90915201E+02</pdfrwt>
<totfact> 0.81978587E+04</totfact>
</mgrwt>
</event>
<event>
 5    1  0.6027538E+000  0.9269623E+02  0.7546771E-02  0.1296451E+00
         -2   -1    0    0    0  501 -0.00000000000E+00  0.00000000000E+00  0.15613250509E+03  0.15613250509E+03  0.00000000000E+00 0.  1.
          2   -1    0    0  501    0  0.00000000000E+00 -0.00000000000E+00 -0.13758490253E+02  0.13758490253E+02  0.00000000000E+00 0. -1.
         23    2    1    2    0    0  0.00000000000E+00  0.00000000000E+00  0.14237401484E+03  0.16989099534E+03  0.92696225368E+02 0.  0.
        -13    1    3    3    0    0 -0.41025593970E+02  0.17062652797E+02  0.47017062084E+02  0.64690320823E+02  0.00000000000E+00 0. -1.
         13    1    3    3    0    0  0.41025593970E+02 -0.17062652797E+02  0.95356952753E+02  0.10520067452E+03  0.00000000000E+00 0.  1.
<mgrwt>
<rscale>  0 0.92696225E+02</rscale>
<asrwt>0</asrwt>
<pdfrwt beam="2">  1        2 0.21166909E-02 0.92696225E+02</pdfrwt>
<pdfrwt beam="1">  1       -2 0.24020384E-01 0.92696225E+02</pdfrwt>
<totfact> 0.66006359E+04</totfact>
</mgrwt>
</event>
<event>
 5    1  0.6027538E+000  0.9207040E+02  0.7546771E-02  0.1297914E+00
          1   -1    0    0  501    0  0.00000000000E+00  0.00000000000E+00  0.17660080919E+02  0.17660080919E+02  0.00000000000E+00 0. -1.
         -1   -1    0    0    0  501 -0.00000000000E+00 -0.00000000000E+00 -0.12000170610E+03  0.12000170610E+03  0.00000000000E+00 0.  1.
         23    2    1    2    0    0  0.00000000000E+00  0.00000000000E+00 -0.10234162518E+03  0.13766178702E+03  0.92070404369E+02 0.  0.
        -13    1    3    3    0    0  0.33478977145E+02  0.31594155017E+02 -0.51851568217E+02  0.69336986295E+02  0.00000000000E+00 0.  1.
         13    1    3    3    0    0 -0.33478977145E+02 -0.31594155017E+02 -0.50490056966E+02  0.68324800727E+02  0.00000000000E+00 0. -1.
<mgrwt>
<rscale>  0 0.92070404E+02</rscale>
<asrwt>0</asrwt>
<pdfrwt beam="1">  1        1 0.27169355E-02 0.92070404E+02</pdfrwt>
<pdfrwt beam="2">  1       -1 0.18461801E-01 0.92070404E+02</pdfrwt>
<totfact> 0.76573028E+04</totfact>
</mgrwt>
</event>
<event>
 5    1  0.6027538E+000  0.9444573E+02  0.7546771E-02  0.1292429E+00
         -4   -1    0    0    0  501 -0.00000000000E+00  0.00000000000E+00  0.77515022640E+01  0.77515022640E+01  0.00000000000E+00 0.  1.
          4   -1    0    0  501    0  0.00000000000E+00 -0.00000000000E+00 -0.28768602827E+03  0.28768602827E+03  0.00000000000E+00 0. -1.
         23    2    1    2    0    0  0.00000000000E+00  0.00000000000E+00 -0.27993452600E+03  0.29543753053E+03  0.94445728319E+02 0.  0.
        -13    1    3    3    0    0  0.43212750783E+02 -0.10536034331E+02 -0.90344494317E+02  0.10069993795E+03  0.00000000000E+00 0.  1.
         13    1    3    3    0    0 -0.43212750783E+02  0.10536034331E+02 -0.18959003169E+03  0.19473759258E+03  0.00000000000E+00 0. -1.
<mgrwt>
<rscale>  0 0.94445728E+02</rscale>
<asrwt>0</asrwt>
<pdfrwt beam="2">  1        4 0.44259391E-01 0.94445728E+02</pdfrwt>
<pdfrwt beam="1">  1       -4 0.11925388E-02 0.94445728E+02</pdfrwt>
<totfact> 0.16348553E+04</totfact>
</mgrwt>
</event>
<event>
 5    1  0.6027538E+000  0.7840335E+02  0.7546771E-02  0.1333645E+00
          1   -1    0    0  501    0  0.00000000000E+00  0.00000000000E+00  0.16237676005E+02  0.16237676005E+02  0.00000000000E+00 0. -1.
         -1   -1    0    0    0  501 -0.00000000000E+00 -0.00000000000E+00 -0.94642319215E+02  0.94642319215E+02  0.00000000000E+00 0.  1.
         23    2    1    2    0    0  0.00000000000E+00  0.00000000000E+00 -0.78404643210E+02  0.11087999522E+03  0.78403349820E+02 0.  0.
        -13    1    3    3    0    0  0.29712036548E+02  0.15930432637E+02 -0.67493455118E+02  0.75445014968E+02  0.00000000000E+00 0.  1.
         13    1    3    3    0    0 -0.29712036548E+02 -0.15930432637E+02 -0.10911188092E+02  0.35434980251E+02  0.00000000000E+00 0. -1.
<mgrwt>
<rscale>  0 0.78403350E+02</rscale>
<asrwt>0</asrwt>
<pdfrwt beam="1">  1        1 0.24981040E-02 0.78403350E+02</pdfrwt>
<pdfrwt beam="2">  1       -1 0.14560357E-01 0.78403350E+02</pdfrwt>
<totfact> 0.12102846E+05</totfact>
</mgrwt>
</event>
<event>
 5    1  0.6027538E+000  0.9178880E+02  0.7546771E-02  0.1298577E+00
         -3   -1    0    0    0  501 -0.00000000000E+00  0.00000000000E+00  0.80751103256E+01  0.80751103256E+01  0.00000000000E+00 0.  1.
          3   -1    0    0  501    0  0.00000000000E+00 -0.00000000000E+00 -0.26083805872E+03  0.26083805872E+03  0.00000000000E+00 0. -1.
         23    2    1    2    0    0  0.00000000000E+00  0.00000000000E+00 -0.25276294840E+03  0.26891316905E+03  0.91788803267E+02 0.  0.
        -13    1    3    3    0    0 -0.10924302090E+02 -0.34049472925E+02 -0.42100460778E+02  0.55237268038E+02  0.00000000000E+00 0.  1.
         13    1    3    3    0    0  0.10924302090E+02  0.34049472925E+02 -0.21066248762E+03  0.21367590101E+03  0.00000000000E+00 0. -1.
<mgrwt>
<rscale>  0 0.91788803E+02</rscale>
<asrwt>0</asrwt>
<pdfrwt beam="2">  1        3 0.40128925E-01 0.91788803E+02</pdfrwt>
<pdfrwt beam="1">  1       -3 0.12423249E-02 0.91788803E+02</pdfrwt>
<totfact> 0.24834689E+04</totfact>
</mgrwt>
</event>
<event>
 5    1  0.6027538E+000  0.9085929E+02  0.7546771E-02  0.1300784E+00
         -2   -1    0    0    0  501 -0.00000000000E+00  0.00000000000E+00  0.51989393431E+02  0.51989393431E+02  0.00000000000E+00 0. -1.
          2   -1    0    0  501    0  0.00000000000E+00 -0.00000000000E+00 -0.39697566847E+02  0.39697566847E+02  0.00000000000E+00 0.  1.
         23    2    1    2    0    0  0.00000000000E+00  0.00000000000E+00  0.12291826584E+02  0.91686960278E+02  0.90859285075E+02 0.  0.
        -13    1    3    3    0    0 -0.34354788369E+02  0.20473755501E+02  0.27892777841E+02  0.48758929479E+02  0.00000000000E+00 0. -1.
         13    1    3    3    0    0  0.34354788369E+02 -0.20473755501E+02 -0.15600951258E+02  0.42928030800E+02  0.00000000000E+00 0.  1.
<mgrwt>
<rscale>  0 0.90859285E+02</rscale>
<asrwt>0</asrwt>
<pdfrwt beam="2">  1        2 0.61073180E-02 0.90859285E+02</pdfrwt>
<pdfrwt beam="1">  1       -2 0.79983682E-02 0.90859285E+02</pdfrwt>
<totfact> 0.96168316E+04</totfact>
</mgrwt>
</event>
<event>
 5    1  0.6027538E+000  0.9256591E+02  0.7546771E-02  0.1296754E+00
          1   -1    0    0  501    0  0.00000000000E+00  0.00000000000E+00  0.15974046876E+03  0.15974046876E+03  0.00000000000E+00 0. -1.
         -1   -1    0    0    0  501 -0.00000000000E+00 -0.00000000000E+00 -0.13409952068E+02  0.13409952068E+02  0.00000000000E+00 0.  1.
         23    2    1    2    0    0  0.00000000000E+00  0.00000000000E+00  0.14633051669E+03  0.17315042082E+03  0.92565912287E+02 0.  0.
        -13    1    3    3    0    0  0.22980007094E+02 -0.35520563953E+02  0.10827613167E+03  0.11624763171E+03  0.00000000000E+00 0. -1.
         13    1    3    3    0    0 -0.22980007094E+02  0.35520563953E+02  0.38054385021E+02  0.56902789113E+02  0.00000000000E+00 0.  1.
<mgrwt>
<rscale>  0 0.92565912E+02</rscale>
<asrwt>0</asrwt>
<pdfrwt beam="1">  1        1 0.24575455E-01 0.92565912E+02</pdfrwt>
<pdfrwt beam="2">  1       -1 0.20630697E-02 0.92565912E+02</pdfrwt>
<totfact> 0.10891006E+05</totfact>
</mgrwt>
</event>
<event>
 5    1  0.6027538E+000  0.9328362E+02  0.7546771E-02  0.1295089E+00
          2   -1    0    0  501    0  0.00000000000E+00  0.00000000000E+00  0.13341454760E+03  0.13341454760E+03  0.00000000000E+00 0. -1.
         -2   -1    0    0    0  501 -0.00000000000E+00 -0.00000000000E+00 -0.16306006231E+02  0.16306006231E+02  0.00000000000E+00 0.  1.
         23    2    1    2    0    0  0.00000000000E+00  0.00000000000E+00  0.11710854137E+03  0.14972055383E+03  0.93283620096E+02 0.  0.
        -13    1    3    3    0    0  0.27367109784E+02 -0.33920604187E+02  0.85213394341E+02  0.95712531371E+02  0.00000000000E+00 0. -1.
         13    1    3    3    0    0 -0.27367109784E+02  0.33920604187E+02  0.31895147032E+02  0.54008022464E+02  0.00000000000E+00 0.  1.
<mgrwt>
<rscale>  0 0.93283620E+02</rscale>
<asrwt>0</asrwt>
<pdfrwt beam="1">  1        2 0.20525314E-01 0.93283620E+02</pdfrwt>
<pdfrwt beam="2">  1       -2 0.25086164E-02 0.93283620E+02</pdfrwt>
<totfact> 0.12629430E+05</totfact>
</mgrwt>
</event>
<event>
 5    1  0.6027538E+000  0.8899784E+02  0.7546771E-02  0.1305297E+00
          1   -1    0    0  501    0  0.00000000000E+00  0.00000000000E+00  0.51825435457E+02  0.51825435457E+02  0.00000000000E+00 0. -1.
         -1   -1    0    0    0  501 -0.00000000000E+00 -0.00000000000E+00 -0.38208150077E+02  0.38208150077E+02  0.00000000000E+00 0.  1.
         23    2    1    2    0    0  0.00000000000E+00  0.00000000000E+00  0.13617285381E+02  0.90033585534E+02  0.88997843024E+02 0.  0.
        -13    1    3    3    0    0  0.33677506757E+02  0.13607504040E+02  0.32814138530E+02  0.48950038969E+02  0.00000000000E+00 0. -1.
         13    1    3    3    0    0 -0.33677506757E+02 -0.13607504040E+02 -0.19196853149E+02  0.41083546565E+02  0.00000000000E+00 0.  1.
<mgrwt>
<rscale>  0 0.88997843E+02</rscale>
<asrwt>0</asrwt>
<pdfrwt beam="1">  1        1 0.79731439E-02 0.88997843E+02</pdfrwt>
<pdfrwt beam="2">  1       -1 0.58781769E-02 0.88997843E+02</pdfrwt>
<totfact> 0.10083415E+05</totfact>
</mgrwt>
</event>
<event>
 5    1  0.6027538E+000  0.9273360E+02  0.7546771E-02  0.1296364E+00
         -1   -1    0    0    0  501 -0.00000000000E+00  0.00000000000E+00  0.26846623323E+02  0.26846623323E+02  0.00000000000E+00 0.  1.
          1   -1    0    0  501    0  0.00000000000E+00 -0.00000000000E+00 -0.80080093260E+02  0.80080093260E+02  0.00000000000E+00 0. -1.
         23    2    1    2    0    0  0.00000000000E+00  0.00000000000E+00 -0.53233469937E+02  0.10692671658E+03  0.92733599076E+02 0.  0.
        -13    1    3    3    0    0  0.36466304391E+02 -0.24492618582E+02 -0.43727055532E+02  0.61981732038E+02  0.00000000000E+00 0. -1.
         13    1    3    3    0    0 -0.36466304391E+02  0.24492618582E+02 -0.95064144053E+01  0.44944984545E+02  0.00000000000E+00 0.  1.
<mgrwt>
<rscale>  0 0.92733599E+02</rscale>
<asrwt>0</asrwt>
<pdfrwt beam="2">  1        1 0.12320014E-01 0.92733599E+02</pdfrwt>
<pdfrwt beam="1">  1       -1 0.41302497E-02 0.92733599E+02</pdfrwt>
<totfact> 0.96175717E+04</totfact>
</mgrwt>
</event>
<event>
 5    1  0.6027538E+000  0.9020634E+02  0.7546771E-02  0.1302353E+00
         -4   -1    0    0    0  501 -0.00000000000E+00  0.00000000000E+00  0.20682313391E+02  0.20682313391E+02  0.00000000000E+00 0.  1.
          4   -1    0    0  501    0  0.00000000000E+00 -0.00000000000E+00 -0.98359204729E+02  0.98359204729E+02  0.00000000000E+00 0. -1.
         23    2    1    2    0    0  0.00000000000E+00  0.00000000000E+00 -0.77676891338E+02  0.11904151812E+03  0.90206338960E+02 0.  0.
        -13    1    3    3    0    0 -0.31762836151E+01  0.44691153868E+02 -0.45683882778E+02  0.63987539079E+02  0.00000000000E+00 0.  1.
         13    1    3    3    0    0  0.31762836151E+01 -0.44691153868E+02 -0.31993008560E+02  0.55053979042E+02  0.00000000000E+00 0. -1.
<mgrwt>
<rscale>  0 0.90206339E+02</rscale>
<asrwt>0</asrwt>
<pdfrwt beam="2">  1        4 0.15132185E-01 0.90206339E+02</pdfrwt>
<pdfrwt beam="1">  1       -4 0.31818943E-02 0.90206339E+02</pdfrwt>
<totfact> 0.26068529E+04</totfact>
</mgrwt>
</event>
<event>
 5    1  0.6027538E+000  0.9188730E+02  0.7546771E-02  0.1298345E+00
          1   -1    0    0  501    0  0.00000000000E+00  0.00000000000E+00  0.37346297754E+02  0.37346297754E+02  0.00000000000E+00 0. -1.
         -1   -1    0    0    0  501 -0.00000000000E+00 -0.00000000000E+00 -0.56520170292E+02  0.56520170292E+02  0.00000000000E+00 0.  1.
         23    2    1    2    0    0  0.00000000000E+00  0.00000000000E+00 -0.19173872538E+02  0.93866468046E+02  0.91887302906E+02 0.  0.
        -13    1    3    3    0    0  0.18948209636E+01  0.34477327115E+02 -0.40547199338E+02  0.53257410805E+02  0.00000000000E+00 0.  1.
         13    1    3    3    0    0 -0.18948209636E+01 -0.34477327115E+02  0.21373326800E+02  0.40609057241E+02  0.00000000000E+00 0. -1.
<mgrwt>
<rscale>  0 0.91887303E+02</rscale>
<asrwt>0</asrwt>
<pdfrwt beam="1">  1        1 0.57455843E-02 0.91887303E+02</pdfrwt>
<pdfrwt beam="2">  1       -1 0.86954108E-02 0.91887303E+02</pdfrwt>
<totfact> 0.87762482E+04</totfact>
</mgrwt>
</event>
<event>
 5    1  0.6027538E+000  0.9391759E+02  0.7546771E-02  0.1293633E+00
          1   -1    0    0  501    0  0.00000000000E+00  0.00000000000E+00  0.81516170090E+02  0.81516170090E+02  0.00000000000E+00 0. -1.
         -1   -1    0    0    0  501 -0.00000000000E+00 -0.00000000000E+00 -0.27051424949E+02  0.27051424949E+02  0.00000000000E+00 0.  1.
         23    2    1    2    0    0  0.00000000000E+00  0.00000000000E+00  0.54464745141E+02  0.10856759504E+03  0.93917592756E+02 0.  0.
        -13    1    3    3    0    0 -0.26948305405E+02 -0.22861584779E+01 -0.17144476454E+02  0.32021410926E+02  0.00000000000E+00 0.  1.
         13    1    3    3    0    0  0.26948305405E+02  0.22861584779E+01  0.71609221595E+02  0.76546184113E+02  0.00000000000E+00 0. -1.
<mgrwt>
<rscale>  0 0.93917593E+02</rscale>
<asrwt>0</asrwt>
<pdfrwt beam="1">  1        1 0.12540949E-01 0.93917593E+02</pdfrwt>
<pdfrwt beam="2">  1       -1 0.41617577E-02 0.93917593E+02</pdfrwt>
<totfact> 0.93137179E+04</totfact>
</mgrwt>
</event>
<event>
 5    1  0.6027538E+000  0.8963842E+02  0.7546771E-02  0.1303730E+00
         -2   -1    0    0    0  501 -0.00000000000E+00  0.00000000000E+00  0.82892585184E+01  0.82892585184E+01  0.00000000000E+00 0.  1.
          2   -1    0    0  501    0  0.00000000000E+00 -0.00000000000E+00 -0.24233310512E+03  0.24233310512E+03  0.00000000000E+00 0. -1.
         23    2    1    2    0    0  0.00000000000E+00  0.00000000000E+00 -0.23404384660E+03  0.25062236364E+03  0.89638423813E+02 0.  0.
        -13    1    3    3    0    0  0.79658701163E+01  0.39376664735E+02 -0.17257471656E+03  0.17718919157E+03  0.00000000000E+00 0. -1.
         13    1    3    3    0    0 -0.79658701163E+01 -0.39376664735E+02 -0.61469130039E+02  0.73433172069E+02  0.00000000000E+00 0.  1.
<mgrwt>
<rscale>  0 0.89638424E+02</rscale>
<asrwt>0</asrwt>
<pdfrwt beam="2">  1        2 0.37282009E-01 0.89638424E+02</pdfrwt>
<pdfrwt beam="1">  1       -2 0.12752708E-02 0.89638424E+02</pdfrwt>
<totfact> 0.17366861E+05</totfact>
</mgrwt>
</event>
<event>
 5    1  0.6027538E+000  0.9054617E+02  0.7546771E-02  0.1301534E+00
          1   -1    0    0  501    0  0.00000000000E+00  0.00000000000E+00  0.44081502247E+02  0.44081502247E+02  0.00000000000E+00 0. -1.
         -1   -1    0    0    0  501 -0.00000000000E+00 -0.00000000000E+00 -0.46496876957E+02  0.46496876957E+02  0.00000000000E+00 0.  1.
         23    2    1    2    0    0  0.00000000000E+00  0.00000000000E+00 -0.24153747107E+01  0.90578379204E+02  0.90546169131E+02 0.  0.
        -13    1    3    3    0    0  0.33000281179E+02  0.19335555668E+02 -0.25439638450E+02  0.45935361927E+02  0.00000000000E+00 0.  1.
         13    1    3    3    0    0 -0.33000281179E+02 -0.19335555668E+02  0.23024263740E+02  0.44643017277E+02  0.00000000000E+00 0. -1.
<mgrwt>
<rscale>  0 0.90546169E+02</rscale>
<asrwt>0</asrwt>
<pdfrwt beam="1">  1        1 0.67817696E-02 0.90546169E+02</pdfrwt>
<pdfrwt beam="2">  1       -1 0.71533657E-02 0.90546169E+02</pdfrwt>
<totfact> 0.93816634E+04</totfact>
</mgrwt>
</event>
<event>
 5    1  0.6027538E+000  0.9222924E+02  0.7546771E-02  0.1297541E+00
         -2   -1    0    0    0  501 -0.00000000000E+00  0.00000000000E+00  0.57108328715E+02  0.57108328715E+02  0.00000000000E+00 0. -1.
          2   -1    0    0  501    0  0.00000000000E+00 -0.00000000000E+00 -0.37237267020E+02  0.37237267020E+02  0.00000000000E+00 0.  1.
         23    2    1    2    0    0  0.00000000000E+00  0.00000000000E+00  0.19871061695E+02  0.94345595736E+02  0.92229237999E+02 0.  0.
        -13    1    3    3    0    0 -0.38541446982E+02  0.62935801964E+01  0.35023928214E+02  0.52456914079E+02  0.00000000000E+00 0. -1.
         13    1    3    3    0    0  0.38541446982E+02 -0.62935801964E+01 -0.15152866519E+02  0.41888681656E+02  0.00000000000E+00 0.  1.
<mgrwt>
<rscale>  0 0.92229238E+02</rscale>
<asrwt>0</asrwt>
<pdfrwt beam="2">  1        2 0.57288103E-02 0.92229238E+02</pdfrwt>
<pdfrwt beam="1">  1       -2 0.87858967E-02 0.92229238E+02</pdfrwt>
<totfact> 0.90550791E+04</totfact>
</mgrwt>
</event>
<event>
 5    1  0.6027538E+000  0.9347273E+02  0.7546771E-02  0.1294653E+00
         -1   -1    0    0    0  501 -0.00000000000E+00  0.00000000000E+00  0.36639735982E+02  0.36639735982E+02  0.00000000000E+00 0.  1.
          1   -1    0    0  501    0  0.00000000000E+00 -0.00000000000E+00 -0.59615266416E+02  0.59615266416E+02  0.00000000000E+00 0. -1.
         23    2    1    2    0    0  0.00000000000E+00  0.00000000000E+00 -0.22975530434E+02  0.96255002398E+02  0.93472725904E+02 0.  0.
        -13    1    3    3    0    0 -0.30832105702E+02  0.28308172410E+02 -0.32898875264E+02  0.53238213352E+02  0.00000000000E+00 0.  1.
         13    1    3    3    0    0  0.30832105702E+02 -0.28308172410E+02  0.99233448298E+01  0.43016789046E+02  0.00000000000E+00 0. -1.
<mgrwt>
<rscale>  0 0.93472726E+02</rscale>
<asrwt>0</asrwt>
<pdfrwt beam="2">  1        1 0.91715794E-02 0.93472726E+02</pdfrwt>
<pdfrwt beam="1">  1       -1 0.56368825E-02 0.93472726E+02</pdfrwt>
<totfact> 0.89841136E+04</totfact>
</mgrwt>
</event>
<event>
 5    1  0.6027538E+000  0.9169923E+02  0.7546771E-02  0.1298788E+00
         -1   -1    0    0    0  501 -0.00000000000E+00  0.00000000000E+00  0.35968958408E+02  0.35968958408E+02  0.00000000000E+00 0.  1.
          1   -1    0    0  501    0  0.00000000000E+00 -0.00000000000E+00 -0.58444479923E+02  0.58444479923E+02  0.00000000000E+00 0. -1.
         23    2    1    2    0    0  0.00000000000E+00  0.00000000000E+00 -0.22475521516E+02  0.94413438331E+02  0.91699227205E+02 0.  0.
        -13    1    3    3    0    0 -0.19823308912E+02  0.34363397587E+02 -0.34904666817E+02  0.52840727054E+02  0.00000000000E+00 0. -1.
         13    1    3    3    0    0  0.19823308912E+02 -0.34363397587E+02  0.12429145301E+02  0.41572711277E+02  0.00000000000E+00 0.  1.
<mgrwt>
<rscale>  0 0.91699227E+02</rscale>
<asrwt>0</asrwt>
<pdfrwt beam="2">  1        1 0.89914584E-02 0.91699227E+02</pdfrwt>
<pdfrwt beam="1">  1       -1 0.55336859E-02 0.91699227E+02</pdfrwt>
<totfact> 0.94476536E+04</totfact>
</mgrwt>
</event>
<event>
 5    1  0.6027538E+000  0.9895152E+02  0.7546771E-02  0.1282516E+00
         -1   -1    0    0    0  501 -0.00000000000E+00  0.00000000000E+00  0.18498131551E+02  0.18498131551E+02  0.00000000000E+00 0.  1.
          1   -1    0    0  501    0  0.00000000000E+00 -0.00000000000E+00 -0.13232963664E+03  0.13232963664E+03  0.00000000000E+00 0. -1.
         23    2    1    2    0    0  0.00000000000E+00  0.00000000000E+00 -0.11383150509E+03  0.15082776819E+03  0.98951524024E+02 0.  0.
        -13    1    3    3    0    0 -0.19805507820E+02  0.31218502884E+02 -0.10703115881E+03  0.11323657545E+03  0.00000000000E+00 0. -1.
         13    1    3    3    0    0  0.19805507820E+02 -0.31218502884E+02 -0.68003462757E+01  0.37591192743E+02  0.00000000000E+00 0.  1.
<mgrwt>
<rscale>  0 0.98951524E+02</rscale>
<asrwt>0</asrwt>
<pdfrwt beam="2">  1        1 0.20358405E-01 0.98951524E+02</pdfrwt>
<pdfrwt beam="1">  1       -1 0.28458664E-02 0.98951524E+02</pdfrwt>
<totfact> 0.87734725E+04</totfact>
</mgrwt>
</event>
<event>
 5    1  0.6027538E+000  0.9100974E+02  0.7546771E-02  0.1300425E+00
         -2   -1    0    0    0  501 -0.00000000000E+00  0.00000000000E+00  0.65663337912E+01  0.65663337912E+01  0.00000000000E+00 0.  1.
          2   -1    0    0  501    0  0.00000000000E+00 -0.00000000000E+00 -0.31534996413E+03  0.31534996413E+03  0.00000000000E+00 0. -1.
         23    2    1    2    0    0  0.00000000000E+00  0.00000000000E+00 -0.30878363034E+03  0.32191629792E+03  0.91009738502E+02 0.  0.
        -13    1    3    3    0    0 -0.29730786708E+00 -0.43829786069E+02 -0.11113495760E+03  0.11946596728E+03  0.00000000000E+00 0.  1.
         13    1    3    3    0    0  0.29730786708E+00  0.43829786069E+02 -0.19764867274E+03  0.20245033064E+03  0.00000000000E+00 0. -1.
<mgrwt>
<rscale>  0 0.91009739E+02</rscale>
<asrwt>0</asrwt>
<pdfrwt beam="2">  1        2 0.48515373E-01 0.91009739E+02</pdfrwt>
<pdfrwt beam="1">  1       -2 0.10102053E-02 0.91009739E+02</pdfrwt>
<totfact> 0.18392156E+05</totfact>
</mgrwt>
</event>
<event>
 5    1  0.6027538E+000  0.9153915E+02  0.7546771E-02  0.1299167E+00
         -3   -1    0    0    0  501 -0.00000000000E+00  0.00000000000E+00  0.51189250586E+01  0.51189250586E+01  0.00000000000E+00 0.  1.
          3   -1    0    0  501    0  0.00000000000E+00 -0.00000000000E+00 -0.40923707098E+03  0.40923707098E+03  0.00000000000E+00 0. -1.
         23    2    1    2    0    0  0.00000000000E+00  0.00000000000E+00 -0.40411814592E+03  0.41435599604E+03  0.91539147856E+02 0.  0.
        -13    1    3    3    0    0  0.11494814768E+01  0.44088286150E+02 -0.25745251076E+03  0.26120278249E+03  0.00000000000E+00 0.  1.
         13    1    3    3    0    0 -0.11494814768E+01 -0.44088286150E+02 -0.14666563516E+03  0.15315321355E+03  0.00000000000E+00 0. -1.
<mgrwt>
<rscale>  0 0.91539148E+02</rscale>
<asrwt>0</asrwt>
<pdfrwt beam="2">  1        3 0.62959530E-01 0.91539148E+02</pdfrwt>
<pdfrwt beam="1">  1       -3 0.78752717E-03 0.91539148E+02</pdfrwt>
<totfact> 0.19975332E+04</totfact>
</mgrwt>
</event>
<event>
 5    1  0.6027538E+000  0.9648270E+02  0.7546771E-02  0.1287871E+00
         -1   -1    0    0    0  501 -0.00000000000E+00  0.00000000000E+00  0.17131369993E+02  0.17131369993E+02  0.00000000000E+00 0.  1.
          1   -1    0    0  501    0  0.00000000000E+00 -0.00000000000E+00 -0.13584599668E+03  0.13584599668E+03  0.00000000000E+00 0. -1.
         23    2    1    2    0    0  0.00000000000E+00  0.00000000000E+00 -0.11871462668E+03  0.15297736667E+03  0.96482703759E+02 0.  0.
        -13    1    3    3    0    0  0.12914186324E+02 -0.29462001189E+02 -0.23562052113E+01  0.32254262129E+02  0.00000000000E+00 0.  1.
         13    1    3    3    0    0 -0.12914186324E+02  0.29462001189E+02 -0.11635842147E+03  0.12072310454E+03  0.00000000000E+00 0. -1.
<mgrwt>
<rscale>  0 0.96482704E+02</rscale>
<asrwt>0</asrwt>
<pdfrwt beam="2">  1        1 0.20899384E-01 0.96482704E+02</pdfrwt>
<pdfrwt beam="1">  1       -1 0.26355954E-02 0.96482704E+02</pdfrwt>
<totfact> 0.94451608E+04</totfact>
</mgrwt>
</event>
<event>
 5    1  0.6027538E+000  0.9085578E+02  0.7546771E-02  0.1300792E+00
          1   -1    0    0  501    0  0.00000000000E+00  0.00000000000E+00  0.18752330101E+03  0.18752330101E+03  0.00000000000E+00 0. -1.
         -1   -1    0    0    0  501 -0.00000000000E+00 -0.00000000000E+00 -0.11004995063E+02  0.11004995063E+02  0.00000000000E+00 0.  1.
         23    2    1    2    0    0  0.00000000000E+00  0.00000000000E+00  0.17651830594E+03  0.19852829607E+03  0.90855775862E+02 0.  0.
        -13    1    3    3    0    0 -0.15690730596E+02  0.33430198393E+02  0.30450509852E+02  0.47864503983E+02  0.00000000000E+00 0.  1.
         13    1    3    3    0    0  0.15690730596E+02 -0.33430198393E+02  0.14606779609E+03  0.15066379209E+03  0.00000000000E+00 0. -1.
<mgrwt>
<rscale>  0 0.90855776E+02</rscale>
<asrwt>0</asrwt>
<pdfrwt beam="1">  1        1 0.28849736E-01 0.90855776E+02</pdfrwt>
<pdfrwt beam="2">  1       -1 0.16930763E-02 0.90855776E+02</pdfrwt>
<totfact> 0.11805391E+05</totfact>
</mgrwt>
</event>
<event>
 5    1  0.6027538E+000  0.9168477E+02  0.7546771E-02  0.1298822E+00
          1   -1    0    0  501    0  0.00000000000E+00  0.00000000000E+00  0.19232368885E+02  0.19232368885E+02  0.00000000000E+00 0. -1.
         -1   -1    0    0    0  501 -0.00000000000E+00 -0.00000000000E+00 -0.10927018239E+03  0.10927018239E+03  0.00000000000E+00 0.  1.
         23    2    1    2    0    0  0.00000000000E+00  0.00000000000E+00 -0.90037813505E+02  0.12850255127E+03  0.91684774218E+02 0.  0.
        -13    1    3    3    0    0 -0.64390664964E+01 -0.27117213338E+02  0.59935822919E+01  0.28508382368E+02  0.00000000000E+00 0. -1.
         13    1    3    3    0    0  0.64390664964E+01  0.27117213338E+02 -0.96031395797E+02  0.99994168907E+02  0.00000000000E+00 0.  1.
<mgrwt>
<rscale>  0 0.91684774E+02</rscale>
<asrwt>0</asrwt>
<pdfrwt beam="1">  1        1 0.29588259E-02 0.91684774E+02</pdfrwt>
<pdfrwt beam="2">  1       -1 0.16810798E-01 0.91684774E+02</pdfrwt>
<totfact> 0.78870973E+04</totfact>
</mgrwt>
</event>
<event>
 5    1  0.6027538E+000  0.9140059E+02  0.7546771E-02  0.1299495E+00
          2   -1    0    0  501    0  0.00000000000E+00  0.00000000000E+00  0.32871606227E+03  0.32871606227E+03  0.00000000000E+00 0.  1.
         -2   -1    0    0    0  501 -0.00000000000E+00 -0.00000000000E+00 -0.63535587748E+01  0.63535587748E+01  0.00000000000E+00 0. -1.
         23    2    1    2    0    0  0.00000000000E+00  0.00000000000E+00  0.32236250349E+03  0.33506962104E+03  0.91400586909E+02 0.  0.
        -13    1    3    3    0    0  0.44942245548E+02  0.82152347109E+01  0.16523258755E+03  0.17143250422E+03  0.00000000000E+00 0. -1.
         13    1    3    3    0    0 -0.44942245548E+02 -0.82152347109E+01  0.15712991595E+03  0.16363711682E+03  0.00000000000E+00 0.  1.
<mgrwt>
<rscale>  0 0.91400587E+02</rscale>
<asrwt>0</asrwt>
<pdfrwt beam="1">  1        2 0.50571688E-01 0.91400587E+02</pdfrwt>
<pdfrwt beam="2">  1       -2 0.97747084E-03 0.91400587E+02</pdfrwt>
<totfact> 0.18464835E+05</totfact>
</mgrwt>
</event>
<event>
 5    1  0.6027538E+000  0.9024270E+02  0.7546771E-02  0.1302265E+00
          2   -1    0    0  501    0  0.00000000000E+00  0.00000000000E+00  0.31738642036E+02  0.31738642036E+02  0.00000000000E+00 0. -1.
         -2   -1    0    0    0  501 -0.00000000000E+00 -0.00000000000E+00 -0.64146919499E+02  0.64146919499E+02  0.00000000000E+00 0.  1.
         23    2    1    2    0    0  0.00000000000E+00  0.00000000000E+00 -0.32408277463E+02  0.95885561535E+02  0.90242697559E+02 0.  0.
        -13    1    3    3    0    0  0.37660768503E+02 -0.22740798071E+02 -0.55544969772E+01  0.44343317623E+02  0.00000000000E+00 0. -1.
         13    1    3    3    0    0 -0.37660768503E+02  0.22740798071E+02 -0.26853780486E+02  0.51542243912E+02  0.00000000000E+00 0.  1.
<mgrwt>
<rscale>  0 0.90242698E+02</rscale>
<asrwt>0</asrwt>
<pdfrwt beam="1">  1        2 0.48828681E-02 0.90242698E+02</pdfrwt>
<pdfrwt beam="2">  1       -2 0.98687567E-02 0.90242698E+02</pdfrwt>
<totfact> 0.92567388E+04</totfact>
</mgrwt>
</event>
<event>
 5    1  0.6027538E+000  0.9221092E+02  0.7546771E-02  0.1297584E+00
         -1   -1    0    0    0  501 -0.00000000000E+00  0.00000000000E+00  0.98367989141E+02  0.98367989141E+02  0.00000000000E+00 0.  1.
          1   -1    0    0  501    0  0.00000000000E+00 -0.00000000000E+00 -0.21609810273E+02  0.21609810273E+02  0.00000000000E+00 0. -1.
         23    2    1    2    0    0  0.00000000000E+00  0.00000000000E+00  0.76758178868E+02  0.11997779941E+03  0.92210923046E+02 0.  0.
        -13    1    3    3    0    0  0.39659174423E+02  0.23149685602E+02  0.43736736688E+02  0.63416560893E+02  0.00000000000E+00 0. -1.
         13    1    3    3    0    0 -0.39659174423E+02 -0.23149685602E+02  0.33021442180E+02  0.56561238521E+02  0.00000000000E+00 0.  1.
<mgrwt>
<rscale>  0 0.92210923E+02</rscale>
<asrwt>0</asrwt>
<pdfrwt beam="2">  1        1 0.33245862E-02 0.92210923E+02</pdfrwt>
<pdfrwt beam="1">  1       -1 0.15133537E-01 0.92210923E+02</pdfrwt>
<totfact> 0.79280900E+04</totfact>
</mgrwt>
</event>
<event>
 5    1  0.6027538E+000  0.8874384E+02  0.7546771E-02  0.1305922E+00
         -2   -1    0    0    0  501 -0.00000000000E+00  0.00000000000E+00  0.10110299774E+02  0.10110299774E+02  0.00000000000E+00 0.  1.
          2   -1    0    0  501    0  0.00000000000E+00 -0.00000000000E+00 -0.19473877603E+03  0.19473877603E+03  0.00000000000E+00 0. -1.
         23    2    1    2    0    0  0.00000000000E+00  0.00000000000E+00 -0.18462847625E+03  0.20484907580E+03  0.88743842677E+02 0.  0.
        -13    1    3    3    0    0  0.17221998673E+02  0.26279562533E+02 -0.16463702733E+03  0.16760836320E+03  0.00000000000E+00 0. -1.
         13    1    3    3    0    0 -0.17221998673E+02 -0.26279562533E+02 -0.19991448921E+02  0.37240712603E+02  0.00000000000E+00 0.  1.
<mgrwt>
<rscale>  0 0.88743843E+02</rscale>
<asrwt>0</asrwt>
<pdfrwt beam="2">  1        2 0.29959811E-01 0.88743843E+02</pdfrwt>
<pdfrwt beam="1">  1       -2 0.15554308E-02 0.88743843E+02</pdfrwt>
<totfact> 0.16475145E+05</totfact>
</mgrwt>
</event>
<event>
 5    1  0.6027538E+000  0.9088396E+02  0.7546771E-02  0.1300725E+00
         -2   -1    0    0    0  501 -0.00000000000E+00  0.00000000000E+00  0.11901929367E+02  0.11901929367E+02  0.00000000000E+00 0. -1.
          2   -1    0    0  501    0  0.00000000000E+00 -0.00000000000E+00 -0.17349904786E+03  0.17349904786E+03  0.00000000000E+00 0.  1.
         23    2    1    2    0    0  0.00000000000E+00  0.00000000000E+00 -0.16159711849E+03  0.18540097722E+03  0.90883957061E+02 0.  0.
        -13    1    3    3    0    0  0.25934256481E+02  0.11315103071E+02 -0.15333554617E+03  0.15592436287E+03  0.00000000000E+00 0.  1.
         13    1    3    3    0    0 -0.25934256481E+02 -0.11315103071E+02 -0.82615723226E+01  0.29476614357E+02  0.00000000000E+00 0. -1.
<mgrwt>
<rscale>  0 0.90883957E+02</rscale>
<asrwt>0</asrwt>
<pdfrwt beam="2">  1        2 0.26692162E-01 0.90883957E+02</pdfrwt>
<pdfrwt beam="1">  1       -2 0.18310660E-02 0.90883957E+02</pdfrwt>
<totfact> 0.14830797E+05</totfact>
</mgrwt>
</event>
<event>
 5    1  0.6027538E+000  0.9287932E+02  0.7546771E-02  0.1296025E+00
         -1   -1    0    0    0  501 -0.00000000000E+00  0.00000000000E+00  0.60860931555E+01  0.60860931555E+01  0.00000000000E+00 0.  1.
          1   -1    0    0  501    0  0.00000000000E+00 -0.00000000000E+00 -0.35435575824E+03  0.35435575824E+03  0.00000000000E+00 0. -1.
         23    2    1    2    0    0  0.00000000000E+00  0.00000000000E+00 -0.34826966509E+03  0.36044185140E+03  0.92879322884E+02 0.  0.
        -13    1    3    3    0    0  0.45541992190E+02 -0.15559711603E+00 -0.20939312472E+03  0.21428853899E+03  0.00000000000E+00 0. -1.
         13    1    3    3    0    0 -0.45541992190E+02  0.15559711603E+00 -0.13887654037E+03  0.14615331241E+03  0.00000000000E+00 0.  1.
<mgrwt>
<rscale>  0 0.92879323E+02</rscale>
<asrwt>0</asrwt>
<pdfrwt beam="2">  1        1 0.54516285E-01 0.92879323E+02</pdfrwt>
<pdfrwt beam="1">  1       -1 0.93632177E-03 0.92879323E+02</pdfrwt>
<totfact> 0.12577225E+05</totfact>
</mgrwt>
</event>
