<event>
 4    1  0.8142558E-001  0.2041171E+03  0.7546771E-02  0.1146311E+00
         -4   -1    0    0    0  501 -0.00000000000E+00  0.00000000000E+00  0.27260607114E+03  0.27260607114E+03  0.00000000000E+00 0.  1.
          4   -1    0    0  502    0  0.00000000000E+00 -0.00000000000E+00 -0.16880306749E+03  0.16880306749E+03  0.00000000000E+00 0. -1.
          6    1    1    2  502    0  0.41895767690E+02  0.99897580455E+02  0.11978210436E+03  0.23666756106E+03  0.17300000000E+03 0.  1.
         -6    1    1    2    0  501 -0.41895767690E+02 -0.99897580455E+02 -0.15979100708E+02  0.20474157758E+03  0.17300000000E+03 0.  1.
<mgrwt>
<rscale>  2 0.20411708E+03</rscale>
<asrwt>0</asrwt>
<pdfrwt beam="2">  1        4 0.25969703E-01 0.20411708E+03</pdfrwt>
<pdfrwt beam="1">  1       -4 0.41939396E-01 0.20411708E+03</pdfrwt>
<totfact> 0.13769889E+02</totfact>
</mgrwt>
</event>
<event>
 4    1  0.8142558E-001  0.1735897E+03  0.7546771E-02  0.1174155E+00
          2   -1    0    0  502    0  0.00000000000E+00  0.00000000000E+00  0.37460139626E+03  0.37460139626E+03  0.00000000000E+00 0. -1.
         -2   -1    0    0    0  501 -0.00000000000E+00 -0.00000000000E+00 -0.86136746972E+02  0.86136746972E+02  0.00000000000E+00 0.  1.
          6    1    1    2  502    0  0.82810573072E+01 -0.11653363149E+02  0.84994571247E+02  0.19328076450E+03  0.17300000000E+03 0.  1.
         -6    1    1    2    0  501 -0.82810573072E+01  0.11653363149E+02  0.20347007805E+03  0.26745737874E+03  0.17300000000E+03 0. -1.
<mgrwt>
<rscale>  2 0.17358968E+03</rscale>
<asrwt>0</asrwt>
<pdfrwt beam="1">  1        2 0.57630983E-01 0.17358968E+03</pdfrwt>
<pdfrwt beam="2">  1       -2 0.13251807E-01 0.17358968E+03</pdfrwt>
<totfact> 0.35275512E+03</totfact>
</mgrwt>
</event>
<event>
 4    1  0.8142558E-001  0.2128028E+03  0.7546771E-02  0.1139365E+00
          1   -1    0    0  502    0  0.00000000000E+00  0.00000000000E+00  0.11057255678E+03  0.11057255678E+03  0.00000000000E+00 0.  1.
         -1   -1    0    0    0  501 -0.00000000000E+00 -0.00000000000E+00 -0.81879175661E+03  0.81879175661E+03  0.00000000000E+00 0. -1.
          6    1    1    2  502    0  0.77080246081E+02  0.97029233626E+02 -0.25591717009E+02  0.21433612037E+03  0.17300000000E+03 0.  1.
         -6    1    1    2    0  501 -0.77080246081E+02 -0.97029233626E+02 -0.68262748282E+03  0.71502819302E+03  0.17300000000E+03 0. -1.
<mgrwt>
<rscale>  2 0.21280281E+03</rscale>
<asrwt>0</asrwt>
<pdfrwt beam="1">  1        1 0.17011163E-01 0.21280281E+03</pdfrwt>
<pdfrwt beam="2">  1       -1 0.12596796E+00 0.21280281E+03</pdfrwt>
<totfact> 0.18739512E+02</totfact>
</mgrwt>
</event>
<event>
 4    1  0.8142558E-001  0.1919698E+03  0.7546771E-02  0.1156697E+00
          4   -1    0    0  502    0  0.00000000000E+00  0.00000000000E+00  0.10164072586E+03  0.10164072586E+03  0.00000000000E+00 0.  1.
         -4   -1    0    0    0  501 -0.00000000000E+00 -0.00000000000E+00 -0.36312888461E+03  0.36312888461E+03  0.00000000000E+00 0. -1.
          6    1    1    2  502    0 -0.83050647012E+02  0.50992967474E+01 -0.13981777674E+03  0.23748983871E+03  0.17300000000E+03 0. -1.
         -6    1    1    2    0  501  0.83050647012E+02 -0.50992967474E+01 -0.12167038201E+03  0.22727977177E+03  0.17300000000E+03 0. -1.
<mgrwt>
<rscale>  2 0.19196982E+03</rscale>
<asrwt>0</asrwt>
<pdfrwt beam="1">  1        4 0.15637035E-01 0.19196982E+03</pdfrwt>
<pdfrwt beam="2">  1       -4 0.55865982E-01 0.19196982E+03</pdfrwt>
<totfact> 0.19085825E+02</totfact>
</mgrwt>
</event>
<event>
 4    1  0.8142558E-001  0.4570655E+03  0.7546771E-02  0.1025636E+00
         -2   -1    0    0    0  501 -0.00000000000E+00  0.00000000000E+00  0.67781220817E+02  0.67781220817E+02  0.00000000000E+00 0.  1.
          2   -1    0    0  502    0  0.00000000000E+00 -0.00000000000E+00 -0.31421602483E+04  0.31421602483E+04  0.00000000000E+00 0. -1.
          6    1    1    2  502    0  0.32977917017E+03 -0.26500115011E+03 -0.13153061986E+04  0.13924580090E+04  0.17300000000E+03 0.  1.
         -6    1    1    2    0  501 -0.32977917017E+03  0.26500115011E+03 -0.17590728288E+04  0.18174834601E+04  0.17300000000E+03 0. -1.
<mgrwt>
<rscale>  2 0.45706554E+03</rscale>
<asrwt>0</asrwt>
<pdfrwt beam="2">  1        2 0.48340925E+00 0.45706554E+03</pdfrwt>
<pdfrwt beam="1">  1       -2 0.10427881E-01 0.45706554E+03</pdfrwt>
<totfact> 0.10099564E+02</totfact>
</mgrwt>
</event>
<event>
 4    1  0.8142558E-001  0.3444980E+03  0.7546771E-02  0.1064896E+00
          2   -1    0    0  502    0  0.00000000000E+00  0.00000000000E+00  0.73978437011E+03  0.73978437011E+03  0.00000000000E+00 0. -1.
         -2   -1    0    0    0  501 -0.00000000000E+00 -0.00000000000E+00 -0.16191245284E+03  0.16191245284E+03  0.00000000000E+00 0.  1.
          6    1    1    2  502    0 -0.27250670256E+03 -0.12037430741E+03  0.24570296294E+03  0.42314161084E+03  0.17300000000E+03 0. -1.
         -6    1    1    2    0  501  0.27250670256E+03  0.12037430741E+03  0.33216895432E+03  0.47855521211E+03  0.17300000000E+03 0. -1.
<mgrwt>
<rscale>  2 0.34449801E+03</rscale>
<asrwt>0</asrwt>
<pdfrwt beam="1">  1        2 0.11381298E+00 0.34449801E+03</pdfrwt>
<pdfrwt beam="2">  1       -2 0.24909609E-01 0.34449801E+03</pdfrwt>
<totfact> 0.56115152E+02</totfact>
</mgrwt>
</event>
<event>
 4    1  0.8142558E-001  0.2445757E+03  0.7546771E-02  0.1116782E+00
          1   -1    0    0  502    0  0.00000000000E+00  0.00000000000E+00  0.22250714028E+03  0.22250714028E+03  0.00000000000E+00 0.  1.
         -1   -1    0    0    0  501 -0.00000000000E+00 -0.00000000000E+00 -0.33549741774E+03  0.33549741774E+03  0.00000000000E+00 0. -1.
          6    1    1    2  502    0 -0.91998893433E+02  0.14637106036E+03  0.67873215663E+02  0.25381894552E+03  0.17300000000E+03 0.  1.
         -6    1    1    2    0  501  0.91998893433E+02 -0.14637106036E+03 -0.18086349313E+03  0.30418561250E+03  0.17300000000E+03 0. -1.
<mgrwt>
<rscale>  2 0.24457572E+03</rscale>
<asrwt>0</asrwt>
<pdfrwt beam="1">  1        1 0.34231868E-01 0.24457572E+03</pdfrwt>
<pdfrwt beam="2">  1       -1 0.51614987E-01 0.24457572E+03</pdfrwt>
<totfact> 0.49806063E+02</totfact>
</mgrwt>
</event>
<event>
 4    1  0.8142558E-001  0.3134163E+03  0.7546771E-02  0.1078720E+00
         -2   -1    0    0    0  501 -0.00000000000E+00  0.00000000000E+00  0.87259257308E+03  0.87259257308E+03  0.00000000000E+00 0. -1.
          2   -1    0    0  502    0  0.00000000000E+00 -0.00000000000E+00 -0.11342437386E+03  0.11342437386E+03  0.00000000000E+00 0.  1.
          6    1    1    2  502    0  0.77440487395E+02  0.24960713059E+03  0.42231490034E+03  0.52590837965E+03  0.17300000000E+03 0.  1.
         -6    1    1    2    0  501 -0.77440487395E+02 -0.24960713059E+03  0.33685329888E+03  0.46010856729E+03  0.17300000000E+03 0. -1.
<mgrwt>
<rscale>  2 0.31341625E+03</rscale>
<asrwt>0</asrwt>
<pdfrwt beam="2">  1        2 0.17449904E-01 0.31341625E+03</pdfrwt>
<pdfrwt beam="1">  1       -2 0.13424501E+00 0.31341625E+03</pdfrwt>
<totfact> 0.13724646E+02</totfact>
</mgrwt>
</event>
<event>
 4    1  0.8142558E-001  0.2249482E+03  0.7546771E-02  0.1130247E+00
          1   -1    0    0  502    0  0.00000000000E+00  0.00000000000E+00  0.24486462513E+03  0.24486462513E+03  0.00000000000E+00 0. -1.
         -1   -1    0    0    0  501 -0.00000000000E+00 -0.00000000000E+00 -0.38099456012E+03  0.38099456012E+03  0.00000000000E+00 0.  1.
          6    1    1    2  502    0  0.70595551820E+02 -0.12525550911E+03  0.14361970580E+03  0.26688629488E+03  0.17300000000E+03 0. -1.
         -6    1    1    2    0  501 -0.70595551820E+02  0.12525550911E+03 -0.27974964079E+03  0.35897289037E+03  0.17300000000E+03 0.  1.
<mgrwt>
<rscale>  2 0.22494816E+03</rscale>
<asrwt>0</asrwt>
<pdfrwt beam="1">  1        1 0.37671481E-01 0.22494816E+03</pdfrwt>
<pdfrwt beam="2">  1       -1 0.58614548E-01 0.22494816E+03</pdfrwt>
<totfact> 0.34764105E+02</totfact>
</mgrwt>
</event>
<event>
 4    1  0.8142558E-001  0.1890279E+03  0.7546771E-02  0.1159341E+00
          2   -1    0    0  502    0  0.00000000000E+00  0.00000000000E+00  0.55964961464E+03  0.55964961464E+03  0.00000000000E+00 0. -1.
         -2   -1    0    0    0  501 -0.00000000000E+00 -0.00000000000E+00 -0.70188312057E+02  0.70188312057E+02  0.00000000000E+00 0.  1.
          6    1    1    2  502    0  0.76380373624E+00  0.76170595320E+02  0.15006753120E+03  0.24135411103E+03  0.17300000000E+03 0.  1.
         -6    1    1    2    0  501 -0.76380373624E+00 -0.76170595320E+02  0.33939377138E+03  0.38848381567E+03  0.17300000000E+03 0. -1.
<mgrwt>
<rscale>  2 0.18902789E+03</rscale>
<asrwt>0</asrwt>
<pdfrwt beam="1">  1        2 0.86099938E-01 0.18902789E+03</pdfrwt>
<pdfrwt beam="2">  1       -2 0.10798202E-01 0.18902789E+03</pdfrwt>
<totfact> 0.31646683E+03</totfact>
</mgrwt>
</event>
<event>
 4    1  0.8142558E-001  0.2293717E+03  0.7546771E-02  0.1127083E+00
          1   -1    0    0  502    0  0.00000000000E+00  0.00000000000E+00  0.68185383286E+03  0.68185383286E+03  0.00000000000E+00 0. -1.
         -1   -1    0    0    0  501 -0.00000000000E+00 -0.00000000000E+00 -0.98767706243E+02  0.98767706243E+02  0.00000000000E+00 0.  1.
          6    1    1    2  502    0 -0.14949531587E+03 -0.18263239948E+02  0.10897955941E+03  0.25394475732E+03  0.17300000000E+03 0.  1.
         -6    1    1    2    0  501  0.14949531587E+03  0.18263239948E+02  0.47410656721E+03  0.52667678178E+03  0.17300000000E+03 0. -1.
<mgrwt>
<rscale>  2 0.22937174E+03</rscale>
<asrwt>0</asrwt>
<pdfrwt beam="1">  1        1 0.10490059E+00 0.22937174E+03</pdfrwt>
<pdfrwt beam="2">  1       -1 0.15195032E-01 0.22937174E+03</pdfrwt>
<totfact> 0.92478701E+02</totfact>
</mgrwt>
</event>
<event>
 4    1  0.8142558E-001  0.1771084E+03  0.7546771E-02  0.1170631E+00
         -2   -1    0    0    0  501 -0.00000000000E+00  0.00000000000E+00  0.70232268028E+02  0.70232268028E+02  0.00000000000E+00 0. -1.
          2   -1    0    0  502    0  0.00000000000E+00 -0.00000000000E+00 -0.56538573251E+03  0.56538573251E+03  0.00000000000E+00 0.  1.
          6    1    1    2  502    0 -0.29586411760E+02  0.23728111826E+02 -0.39323428409E+03  0.43127784691E+03  0.17300000000E+03 0.  1.
         -6    1    1    2    0  501  0.29586411760E+02 -0.23728111826E+02 -0.10191918039E+03  0.20434015362E+03  0.17300000000E+03 0. -1.
<mgrwt>
<rscale>  2 0.17710838E+03</rscale>
<asrwt>0</asrwt>
<pdfrwt beam="2">  1        2 0.86982416E-01 0.17710838E+03</pdfrwt>
<pdfrwt beam="1">  1       -2 0.10804965E-01 0.17710838E+03</pdfrwt>
<totfact> 0.31183758E+03</totfact>
</mgrwt>
</event>
<event>
 4    1  0.8142558E-001  0.2325530E+03  0.7546771E-02  0.1124856E+00
         -2   -1    0    0    0  501 -0.00000000000E+00  0.00000000000E+00  0.19840138143E+03  0.19840138143E+03  0.00000000000E+00 0.  1.
          2   -1    0    0  502    0  0.00000000000E+00 -0.00000000000E+00 -0.27379645555E+03  0.27379645555E+03  0.00000000000E+00 0. -1.
          6    1    1    2  502    0 -0.12632044527E+03 -0.90526524440E+02 -0.53413297629E+02  0.23860822887E+03  0.17300000000E+03 0.  1.
         -6    1    1    2    0  501  0.12632044527E+03  0.90526524440E+02 -0.21981776485E+02  0.23358960811E+03  0.17300000000E+03 0. -1.
<mgrwt>
<rscale>  2 0.23255302E+03</rscale>
<asrwt>0</asrwt>
<pdfrwt beam="2">  1        2 0.42122532E-01 0.23255302E+03</pdfrwt>
<pdfrwt beam="1">  1       -2 0.30523290E-01 0.23255302E+03</pdfrwt>
<totfact> 0.11937563E+03</totfact>
</mgrwt>
</event>
<event>
 4    1  0.8142558E-001  0.2415866E+03  0.7546771E-02  0.1118740E+00
          2   -1    0    0  502    0  0.00000000000E+00  0.00000000000E+00  0.16699219531E+04  0.16699219531E+04  0.00000000000E+00 0. -1.
         -2   -1    0    0    0  501 -0.00000000000E+00 -0.00000000000E+00 -0.43028474900E+02  0.43028474900E+02  0.00000000000E+00 0.  1.
          6    1    1    2  502    0  0.70253016172E+02 -0.15329585367E+03  0.11845511839E+04  0.12089357354E+04  0.17300000000E+03 0.  1.
         -6    1    1    2    0  501 -0.70253016172E+02  0.15329585367E+03  0.44234229428E+03  0.50401469258E+03  0.17300000000E+03 0. -1.
<mgrwt>
<rscale>  2 0.24158664E+03</rscale>
<asrwt>0</asrwt>
<pdfrwt beam="1">  1        2 0.25691102E+00 0.24158664E+03</pdfrwt>
<pdfrwt beam="2">  1       -2 0.66197666E-02 0.24158664E+03</pdfrwt>
<totfact> 0.14119949E+03</totfact>
</mgrwt>
</event>
<event>
 4    1  0.8142558E-001  0.1988539E+03  0.7546771E-02  0.1150710E+00
          2   -1    0    0  502    0  0.00000000000E+00  0.00000000000E+00  0.37747551706E+03  0.37747551706E+03  0.00000000000E+00 0.  1.
         -2   -1    0    0    0  501 -0.00000000000E+00 -0.00000000000E+00 -0.10810414169E+03  0.10810414169E+03  0.00000000000E+00 0. -1.
          6    1    1    2  502    0  0.30491049714E+02  0.93188944628E+02  0.91958802873E+02  0.21908743674E+03  0.17300000000E+03 0. -1.
         -6    1    1    2    0  501 -0.30491049714E+02 -0.93188944628E+02  0.17741257250E+03  0.26649222201E+03  0.17300000000E+03 0.  1.
<mgrwt>
<rscale>  2 0.19885393E+03</rscale>
<asrwt>0</asrwt>
<pdfrwt beam="1">  1        2 0.58073156E-01 0.19885393E+03</pdfrwt>
<pdfrwt beam="2">  1       -2 0.16631407E-01 0.19885393E+03</pdfrwt>
<totfact> 0.24202743E+03</totfact>
</mgrwt>
</event>
<event>
 4    1  0.8142558E-001  0.2341223E+03  0.7546771E-02  0.1123771E+00
         -2   -1    0    0    0  501 -0.00000000000E+00  0.00000000000E+00  0.43039378321E+03  0.43039378321E+03  0.00000000000E+00 0. -1.
          2   -1    0    0  502    0  0.00000000000E+00 -0.00000000000E+00 -0.22779474027E+03  0.22779474027E+03  0.00000000000E+00 0.  1.
          6    1    1    2  502    0  0.15521084208E+03  0.28175615590E+02  0.31982339518E+03  0.39635877045E+03  0.17300000000E+03 0. -1.
         -6    1    1    2    0  501 -0.15521084208E+03 -0.28175615590E+02 -0.11722435224E+03  0.26182975303E+03  0.17300000000E+03 0.  1.
<mgrwt>
<rscale>  2 0.23412234E+03</rscale>
<asrwt>0</asrwt>
<pdfrwt beam="2">  1        2 0.35045345E-01 0.23412234E+03</pdfrwt>
<pdfrwt beam="1">  1       -2 0.66214428E-01 0.23412234E+03</pdfrwt>
<totfact> 0.31921993E+02</totfact>
</mgrwt>
</event>
<event>
 4    1  0.8142558E-001  0.4048084E+03  0.7546771E-02  0.1042127E+00
         -1   -1    0    0    0  501 -0.00000000000E+00  0.00000000000E+00  0.30550376287E+03  0.30550376287E+03  0.00000000000E+00 0. -1.
          1   -1    0    0  502    0  0.00000000000E+00 -0.00000000000E+00 -0.53868970801E+03  0.53868970801E+03  0.00000000000E+00 0.  1.
          6    1    1    2  502    0 -0.22816226629E+03  0.28615173167E+03 -0.89027093594E+02  0.41448239612E+03  0.17300000000E+03 0. -1.
         -6    1    1    2    0  501  0.22816226629E+03 -0.28615173167E+03 -0.14415885155E+03  0.42971107476E+03  0.17300000000E+03 0.  1.
<mgrwt>
<rscale>  2 0.40480839E+03</rscale>
<asrwt>0</asrwt>
<pdfrwt beam="2">  1        1 0.82875339E-01 0.40480839E+03</pdfrwt>
<pdfrwt beam="1">  1       -1 0.47000579E-01 0.40480839E+03</pdfrwt>
<totfact> 0.18722807E+02</totfact>
</mgrwt>
</event>
<event>
 4    1  0.8142558E-001  0.1767548E+03  0.7546771E-02  0.1170981E+00
         -1   -1    0    0    0  501 -0.00000000000E+00  0.00000000000E+00  0.10574283474E+04  0.10574283474E+04  0.00000000000E+00 0. -1.
          1   -1    0    0  502    0  0.00000000000E+00 -0.00000000000E+00 -0.44037515028E+02  0.44037515028E+02  0.00000000000E+00 0.  1.
          6    1    1    2  502    0  0.11381024696E+02 -0.34405378819E+02  0.19076320279E+03  0.26006317954E+03  0.17300000000E+03 0.  1.
         -6    1    1    2    0  501 -0.11381024696E+02  0.34405378819E+02  0.82262762955E+03  0.84140268285E+03  0.17300000000E+03 0. -1.
<mgrwt>
<rscale>  2 0.17675480E+03</rscale>
<asrwt>0</asrwt>
<pdfrwt beam="2">  1        1 0.67750031E-02 0.17675480E+03</pdfrwt>
<pdfrwt beam="1">  1       -1 0.16268127E+00 0.17675480E+03</pdfrwt>
<totfact> 0.33297439E+02</totfact>
</mgrwt>
</event>
<event>
 4    1  0.8142558E-001  0.1964372E+03  0.7546771E-02  0.1152780E+00
         -2   -1    0    0    0  501 -0.00000000000E+00  0.00000000000E+00  0.32372951743E+03  0.32372951743E+03  0.00000000000E+00 0. -1.
          2   -1    0    0  502    0  0.00000000000E+00 -0.00000000000E+00 -0.13137172574E+03  0.13137172574E+03  0.00000000000E+00 0.  1.
          6    1    1    2  502    0  0.50846263416E+01  0.92912449049E+02  0.26906971024E+02  0.19827143441E+03  0.17300000000E+03 0.  1.
         -6    1    1    2    0  501 -0.50846263416E+01 -0.92912449049E+02  0.16545082067E+03  0.25682980877E+03  0.17300000000E+03 0. -1.
<mgrwt>
<rscale>  2 0.19643721E+03</rscale>
<asrwt>0</asrwt>
<pdfrwt beam="2">  1        2 0.20211035E-01 0.19643721E+03</pdfrwt>
<pdfrwt beam="1">  1       -2 0.49804541E-01 0.19643721E+03</pdfrwt>
<totfact> 0.10541111E+03</totfact>
</mgrwt>
</event>
<event>
 4    1  0.8142558E-001  0.2043638E+03  0.7546771E-02  0.1146109E+00
         -2   -1    0    0    0  501 -0.00000000000E+00  0.00000000000E+00  0.18485887731E+02  0.18485887731E+02  0.00000000000E+00 0.  1.
          2   -1    0    0  502    0  0.00000000000E+00 -0.00000000000E+00 -0.26124734893E+04  0.26124734893E+04  0.00000000000E+00 0. -1.
          6    1    1    2  502    0 -0.10870937625E+03  0.42242626757E+01 -0.17806892265E+04  0.17923779440E+04  0.17300000000E+03 0. -1.
         -6    1    1    2    0  501  0.10870937625E+03 -0.42242626757E+01 -0.81329837508E+03  0.83858143301E+03  0.17300000000E+03 0.  1.
<mgrwt>
<rscale>  2 0.20436382E+03</rscale>
<asrwt>0</asrwt>
<pdfrwt beam="2">  1        2 0.40191904E+00 0.20436382E+03</pdfrwt>
<pdfrwt beam="1">  1       -2 0.28439824E-02 0.20436382E+03</pdfrwt>
<totfact> 0.16081902E+03</totfact>
</mgrwt>
</event>
<event>
 4    1  0.8142558E-001  0.1945606E+03  0.7546771E-02  0.1154411E+00
          2   -1    0    0  502    0  0.00000000000E+00  0.00000000000E+00  0.64985056855E+03  0.64985056855E+03  0.00000000000E+00 0.  1.
         -2   -1    0    0    0  501 -0.00000000000E+00 -0.00000000000E+00 -0.63191007596E+02  0.63191007596E+02  0.00000000000E+00 0. -1.
          6    1    1    2  502    0 -0.88741294937E+02 -0.70569429897E+01  0.19363705403E+03  0.27449795366E+03  0.17300000000E+03 0. -1.
         -6    1    1    2    0  501  0.88741294937E+02  0.70569429897E+01  0.39302250692E+03  0.43854362248E+03  0.17300000000E+03 0.  1.
<mgrwt>
<rscale>  2 0.19456058E+03</rscale>
<asrwt>0</asrwt>
<pdfrwt beam="1">  1        2 0.99977006E-01 0.19456058E+03</pdfrwt>
<pdfrwt beam="2">  1       -2 0.97216939E-02 0.19456058E+03</pdfrwt>
<totfact> 0.31488188E+03</totfact>
</mgrwt>
</event>
<event>
 4    1  0.8142558E-001  0.1747554E+03  0.7546771E-02  0.1172978E+00
         -1   -1    0    0    0  501 -0.00000000000E+00  0.00000000000E+00  0.24968108054E+02  0.24968108054E+02  0.00000000000E+00 0.  1.
          1   -1    0    0  502    0  0.00000000000E+00 -0.00000000000E+00 -0.15078432290E+04  0.15078432290E+04  0.00000000000E+00 0. -1.
          6    1    1    2  502    0 -0.96623187437E+01  0.22739431593E+02 -0.40841142123E+03  0.44422891750E+03  0.17300000000E+03 0.  1.
         -6    1    1    2    0  501  0.96623187437E+01 -0.22739431593E+02 -0.10744636997E+04  0.10885824196E+04  0.17300000000E+03 0. -1.
<mgrwt>
<rscale>  2 0.17475538E+03</rscale>
<asrwt>0</asrwt>
<pdfrwt beam="2">  1        1 0.23197584E+00 0.17475538E+03</pdfrwt>
<pdfrwt beam="1">  1       -1 0.38412481E-02 0.17475538E+03</pdfrwt>
<totfact> 0.18488794E+03</totfact>
</mgrwt>
</event>
<event>
 4    1  0.8142558E-001  0.2197624E+03  0.7546771E-02  0.1134060E+00
          2   -1    0    0  502    0  0.00000000000E+00  0.00000000000E+00  0.59578556132E+03  0.59578556132E+03  0.00000000000E+00 0.  1.
         -2   -1    0    0    0  501 -0.00000000000E+00 -0.00000000000E+00 -0.81489664335E+02  0.81489664335E+02  0.00000000000E+00 0. -1.
          6    1    1    2  502    0  0.99585058713E+02  0.91920125366E+02  0.28168373825E+03  0.35726911672E+03  0.17300000000E+03 0.  1.
         -6    1    1    2    0  501 -0.99585058713E+02 -0.91920125366E+02  0.23261215874E+03  0.32000610894E+03  0.17300000000E+03 0. -1.
<mgrwt>
<rscale>  2 0.21976236E+03</rscale>
<asrwt>0</asrwt>
<pdfrwt beam="1">  1        2 0.91659314E-01 0.21976236E+03</pdfrwt>
<pdfrwt beam="2">  1       -2 0.12536872E-01 0.21976236E+03</pdfrwt>
<totfact> 0.23267790E+03</totfact>
</mgrwt>
</event>
<event>
 4    1  0.8142558E-001  0.1765545E+03  0.7546771E-02  0.1171180E+00
          2   -1    0    0  502    0  0.00000000000E+00  0.00000000000E+00  0.10416360023E+04  0.10416360023E+04  0.00000000000E+00 0. -1.
         -2   -1    0    0    0  501 -0.00000000000E+00 -0.00000000000E+00 -0.29929082880E+02  0.29929082880E+02  0.00000000000E+00 0.  1.
          6    1    1    2  502    0  0.10677487863E+02  0.33592791348E+02  0.49999616000E+03  0.53025243459E+03  0.17300000000E+03 0.  1.
         -6    1    1    2    0  501 -0.10677487863E+02 -0.33592791348E+02  0.51171075940E+03  0.54131265056E+03  0.17300000000E+03 0.  1.
<mgrwt>
<rscale>  2 0.17655448E+03</rscale>
<asrwt>0</asrwt>
<pdfrwt beam="1">  1        2 0.16025167E+00 0.17655448E+03</pdfrwt>
<pdfrwt beam="2">  1       -2 0.46044751E-02 0.17655448E+03</pdfrwt>
<totfact> 0.54153597E+03</totfact>
</mgrwt>
</event>
<event>
 4    1  0.8142558E-001  0.1962179E+03  0.7546771E-02  0.1152970E+00
          3   -1    0    0  502    0  0.00000000000E+00  0.00000000000E+00  0.30205078762E+03  0.30205078762E+03  0.00000000000E+00 0. -1.
         -3   -1    0    0    0  501 -0.00000000000E+00 -0.00000000000E+00 -0.12912147998E+03  0.12912147998E+03  0.00000000000E+00 0.  1.
          6    1    1    2  502    0 -0.17066414476E+02 -0.91001006135E+02  0.11086968281E+03  0.22537420479E+03  0.17300000000E+03 0. -1.
         -6    1    1    2    0  501  0.17066414476E+02  0.91001006135E+02  0.62059624831E+02  0.20579806281E+03  0.17300000000E+03 0.  1.
<mgrwt>
<rscale>  2 0.19621785E+03</rscale>
<asrwt>0</asrwt>
<pdfrwt beam="1">  1        3 0.46469352E-01 0.19621785E+03</pdfrwt>
<pdfrwt beam="2">  1       -3 0.19864843E-01 0.19621785E+03</pdfrwt>
<totfact> 0.25614116E+02</totfact>
</mgrwt>
</event>
<event>
 4    1  0.8142558E-001  0.2186717E+03  0.7546771E-02  0.1134877E+00
         -2   -1    0    0    0  501 -0.00000000000E+00  0.00000000000E+00  0.26523616214E+02  0.26523616214E+02  0.00000000000E+00 0.  1.
          2   -1    0    0  502    0  0.00000000000E+00 -0.00000000000E+00 -0.18089344986E+04  0.18089344986E+04  0.00000000000E+00 0. -1.
          6    1    1    2  502    0 -0.12439329341E+03  0.49138801251E+02 -0.83785063950E+03  0.86591628195E+03  0.17300000000E+03 0.  1.
         -6    1    1    2    0  501  0.12439329341E+03 -0.49138801251E+02 -0.94456024292E+03  0.96954183290E+03  0.17300000000E+03 0.  1.
<mgrwt>
<rscale>  2 0.21867170E+03</rscale>
<asrwt>0</asrwt>
<pdfrwt beam="2">  1        2 0.27829760E+00 0.21867170E+03</pdfrwt>
<pdfrwt beam="1">  1       -2 0.40805566E-02 0.21867170E+03</pdfrwt>
<totfact> 0.24995742E+03</totfact>
</mgrwt>
</event>
<event>
 4    1  0.8142558E-001  0.2577980E+03  0.7546771E-02  0.1108473E+00
         -2   -1    0    0    0  501 -0.00000000000E+00  0.00000000000E+00  0.87441602829E+02  0.87441602829E+02  0.00000000000E+00 0.  1.
          2   -1    0    0  502    0  0.00000000000E+00 -0.00000000000E+00 -0.12596885236E+04  0.12596885236E+04  0.00000000000E+00 0. -1.
          6    1    1    2  502    0 -0.42913958176E+01 -0.19108219373E+03 -0.16191749973E+03  0.30442913388E+03  0.17300000000E+03 0.  1.
         -6    1    1    2    0  501  0.42913958176E+01  0.19108219373E+03 -0.10103294211E+04  0.10427009926E+04  0.17300000000E+03 0. -1.
<mgrwt>
<rscale>  2 0.25779802E+03</rscale>
<asrwt>0</asrwt>
<pdfrwt beam="2">  1        2 0.19379822E+00 0.25779802E+03</pdfrwt>
<pdfrwt beam="1">  1       -2 0.13452555E-01 0.25779802E+03</pdfrwt>
<totfact> 0.76089040E+02</totfact>
</mgrwt>
</event>
<event>
 4    1  0.8142558E-001  0.2005818E+03  0.7546771E-02  0.1149249E+00
         -1   -1    0    0    0  501 -0.00000000000E+00  0.00000000000E+00  0.31698559229E+03  0.31698559229E+03  0.00000000000E+00 0.  1.
          1   -1    0    0  502    0  0.00000000000E+00 -0.00000000000E+00 -0.12703907500E+03  0.12703907500E+03  0.00000000000E+00 0. -1.
          6    1    1    2  502    0  0.78208790665E+02  0.64710454355E+02  0.88289407993E+02  0.21915309125E+03  0.17300000000E+03 0. -1.
         -6    1    1    2    0  501 -0.78208790665E+02 -0.64710454355E+02  0.10165710929E+03  0.22487157604E+03  0.17300000000E+03 0. -1.
<mgrwt>
<rscale>  2 0.20058180E+03</rscale>
<asrwt>0</asrwt>
<pdfrwt beam="2">  1        1 0.19544473E-01 0.20058180E+03</pdfrwt>
<pdfrwt beam="1">  1       -1 0.48767014E-01 0.20058180E+03</pdfrwt>
<totfact> 0.11264456E+03</totfact>
</mgrwt>
</event>
<event>
 4    1  0.8142558E-001  0.2068545E+03  0.7546771E-02  0.1144081E+00
          1   -1    0    0  502    0  0.00000000000E+00  0.00000000000E+00  0.98871224477E+02  0.98871224477E+02  0.00000000000E+00 0. -1.
         -1   -1    0    0    0  501 -0.00000000000E+00 -0.00000000000E+00 -0.88073421670E+03  0.88073421670E+03  0.00000000000E+00 0.  1.
          6    1    1    2  502    0 -0.53245395606E+02  0.10012350636E+03 -0.74024791909E+03  0.76860638196E+03  0.17300000000E+03 0.  1.
         -6    1    1    2    0  501  0.53245395606E+02 -0.10012350636E+03 -0.41615073139E+02  0.21099905922E+03  0.17300000000E+03 0. -1.
<mgrwt>
<rscale>  2 0.20685451E+03</rscale>
<asrwt>0</asrwt>
<pdfrwt beam="1">  1        1 0.15210958E-01 0.20685451E+03</pdfrwt>
<pdfrwt beam="2">  1       -1 0.13549757E+00 0.20685451E+03</pdfrwt>
<totfact> 0.18138182E+02</totfact>
</mgrwt>
</event>
<event>
 4    1  0.8142558E-001  0.1899547E+03  0.7546771E-02  0.1158502E+00
         -2   -1    0    0    0  501 -0.00000000000E+00  0.00000000000E+00  0.48994976051E+02  0.48994976051E+02  0.00000000000E+00 0. -1.
          2   -1    0    0  502    0  0.00000000000E+00 -0.00000000000E+00 -0.79938996033E+03  0.79938996033E+03  0.00000000000E+00 0.  1.
          6    1    1    2  502    0  0.42656595582E+02  0.65834668019E+02 -0.25617858520E+03  0.31892045430E+03  0.17300000000E+03 0. -1.
         -6    1    1    2    0  501 -0.42656595582E+02 -0.65834668019E+02 -0.49421639908E+03  0.52946448207E+03  0.17300000000E+03 0.  1.
<mgrwt>
<rscale>  2 0.18995470E+03</rscale>
<asrwt>0</asrwt>
<pdfrwt beam="2">  1        2 0.12298308E+00 0.18995470E+03</pdfrwt>
<pdfrwt beam="1">  1       -2 0.75376883E-02 0.18995470E+03</pdfrwt>
<totfact> 0.36421386E+03</totfact>
</mgrwt>
</event>
<event>
 4    1  0.8142558E-001  0.1917100E+03  0.7546771E-02  0.1156928E+00
          2   -1    0    0  502    0  0.00000000000E+00  0.00000000000E+00  0.11085330943E+03  0.11085330943E+03  0.00000000000E+00 0.  1.
         -2   -1    0    0    0  501 -0.00000000000E+00 -0.00000000000E+00 -0.33341447183E+03  0.33341447183E+03  0.00000000000E+00 0. -1.
          6    1    1    2  502    0  0.82529664288E+02  0.35457545417E+01 -0.94641419455E+02  0.21379830715E+03  0.17300000000E+03 0. -1.
         -6    1    1    2    0  501 -0.82529664288E+02 -0.35457545417E+01 -0.12791974295E+03  0.23046947411E+03  0.17300000000E+03 0.  1.
<mgrwt>
<rscale>  2 0.19170998E+03</rscale>
<asrwt>0</asrwt>
<pdfrwt beam="1">  1        2 0.17054356E-01 0.19170998E+03</pdfrwt>
<pdfrwt beam="2">  1       -2 0.51294533E-01 0.19170998E+03</pdfrwt>
<totfact> 0.12079754E+03</totfact>
</mgrwt>
</event>
<event>
 4    1  0.8142558E-001  0.2281684E+03  0.7546771E-02  0.1127936E+00
         -1   -1    0    0    0  501 -0.00000000000E+00  0.00000000000E+00  0.52209997428E+03  0.52209997428E+03  0.00000000000E+00 0. -1.
          1   -1    0    0  502    0  0.00000000000E+00 -0.00000000000E+00 -0.15832884528E+03  0.15832884528E+03  0.00000000000E+00 0.  1.
          6    1    1    2  502    0 -0.49872013790E+01 -0.14868407617E+03  0.38888798809E+03  0.45088212868E+03  0.17300000000E+03 0. -1.
         -6    1    1    2    0  501  0.49872013790E+01  0.14868407617E+03 -0.25116859095E+02  0.22954669088E+03  0.17300000000E+03 0.  1.
<mgrwt>
<rscale>  2 0.22816842E+03</rscale>
<asrwt>0</asrwt>
<pdfrwt beam="2">  1        1 0.24358284E-01 0.22816842E+03</pdfrwt>
<pdfrwt beam="1">  1       -1 0.80323072E-01 0.22816842E+03</pdfrwt>
<totfact> 0.32219503E+02</totfact>
</mgrwt>
</event>
<event>
 4    1  0.8142558E-001  0.2142032E+03  0.7546771E-02  0.1138280E+00
         -2   -1    0    0    0  501 -0.00000000000E+00  0.00000000000E+00  0.52714848104E+02  0.52714848104E+02  0.00000000000E+00 0.  1.
          2   -1    0    0  502    0  0.00000000000E+00 -0.00000000000E+00 -0.90555559469E+03  0.90555559469E+03  0.00000000000E+00 0. -1.
          6    1    1    2  502    0  0.20888054548E+02  0.12457008081E+03 -0.52082566719E+03  0.56315396781E+03  0.17300000000E+03 0. -1.
         -6    1    1    2    0  501 -0.20888054548E+02 -0.12457008081E+03 -0.33201507939E+03  0.39511647498E+03  0.17300000000E+03 0. -1.
<mgrwt>
<rscale>  2 0.21420321E+03</rscale>
<asrwt>0</asrwt>
<pdfrwt beam="2">  1        2 0.13931624E+00 0.21420321E+03</pdfrwt>
<pdfrwt beam="1">  1       -2 0.81099771E-02 0.21420321E+03</pdfrwt>
<totfact> 0.27724508E+03</totfact>
</mgrwt>
</event>
<event>
 4    1  0.8142558E-001  0.1862326E+03  0.7546771E-02  0.1161904E+00
         -2   -1    0    0    0  501 -0.00000000000E+00  0.00000000000E+00  0.38100674147E+02  0.38100674147E+02  0.00000000000E+00 0. -1.
          2   -1    0    0  502    0  0.00000000000E+00 -0.00000000000E+00 -0.14388717071E+04  0.14388717071E+04  0.00000000000E+00 0.  1.
          6    1    1    2  502    0  0.50995801531E+02 -0.46400621935E+02 -0.11479835766E+04  0.11629913507E+04  0.17300000000E+03 0.  1.
         -6    1    1    2    0  501 -0.50995801531E+02  0.46400621935E+02 -0.25278745626E+03  0.31398103053E+03  0.17300000000E+03 0. -1.
<mgrwt>
<rscale>  2 0.18623262E+03</rscale>
<asrwt>0</asrwt>
<pdfrwt beam="2">  1        2 0.22136483E+00 0.18623262E+03</pdfrwt>
<pdfrwt beam="1">  1       -2 0.58616434E-02 0.18623262E+03</pdfrwt>
<totfact> 0.22589472E+03</totfact>
</mgrwt>
</event>
<event>
 4    1  0.8142558E-001  0.1796639E+03  0.7546771E-02  0.1168129E+00
         -2   -1    0    0    0  501 -0.00000000000E+00  0.00000000000E+00  0.19180317390E+02  0.19180317390E+02  0.00000000000E+00 0.  1.
          2   -1    0    0  502    0  0.00000000000E+00 -0.00000000000E+00 -0.18429294563E+04  0.18429294563E+04  0.00000000000E+00 0. -1.
          6    1    1    2  502    0  0.44738989127E+02  0.18669365098E+02 -0.63753981342E+03  0.66237159966E+03  0.17300000000E+03 0.  1.
         -6    1    1    2    0  501 -0.44738989127E+02 -0.18669365098E+02 -0.11862093255E+04  0.11997381740E+04  0.17300000000E+03 0. -1.
<mgrwt>
<rscale>  2 0.17966391E+03</rscale>
<asrwt>0</asrwt>
<pdfrwt beam="2">  1        2 0.28352754E+00 0.17966391E+03</pdfrwt>
<pdfrwt beam="1">  1       -2 0.29508187E-02 0.17966391E+03</pdfrwt>
<totfact> 0.38921314E+03</totfact>
</mgrwt>
</event>
<event>
 4    1  0.8142558E-001  0.1957381E+03  0.7546771E-02  0.1153385E+00
          2   -1    0    0  502    0  0.00000000000E+00  0.00000000000E+00  0.76590563744E+03  0.76590563744E+03  0.00000000000E+00 0.  1.
         -2   -1    0    0    0  501 -0.00000000000E+00 -0.00000000000E+00 -0.61287251085E+02  0.61287251085E+02  0.00000000000E+00 0. -1.
          6    1    1    2  502    0  0.63584650546E+02  0.65889138113E+02  0.17500027169E+03  0.26256138596E+03  0.17300000000E+03 0. -1.
         -6    1    1    2    0  501 -0.63584650546E+02 -0.65889138113E+02  0.52961811467E+03  0.56463150257E+03  0.17300000000E+03 0.  1.
<mgrwt>
<rscale>  2 0.19573806E+03</rscale>
<asrwt>0</asrwt>
<pdfrwt beam="1">  1        2 0.11783163E+00 0.19573806E+03</pdfrwt>
<pdfrwt beam="2">  1       -2 0.94288084E-02 0.19573806E+03</pdfrwt>
<totfact> 0.27099002E+03</totfact>
</mgrwt>
</event>
<event>
 4    1  0.8142558E-001  0.1806726E+03  0.7546771E-02  0.1167154E+00
         -1   -1    0    0    0  501 -0.00000000000E+00  0.00000000000E+00  0.67748213452E+02  0.67748213452E+02  0.00000000000E+00 0. -1.
          1   -1    0    0  502    0  0.00000000000E+00 -0.00000000000E+00 -0.82747357707E+03  0.82747357707E+03  0.00000000000E+00 0.  1.
          6    1    1    2  502    0  0.34890320735E+00 -0.52090923737E+02 -0.66915892509E+03  0.69312066272E+03  0.17300000000E+03 0.  1.
         -6    1    1    2    0  501 -0.34890320735E+00  0.52090923737E+02 -0.90566438530E+02  0.20210112780E+03  0.17300000000E+03 0. -1.
<mgrwt>
<rscale>  2 0.18067259E+03</rscale>
<asrwt>0</asrwt>
<pdfrwt beam="2">  1        1 0.12730363E+00 0.18067259E+03</pdfrwt>
<pdfrwt beam="1">  1       -1 0.10422802E-01 0.18067259E+03</pdfrwt>
<totfact> 0.12490090E+03</totfact>
</mgrwt>
</event>
<event>
 4    1  0.8142558E-001  0.3938017E+03  0.7546771E-02  0.1045947E+00
         -1   -1    0    0    0  501 -0.00000000000E+00  0.00000000000E+00  0.49397234264E+03  0.49397234264E+03  0.00000000000E+00 0.  1.
          1   -1    0    0  502    0  0.00000000000E+00 -0.00000000000E+00 -0.32511233316E+03  0.32511233316E+03  0.00000000000E+00 0. -1.
          6    1    1    2  502    0 -0.28682785258E+03 -0.20707624884E+03  0.85249177908E+01  0.39389397567E+03  0.17300000000E+03 0.  1.
         -6    1    1    2    0  501  0.28682785258E+03  0.20707624884E+03  0.16033509168E+03  0.42519070012E+03  0.17300000000E+03 0.  1.
<mgrwt>
<rscale>  2 0.39380171E+03</rscale>
<asrwt>0</asrwt>
<pdfrwt beam="2">  1        1 0.50017282E-01 0.39380171E+03</pdfrwt>
<pdfrwt beam="1">  1       -1 0.75995745E-01 0.39380171E+03</pdfrwt>
<totfact> 0.14286398E+02</totfact>
</mgrwt>
</event>
<event>
 4    1  0.8142558E-001  0.2257820E+03  0.7546771E-02  0.1129644E+00
         -2   -1    0    0    0  501 -0.00000000000E+00  0.00000000000E+00  0.29704478361E+02  0.29704478361E+02  0.00000000000E+00 0.  1.
          2   -1    0    0  502    0  0.00000000000E+00 -0.00000000000E+00 -0.25255235915E+04  0.25255235915E+04  0.00000000000E+00 0. -1.
          6    1    1    2  502    0  0.13237430197E+03  0.59376422997E+02 -0.52464548062E+03  0.57116582160E+03  0.17300000000E+03 0.  1.
         -6    1    1    2    0  501 -0.13237430197E+03 -0.59376422997E+02 -0.19711736325E+04  0.19840622482E+04  0.17300000000E+03 0. -1.
<mgrwt>
<rscale>  2 0.22578201E+03</rscale>
<asrwt>0</asrwt>
<pdfrwt beam="2">  1        2 0.38854220E+00 0.22578201E+03</pdfrwt>
<pdfrwt beam="1">  1       -2 0.45699185E-02 0.22578201E+03</pdfrwt>
<totfact> 0.87918277E+02</totfact>
</mgrwt>
</event>
<event>
 4    1  0.8142558E-001  0.1978865E+03  0.7546771E-02  0.1151534E+00
         -2   -1    0    0    0  501 -0.00000000000E+00  0.00000000000E+00  0.22353756771E+02  0.22353756771E+02  0.00000000000E+00 0. -1.
          2   -1    0    0  502    0  0.00000000000E+00 -0.00000000000E+00 -0.22578652216E+04  0.22578652216E+04  0.00000000000E+00 0.  1.
          6    1    1    2  502    0 -0.92696571887E+02  0.25247383764E+02 -0.57799020690E+03  0.61092697116E+03  0.17300000000E+03 0. -1.
         -6    1    1    2    0  501  0.92696571887E+02 -0.25247383764E+02 -0.16575212579E+04  0.16692920072E+04  0.17300000000E+03 0.  1.
<mgrwt>
<rscale>  2 0.19788655E+03</rscale>
<asrwt>0</asrwt>
<pdfrwt beam="2">  1        2 0.34736403E+00 0.19788655E+03</pdfrwt>
<pdfrwt beam="1">  1       -2 0.34390380E-02 0.19788655E+03</pdfrwt>
<totfact> 0.18836946E+03</totfact>
</mgrwt>
</event>
<event>
 4    1  0.8142558E-001  0.1976120E+03  0.7546771E-02  0.1151770E+00
          2   -1    0    0  502    0  0.00000000000E+00  0.00000000000E+00  0.24800637381E+04  0.24800637381E+04  0.00000000000E+00 0.  1.
         -2   -1    0    0    0  501 -0.00000000000E+00 -0.00000000000E+00 -0.16534229233E+02  0.16534229233E+02  0.00000000000E+00 0. -1.
          6    1    1    2  502    0 -0.43679952738E+01 -0.95406643969E+02  0.95917034818E+03  0.97931520151E+03  0.17300000000E+03 0. -1.
         -6    1    1    2    0  501  0.43679952738E+01  0.95406643969E+02  0.15043591607E+04  0.15172827658E+04  0.17300000000E+03 0.  1.
<mgrwt>
<rscale>  2 0.19761201E+03</rscale>
<asrwt>0</asrwt>
<pdfrwt beam="1">  1        2 0.38154797E+00 0.19761201E+03</pdfrwt>
<pdfrwt beam="2">  1       -2 0.25437295E-02 0.19761201E+03</pdfrwt>
<totfact> 0.22416128E+03</totfact>
</mgrwt>
</event>
<event>
 4    1  0.8142558E-001  0.2114609E+03  0.7546771E-02  0.1140414E+00
         -2   -1    0    0    0  501 -0.00000000000E+00  0.00000000000E+00  0.28163434432E+03  0.28163434432E+03  0.00000000000E+00 0.  1.
          2   -1    0    0  502    0  0.00000000000E+00 -0.00000000000E+00 -0.19886235255E+03  0.19886235255E+03  0.00000000000E+00 0. -1.
          6    1    1    2  502    0  0.38734560199E+02 -0.11526641232E+03 -0.66484539499E+02  0.22166620391E+03  0.17300000000E+03 0. -1.
         -6    1    1    2    0  501 -0.38734560199E+02  0.11526641232E+03  0.14925653127E+03  0.25883049297E+03  0.17300000000E+03 0.  1.
<mgrwt>
<rscale>  2 0.21146090E+03</rscale>
<asrwt>0</asrwt>
<pdfrwt beam="2">  1        2 0.30594208E-01 0.21146090E+03</pdfrwt>
<pdfrwt beam="1">  1       -2 0.43328361E-01 0.21146090E+03</pdfrwt>
<totfact> 0.87336897E+02</totfact>
</mgrwt>
</event>
<event>
 4    1  0.8142558E-001  0.2100136E+03  0.7546771E-02  0.1141555E+00
         -2   -1    0    0    0  501 -0.00000000000E+00  0.00000000000E+00  0.89396979387E+02  0.89396979387E+02  0.00000000000E+00 0. -1.
          2   -1    0    0  502    0  0.00000000000E+00 -0.00000000000E+00 -0.50266679618E+03  0.50266679618E+03  0.00000000000E+00 0.  1.
          6    1    1    2  502    0  0.95227291313E+02 -0.71473454352E+02 -0.16637339092E+03  0.26792871607E+03  0.17300000000E+03 0.  1.
         -6    1    1    2    0  501 -0.95227291313E+02  0.71473454352E+02 -0.24689642588E+03  0.32413505950E+03  0.17300000000E+03 0. -1.
<mgrwt>
<rscale>  2 0.21001355E+03</rscale>
<asrwt>0</asrwt>
<pdfrwt beam="2">  1        2 0.77333352E-01 0.21001355E+03</pdfrwt>
<pdfrwt beam="1">  1       -2 0.13753382E-01 0.21001355E+03</pdfrwt>
<totfact> 0.24243653E+03</totfact>
</mgrwt>
</event>
<event>
 4    1  0.8142558E-001  0.1856475E+03  0.7546771E-02  0.1162447E+00
          2   -1    0    0  502    0  0.00000000000E+00  0.00000000000E+00  0.17133791425E+04  0.17133791425E+04  0.00000000000E+00 0.  1.
         -2   -1    0    0    0  501 -0.00000000000E+00 -0.00000000000E+00 -0.48158733436E+02  0.48158733436E+02  0.00000000000E+00 0. -1.
          6    1    1    2  502    0  0.57116729013E+02  0.35688511090E+02  0.15047207488E+04  0.15161297842E+04  0.17300000000E+03 0.  1.
         -6    1    1    2    0  501 -0.57116729013E+02 -0.35688511090E+02  0.16049966023E+03  0.24540809174E+03  0.17300000000E+03 0. -1.
<mgrwt>
<rscale>  2 0.18564749E+03</rscale>
<asrwt>0</asrwt>
<pdfrwt beam="1">  1        2 0.26359674E+00 0.18564749E+03</pdfrwt>
<pdfrwt beam="2">  1       -2 0.74090372E-02 0.18564749E+03</pdfrwt>
<totfact> 0.11313884E+03</totfact>
</mgrwt>
</event>
<event>
 4    1  0.8142558E-001  0.2057778E+03  0.7546771E-02  0.1144954E+00
         -2   -1    0    0    0  501 -0.00000000000E+00  0.00000000000E+00  0.13435434355E+03  0.13435434355E+03  0.00000000000E+00 0.  1.
          2   -1    0    0  502    0  0.00000000000E+00 -0.00000000000E+00 -0.31549759467E+03  0.31549759467E+03  0.00000000000E+00 0. -1.
          6    1    1    2  502    0 -0.36797846450E+02  0.10517324299E+03 -0.97816681608E+02  0.22784335791E+03  0.17300000000E+03 0. -1.
         -6    1    1    2    0  501  0.36797846450E+02 -0.10517324299E+03 -0.83326569517E+02  0.22200858031E+03  0.17300000000E+03 0.  1.
<mgrwt>
<rscale>  2 0.20577777E+03</rscale>
<asrwt>0</asrwt>
<pdfrwt beam="2">  1        2 0.48538091E-01 0.20577777E+03</pdfrwt>
<pdfrwt beam="1">  1       -2 0.20669899E-01 0.20577777E+03</pdfrwt>
<totfact> 0.20347722E+03</totfact>
</mgrwt>
</event>
<event>
 4    1  0.8142558E-001  0.1806557E+03  0.7546771E-02  0.1167170E+00
         -1   -1    0    0    0  501 -0.00000000000E+00  0.00000000000E+00  0.89556887208E+02  0.89556887208E+02  0.00000000000E+00 0. -1.
          1   -1    0    0  502    0  0.00000000000E+00 -0.00000000000E+00 -0.41612479819E+03  0.41612479819E+03  0.00000000000E+00 0.  1.
          6    1    1    2  502    0  0.50728073201E+02 -0.11581454097E+02 -0.25240781322E+03  0.31039679712E+03  0.17300000000E+03 0.  1.
         -6    1    1    2    0  501 -0.50728073201E+02  0.11581454097E+02 -0.74160097767E+02  0.19528488828E+03  0.17300000000E+03 0. -1.
<mgrwt>
<rscale>  2 0.18065566E+03</rscale>
<asrwt>0</asrwt>
<pdfrwt beam="2">  1        1 0.64019198E-01 0.18065566E+03</pdfrwt>
<pdfrwt beam="1">  1       -1 0.13777983E-01 0.18065566E+03</pdfrwt>
<totfact> 0.20930945E+03</totfact>
</mgrwt>
</event>
<event>
 4    1  0.8142558E-001  0.2218146E+03  0.7546771E-02  0.1132537E+00
          1   -1    0    0  502    0  0.00000000000E+00  0.00000000000E+00  0.98468302526E+03  0.98468302526E+03  0.00000000000E+00 0. -1.
         -1   -1    0    0    0  501 -0.00000000000E+00 -0.00000000000E+00 -0.50297847963E+02  0.50297847963E+02  0.00000000000E+00 0.  1.
          6    1    1    2  502    0 -0.37955704636E+02  0.13353681823E+03  0.42522621397E+03  0.47960301332E+03  0.17300000000E+03 0.  1.
         -6    1    1    2    0  501  0.37955704636E+02 -0.13353681823E+03  0.50915896333E+03  0.55537785991E+03  0.17300000000E+03 0.  1.
<mgrwt>
<rscale>  2 0.22181460E+03</rscale>
<asrwt>0</asrwt>
<pdfrwt beam="1">  1        1 0.15148968E+00 0.22181460E+03</pdfrwt>
<pdfrwt beam="2">  1       -1 0.77381312E-02 0.22181460E+03</pdfrwt>
<totfact> 0.14882036E+03</totfact>
</mgrwt>
</event>
<event>
 4    1  0.8142558E-001  0.1872494E+03  0.7546771E-02  0.1160966E+00
          2   -1    0    0  502    0  0.00000000000E+00  0.00000000000E+00  0.39527820121E+03  0.39527820121E+03  0.00000000000E+00 0. -1.
         -2   -1    0    0    0  501 -0.00000000000E+00 -0.00000000000E+00 -0.96497603875E+02  0.96497603875E+02  0.00000000000E+00 0.  1.
          6    1    1    2  502    0 -0.45036805970E+02  0.55722730866E+02  0.21927429468E+03  0.28834623794E+03  0.17300000000E+03 0. -1.
         -6    1    1    2    0  501  0.45036805970E+02 -0.55722730866E+02  0.79506302656E+02  0.20342956715E+03  0.17300000000E+03 0.  1.
<mgrwt>
<rscale>  2 0.18724940E+03</rscale>
<asrwt>0</asrwt>
<pdfrwt beam="1">  1        2 0.60812030E-01 0.18724940E+03</pdfrwt>
<pdfrwt beam="2">  1       -2 0.14845785E-01 0.18724940E+03</pdfrwt>
<totfact> 0.27738190E+03</totfact>
</mgrwt>
</event>
<event>
 4    1  0.8142558E-001  0.1851005E+03  0.7546771E-02  0.1162956E+00
          2   -1    0    0  502    0  0.00000000000E+00  0.00000000000E+00  0.46437192568E+03  0.46437192568E+03  0.00000000000E+00 0. -1.
         -2   -1    0    0    0  501 -0.00000000000E+00 -0.00000000000E+00 -0.98357827353E+02  0.98357827353E+02  0.00000000000E+00 0.  1.
          6    1    1    2  502    0  0.39275621511E+02  0.52826205767E+02  0.42362946083E+02  0.18988628613E+03  0.17300000000E+03 0.  1.
         -6    1    1    2    0  501 -0.39275621511E+02 -0.52826205767E+02  0.32365115225E+03  0.37284346690E+03  0.17300000000E+03 0. -1.
<mgrwt>
<rscale>  2 0.18510047E+03</rscale>
<asrwt>0</asrwt>
<pdfrwt beam="1">  1        2 0.71441834E-01 0.18510047E+03</pdfrwt>
<pdfrwt beam="2">  1       -2 0.15131974E-01 0.18510047E+03</pdfrwt>
<totfact> 0.22549537E+03</totfact>
</mgrwt>
</event>
<event>
 4    1  0.8142558E-001  0.1820016E+03  0.7546771E-02  0.1165880E+00
         -2   -1    0    0    0  501 -0.00000000000E+00  0.00000000000E+00  0.14490024616E+02  0.14490024616E+02  0.00000000000E+00 0.  1.
          2   -1    0    0  502    0  0.00000000000E+00 -0.00000000000E+00 -0.30731804003E+04  0.30731804003E+04  0.00000000000E+00 0. -1.
          6    1    1    2  502    0  0.52480624758E+02  0.21008385389E+02 -0.74801074433E+03  0.76983416517E+03  0.17300000000E+03 0.  1.
         -6    1    1    2    0  501 -0.52480624758E+02 -0.21008385389E+02 -0.23106796314E+04  0.23178362597E+04  0.17300000000E+03 0. -1.
<mgrwt>
<rscale>  2 0.18200156E+03</rscale>
<asrwt>0</asrwt>
<pdfrwt beam="2">  1        2 0.47279752E+00 0.18200156E+03</pdfrwt>
<pdfrwt beam="1">  1       -2 0.22292320E-02 0.18200156E+03</pdfrwt>
<totfact> 0.12629822E+03</totfact>
</mgrwt>
</event>
<event>
 4    1  0.8142558E-001  0.2306551E+03  0.7546771E-02  0.1126179E+00
         -1   -1    0    0    0  501 -0.00000000000E+00  0.00000000000E+00  0.93411403838E+02  0.93411403838E+02  0.00000000000E+00 0. -1.
          1   -1    0    0  502    0  0.00000000000E+00 -0.00000000000E+00 -0.62213231695E+03  0.62213231695E+03  0.00000000000E+00 0.  1.
          6    1    1    2  502    0  0.25073458022E+02  0.15047963131E+03 -0.16034110130E+03  0.28091113631E+03  0.17300000000E+03 0. -1.
         -6    1    1    2    0  501 -0.25073458022E+02 -0.15047963131E+03 -0.36837981181E+03  0.43463258448E+03  0.17300000000E+03 0. -1.
<mgrwt>
<rscale>  2 0.23065515E+03</rscale>
<asrwt>0</asrwt>
<pdfrwt beam="2">  1        1 0.95712665E-01 0.23065515E+03</pdfrwt>
<pdfrwt beam="1">  1       -1 0.14370985E-01 0.23065515E+03</pdfrwt>
<totfact> 0.11509480E+03</totfact>
</mgrwt>
</event>
<event>
 4    1  0.8142558E-001  0.2288900E+03  0.7546771E-02  0.1127424E+00
          1   -1    0    0  502    0  0.00000000000E+00  0.00000000000E+00  0.81949807637E+02  0.81949807637E+02  0.00000000000E+00 0.  1.
         -1   -1    0    0    0  501 -0.00000000000E+00 -0.00000000000E+00 -0.67713580175E+03  0.67713580175E+03  0.00000000000E+00 0. -1.
          6    1    1    2  502    0 -0.89016079363E+02  0.12057258704E+03 -0.38730848096E+03  0.44988717536E+03  0.17300000000E+03 0. -1.
         -6    1    1    2    0  501  0.89016079363E+02 -0.12057258704E+03 -0.20787751316E+03  0.30919843403E+03  0.17300000000E+03 0.  1.
<mgrwt>
<rscale>  2 0.22888995E+03</rscale>
<asrwt>0</asrwt>
<pdfrwt beam="1">  1        1 0.12607663E-01 0.22888995E+03</pdfrwt>
<pdfrwt beam="2">  1       -1 0.10417474E+00 0.22888995E+03</pdfrwt>
<totfact> 0.43254069E+02</totfact>
</mgrwt>
</event>
<event>
 4    1  0.8142558E-001  0.1936277E+03  0.7546771E-02  0.1155229E+00
          2   -1    0    0  502    0  0.00000000000E+00  0.00000000000E+00  0.24726005890E+04  0.24726005890E+04  0.00000000000E+00 0.  1.
         -2   -1    0    0    0  501 -0.00000000000E+00 -0.00000000000E+00 -0.19213024222E+02  0.19213024222E+02  0.00000000000E+00 0. -1.
          6    1    1    2  502    0  0.11149070492E+02 -0.86246074841E+02  0.65465666045E+03  0.68269102108E+03  0.17300000000E+03 0.  1.
         -6    1    1    2    0  501 -0.11149070492E+02  0.86246074841E+02  0.17987309043E+04  0.18091225921E+04  0.17300000000E+03 0.  1.
<mgrwt>
<rscale>  2 0.19362770E+03</rscale>
<asrwt>0</asrwt>
<pdfrwt beam="1">  1        2 0.38039984E+00 0.19362770E+03</pdfrwt>
<pdfrwt beam="2">  1       -2 0.29558518E-02 0.19362770E+03</pdfrwt>
<totfact> 0.18128804E+03</totfact>
</mgrwt>
</event>
<event>
 4    1  0.8142558E-001  0.2202373E+03  0.7546771E-02  0.1133706E+00
         -2   -1    0    0    0  501 -0.00000000000E+00  0.00000000000E+00  0.99579003670E+02  0.99579003670E+02  0.00000000000E+00 0.  1.
          2   -1    0    0  502    0  0.00000000000E+00 -0.00000000000E+00 -0.49895654926E+03  0.49895654926E+03  0.00000000000E+00 0. -1.
          6    1    1    2  502    0  0.71318056744E+02  0.11614305937E+03 -0.15354726043E+03  0.26847949017E+03  0.17300000000E+03 0.  1.
         -6    1    1    2    0  501 -0.71318056744E+02 -0.11614305937E+03 -0.24583028516E+03  0.33005606275E+03  0.17300000000E+03 0. -1.
<mgrwt>
<rscale>  2 0.22023732E+03</rscale>
<asrwt>0</asrwt>
<pdfrwt beam="2">  1        2 0.76762546E-01 0.22023732E+03</pdfrwt>
<pdfrwt beam="1">  1       -2 0.15319847E-01 0.22023732E+03</pdfrwt>
<totfact> 0.20493797E+03</totfact>
</mgrwt>
</event>
<event>
 4    1  0.8142558E-001  0.1977854E+03  0.7546771E-02  0.1151621E+00
         -2   -1    0    0    0  501 -0.00000000000E+00  0.00000000000E+00  0.18999506491E+02  0.18999506491E+02  0.00000000000E+00 0. -1.
          2   -1    0    0  502    0  0.00000000000E+00 -0.00000000000E+00 -0.21654924524E+04  0.21654924524E+04  0.00000000000E+00 0.  1.
          6    1    1    2  502    0 -0.49056923317E+02 -0.82361901555E+02 -0.13155167706E+04  0.13303020101E+04  0.17300000000E+03 0.  1.
         -6    1    1    2    0  501  0.49056923317E+02  0.82361901555E+02 -0.83097617536E+03  0.85418994876E+03  0.17300000000E+03 0. -1.
<mgrwt>
<rscale>  2 0.19778540E+03</rscale>
<asrwt>0</asrwt>
<pdfrwt beam="2">  1        2 0.33315279E+00 0.19778540E+03</pdfrwt>
<pdfrwt beam="1">  1       -2 0.29230001E-02 0.19778540E+03</pdfrwt>
<totfact> 0.26827549E+03</totfact>
</mgrwt>
</event>
<event>
 4    1  0.8142558E-001  0.2539126E+03  0.7546771E-02  0.1110857E+00
          1   -1    0    0  502    0  0.00000000000E+00  0.00000000000E+00  0.47141111510E+03  0.47141111510E+03  0.00000000000E+00 0. -1.
         -1   -1    0    0    0  501 -0.00000000000E+00 -0.00000000000E+00 -0.15795349741E+03  0.15795349741E+03  0.00000000000E+00 0.  1.
          6    1    1    2  502    0 -0.18068835754E+03  0.43523966814E+02  0.41469013521E+02  0.25727669408E+03  0.17300000000E+03 0.  1.
         -6    1    1    2    0  501  0.18068835754E+03 -0.43523966814E+02  0.27198860417E+03  0.37208791842E+03  0.17300000000E+03 0. -1.
<mgrwt>
<rscale>  2 0.25391262E+03</rscale>
<asrwt>0</asrwt>
<pdfrwt beam="1">  1        1 0.72524786E-01 0.25391262E+03</pdfrwt>
<pdfrwt beam="2">  1       -1 0.24300538E-01 0.25391262E+03</pdfrwt>
<totfact> 0.71599414E+02</totfact>
</mgrwt>
</event>
<event>
 4    1  0.8142558E-001  0.2011827E+03  0.7546771E-02  0.1148745E+00
         -3   -1    0    0    0  501 -0.00000000000E+00  0.00000000000E+00  0.16332367249E+03  0.16332367249E+03  0.00000000000E+00 0. -1.
          3   -1    0    0  502    0  0.00000000000E+00 -0.00000000000E+00 -0.49815325052E+03  0.49815325052E+03  0.00000000000E+00 0.  1.
          6    1    1    2  502    0  0.10009694203E+03 -0.22936443376E+02 -0.40187253257E+03  0.44941741252E+03  0.17300000000E+03 0.  1.
         -6    1    1    2    0  501 -0.10009694203E+03  0.22936443376E+02  0.67042954543E+02  0.21205951050E+03  0.17300000000E+03 0.  1.
<mgrwt>
<rscale>  2 0.20118270E+03</rscale>
<asrwt>0</asrwt>
<pdfrwt beam="2">  1        3 0.76638961E-01 0.20118270E+03</pdfrwt>
<pdfrwt beam="1">  1       -3 0.25126719E-01 0.20118270E+03</pdfrwt>
<totfact> 0.59621615E+01</totfact>
</mgrwt>
</event>
<event>
 4    1  0.8142558E-001  0.2687543E+03  0.7546771E-02  0.1101995E+00
         -1   -1    0    0    0  501 -0.00000000000E+00  0.00000000000E+00  0.89461264560E+03  0.89461264560E+03  0.00000000000E+00 0.  1.
          1   -1    0    0  502    0  0.00000000000E+00 -0.00000000000E+00 -0.13048563661E+03  0.13048563661E+03  0.00000000000E+00 0. -1.
          6    1    1    2  502    0 -0.18705725276E+03  0.85495299912E+02  0.69854054270E+03  0.74845691386E+03  0.17300000000E+03 0.  1.
         -6    1    1    2    0  501  0.18705725276E+03 -0.85495299912E+02  0.65586466293E+02  0.27664136834E+03  0.17300000000E+03 0. -1.
<mgrwt>
<rscale>  2 0.26875428E+03</rscale>
<asrwt>0</asrwt>
<pdfrwt beam="2">  1        1 0.20074714E-01 0.26875428E+03</pdfrwt>
<pdfrwt beam="1">  1       -1 0.13763271E+00 0.26875428E+03</pdfrwt>
<totfact> 0.12064290E+02</totfact>
</mgrwt>
</event>
<event>
 4    1  0.8142558E-001  0.1858354E+03  0.7546771E-02  0.1162272E+00
         -2   -1    0    0    0  501 -0.00000000000E+00  0.00000000000E+00  0.24675548635E+03  0.24675548635E+03  0.00000000000E+00 0. -1.
          2   -1    0    0  502    0  0.00000000000E+00 -0.00000000000E+00 -0.25480409399E+03  0.25480409399E+03  0.00000000000E+00 0.  1.
          6    1    1    2  502    0  0.42094879654E+02 -0.53233698735E+02 -0.17238938983E+03  0.25348157191E+03  0.17300000000E+03 0.  1.
         -6    1    1    2    0  501 -0.42094879654E+02  0.53233698735E+02  0.16434078218E+03  0.24807800842E+03  0.17300000000E+03 0. -1.
<mgrwt>
<rscale>  2 0.18583543E+03</rscale>
<asrwt>0</asrwt>
<pdfrwt beam="2">  1        2 0.39200630E-01 0.18583543E+03</pdfrwt>
<pdfrwt beam="1">  1       -2 0.37962383E-01 0.18583543E+03</pdfrwt>
<totfact> 0.85767460E+02</totfact>
</mgrwt>
</event>
<event>
 4    1  0.8142558E-001  0.1768691E+03  0.7546771E-02  0.1170868E+00
          1   -1    0    0  502    0  0.00000000000E+00  0.00000000000E+00  0.63683971330E+03  0.63683971330E+03  0.00000000000E+00 0. -1.
         -1   -1    0    0    0  501 -0.00000000000E+00 -0.00000000000E+00 -0.49962143616E+02  0.49962143616E+02  0.00000000000E+00 0.  1.
          6    1    1    2  502    0 -0.35751814681E+02 -0.86873832277E+01  0.33797668456E+03  0.38145891284E+03  0.17300000000E+03 0. -1.
         -6    1    1    2    0  501  0.35751814681E+02  0.86873832277E+01  0.24890088512E+03  0.30534294407E+03  0.17300000000E+03 0.  1.
<mgrwt>
<rscale>  2 0.17686906E+03</rscale>
<asrwt>0</asrwt>
<pdfrwt beam="1">  1        1 0.97975334E-01 0.17686906E+03</pdfrwt>
<pdfrwt beam="2">  1       -1 0.76864841E-02 0.17686906E+03</pdfrwt>
<totfact> 0.29189800E+03</totfact>
</mgrwt>
</event>
<event>
 4    1  0.8142558E-001  0.2200942E+03  0.7546771E-02  0.1133813E+00
         -2   -1    0    0    0  501 -0.00000000000E+00  0.00000000000E+00  0.13487742839E+03  0.13487742839E+03  0.00000000000E+00 0.  1.
          2   -1    0    0  502    0  0.00000000000E+00 -0.00000000000E+00 -0.39262390452E+03  0.39262390452E+03  0.00000000000E+00 0. -1.
          6    1    1    2  502    0 -0.34997619678E+02  0.13148248801E+03 -0.51863370437E+02  0.22612228379E+03  0.17300000000E+03 0. -1.
         -6    1    1    2    0  501  0.34997619678E+02 -0.13148248801E+03 -0.20588310569E+03  0.30137904911E+03  0.17300000000E+03 0.  1.
<mgrwt>
<rscale>  2 0.22009425E+03</rscale>
<asrwt>0</asrwt>
<pdfrwt beam="2">  1        2 0.60403676E-01 0.22009425E+03</pdfrwt>
<pdfrwt beam="1">  1       -2 0.20750374E-01 0.22009425E+03</pdfrwt>
<totfact> 0.15991136E+03</totfact>
</mgrwt>
</event>
<event>
 4    1  0.8142558E-001  0.1857156E+03  0.7546771E-02  0.1162383E+00
          1   -1    0    0  502    0  0.00000000000E+00  0.00000000000E+00  0.23519847950E+03  0.23519847950E+03  0.00000000000E+00 0. -1.
         -1   -1    0    0    0  501 -0.00000000000E+00 -0.00000000000E+00 -0.14673391460E+03  0.14673391460E+03  0.00000000000E+00 0.  1.
          6    1    1    2  502    0  0.47533287130E+02 -0.47977783713E+02  0.48977882102E+02  0.19206539004E+03  0.17300000000E+03 0. -1.
         -6    1    1    2    0  501 -0.47533287130E+02  0.47977783713E+02  0.39486682795E+02  0.18986700407E+03  0.17300000000E+03 0. -1.
<mgrwt>
<rscale>  2 0.18571559E+03</rscale>
<asrwt>0</asrwt>
<pdfrwt beam="1">  1        1 0.36184382E-01 0.18571559E+03</pdfrwt>
<pdfrwt beam="2">  1       -1 0.22574448E-01 0.18571559E+03</pdfrwt>
<totfact> 0.19456232E+03</totfact>
</mgrwt>
</event>
<event>
 4    1  0.8142558E-001  0.2085103E+03  0.7546771E-02  0.1142751E+00
          2   -1    0    0  502    0  0.00000000000E+00  0.00000000000E+00  0.21032358276E+03  0.21032358276E+03  0.00000000000E+00 0.  1.
         -2   -1    0    0    0  501 -0.00000000000E+00 -0.00000000000E+00 -0.31643812605E+03  0.31643812605E+03  0.00000000000E+00 0. -1.
          6    1    1    2  502    0 -0.93660043325E+02  0.69103870342E+02  0.10203619539E+03  0.23213774743E+03  0.17300000000E+03 0.  1.
         -6    1    1    2    0  501  0.93660043325E+02 -0.69103870342E+02 -0.20815073868E+03  0.29462396139E+03  0.17300000000E+03 0. -1.
<mgrwt>
<rscale>  2 0.20851031E+03</rscale>
<asrwt>0</asrwt>
<pdfrwt beam="1">  1        2 0.32357475E-01 0.20851031E+03</pdfrwt>
<pdfrwt beam="2">  1       -2 0.48682788E-01 0.20851031E+03</pdfrwt>
<totfact> 0.65363053E+02</totfact>
</mgrwt>
</event>
<event>
 4    1  0.8142558E-001  0.2619770E+03  0.7546771E-02  0.1105961E+00
          2   -1    0    0  502    0  0.00000000000E+00  0.00000000000E+00  0.18971477485E+04  0.18971477485E+04  0.00000000000E+00 0.  1.
         -2   -1    0    0    0  501 -0.00000000000E+00 -0.00000000000E+00 -0.37335660541E+02  0.37335660541E+02  0.00000000000E+00 0. -1.
          6    1    1    2  502    0  0.18979380974E+03 -0.51781117948E+02  0.11003429968E+04  0.11310997679E+04  0.17300000000E+03 0.  1.
         -6    1    1    2    0  501 -0.18979380974E+03  0.51781117948E+02  0.75946909120E+03  0.80338364116E+03  0.17300000000E+03 0. -1.
<mgrwt>
<rscale>  2 0.26197705E+03</rscale>
<asrwt>0</asrwt>
<pdfrwt beam="1">  1        2 0.29186881E+00 0.26197705E+03</pdfrwt>
<pdfrwt beam="2">  1       -2 0.57439493E-02 0.26197705E+03</pdfrwt>
<totfact> 0.13331512E+03</totfact>
</mgrwt>
</event>
<event>
 4    1  0.8142558E-001  0.4401581E+03  0.7546771E-02  0.1030698E+00
          1   -1    0    0  502    0  0.00000000000E+00  0.00000000000E+00  0.28432461082E+03  0.28432461082E+03  0.00000000000E+00 0.  1.
         -1   -1    0    0    0  501 -0.00000000000E+00 -0.00000000000E+00 -0.70069043097E+03  0.70069043097E+03  0.00000000000E+00 0. -1.
          6    1    1    2  502    0  0.30616116125E+03 -0.26471780595E+03 -0.28989861843E+03  0.52704874767E+03  0.17300000000E+03 0.  1.
         -6    1    1    2    0  501 -0.30616116125E+03  0.26471780595E+03 -0.12646720172E+03  0.45796629413E+03  0.17300000000E+03 0.  1.
<mgrwt>
<rscale>  2 0.44015812E+03</rscale>
<asrwt>0</asrwt>
<pdfrwt beam="1">  1        1 0.43742249E-01 0.44015812E+03</pdfrwt>
<pdfrwt beam="2">  1       -1 0.10779853E+00 0.44015812E+03</pdfrwt>
<totfact> 0.78670641E+01</totfact>
</mgrwt>
</event>
<event>
 4    1  0.8142558E-001  0.2142407E+03  0.7546771E-02  0.1138251E+00
          2   -1    0    0  502    0  0.00000000000E+00  0.00000000000E+00  0.14450739822E+03  0.14450739822E+03  0.00000000000E+00 0. -1.
         -2   -1    0    0    0  501 -0.00000000000E+00 -0.00000000000E+00 -0.32151281370E+03  0.32151281370E+03  0.00000000000E+00 0.  1.
          6    1    1    2  502    0 -0.10378926924E+03 -0.72096303443E+02 -0.11412727516E+03  0.24274291816E+03  0.17300000000E+03 0.  1.
         -6    1    1    2    0  501  0.10378926924E+03  0.72096303443E+02 -0.62878140311E+02  0.22327729376E+03  0.17300000000E+03 0. -1.
<mgrwt>
<rscale>  2 0.21424073E+03</rscale>
<asrwt>0</asrwt>
<pdfrwt beam="1">  1        2 0.22231907E-01 0.21424073E+03</pdfrwt>
<pdfrwt beam="2">  1       -2 0.49463510E-01 0.21424073E+03</pdfrwt>
<totfact> 0.96084800E+02</totfact>
</mgrwt>
</event>
<event>
 4    1  0.8142558E-001  0.1793829E+03  0.7546771E-02  0.1168402E+00
          1   -1    0    0  502    0  0.00000000000E+00  0.00000000000E+00  0.28098878679E+03  0.28098878679E+03  0.00000000000E+00 0.  1.
         -1   -1    0    0    0  501 -0.00000000000E+00 -0.00000000000E+00 -0.11914650521E+03  0.11914650521E+03  0.00000000000E+00 0. -1.
          6    1    1    2  502    0 -0.82964569823E+01  0.46694776722E+02  0.41487820096E+02  0.18411809414E+03  0.17300000000E+03 0. -1.
         -6    1    1    2    0  501  0.82964569823E+01 -0.46694776722E+02  0.12035446148E+03  0.21601719786E+03  0.17300000000E+03 0.  1.
<mgrwt>
<rscale>  2 0.17938292E+03</rscale>
<asrwt>0</asrwt>
<pdfrwt beam="1">  1        1 0.43229044E-01 0.17938292E+03</pdfrwt>
<pdfrwt beam="2">  1       -1 0.18330232E-01 0.17938292E+03</pdfrwt>
<totfact> 0.21815724E+03</totfact>
</mgrwt>
</event>
<event>
 4    1  0.8142558E-001  0.1737447E+03  0.7546771E-02  0.1173998E+00
          3   -1    0    0  502    0  0.00000000000E+00  0.00000000000E+00  0.22275349169E+03  0.22275349169E+03  0.00000000000E+00 0.  1.
         -3   -1    0    0    0  501 -0.00000000000E+00 -0.00000000000E+00 -0.16954648797E+03  0.16954648797E+03  0.00000000000E+00 0. -1.
          6    1    1    2  502    0 -0.14623575696E+02 -0.66612293548E+01  0.11447782086E+03  0.20806823979E+03  0.17300000000E+03 0.  1.
         -6    1    1    2    0  501  0.14623575696E+02  0.66612293548E+01 -0.61270817133E+02  0.18423173987E+03  0.17300000000E+03 0. -1.
<mgrwt>
<rscale>  2 0.17374470E+03</rscale>
<asrwt>0</asrwt>
<pdfrwt beam="1">  1        3 0.34269768E-01 0.17374470E+03</pdfrwt>
<pdfrwt beam="2">  1       -3 0.26084075E-01 0.17374470E+03</pdfrwt>
<totfact> 0.27926007E+02</totfact>
</mgrwt>
</event>
<event>
 4    1  0.8142558E-001  0.1972434E+03  0.7546771E-02  0.1152086E+00
          4   -1    0    0  502    0  0.00000000000E+00  0.00000000000E+00  0.39574209405E+02  0.39574209405E+02  0.00000000000E+00 0. -1.
         -4   -1    0    0    0  501 -0.00000000000E+00 -0.00000000000E+00 -0.11420184013E+04  0.11420184013E+04  0.00000000000E+00 0.  1.
          6    1    1    2  502    0  0.81343817911E+02 -0.48570998331E+02 -0.77161810996E+03  0.79642919723E+03  0.17300000000E+03 0. -1.
         -6    1    1    2    0  501 -0.81343817911E+02  0.48570998331E+02 -0.33082608197E+03  0.38516341350E+03  0.17300000000E+03 0. -1.
<mgrwt>
<rscale>  2 0.19724340E+03</rscale>
<asrwt>0</asrwt>
<pdfrwt beam="1">  1        4 0.60883398E-02 0.19724340E+03</pdfrwt>
<pdfrwt beam="2">  1       -4 0.17569514E+00 0.19724340E+03</pdfrwt>
<totfact> 0.64301940E+01</totfact>
</mgrwt>
</event>
<event>
 4    1  0.8142558E-001  0.3548394E+03  0.7546771E-02  0.1060646E+00
          2   -1    0    0  502    0  0.00000000000E+00  0.00000000000E+00  0.16414895451E+04  0.16414895451E+04  0.00000000000E+00 0. -1.
         -2   -1    0    0    0  501 -0.00000000000E+00 -0.00000000000E+00 -0.76707288821E+02  0.76707288821E+02  0.00000000000E+00 0.  1.
          6    1    1    2  502    0 -0.26269178049E+03  0.16424086804E+03  0.77807486991E+03  0.85516754935E+03  0.17300000000E+03 0. -1.
         -6    1    1    2    0  501  0.26269178049E+03 -0.16424086804E+03  0.78670738640E+03  0.86302928460E+03  0.17300000000E+03 0.  1.
<mgrwt>
<rscale>  2 0.35483945E+03</rscale>
<asrwt>0</asrwt>
<pdfrwt beam="1">  1        2 0.25253683E+00 0.35483945E+03</pdfrwt>
<pdfrwt beam="2">  1       -2 0.11801123E-01 0.35483945E+03</pdfrwt>
<totfact> 0.57857905E+02</totfact>
</mgrwt>
</event>
<event>
 4    1  0.8142558E-001  0.2017247E+03  0.7546771E-02  0.1148292E+00
         -2   -1    0    0    0  501 -0.00000000000E+00  0.00000000000E+00  0.12654982079E+03  0.12654982079E+03  0.00000000000E+00 0.  1.
          2   -1    0    0  502    0  0.00000000000E+00 -0.00000000000E+00 -0.32341426101E+03  0.32341426101E+03  0.00000000000E+00 0. -1.
          6    1    1    2  502    0  0.54438193735E+02  0.88319440418E+02 -0.81377905942E+02  0.21752058309E+03  0.17300000000E+03 0.  1.
         -6    1    1    2    0  501 -0.54438193735E+02 -0.88319440418E+02 -0.11548653428E+03  0.23244349871E+03  0.17300000000E+03 0. -1.
<mgrwt>
<rscale>  2 0.20172467E+03</rscale>
<asrwt>0</asrwt>
<pdfrwt beam="2">  1        2 0.49756040E-01 0.20172467E+03</pdfrwt>
<pdfrwt beam="1">  1       -2 0.19469203E-01 0.20172467E+03</pdfrwt>
<totfact> 0.21933278E+03</totfact>
</mgrwt>
</event>
<event>
 4    1  0.8142558E-001  0.2641249E+03  0.7546771E-02  0.1104690E+00
         -2   -1    0    0    0  501 -0.00000000000E+00  0.00000000000E+00  0.52574290236E+02  0.52574290236E+02  0.00000000000E+00 0.  1.
          2   -1    0    0  502    0  0.00000000000E+00 -0.00000000000E+00 -0.23453361070E+04  0.23453361070E+04  0.00000000000E+00 0. -1.
          6    1    1    2  502    0  0.52456104936E+02 -0.19256505979E+03 -0.19364458016E+04  0.19543756772E+04  0.17300000000E+03 0. -1.
         -6    1    1    2    0  501 -0.52456104936E+02  0.19256505979E+03 -0.35631601518E+03  0.44353472003E+03  0.17300000000E+03 0.  1.
<mgrwt>
<rscale>  2 0.26412487E+03</rscale>
<asrwt>0</asrwt>
<pdfrwt beam="2">  1        2 0.36082096E+00 0.26412487E+03</pdfrwt>
<pdfrwt beam="1">  1       -2 0.80883519E-02 0.26412487E+03</pdfrwt>
<totfact> 0.45350370E+02</totfact>
</mgrwt>
</event>
<event>
 4    1  0.8142558E-001  0.1741730E+03  0.7546771E-02  0.1173565E+00
          2   -1    0    0  502    0  0.00000000000E+00  0.00000000000E+00  0.15245604561E+03  0.15245604561E+03  0.00000000000E+00 0.  1.
         -2   -1    0    0    0  501 -0.00000000000E+00 -0.00000000000E+00 -0.20060378690E+03  0.20060378690E+03  0.00000000000E+00 0. -1.
          6    1    1    2  502    0  0.17226955541E+02  0.10510829707E+02 -0.82089577718E+01  0.17436637441E+03  0.17300000000E+03 0.  1.
         -6    1    1    2    0  501 -0.17226955541E+02 -0.10510829707E+02 -0.39938783517E+02  0.17869345810E+03  0.17300000000E+03 0. -1.
<mgrwt>
<rscale>  2 0.17417303E+03</rscale>
<asrwt>0</asrwt>
<pdfrwt beam="1">  1        2 0.23454776E-01 0.17417303E+03</pdfrwt>
<pdfrwt beam="2">  1       -2 0.30862121E-01 0.17417303E+03</pdfrwt>
<totfact> 0.22018570E+03</totfact>
</mgrwt>
</event>
<event>
 4    1  0.8142558E-001  0.1760569E+03  0.7546771E-02  0.1171675E+00
         -1   -1    0    0    0  501 -0.00000000000E+00  0.00000000000E+00  0.79242635852E+02  0.79242635852E+02  0.00000000000E+00 0.  1.
          1   -1    0    0  502    0  0.00000000000E+00 -0.00000000000E+00 -0.53663210510E+03  0.53663210510E+03  0.00000000000E+00 0. -1.
          6    1    1    2  502    0  0.28172722041E+02  0.16532785290E+02 -0.68361476330E+02  0.18886324868E+03  0.17300000000E+03 0.  1.
         -6    1    1    2    0  501 -0.28172722041E+02 -0.16532785290E+02 -0.38902799292E+03  0.42701149227E+03  0.17300000000E+03 0. -1.
<mgrwt>
<rscale>  2 0.17605691E+03</rscale>
<asrwt>0</asrwt>
<pdfrwt beam="2">  1        1 0.82558787E-01 0.17605691E+03</pdfrwt>
<pdfrwt beam="1">  1       -1 0.12191175E-01 0.17605691E+03</pdfrwt>
<totfact> 0.18172845E+03</totfact>
</mgrwt>
</event>
<event>
 4    1  0.8142558E-001  0.1879154E+03  0.7546771E-02  0.1160355E+00
          1   -1    0    0  502    0  0.00000000000E+00  0.00000000000E+00  0.25075862510E+03  0.25075862510E+03  0.00000000000E+00 0. -1.
         -1   -1    0    0    0  501 -0.00000000000E+00 -0.00000000000E+00 -0.18462900460E+03  0.18462900460E+03  0.00000000000E+00 0.  1.
          6    1    1    2  502    0  0.58862701873E+02  0.43799108121E+02  0.13910509883E+03  0.23379993170E+03  0.17300000000E+03 0. -1.
         -6    1    1    2    0  501 -0.58862701873E+02 -0.43799108121E+02 -0.72975478338E+02  0.20158769799E+03  0.17300000000E+03 0.  1.
<mgrwt>
<rscale>  2 0.18791535E+03</rscale>
<asrwt>0</asrwt>
<pdfrwt beam="1">  1        1 0.38578250E-01 0.18791535E+03</pdfrwt>
<pdfrwt beam="2">  1       -1 0.28404462E-01 0.18791535E+03</pdfrwt>
<totfact> 0.12273204E+03</totfact>
</mgrwt>
</event>
<event>
 4    1  0.8142558E-001  0.1751459E+03  0.7546771E-02  0.1172585E+00
          1   -1    0    0  502    0  0.00000000000E+00  0.00000000000E+00  0.16398862242E+03  0.16398862242E+03  0.00000000000E+00 0. -1.
         -1   -1    0    0    0  501 -0.00000000000E+00 -0.00000000000E+00 -0.28303783030E+03  0.28303783030E+03  0.00000000000E+00 0.  1.
          6    1    1    2  502    0 -0.17155391176E+02  0.21278864850E+02  0.70630476585E+02  0.18885116298E+03  0.17300000000E+03 0. -1.
         -6    1    1    2    0  501  0.17155391176E+02 -0.21278864850E+02 -0.18967968447E+03  0.25817528975E+03  0.17300000000E+03 0.  1.
<mgrwt>
<rscale>  2 0.17514593E+03</rscale>
<asrwt>0</asrwt>
<pdfrwt beam="1">  1        1 0.25229019E-01 0.17514593E+03</pdfrwt>
<pdfrwt beam="2">  1       -1 0.43544281E-01 0.17514593E+03</pdfrwt>
<totfact> 0.99633371E+02</totfact>
</mgrwt>
</event>
<event>
 4    1  0.8142558E-001  0.2607477E+03  0.7546771E-02  0.1106695E+00
         -2   -1    0    0    0  501 -0.00000000000E+00  0.00000000000E+00  0.65781294952E+02  0.65781294952E+02  0.00000000000E+00 0.  1.
          2   -1    0    0  502    0  0.00000000000E+00 -0.00000000000E+00 -0.12668095420E+04  0.12668095420E+04  0.00000000000E+00 0. -1.
          6    1    1    2  502    0  0.33058348514E+02 -0.19226936937E+03 -0.31461343519E+03  0.40862082473E+03  0.17300000000E+03 0.  1.
         -6    1    1    2    0  501 -0.33058348514E+02  0.19226936937E+03 -0.88641481190E+03  0.92397001226E+03  0.17300000000E+03 0. -1.
<mgrwt>
<rscale>  2 0.26074770E+03</rscale>
<asrwt>0</asrwt>
<pdfrwt beam="2">  1        2 0.19489378E+00 0.26074770E+03</pdfrwt>
<pdfrwt beam="1">  1       -2 0.10120199E-01 0.26074770E+03</pdfrwt>
<totfact> 0.11942518E+03</totfact>
</mgrwt>
</event>
<event>
 4    1  0.8142558E-001  0.1995127E+03  0.7546771E-02  0.1150151E+00
         -1   -1    0    0    0  501 -0.00000000000E+00  0.00000000000E+00  0.47990533407E+03  0.47990533407E+03  0.00000000000E+00 0. -1.
          1   -1    0    0  502    0  0.00000000000E+00 -0.00000000000E+00 -0.84379869956E+02  0.84379869956E+02  0.00000000000E+00 0.  1.
          6    1    1    2  502    0 -0.47589288708E+02  0.87244279939E+02  0.16095871583E+03  0.25634549535E+03  0.17300000000E+03 0. -1.
         -6    1    1    2    0  501  0.47589288708E+02 -0.87244279939E+02  0.23456674828E+03  0.30793970868E+03  0.17300000000E+03 0.  1.
<mgrwt>
<rscale>  2 0.19951267E+03</rscale>
<asrwt>0</asrwt>
<pdfrwt beam="2">  1        1 0.12981519E-01 0.19951267E+03</pdfrwt>
<pdfrwt beam="1">  1       -1 0.73831588E-01 0.19951267E+03</pdfrwt>
<totfact> 0.86589637E+02</totfact>
</mgrwt>
</event>
<event>
 4    1  0.8142558E-001  0.2086339E+03  0.7546771E-02  0.1142652E+00
         -2   -1    0    0    0  501 -0.00000000000E+00  0.00000000000E+00  0.38227731303E+02  0.38227731303E+02  0.00000000000E+00 0.  1.
          2   -1    0    0  502    0  0.00000000000E+00 -0.00000000000E+00 -0.11386556928E+04  0.11386556928E+04  0.00000000000E+00 0. -1.
          6    1    1    2  502    0 -0.81312314981E+01  0.11633130978E+03 -0.55124377278E+03  0.58940460432E+03  0.17300000000E+03 0.  1.
         -6    1    1    2    0  501  0.81312314981E+01 -0.11633130978E+03 -0.54918418873E+03  0.58747881980E+03  0.17300000000E+03 0.  1.
<mgrwt>
<rscale>  2 0.20863387E+03</rscale>
<asrwt>0</asrwt>
<pdfrwt beam="2">  1        2 0.17517776E+00 0.20863387E+03</pdfrwt>
<pdfrwt beam="1">  1       -2 0.58811906E-02 0.20863387E+03</pdfrwt>
<totfact> 0.32925606E+03</totfact>
</mgrwt>
</event>
<event>
 4    1  0.8142558E-001  0.1880524E+03  0.7546771E-02  0.1160230E+00
          1   -1    0    0  502    0  0.00000000000E+00  0.00000000000E+00  0.28207479244E+04  0.28207479244E+04  0.00000000000E+00 0.  1.
         -1   -1    0    0    0  501 -0.00000000000E+00 -0.00000000000E+00 -0.13420472102E+02  0.13420472102E+02  0.00000000000E+00 0. -1.
          6    1    1    2  502    0 -0.54702539138E+02 -0.49419958617E+02  0.10400756537E+04  0.10569394806E+04  0.17300000000E+03 0. -1.
         -6    1    1    2    0  501  0.54702539138E+02  0.49419958617E+02  0.17672517986E+04  0.17772289160E+04  0.17300000000E+03 0. -1.
<mgrwt>
<rscale>  2 0.18805239E+03</rscale>
<asrwt>0</asrwt>
<pdfrwt beam="1">  1        1 0.43396075E+00 0.18805239E+03</pdfrwt>
<pdfrwt beam="2">  1       -1 0.20646903E-02 0.18805239E+03</pdfrwt>
<totfact> 0.63935563E+02</totfact>
</mgrwt>
</event>
<event>
 4    1  0.8142558E-001  0.2348815E+03  0.7546771E-02  0.1123250E+00
          3   -1    0    0  502    0  0.00000000000E+00  0.00000000000E+00  0.99505905061E+02  0.99505905061E+02  0.00000000000E+00 0.  1.
         -3   -1    0    0    0  501 -0.00000000000E+00 -0.00000000000E+00 -0.56652102314E+03  0.56652102314E+03  0.00000000000E+00 0. -1.
          6    1    1    2  502    0 -0.22195377350E+02  0.15731395017E+03 -0.18486243450E+03  0.29890371925E+03  0.17300000000E+03 0. -1.
         -6    1    1    2    0  501  0.22195377350E+02 -0.15731395017E+03 -0.28215268358E+03  0.36712320895E+03  0.17300000000E+03 0.  1.
<mgrwt>
<rscale>  2 0.23488149E+03</rscale>
<asrwt>0</asrwt>
<pdfrwt beam="1">  1        3 0.15308601E-01 0.23488149E+03</pdfrwt>
<pdfrwt beam="2">  1       -3 0.87157079E-01 0.23488149E+03</pdfrwt>
<totfact> 0.10953899E+02</totfact>
</mgrwt>
</event>
<event>
 4    1  0.8142558E-001  0.1899302E+03  0.7546771E-02  0.1158524E+00
         -2   -1    0    0    0  501 -0.00000000000E+00  0.00000000000E+00  0.65994254486E+02  0.65994254486E+02  0.00000000000E+00 0. -1.
          2   -1    0    0  502    0  0.00000000000E+00 -0.00000000000E+00 -0.92426233338E+03  0.92426233338E+03  0.00000000000E+00 0.  1.
          6    1    1    2  502    0 -0.78383154606E+02 -0.74037980093E+00 -0.11264172037E+03  0.22082034385E+03  0.17300000000E+03 0. -1.
         -6    1    1    2    0  501  0.78383154606E+02  0.74037980093E+00 -0.74562635852E+03  0.76943624402E+03  0.17300000000E+03 0.  1.
<mgrwt>
<rscale>  2 0.18993016E+03</rscale>
<asrwt>0</asrwt>
<pdfrwt beam="2">  1        2 0.14219418E+00 0.18993016E+03</pdfrwt>
<pdfrwt beam="1">  1       -2 0.10152964E-01 0.18993016E+03</pdfrwt>
<totfact> 0.18909422E+03</totfact>
</mgrwt>
</event>
<event>
 4    1  0.8142558E-001  0.5686835E+03  0.7546771E-02  0.9972596E-01
          1   -1    0    0  502    0  0.00000000000E+00  0.00000000000E+00  0.17899938699E+04  0.17899938699E+04  0.00000000000E+00 0.  1.
         -1   -1    0    0    0  501 -0.00000000000E+00 -0.00000000000E+00 -0.18074650740E+03  0.18074650740E+03  0.00000000000E+00 0. -1.
          6    1    1    2  502    0 -0.39086224394E+03 -0.37509821422E+03  0.78455695936E+03  0.96898430665E+03  0.17300000000E+03 0. -1.
         -6    1    1    2    0  501  0.39086224394E+03  0.37509821422E+03  0.82469040311E+03  0.10017560706E+04  0.17300000000E+03 0.  1.
<mgrwt>
<rscale>  2 0.56868354E+03</rscale>
<asrwt>0</asrwt>
<pdfrwt beam="1">  1        1 0.27538366E+00 0.56868354E+03</pdfrwt>
<pdfrwt beam="2">  1       -1 0.27807156E-01 0.56868354E+03</pdfrwt>
<totfact> 0.50908863E+01</totfact>
</mgrwt>
</event>
<event>
 4    1  0.8142558E-001  0.2549430E+03  0.7546771E-02  0.1110220E+00
          3   -1    0    0  502    0  0.00000000000E+00  0.00000000000E+00  0.71775376481E+03  0.71775376481E+03  0.00000000000E+00 0. -1.
         -3   -1    0    0    0  501 -0.00000000000E+00 -0.00000000000E+00 -0.91459676004E+02  0.91459676004E+02  0.00000000000E+00 0.  1.
          6    1    1    2  502    0 -0.11170411488E+03  0.15029684496E+03  0.35339515273E+03  0.43575691028E+03  0.17300000000E+03 0. -1.
         -6    1    1    2    0  501  0.11170411488E+03 -0.15029684496E+03  0.27289893608E+03  0.37345653054E+03  0.17300000000E+03 0.  1.
<mgrwt>
<rscale>  2 0.25494303E+03</rscale>
<asrwt>0</asrwt>
<pdfrwt beam="1">  1        3 0.11042365E+00 0.25494303E+03</pdfrwt>
<pdfrwt beam="2">  1       -3 0.14070720E-01 0.25494303E+03</pdfrwt>
<totfact> 0.74336565E+01</totfact>
</mgrwt>
</event>
<event>
 4    1  0.8142558E-001  0.4682203E+03  0.7546771E-02  0.1022424E+00
         -1   -1    0    0    0  501 -0.00000000000E+00  0.00000000000E+00  0.34833518038E+03  0.34833518038E+03  0.00000000000E+00 0. -1.
          1   -1    0    0  502    0  0.00000000000E+00 -0.00000000000E+00 -0.69708110769E+03  0.69708110769E+03  0.00000000000E+00 0.  1.
          6    1    1    2  502    0 -0.39605014026E+03  0.18012640461E+03 -0.11457927376E+02  0.46836045877E+03  0.17300000000E+03 0. -1.
         -6    1    1    2    0  501  0.39605014026E+03 -0.18012640461E+03 -0.33728799993E+03  0.57705582930E+03  0.17300000000E+03 0.  1.
<mgrwt>
<rscale>  2 0.46822028E+03</rscale>
<asrwt>0</asrwt>
<pdfrwt beam="2">  1        1 0.10724325E+00 0.46822028E+03</pdfrwt>
<pdfrwt beam="1">  1       -1 0.53590028E-01 0.46822028E+03</pdfrwt>
<totfact> 0.10065919E+02</totfact>
</mgrwt>
</event>
<event>
 4    1  0.8142558E-001  0.1786529E+03  0.7546771E-02  0.1169113E+00
          2   -1    0    0  502    0  0.00000000000E+00  0.00000000000E+00  0.13177511499E+04  0.13177511499E+04  0.00000000000E+00 0. -1.
         -2   -1    0    0    0  501 -0.00000000000E+00 -0.00000000000E+00 -0.25974364009E+02  0.25974364009E+02  0.00000000000E+00 0.  1.
          6    1    1    2  502    0  0.40078934258E+02 -0.19533278033E+02  0.82046253844E+03  0.83968782706E+03  0.17300000000E+03 0. -1.
         -6    1    1    2    0  501 -0.40078934258E+02  0.19533278033E+02  0.47131424750E+03  0.50403768690E+03  0.17300000000E+03 0. -1.
<mgrwt>
<rscale>  2 0.17865293E+03</rscale>
<asrwt>0</asrwt>
<pdfrwt beam="1">  1        2 0.20273089E+00 0.17865293E+03</pdfrwt>
<pdfrwt beam="2">  1       -2 0.39960570E-02 0.17865293E+03</pdfrwt>
<totfact> 0.46785088E+03</totfact>
</mgrwt>
</event>
<event>
 4    1  0.8142558E-001  0.3464338E+03  0.7546771E-02  0.1064088E+00
          2   -1    0    0  502    0  0.00000000000E+00  0.00000000000E+00  0.70635509665E+03  0.70635509665E+03  0.00000000000E+00 0. -1.
         -2   -1    0    0    0  501 -0.00000000000E+00 -0.00000000000E+00 -0.17098237934E+03  0.17098237934E+03  0.00000000000E+00 0.  1.
          6    1    1    2  502    0  0.29934001046E+03 -0.21975628229E+02  0.23293619558E+03  0.41746334128E+03  0.17300000000E+03 0.  1.
         -6    1    1    2    0  501 -0.29934001046E+03  0.21975628229E+02  0.30243652173E+03  0.45987413471E+03  0.17300000000E+03 0. -1.
<mgrwt>
<rscale>  2 0.34643379E+03</rscale>
<asrwt>0</asrwt>
<pdfrwt beam="1">  1        2 0.10867001E+00 0.34643379E+03</pdfrwt>
<pdfrwt beam="2">  1       -2 0.26304982E-01 0.34643379E+03</pdfrwt>
<totfact> 0.53918407E+02</totfact>
</mgrwt>
</event>
<event>
 4    1  0.8142558E-001  0.2036375E+03  0.7546771E-02  0.1146706E+00
          2   -1    0    0  502    0  0.00000000000E+00  0.00000000000E+00  0.33181720348E+04  0.33181720348E+04  0.00000000000E+00 0. -1.
         -2   -1    0    0    0  501 -0.00000000000E+00 -0.00000000000E+00 -0.17762427897E+02  0.17762427897E+02  0.00000000000E+00 0.  1.
          6    1    1    2  502    0 -0.10257200169E+03 -0.31909626128E+02  0.25583184695E+04  0.25664102617E+04  0.17300000000E+03 0. -1.
         -6    1    1    2    0  501  0.10257200169E+03  0.31909626128E+02  0.74209113739E+03  0.76952420103E+03  0.17300000000E+03 0.  1.
<mgrwt>
<rscale>  2 0.20363752E+03</rscale>
<asrwt>0</asrwt>
<pdfrwt beam="1">  1        2 0.51048751E+00 0.20363752E+03</pdfrwt>
<pdfrwt beam="2">  1       -2 0.27326839E-02 0.20363752E+03</pdfrwt>
<totfact> 0.65933987E+02</totfact>
</mgrwt>
</event>
<event>
 4    1  0.8142558E-001  0.2598483E+03  0.7546771E-02  0.1107234E+00
         -1   -1    0    0    0  501 -0.00000000000E+00  0.00000000000E+00  0.85520265584E+02  0.85520265584E+02  0.00000000000E+00 0.  1.
          1   -1    0    0  502    0  0.00000000000E+00 -0.00000000000E+00 -0.79005262258E+03  0.79005262258E+03  0.00000000000E+00 0. -1.
          6    1    1    2  502    0  0.48894335307E+02  0.18762054218E+03 -0.36348698124E+03  0.44681529675E+03  0.17300000000E+03 0. -1.
         -6    1    1    2    0  501 -0.48894335307E+02 -0.18762054218E+03 -0.34104537575E+03  0.42875759141E+03  0.17300000000E+03 0.  1.
<mgrwt>
<rscale>  2 0.25984827E+03</rscale>
<asrwt>0</asrwt>
<pdfrwt beam="2">  1        1 0.12154656E+00 0.25984827E+03</pdfrwt>
<pdfrwt beam="1">  1       -1 0.13156964E-01 0.25984827E+03</pdfrwt>
<totfact> 0.93261677E+02</totfact>
</mgrwt>
</event>
<event>
 4    1  0.8142558E-001  0.1825629E+03  0.7546771E-02  0.1165345E+00
          3   -1    0    0  502    0  0.00000000000E+00  0.00000000000E+00  0.29041920129E+03  0.29041920129E+03  0.00000000000E+00 0. -1.
         -3   -1    0    0    0  501 -0.00000000000E+00 -0.00000000000E+00 -0.13852173236E+03  0.13852173236E+03  0.00000000000E+00 0.  1.
          6    1    1    2  502    0  0.52930073169E+02  0.24466598422E+02  0.16477176292E+03  0.24592466517E+03  0.17300000000E+03 0. -1.
         -6    1    1    2    0  501 -0.52930073169E+02 -0.24466598422E+02 -0.12874293992E+02  0.18301626848E+03  0.17300000000E+03 0.  1.
<mgrwt>
<rscale>  2 0.18256289E+03</rscale>
<asrwt>0</asrwt>
<pdfrwt beam="1">  1        3 0.44679877E-01 0.18256289E+03</pdfrwt>
<pdfrwt beam="2">  1       -3 0.21311036E-01 0.18256289E+03</pdfrwt>
<totfact> 0.24234536E+02</totfact>
</mgrwt>
</event>
<event>
 4    1  0.8142558E-001  0.1970998E+03  0.7546771E-02  0.1152209E+00
          3   -1    0    0  502    0  0.00000000000E+00  0.00000000000E+00  0.73239543813E+02  0.73239543813E+02  0.00000000000E+00 0.  1.
         -3   -1    0    0    0  501 -0.00000000000E+00 -0.00000000000E+00 -0.53567169335E+03  0.53567169335E+03  0.00000000000E+00 0. -1.
          6    1    1    2  502    0  0.27527662815E+02 -0.90341345100E+02 -0.26133770858E+03  0.32733122183E+03  0.17300000000E+03 0. -1.
         -6    1    1    2    0  501 -0.27527662815E+02  0.90341345100E+02 -0.20109444095E+03  0.28158001533E+03  0.17300000000E+03 0.  1.
<mgrwt>
<rscale>  2 0.19709980E+03</rscale>
<asrwt>0</asrwt>
<pdfrwt beam="1">  1        3 0.11267622E-01 0.19709980E+03</pdfrwt>
<pdfrwt beam="2">  1       -3 0.82411027E-01 0.19709980E+03</pdfrwt>
<totfact> 0.20578315E+02</totfact>
</mgrwt>
</event>
<event>
 4    1  0.8142558E-001  0.1911266E+03  0.7546771E-02  0.1157449E+00
         -2   -1    0    0    0  501 -0.00000000000E+00  0.00000000000E+00  0.93242546564E+03  0.93242546564E+03  0.00000000000E+00 0.  1.
          2   -1    0    0  502    0  0.00000000000E+00 -0.00000000000E+00 -0.45725332678E+02  0.45725332678E+02  0.00000000000E+00 0. -1.
          6    1    1    2  502    0 -0.48918620978E+02  0.64864004019E+02  0.25826470771E+03  0.32129430394E+03  0.17300000000E+03 0. -1.
         -6    1    1    2    0  501  0.48918620978E+02 -0.64864004019E+02  0.62843542525E+03  0.65685649437E+03  0.17300000000E+03 0.  1.
<mgrwt>
<rscale>  2 0.19112658E+03</rscale>
<asrwt>0</asrwt>
<pdfrwt beam="2">  1        2 0.70346673E-02 0.19112658E+03</pdfrwt>
<pdfrwt beam="1">  1       -2 0.14345006E+00 0.19112658E+03</pdfrwt>
<totfact> 0.35508321E+02</totfact>
</mgrwt>
</event>
<event>
 4    1  0.8142558E-001  0.1895297E+03  0.7546771E-02  0.1158886E+00
          2   -1    0    0  502    0  0.00000000000E+00  0.00000000000E+00  0.55028229139E+03  0.55028229139E+03  0.00000000000E+00 0.  1.
         -2   -1    0    0    0  501 -0.00000000000E+00 -0.00000000000E+00 -0.65444425688E+02  0.65444425688E+02  0.00000000000E+00 0. -1.
          6    1    1    2  502    0 -0.47910492599E+02  0.60803704740E+02  0.22690905231E+03  0.29565050961E+03  0.17300000000E+03 0.  1.
         -6    1    1    2    0  501  0.47910492599E+02 -0.60803704740E+02  0.25792881339E+03  0.32007620747E+03  0.17300000000E+03 0. -1.
<mgrwt>
<rscale>  2 0.18952970E+03</rscale>
<asrwt>0</asrwt>
<pdfrwt beam="1">  1        2 0.84658811E-01 0.18952970E+03</pdfrwt>
<pdfrwt beam="2">  1       -2 0.10068374E-01 0.18952970E+03</pdfrwt>
<totfact> 0.36055475E+03</totfact>
</mgrwt>
</event>
<event>
 4    1  0.8142558E-001  0.2190053E+03  0.7546771E-02  0.1134627E+00
         -2   -1    0    0    0  501 -0.00000000000E+00  0.00000000000E+00  0.40588595984E+02  0.40588595984E+02  0.00000000000E+00 0. -1.
          2   -1    0    0  502    0  0.00000000000E+00 -0.00000000000E+00 -0.11844019349E+04  0.11844019349E+04  0.00000000000E+00 0.  1.
          6    1    1    2  502    0 -0.13085630665E+03  0.30182112243E+02 -0.60118915746E+03  0.63983727302E+03  0.17300000000E+03 0. -1.
         -6    1    1    2    0  501  0.13085630665E+03 -0.30182112243E+02 -0.54262418141E+03  0.58515325782E+03  0.17300000000E+03 0.  1.
<mgrwt>
<rscale>  2 0.21900533E+03</rscale>
<asrwt>0</asrwt>
<pdfrwt beam="2">  1        2 0.18221565E+00 0.21900533E+03</pdfrwt>
<pdfrwt beam="1">  1       -2 0.62444003E-02 0.21900533E+03</pdfrwt>
<totfact> 0.28299204E+03</totfact>
</mgrwt>
</event>
<event>
 4    1  0.8142558E-001  0.1801634E+03  0.7546771E-02  0.1167645E+00
         -1   -1    0    0    0  501 -0.00000000000E+00  0.00000000000E+00  0.29238087017E+02  0.29238087017E+02  0.00000000000E+00 0.  1.
          1   -1    0    0  502    0  0.00000000000E+00 -0.00000000000E+00 -0.11346547654E+04  0.11346547654E+04  0.00000000000E+00 0. -1.
          6    1    1    2  502    0  0.13314706334E+02  0.48503287758E+02 -0.46719784527E+03  0.50073214092E+03  0.17300000000E+03 0.  1.
         -6    1    1    2    0  501 -0.13314706334E+02 -0.48503287758E+02 -0.63821883307E+03  0.66316071145E+03  0.17300000000E+03 0.  1.
<mgrwt>
<rscale>  2 0.18016340E+03</rscale>
<asrwt>0</asrwt>
<pdfrwt beam="2">  1        1 0.17456230E+00 0.18016340E+03</pdfrwt>
<pdfrwt beam="1">  1       -1 0.44981665E-02 0.18016340E+03</pdfrwt>
<totfact> 0.26135433E+03</totfact>
</mgrwt>
</event>
<event>
 4    1  0.8142558E-001  0.1852172E+03  0.7546771E-02  0.1162847E+00
          1   -1    0    0  502    0  0.00000000000E+00  0.00000000000E+00  0.74961247456E+03  0.74961247456E+03  0.00000000000E+00 0.  1.
         -1   -1    0    0    0  501 -0.00000000000E+00 -0.00000000000E+00 -0.57191304951E+02  0.57191304951E+02  0.00000000000E+00 0. -1.
          6    1    1    2  502    0 -0.36909958072E+02 -0.54900581318E+02  0.16589181265E+03  0.24864736544E+03  0.17300000000E+03 0. -1.
         -6    1    1    2    0  501  0.36909958072E+02  0.54900581318E+02  0.52652935696E+03  0.55815641407E+03  0.17300000000E+03 0.  1.
<mgrwt>
<rscale>  2 0.18521722E+03</rscale>
<asrwt>0</asrwt>
<pdfrwt beam="1">  1        1 0.11532499E+00 0.18521722E+03</pdfrwt>
<pdfrwt beam="2">  1       -1 0.87986628E-02 0.18521722E+03</pdfrwt>
<totfact> 0.18815119E+03</totfact>
</mgrwt>
</event>
<event>
 4    1  0.8142558E-001  0.2589157E+03  0.7546771E-02  0.1107796E+00
          2   -1    0    0  502    0  0.00000000000E+00  0.00000000000E+00  0.72034709398E+03  0.72034709398E+03  0.00000000000E+00 0.  1.
         -2   -1    0    0    0  501 -0.00000000000E+00 -0.00000000000E+00 -0.95971808683E+02  0.95971808683E+02  0.00000000000E+00 0. -1.
          6    1    1    2  502    0  0.16263074178E+03  0.10324536930E+03  0.38325110926E+03  0.46251354272E+03  0.17300000000E+03 0.  1.
         -6    1    1    2    0  501 -0.16263074178E+03 -0.10324536930E+03  0.24112417603E+03  0.35380535994E+03  0.17300000000E+03 0. -1.
<mgrwt>
<rscale>  2 0.25891575E+03</rscale>
<asrwt>0</asrwt>
<pdfrwt beam="1">  1        2 0.11082263E+00 0.25891575E+03</pdfrwt>
<pdfrwt beam="2">  1       -2 0.14764894E-01 0.25891575E+03</pdfrwt>
<totfact> 0.14229339E+03</totfact>
</mgrwt>
</event>
<event>
 4    1  0.8142558E-001  0.2824565E+03  0.7546771E-02  0.1094355E+00
          1   -1    0    0  502    0  0.00000000000E+00  0.00000000000E+00  0.11841601622E+04  0.11841601622E+04  0.00000000000E+00 0.  1.
         -1   -1    0    0    0  501 -0.00000000000E+00 -0.00000000000E+00 -0.71411383278E+02  0.71411383278E+02  0.00000000000E+00 0. -1.
          6    1    1    2  502    0 -0.17994299267E+03 -0.13218611871E+03  0.40710328506E+03  0.49549443518E+03  0.17300000000E+03 0.  1.
         -6    1    1    2    0  501  0.17994299267E+03  0.13218611871E+03  0.70564549388E+03  0.76007711031E+03  0.17300000000E+03 0. -1.
<mgrwt>
<rscale>  2 0.28245646E+03</rscale>
<asrwt>0</asrwt>
<pdfrwt beam="1">  1        1 0.18217847E+00 0.28245646E+03</pdfrwt>
<pdfrwt beam="2">  1       -1 0.10986368E-01 0.28245646E+03</pdfrwt>
<totfact> 0.61939266E+02</totfact>
</mgrwt>
</event>
<event>
 4    1  0.8142558E-001  0.2395370E+03  0.7546771E-02  0.1120102E+00
          3   -1    0    0  502    0  0.00000000000E+00  0.00000000000E+00  0.32019756763E+03  0.32019756763E+03  0.00000000000E+00 0.  1.
         -3   -1    0    0    0  501 -0.00000000000E+00 -0.00000000000E+00 -0.22197910203E+03  0.22197910203E+03  0.00000000000E+00 0. -1.
          6    1    1    2  502    0 -0.16532579091E+03 -0.10785943768E+02  0.16812201514E+03  0.29264819442E+03  0.17300000000E+03 0.  1.
         -6    1    1    2    0  501  0.16532579091E+03  0.10785943768E+02 -0.69903549537E+02  0.24952847525E+03  0.17300000000E+03 0. -1.
<mgrwt>
<rscale>  2 0.23953696E+03</rscale>
<asrwt>0</asrwt>
<pdfrwt beam="1">  1        3 0.49261164E-01 0.23953696E+03</pdfrwt>
<pdfrwt beam="2">  1       -3 0.34150631E-01 0.23953696E+03</pdfrwt>
<totfact> 0.85893439E+01</totfact>
</mgrwt>
</event>
<event>
 4    1  0.8142558E-001  0.2042943E+03  0.7546771E-02  0.1146166E+00
         -1   -1    0    0    0  501 -0.00000000000E+00  0.00000000000E+00  0.48268546417E+02  0.48268546417E+02  0.00000000000E+00 0. -1.
          1   -1    0    0  502    0  0.00000000000E+00 -0.00000000000E+00 -0.86651184713E+03  0.86651184713E+03  0.00000000000E+00 0.  1.
          6    1    1    2  502    0  0.53875970809E+02 -0.94363801624E+02 -0.43023490296E+03  0.47627536049E+03  0.17300000000E+03 0.  1.
         -6    1    1    2    0  501 -0.53875970809E+02  0.94363801624E+02 -0.38800839775E+03  0.43850503305E+03  0.17300000000E+03 0. -1.
<mgrwt>
<rscale>  2 0.20429427E+03</rscale>
<asrwt>0</asrwt>
<pdfrwt beam="2">  1        1 0.13330951E+00 0.20429427E+03</pdfrwt>
<pdfrwt beam="1">  1       -1 0.74259305E-02 0.20429427E+03</pdfrwt>
<totfact> 0.19533996E+03</totfact>
</mgrwt>
</event>
<event>
 4    1  0.8142558E-001  0.1967098E+03  0.7546771E-02  0.1152545E+00
         -1   -1    0    0    0  501 -0.00000000000E+00  0.00000000000E+00  0.45742558474E+03  0.45742558474E+03  0.00000000000E+00 0.  1.
          1   -1    0    0  502    0  0.00000000000E+00 -0.00000000000E+00 -0.11431586779E+03  0.11431586779E+03  0.00000000000E+00 0. -1.
          6    1    1    2  502    0  0.47639492268E+02  0.80599256182E+02  0.31732401235E+03  0.37334875135E+03  0.17300000000E+03 0.  1.
         -6    1    1    2    0  501 -0.47639492268E+02 -0.80599256182E+02  0.25785704597E+02  0.19839270118E+03  0.17300000000E+03 0. -1.
<mgrwt>
<rscale>  2 0.19670984E+03</rscale>
<asrwt>0</asrwt>
<pdfrwt beam="2">  1        1 0.17587057E-01 0.19670984E+03</pdfrwt>
<pdfrwt beam="1">  1       -1 0.70373166E-01 0.19670984E+03</pdfrwt>
<totfact> 0.64089602E+02</totfact>
</mgrwt>
</event>
<event>
 4    1  0.8142558E-001  0.1813857E+03  0.7546771E-02  0.1166469E+00
          3   -1    0    0  502    0  0.00000000000E+00  0.00000000000E+00  0.70635675469E+03  0.70635675469E+03  0.00000000000E+00 0.  1.
         -3   -1    0    0    0  501 -0.00000000000E+00 -0.00000000000E+00 -0.52840264893E+02  0.52840264893E+02  0.00000000000E+00 0. -1.
          6    1    1    2  502    0  0.88463911519E+01 -0.53791485099E+02  0.19608010852E+03  0.26711082243E+03  0.17300000000E+03 0. -1.
         -6    1    1    2    0  501 -0.88463911519E+01  0.53791485099E+02  0.45743638128E+03  0.49208619715E+03  0.17300000000E+03 0.  1.
<mgrwt>
<rscale>  2 0.18138573E+03</rscale>
<asrwt>0</asrwt>
<pdfrwt beam="1">  1        3 0.10867026E+00 0.18138573E+03</pdfrwt>
<pdfrwt beam="2">  1       -3 0.81292721E-02 0.18138573E+03</pdfrwt>
<totfact> 0.18800788E+02</totfact>
</mgrwt>
</event>
<event>
 4    1  0.8142558E-001  0.1812179E+03  0.7546771E-02  0.1166630E+00
          2   -1    0    0  502    0  0.00000000000E+00  0.00000000000E+00  0.28944725016E+04  0.28944725016E+04  0.00000000000E+00 0.  1.
         -2   -1    0    0    0  501 -0.00000000000E+00 -0.00000000000E+00 -0.11488260288E+02  0.11488260288E+02  0.00000000000E+00 0. -1.
          6    1    1    2  502    0  0.16978950580E+02 -0.51211827158E+02  0.12796583747E+04  0.12924262037E+04  0.17300000000E+03 0.  1.
         -6    1    1    2    0  501 -0.16978950580E+02  0.51211827158E+02  0.16033258666E+04  0.16135345582E+04  0.17300000000E+03 0.  1.
<mgrwt>
<rscale>  2 0.18121792E+03</rscale>
<asrwt>0</asrwt>
<pdfrwt beam="1">  1        2 0.44530288E+00 0.18121792E+03</pdfrwt>
<pdfrwt beam="2">  1       -2 0.17674270E-02 0.18121792E+03</pdfrwt>
<totfact> 0.22544777E+03</totfact>
</mgrwt>
</event>
<event>
 4    1  0.8142558E-001  0.2441446E+03  0.7546771E-02  0.1117062E+00
          2   -1    0    0  502    0  0.00000000000E+00  0.00000000000E+00  0.23146078434E+03  0.23146078434E+03  0.00000000000E+00 0.  1.
         -2   -1    0    0    0  501 -0.00000000000E+00 -0.00000000000E+00 -0.30352745804E+03  0.30352745804E+03  0.00000000000E+00 0. -1.
          6    1    1    2  502    0 -0.14818133424E+03  0.87862704642E+02 -0.14017234386E+03  0.28152237685E+03  0.17300000000E+03 0. -1.
         -6    1    1    2    0  501  0.14818133424E+03 -0.87862704642E+02  0.68105670153E+02  0.25346586553E+03  0.17300000000E+03 0.  1.
<mgrwt>
<rscale>  2 0.24414455E+03</rscale>
<asrwt>0</asrwt>
<pdfrwt beam="1">  1        2 0.35609351E-01 0.24414455E+03</pdfrwt>
<pdfrwt beam="2">  1       -2 0.46696532E-01 0.24414455E+03</pdfrwt>
<totfact> 0.64033858E+02</totfact>
</mgrwt>
</event>
<event>
 4    1  0.8142558E-001  0.1746492E+03  0.7546771E-02  0.1173084E+00
          1   -1    0    0  502    0  0.00000000000E+00  0.00000000000E+00  0.17625585483E+04  0.17625585483E+04  0.00000000000E+00 0.  1.
         -1   -1    0    0    0  501 -0.00000000000E+00 -0.00000000000E+00 -0.18287384840E+02  0.18287384840E+02  0.00000000000E+00 0. -1.
          6    1    1    2  502    0 -0.23347179742E+02 -0.53160199743E+01  0.66583455123E+03  0.68835891836E+03  0.17300000000E+03 0.  1.
         -6    1    1    2    0  501  0.23347179742E+02  0.53160199743E+01  0.10784366122E+04  0.10924870147E+04  0.17300000000E+03 0.  1.
<mgrwt>
<rscale>  2 0.17464922E+03</rscale>
<asrwt>0</asrwt>
<pdfrwt beam="1">  1        1 0.27116272E+00 0.17464922E+03</pdfrwt>
<pdfrwt beam="2">  1       -1 0.28134452E-02 0.17464922E+03</pdfrwt>
<totfact> 0.19990856E+03</totfact>
</mgrwt>
</event>
<event>
 4    1  0.8142558E-001  0.2237305E+03  0.7546771E-02  0.1131132E+00
          3   -1    0    0  502    0  0.00000000000E+00  0.00000000000E+00  0.72617913035E+03  0.72617913035E+03  0.00000000000E+00 0.  1.
         -3   -1    0    0    0  501 -0.00000000000E+00 -0.00000000000E+00 -0.69074503655E+02  0.69074503655E+02  0.00000000000E+00 0. -1.
          6    1    1    2  502    0  0.57281665375E+02  0.12978878352E+03  0.34675729306E+03  0.41266928382E+03  0.17300000000E+03 0.  1.
         -6    1    1    2    0  501 -0.57281665375E+02 -0.12978878352E+03  0.31034733363E+03  0.38258435019E+03  0.17300000000E+03 0.  1.
<mgrwt>
<rscale>  2 0.22373046E+03</rscale>
<asrwt>0</asrwt>
<pdfrwt beam="1">  1        3 0.11171986E+00 0.22373046E+03</pdfrwt>
<pdfrwt beam="2">  1       -3 0.10626847E-01 0.22373046E+03</pdfrwt>
<totfact> 0.11535906E+02</totfact>
</mgrwt>
</event>
<event>
 4    1  0.8142558E-001  0.2028450E+03  0.7546771E-02  0.1147361E+00
         -2   -1    0    0    0  501 -0.00000000000E+00  0.00000000000E+00  0.12263511409E+02  0.12263511409E+02  0.00000000000E+00 0. -1.
          2   -1    0    0  502    0  0.00000000000E+00 -0.00000000000E+00 -0.39711458225E+04  0.39711458225E+04  0.00000000000E+00 0.  1.
          6    1    1    2  502    0 -0.63493418074E+02 -0.84768346800E+02 -0.11950167049E+04  0.12121101483E+04  0.17300000000E+03 0. -1.
         -6    1    1    2    0  501  0.63493418074E+02  0.84768346800E+02 -0.27638656062E+04  0.27712991856E+04  0.17300000000E+03 0.  1.
<mgrwt>
<rscale>  2 0.20284498E+03</rscale>
<asrwt>0</asrwt>
<pdfrwt beam="2">  1        2 0.61094665E+00 0.20284498E+03</pdfrwt>
<pdfrwt beam="1">  1       -2 0.18866905E-02 0.20284498E+03</pdfrwt>
<totfact> 0.40634264E+02</totfact>
</mgrwt>
</event>
<event>
 4    1  0.8142558E-001  0.2476507E+03  0.7546771E-02  0.1114799E+00
          2   -1    0    0  502    0  0.00000000000E+00  0.00000000000E+00  0.95795424261E+03  0.95795424261E+03  0.00000000000E+00 0.  1.
         -2   -1    0    0    0  501 -0.00000000000E+00 -0.00000000000E+00 -0.80578880955E+02  0.80578880955E+02  0.00000000000E+00 0. -1.
          6    1    1    2  502    0  0.50892327455E+02  0.16974057136E+03  0.67406185945E+03  0.71811578518E+03  0.17300000000E+03 0.  1.
         -6    1    1    2    0  501 -0.50892327455E+02 -0.16974057136E+03  0.20331350220E+03  0.32041733838E+03  0.17300000000E+03 0. -1.
<mgrwt>
<rscale>  2 0.24765074E+03</rscale>
<asrwt>0</asrwt>
<pdfrwt beam="1">  1        2 0.14737757E+00 0.24765074E+03</pdfrwt>
<pdfrwt beam="2">  1       -2 0.12396752E-01 0.24765074E+03</pdfrwt>
<totfact> 0.13087878E+03</totfact>
</mgrwt>
</event>
<event>
 4    1  0.8142558E-001  0.1798676E+03  0.7546771E-02  0.1167931E+00
         -2   -1    0    0    0  501 -0.00000000000E+00  0.00000000000E+00  0.28190401244E+02  0.28190401244E+02  0.00000000000E+00 0.  1.
          2   -1    0    0  502    0  0.00000000000E+00 -0.00000000000E+00 -0.11525553102E+04  0.11525553102E+04  0.00000000000E+00 0. -1.
          6    1    1    2  502    0  0.47775846245E+02  0.11866964058E+02 -0.60074712782E+03  0.62709605955E+03  0.17300000000E+03 0. -1.
         -6    1    1    2    0  501 -0.47775846245E+02 -0.11866964058E+02 -0.52361778113E+03  0.55364965189E+03  0.17300000000E+03 0.  1.
<mgrwt>
<rscale>  2 0.17986761E+03</rscale>
<asrwt>0</asrwt>
<pdfrwt beam="2">  1        2 0.17731620E+00 0.17986761E+03</pdfrwt>
<pdfrwt beam="1">  1       -2 0.43369849E-02 0.17986761E+03</pdfrwt>
<totfact> 0.51121760E+03</totfact>
</mgrwt>
</event>
<event>
 4    1  0.8142558E-001  0.2565829E+03  0.7546771E-02  0.1109214E+00
         -2   -1    0    0    0  501 -0.00000000000E+00  0.00000000000E+00  0.36284604069E+03  0.36284604069E+03  0.00000000000E+00 0. -1.
          2   -1    0    0  502    0  0.00000000000E+00 -0.00000000000E+00 -0.26352012539E+03  0.26352012539E+03  0.00000000000E+00 0.  1.
          6    1    1    2  502    0  0.17340287554E+03  0.76401915721E+02 -0.12512448530E+03  0.28546619203E+03  0.17300000000E+03 0.  1.
         -6    1    1    2    0  501 -0.17340287554E+03 -0.76401915721E+02  0.22445040061E+03  0.34089997405E+03  0.17300000000E+03 0. -1.
<mgrwt>
<rscale>  2 0.25658295E+03</rscale>
<asrwt>0</asrwt>
<pdfrwt beam="2">  1        2 0.40541558E-01 0.25658295E+03</pdfrwt>
<pdfrwt beam="1">  1       -2 0.55822468E-01 0.25658295E+03</pdfrwt>
<totfact> 0.38864469E+02</totfact>
</mgrwt>
</event>
<event>
 4    1  0.8142558E-001  0.2083135E+03  0.7546771E-02  0.1142908E+00
         -1   -1    0    0    0  501 -0.00000000000E+00  0.00000000000E+00  0.42624724765E+02  0.42624724765E+02  0.00000000000E+00 0. -1.
          1   -1    0    0  502    0  0.00000000000E+00 -0.00000000000E+00 -0.10480312604E+04  0.10480312604E+04  0.00000000000E+00 0.  1.
          6    1    1    2  502    0  0.95230948265E+02 -0.66306829240E+02 -0.59492278999E+03  0.63033931748E+03  0.17300000000E+03 0. -1.
         -6    1    1    2    0  501 -0.95230948265E+02  0.66306829240E+02 -0.41048374566E+03  0.46031666770E+03  0.17300000000E+03 0.  1.
<mgrwt>
<rscale>  2 0.20831354E+03</rscale>
<asrwt>0</asrwt>
<pdfrwt beam="2">  1        1 0.16123559E+00 0.20831354E+03</pdfrwt>
<pdfrwt beam="1">  1       -1 0.65576496E-02 0.20831354E+03</pdfrwt>
<totfact> 0.17171439E+03</totfact>
</mgrwt>
</event>
<event>
 4    1  0.8142558E-001  0.1870364E+03  0.7546771E-02  0.1161162E+00
         -2   -1    0    0    0  501 -0.00000000000E+00  0.00000000000E+00  0.15190667240E+02  0.15190667240E+02  0.00000000000E+00 0. -1.
          2   -1    0    0  502    0  0.00000000000E+00 -0.00000000000E+00 -0.23053312739E+04  0.23053312739E+04  0.00000000000E+00 0.  1.
          6    1    1    2  502    0 -0.61673594526E+02 -0.35355146735E+02 -0.11074065875E+04  0.11230903654E+04  0.17300000000E+03 0.  1.
         -6    1    1    2    0  501  0.61673594526E+02  0.35355146735E+02 -0.11827340191E+04  0.11974315758E+04  0.17300000000E+03 0.  1.
<mgrwt>
<rscale>  2 0.18703641E+03</rscale>
<asrwt>0</asrwt>
<pdfrwt beam="2">  1        2 0.35466644E+00 0.18703641E+03</pdfrwt>
<pdfrwt beam="1">  1       -2 0.23370251E-02 0.18703641E+03</pdfrwt>
<totfact> 0.31516299E+03</totfact>
</mgrwt>
</event>
<event>
 4    1  0.8142558E-001  0.2001923E+03  0.7546771E-02  0.1149577E+00
          2   -1    0    0  502    0  0.00000000000E+00  0.00000000000E+00  0.25728150565E+04  0.25728150565E+04  0.00000000000E+00 0.  1.
         -2   -1    0    0    0  501 -0.00000000000E+00 -0.00000000000E+00 -0.16280323228E+02  0.16280323228E+02  0.00000000000E+00 0. -1.
          6    1    1    2  502    0 -0.35413937650E+02  0.94307097626E+02  0.15473190784E+04  0.15602157883E+04  0.17300000000E+03 0.  1.
         -6    1    1    2    0  501  0.35413937650E+02 -0.94307097626E+02  0.10092156549E+04  0.10288795915E+04  0.17300000000E+03 0. -1.
<mgrwt>
<rscale>  2 0.20019235E+03</rscale>
<asrwt>0</asrwt>
<pdfrwt beam="1">  1        2 0.39581738E+00 0.20019235E+03</pdfrwt>
<pdfrwt beam="2">  1       -2 0.25046671E-02 0.20019235E+03</pdfrwt>
<totfact> 0.20413457E+03</totfact>
</mgrwt>
</event>
<event>
 4    1  0.8142558E-001  0.1875615E+03  0.7546771E-02  0.1160679E+00
          1   -1    0    0  502    0  0.00000000000E+00  0.00000000000E+00  0.39182304848E+03  0.39182304848E+03  0.00000000000E+00 0.  1.
         -1   -1    0    0    0  501 -0.00000000000E+00 -0.00000000000E+00 -0.11645226000E+03  0.11645226000E+03  0.00000000000E+00 0. -1.
          6    1    1    2  502    0 -0.71007011505E+02 -0.14433555719E+02  0.25930254811E+03  0.32002677180E+03  0.17300000000E+03 0.  1.
         -6    1    1    2    0  501  0.71007011505E+02  0.14433555719E+02  0.16068240365E+02  0.18824853668E+03  0.17300000000E+03 0. -1.
<mgrwt>
<rscale>  2 0.18756152E+03</rscale>
<asrwt>0</asrwt>
<pdfrwt beam="1">  1        1 0.60280468E-01 0.18756152E+03</pdfrwt>
<pdfrwt beam="2">  1       -1 0.17915732E-01 0.18756152E+03</pdfrwt>
<totfact> 0.14919309E+03</totfact>
</mgrwt>
</event>
<event>
 4    1  0.8142558E-001  0.2009874E+03  0.7546771E-02  0.1148909E+00
         -1   -1    0    0    0  501 -0.00000000000E+00  0.00000000000E+00  0.40975743799E+03  0.40975743799E+03  0.00000000000E+00 0.  1.
          1   -1    0    0  502    0  0.00000000000E+00 -0.00000000000E+00 -0.10517056230E+03  0.10517056230E+03  0.00000000000E+00 0. -1.
          6    1    1    2  502    0  0.15597065245E+02  0.10111215227E+03  0.21672014660E+03  0.29557326963E+03  0.17300000000E+03 0. -1.
         -6    1    1    2    0  501 -0.15597065245E+02 -0.10111215227E+03  0.87866729100E+02  0.21935473066E+03  0.17300000000E+03 0. -1.
<mgrwt>
<rscale>  2 0.20098740E+03</rscale>
<asrwt>0</asrwt>
<pdfrwt beam="2">  1        1 0.16180087E-01 0.20098740E+03</pdfrwt>
<pdfrwt beam="1">  1       -1 0.63039605E-01 0.20098740E+03</pdfrwt>
<totfact> 0.88690585E+02</totfact>
</mgrwt>
</event>
<event>
 4    1  0.8142558E-001  0.2167697E+03  0.7546771E-02  0.1136315E+00
         -2   -1    0    0    0  501 -0.00000000000E+00  0.00000000000E+00  0.10382536458E+04  0.10382536458E+04  0.00000000000E+00 0.  1.
          2   -1    0    0  502    0  0.00000000000E+00 -0.00000000000E+00 -0.50685294303E+02  0.50685294303E+02  0.00000000000E+00 0. -1.
          6    1    1    2  502    0  0.13019994176E+03  0.10395363604E+02  0.31561533667E+03  0.38288657480E+03  0.17300000000E+03 0. -1.
         -6    1    1    2    0  501 -0.13019994176E+03 -0.10395363604E+02  0.67195301483E+03  0.70605236531E+03  0.17300000000E+03 0.  1.
<mgrwt>
<rscale>  2 0.21676967E+03</rscale>
<asrwt>0</asrwt>
<pdfrwt beam="2">  1        2 0.77977384E-02 0.21676967E+03</pdfrwt>
<pdfrwt beam="1">  1       -2 0.15973131E+00 0.21676967E+03</pdfrwt>
<totfact> 0.23606552E+02</totfact>
</mgrwt>
</event>
<event>
 4    1  0.8142558E-001  0.1881483E+03  0.7546771E-02  0.1160142E+00
          1   -1    0    0  502    0  0.00000000000E+00  0.00000000000E+00  0.20260738813E+03  0.20260738813E+03  0.00000000000E+00 0. -1.
         -1   -1    0    0    0  501 -0.00000000000E+00 -0.00000000000E+00 -0.17531351577E+03  0.17531351577E+03  0.00000000000E+00 0.  1.
          6    1    1    2  502    0  0.70123550137E+02 -0.23526135101E+02  0.24631084908E+02  0.18975373952E+03  0.17300000000E+03 0. -1.
         -6    1    1    2    0  501 -0.70123550137E+02  0.23526135101E+02  0.26627874532E+01  0.18816716439E+03  0.17300000000E+03 0. -1.
<mgrwt>
<rscale>  2 0.18814832E+03</rscale>
<asrwt>0</asrwt>
<pdfrwt beam="1">  1        1 0.31170367E-01 0.18814832E+03</pdfrwt>
<pdfrwt beam="2">  1       -1 0.26971310E-01 0.18814832E+03</pdfrwt>
<totfact> 0.17478388E+03</totfact>
</mgrwt>
</event>
<event>
 4    1  0.8142558E-001  0.1872927E+03  0.7546771E-02  0.1160926E+00
          2   -1    0    0  502    0  0.00000000000E+00  0.00000000000E+00  0.15928812006E+04  0.15928812006E+04  0.00000000000E+00 0. -1.
         -2   -1    0    0    0  501 -0.00000000000E+00 -0.00000000000E+00 -0.22504908311E+02  0.22504908311E+02  0.00000000000E+00 0.  1.
          6    1    1    2  502    0  0.68660962617E+02 -0.20862351965E+02  0.90349277798E+03  0.92270134138E+03  0.17300000000E+03 0. -1.
         -6    1    1    2    0  501 -0.68660962617E+02  0.20862351965E+02  0.66688351430E+03  0.69268476752E+03  0.17300000000E+03 0. -1.
<mgrwt>
<rscale>  2 0.18729273E+03</rscale>
<asrwt>0</asrwt>
<pdfrwt beam="1">  1        2 0.24505856E+00 0.18729273E+03</pdfrwt>
<pdfrwt beam="2">  1       -2 0.34622948E-02 0.18729273E+03</pdfrwt>
<totfact> 0.41411370E+03</totfact>
</mgrwt>
</event>
<event>
 4    1  0.8142558E-001  0.2188303E+03  0.7546771E-02  0.1134758E+00
          2   -1    0    0  502    0  0.00000000000E+00  0.00000000000E+00  0.17024319706E+04  0.17024319706E+04  0.00000000000E+00 0.  1.
         -2   -1    0    0    0  501 -0.00000000000E+00 -0.00000000000E+00 -0.50803579215E+02  0.50803579215E+02  0.00000000000E+00 0. -1.
          6    1    1    2  502    0  0.12049892974E+03  0.58632147617E+02  0.14114643927E+04  0.14283271519E+04  0.17300000000E+03 0.  1.
         -6    1    1    2    0  501 -0.12049892974E+03 -0.58632147617E+02  0.24016399861E+03  0.32490839791E+03  0.17300000000E+03 0. -1.
<mgrwt>
<rscale>  2 0.21883035E+03</rscale>
<asrwt>0</asrwt>
<pdfrwt beam="1">  1        2 0.26191257E+00 0.21883035E+03</pdfrwt>
<pdfrwt beam="2">  1       -2 0.78159365E-02 0.21883035E+03</pdfrwt>
<totfact> 0.10511394E+03</totfact>
</mgrwt>
</event>
<event>
 4    1  0.8142558E-001  0.3817059E+03  0.7546771E-02  0.1050305E+00
         -2   -1    0    0    0  501 -0.00000000000E+00  0.00000000000E+00  0.53837012416E+03  0.53837012416E+03  0.00000000000E+00 0.  1.
          2   -1    0    0  502    0  0.00000000000E+00 -0.00000000000E+00 -0.31803546695E+03  0.31803546695E+03  0.00000000000E+00 0. -1.
          6    1    1    2  502    0 -0.26616767481E+03 -0.21195553109E+03  0.27548665409E+03  0.47073588652E+03  0.17300000000E+03 0.  1.
         -6    1    1    2    0  501  0.26616767481E+03  0.21195553109E+03 -0.55151996887E+02  0.38566970459E+03  0.17300000000E+03 0. -1.
<mgrwt>
<rscale>  2 0.38170588E+03</rscale>
<asrwt>0</asrwt>
<pdfrwt beam="2">  1        2 0.48928534E-01 0.38170588E+03</pdfrwt>
<pdfrwt beam="1">  1       -2 0.82826173E-01 0.38170588E+03</pdfrwt>
<totfact> 0.13525316E+02</totfact>
</mgrwt>
</event>
<event>
 4    1  0.8142558E-001  0.2428318E+03  0.7546771E-02  0.1117921E+00
         -2   -1    0    0    0  501 -0.00000000000E+00  0.00000000000E+00  0.56096136795E+02  0.56096136795E+02  0.00000000000E+00 0.  1.
          2   -1    0    0  502    0  0.00000000000E+00 -0.00000000000E+00 -0.17543711931E+04  0.17543711931E+04  0.00000000000E+00 0. -1.
          6    1    1    2  502    0  0.82806336868E+02  0.14893412769E+03 -0.14222448629E+04  0.14428262937E+04  0.17300000000E+03 0. -1.
         -6    1    1    2    0  501 -0.82806336868E+02 -0.14893412769E+03 -0.27603019347E+03  0.36764103624E+03  0.17300000000E+03 0.  1.
<mgrwt>
<rscale>  2 0.24283176E+03</rscale>
<asrwt>0</asrwt>
<pdfrwt beam="2">  1        2 0.26990330E+00 0.24283176E+03</pdfrwt>
<pdfrwt beam="1">  1       -2 0.86301736E-02 0.24283176E+03</pdfrwt>
<totfact> 0.84300559E+02</totfact>
</mgrwt>
</event>
<event>
 4    1  0.8142558E-001  0.1988871E+03  0.7546771E-02  0.1150681E+00
         -1   -1    0    0    0  501 -0.00000000000E+00  0.00000000000E+00  0.41558205404E+02  0.41558205404E+02  0.00000000000E+00 0. -1.
          1   -1    0    0  502    0  0.00000000000E+00 -0.00000000000E+00 -0.11650158844E+04  0.11650158844E+04  0.00000000000E+00 0.  1.
          6    1    1    2  502    0  0.56436131059E+02 -0.80262430332E+02 -0.30365530134E+03  0.36299123494E+03  0.17300000000E+03 0. -1.
         -6    1    1    2    0  501 -0.56436131059E+02  0.80262430332E+02 -0.81980237768E+03  0.84358285489E+03  0.17300000000E+03 0.  1.
<mgrwt>
<rscale>  2 0.19888714E+03</rscale>
<asrwt>0</asrwt>
<pdfrwt beam="2">  1        1 0.17923323E+00 0.19888714E+03</pdfrwt>
<pdfrwt beam="1">  1       -1 0.63935693E-02 0.19888714E+03</pdfrwt>
<totfact> 0.14717275E+03</totfact>
</mgrwt>
</event>
<event>
 4    1  0.8142558E-001  0.2023697E+03  0.7546771E-02  0.1147755E+00
         -1   -1    0    0    0  501 -0.00000000000E+00  0.00000000000E+00  0.20770371363E+03  0.20770371363E+03  0.00000000000E+00 0. -1.
          1   -1    0    0  502    0  0.00000000000E+00 -0.00000000000E+00 -0.24923297065E+03  0.24923297065E+03  0.00000000000E+00 0.  1.
          6    1    1    2  502    0 -0.10459862264E+03  0.91443816591E+01  0.83653692047E+02  0.21897815363E+03  0.17300000000E+03 0. -1.
         -6    1    1    2    0  501  0.10459862264E+03 -0.91443816591E+01 -0.12518294907E+03  0.23795853066E+03  0.17300000000E+03 0.  1.
<mgrwt>
<rscale>  2 0.20236969E+03</rscale>
<asrwt>0</asrwt>
<pdfrwt beam="2">  1        1 0.38343534E-01 0.20236969E+03</pdfrwt>
<pdfrwt beam="1">  1       -1 0.31954418E-01 0.20236969E+03</pdfrwt>
<totfact> 0.10139560E+03</totfact>
</mgrwt>
</event>
<event>
 4    1  0.8142558E-001  0.1861140E+03  0.7546771E-02  0.1162014E+00
         -2   -1    0    0    0  501 -0.00000000000E+00  0.00000000000E+00  0.43651545773E+03  0.43651545773E+03  0.00000000000E+00 0.  1.
          2   -1    0    0  502    0  0.00000000000E+00 -0.00000000000E+00 -0.80566818314E+02  0.80566818314E+02  0.00000000000E+00 0. -1.
          6    1    1    2  502    0  0.60891934204E+02 -0.31648056313E+02  0.14622856119E+03  0.23668802088E+03  0.17300000000E+03 0.  1.
         -6    1    1    2    0  501 -0.60891934204E+02  0.31648056313E+02  0.20972007823E+03  0.28039425517E+03  0.17300000000E+03 0. -1.
<mgrwt>
<rscale>  2 0.18611402E+03</rscale>
<asrwt>0</asrwt>
<pdfrwt beam="2">  1        2 0.12394895E-01 0.18611402E+03</pdfrwt>
<pdfrwt beam="1">  1       -2 0.67156223E-01 0.18611402E+03</pdfrwt>
<totfact> 0.10122715E+03</totfact>
</mgrwt>
</event>
<event>
 4    1  0.8142558E-001  0.1840960E+03  0.7546771E-02  0.1163897E+00
          2   -1    0    0  502    0  0.00000000000E+00  0.00000000000E+00  0.30135711455E+04  0.30135711455E+04  0.00000000000E+00 0.  1.
         -2   -1    0    0    0  501 -0.00000000000E+00 -0.00000000000E+00 -0.12136265428E+02  0.12136265428E+02  0.00000000000E+00 0. -1.
          6    1    1    2  502    0 -0.48022834028E+02  0.40695532865E+02  0.10910252717E+04  0.11064481292E+04  0.17300000000E+03 0. -1.
         -6    1    1    2    0  501  0.48022834028E+02 -0.40695532865E+02  0.19104096083E+04  0.19192592817E+04  0.17300000000E+03 0.  1.
<mgrwt>
<rscale>  2 0.18409595E+03</rscale>
<asrwt>0</asrwt>
<pdfrwt beam="1">  1        2 0.46362573E+00 0.18409595E+03</pdfrwt>
<pdfrwt beam="2">  1       -2 0.18671202E-02 0.18409595E+03</pdfrwt>
<totfact> 0.17742574E+03</totfact>
</mgrwt>
</event>
<event>
 4    1  0.8142558E-001  0.1876743E+03  0.7546771E-02  0.1160576E+00
         -2   -1    0    0    0  501 -0.00000000000E+00  0.00000000000E+00  0.23745665708E+02  0.23745665708E+02  0.00000000000E+00 0. -1.
          2   -1    0    0  502    0  0.00000000000E+00 -0.00000000000E+00 -0.15697356111E+04  0.15697356111E+04  0.00000000000E+00 0.  1.
          6    1    1    2  502    0  0.64893887853E+02 -0.32885183634E+02 -0.95996894967E+03  0.97814213502E+03  0.17300000000E+03 0.  1.
         -6    1    1    2    0  501 -0.64893887853E+02  0.32885183634E+02 -0.58602099574E+03  0.61533914180E+03  0.17300000000E+03 0. -1.
<mgrwt>
<rscale>  2 0.18767432E+03</rscale>
<asrwt>0</asrwt>
<pdfrwt beam="2">  1        2 0.24149786E+00 0.18767432E+03</pdfrwt>
<pdfrwt beam="1">  1       -2 0.36531782E-02 0.18767432E+03</pdfrwt>
<totfact> 0.39310415E+03</totfact>
</mgrwt>
</event>
<event>
 4    1  0.8142558E-001  0.2172105E+03  0.7546771E-02  0.1135980E+00
          1   -1    0    0  502    0  0.00000000000E+00  0.00000000000E+00  0.18788145959E+03  0.18788145959E+03  0.00000000000E+00 0.  1.
         -1   -1    0    0    0  501 -0.00000000000E+00 -0.00000000000E+00 -0.25116335379E+03  0.25116335379E+03  0.00000000000E+00 0. -1.
          6    1    1    2  502    0  0.10546863306E+03  0.78279964423E+02 -0.34596206320E+02  0.21994836412E+03  0.17300000000E+03 0. -1.
         -6    1    1    2    0  501 -0.10546863306E+03 -0.78279964423E+02 -0.28685687883E+02  0.21909644926E+03  0.17300000000E+03 0. -1.
<mgrwt>
<rscale>  2 0.21721046E+03</rscale>
<asrwt>0</asrwt>
<pdfrwt beam="1">  1        1 0.28904840E-01 0.21721046E+03</pdfrwt>
<pdfrwt beam="2">  1       -1 0.38640516E-01 0.21721046E+03</pdfrwt>
<totfact> 0.10408022E+03</totfact>
</mgrwt>
</event>
<event>
 4    1  0.8142558E-001  0.3006403E+03  0.7546771E-02  0.1084921E+00
          2   -1    0    0  502    0  0.00000000000E+00  0.00000000000E+00  0.13510112213E+04  0.13510112213E+04  0.00000000000E+00 0. -1.
         -2   -1    0    0    0  501 -0.00000000000E+00 -0.00000000000E+00 -0.67133261045E+02  0.67133261045E+02  0.00000000000E+00 0.  1.
          6    1    1    2  502    0  0.89597023929E+01  0.24571385249E+03  0.60026991993E+03  0.67134830777E+03  0.17300000000E+03 0.  1.
         -6    1    1    2    0  501 -0.89597023929E+01 -0.24571385249E+03  0.68360804036E+03  0.74679617461E+03  0.17300000000E+03 0. -1.
<mgrwt>
<rscale>  2 0.30064027E+03</rscale>
<asrwt>0</asrwt>
<pdfrwt beam="1">  1        2 0.20784786E+00 0.30064027E+03</pdfrwt>
<pdfrwt beam="2">  1       -2 0.10328195E-01 0.30064027E+03</pdfrwt>
<totfact> 0.10357844E+03</totfact>
</mgrwt>
</event>
<event>
 4    1  0.8142558E-001  0.1822916E+03  0.7546771E-02  0.1165603E+00
          1   -1    0    0  502    0  0.00000000000E+00  0.00000000000E+00  0.17101456785E+04  0.17101456785E+04  0.00000000000E+00 0.  1.
         -1   -1    0    0    0  501 -0.00000000000E+00 -0.00000000000E+00 -0.57124342928E+02  0.57124342928E+02  0.00000000000E+00 0. -1.
          6    1    1    2  502    0  0.46238858162E+02 -0.34105736581E+02  0.10872743137E+03  0.21225429938E+03  0.17300000000E+03 0. -1.
         -6    1    1    2    0  501 -0.46238858162E+02  0.34105736581E+02  0.15442939042E+04  0.15550157220E+04  0.17300000000E+03 0.  1.
<mgrwt>
<rscale>  2 0.18229162E+03</rscale>
<asrwt>0</asrwt>
<pdfrwt beam="1">  1        1 0.26309930E+00 0.18229162E+03</pdfrwt>
<pdfrwt beam="2">  1       -1 0.87883618E-02 0.18229162E+03</pdfrwt>
<totfact> 0.39496061E+02</totfact>
</mgrwt>
</event>
<event>
 4    1  0.8142558E-001  0.1981841E+03  0.7546771E-02  0.1151280E+00
         -1   -1    0    0    0  501 -0.00000000000E+00  0.00000000000E+00  0.11756680377E+04  0.11756680377E+04  0.00000000000E+00 0.  1.
          1   -1    0    0  502    0  0.00000000000E+00 -0.00000000000E+00 -0.69006751207E+02  0.69006751207E+02  0.00000000000E+00 0. -1.
          6    1    1    2  502    0  0.68240443760E+02  0.68492277005E+02  0.10634221258E+03  0.22491246375E+03  0.17300000000E+03 0. -1.
         -6    1    1    2    0  501 -0.68240443760E+02 -0.68492277005E+02  0.10003190739E+04  0.10197623252E+04  0.17300000000E+03 0.  1.
<mgrwt>
<rscale>  2 0.19818413E+03</rscale>
<asrwt>0</asrwt>
<pdfrwt beam="2">  1        1 0.10616424E-01 0.19818413E+03</pdfrwt>
<pdfrwt beam="1">  1       -1 0.18087199E+00 0.19818413E+03</pdfrwt>
<totfact> 0.13488622E+02</totfact>
</mgrwt>
</event>
<event>
 4    1  0.8142558E-001  0.2356171E+03  0.7546771E-02  0.1122748E+00
          1   -1    0    0  502    0  0.00000000000E+00  0.00000000000E+00  0.64377166616E+03  0.64377166616E+03  0.00000000000E+00 0.  1.
         -1   -1    0    0    0  501 -0.00000000000E+00 -0.00000000000E+00 -0.14440183441E+03  0.14440183441E+03  0.00000000000E+00 0. -1.
          6    1    1    2  502    0 -0.15611859763E+03 -0.34833647764E+02 -0.43290895392E+00  0.23561745893E+03  0.17300000000E+03 0. -1.
         -6    1    1    2    0  501  0.15611859763E+03  0.34833647764E+02  0.49980274070E+03  0.55255604164E+03  0.17300000000E+03 0.  1.
<mgrwt>
<rscale>  2 0.23561706E+03</rscale>
<asrwt>0</asrwt>
<pdfrwt beam="1">  1        1 0.99041793E-01 0.23561706E+03</pdfrwt>
<pdfrwt beam="2">  1       -1 0.22215667E-01 0.23561706E+03</pdfrwt>
<totfact> 0.54359969E+02</totfact>
</mgrwt>
</event>
<event>
 4    1  0.8142558E-001  0.2362891E+03  0.7546771E-02  0.1122290E+00
          2   -1    0    0  502    0  0.00000000000E+00  0.00000000000E+00  0.20871016334E+04  0.20871016334E+04  0.00000000000E+00 0. -1.
         -2   -1    0    0    0  501 -0.00000000000E+00 -0.00000000000E+00 -0.28101025312E+02  0.28101025312E+02  0.00000000000E+00 0.  1.
          6    1    1    2  502    0 -0.19539639825E+02  0.15975525672E+03  0.79771036893E+03  0.83197017511E+03  0.17300000000E+03 0.  1.
         -6    1    1    2    0  501  0.19539639825E+02 -0.15975525672E+03  0.12612902392E+04  0.12832324836E+04  0.17300000000E+03 0.  1.
<mgrwt>
<rscale>  2 0.23628910E+03</rscale>
<asrwt>0</asrwt>
<pdfrwt beam="1">  1        2 0.32109244E+00 0.23628910E+03</pdfrwt>
<pdfrwt beam="2">  1       -2 0.43232363E-02 0.23628910E+03</pdfrwt>
<totfact> 0.16375048E+03</totfact>
</mgrwt>
</event>
<event>
 4    1  0.8142558E-001  0.1990713E+03  0.7546771E-02  0.1150525E+00
         -2   -1    0    0    0  501 -0.00000000000E+00  0.00000000000E+00  0.54390368939E+02  0.54390368939E+02  0.00000000000E+00 0.  1.
          2   -1    0    0  502    0  0.00000000000E+00 -0.00000000000E+00 -0.11955299077E+04  0.11955299077E+04  0.00000000000E+00 0. -1.
          6    1    1    2  502    0  0.85112711202E+02  0.49560312909E+02 -0.96113449906E+03  0.98153396452E+03  0.17300000000E+03 0. -1.
         -6    1    1    2    0  501 -0.85112711202E+02 -0.49560312909E+02 -0.18000503975E+03  0.26838631217E+03  0.17300000000E+03 0.  1.
<mgrwt>
<rscale>  2 0.19907134E+03</rscale>
<asrwt>0</asrwt>
<pdfrwt beam="2">  1        2 0.18392766E+00 0.19907134E+03</pdfrwt>
<pdfrwt beam="1">  1       -2 0.83677498E-02 0.19907134E+03</pdfrwt>
<totfact> 0.17709582E+03</totfact>
</mgrwt>
</event>
<event>
 4    1  0.8142558E-001  0.2080329E+03  0.7546771E-02  0.1143133E+00
         -2   -1    0    0    0  501 -0.00000000000E+00  0.00000000000E+00  0.36804749296E+02  0.36804749296E+02  0.00000000000E+00 0.  1.
          2   -1    0    0  502    0  0.00000000000E+00 -0.00000000000E+00 -0.16714612681E+04  0.16714612681E+04  0.00000000000E+00 0. -1.
          6    1    1    2  502    0 -0.68884875431E+02  0.92755458029E+02 -0.35223721860E+03  0.40908282685E+03  0.17300000000E+03 0.  1.
         -6    1    1    2    0  501  0.68884875431E+02 -0.92755458029E+02 -0.12824193002E+04  0.12991831906E+04  0.17300000000E+03 0. -1.
<mgrwt>
<rscale>  2 0.20803293E+03</rscale>
<asrwt>0</asrwt>
<pdfrwt beam="2">  1        2 0.25714790E+00 0.20803293E+03</pdfrwt>
<pdfrwt beam="1">  1       -2 0.56622687E-02 0.20803293E+03</pdfrwt>
<totfact> 0.17954030E+03</totfact>
</mgrwt>
</event>
<event>
 4    1  0.8142558E-001  0.3407951E+03  0.7546771E-02  0.1066458E+00
         -2   -1    0    0    0  501 -0.00000000000E+00  0.00000000000E+00  0.90949239198E+03  0.90949239198E+03  0.00000000000E+00 0. -1.
          2   -1    0    0  502    0  0.00000000000E+00 -0.00000000000E+00 -0.13380786481E+03  0.13380786481E+03  0.00000000000E+00 0.  1.
          6    1    1    2  502    0 -0.11059694753E+03  0.27199379482E+03  0.27638274016E+03  0.43878095707E+03  0.17300000000E+03 0.  1.
         -6    1    1    2    0  501  0.11059694753E+03 -0.27199379482E+03  0.49930178701E+03  0.60451929972E+03  0.17300000000E+03 0. -1.
<mgrwt>
<rscale>  2 0.34079511E+03</rscale>
<asrwt>0</asrwt>
<pdfrwt beam="2">  1        2 0.20585826E-01 0.34079511E+03</pdfrwt>
<pdfrwt beam="1">  1       -2 0.13992190E+00 0.34079511E+03</pdfrwt>
<totfact> 0.10178421E+02</totfact>
</mgrwt>
</event>
<event>
 4    1  0.8142558E-001  0.1780736E+03  0.7546771E-02  0.1169681E+00
         -1   -1    0    0    0  501 -0.00000000000E+00  0.00000000000E+00  0.37820481559E+03  0.37820481559E+03  0.00000000000E+00 0. -1.
          1   -1    0    0  502    0  0.00000000000E+00 -0.00000000000E+00 -0.85958149153E+02  0.85958149153E+02  0.00000000000E+00 0.  1.
          6    1    1    2  502    0 -0.38030185678E+02 -0.18300773605E+02  0.18252006512E+03  0.25499762255E+03  0.17300000000E+03 0.  1.
         -6    1    1    2    0  501  0.38030185678E+02  0.18300773605E+02  0.10972660132E+03  0.20916534219E+03  0.17300000000E+03 0. -1.
<mgrwt>
<rscale>  2 0.17807362E+03</rscale>
<asrwt>0</asrwt>
<pdfrwt beam="2">  1        1 0.13224331E-01 0.17807362E+03</pdfrwt>
<pdfrwt beam="1">  1       -1 0.58185355E-01 0.17807362E+03</pdfrwt>
<totfact> 0.13434706E+03</totfact>
</mgrwt>
</event>
<event>
 4    1  0.8142558E-001  0.1862034E+03  0.7546771E-02  0.1161931E+00
          2   -1    0    0  502    0  0.00000000000E+00  0.00000000000E+00  0.31573853519E+04  0.31573853519E+04  0.00000000000E+00 0. -1.
         -2   -1    0    0    0  501 -0.00000000000E+00 -0.00000000000E+00 -0.13702629256E+02  0.13702629256E+02  0.00000000000E+00 0.  1.
          6    1    1    2  502    0 -0.44905759264E+02 -0.52212749260E+02  0.86523188613E+03  0.88504119406E+03  0.17300000000E+03 0.  1.
         -6    1    1    2    0  501  0.44905759264E+02  0.52212749260E+02  0.22784508365E+04  0.22860467871E+04  0.17300000000E+03 0. -1.
<mgrwt>
<rscale>  2 0.18620338E+03</rscale>
<asrwt>0</asrwt>
<pdfrwt beam="1">  1        2 0.48575101E+00 0.18620338E+03</pdfrwt>
<pdfrwt beam="2">  1       -2 0.21080993E-02 0.18620338E+03</pdfrwt>
<totfact> 0.12193429E+03</totfact>
</mgrwt>
</event>
<event>
 4    1  0.8142558E-001  0.1781447E+03  0.7546771E-02  0.1169611E+00
         -1   -1    0    0    0  501 -0.00000000000E+00  0.00000000000E+00  0.36109676442E+03  0.36109676442E+03  0.00000000000E+00 0.  1.
          1   -1    0    0  502    0  0.00000000000E+00 -0.00000000000E+00 -0.24651740583E+03  0.24651740583E+03  0.00000000000E+00 0. -1.
          6    1    1    2  502    0  0.12936895738E+02 -0.40486848233E+02 -0.18641728484E+03  0.25785063940E+03  0.17300000000E+03 0. -1.
         -6    1    1    2    0  501 -0.12936895738E+02  0.40486848233E+02  0.30099664343E+03  0.34976353084E+03  0.17300000000E+03 0.  1.
<mgrwt>
<rscale>  2 0.17814474E+03</rscale>
<asrwt>0</asrwt>
<pdfrwt beam="2">  1        1 0.37925755E-01 0.17814474E+03</pdfrwt>
<pdfrwt beam="1">  1       -1 0.55553348E-01 0.17814474E+03</pdfrwt>
<totfact> 0.38260757E+02</totfact>
</mgrwt>
</event>
<event>
 4    1  0.8142558E-001  0.2528645E+03  0.7546771E-02  0.1111508E+00
          1   -1    0    0  502    0  0.00000000000E+00  0.00000000000E+00  0.97409260116E+02  0.97409260116E+02  0.00000000000E+00 0.  1.
         -1   -1    0    0    0  501 -0.00000000000E+00 -0.00000000000E+00 -0.70893207256E+03  0.70893207256E+03  0.00000000000E+00 0. -1.
          6    1    1    2  502    0  0.18388177380E+03  0.14105349074E+02 -0.19602387137E+03  0.31994659829E+03  0.17300000000E+03 0.  1.
         -6    1    1    2    0  501 -0.18388177380E+03 -0.14105349074E+02 -0.41549894108E+03  0.48639473439E+03  0.17300000000E+03 0. -1.
<mgrwt>
<rscale>  2 0.25286452E+03</rscale>
<asrwt>0</asrwt>
<pdfrwt beam="1">  1        1 0.14986041E-01 0.25286452E+03</pdfrwt>
<pdfrwt beam="2">  1       -1 0.10906647E+00 0.25286452E+03</pdfrwt>
<totfact> 0.30978796E+02</totfact>
</mgrwt>
</event>
<event>
 4    1  0.8142558E-001  0.2540317E+03  0.7546771E-02  0.1110783E+00
          2   -1    0    0  502    0  0.00000000000E+00  0.00000000000E+00  0.60231026795E+03  0.60231026795E+03  0.00000000000E+00 0. -1.
         -2   -1    0    0    0  501 -0.00000000000E+00 -0.00000000000E+00 -0.10990983073E+03  0.10990983073E+03  0.00000000000E+00 0.  1.
          6    1    1    2  502    0 -0.16863627718E+03  0.78516868377E+02  0.30272232081E+03  0.39518716594E+03  0.17300000000E+03 0. -1.
         -6    1    1    2    0  501  0.16863627718E+03 -0.78516868377E+02  0.18967811641E+03  0.31703293274E+03  0.17300000000E+03 0.  1.
<mgrwt>
<rscale>  2 0.25403168E+03</rscale>
<asrwt>0</asrwt>
<pdfrwt beam="1">  1        2 0.92663116E-01 0.25403168E+03</pdfrwt>
<pdfrwt beam="2">  1       -2 0.16909205E-01 0.25403168E+03</pdfrwt>
<totfact> 0.14057540E+03</totfact>
</mgrwt>
</event>
<event>
 4    1  0.8142558E-001  0.3067057E+03  0.7546771E-02  0.1081936E+00
          2   -1    0    0  502    0  0.00000000000E+00  0.00000000000E+00  0.15270154328E+04  0.15270154328E+04  0.00000000000E+00 0. -1.
         -2   -1    0    0    0  501 -0.00000000000E+00 -0.00000000000E+00 -0.90183328587E+02  0.90183328587E+02  0.00000000000E+00 0.  1.
          6    1    1    2  502    0 -0.23742505253E+03 -0.88140491030E+02  0.26321262338E+03  0.40416492528E+03  0.17300000000E+03 0.  1.
         -6    1    1    2    0  501  0.23742505253E+03  0.88140491030E+02  0.11736194808E+04  0.12130338361E+04  0.17300000000E+03 0. -1.
<mgrwt>
<rscale>  2 0.30670572E+03</rscale>
<asrwt>0</asrwt>
<pdfrwt beam="1">  1        2 0.23492543E+00 0.30670572E+03</pdfrwt>
<pdfrwt beam="2">  1       -2 0.13874359E-01 0.30670572E+03</pdfrwt>
<totfact> 0.51392934E+02</totfact>
</mgrwt>
</event>
<event>
 4    1  0.8142558E-001  0.1936626E+03  0.7546771E-02  0.1155199E+00
          2   -1    0    0  502    0  0.00000000000E+00  0.00000000000E+00  0.27359108402E+03  0.27359108402E+03  0.00000000000E+00 0. -1.
         -2   -1    0    0    0  501 -0.00000000000E+00 -0.00000000000E+00 -0.13881526660E+03  0.13881526660E+03  0.00000000000E+00 0.  1.
          6    1    1    2  502    0  0.70938945188E+02  0.50436649345E+02  0.44365353466E+02  0.19867932487E+03  0.17300000000E+03 0.  1.
         -6    1    1    2    0  501 -0.70938945188E+02 -0.50436649345E+02  0.90410463956E+02  0.21372702575E+03  0.17300000000E+03 0.  1.
<mgrwt>
<rscale>  2 0.19366257E+03</rscale>
<asrwt>0</asrwt>
<pdfrwt beam="1">  1        2 0.42090936E-01 0.19366257E+03</pdfrwt>
<pdfrwt beam="2">  1       -2 0.21356195E-01 0.19366257E+03</pdfrwt>
<totfact> 0.22374373E+03</totfact>
</mgrwt>
</event>
<event>
 4    1  0.8142558E-001  0.1779383E+03  0.7546771E-02  0.1169813E+00
         -2   -1    0    0    0  501 -0.00000000000E+00  0.00000000000E+00  0.15530747583E+03  0.15530747583E+03  0.00000000000E+00 0. -1.
          2   -1    0    0  502    0  0.00000000000E+00 -0.00000000000E+00 -0.21145663956E+03  0.21145663956E+03  0.00000000000E+00 0.  1.
          6    1    1    2  502    0 -0.37420365852E+02 -0.18241244945E+02  0.66681977042E+01  0.17806316761E+03  0.17300000000E+03 0. -1.
         -6    1    1    2    0  501  0.37420365852E+02  0.18241244945E+02 -0.62817361425E+02  0.18870094778E+03  0.17300000000E+03 0.  1.
<mgrwt>
<rscale>  2 0.17793827E+03</rscale>
<asrwt>0</asrwt>
<pdfrwt beam="2">  1        2 0.32531791E-01 0.17793827E+03</pdfrwt>
<pdfrwt beam="1">  1       -2 0.23893458E-01 0.17793827E+03</pdfrwt>
<totfact> 0.24241249E+03</totfact>
</mgrwt>
</event>
<event>
 4    1  0.8142558E-001  0.1765446E+03  0.7546771E-02  0.1171190E+00
         -2   -1    0    0    0  501 -0.00000000000E+00  0.00000000000E+00  0.21382286382E+02  0.21382286382E+02  0.00000000000E+00 0. -1.
          2   -1    0    0  502    0  0.00000000000E+00 -0.00000000000E+00 -0.16855994089E+04  0.16855994089E+04  0.00000000000E+00 0.  1.
          6    1    1    2  502    0  0.31439710804E+02  0.15828353747E+02 -0.51824828413E+03  0.54749363120E+03  0.17300000000E+03 0. -1.
         -6    1    1    2    0  501 -0.31439710804E+02 -0.15828353747E+02 -0.11459688384E+04  0.11594880641E+04  0.17300000000E+03 0.  1.
<mgrwt>
<rscale>  2 0.17654459E+03</rscale>
<asrwt>0</asrwt>
<pdfrwt beam="2">  1        2 0.25932301E+00 0.17654459E+03</pdfrwt>
<pdfrwt beam="1">  1       -2 0.32895823E-02 0.17654459E+03</pdfrwt>
<totfact> 0.39955750E+03</totfact>
</mgrwt>
</event>
<event>
 4    1  0.8142558E-001  0.1776783E+03  0.7546771E-02  0.1170069E+00
         -2   -1    0    0    0  501 -0.00000000000E+00  0.00000000000E+00  0.64180794510E+02  0.64180794510E+02  0.00000000000E+00 0.  1.
          2   -1    0    0  502    0  0.00000000000E+00 -0.00000000000E+00 -0.20672030401E+04  0.20672030401E+04  0.00000000000E+00 0. -1.
          6    1    1    2  502    0  0.40263886950E+02 -0.44061821375E+01 -0.71208652666E+02  0.19141647590E+03  0.17300000000E+03 0.  1.
         -6    1    1    2    0  501 -0.40263886950E+02  0.44061821375E+01 -0.19318135929E+04  0.19399673587E+04  0.17300000000E+03 0. -1.
<mgrwt>
<rscale>  2 0.17767835E+03</rscale>
<asrwt>0</asrwt>
<pdfrwt beam="2">  1        2 0.31803127E+00 0.17767835E+03</pdfrwt>
<pdfrwt beam="1">  1       -2 0.98739675E-02 0.17767835E+03</pdfrwt>
<totfact> 0.47438602E+02</totfact>
</mgrwt>
</event>
<event>
 4    1  0.8142558E-001  0.1772071E+03  0.7546771E-02  0.1170534E+00
         -2   -1    0    0    0  501 -0.00000000000E+00  0.00000000000E+00  0.11215619697E+03  0.11215619697E+03  0.00000000000E+00 0. -1.
          2   -1    0    0  502    0  0.00000000000E+00 -0.00000000000E+00 -0.28074901728E+03  0.28074901728E+03  0.00000000000E+00 0.  1.
          6    1    1    2  502    0 -0.29505787131E+02 -0.24551572543E+02 -0.94525616733E+02  0.20084188659E+03  0.17300000000E+03 0.  1.
         -6    1    1    2    0  501  0.29505787131E+02  0.24551572543E+02 -0.74067203578E+02  0.19206332767E+03  0.17300000000E+03 0. -1.
<mgrwt>
<rscale>  2 0.17720714E+03</rscale>
<asrwt>0</asrwt>
<pdfrwt beam="2">  1        2 0.43192156E-01 0.17720714E+03</pdfrwt>
<pdfrwt beam="1">  1       -2 0.17254800E-01 0.17720714E+03</pdfrwt>
<totfact> 0.31134693E+03</totfact>
</mgrwt>
</event>
<event>
 4    1  0.8142558E-001  0.2911387E+03  0.7546771E-02  0.1089756E+00
          2   -1    0    0  502    0  0.00000000000E+00  0.00000000000E+00  0.72611918716E+03  0.72611918716E+03  0.00000000000E+00 0. -1.
         -2   -1    0    0    0  501 -0.00000000000E+00 -0.00000000000E+00 -0.11706786288E+03  0.11706786288E+03  0.00000000000E+00 0.  1.
          6    1    1    2  502    0  0.88340493556E+02 -0.21686101354E+03  0.28196237953E+03  0.40529560257E+03  0.17300000000E+03 0. -1.
         -6    1    1    2    0  501 -0.88340493556E+02  0.21686101354E+03  0.32708894474E+03  0.43789144747E+03  0.17300000000E+03 0.  1.
<mgrwt>
<rscale>  2 0.29113870E+03</rscale>
<asrwt>0</asrwt>
<pdfrwt beam="1">  1        2 0.11171064E+00 0.29113870E+03</pdfrwt>
<pdfrwt beam="2">  1       -2 0.18010441E-01 0.29113870E+03</pdfrwt>
<totfact> 0.10102587E+03</totfact>
</mgrwt>
</event>
<event>
 4    1  0.8142558E-001  0.2272712E+03  0.7546771E-02  0.1128575E+00
          1   -1    0    0  502    0  0.00000000000E+00  0.00000000000E+00  0.75099420265E+03  0.75099420265E+03  0.00000000000E+00 0.  1.
         -1   -1    0    0    0  501 -0.00000000000E+00 -0.00000000000E+00 -0.69408523881E+02  0.69408523881E+02  0.00000000000E+00 0. -1.
          6    1    1    2  502    0 -0.14701496069E+03  0.10479158449E+02  0.37987594717E+03  0.44267137548E+03  0.17300000000E+03 0.  1.
         -6    1    1    2    0  501  0.14701496069E+03 -0.10479158449E+02  0.30170973159E+03  0.37773135105E+03  0.17300000000E+03 0. -1.
<mgrwt>
<rscale>  2 0.22727123E+03</rscale>
<asrwt>0</asrwt>
<pdfrwt beam="1">  1        1 0.11553756E+00 0.22727123E+03</pdfrwt>
<pdfrwt beam="2">  1       -1 0.10678235E-01 0.22727123E+03</pdfrwt>
<totfact> 0.13958261E+03</totfact>
</mgrwt>
</event>
<event>
 4    1  0.8142558E-001  0.2967447E+03  0.7546771E-02  0.1086879E+00
          1   -1    0    0  502    0  0.00000000000E+00  0.00000000000E+00  0.49453520638E+03  0.49453520638E+03  0.00000000000E+00 0. -1.
         -1   -1    0    0    0  501 -0.00000000000E+00 -0.00000000000E+00 -0.17825585160E+03  0.17825585160E+03  0.00000000000E+00 0.  1.
          6    1    1    2  502    0  0.22618450562E+03 -0.83480472042E+02  0.14701695924E+03  0.33116673459E+03  0.17300000000E+03 0. -1.
         -6    1    1    2    0  501 -0.22618450562E+03  0.83480472042E+02  0.16926239554E+03  0.34162432340E+03  0.17300000000E+03 0.  1.
<mgrwt>
<rscale>  2 0.29674470E+03</rscale>
<asrwt>0</asrwt>
<pdfrwt beam="1">  1        1 0.76082339E-01 0.29674470E+03</pdfrwt>
<pdfrwt beam="2">  1       -1 0.27423977E-01 0.29674470E+03</pdfrwt>
<totfact> 0.54794972E+02</totfact>
</mgrwt>
</event>
<event>
 4    1  0.8142558E-001  0.1744535E+03  0.7546771E-02  0.1173282E+00
          2   -1    0    0  502    0  0.00000000000E+00  0.00000000000E+00  0.20007641220E+03  0.20007641220E+03  0.00000000000E+00 0. -1.
         -2   -1    0    0    0  501 -0.00000000000E+00 -0.00000000000E+00 -0.16113006239E+03  0.16113006239E+03  0.00000000000E+00 0.  1.
          6    1    1    2  502    0 -0.15983882148E+02 -0.15796266802E+02  0.62199532245E+02  0.18521011945E+03  0.17300000000E+03 0. -1.
         -6    1    1    2    0  501  0.15983882148E+02  0.15796266802E+02 -0.23253182437E+02  0.17599635515E+03  0.17300000000E+03 0.  1.
<mgrwt>
<rscale>  2 0.17445345E+03</rscale>
<asrwt>0</asrwt>
<pdfrwt beam="1">  1        2 0.30780986E-01 0.17445345E+03</pdfrwt>
<pdfrwt beam="2">  1       -2 0.24789240E-01 0.17445345E+03</pdfrwt>
<totfact> 0.24119851E+03</totfact>
</mgrwt>
</event>
<event>
 4    1  0.8142558E-001  0.2162262E+03  0.7546771E-02  0.1136728E+00
         -1   -1    0    0    0  501 -0.00000000000E+00  0.00000000000E+00  0.65398617535E+02  0.65398617535E+02  0.00000000000E+00 0. -1.
          1   -1    0    0  502    0  0.00000000000E+00 -0.00000000000E+00 -0.15912154681E+04  0.15912154681E+04  0.00000000000E+00 0.  1.
          6    1    1    2  502    0  0.12951607145E+03 -0.70953346953E+01 -0.13775982408E+04  0.13944642948E+04  0.17300000000E+03 0.  1.
         -6    1    1    2    0  501 -0.12951607145E+03  0.70953346953E+01 -0.14821860980E+03  0.26214979082E+03  0.17300000000E+03 0. -1.
<mgrwt>
<rscale>  2 0.21622617E+03</rscale>
<asrwt>0</asrwt>
<pdfrwt beam="2">  1        1 0.24480236E+00 0.21622617E+03</pdfrwt>
<pdfrwt beam="1">  1       -1 0.10061326E-01 0.21622617E+03</pdfrwt>
<totfact> 0.38061275E+02</totfact>
</mgrwt>
</event>
<event>
 4    1  0.8142558E-001  0.1814106E+03  0.7546771E-02  0.1166445E+00
         -1   -1    0    0    0  501 -0.00000000000E+00  0.00000000000E+00  0.60101626158E+02  0.60101626158E+02  0.00000000000E+00 0. -1.
          1   -1    0    0  502    0  0.00000000000E+00 -0.00000000000E+00 -0.55664653027E+03  0.55664653027E+03  0.00000000000E+00 0.  1.
          6    1    1    2  502    0  0.42862971142E+02  0.33816897543E+02 -0.28765104679E+03  0.34007784634E+03  0.17300000000E+03 0.  1.
         -6    1    1    2    0  501 -0.42862971142E+02 -0.33816897543E+02 -0.20889385732E+03  0.27667031008E+03  0.17300000000E+03 0. -1.
<mgrwt>
<rscale>  2 0.18141063E+03</rscale>
<asrwt>0</asrwt>
<pdfrwt beam="2">  1        1 0.85637929E-01 0.18141063E+03</pdfrwt>
<pdfrwt beam="1">  1       -1 0.92464039E-02 0.18141063E+03</pdfrwt>
<totfact> 0.26520262E+03</totfact>
</mgrwt>
</event>
<event>
 4    1  0.8142558E-001  0.2490735E+03  0.7546771E-02  0.1113892E+00
         -2   -1    0    0    0  501 -0.00000000000E+00  0.00000000000E+00  0.10442938932E+03  0.10442938932E+03  0.00000000000E+00 0.  1.
          2   -1    0    0  502    0  0.00000000000E+00 -0.00000000000E+00 -0.63535488243E+03  0.63535488243E+03  0.00000000000E+00 0. -1.
          6    1    1    2  502    0  0.17909015301E+03 -0.59428204317E+01 -0.17116505073E+03  0.30221693303E+03  0.17300000000E+03 0. -1.
         -6    1    1    2    0  501 -0.17909015301E+03  0.59428204317E+01 -0.35976044237E+03  0.43756733872E+03  0.17300000000E+03 0. -1.
<mgrwt>
<rscale>  2 0.24907348E+03</rscale>
<asrwt>0</asrwt>
<pdfrwt beam="2">  1        2 0.97746905E-01 0.24907348E+03</pdfrwt>
<pdfrwt beam="1">  1       -2 0.16066060E-01 0.24907348E+03</pdfrwt>
<totfact> 0.14380986E+03</totfact>
</mgrwt>
</event>
<event>
 4    1  0.8142558E-001  0.1818996E+03  0.7546771E-02  0.1165977E+00
         -2   -1    0    0    0  501 -0.00000000000E+00  0.00000000000E+00  0.94572130835E+03  0.94572130835E+03  0.00000000000E+00 0. -1.
          2   -1    0    0  502    0  0.00000000000E+00 -0.00000000000E+00 -0.39342422827E+02  0.39342422827E+02  0.00000000000E+00 0.  1.
          6    1    1    2  502    0 -0.43796022860E+02  0.35218714638E+02  0.28930210375E+03  0.34173550695E+03  0.17300000000E+03 0.  1.
         -6    1    1    2    0  501  0.43796022860E+02 -0.35218714638E+02  0.61707678177E+03  0.64332822422E+03  0.17300000000E+03 0. -1.
<mgrwt>
<rscale>  2 0.18189956E+03</rscale>
<asrwt>0</asrwt>
<pdfrwt beam="2">  1        2 0.60526811E-02 0.18189956E+03</pdfrwt>
<pdfrwt beam="1">  1       -2 0.14549557E+00 0.18189956E+03</pdfrwt>
<totfact> 0.41539833E+02</totfact>
</mgrwt>
</event>
<event>
 4    1  0.8142558E-001  0.2106653E+03  0.7546771E-02  0.1141040E+00
          3   -1    0    0  502    0  0.00000000000E+00  0.00000000000E+00  0.89881822050E+02  0.89881822050E+02  0.00000000000E+00 0.  1.
         -3   -1    0    0    0  501 -0.00000000000E+00 -0.00000000000E+00 -0.54184593643E+03  0.54184593643E+03  0.00000000000E+00 0. -1.
          6    1    1    2  502    0 -0.12017077887E+03  0.31400906414E+01 -0.13188419767E+03  0.24854238644E+03  0.17300000000E+03 0.  1.
         -6    1    1    2    0  501  0.12017077887E+03 -0.31400906414E+01 -0.32007991671E+03  0.38318537204E+03  0.17300000000E+03 0. -1.
<mgrwt>
<rscale>  2 0.21066532E+03</rscale>
<asrwt>0</asrwt>
<pdfrwt beam="1">  1        3 0.13827973E-01 0.21066532E+03</pdfrwt>
<pdfrwt beam="2">  1       -3 0.83360912E-01 0.21066532E+03</pdfrwt>
<totfact> 0.14267873E+02</totfact>
</mgrwt>
</event>
<event>
 4    1  0.8142558E-001  0.1838974E+03  0.7546771E-02  0.1164084E+00
          2   -1    0    0  502    0  0.00000000000E+00  0.00000000000E+00  0.20047369057E+03  0.20047369057E+03  0.00000000000E+00 0. -1.
         -2   -1    0    0    0  501 -0.00000000000E+00 -0.00000000000E+00 -0.17476757745E+03  0.17476757745E+03  0.00000000000E+00 0.  1.
          6    1    1    2  502    0  0.71545759843E+01 -0.61952216573E+02  0.47835614475E+02  0.19001713372E+03  0.17300000000E+03 0. -1.
         -6    1    1    2    0  501 -0.71545759843E+01  0.61952216573E+02 -0.22129501356E+02  0.18522413430E+03  0.17300000000E+03 0. -1.
<mgrwt>
<rscale>  2 0.18389743E+03</rscale>
<asrwt>0</asrwt>
<pdfrwt beam="1">  1        2 0.30842106E-01 0.18389743E+03</pdfrwt>
<pdfrwt beam="2">  1       -2 0.26887320E-01 0.18389743E+03</pdfrwt>
<totfact> 0.20893818E+03</totfact>
</mgrwt>
</event>
<event>
 4    1  0.8142558E-001  0.4619483E+03  0.7546771E-02  0.1024218E+00
          2   -1    0    0  502    0  0.00000000000E+00  0.00000000000E+00  0.83136801877E+03  0.83136801877E+03  0.00000000000E+00 0.  1.
         -2   -1    0    0    0  501 -0.00000000000E+00 -0.00000000000E+00 -0.32129930064E+03  0.32129930064E+03  0.00000000000E+00 0. -1.
          6    1    1    2  502    0 -0.26172238556E+03 -0.33907023207E+03  0.51349680324E+03  0.69070630250E+03  0.17300000000E+03 0.  1.
         -6    1    1    2    0  501  0.26172238556E+03  0.33907023207E+03 -0.34280851006E+01  0.46196101691E+03  0.17300000000E+03 0. -1.
<mgrwt>
<rscale>  2 0.46194830E+03</rscale>
<asrwt>0</asrwt>
<pdfrwt beam="1">  1        2 0.12790277E+00 0.46194830E+03</pdfrwt>
<pdfrwt beam="2">  1       -2 0.49430662E-01 0.46194830E+03</pdfrwt>
<totfact> 0.13107663E+02</totfact>
</mgrwt>
</event>
<event>
 4    1  0.8142558E-001  0.1739235E+03  0.7546771E-02  0.1173817E+00
          2   -1    0    0  502    0  0.00000000000E+00  0.00000000000E+00  0.56113739014E+03  0.56113739014E+03  0.00000000000E+00 0.  1.
         -2   -1    0    0    0  501 -0.00000000000E+00 -0.00000000000E+00 -0.62176938921E+02  0.62176938921E+02  0.00000000000E+00 0. -1.
          6    1    1    2  502    0 -0.11690101693E+02 -0.13554789635E+02  0.13582059846E+03  0.22067311972E+03  0.17300000000E+03 0. -1.
         -6    1    1    2    0  501  0.11690101693E+02  0.13554789635E+02  0.36313985276E+03  0.40264120934E+03  0.17300000000E+03 0.  1.
<mgrwt>
<rscale>  2 0.17392352E+03</rscale>
<asrwt>0</asrwt>
<pdfrwt beam="1">  1        2 0.86328826E-01 0.17392352E+03</pdfrwt>
<pdfrwt beam="2">  1       -2 0.95656833E-02 0.17392352E+03</pdfrwt>
<totfact> 0.38116998E+03</totfact>
</mgrwt>
</event>
<event>
 4    1  0.8142558E-001  0.1908148E+03  0.7546771E-02  0.1157729E+00
         -2   -1    0    0    0  501 -0.00000000000E+00  0.00000000000E+00  0.22852708762E+03  0.22852708762E+03  0.00000000000E+00 0.  1.
          2   -1    0    0  502    0  0.00000000000E+00 -0.00000000000E+00 -0.19009391766E+03  0.19009391766E+03  0.00000000000E+00 0. -1.
          6    1    1    2  502    0  0.74625323193E+02 -0.30204825022E+02 -0.64992139266E+02  0.20157938506E+03  0.17300000000E+03 0. -1.
         -6    1    1    2    0  501 -0.74625323193E+02  0.30204825022E+02  0.10342530922E+03  0.21704162021E+03  0.17300000000E+03 0. -1.
<mgrwt>
<rscale>  2 0.19081475E+03</rscale>
<asrwt>0</asrwt>
<pdfrwt beam="2">  1        2 0.29245218E-01 0.19081475E+03</pdfrwt>
<pdfrwt beam="1">  1       -2 0.35158013E-01 0.19081475E+03</pdfrwt>
<totfact> 0.13614577E+03</totfact>
</mgrwt>
</event>
<event>
 4    1  0.8142558E-001  0.2089759E+03  0.7546771E-02  0.1142380E+00
          1   -1    0    0  502    0  0.00000000000E+00  0.00000000000E+00  0.55078784914E+03  0.55078784914E+03  0.00000000000E+00 0.  1.
         -1   -1    0    0    0  501 -0.00000000000E+00 -0.00000000000E+00 -0.80982192833E+02  0.80982192833E+02  0.00000000000E+00 0. -1.
          6    1    1    2  502    0 -0.70179025304E+02  0.93898074459E+02  0.18921528884E+03  0.28191021534E+03  0.17300000000E+03 0.  1.
         -6    1    1    2    0  501  0.70179025304E+02 -0.93898074459E+02  0.28059036746E+03  0.34985982663E+03  0.17300000000E+03 0.  1.
<mgrwt>
<rscale>  2 0.20897594E+03</rscale>
<asrwt>0</asrwt>
<pdfrwt beam="1">  1        1 0.84736590E-01 0.20897594E+03</pdfrwt>
<pdfrwt beam="2">  1       -1 0.12458799E-01 0.20897594E+03</pdfrwt>
<totfact> 0.17018111E+03</totfact>
</mgrwt>
</event>
<event>
 4    1  0.8142558E-001  0.3265807E+03  0.7546771E-02  0.1072660E+00
         -1   -1    0    0    0  501 -0.00000000000E+00  0.00000000000E+00  0.89298401678E+02  0.89298401678E+02  0.00000000000E+00 0.  1.
          1   -1    0    0  502    0  0.00000000000E+00 -0.00000000000E+00 -0.16145739622E+04  0.16145739622E+04  0.00000000000E+00 0. -1.
          6    1    1    2  502    0  0.22324602333E+03 -0.16397310617E+03 -0.32801720942E+03  0.46287174914E+03  0.17300000000E+03 0.  1.
         -6    1    1    2    0  501 -0.22324602333E+03  0.16397310617E+03 -0.11972583511E+04  0.12410006147E+04  0.17300000000E+03 0. -1.
<mgrwt>
<rscale>  2 0.32658072E+03</rscale>
<asrwt>0</asrwt>
<pdfrwt beam="2">  1        1 0.24839598E+00 0.32658072E+03</pdfrwt>
<pdfrwt beam="1">  1       -1 0.13738216E-01 0.32658072E+03</pdfrwt>
<totfact> 0.22116383E+02</totfact>
</mgrwt>
</event>
<event>
 4    1  0.8142558E-001  0.2220249E+03  0.7546771E-02  0.1132382E+00
         -2   -1    0    0    0  501 -0.00000000000E+00  0.00000000000E+00  0.26279850048E+02  0.26279850048E+02  0.00000000000E+00 0. -1.
          2   -1    0    0  502    0  0.00000000000E+00 -0.00000000000E+00 -0.19900726066E+04  0.19900726066E+04  0.00000000000E+00 0.  1.
          6    1    1    2  502    0  0.12125692509E+03 -0.68284955225E+02 -0.74028288104E+03  0.77286080310E+03  0.17300000000E+03 0.  1.
         -6    1    1    2    0  501 -0.12125692509E+03  0.68284955225E+02 -0.12235098755E+04  0.12434916535E+04  0.17300000000E+03 0.  1.
<mgrwt>
<rscale>  2 0.22202495E+03</rscale>
<asrwt>0</asrwt>
<pdfrwt beam="2">  1        2 0.30616509E+00 0.22202495E+03</pdfrwt>
<pdfrwt beam="1">  1       -2 0.40430529E-02 0.22202495E+03</pdfrwt>
<totfact> 0.20389005E+03</totfact>
</mgrwt>
</event>
<event>
 4    1  0.8142558E-001  0.2201845E+03  0.7546771E-02  0.1133746E+00
         -2   -1    0    0    0  501 -0.00000000000E+00  0.00000000000E+00  0.15810363692E+02  0.15810363692E+02  0.00000000000E+00 0. -1.
          2   -1    0    0  502    0  0.00000000000E+00 -0.00000000000E+00 -0.30776495309E+04  0.30776495309E+04  0.00000000000E+00 0.  1.
          6    1    1    2  502    0  0.10673977366E+03  0.84609895766E+02 -0.16243498934E+04  0.16392052312E+04  0.17300000000E+03 0. -1.
         -6    1    1    2    0  501 -0.10673977366E+03 -0.84609895766E+02 -0.14374892738E+04  0.14542546634E+04  0.17300000000E+03 0. -1.
<mgrwt>
<rscale>  2 0.22018450E+03</rscale>
<asrwt>0</asrwt>
<pdfrwt beam="2">  1        2 0.47348407E+00 0.22018450E+03</pdfrwt>
<pdfrwt beam="1">  1       -2 0.24323661E-02 0.22018450E+03</pdfrwt>
<totfact> 0.10945018E+03</totfact>
</mgrwt>
</event>
<event>
 4    1  0.8142558E-001  0.1924850E+03  0.7546771E-02  0.1156239E+00
         -1   -1    0    0    0  501 -0.00000000000E+00  0.00000000000E+00  0.44961387036E+02  0.44961387036E+02  0.00000000000E+00 0. -1.
          1   -1    0    0  502    0  0.00000000000E+00 -0.00000000000E+00 -0.97579062527E+03  0.97579062527E+03  0.00000000000E+00 0.  1.
          6    1    1    2  502    0  0.84103316567E+02  0.69372372296E+01 -0.26415303552E+03  0.32684448794E+03  0.17300000000E+03 0. -1.
         -6    1    1    2    0  501 -0.84103316567E+02 -0.69372372296E+01 -0.66667620271E+03  0.69390752437E+03  0.17300000000E+03 0.  1.
<mgrwt>
<rscale>  2 0.19248505E+03</rscale>
<asrwt>0</asrwt>
<pdfrwt beam="2">  1        1 0.15012162E+00 0.19248505E+03</pdfrwt>
<pdfrwt beam="1">  1       -1 0.69171370E-02 0.19248505E+03</pdfrwt>
<totfact> 0.17903832E+03</totfact>
</mgrwt>
</event>
<event>
 4    1  0.8142558E-001  0.1976926E+03  0.7546771E-02  0.1151701E+00
         -1   -1    0    0    0  501 -0.00000000000E+00  0.00000000000E+00  0.48461303678E+02  0.48461303678E+02  0.00000000000E+00 0. -1.
          1   -1    0    0  502    0  0.00000000000E+00 -0.00000000000E+00 -0.95840754274E+03  0.95840754274E+03  0.00000000000E+00 0.  1.
          6    1    1    2  502    0  0.64115106993E+02  0.71011289464E+02 -0.65542371315E+03  0.68458936154E+03  0.17300000000E+03 0.  1.
         -6    1    1    2    0  501 -0.64115106993E+02 -0.71011289464E+02 -0.25452252592E+03  0.32227948488E+03  0.17300000000E+03 0. -1.
<mgrwt>
<rscale>  2 0.19769256E+03</rscale>
<asrwt>0</asrwt>
<pdfrwt beam="2">  1        1 0.14744729E+00 0.19769256E+03</pdfrwt>
<pdfrwt beam="1">  1       -1 0.74555863E-02 0.19769256E+03</pdfrwt>
<totfact> 0.16474419E+03</totfact>
</mgrwt>
</event>
<event>
 4    1  0.8142558E-001  0.2015974E+03  0.7546771E-02  0.1148398E+00
          1   -1    0    0  502    0  0.00000000000E+00  0.00000000000E+00  0.35745267445E+04  0.35745267445E+04  0.00000000000E+00 0.  1.
         -1   -1    0    0    0  501 -0.00000000000E+00 -0.00000000000E+00 -0.11436611661E+02  0.11436611661E+02  0.00000000000E+00 0. -1.
          6    1    1    2  502    0  0.72844001397E+02 -0.73527302283E+02  0.16444626083E+04  0.16567736064E+04  0.17300000000E+03 0.  1.
         -6    1    1    2    0  501 -0.72844001397E+02  0.73527302283E+02  0.19186275246E+04  0.19291897498E+04  0.17300000000E+03 0. -1.
<mgrwt>
<rscale>  2 0.20159740E+03</rscale>
<asrwt>0</asrwt>
<pdfrwt beam="1">  1        1 0.54992630E+00 0.20159740E+03</pdfrwt>
<pdfrwt beam="2">  1       -1 0.17594816E-02 0.20159740E+03</pdfrwt>
<totfact> 0.23216048E+02</totfact>
</mgrwt>
</event>
<event>
 4    1  0.8142558E-001  0.2373149E+03  0.7546771E-02  0.1121595E+00
         -1   -1    0    0    0  501 -0.00000000000E+00  0.00000000000E+00  0.11354428284E+03  0.11354428284E+03  0.00000000000E+00 0.  1.
          1   -1    0    0  502    0  0.00000000000E+00 -0.00000000000E+00 -0.52417041933E+03  0.52417041933E+03  0.00000000000E+00 0. -1.
          6    1    1    2  502    0  0.16242026792E+03  0.30004279082E+01 -0.27922778551E+03  0.36645122759E+03  0.17300000000E+03 0. -1.
         -6    1    1    2    0  501 -0.16242026792E+03 -0.30004279082E+01 -0.13139835099E+03  0.27126347458E+03  0.17300000000E+03 0.  1.
<mgrwt>
<rscale>  2 0.23731487E+03</rscale>
<asrwt>0</asrwt>
<pdfrwt beam="2">  1        1 0.80641603E-01 0.23731487E+03</pdfrwt>
<pdfrwt beam="1">  1       -1 0.17468351E-01 0.23731487E+03</pdfrwt>
<totfact> 0.10663663E+03</totfact>
</mgrwt>
</event>
<event>
 4    1  0.8142558E-001  0.2704819E+03  0.7546771E-02  0.1101004E+00
         -1   -1    0    0    0  501 -0.00000000000E+00  0.00000000000E+00  0.27734548816E+03  0.27734548816E+03  0.00000000000E+00 0. -1.
          1   -1    0    0  502    0  0.00000000000E+00 -0.00000000000E+00 -0.34211877150E+03  0.34211877150E+03  0.00000000000E+00 0.  1.
          6    1    1    2  502    0  0.41695943154E+02 -0.20369805960E+03  0.11581861705E+03  0.29423528547E+03  0.17300000000E+03 0. -1.
         -6    1    1    2    0  501 -0.41695943154E+02  0.20369805960E+03 -0.18059190039E+03  0.32522897418E+03  0.17300000000E+03 0.  1.
<mgrwt>
<rscale>  2 0.27048189E+03</rscale>
<asrwt>0</asrwt>
<pdfrwt beam="2">  1        1 0.52633657E-01 0.27048189E+03</pdfrwt>
<pdfrwt beam="1">  1       -1 0.42668537E-01 0.27048189E+03</pdfrwt>
<totfact> 0.40970053E+02</totfact>
</mgrwt>
</event>
<event>
 4    1  0.8142558E-001  0.1812427E+03  0.7546771E-02  0.1166606E+00
          1   -1    0    0  502    0  0.00000000000E+00  0.00000000000E+00  0.56941473711E+03  0.56941473711E+03  0.00000000000E+00 0. -1.
         -1   -1    0    0    0  501 -0.00000000000E+00 -0.00000000000E+00 -0.64652828450E+02  0.64652828450E+02  0.00000000000E+00 0.  1.
          6    1    1    2  502    0 -0.14897437748E+02 -0.51941965597E+02  0.35643030815E+03  0.39986430950E+03  0.17300000000E+03 0. -1.
         -6    1    1    2    0  501  0.14897437748E+02  0.51941965597E+02  0.14833160051E+03  0.23420325607E+03  0.17300000000E+03 0.  1.
<mgrwt>
<rscale>  2 0.18124266E+03</rscale>
<asrwt>0</asrwt>
<pdfrwt beam="1">  1        1 0.87602264E-01 0.18124266E+03</pdfrwt>
<pdfrwt beam="2">  1       -1 0.99465894E-02 0.18124266E+03</pdfrwt>
<totfact> 0.22994233E+03</totfact>
</mgrwt>
</event>
<event>
 4    1  0.8142558E-001  0.2251066E+03  0.7546771E-02  0.1130132E+00
         -2   -1    0    0    0  501 -0.00000000000E+00  0.00000000000E+00  0.97393651367E+02  0.97393651367E+02  0.00000000000E+00 0. -1.
          2   -1    0    0  502    0  0.00000000000E+00 -0.00000000000E+00 -0.68449869275E+03  0.68449869275E+03  0.00000000000E+00 0.  1.
          6    1    1    2  502    0  0.10809109420E+03  0.95185689532E+02 -0.48503451756E+03  0.53472561503E+03  0.17300000000E+03 0. -1.
         -6    1    1    2    0  501 -0.10809109420E+03 -0.95185689532E+02 -0.10207052382E+03  0.24716672910E+03  0.17300000000E+03 0. -1.
<mgrwt>
<rscale>  2 0.22510664E+03</rscale>
<asrwt>0</asrwt>
<pdfrwt beam="2">  1        2 0.10530749E+00 0.22510664E+03</pdfrwt>
<pdfrwt beam="1">  1       -2 0.14983639E-01 0.22510664E+03</pdfrwt>
<totfact> 0.14761245E+03</totfact>
</mgrwt>
</event>
<event>
 4    1  0.8142558E-001  0.2099095E+03  0.7546771E-02  0.1141638E+00
          2   -1    0    0  502    0  0.00000000000E+00  0.00000000000E+00  0.14258524638E+04  0.14258524638E+04  0.00000000000E+00 0.  1.
         -2   -1    0    0    0  501 -0.00000000000E+00 -0.00000000000E+00 -0.51724730982E+02  0.51724730982E+02  0.00000000000E+00 0. -1.
          6    1    1    2  502    0 -0.94439953444E+02  0.72208650328E+02  0.11558100071E+04  0.11747164622E+04  0.17300000000E+03 0.  1.
         -6    1    1    2    0  501  0.94439953444E+02 -0.72208650328E+02  0.21831772569E+03  0.30286073258E+03  0.17300000000E+03 0. -1.
<mgrwt>
<rscale>  2 0.20990949E+03</rscale>
<asrwt>0</asrwt>
<pdfrwt beam="1">  1        2 0.21936189E+00 0.20990949E+03</pdfrwt>
<pdfrwt beam="2">  1       -2 0.79576520E-02 0.20990949E+03</pdfrwt>
<totfact> 0.14318073E+03</totfact>
</mgrwt>
</event>
<event>
 4    1  0.8142558E-001  0.1817740E+03  0.7546771E-02  0.1166097E+00
          1   -1    0    0  502    0  0.00000000000E+00  0.00000000000E+00  0.25435480438E+03  0.25435480438E+03  0.00000000000E+00 0.  1.
         -1   -1    0    0    0  501 -0.00000000000E+00 -0.00000000000E+00 -0.18797013813E+03  0.18797013813E+03  0.00000000000E+00 0. -1.
          6    1    1    2  502    0  0.56754046466E+01  0.55502967878E+02 -0.89728997441E+02  0.20271428821E+03  0.17300000000E+03 0.  1.
         -6    1    1    2    0  501 -0.56754046466E+01 -0.55502967878E+02  0.15611366370E+03  0.23961065430E+03  0.17300000000E+03 0. -1.
<mgrwt>
<rscale>  2 0.18177401E+03</rscale>
<asrwt>0</asrwt>
<pdfrwt beam="1">  1        1 0.39131508E-01 0.18177401E+03</pdfrwt>
<pdfrwt beam="2">  1       -1 0.28918483E-01 0.18177401E+03</pdfrwt>
<totfact> 0.11691395E+03</totfact>
</mgrwt>
</event>
<event>
 4    1  0.8142558E-001  0.1810612E+03  0.7546771E-02  0.1166780E+00
         -1   -1    0    0    0  501 -0.00000000000E+00  0.00000000000E+00  0.35575132285E+02  0.35575132285E+02  0.00000000000E+00 0. -1.
          1   -1    0    0  502    0  0.00000000000E+00 -0.00000000000E+00 -0.92238880125E+03  0.92238880125E+03  0.00000000000E+00 0.  1.
          6    1    1    2  502    0  0.44978231910E+02 -0.28829155727E+02 -0.45811516840E+03  0.49259787767E+03  0.17300000000E+03 0.  1.
         -6    1    1    2    0  501 -0.44978231910E+02  0.28829155727E+02 -0.42869850056E+03  0.46536605586E+03  0.17300000000E+03 0. -1.
<mgrwt>
<rscale>  2 0.18106121E+03</rscale>
<asrwt>0</asrwt>
<pdfrwt beam="2">  1        1 0.14190595E+00 0.18106121E+03</pdfrwt>
<pdfrwt beam="1">  1       -1 0.54730980E-02 0.18106121E+03</pdfrwt>
<totfact> 0.27918573E+03</totfact>
</mgrwt>
</event>
<event>
 4    1  0.8142558E-001  0.2004701E+03  0.7546771E-02  0.1149343E+00
          2   -1    0    0  502    0  0.00000000000E+00  0.00000000000E+00  0.30961227903E+03  0.30961227903E+03  0.00000000000E+00 0.  1.
         -2   -1    0    0    0  501 -0.00000000000E+00 -0.00000000000E+00 -0.14480716373E+03  0.14480716373E+03  0.00000000000E+00 0. -1.
          6    1    1    2  502    0  0.59924191102E+02  0.81659926493E+02  0.15554242366E+03  0.25373548792E+03  0.17300000000E+03 0.  1.
         -6    1    1    2    0  501 -0.59924191102E+02 -0.81659926493E+02  0.92626916381E+01  0.20068395484E+03  0.17300000000E+03 0. -1.
<mgrwt>
<rscale>  2 0.20047008E+03</rscale>
<asrwt>0</asrwt>
<pdfrwt beam="1">  1        2 0.47632658E-01 0.20047008E+03</pdfrwt>
<pdfrwt beam="2">  1       -2 0.22278025E-01 0.20047008E+03</pdfrwt>
<totfact> 0.18234909E+03</totfact>
</mgrwt>
</event>
<event>
 4    1  0.8142558E-001  0.4082799E+03  0.7546771E-02  0.1040950E+00
          1   -1    0    0  502    0  0.00000000000E+00  0.00000000000E+00  0.11194690838E+04  0.11194690838E+04  0.00000000000E+00 0.  1.
         -1   -1    0    0    0  501 -0.00000000000E+00 -0.00000000000E+00 -0.16802399457E+03  0.16802399457E+03  0.00000000000E+00 0. -1.
          6    1    1    2  502    0  0.32193488429E+03  0.18199293388E+03  0.69288389752E+03  0.80422670507E+03  0.17300000000E+03 0.  1.
         -6    1    1    2    0  501 -0.32193488429E+03 -0.18199293388E+03  0.25856119169E+03  0.48326637329E+03  0.17300000000E+03 0. -1.
<mgrwt>
<rscale>  2 0.40827993E+03</rscale>
<asrwt>0</asrwt>
<pdfrwt beam="1">  1        1 0.17222601E+00 0.40827993E+03</pdfrwt>
<pdfrwt beam="2">  1       -1 0.25849846E-01 0.40827993E+03</pdfrwt>
<totfact> 0.16999215E+02</totfact>
</mgrwt>
</event>
<event>
 4    1  0.8142558E-001  0.2032629E+03  0.7546771E-02  0.1147015E+00
          2   -1    0    0  502    0  0.00000000000E+00  0.00000000000E+00  0.22105884962E+03  0.22105884962E+03  0.00000000000E+00 0. -1.
         -2   -1    0    0    0  501 -0.00000000000E+00 -0.00000000000E+00 -0.18692625701E+03  0.18692625701E+03  0.00000000000E+00 0.  1.
          6    1    1    2  502    0 -0.29547176854E+02 -0.10253662619E+03  0.19505479179E+02  0.20419661870E+03  0.17300000000E+03 0. -1.
         -6    1    1    2    0  501  0.29547176854E+02  0.10253662619E+03  0.14627113432E+02  0.20378848794E+03  0.17300000000E+03 0. -1.
<mgrwt>
<rscale>  2 0.20326287E+03</rscale>
<asrwt>0</asrwt>
<pdfrwt beam="1">  1        2 0.34009054E-01 0.20326287E+03</pdfrwt>
<pdfrwt beam="2">  1       -2 0.28757886E-01 0.20326287E+03</pdfrwt>
<totfact> 0.16709149E+03</totfact>
</mgrwt>
</event>
<event>
 4    1  0.8142558E-001  0.2208416E+03  0.7546771E-02  0.1133257E+00
         -2   -1    0    0    0  501 -0.00000000000E+00  0.00000000000E+00  0.11357687490E+03  0.11357687490E+03  0.00000000000E+00 0. -1.
          2   -1    0    0  502    0  0.00000000000E+00 -0.00000000000E+00 -0.74968265996E+03  0.74968265996E+03  0.00000000000E+00 0.  1.
          6    1    1    2  502    0  0.65074756786E+02  0.12086067345E+03 -0.60017213243E+03  0.63951357680E+03  0.17300000000E+03 0.  1.
         -6    1    1    2    0  501 -0.65074756786E+02 -0.12086067345E+03 -0.35933652624E+02  0.22374595806E+03  0.17300000000E+03 0. -1.
<mgrwt>
<rscale>  2 0.22084163E+03</rscale>
<asrwt>0</asrwt>
<pdfrwt beam="2">  1        2 0.11533579E+00 0.22084163E+03</pdfrwt>
<pdfrwt beam="1">  1       -2 0.17473366E-01 0.22084163E+03</pdfrwt>
<totfact> 0.10224301E+03</totfact>
</mgrwt>
</event>
<event>
 4    1  0.8142558E-001  0.2084537E+03  0.7546771E-02  0.1142796E+00
         -1   -1    0    0    0  501 -0.00000000000E+00  0.00000000000E+00  0.31065049600E+03  0.31065049600E+03  0.00000000000E+00 0.  1.
          1   -1    0    0  502    0  0.00000000000E+00 -0.00000000000E+00 -0.23884792691E+03  0.23884792691E+03  0.00000000000E+00 0. -1.
          6    1    1    2  502    0  0.11309608365E+03 -0.27077969660E+02 -0.14095844732E+03  0.25163907576E+03  0.17300000000E+03 0. -1.
         -6    1    1    2    0  501 -0.11309608365E+03  0.27077969660E+02  0.21276101641E+03  0.29785934715E+03  0.17300000000E+03 0.  1.
<mgrwt>
<rscale>  2 0.20845369E+03</rscale>
<asrwt>0</asrwt>
<pdfrwt beam="2">  1        1 0.36745835E-01 0.20845369E+03</pdfrwt>
<pdfrwt beam="1">  1       -1 0.47792384E-01 0.20845369E+03</pdfrwt>
<totfact> 0.52548433E+02</totfact>
</mgrwt>
</event>
<event>
 4    1  0.8142558E-001  0.2885320E+03  0.7546771E-02  0.1091118E+00
          2   -1    0    0  502    0  0.00000000000E+00  0.00000000000E+00  0.17257632435E+04  0.17257632435E+04  0.00000000000E+00 0. -1.
         -2   -1    0    0    0  501 -0.00000000000E+00 -0.00000000000E+00 -0.79314411336E+02  0.79314411336E+02  0.00000000000E+00 0.  1.
          6    1    1    2  502    0 -0.22181499119E+03 -0.64185966854E+02  0.25829828712E+03  0.38725796801E+03  0.17300000000E+03 0. -1.
         -6    1    1    2    0  501  0.22181499119E+03  0.64185966854E+02  0.13881505451E+04  0.14178196868E+04  0.17300000000E+03 0.  1.
<mgrwt>
<rscale>  2 0.28853202E+03</rscale>
<asrwt>0</asrwt>
<pdfrwt beam="1">  1        2 0.26550201E+00 0.28853202E+03</pdfrwt>
<pdfrwt beam="2">  1       -2 0.12202218E-01 0.28853202E+03</pdfrwt>
<totfact> 0.49839120E+02</totfact>
</mgrwt>
</event>
<event>
 4    1  0.8142558E-001  0.1786951E+03  0.7546771E-02  0.1169072E+00
          4   -1    0    0  502    0  0.00000000000E+00  0.00000000000E+00  0.47400945906E+03  0.47400945906E+03  0.00000000000E+00 0.  1.
         -4   -1    0    0    0  501 -0.00000000000E+00 -0.00000000000E+00 -0.92236134139E+02  0.92236134139E+02  0.00000000000E+00 0. -1.
          6    1    1    2  502    0 -0.41963731227E+02 -0.15555699750E+02  0.43869919887E+02  0.18400137066E+03  0.17300000000E+03 0. -1.
         -6    1    1    2    0  501  0.41963731227E+02  0.15555699750E+02  0.33790340504E+03  0.38224422254E+03  0.17300000000E+03 0.  1.
<mgrwt>
<rscale>  2 0.17869509E+03</rscale>
<asrwt>0</asrwt>
<pdfrwt beam="1">  1        4 0.72924531E-01 0.17869509E+03</pdfrwt>
<pdfrwt beam="2">  1       -4 0.14190175E-01 0.17869509E+03</pdfrwt>
<totfact> 0.12669286E+02</totfact>
</mgrwt>
</event>
<event>
 4    1  0.8142558E-001  0.2266470E+03  0.7546771E-02  0.1129022E+00
          1   -1    0    0  502    0  0.00000000000E+00  0.00000000000E+00  0.38207361219E+03  0.38207361219E+03  0.00000000000E+00 0.  1.
         -1   -1    0    0    0  501 -0.00000000000E+00 -0.00000000000E+00 -0.19482864763E+03  0.19482864763E+03  0.00000000000E+00 0. -1.
          6    1    1    2  502    0  0.59826627969E+02 -0.13364366041E+03 -0.66959350625E+02  0.23633114060E+03  0.17300000000E+03 0. -1.
         -6    1    1    2    0  501 -0.59826627969E+02  0.13364366041E+03  0.25420431518E+03  0.34057111921E+03  0.17300000000E+03 0.  1.
<mgrwt>
<rscale>  2 0.22664698E+03</rscale>
<asrwt>0</asrwt>
<pdfrwt beam="1">  1        1 0.58780556E-01 0.22664698E+03</pdfrwt>
<pdfrwt beam="2">  1       -1 0.29973638E-01 0.22664698E+03</pdfrwt>
<totfact> 0.66078854E+02</totfact>
</mgrwt>
</event>
<event>
 4    1  0.8142558E-001  0.2341855E+03  0.7546771E-02  0.1123728E+00
         -1   -1    0    0    0  501 -0.00000000000E+00  0.00000000000E+00  0.76936405434E+02  0.76936405434E+02  0.00000000000E+00 0.  1.
          1   -1    0    0  502    0  0.00000000000E+00 -0.00000000000E+00 -0.15175123791E+04  0.15175123791E+04  0.00000000000E+00 0. -1.
          6    1    1    2  502    0  0.33398305533E+02 -0.15426724416E+03 -0.13975644622E+03  0.27271724128E+03  0.17300000000E+03 0.  1.
         -6    1    1    2    0  501 -0.33398305533E+02  0.15426724416E+03 -0.13008195275E+04  0.13217315433E+04  0.17300000000E+03 0. -1.
<mgrwt>
<rscale>  2 0.23418546E+03</rscale>
<asrwt>0</asrwt>
<pdfrwt beam="2">  1        1 0.23346341E+00 0.23418546E+03</pdfrwt>
<pdfrwt beam="1">  1       -1 0.11836372E-01 0.23418546E+03</pdfrwt>
<totfact> 0.32946364E+02</totfact>
</mgrwt>
</event>
<event>
 4    1  0.8142558E-001  0.1780089E+03  0.7546771E-02  0.1169744E+00
         -1   -1    0    0    0  501 -0.00000000000E+00  0.00000000000E+00  0.17441867275E+03  0.17441867275E+03  0.00000000000E+00 0.  1.
          1   -1    0    0  502    0  0.00000000000E+00 -0.00000000000E+00 -0.18234782501E+03  0.18234782501E+03  0.00000000000E+00 0. -1.
          6    1    1    2  502    0 -0.39825730156E+02  0.13118202876E+02 -0.14815739683E+02  0.17862441650E+03  0.17300000000E+03 0. -1.
         -6    1    1    2    0  501  0.39825730156E+02 -0.13118202876E+02  0.68865874216E+01  0.17814208126E+03  0.17300000000E+03 0.  1.
<mgrwt>
<rscale>  2 0.17800892E+03</rscale>
<asrwt>0</asrwt>
<pdfrwt beam="2">  1        1 0.28053511E-01 0.17800892E+03</pdfrwt>
<pdfrwt beam="1">  1       -1 0.26833642E-01 0.17800892E+03</pdfrwt>
<totfact> 0.20086984E+03</totfact>
</mgrwt>
</event>
<event>
 4    1  0.8142558E-001  0.1968376E+03  0.7546771E-02  0.1152435E+00
          2   -1    0    0  502    0  0.00000000000E+00  0.00000000000E+00  0.12413699550E+04  0.12413699550E+04  0.00000000000E+00 0. -1.
         -2   -1    0    0    0  501 -0.00000000000E+00 -0.00000000000E+00 -0.40180049316E+02  0.40180049316E+02  0.00000000000E+00 0.  1.
          6    1    1    2  502    0 -0.87577596929E+02 -0.33855472178E+02  0.29786093087E+03  0.35702403648E+03  0.17300000000E+03 0.  1.
         -6    1    1    2    0  501  0.87577596929E+02  0.33855472178E+02  0.90332897481E+03  0.92452596784E+03  0.17300000000E+03 0. -1.
<mgrwt>
<rscale>  2 0.19683757E+03</rscale>
<asrwt>0</asrwt>
<pdfrwt beam="1">  1        2 0.19097996E+00 0.19683757E+03</pdfrwt>
<pdfrwt beam="2">  1       -2 0.61815470E-02 0.19683757E+03</pdfrwt>
<totfact> 0.26671030E+03</totfact>
</mgrwt>
</event>
<event>
 4    1  0.8142558E-001  0.2760012E+03  0.7546771E-02  0.1097893E+00
          2   -1    0    0  502    0  0.00000000000E+00  0.00000000000E+00  0.69965473966E+03  0.69965473966E+03  0.00000000000E+00 0.  1.
         -2   -1    0    0    0  501 -0.00000000000E+00 -0.00000000000E+00 -0.10919247903E+03  0.10919247903E+03  0.00000000000E+00 0. -1.
          6    1    1    2  502    0  0.21826993807E+02  0.21394212407E+03  0.31695262160E+03  0.42028039979E+03  0.17300000000E+03 0. -1.
         -6    1    1    2    0  501 -0.21826993807E+02 -0.21394212407E+03  0.27350963903E+03  0.38856681890E+03  0.17300000000E+03 0. -1.
<mgrwt>
<rscale>  2 0.27600118E+03</rscale>
<asrwt>0</asrwt>
<pdfrwt beam="1">  1        2 0.10763919E+00 0.27600118E+03</pdfrwt>
<pdfrwt beam="2">  1       -2 0.16798843E-01 0.27600118E+03</pdfrwt>
<totfact> 0.11894206E+03</totfact>
</mgrwt>
</event>
<event>
 4    1  0.8142558E-001  0.1770632E+03  0.7546771E-02  0.1170676E+00
          2   -1    0    0  502    0  0.00000000000E+00  0.00000000000E+00  0.90832673739E+03  0.90832673739E+03  0.00000000000E+00 0. -1.
         -2   -1    0    0    0  501 -0.00000000000E+00 -0.00000000000E+00 -0.40252132376E+02  0.40252132376E+02  0.00000000000E+00 0.  1.
          6    1    1    2  502    0 -0.37060414284E+02  0.69922586724E+01  0.25498623664E+03  0.31043412645E+03  0.17300000000E+03 0.  1.
         -6    1    1    2    0  501  0.37060414284E+02 -0.69922586724E+01  0.61308836838E+03  0.63814474332E+03  0.17300000000E+03 0. -1.
<mgrwt>
<rscale>  2 0.17706317E+03</rscale>
<asrwt>0</asrwt>
<pdfrwt beam="1">  1        2 0.13974256E+00 0.17706317E+03</pdfrwt>
<pdfrwt beam="2">  1       -2 0.61926365E-02 0.17706317E+03</pdfrwt>
<totfact> 0.41699406E+03</totfact>
</mgrwt>
</event>
<event>
 4    1  0.8142558E-001  0.2387591E+03  0.7546771E-02  0.1120622E+00
         -2   -1    0    0    0  501 -0.00000000000E+00  0.00000000000E+00  0.81491845072E+02  0.81491845072E+02  0.00000000000E+00 0.  1.
          2   -1    0    0  502    0  0.00000000000E+00 -0.00000000000E+00 -0.75207948427E+03  0.75207948427E+03  0.00000000000E+00 0. -1.
          6    1    1    2  502    0 -0.84693846135E+02 -0.14108110596E+03 -0.22512253984E+03  0.32815557892E+03  0.17300000000E+03 0.  1.
         -6    1    1    2    0  501  0.84693846135E+02  0.14108110596E+03 -0.44546509935E+03  0.50541575042E+03  0.17300000000E+03 0. -1.
<mgrwt>
<rscale>  2 0.23875914E+03</rscale>
<asrwt>0</asrwt>
<pdfrwt beam="2">  1        2 0.11570454E+00 0.23875914E+03</pdfrwt>
<pdfrwt beam="1">  1       -2 0.12537207E-01 0.23875914E+03</pdfrwt>
<totfact> 0.17628186E+03</totfact>
</mgrwt>
</event>
<event>
 4    1  0.8142558E-001  0.2253786E+03  0.7546771E-02  0.1129935E+00
         -2   -1    0    0    0  501 -0.00000000000E+00  0.00000000000E+00  0.59830630452E+02  0.59830630452E+02  0.00000000000E+00 0. -1.
          2   -1    0    0  502    0  0.00000000000E+00 -0.00000000000E+00 -0.10520155573E+04  0.10520155573E+04  0.00000000000E+00 0.  1.
          6    1    1    2  502    0 -0.47259265689E+02  0.13650309187E+03 -0.25187297067E+03  0.33798746373E+03  0.17300000000E+03 0. -1.
         -6    1    1    2    0  501  0.47259265689E+02 -0.13650309187E+03 -0.74031195619E+03  0.77385872403E+03  0.17300000000E+03 0. -1.
<mgrwt>
<rscale>  2 0.22537864E+03</rscale>
<asrwt>0</asrwt>
<pdfrwt beam="2">  1        2 0.16184855E+00 0.22537864E+03</pdfrwt>
<pdfrwt beam="1">  1       -2 0.92047124E-02 0.22537864E+03</pdfrwt>
<totfact> 0.18466597E+03</totfact>
</mgrwt>
</event>
<event>
 4    1  0.8142558E-001  0.2965904E+03  0.7546771E-02  0.1086958E+00
         -2   -1    0    0    0  501 -0.00000000000E+00  0.00000000000E+00  0.20488577250E+03  0.20488577250E+03  0.00000000000E+00 0.  1.
          2   -1    0    0  502    0  0.00000000000E+00 -0.00000000000E+00 -0.44493438431E+03  0.44493438431E+03  0.00000000000E+00 0. -1.
          6    1    1    2  502    0  0.19991889439E+03  0.13442201678E+03 -0.18084995001E+03  0.34737954365E+03  0.17300000000E+03 0. -1.
         -6    1    1    2    0  501 -0.19991889439E+03 -0.13442201678E+03 -0.59198661805E+02  0.30244061316E+03  0.17300000000E+03 0.  1.
<mgrwt>
<rscale>  2 0.29659036E+03</rscale>
<asrwt>0</asrwt>
<pdfrwt beam="2">  1        2 0.68451443E-01 0.29659036E+03</pdfrwt>
<pdfrwt beam="1">  1       -2 0.31520888E-01 0.29659036E+03</pdfrwt>
<totfact> 0.66490051E+02</totfact>
</mgrwt>
</event>
<event>
 4    1  0.8142558E-001  0.1854728E+03  0.7546771E-02  0.1162609E+00
         -4   -1    0    0    0  501 -0.00000000000E+00  0.00000000000E+00  0.72944351900E+03  0.72944351900E+03  0.00000000000E+00 0.  1.
          4   -1    0    0  502    0  0.00000000000E+00 -0.00000000000E+00 -0.22261005036E+03  0.22261005036E+03  0.00000000000E+00 0. -1.
          6    1    1    2  502    0 -0.65286422321E+02  0.14451429645E+02  0.67602348077E+03  0.70100492674E+03  0.17300000000E+03 0.  1.
         -6    1    1    2    0  501  0.65286422321E+02 -0.14451429645E+02 -0.16919001213E+03  0.25104864262E+03  0.17300000000E+03 0. -1.
<mgrwt>
<rscale>  2 0.18547280E+03</rscale>
<asrwt>0</asrwt>
<pdfrwt beam="2">  1        4 0.34247700E-01 0.18547280E+03</pdfrwt>
<pdfrwt beam="1">  1       -4 0.11222208E+00 0.18547280E+03</pdfrwt>
<totfact> 0.94598103E+00</totfact>
</mgrwt>
</event>
<event>
 4    1  0.8142558E-001  0.1758006E+03  0.7546771E-02  0.1171930E+00
          1   -1    0    0  502    0  0.00000000000E+00  0.00000000000E+00  0.94168346901E+03  0.94168346901E+03  0.00000000000E+00 0. -1.
         -1   -1    0    0    0  501 -0.00000000000E+00 -0.00000000000E+00 -0.32835814223E+02  0.32835814223E+02  0.00000000000E+00 0.  1.
          6    1    1    2  502    0  0.45979633906E+01  0.30914386630E+02  0.46519254328E+03  0.49730266729E+03  0.17300000000E+03 0.  1.
         -6    1    1    2    0  501 -0.45979633906E+01 -0.30914386630E+02  0.44365511150E+03  0.47721661594E+03  0.17300000000E+03 0.  1.
<mgrwt>
<rscale>  2 0.17580057E+03</rscale>
<asrwt>0</asrwt>
<pdfrwt beam="1">  1        1 0.14487436E+00 0.17580057E+03</pdfrwt>
<pdfrwt beam="2">  1       -1 0.50516644E-02 0.17580057E+03</pdfrwt>
<totfact> 0.30394902E+03</totfact>
</mgrwt>
</event>
<event>
 4    1  0.8142558E-001  0.1850332E+03  0.7546771E-02  0.1163019E+00
         -2   -1    0    0    0  501 -0.00000000000E+00  0.00000000000E+00  0.53944087452E+02  0.53944087452E+02  0.00000000000E+00 0.  1.
          2   -1    0    0  502    0  0.00000000000E+00 -0.00000000000E+00 -0.69290533379E+03  0.69290533379E+03  0.00000000000E+00 0. -1.
          6    1    1    2  502    0  0.38599043475E+02 -0.53088687966E+02 -0.42772811467E+03  0.46603501481E+03  0.17300000000E+03 0.  1.
         -6    1    1    2    0  501 -0.38599043475E+02  0.53088687966E+02 -0.21123313167E+03  0.28081440643E+03  0.17300000000E+03 0.  1.
<mgrwt>
<rscale>  2 0.18503323E+03</rscale>
<asrwt>0</asrwt>
<pdfrwt beam="2">  1        2 0.10660082E+00 0.18503323E+03</pdfrwt>
<pdfrwt beam="1">  1       -2 0.82990908E-02 0.18503323E+03</pdfrwt>
<totfact> 0.37346687E+03</totfact>
</mgrwt>
</event>
<event>
 4    1  0.8142558E-001  0.2118539E+03  0.7546771E-02  0.1140106E+00
         -2   -1    0    0    0  501 -0.00000000000E+00  0.00000000000E+00  0.24978731560E+03  0.24978731560E+03  0.00000000000E+00 0.  1.
          2   -1    0    0  502    0  0.00000000000E+00 -0.00000000000E+00 -0.18786497930E+03  0.18786497930E+03  0.00000000000E+00 0. -1.
          6    1    1    2  502    0  0.93899719266E+02 -0.78332081363E+02  0.76633645341E+02  0.22528823282E+03  0.17300000000E+03 0.  1.
         -6    1    1    2    0  501 -0.93899719266E+02  0.78332081363E+02 -0.14711309035E+02  0.21236406208E+03  0.17300000000E+03 0.  1.
<mgrwt>
<rscale>  2 0.21185389E+03</rscale>
<asrwt>0</asrwt>
<pdfrwt beam="2">  1        2 0.28902304E-01 0.21185389E+03</pdfrwt>
<pdfrwt beam="1">  1       -2 0.38428818E-01 0.21185389E+03</pdfrwt>
<totfact> 0.11700346E+03</totfact>
</mgrwt>
</event>
<event>
 4    1  0.8142558E-001  0.1932677E+03  0.7546771E-02  0.1155547E+00
         -1   -1    0    0    0  501 -0.00000000000E+00  0.00000000000E+00  0.61220186209E+03  0.61220186209E+03  0.00000000000E+00 0. -1.
          1   -1    0    0  502    0  0.00000000000E+00 -0.00000000000E+00 -0.61484333250E+02  0.61484333250E+02  0.00000000000E+00 0.  1.
          6    1    1    2  502    0 -0.82654619834E+02 -0.24322892158E+02  0.30484513734E+03  0.36094729120E+03  0.17300000000E+03 0.  1.
         -6    1    1    2    0  501  0.82654619834E+02  0.24322892158E+02  0.24587239150E+03  0.31273890414E+03  0.17300000000E+03 0. -1.
<mgrwt>
<rscale>  2 0.19326766E+03</rscale>
<asrwt>0</asrwt>
<pdfrwt beam="2">  1        1 0.94591286E-02 0.19326766E+03</pdfrwt>
<pdfrwt beam="1">  1       -1 0.94184898E-01 0.19326766E+03</pdfrwt>
<totfact> 0.79281214E+02</totfact>
</mgrwt>
</event>
<event>
 4    1  0.8142558E-001  0.2067485E+03  0.7546771E-02  0.1144167E+00
          1   -1    0    0  502    0  0.00000000000E+00  0.00000000000E+00  0.26476238747E+03  0.26476238747E+03  0.00000000000E+00 0. -1.
         -1   -1    0    0    0  501 -0.00000000000E+00 -0.00000000000E+00 -0.22133061517E+03  0.22133061517E+03  0.00000000000E+00 0.  1.
          6    1    1    2  502    0 -0.82816401804E+02 -0.77184004283E+02  0.14813854223E+03  0.25434219984E+03  0.17300000000E+03 0. -1.
         -6    1    1    2    0  501  0.82816401804E+02  0.77184004283E+02 -0.10470676993E+03  0.23175080279E+03  0.17300000000E+03 0.  1.
<mgrwt>
<rscale>  2 0.20674846E+03</rscale>
<asrwt>0</asrwt>
<pdfrwt beam="1">  1        1 0.40732675E-01 0.20674846E+03</pdfrwt>
<pdfrwt beam="2">  1       -1 0.34050864E-01 0.20674846E+03</pdfrwt>
<totfact> 0.84300524E+02</totfact>
</mgrwt>
</event>
<event>
 4    1  0.8142558E-001  0.1824390E+03  0.7546771E-02  0.1165463E+00
          1   -1    0    0  502    0  0.00000000000E+00  0.00000000000E+00  0.35165092250E+03  0.35165092250E+03  0.00000000000E+00 0.  1.
         -1   -1    0    0    0  501 -0.00000000000E+00 -0.00000000000E+00 -0.95256733740E+02  0.95256733740E+02  0.00000000000E+00 0. -1.
          6    1    1    2  502    0  0.55709235748E+02 -0.15857462816E+02  0.14602157075E+03  0.23367986049E+03  0.17300000000E+03 0.  1.
         -6    1    1    2    0  501 -0.55709235748E+02  0.15857462816E+02  0.11037261802E+03  0.21322779575E+03  0.17300000000E+03 0. -1.
<mgrwt>
<rscale>  2 0.18243897E+03</rscale>
<asrwt>0</asrwt>
<pdfrwt beam="1">  1        1 0.54100141E-01 0.18243897E+03</pdfrwt>
<pdfrwt beam="2">  1       -1 0.14654882E-01 0.18243897E+03</pdfrwt>
<totfact> 0.23523277E+03</totfact>
</mgrwt>
</event>
<event>
 4    1  0.8142558E-001  0.1873842E+03  0.7546771E-02  0.1160842E+00
          2   -1    0    0  502    0  0.00000000000E+00  0.00000000000E+00  0.46467093213E+03  0.46467093213E+03  0.00000000000E+00 0.  1.
         -2   -1    0    0    0  501 -0.00000000000E+00 -0.00000000000E+00 -0.91212224153E+02  0.91212224153E+02  0.00000000000E+00 0. -1.
          6    1    1    2  502    0  0.71986613506E+02  0.13319824005E+01  0.30184809071E+03  0.35528174251E+03  0.17300000000E+03 0.  1.
         -6    1    1    2    0  501 -0.71986613506E+02 -0.13319824005E+01  0.71610617275E+02  0.20060141377E+03  0.17300000000E+03 0. -1.
<mgrwt>
<rscale>  2 0.18738422E+03</rscale>
<asrwt>0</asrwt>
<pdfrwt beam="1">  1        2 0.71487834E-01 0.18738422E+03</pdfrwt>
<pdfrwt beam="2">  1       -2 0.14032650E-01 0.18738422E+03</pdfrwt>
<totfact> 0.25511405E+03</totfact>
</mgrwt>
</event>
<event>
 4    1  0.8142558E-001  0.1998150E+03  0.7546771E-02  0.1149895E+00
          4   -1    0    0  502    0  0.00000000000E+00  0.00000000000E+00  0.15764550762E+04  0.15764550762E+04  0.00000000000E+00 0. -1.
         -4   -1    0    0    0  501 -0.00000000000E+00 -0.00000000000E+00 -0.25826569129E+02  0.25826569129E+02  0.00000000000E+00 0.  1.
          6    1    1    2  502    0  0.97663389515E+02  0.21421996687E+02  0.66383237744E+03  0.69325281458E+03  0.17300000000E+03 0. -1.
         -6    1    1    2    0  501 -0.97663389515E+02 -0.21421996687E+02  0.88679612961E+03  0.90902883073E+03  0.17300000000E+03 0.  1.
<mgrwt>
<rscale>  2 0.19981501E+03</rscale>
<asrwt>0</asrwt>
<pdfrwt beam="1">  1        4 0.24253147E+00 0.19981501E+03</pdfrwt>
<pdfrwt beam="2">  1       -4 0.39733196E-02 0.19981501E+03</pdfrwt>
<totfact> 0.49312163E+01</totfact>
</mgrwt>
</event>
<event>
 4    1  0.8142558E-001  0.2271376E+03  0.7546771E-02  0.1128671E+00
         -1   -1    0    0    0  501 -0.00000000000E+00  0.00000000000E+00  0.10653288725E+03  0.10653288725E+03  0.00000000000E+00 0.  1.
          1   -1    0    0  502    0  0.00000000000E+00 -0.00000000000E+00 -0.94186362270E+03  0.94186362270E+03  0.00000000000E+00 0. -1.
          6    1    1    2  502    0 -0.12725478206E+03  0.73950686724E+02 -0.52291092560E+02  0.23307904664E+03  0.17300000000E+03 0.  1.
         -6    1    1    2    0  501  0.12725478206E+03 -0.73950686724E+02 -0.78303964289E+03  0.81531746330E+03  0.17300000000E+03 0. -1.
<mgrwt>
<rscale>  2 0.22713759E+03</rscale>
<asrwt>0</asrwt>
<pdfrwt beam="2">  1        1 0.14490210E+00 0.22713759E+03</pdfrwt>
<pdfrwt beam="1">  1       -1 0.16389675E-01 0.22713759E+03</pdfrwt>
<totfact> 0.49814973E+02</totfact>
</mgrwt>
</event>
<event>
 4    1  0.8142558E-001  0.1831062E+03  0.7546771E-02  0.1164830E+00
          2   -1    0    0  502    0  0.00000000000E+00  0.00000000000E+00  0.11485798678E+04  0.11485798678E+04  0.00000000000E+00 0.  1.
         -2   -1    0    0    0  501 -0.00000000000E+00 -0.00000000000E+00 -0.30569006625E+02  0.30569006625E+02  0.00000000000E+00 0. -1.
          6    1    1    2  502    0  0.20847417056E+02  0.56251681127E+02  0.43381570188E+03  0.47087570507E+03  0.17300000000E+03 0. -1.
         -6    1    1    2    0  501 -0.20847417056E+02 -0.56251681127E+02  0.68419515934E+03  0.70827316940E+03  0.17300000000E+03 0. -1.
<mgrwt>
<rscale>  2 0.18310616E+03</rscale>
<asrwt>0</asrwt>
<pdfrwt beam="1">  1        2 0.17670456E+00 0.18310616E+03</pdfrwt>
<pdfrwt beam="2">  1       -2 0.47029250E-02 0.18310616E+03</pdfrwt>
<totfact> 0.45513292E+03</totfact>
</mgrwt>
</event>
<event>
 4    1  0.8142558E-001  0.1928176E+03  0.7546771E-02  0.1155944E+00
         -4   -1    0    0    0  501 -0.00000000000E+00  0.00000000000E+00  0.10476688895E+04  0.10476688895E+04  0.00000000000E+00 0. -1.
          4   -1    0    0  502    0  0.00000000000E+00 -0.00000000000E+00 -0.15827046869E+03  0.15827046869E+03  0.00000000000E+00 0.  1.
          6    1    1    2  502    0  0.11713796444E+02 -0.84335204049E+02 -0.86387526134E+02  0.21128522036E+03  0.17300000000E+03 0.  1.
         -6    1    1    2    0  501 -0.11713796444E+02  0.84335204049E+02  0.97578594695E+03  0.99465413784E+03  0.17300000000E+03 0. -1.
<mgrwt>
<rscale>  2 0.19281763E+03</rscale>
<asrwt>0</asrwt>
<pdfrwt beam="2">  1        4 0.24349303E-01 0.19281763E+03</pdfrwt>
<pdfrwt beam="1">  1       -4 0.16117983E+00 0.19281763E+03</pdfrwt>
<totfact> 0.73264446E+00</totfact>
</mgrwt>
</event>
<event>
 4    1  0.8142558E-001  0.1778947E+03  0.7546771E-02  0.1169856E+00
         -1   -1    0    0    0  501 -0.00000000000E+00  0.00000000000E+00  0.70152438343E+02  0.70152438343E+02  0.00000000000E+00 0.  1.
          1   -1    0    0  502    0  0.00000000000E+00 -0.00000000000E+00 -0.45686762236E+03  0.45686762236E+03  0.00000000000E+00 0. -1.
          6    1    1    2  502    0  0.40176512792E+02 -0.10166779962E+02 -0.22293752134E+03  0.28521510131E+03  0.17300000000E+03 0. -1.
         -6    1    1    2    0  501 -0.40176512792E+02  0.10166779962E+02 -0.16377766268E+03  0.24180495939E+03  0.17300000000E+03 0.  1.
<mgrwt>
<rscale>  2 0.17789468E+03</rscale>
<asrwt>0</asrwt>
<pdfrwt beam="2">  1        1 0.70287329E-01 0.17789468E+03</pdfrwt>
<pdfrwt beam="1">  1       -1 0.10792683E-01 0.17789468E+03</pdfrwt>
<totfact> 0.27123990E+03</totfact>
</mgrwt>
</event>
<event>
 4    1  0.8142558E-001  0.3765250E+03  0.7546771E-02  0.1052226E+00
          1   -1    0    0  502    0  0.00000000000E+00  0.00000000000E+00  0.79044854636E+03  0.79044854636E+03  0.00000000000E+00 0. -1.
         -1   -1    0    0    0  501 -0.00000000000E+00 -0.00000000000E+00 -0.22719648762E+03  0.22719648762E+03  0.00000000000E+00 0.  1.
          6    1    1    2  502    0  0.30085511780E+03 -0.14604209728E+03  0.48136869964E+02  0.37958958670E+03  0.17300000000E+03 0.  1.
         -6    1    1    2    0  501 -0.30085511780E+03  0.14604209728E+03  0.51511518878E+03  0.63805544727E+03  0.17300000000E+03 0. -1.
<mgrwt>
<rscale>  2 0.37652503E+03</rscale>
<asrwt>0</asrwt>
<pdfrwt beam="1">  1        1 0.12160747E+00 0.37652503E+03</pdfrwt>
<pdfrwt beam="2">  1       -1 0.34953306E-01 0.37652503E+03</pdfrwt>
<totfact> 0.18335061E+02</totfact>
</mgrwt>
</event>
<event>
 4    1  0.8142558E-001  0.2590228E+03  0.7546771E-02  0.1107732E+00
          1   -1    0    0  502    0  0.00000000000E+00  0.00000000000E+00  0.18619452961E+04  0.18619452961E+04  0.00000000000E+00 0.  1.
         -1   -1    0    0    0  501 -0.00000000000E+00 -0.00000000000E+00 -0.59198061204E+02  0.59198061204E+02  0.00000000000E+00 0. -1.
          6    1    1    2  502    0 -0.18510535604E+03  0.53849894807E+02  0.15022512951E+04  0.15244184982E+04  0.17300000000E+03 0.  1.
         -6    1    1    2    0  501  0.18510535604E+03 -0.53849894807E+02  0.30049593981E+03  0.39672485912E+03  0.17300000000E+03 0. -1.
<mgrwt>
<rscale>  2 0.25902279E+03</rscale>
<asrwt>0</asrwt>
<pdfrwt beam="1">  1        1 0.28645308E+00 0.25902279E+03</pdfrwt>
<pdfrwt beam="2">  1       -1 0.91073954E-02 0.25902279E+03</pdfrwt>
<totfact> 0.29352224E+02</totfact>
</mgrwt>
</event>
<event>
 4    1  0.8142558E-001  0.2324747E+03  0.7546771E-02  0.1124910E+00
         -1   -1    0    0    0  501 -0.00000000000E+00  0.00000000000E+00  0.86080247723E+02  0.86080247723E+02  0.00000000000E+00 0.  1.
          1   -1    0    0  502    0  0.00000000000E+00 -0.00000000000E+00 -0.69074205643E+03  0.69074205643E+03  0.00000000000E+00 0. -1.
          6    1    1    2  502    0 -0.24157816384E+02  0.15340100440E+03 -0.41954298054E+03  0.47964651647E+03  0.17300000000E+03 0. -1.
         -6    1    1    2    0  501  0.24157816384E+02 -0.15340100440E+03 -0.18511882817E+03  0.29717578768E+03  0.17300000000E+03 0.  1.
<mgrwt>
<rscale>  2 0.23247466E+03</rscale>
<asrwt>0</asrwt>
<pdfrwt beam="2">  1        1 0.10626801E+00 0.23247466E+03</pdfrwt>
<pdfrwt beam="1">  1       -1 0.13243115E-01 0.23247466E+03</pdfrwt>
<totfact> 0.11280061E+03</totfact>
</mgrwt>
</event>
<event>
 4    1  0.8142558E-001  0.2373923E+03  0.7546771E-02  0.1121542E+00
         -4   -1    0    0    0  501 -0.00000000000E+00  0.00000000000E+00  0.47868577507E+03  0.47868577507E+03  0.00000000000E+00 0.  1.
          4   -1    0    0  502    0  0.00000000000E+00 -0.00000000000E+00 -0.12050219718E+03  0.12050219718E+03  0.00000000000E+00 0. -1.
          6    1    1    2  502    0 -0.62218887974E+01 -0.16244191276E+03  0.22454285658E+03  0.32676380057E+03  0.17300000000E+03 0. -1.
         -6    1    1    2    0  501  0.62218887974E+01  0.16244191276E+03  0.13364072131E+03  0.27242417168E+03  0.17300000000E+03 0.  1.
<mgrwt>
<rscale>  2 0.23739226E+03</rscale>
<asrwt>0</asrwt>
<pdfrwt beam="2">  1        4 0.18538800E-01 0.23739226E+03</pdfrwt>
<pdfrwt beam="1">  1       -4 0.73643964E-01 0.23739226E+03</pdfrwt>
<totfact> 0.80142274E+01</totfact>
</mgrwt>
</event>
<event>
 4    1  0.8142558E-001  0.1916093E+03  0.7546771E-02  0.1157018E+00
          2   -1    0    0  502    0  0.00000000000E+00  0.00000000000E+00  0.17717640564E+04  0.17717640564E+04  0.00000000000E+00 0.  1.
         -2   -1    0    0    0  501 -0.00000000000E+00 -0.00000000000E+00 -0.28520383560E+02  0.28520383560E+02  0.00000000000E+00 0. -1.
          6    1    1    2  502    0  0.62193996336E+02  0.54009415974E+02  0.40092444523E+03  0.44435855002E+03  0.17300000000E+03 0. -1.
         -6    1    1    2    0  501 -0.62193996336E+02 -0.54009415974E+02  0.13423192276E+04  0.13559258899E+04  0.17300000000E+03 0.  1.
<mgrwt>
<rscale>  2 0.19160926E+03</rscale>
<asrwt>0</asrwt>
<pdfrwt beam="1">  1        2 0.27257900E+00 0.19160926E+03</pdfrwt>
<pdfrwt beam="2">  1       -2 0.43877527E-02 0.19160926E+03</pdfrwt>
<totfact> 0.23446341E+03</totfact>
</mgrwt>
</event>
<event>
 4    1  0.8142558E-001  0.1756858E+03  0.7546771E-02  0.1172045E+00
          1   -1    0    0  502    0  0.00000000000E+00  0.00000000000E+00  0.11741072794E+03  0.11741072794E+03  0.00000000000E+00 0.  1.
         -1   -1    0    0    0  501 -0.00000000000E+00 -0.00000000000E+00 -0.37737135347E+03  0.37737135347E+03  0.00000000000E+00 0. -1.
          6    1    1    2  502    0 -0.21110242023E+02  0.22155525691E+02 -0.26624286494E+03  0.31898396945E+03  0.17300000000E+03 0. -1.
         -6    1    1    2    0  501  0.21110242023E+02 -0.22155525691E+02  0.62822394101E+01  0.17579811196E+03  0.17300000000E+03 0.  1.
<mgrwt>
<rscale>  2 0.17568583E+03</rscale>
<asrwt>0</asrwt>
<pdfrwt beam="1">  1        1 0.18063189E-01 0.17568583E+03</pdfrwt>
<pdfrwt beam="2">  1       -1 0.58057131E-01 0.17568583E+03</pdfrwt>
<totfact> 0.89877472E+02</totfact>
</mgrwt>
</event>
<event>
 4    1  0.8142558E-001  0.1804766E+03  0.7546771E-02  0.1167343E+00
         -4   -1    0    0    0  501 -0.00000000000E+00  0.00000000000E+00  0.44449243381E+02  0.44449243381E+02  0.00000000000E+00 0. -1.
          4   -1    0    0  502    0  0.00000000000E+00 -0.00000000000E+00 -0.73402654465E+03  0.73402654465E+03  0.00000000000E+00 0.  1.
          6    1    1    2  502    0 -0.19258359482E+02  0.47664805154E+02 -0.36078527498E+03  0.40340777472E+03  0.17300000000E+03 0. -1.
         -6    1    1    2    0  501  0.19258359482E+02 -0.47664805154E+02 -0.32879202629E+03  0.37506801331E+03  0.17300000000E+03 0.  1.
<mgrwt>
<rscale>  2 0.18047664E+03</rscale>
<asrwt>0</asrwt>
<pdfrwt beam="2">  1        4 0.11292717E+00 0.18047664E+03</pdfrwt>
<pdfrwt beam="1">  1       -4 0.68383446E-02 0.18047664E+03</pdfrwt>
<totfact> 0.16107023E+02</totfact>
</mgrwt>
</event>
<event>
 4    1  0.8142558E-001  0.1749467E+03  0.7546771E-02  0.1172785E+00
          2   -1    0    0  502    0  0.00000000000E+00  0.00000000000E+00  0.31750948607E+03  0.31750948607E+03  0.00000000000E+00 0.  1.
         -2   -1    0    0    0  501 -0.00000000000E+00 -0.00000000000E+00 -0.96862260511E+02  0.96862260511E+02  0.00000000000E+00 0. -1.
          6    1    1    2  502    0  0.64712375479E+01 -0.25208658811E+02  0.95934844718E+02  0.19952405325E+03  0.17300000000E+03 0. -1.
         -6    1    1    2    0  501 -0.64712375479E+01  0.25208658811E+02  0.12471238084E+03  0.21484769333E+03  0.17300000000E+03 0.  1.
<mgrwt>
<rscale>  2 0.17494672E+03</rscale>
<asrwt>0</asrwt>
<pdfrwt beam="1">  1        2 0.48847613E-01 0.17494672E+03</pdfrwt>
<pdfrwt beam="2">  1       -2 0.14901886E-01 0.17494672E+03</pdfrwt>
<totfact> 0.34781633E+03</totfact>
</mgrwt>
</event>
<event>
 4    1  0.8142558E-001  0.2631339E+03  0.7546771E-02  0.1105275E+00
          2   -1    0    0  502    0  0.00000000000E+00  0.00000000000E+00  0.40548397231E+03  0.40548397231E+03  0.00000000000E+00 0. -1.
         -2   -1    0    0    0  501 -0.00000000000E+00 -0.00000000000E+00 -0.42780544319E+03  0.42780544319E+03  0.00000000000E+00 0.  1.
          6    1    1    2  502    0 -0.58778878240E+02  0.18935541532E+03  0.31180004242E+03  0.40799350030E+03  0.17300000000E+03 0. -1.
         -6    1    1    2    0  501  0.58778878240E+02 -0.18935541532E+03 -0.33412151330E+03  0.42529591520E+03  0.17300000000E+03 0.  1.
<mgrwt>
<rscale>  2 0.26313386E+03</rscale>
<asrwt>0</asrwt>
<pdfrwt beam="1">  1        2 0.62382150E-01 0.26313386E+03</pdfrwt>
<pdfrwt beam="2">  1       -2 0.65816222E-01 0.26313386E+03</pdfrwt>
<totfact> 0.17280353E+02</totfact>
</mgrwt>
</event>
<event>
 4    1  0.8142558E-001  0.1763632E+03  0.7546771E-02  0.1171370E+00
         -2   -1    0    0    0  501 -0.00000000000E+00  0.00000000000E+00  0.13761025546E+03  0.13761025546E+03  0.00000000000E+00 0.  1.
          2   -1    0    0  502    0  0.00000000000E+00 -0.00000000000E+00 -0.22708386739E+03  0.22708386739E+03  0.00000000000E+00 0. -1.
          6    1    1    2  502    0 -0.10136696342E+02 -0.32745103637E+02 -0.32312392829E+02  0.17929887104E+03  0.17300000000E+03 0.  1.
         -6    1    1    2    0  501  0.10136696342E+02  0.32745103637E+02 -0.57161219099E+02  0.18539525181E+03  0.17300000000E+03 0. -1.
<mgrwt>
<rscale>  2 0.17636325E+03</rscale>
<asrwt>0</asrwt>
<pdfrwt beam="2">  1        2 0.34935980E-01 0.17636325E+03</pdfrwt>
<pdfrwt beam="1">  1       -2 0.21170809E-01 0.17636325E+03</pdfrwt>
<totfact> 0.27654680E+03</totfact>
</mgrwt>
</event>
<event>
 4    1  0.8142558E-001  0.2188510E+03  0.7546771E-02  0.1134743E+00
         -1   -1    0    0    0  501 -0.00000000000E+00  0.00000000000E+00  0.23811118380E+03  0.23811118380E+03  0.00000000000E+00 0. -1.
          1   -1    0    0  502    0  0.00000000000E+00 -0.00000000000E+00 -0.27455886933E+03  0.27455886933E+03  0.00000000000E+00 0.  1.
          6    1    1    2  502    0  0.93432996494E+02 -0.96109553254E+02 -0.15077030158E+03  0.26575826403E+03  0.17300000000E+03 0.  1.
         -6    1    1    2    0  501 -0.93432996494E+02  0.96109553254E+02  0.11432261605E+03  0.24691178911E+03  0.17300000000E+03 0.  1.
<mgrwt>
<rscale>  2 0.21885102E+03</rscale>
<asrwt>0</asrwt>
<pdfrwt beam="2">  1        1 0.42239826E-01 0.21885102E+03</pdfrwt>
<pdfrwt beam="1">  1       -1 0.36632490E-01 0.21885102E+03</pdfrwt>
<totfact> 0.70967277E+02</totfact>
</mgrwt>
</event>
<event>
 4    1  0.8142558E-001  0.2228559E+03  0.7546771E-02  0.1131772E+00
          2   -1    0    0  502    0  0.00000000000E+00  0.00000000000E+00  0.22321864700E+04  0.22321864700E+04  0.00000000000E+00 0.  1.
         -2   -1    0    0    0  501 -0.00000000000E+00 -0.00000000000E+00 -0.23306538770E+02  0.23306538770E+02  0.00000000000E+00 0. -1.
          6    1    1    2  502    0  0.18188540748E+02 -0.13930164865E+03  0.86425709410E+03  0.89252736487E+03  0.17300000000E+03 0.  1.
         -6    1    1    2    0  501 -0.18188540748E+02  0.13930164865E+03  0.13446228371E+04  0.13629656439E+04  0.17300000000E+03 0.  1.
<mgrwt>
<rscale>  2 0.22285595E+03</rscale>
<asrwt>0</asrwt>
<pdfrwt beam="1">  1        2 0.34341314E+00 0.22285595E+03</pdfrwt>
<pdfrwt beam="2">  1       -2 0.35856231E-02 0.22285595E+03</pdfrwt>
<totfact> 0.18214580E+03</totfact>
</mgrwt>
</event>
<event>
 4    1  0.8142558E-001  0.1795008E+03  0.7546771E-02  0.1168287E+00
          2   -1    0    0  502    0  0.00000000000E+00  0.00000000000E+00  0.10513572909E+03  0.10513572909E+03  0.00000000000E+00 0. -1.
         -2   -1    0    0    0  501 -0.00000000000E+00 -0.00000000000E+00 -0.30716025626E+03  0.30716025626E+03  0.00000000000E+00 0.  1.
          6    1    1    2  502    0  0.21697874399E+02 -0.42670283977E+02 -0.11081130265E+03  0.21094950979E+03  0.17300000000E+03 0. -1.
         -6    1    1    2    0  501 -0.21697874399E+02  0.42670283977E+02 -0.91213224526E+02  0.20134647555E+03  0.17300000000E+03 0. -1.
<mgrwt>
<rscale>  2 0.17950084E+03</rscale>
<asrwt>0</asrwt>
<pdfrwt beam="1">  1        2 0.16174728E-01 0.17950084E+03</pdfrwt>
<pdfrwt beam="2">  1       -2 0.47255423E-01 0.17950084E+03</pdfrwt>
<totfact> 0.15085618E+03</totfact>
</mgrwt>
</event>
<event>
 4    1  0.8142558E-001  0.3008278E+03  0.7546771E-02  0.1084828E+00
          1   -1    0    0  502    0  0.00000000000E+00  0.00000000000E+00  0.10103049793E+03  0.10103049793E+03  0.00000000000E+00 0.  1.
         -1   -1    0    0    0  501 -0.00000000000E+00 -0.00000000000E+00 -0.11071987475E+04  0.11071987475E+04  0.00000000000E+00 0. -1.
          6    1    1    2  502    0 -0.24608930259E+03 -0.28974804921E+01 -0.76709177775E+03  0.82397034882E+03  0.17300000000E+03 0. -1.
         -6    1    1    2    0  501  0.24608930259E+03  0.28974804921E+01 -0.23907647179E+03  0.38425889659E+03  0.17300000000E+03 0.  1.
<mgrwt>
<rscale>  2 0.30082776E+03</rscale>
<asrwt>0</asrwt>
<pdfrwt beam="1">  1        1 0.15543153E-01 0.30082776E+03</pdfrwt>
<pdfrwt beam="2">  1       -1 0.17033827E+00 0.30082776E+03</pdfrwt>
<totfact> 0.95136755E+01</totfact>
</mgrwt>
</event>
<event>
 4    1  0.8142558E-001  0.2049902E+03  0.7546771E-02  0.1145596E+00
          2   -1    0    0  502    0  0.00000000000E+00  0.00000000000E+00  0.16512873114E+04  0.16512873114E+04  0.00000000000E+00 0. -1.
         -2   -1    0    0    0  501 -0.00000000000E+00 -0.00000000000E+00 -0.31644741130E+02  0.31644741130E+02  0.00000000000E+00 0.  1.
          6    1    1    2  502    0 -0.57164341313E+02  0.93937351551E+02  0.43743977718E+03  0.48308854943E+03  0.17300000000E+03 0.  1.
         -6    1    1    2    0  501  0.57164341313E+02 -0.93937351551E+02  0.11822027931E+04  0.11998435031E+04  0.17300000000E+03 0. -1.
<mgrwt>
<rscale>  2 0.20499021E+03</rscale>
<asrwt>0</asrwt>
<pdfrwt beam="1">  1        2 0.25404413E+00 0.20499021E+03</pdfrwt>
<pdfrwt beam="2">  1       -2 0.48684230E-02 0.20499021E+03</pdfrwt>
<totfact> 0.23147678E+03</totfact>
</mgrwt>
</event>
<event>
 4    1  0.8142558E-001  0.3853712E+03  0.7546771E-02  0.1048966E+00
         -1   -1    0    0    0  501 -0.00000000000E+00  0.00000000000E+00  0.49820149967E+02  0.49820149967E+02  0.00000000000E+00 0.  1.
          1   -1    0    0  502    0  0.00000000000E+00 -0.00000000000E+00 -0.30161455429E+04  0.30161455429E+04  0.00000000000E+00 0. -1.
          6    1    1    2  502    0 -0.27441528887E+03  0.20803419939E+03 -0.16487794095E+04  0.16932172100E+04  0.17300000000E+03 0. -1.
         -6    1    1    2    0  501  0.27441528887E+03 -0.20803419939E+03 -0.13175459833E+04  0.13727484828E+04  0.17300000000E+03 0. -1.
<mgrwt>
<rscale>  2 0.38537122E+03</rscale>
<asrwt>0</asrwt>
<pdfrwt beam="2">  1        1 0.46402259E+00 0.38537122E+03</pdfrwt>
<pdfrwt beam="1">  1       -1 0.76646352E-02 0.38537122E+03</pdfrwt>
<totfact> 0.62787872E+01</totfact>
</mgrwt>
</event>
<event>
 4    1  0.8142558E-001  0.1905602E+03  0.7546771E-02  0.1157957E+00
          1   -1    0    0  502    0  0.00000000000E+00  0.00000000000E+00  0.11968919687E+04  0.11968919687E+04  0.00000000000E+00 0. -1.
         -1   -1    0    0    0  501 -0.00000000000E+00 -0.00000000000E+00 -0.31843504692E+02  0.31843504692E+02  0.00000000000E+00 0.  1.
          6    1    1    2  502    0 -0.68115113070E+02 -0.41767259869E+02  0.44900793649E+03  0.48777177005E+03  0.17300000000E+03 0.  1.
         -6    1    1    2    0  501  0.68115113070E+02  0.41767259869E+02  0.71604052752E+03  0.74096370334E+03  0.17300000000E+03 0. -1.
<mgrwt>
<rscale>  2 0.19056015E+03</rscale>
<asrwt>0</asrwt>
<pdfrwt beam="1">  1        1 0.18413719E+00 0.19056015E+03</pdfrwt>
<pdfrwt beam="2">  1       -1 0.48990016E-02 0.19056015E+03</pdfrwt>
<totfact> 0.20839573E+03</totfact>
</mgrwt>
</event>
<event>
 4    1  0.8142558E-001  0.1856026E+03  0.7546771E-02  0.1162488E+00
          1   -1    0    0  502    0  0.00000000000E+00  0.00000000000E+00  0.16222267691E+03  0.16222267691E+03  0.00000000000E+00 0.  1.
         -1   -1    0    0    0  501 -0.00000000000E+00 -0.00000000000E+00 -0.25022076386E+03  0.25022076386E+03  0.00000000000E+00 0. -1.
          6    1    1    2  502    0 -0.61055249881E+02  0.28134900568E+02 -0.12422466219E+03  0.22333849392E+03  0.17300000000E+03 0. -1.
         -6    1    1    2    0  501  0.61055249881E+02 -0.28134900568E+02  0.36226575247E+02  0.18910494685E+03  0.17300000000E+03 0.  1.
<mgrwt>
<rscale>  2 0.18560258E+03</rscale>
<asrwt>0</asrwt>
<pdfrwt beam="1">  1        1 0.24957335E-01 0.18560258E+03</pdfrwt>
<pdfrwt beam="2">  1       -1 0.38495502E-01 0.18560258E+03</pdfrwt>
<totfact> 0.12580367E+03</totfact>
</mgrwt>
</event>
<event>
 4    1  0.8142558E-001  0.1881085E+03  0.7546771E-02  0.1160178E+00
          2   -1    0    0  502    0  0.00000000000E+00  0.00000000000E+00  0.17261489310E+03  0.17261489310E+03  0.00000000000E+00 0. -1.
         -2   -1    0    0    0  501 -0.00000000000E+00 -0.00000000000E+00 -0.22145145033E+03  0.22145145033E+03  0.00000000000E+00 0.  1.
          6    1    1    2  502    0 -0.43999993664E+02 -0.59328109330E+02  0.29296791016E+02  0.19037627469E+03  0.17300000000E+03 0. -1.
         -6    1    1    2    0  501  0.43999993664E+02  0.59328109330E+02 -0.78133348239E+02  0.20369006875E+03  0.17300000000E+03 0.  1.
<mgrwt>
<rscale>  2 0.18810854E+03</rscale>
<asrwt>0</asrwt>
<pdfrwt beam="1">  1        2 0.26556138E-01 0.18810854E+03</pdfrwt>
<pdfrwt beam="2">  1       -2 0.34069454E-01 0.18810854E+03</pdfrwt>
<totfact> 0.16043039E+03</totfact>
</mgrwt>
</event>
<event>
 4    1  0.8142558E-001  0.1925390E+03  0.7546771E-02  0.1156191E+00
          2   -1    0    0  502    0  0.00000000000E+00  0.00000000000E+00  0.33295683570E+03  0.33295683570E+03  0.00000000000E+00 0.  1.
         -2   -1    0    0    0  501 -0.00000000000E+00 -0.00000000000E+00 -0.11362156843E+03  0.11362156843E+03  0.00000000000E+00 0. -1.
          6    1    1    2  502    0  0.76246320785E+02 -0.36452204574E+02  0.78023238968E+02  0.20774717921E+03  0.17300000000E+03 0. -1.
         -6    1    1    2    0  501 -0.76246320785E+02  0.36452204574E+02  0.14131202830E+03  0.23883122492E+03  0.17300000000E+03 0.  1.
<mgrwt>
<rscale>  2 0.19253900E+03</rscale>
<asrwt>0</asrwt>
<pdfrwt beam="1">  1        2 0.51224128E-01 0.19253900E+03</pdfrwt>
<pdfrwt beam="2">  1       -2 0.17480241E-01 0.19253900E+03</pdfrwt>
<totfact> 0.25464042E+03</totfact>
</mgrwt>
</event>
<event>
 4    1  0.8142558E-001  0.1982608E+03  0.7546771E-02  0.1151215E+00
         -2   -1    0    0    0  501 -0.00000000000E+00  0.00000000000E+00  0.27178913820E+03  0.27178913820E+03  0.00000000000E+00 0.  1.
          2   -1    0    0  502    0  0.00000000000E+00 -0.00000000000E+00 -0.16316586908E+03  0.16316586908E+03  0.00000000000E+00 0. -1.
          6    1    1    2  502    0  0.12519761865E+02 -0.96029098452E+02  0.12762313903E+03  0.23578591519E+03  0.17300000000E+03 0.  1.
         -6    1    1    2    0  501 -0.12519761865E+02  0.96029098452E+02 -0.18999869918E+02  0.19916909209E+03  0.17300000000E+03 0.  1.
<mgrwt>
<rscale>  2 0.19826077E+03</rscale>
<asrwt>0</asrwt>
<pdfrwt beam="2">  1        2 0.25102441E-01 0.19826077E+03</pdfrwt>
<pdfrwt beam="1">  1       -2 0.41813713E-01 0.19826077E+03</pdfrwt>
<totfact> 0.11624444E+03</totfact>
</mgrwt>
</event>
<event>
 4    1  0.8142558E-001  0.1777599E+03  0.7546771E-02  0.1169989E+00
         -1   -1    0    0    0  501 -0.00000000000E+00  0.00000000000E+00  0.15435205936E+03  0.15435205936E+03  0.00000000000E+00 0.  1.
          1   -1    0    0  502    0  0.00000000000E+00 -0.00000000000E+00 -0.30462159759E+03  0.30462159759E+03  0.00000000000E+00 0. -1.
          6    1    1    2  502    0 -0.15874991324E+02  0.37650532210E+02 -0.20655702726E+03  0.27251492332E+03  0.17300000000E+03 0. -1.
         -6    1    1    2    0  501  0.15874991324E+02 -0.37650532210E+02  0.56287489023E+02  0.18645873363E+03  0.17300000000E+03 0.  1.
<mgrwt>
<rscale>  2 0.17775989E+03</rscale>
<asrwt>0</asrwt>
<pdfrwt beam="2">  1        1 0.46864861E-01 0.17775989E+03</pdfrwt>
<pdfrwt beam="1">  1       -1 0.23746471E-01 0.17775989E+03</pdfrwt>
<totfact> 0.12953321E+03</totfact>
</mgrwt>
</event>
<event>
 4    1  0.8142558E-001  0.2325457E+03  0.7546771E-02  0.1124861E+00
         -2   -1    0    0    0  501 -0.00000000000E+00  0.00000000000E+00  0.62682574253E+02  0.62682574253E+02  0.00000000000E+00 0. -1.
          2   -1    0    0  502    0  0.00000000000E+00 -0.00000000000E+00 -0.87469424929E+03  0.87469424929E+03  0.00000000000E+00 0.  1.
          6    1    1    2  502    0  0.68250988698E+02  0.13960775418E+03 -0.35116845106E+03  0.42118499914E+03  0.17300000000E+03 0. -1.
         -6    1    1    2    0  501 -0.68250988698E+02 -0.13960775418E+03 -0.46084322398E+03  0.51619182440E+03  0.17300000000E+03 0.  1.
<mgrwt>
<rscale>  2 0.23254574E+03</rscale>
<asrwt>0</asrwt>
<pdfrwt beam="2">  1        2 0.13456834E+00 0.23254574E+03</pdfrwt>
<pdfrwt beam="1">  1       -2 0.96434734E-02 0.23254574E+03</pdfrwt>
<totfact> 0.22131514E+03</totfact>
</mgrwt>
</event>
<event>
 4    1  0.8142558E-001  0.2179071E+03  0.7546771E-02  0.1135453E+00
          2   -1    0    0  502    0  0.00000000000E+00  0.00000000000E+00  0.25112507783E+04  0.25112507783E+04  0.00000000000E+00 0.  1.
         -2   -1    0    0    0  501 -0.00000000000E+00 -0.00000000000E+00 -0.21206276125E+02  0.21206276125E+02  0.00000000000E+00 0. -1.
          6    1    1    2  502    0 -0.70609984965E+02 -0.11211042448E+03  0.16618449471E+04  0.16760704477E+04  0.17300000000E+03 0. -1.
         -6    1    1    2    0  501  0.70609984965E+02  0.11211042448E+03  0.82819955508E+03  0.85638660679E+03  0.17300000000E+03 0. -1.
<mgrwt>
<rscale>  2 0.21790713E+03</rscale>
<asrwt>0</asrwt>
<pdfrwt beam="1">  1        2 0.38634604E+00 0.21790713E+03</pdfrwt>
<pdfrwt beam="2">  1       -2 0.32625060E-02 0.21790713E+03</pdfrwt>
<totfact> 0.14868250E+03</totfact>
</mgrwt>
</event>
<event>
 4    1  0.8142558E-001  0.1762184E+03  0.7546771E-02  0.1171514E+00
         -2   -1    0    0    0  501 -0.00000000000E+00  0.00000000000E+00  0.11283801557E+02  0.11283801557E+02  0.00000000000E+00 0.  1.
          2   -1    0    0  502    0  0.00000000000E+00 -0.00000000000E+00 -0.35779963929E+04  0.35779963929E+04  0.00000000000E+00 0. -1.
          6    1    1    2  502    0 -0.24207661188E+02  0.23192805111E+02 -0.92107506073E+03  0.93778045649E+03  0.17300000000E+03 0.  1.
         -6    1    1    2    0  501  0.24207661188E+02 -0.23192805111E+02 -0.26456375306E+04  0.26514997380E+04  0.17300000000E+03 0. -1.
<mgrwt>
<rscale>  2 0.17621838E+03</rscale>
<asrwt>0</asrwt>
<pdfrwt beam="2">  1        2 0.55046128E+00 0.17621838E+03</pdfrwt>
<pdfrwt beam="1">  1       -2 0.17359685E-02 0.17621838E+03</pdfrwt>
<totfact> 0.87930134E+02</totfact>
</mgrwt>
</event>
<event>
 4    1  0.8142558E-001  0.1819940E+03  0.7546771E-02  0.1165887E+00
          1   -1    0    0  502    0  0.00000000000E+00  0.00000000000E+00  0.85400674252E+02  0.85400674252E+02  0.00000000000E+00 0. -1.
         -1   -1    0    0    0  501 -0.00000000000E+00 -0.00000000000E+00 -0.67034032069E+03  0.67034032069E+03  0.00000000000E+00 0.  1.
          6    1    1    2  502    0 -0.70645258022E+01 -0.56061539384E+02 -0.47165766427E+02  0.18800641810E+03  0.17300000000E+03 0. -1.
         -6    1    1    2    0  501  0.70645258022E+01  0.56061539384E+02 -0.53777388002E+03  0.56773457685E+03  0.17300000000E+03 0.  1.
<mgrwt>
<rscale>  2 0.18199397E+03</rscale>
<asrwt>0</asrwt>
<pdfrwt beam="1">  1        1 0.13138565E-01 0.18199397E+03</pdfrwt>
<pdfrwt beam="2">  1       -1 0.10312928E+00 0.18199397E+03</pdfrwt>
<totfact> 0.41915737E+02</totfact>
</mgrwt>
</event>
<event>
 4    1  0.8142558E-001  0.2098399E+03  0.7546771E-02  0.1141693E+00
          2   -1    0    0  502    0  0.00000000000E+00  0.00000000000E+00  0.60535794303E+03  0.60535794303E+03  0.00000000000E+00 0. -1.
         -2   -1    0    0    0  501 -0.00000000000E+00 -0.00000000000E+00 -0.72799397459E+02  0.72799397459E+02  0.00000000000E+00 0.  1.
          6    1    1    2  502    0 -0.11444457207E+03  0.31721096845E+02  0.27609168190E+03  0.34678437807E+03  0.17300000000E+03 0.  1.
         -6    1    1    2    0  501  0.11444457207E+03 -0.31721096845E+02  0.25646686367E+03  0.33137296242E+03  0.17300000000E+03 0. -1.
<mgrwt>
<rscale>  2 0.20983991E+03</rscale>
<asrwt>0</asrwt>
<pdfrwt beam="1">  1        2 0.93131988E-01 0.20983991E+03</pdfrwt>
<pdfrwt beam="2">  1       -2 0.11199908E-01 0.20983991E+03</pdfrwt>
<totfact> 0.27364543E+03</totfact>
</mgrwt>
</event>
<event>
 4    1  0.8142558E-001  0.1798039E+03  0.7546771E-02  0.1167993E+00
          1   -1    0    0  502    0  0.00000000000E+00  0.00000000000E+00  0.10602707383E+04  0.10602707383E+04  0.00000000000E+00 0. -1.
         -1   -1    0    0    0  501 -0.00000000000E+00 -0.00000000000E+00 -0.37686425746E+02  0.37686425746E+02  0.00000000000E+00 0.  1.
          6    1    1    2  502    0 -0.48048846134E+02 -0.95785908027E+01  0.75115916028E+03  0.77237913300E+03  0.17300000000E+03 0.  1.
         -6    1    1    2    0  501  0.48048846134E+02  0.95785908027E+01  0.27142515229E+03  0.32557803107E+03  0.17300000000E+03 0.  1.
<mgrwt>
<rscale>  2 0.17980390E+03</rscale>
<asrwt>0</asrwt>
<pdfrwt beam="1">  1        1 0.16311855E+00 0.17980390E+03</pdfrwt>
<pdfrwt beam="2">  1       -1 0.57979125E-02 0.17980390E+03</pdfrwt>
<totfact> 0.20224372E+03</totfact>
</mgrwt>
</event>
<event>
 4    1  0.8142558E-001  0.2710304E+03  0.7546771E-02  0.1100691E+00
          1   -1    0    0  502    0  0.00000000000E+00  0.00000000000E+00  0.38263006309E+03  0.38263006309E+03  0.00000000000E+00 0.  1.
         -1   -1    0    0    0  501 -0.00000000000E+00 -0.00000000000E+00 -0.20102067756E+03  0.20102067756E+03  0.00000000000E+00 0. -1.
          6    1    1    2  502    0 -0.14301300902E+03 -0.15190703836E+03  0.15269088782E+03  0.31108194463E+03  0.17300000000E+03 0.  1.
         -6    1    1    2    0  501  0.14301300902E+03  0.15190703836E+03  0.28918497709E+02  0.27256879602E+03  0.17300000000E+03 0. -1.
<mgrwt>
<rscale>  2 0.27103038E+03</rscale>
<asrwt>0</asrwt>
<pdfrwt beam="1">  1        1 0.58866164E-01 0.27103038E+03</pdfrwt>
<pdfrwt beam="2">  1       -1 0.30926258E-01 0.27103038E+03</pdfrwt>
<totfact> 0.62480723E+02</totfact>
</mgrwt>
</event>
<event>
 4    1  0.8142558E-001  0.2145437E+03  0.7546771E-02  0.1138018E+00
          2   -1    0    0  502    0  0.00000000000E+00  0.00000000000E+00  0.28650188883E+03  0.28650188883E+03  0.00000000000E+00 0. -1.
         -2   -1    0    0    0  501 -0.00000000000E+00 -0.00000000000E+00 -0.18752998036E+03  0.18752998036E+03  0.00000000000E+00 0.  1.
          6    1    1    2  502    0  0.11360804696E+02  0.12637617495E+03 -0.40233538330E+02  0.21828362990E+03  0.17300000000E+03 0.  1.
         -6    1    1    2    0  501 -0.11360804696E+02 -0.12637617495E+03  0.13920544680E+03  0.25574823928E+03  0.17300000000E+03 0. -1.
<mgrwt>
<rscale>  2 0.21454371E+03</rscale>
<asrwt>0</asrwt>
<pdfrwt beam="1">  1        2 0.44077214E-01 0.21454371E+03</pdfrwt>
<pdfrwt beam="2">  1       -2 0.28850766E-01 0.21454371E+03</pdfrwt>
<totfact> 0.12572323E+03</totfact>
</mgrwt>
</event>
<event>
 4    1  0.8142558E-001  0.1828832E+03  0.7546771E-02  0.1165041E+00
         -2   -1    0    0    0  501 -0.00000000000E+00  0.00000000000E+00  0.10201414135E+02  0.10201414135E+02  0.00000000000E+00 0.  1.
          2   -1    0    0  502    0  0.00000000000E+00 -0.00000000000E+00 -0.37288462262E+04  0.37288462262E+04  0.00000000000E+00 0. -1.
          6    1    1    2  502    0  0.43425594569E+02 -0.40391624007E+02 -0.25089629195E+04  0.25156194459E+04  0.17300000000E+03 0. -1.
         -6    1    1    2    0  501 -0.43425594569E+02  0.40391624007E+02 -0.12096818926E+04  0.12234281944E+04  0.17300000000E+03 0.  1.
<mgrwt>
<rscale>  2 0.18288320E+03</rscale>
<asrwt>0</asrwt>
<pdfrwt beam="2">  1        2 0.57366786E+00 0.18288320E+03</pdfrwt>
<pdfrwt beam="1">  1       -2 0.15694505E-02 0.18288320E+03</pdfrwt>
<totfact> 0.80191898E+02</totfact>
</mgrwt>
</event>
<event>
 4    1  0.8142558E-001  0.1771171E+03  0.7546771E-02  0.1170623E+00
         -1   -1    0    0    0  501 -0.00000000000E+00  0.00000000000E+00  0.24942037123E+03  0.24942037123E+03  0.00000000000E+00 0.  1.
          1   -1    0    0  502    0  0.00000000000E+00 -0.00000000000E+00 -0.13700087161E+03  0.13700087161E+03  0.00000000000E+00 0. -1.
          6    1    1    2  502    0  0.10136024589E+02  0.36588718126E+02  0.11152034899E+03  0.20930184311E+03  0.17300000000E+03 0.  1.
         -6    1    1    2    0  501 -0.10136024589E+02 -0.36588718126E+02  0.89915062446E+00  0.17711939973E+03  0.17300000000E+03 0. -1.
<mgrwt>
<rscale>  2 0.17711712E+03</rscale>
<asrwt>0</asrwt>
<pdfrwt beam="2">  1        1 0.21077057E-01 0.17711712E+03</pdfrwt>
<pdfrwt beam="1">  1       -1 0.38372365E-01 0.17711712E+03</pdfrwt>
<totfact> 0.15665286E+03</totfact>
</mgrwt>
</event>
<event>
 4    1  0.8142558E-001  0.2078231E+03  0.7546771E-02  0.1143302E+00
          2   -1    0    0  502    0  0.00000000000E+00  0.00000000000E+00  0.56868155431E+02  0.56868155431E+02  0.00000000000E+00 0.  1.
         -2   -1    0    0    0  501 -0.00000000000E+00 -0.00000000000E+00 -0.12591002495E+04  0.12591002495E+04  0.00000000000E+00 0. -1.
          6    1    1    2  502    0  0.89956517712E+02  0.71897663705E+02 -0.10155960932E+04  0.10366416322E+04  0.17300000000E+03 0. -1.
         -6    1    1    2    0  501 -0.89956517712E+02 -0.71897663705E+02 -0.18663600082E+03  0.27932677266E+03  0.17300000000E+03 0.  1.
<mgrwt>
<rscale>  2 0.20782312E+03</rscale>
<asrwt>0</asrwt>
<pdfrwt beam="1">  1        2 0.87489464E-02 0.20782312E+03</pdfrwt>
<pdfrwt beam="2">  1       -2 0.19370774E+00 0.20782312E+03</pdfrwt>
<totfact> 0.12033480E+02</totfact>
</mgrwt>
</event>
<event>
 4    1  0.8142558E-001  0.1823550E+03  0.7546771E-02  0.1165543E+00
         -2   -1    0    0    0  501 -0.00000000000E+00  0.00000000000E+00  0.17922098262E+02  0.17922098262E+02  0.00000000000E+00 0.  1.
          2   -1    0    0  502    0  0.00000000000E+00 -0.00000000000E+00 -0.18642622766E+04  0.18642622766E+04  0.00000000000E+00 0. -1.
          6    1    1    2  502    0  0.44415707987E+02 -0.36763972410E+02 -0.98791633749E+03  0.10046054124E+04  0.17300000000E+03 0. -1.
         -6    1    1    2    0  501 -0.44415707987E+02  0.36763972410E+02 -0.85842384083E+03  0.87757896242E+03  0.17300000000E+03 0. -1.
<mgrwt>
<rscale>  2 0.18235500E+03</rscale>
<asrwt>0</asrwt>
<pdfrwt beam="2">  1        2 0.28680949E+00 0.18235500E+03</pdfrwt>
<pdfrwt beam="1">  1       -2 0.27572467E-02 0.18235500E+03</pdfrwt>
<totfact> 0.41951403E+03</totfact>
</mgrwt>
</event>
<event>
 4    1  0.8142558E-001  0.2164934E+03  0.7546771E-02  0.1136525E+00
         -2   -1    0    0    0  501 -0.00000000000E+00  0.00000000000E+00  0.15339236360E+02  0.15339236360E+02  0.00000000000E+00 0.  1.
          2   -1    0    0  502    0  0.00000000000E+00 -0.00000000000E+00 -0.33380749605E+04  0.33380749605E+04  0.00000000000E+00 0. -1.
          6    1    1    2  502    0 -0.12106839074E+03  0.47778908133E+02 -0.21491869996E+04  0.21600634571E+04  0.17300000000E+03 0. -1.
         -6    1    1    2    0  501  0.12106839074E+03 -0.47778908133E+02 -0.11735487245E+04  0.11933507398E+04  0.17300000000E+03 0.  1.
<mgrwt>
<rscale>  2 0.21649337E+03</rscale>
<asrwt>0</asrwt>
<pdfrwt beam="2">  1        2 0.51355023E+00 0.21649337E+03</pdfrwt>
<pdfrwt beam="1">  1       -2 0.23598815E-02 0.21649337E+03</pdfrwt>
<totfact> 0.79261176E+02</totfact>
</mgrwt>
</event>
<event>
 4    1  0.8142558E-001  0.2075625E+03  0.7546771E-02  0.1143511E+00
         -2   -1    0    0    0  501 -0.00000000000E+00  0.00000000000E+00  0.18733812539E+03  0.18733812539E+03  0.00000000000E+00 0.  1.
          2   -1    0    0  502    0  0.00000000000E+00 -0.00000000000E+00 -0.26985522319E+03  0.26985522319E+03  0.00000000000E+00 0. -1.
          6    1    1    2  502    0  0.99742991528E+02  0.56608585189E+02  0.46625311223E+02  0.21273484887E+03  0.17300000000E+03 0.  1.
         -6    1    1    2    0  501 -0.99742991528E+02 -0.56608585189E+02 -0.12914240902E+03  0.24445849972E+03  0.17300000000E+03 0. -1.
<mgrwt>
<rscale>  2 0.20756251E+03</rscale>
<asrwt>0</asrwt>
<pdfrwt beam="2">  1        2 0.41516188E-01 0.20756251E+03</pdfrwt>
<pdfrwt beam="1">  1       -2 0.28821250E-01 0.20756251E+03</pdfrwt>
<totfact> 0.13423625E+03</totfact>
</mgrwt>
</event>
<event>
 4    1  0.8142558E-001  0.1824615E+03  0.7546771E-02  0.1165442E+00
          2   -1    0    0  502    0  0.00000000000E+00  0.00000000000E+00  0.28105449781E+04  0.28105449781E+04  0.00000000000E+00 0.  1.
         -2   -1    0    0    0  501 -0.00000000000E+00 -0.00000000000E+00 -0.12178057171E+02  0.12178057171E+02  0.00000000000E+00 0. -1.
          6    1    1    2  502    0 -0.54316458361E+02 -0.20320843244E+02  0.11659425224E+04  0.11801331196E+04  0.17300000000E+03 0.  1.
         -6    1    1    2    0  501  0.54316458361E+02  0.20320843244E+02  0.16324243985E+04  0.16425899157E+04  0.17300000000E+03 0.  1.
<mgrwt>
<rscale>  2 0.18246154E+03</rscale>
<asrwt>0</asrwt>
<pdfrwt beam="1">  1        2 0.43239102E+00 0.18246154E+03</pdfrwt>
<pdfrwt beam="2">  1       -2 0.18735495E-02 0.18246154E+03</pdfrwt>
<totfact> 0.23109862E+03</totfact>
</mgrwt>
</event>
<event>
 4    1  0.8142558E-001  0.2148929E+03  0.7546771E-02  0.1137749E+00
          2   -1    0    0  502    0  0.00000000000E+00  0.00000000000E+00  0.10861832561E+03  0.10861832561E+03  0.00000000000E+00 0.  1.
         -2   -1    0    0    0  501 -0.00000000000E+00 -0.00000000000E+00 -0.51444822538E+03  0.51444822538E+03  0.00000000000E+00 0. -1.
          6    1    1    2  502    0 -0.20489799151E+02  0.12581776513E+03 -0.73119898107E+02  0.22699220557E+03  0.17300000000E+03 0.  1.
         -6    1    1    2    0  501  0.20489799151E+02 -0.12581776513E+03 -0.33271000166E+03  0.39607434541E+03  0.17300000000E+03 0. -1.
<mgrwt>
<rscale>  2 0.21489286E+03</rscale>
<asrwt>0</asrwt>
<pdfrwt beam="1">  1        2 0.16710512E-01 0.21489286E+03</pdfrwt>
<pdfrwt beam="2">  1       -2 0.79145881E-01 0.21489286E+03</pdfrwt>
<totfact> 0.49934245E+02</totfact>
</mgrwt>
</event>
<event>
 4    1  0.8142558E-001  0.2760258E+03  0.7546771E-02  0.1097880E+00
          1   -1    0    0  502    0  0.00000000000E+00  0.00000000000E+00  0.14602035444E+04  0.14602035444E+04  0.00000000000E+00 0.  1.
         -1   -1    0    0    0  501 -0.00000000000E+00 -0.00000000000E+00 -0.54421979926E+02  0.54421979926E+02  0.00000000000E+00 0. -1.
          6    1    1    2  502    0 -0.16387635824E+03  0.13930459473E+03  0.85667630702E+03  0.90004695761E+03  0.17300000000E+03 0.  1.
         -6    1    1    2    0  501  0.16387635824E+03 -0.13930459473E+03  0.54910525749E+03  0.61457856675E+03  0.17300000000E+03 0.  1.
<mgrwt>
<rscale>  2 0.27602578E+03</rscale>
<asrwt>0</asrwt>
<pdfrwt beam="1">  1        1 0.22464667E+00 0.27602578E+03</pdfrwt>
<pdfrwt beam="2">  1       -1 0.83726134E-02 0.27602578E+03</pdfrwt>
<totfact> 0.61126987E+02</totfact>
</mgrwt>
</event>
<event>
 4    1  0.8142558E-001  0.2610735E+03  0.7546771E-02  0.1106500E+00
          2   -1    0    0  502    0  0.00000000000E+00  0.00000000000E+00  0.39595576068E+04  0.39595576068E+04  0.00000000000E+00 0.  1.
         -2   -1    0    0    0  501 -0.00000000000E+00 -0.00000000000E+00 -0.20575974524E+02  0.20575974524E+02  0.00000000000E+00 0. -1.
          6    1    1    2  502    0 -0.15871018223E+03 -0.11419905624E+03  0.27739285908E+04  0.27861872108E+04  0.17300000000E+03 0.  1.
         -6    1    1    2    0  501  0.15871018223E+03  0.11419905624E+03  0.11650530414E+04  0.11939463705E+04  0.17300000000E+03 0. -1.
<mgrwt>
<rscale>  2 0.26107345E+03</rscale>
<asrwt>0</asrwt>
<pdfrwt beam="1">  1        2 0.60916210E+00 0.26107345E+03</pdfrwt>
<pdfrwt beam="2">  1       -2 0.31655377E-02 0.26107345E+03</pdfrwt>
<totfact> 0.18841271E+02</totfact>
</mgrwt>
</event>
<event>
 4    1  0.8142558E-001  0.2326503E+03  0.7546771E-02  0.1124788E+00
          1   -1    0    0  502    0  0.00000000000E+00  0.00000000000E+00  0.42584556182E+03  0.42584556182E+03  0.00000000000E+00 0. -1.
         -1   -1    0    0    0  501 -0.00000000000E+00 -0.00000000000E+00 -0.18891967611E+03  0.18891967611E+03  0.00000000000E+00 0.  1.
          6    1    1    2  502    0  0.14361395187E+03  0.59767776015E+02  0.29429348382E+03  0.37514638322E+03  0.17300000000E+03 0. -1.
         -6    1    1    2    0  501 -0.14361395187E+03 -0.59767776015E+02 -0.57367598108E+02  0.23961885471E+03  0.17300000000E+03 0.  1.
<mgrwt>
<rscale>  2 0.23265028E+03</rscale>
<asrwt>0</asrwt>
<pdfrwt beam="1">  1        1 0.65514702E-01 0.23265028E+03</pdfrwt>
<pdfrwt beam="2">  1       -1 0.29064566E-01 0.23265028E+03</pdfrwt>
<totfact> 0.60568669E+02</totfact>
</mgrwt>
</event>
<event>
 4    1  0.8142558E-001  0.2542498E+03  0.7546771E-02  0.1110648E+00
         -3   -1    0    0    0  501 -0.00000000000E+00  0.00000000000E+00  0.32572828484E+03  0.32572828484E+03  0.00000000000E+00 0. -1.
          3   -1    0    0  502    0  0.00000000000E+00 -0.00000000000E+00 -0.21245829003E+03  0.21245829003E+03  0.00000000000E+00 0.  1.
          6    1    1    2  502    0  0.11290904650E+03 -0.14820757148E+03 -0.12445557911E+02  0.25455417683E+03  0.17300000000E+03 0.  1.
         -6    1    1    2    0  501 -0.11290904650E+03  0.14820757148E+03  0.12571555272E+03  0.28363239805E+03  0.17300000000E+03 0. -1.
<mgrwt>
<rscale>  2 0.25424975E+03</rscale>
<asrwt>0</asrwt>
<pdfrwt beam="2">  1        3 0.32685891E-01 0.25424975E+03</pdfrwt>
<pdfrwt beam="1">  1       -3 0.50112044E-01 0.25424975E+03</pdfrwt>
<totfact> 0.90565422E+01</totfact>
</mgrwt>
</event>
<event>
 4    1  0.8142558E-001  0.2237344E+03  0.7546771E-02  0.1131129E+00
          2   -1    0    0  502    0  0.00000000000E+00  0.00000000000E+00  0.78982379242E+03  0.78982379242E+03  0.00000000000E+00 0. -1.
         -2   -1    0    0    0  501 -0.00000000000E+00 -0.00000000000E+00 -0.78958995544E+02  0.78958995544E+02  0.00000000000E+00 0.  1.
          6    1    1    2  502    0 -0.13520370842E+03  0.42989007744E+02  0.54839994117E+03  0.59228337224E+03  0.17300000000E+03 0. -1.
         -6    1    1    2    0  501  0.13520370842E+03 -0.42989007744E+02  0.16246485571E+03  0.27649941573E+03  0.17300000000E+03 0.  1.
<mgrwt>
<rscale>  2 0.22373444E+03</rscale>
<asrwt>0</asrwt>
<pdfrwt beam="1">  1        2 0.12151135E+00 0.22373444E+03</pdfrwt>
<pdfrwt beam="2">  1       -2 0.12147538E-01 0.22373444E+03</pdfrwt>
<totfact> 0.17437379E+03</totfact>
</mgrwt>
</event>
<event>
 4    1  0.8142558E-001  0.2236747E+03  0.7546771E-02  0.1131173E+00
          2   -1    0    0  502    0  0.00000000000E+00  0.00000000000E+00  0.16385668091E+04  0.16385668091E+04  0.00000000000E+00 0. -1.
         -2   -1    0    0    0  501 -0.00000000000E+00 -0.00000000000E+00 -0.30546455659E+02  0.30546455659E+02  0.00000000000E+00 0.  1.
          6    1    1    2  502    0  0.37094636225E+02  0.13684058757E+03  0.82152666246E+03  0.85143197942E+03  0.17300000000E+03 0.  1.
         -6    1    1    2    0  501 -0.37094636225E+02 -0.13684058757E+03  0.78649369101E+03  0.81768128537E+03  0.17300000000E+03 0. -1.
<mgrwt>
<rscale>  2 0.22367467E+03</rscale>
<asrwt>0</asrwt>
<pdfrwt beam="1">  1        2 0.25208713E+00 0.22367467E+03</pdfrwt>
<pdfrwt beam="2">  1       -2 0.46994560E-02 0.22367467E+03</pdfrwt>
<totfact> 0.24790772E+03</totfact>
</mgrwt>
</event>
<event>
 4    1  0.8142558E-001  0.1793283E+03  0.7546771E-02  0.1168455E+00
          2   -1    0    0  502    0  0.00000000000E+00  0.00000000000E+00  0.37573237363E+03  0.37573237363E+03  0.00000000000E+00 0. -1.
         -2   -1    0    0    0  501 -0.00000000000E+00 -0.00000000000E+00 -0.86446215028E+02  0.86446215028E+02  0.00000000000E+00 0.  1.
          6    1    1    2  502    0  0.54651429220E+01 -0.46901745180E+02  0.12163419745E+03  0.21668760804E+03  0.17300000000E+03 0. -1.
         -6    1    1    2    0  501 -0.54651429220E+01  0.46901745180E+02  0.16765196115E+03  0.24549098062E+03  0.17300000000E+03 0. -1.
<mgrwt>
<rscale>  2 0.17932831E+03</rscale>
<asrwt>0</asrwt>
<pdfrwt beam="1">  1        2 0.57804980E-01 0.17932831E+03</pdfrwt>
<pdfrwt beam="2">  1       -2 0.13299418E-01 0.17932831E+03</pdfrwt>
<totfact> 0.35004793E+03</totfact>
</mgrwt>
</event>
<event>
 4    1  0.8142558E-001  0.1827365E+03  0.7546771E-02  0.1165181E+00
         -2   -1    0    0    0  501 -0.00000000000E+00  0.00000000000E+00  0.15842964600E+02  0.15842964600E+02  0.00000000000E+00 0. -1.
          2   -1    0    0  502    0  0.00000000000E+00 -0.00000000000E+00 -0.22384509492E+04  0.22384509492E+04  0.00000000000E+00 0.  1.
          6    1    1    2  502    0  0.54961324040E+02  0.21044544826E+02 -0.13836913039E+04  0.13957056439E+04  0.17300000000E+03 0.  1.
         -6    1    1    2    0  501 -0.54961324040E+02 -0.21044544826E+02 -0.83891668077E+03  0.85858826994E+03  0.17300000000E+03 0. -1.
<mgrwt>
<rscale>  2 0.18273648E+03</rscale>
<asrwt>0</asrwt>
<pdfrwt beam="2">  1        2 0.34437693E+00 0.18273648E+03</pdfrwt>
<pdfrwt beam="1">  1       -2 0.24373801E-02 0.18273648E+03</pdfrwt>
<totfact> 0.32140371E+03</totfact>
</mgrwt>
</event>
<event>
 4    1  0.8142558E-001  0.2780307E+03  0.7546771E-02  0.1096769E+00
         -1   -1    0    0    0  501 -0.00000000000E+00  0.00000000000E+00  0.67736904548E+02  0.67736904548E+02  0.00000000000E+00 0.  1.
          1   -1    0    0  502    0  0.00000000000E+00 -0.00000000000E+00 -0.11629057838E+04  0.11629057838E+04  0.00000000000E+00 0. -1.
          6    1    1    2  502    0 -0.13072255000E+03  0.17402207628E+03 -0.63165808674E+03  0.69013984573E+03  0.17300000000E+03 0. -1.
         -6    1    1    2    0  501  0.13072255000E+03 -0.17402207628E+03 -0.46351079253E+03  0.54050284264E+03  0.17300000000E+03 0.  1.
<mgrwt>
<rscale>  2 0.27803070E+03</rscale>
<asrwt>0</asrwt>
<pdfrwt beam="2">  1        1 0.17890858E+00 0.27803070E+03</pdfrwt>
<pdfrwt beam="1">  1       -1 0.10421063E-01 0.27803070E+03</pdfrwt>
<totfact> 0.69649382E+02</totfact>
</mgrwt>
</event>
<event>
 4    1  0.8142558E-001  0.1883874E+03  0.7546771E-02  0.1159924E+00
         -2   -1    0    0    0  501 -0.00000000000E+00  0.00000000000E+00  0.50411562003E+02  0.50411562003E+02  0.00000000000E+00 0. -1.
          2   -1    0    0  502    0  0.00000000000E+00 -0.00000000000E+00 -0.72381506057E+03  0.72381506057E+03  0.00000000000E+00 0.  1.
          6    1    1    2  502    0  0.99269231417E+01  0.73907070391E+02 -0.40075027368E+03  0.44282116109E+03  0.17300000000E+03 0. -1.
         -6    1    1    2    0  501 -0.99269231417E+01 -0.73907070391E+02 -0.27265322488E+03  0.33140546147E+03  0.17300000000E+03 0. -1.
<mgrwt>
<rscale>  2 0.18838736E+03</rscale>
<asrwt>0</asrwt>
<pdfrwt beam="2">  1        2 0.11135615E+00 0.18838736E+03</pdfrwt>
<pdfrwt beam="1">  1       -2 0.77556255E-02 0.18838736E+03</pdfrwt>
<totfact> 0.39392894E+03</totfact>
</mgrwt>
</event>
<event>
 4    1  0.8142558E-001  0.2465929E+03  0.7546771E-02  0.1115477E+00
         -2   -1    0    0    0  501 -0.00000000000E+00  0.00000000000E+00  0.13515510627E+03  0.13515510627E+03  0.00000000000E+00 0.  1.
          2   -1    0    0  502    0  0.00000000000E+00 -0.00000000000E+00 -0.93153300437E+03  0.93153300437E+03  0.00000000000E+00 0. -1.
          6    1    1    2  502    0  0.14519653729E+03  0.98979947478E+02 -0.78168465931E+03  0.81965783778E+03  0.17300000000E+03 0. -1.
         -6    1    1    2    0  501 -0.14519653729E+03 -0.98979947478E+02 -0.14693238791E+02  0.24703027286E+03  0.17300000000E+03 0.  1.
<mgrwt>
<rscale>  2 0.24659291E+03</rscale>
<asrwt>0</asrwt>
<pdfrwt beam="2">  1        2 0.14331277E+00 0.24659291E+03</pdfrwt>
<pdfrwt beam="1">  1       -2 0.20793094E-01 0.24659291E+03</pdfrwt>
<totfact> 0.57333215E+02</totfact>
</mgrwt>
</event>
<event>
 4    1  0.8142558E-001  0.1830958E+03  0.7546771E-02  0.1164840E+00
         -2   -1    0    0    0  501 -0.00000000000E+00  0.00000000000E+00  0.41079767891E+03  0.41079767891E+03  0.00000000000E+00 0. -1.
          2   -1    0    0  502    0  0.00000000000E+00 -0.00000000000E+00 -0.85384196784E+02  0.85384196784E+02  0.00000000000E+00 0.  1.
          6    1    1    2  502    0  0.22589289080E+02 -0.55540845562E+02  0.21488548463E+03  0.28231158852E+03  0.17300000000E+03 0. -1.
         -6    1    1    2    0  501 -0.22589289080E+02  0.55540845562E+02  0.11052799749E+03  0.21387028718E+03  0.17300000000E+03 0.  1.
<mgrwt>
<rscale>  2 0.18309577E+03</rscale>
<asrwt>0</asrwt>
<pdfrwt beam="2">  1        2 0.13136030E-01 0.18309577E+03</pdfrwt>
<pdfrwt beam="1">  1       -2 0.63199642E-01 0.18309577E+03</pdfrwt>
<totfact> 0.10718706E+03</totfact>
</mgrwt>
</event>
<event>
 4    1  0.8142558E-001  0.1883818E+03  0.7546771E-02  0.1159929E+00
          2   -1    0    0  502    0  0.00000000000E+00  0.00000000000E+00  0.37998549027E+02  0.37998549027E+02  0.00000000000E+00 0.  1.
         -2   -1    0    0    0  501 -0.00000000000E+00 -0.00000000000E+00 -0.95124342112E+03  0.95124342112E+03  0.00000000000E+00 0. -1.
          6    1    1    2  502    0  0.19604629251E+02  0.71932986888E+02 -0.38987824787E+03  0.43300432360E+03  0.17300000000E+03 0.  1.
         -6    1    1    2    0  501 -0.19604629251E+02 -0.71932986888E+02 -0.52336662422E+03  0.55623764655E+03  0.17300000000E+03 0. -1.
<mgrwt>
<rscale>  2 0.18838178E+03</rscale>
<asrwt>0</asrwt>
<pdfrwt beam="1">  1        2 0.58459308E-02 0.18838178E+03</pdfrwt>
<pdfrwt beam="2">  1       -2 0.14634514E+00 0.18838178E+03</pdfrwt>
<totfact> 0.42854518E+02</totfact>
</mgrwt>
</event>
<event>
 4    1  0.8142558E-001  0.2061158E+03  0.7546771E-02  0.1144679E+00
         -2   -1    0    0    0  501 -0.00000000000E+00  0.00000000000E+00  0.73287227842E+02  0.73287227842E+02  0.00000000000E+00 0.  1.
          2   -1    0    0  502    0  0.00000000000E+00 -0.00000000000E+00 -0.70780321773E+03  0.70780321773E+03  0.00000000000E+00 0. -1.
          6    1    1    2  502    0  0.63238949356E+02 -0.92496358044E+02 -0.15110235434E+03  0.25556929091E+03  0.17300000000E+03 0. -1.
         -6    1    1    2    0  501 -0.63238949356E+02  0.92496358044E+02 -0.48341363555E+03  0.52552115466E+03  0.17300000000E+03 0. -1.
<mgrwt>
<rscale>  2 0.20611584E+03</rscale>
<asrwt>0</asrwt>
<pdfrwt beam="2">  1        2 0.10889280E+00 0.20611584E+03</pdfrwt>
<pdfrwt beam="1">  1       -2 0.11274958E-01 0.20611584E+03</pdfrwt>
<totfact> 0.22487960E+03</totfact>
</mgrwt>
</event>
<event>
 4    1  0.8142558E-001  0.1868380E+03  0.7546771E-02  0.1161345E+00
          3   -1    0    0  502    0  0.00000000000E+00  0.00000000000E+00  0.26236258321E+03  0.26236258321E+03  0.00000000000E+00 0. -1.
         -3   -1    0    0    0  501 -0.00000000000E+00 -0.00000000000E+00 -0.16080252976E+03  0.16080252976E+03  0.00000000000E+00 0.  1.
          6    1    1    2  502    0  0.97770263232E+01  0.69884510320E+02 -0.37112530745E+02  0.19048825414E+03  0.17300000000E+03 0.  1.
         -6    1    1    2    0  501 -0.97770263232E+01 -0.69884510320E+02  0.13867258420E+03  0.23267685883E+03  0.17300000000E+03 0. -1.
<mgrwt>
<rscale>  2 0.18683799E+03</rscale>
<asrwt>0</asrwt>
<pdfrwt beam="1">  1        3 0.40363474E-01 0.18683799E+03</pdfrwt>
<pdfrwt beam="2">  1       -3 0.24738851E-01 0.18683799E+03</pdfrwt>
<totfact> 0.22659496E+02</totfact>
</mgrwt>
</event>
<event>
 4    1  0.8142558E-001  0.2202615E+03  0.7546771E-02  0.1133688E+00
          2   -1    0    0  502    0  0.00000000000E+00  0.00000000000E+00  0.79058729527E+03  0.79058729527E+03  0.00000000000E+00 0. -1.
         -2   -1    0    0    0  501 -0.00000000000E+00 -0.00000000000E+00 -0.61548005310E+02  0.61548005310E+02  0.00000000000E+00 0.  1.
          6    1    1    2  502    0 -0.97088232494E+02  0.95707880424E+02  0.38769354588E+03  0.44589394342E+03  0.17300000000E+03 0. -1.
         -6    1    1    2    0  501  0.97088232494E+02 -0.95707880424E+02  0.34134574409E+03  0.40624135716E+03  0.17300000000E+03 0.  1.
<mgrwt>
<rscale>  2 0.22026149E+03</rscale>
<asrwt>0</asrwt>
<pdfrwt beam="1">  1        2 0.12162881E+00 0.22026149E+03</pdfrwt>
<pdfrwt beam="2">  1       -2 0.94689245E-02 0.22026149E+03</pdfrwt>
<totfact> 0.25932465E+03</totfact>
</mgrwt>
</event>
<event>
 4    1  0.8142558E-001  0.2680320E+03  0.7546771E-02  0.1102411E+00
         -3   -1    0    0    0  501 -0.00000000000E+00  0.00000000000E+00  0.64120729224E+03  0.64120729224E+03  0.00000000000E+00 0.  1.
          3   -1    0    0  502    0  0.00000000000E+00 -0.00000000000E+00 -0.11381927220E+03  0.11381927220E+03  0.00000000000E+00 0. -1.
          6    1    1    2  502    0  0.15310647003E+03  0.13590634941E+03  0.31088897493E+03  0.41047908802E+03  0.17300000000E+03 0.  1.
         -6    1    1    2    0  501 -0.15310647003E+03 -0.13590634941E+03  0.21649904511E+03  0.34454747642E+03  0.17300000000E+03 0. -1.
<mgrwt>
<rscale>  2 0.26803195E+03</rscale>
<asrwt>0</asrwt>
<pdfrwt beam="2">  1        3 0.17510658E-01 0.26803195E+03</pdfrwt>
<pdfrwt beam="1">  1       -3 0.98647273E-01 0.26803195E+03</pdfrwt>
<totfact> 0.66105821E+01</totfact>
</mgrwt>
</event>
<event>
 4    1  0.8142558E-001  0.2093650E+03  0.7546771E-02  0.1142070E+00
         -1   -1    0    0    0  501 -0.00000000000E+00  0.00000000000E+00  0.67384599461E+02  0.67384599461E+02  0.00000000000E+00 0. -1.
          1   -1    0    0  502    0  0.00000000000E+00 -0.00000000000E+00 -0.65498563290E+03  0.65498563290E+03  0.00000000000E+00 0.  1.
          6    1    1    2  502    0 -0.74030357791E+02  0.91783507406E+02 -0.32368931593E+03  0.38549770344E+03  0.17300000000E+03 0. -1.
         -6    1    1    2    0  501  0.74030357791E+02 -0.91783507406E+02 -0.26391171751E+03  0.33687252893E+03  0.17300000000E+03 0. -1.
<mgrwt>
<rscale>  2 0.20936501E+03</rscale>
<asrwt>0</asrwt>
<pdfrwt beam="2">  1        1 0.10076702E+00 0.20936501E+03</pdfrwt>
<pdfrwt beam="1">  1       -1 0.10366862E-01 0.20936501E+03</pdfrwt>
<totfact> 0.17817777E+03</totfact>
</mgrwt>
</event>
<event>
 4    1  0.8142558E-001  0.1921726E+03  0.7546771E-02  0.1156516E+00
          2   -1    0    0  502    0  0.00000000000E+00  0.00000000000E+00  0.35152328911E+03  0.35152328911E+03  0.00000000000E+00 0.  1.
         -2   -1    0    0    0  501 -0.00000000000E+00 -0.00000000000E+00 -0.14114372091E+03  0.14114372091E+03  0.00000000000E+00 0. -1.
          6    1    1    2  502    0 -0.72926783929E+01 -0.83355356597E+02  0.22974473607E+03  0.29952118854E+03  0.17300000000E+03 0.  1.
         -6    1    1    2    0  501  0.72926783929E+01  0.83355356597E+02 -0.19365167869E+02  0.19314582149E+03  0.17300000000E+03 0.  1.
<mgrwt>
<rscale>  2 0.19217258E+03</rscale>
<asrwt>0</asrwt>
<pdfrwt beam="1">  1        2 0.54080506E-01 0.19217258E+03</pdfrwt>
<pdfrwt beam="2">  1       -2 0.21714419E-01 0.19217258E+03</pdfrwt>
<totfact> 0.16614426E+03</totfact>
</mgrwt>
</event>
<event>
 4    1  0.8142558E-001  0.2731916E+03  0.7546771E-02  0.1099467E+00
         -1   -1    0    0    0  501 -0.00000000000E+00  0.00000000000E+00  0.66040099967E+03  0.66040099967E+03  0.00000000000E+00 0. -1.
          1   -1    0    0  502    0  0.00000000000E+00 -0.00000000000E+00 -0.13906359157E+03  0.13906359157E+03  0.00000000000E+00 0.  1.
          6    1    1    2  502    0 -0.14374169636E+03 -0.15505790172E+03  0.43368010386E+03  0.51255444652E+03  0.17300000000E+03 0. -1.
         -6    1    1    2    0  501  0.14374169636E+03  0.15505790172E+03  0.87657304233E+02  0.28691014472E+03  0.17300000000E+03 0.  1.
<mgrwt>
<rscale>  2 0.27319156E+03</rscale>
<asrwt>0</asrwt>
<pdfrwt beam="2">  1        1 0.21394399E-01 0.27319156E+03</pdfrwt>
<pdfrwt beam="1">  1       -1 0.10160015E+00 0.27319156E+03</pdfrwt>
<totfact> 0.22858626E+02</totfact>
</mgrwt>
</event>
<event>
 4    1  0.8142558E-001  0.2328414E+03  0.7546771E-02  0.1124656E+00
         -2   -1    0    0    0  501 -0.00000000000E+00  0.00000000000E+00  0.24528171226E+03  0.24528171226E+03  0.00000000000E+00 0.  1.
          2   -1    0    0  502    0  0.00000000000E+00 -0.00000000000E+00 -0.22498967477E+03  0.22498967477E+03  0.00000000000E+00 0. -1.
          6    1    1    2  502    0 -0.15501421515E+03 -0.16022579165E+02  0.41331487770E+02  0.23648133504E+03  0.17300000000E+03 0.  1.
         -6    1    1    2    0  501  0.15501421515E+03  0.16022579165E+02 -0.21039450285E+02  0.23379005199E+03  0.17300000000E+03 0. -1.
<mgrwt>
<rscale>  2 0.23284143E+03</rscale>
<asrwt>0</asrwt>
<pdfrwt beam="2">  1        2 0.34613796E-01 0.23284143E+03</pdfrwt>
<pdfrwt beam="1">  1       -2 0.37735648E-01 0.23284143E+03</pdfrwt>
<totfact> 0.99602142E+02</totfact>
</mgrwt>
</event>
<event>
 4    1  0.8142558E-001  0.1792254E+03  0.7546771E-02  0.1168555E+00
          1   -1    0    0  502    0  0.00000000000E+00  0.00000000000E+00  0.11674230319E+04  0.11674230319E+04  0.00000000000E+00 0.  1.
         -1   -1    0    0    0  501 -0.00000000000E+00 -0.00000000000E+00 -0.37305471329E+02  0.37305471329E+02  0.00000000000E+00 0. -1.
          6    1    1    2  502    0 -0.28271191980E+02 -0.37329435083E+02  0.25647522331E+03  0.31289181388E+03  0.17300000000E+03 0. -1.
         -6    1    1    2    0  501  0.28271191980E+02  0.37329435083E+02  0.87364233731E+03  0.89183668940E+03  0.17300000000E+03 0.  1.
<mgrwt>
<rscale>  2 0.17922541E+03</rscale>
<asrwt>0</asrwt>
<pdfrwt beam="1">  1        1 0.17960352E+00 0.17922541E+03</pdfrwt>
<pdfrwt beam="2">  1       -1 0.57393042E-02 0.17922541E+03</pdfrwt>
<totfact> 0.17238081E+03</totfact>
</mgrwt>
</event>
<event>
 4    1  0.8142558E-001  0.2117823E+03  0.7546771E-02  0.1140162E+00
          1   -1    0    0  502    0  0.00000000000E+00  0.00000000000E+00  0.16156441003E+03  0.16156441003E+03  0.00000000000E+00 0.  1.
         -1   -1    0    0    0  501 -0.00000000000E+00 -0.00000000000E+00 -0.31676267606E+03  0.31676267606E+03  0.00000000000E+00 0. -1.
          6    1    1    2  502    0 -0.48756021453E+02  0.11200709677E+03 -0.16168327081E+03  0.26644552804E+03  0.17300000000E+03 0. -1.
         -6    1    1    2    0  501  0.48756021453E+02 -0.11200709677E+03  0.64850047709E+01  0.21188155805E+03  0.17300000000E+03 0.  1.
<mgrwt>
<rscale>  2 0.21178229E+03</rscale>
<asrwt>0</asrwt>
<pdfrwt beam="1">  1        1 0.24856063E-01 0.21178229E+03</pdfrwt>
<pdfrwt beam="2">  1       -1 0.48732719E-01 0.21178229E+03</pdfrwt>
<totfact> 0.82997753E+02</totfact>
</mgrwt>
</event>
<event>
 4    1  0.8142558E-001  0.1969408E+03  0.7546771E-02  0.1152346E+00
          1   -1    0    0  502    0  0.00000000000E+00  0.00000000000E+00  0.46402567669E+03  0.46402567669E+03  0.00000000000E+00 0. -1.
         -1   -1    0    0    0  501 -0.00000000000E+00 -0.00000000000E+00 -0.16785835415E+03  0.16785835415E+03  0.00000000000E+00 0.  1.
          6    1    1    2  502    0 -0.10821502580E+02 -0.93485599337E+02 -0.75778463554E+02  0.21101667645E+03  0.17300000000E+03 0.  1.
         -6    1    1    2    0  501  0.10821502580E+02  0.93485599337E+02  0.37194578609E+03  0.42086735439E+03  0.17300000000E+03 0. -1.
<mgrwt>
<rscale>  2 0.19694076E+03</rscale>
<asrwt>0</asrwt>
<pdfrwt beam="1">  1        1 0.71388565E-01 0.19694076E+03</pdfrwt>
<pdfrwt beam="2">  1       -1 0.25824362E-01 0.19694076E+03</pdfrwt>
<totfact> 0.66124565E+02</totfact>
</mgrwt>
</event>
<event>
 4    1  0.8142558E-001  0.2395471E+03  0.7546771E-02  0.1120095E+00
         -1   -1    0    0    0  501 -0.00000000000E+00  0.00000000000E+00  0.89156284138E+02  0.89156284138E+02  0.00000000000E+00 0.  1.
          1   -1    0    0  502    0  0.00000000000E+00 -0.00000000000E+00 -0.82712197823E+03  0.82712197823E+03  0.00000000000E+00 0. -1.
          6    1    1    2  502    0  0.13416679816E+03  0.97226878234E+02 -0.58477349110E+03  0.63193578113E+03  0.17300000000E+03 0. -1.
         -6    1    1    2    0  501 -0.13416679816E+03 -0.97226878234E+02 -0.15319220299E+03  0.28434248124E+03  0.17300000000E+03 0.  1.
<mgrwt>
<rscale>  2 0.23954706E+03</rscale>
<asrwt>0</asrwt>
<pdfrwt beam="2">  1        1 0.12724953E+00 0.23954706E+03</pdfrwt>
<pdfrwt beam="1">  1       -1 0.13716352E-01 0.23954706E+03</pdfrwt>
<totfact> 0.81398475E+02</totfact>
</mgrwt>
</event>
<event>
 4    1  0.8142558E-001  0.1890471E+03  0.7546771E-02  0.1159324E+00
         -2   -1    0    0    0  501 -0.00000000000E+00  0.00000000000E+00  0.87016491292E+02  0.87016491292E+02  0.00000000000E+00 0. -1.
          2   -1    0    0  502    0  0.00000000000E+00 -0.00000000000E+00 -0.42673915054E+03  0.42673915054E+03  0.00000000000E+00 0.  1.
          6    1    1    2  502    0  0.63281107262E+02  0.42489053052E+02 -0.12008099670E+03  0.22396040707E+03  0.17300000000E+03 0. -1.
         -6    1    1    2    0  501 -0.63281107262E+02 -0.42489053052E+02 -0.21964166255E+03  0.28979523476E+03  0.17300000000E+03 0.  1.
<mgrwt>
<rscale>  2 0.18904713E+03</rscale>
<asrwt>0</asrwt>
<pdfrwt beam="2">  1        2 0.65652179E-01 0.18904713E+03</pdfrwt>
<pdfrwt beam="1">  1       -2 0.13387152E-01 0.18904713E+03</pdfrwt>
<totfact> 0.30244198E+03</totfact>
</mgrwt>
</event>
<event>
 4    1  0.8142558E-001  0.1830327E+03  0.7546771E-02  0.1164900E+00
         -3   -1    0    0    0  501 -0.00000000000E+00  0.00000000000E+00  0.11541263691E+03  0.11541263691E+03  0.00000000000E+00 0. -1.
          3   -1    0    0  502    0  0.00000000000E+00 -0.00000000000E+00 -0.30523652691E+03  0.30523652691E+03  0.00000000000E+00 0.  1.
          6    1    1    2  502    0 -0.43846302406E+02  0.40613816637E+02 -0.48341229562E+02  0.18930888730E+03  0.17300000000E+03 0. -1.
         -6    1    1    2    0  501  0.43846302406E+02 -0.40613816637E+02 -0.14148266043E+03  0.23134027652E+03  0.17300000000E+03 0.  1.
<mgrwt>
<rscale>  2 0.18303273E+03</rscale>
<asrwt>0</asrwt>
<pdfrwt beam="2">  1        3 0.46959465E-01 0.18303273E+03</pdfrwt>
<pdfrwt beam="1">  1       -3 0.17755791E-01 0.18303273E+03</pdfrwt>
<totfact> 0.30329094E+02</totfact>
</mgrwt>
</event>
<event>
 4    1  0.8142558E-001  0.1809581E+03  0.7546771E-02  0.1166879E+00
         -2   -1    0    0    0  501 -0.00000000000E+00  0.00000000000E+00  0.10381369828E+02  0.10381369828E+02  0.00000000000E+00 0. -1.
          2   -1    0    0  502    0  0.00000000000E+00 -0.00000000000E+00 -0.42574370239E+04  0.42574370239E+04  0.00000000000E+00 0.  1.
          6    1    1    2  502    0 -0.67679623727E+01 -0.52640578283E+02 -0.10373052967E+04  0.10529710890E+04  0.17300000000E+03 0. -1.
         -6    1    1    2    0  501  0.67679623727E+01  0.52640578283E+02 -0.32097503574E+04  0.32148473047E+04  0.17300000000E+03 0.  1.
<mgrwt>
<rscale>  2 0.18095811E+03</rscale>
<asrwt>0</asrwt>
<pdfrwt beam="2">  1        2 0.65499194E+00 0.18095811E+03</pdfrwt>
<pdfrwt beam="1">  1       -2 0.15971299E-02 0.18095811E+03</pdfrwt>
<totfact> 0.31101638E+02</totfact>
</mgrwt>
</event>
<event>
 4    1  0.8142558E-001  0.3196446E+03  0.7546771E-02  0.1075813E+00
          1   -1    0    0  502    0  0.00000000000E+00  0.00000000000E+00  0.92819777622E+03  0.92819777622E+03  0.00000000000E+00 0.  1.
         -1   -1    0    0    0  501 -0.00000000000E+00 -0.00000000000E+00 -0.11533374947E+03  0.11533374947E+03  0.00000000000E+00 0. -1.
          6    1    1    2  502    0 -0.26866649928E+03 -0.78725668875E+01  0.29503308876E+03  0.43499102130E+03  0.17300000000E+03 0. -1.
         -6    1    1    2    0  501  0.26866649928E+03  0.78725668875E+01  0.51783093799E+03  0.60854050439E+03  0.17300000000E+03 0.  1.
<mgrwt>
<rscale>  2 0.31964459E+03</rscale>
<asrwt>0</asrwt>
<pdfrwt beam="1">  1        1 0.14279965E+00 0.31964459E+03</pdfrwt>
<pdfrwt beam="2">  1       -1 0.17743654E-01 0.31964459E+03</pdfrwt>
<totfact> 0.44542802E+02</totfact>
</mgrwt>
</event>
<event>
 4    1  0.8142558E-001  0.1830766E+03  0.7546771E-02  0.1164858E+00
         -2   -1    0    0    0  501 -0.00000000000E+00  0.00000000000E+00  0.44769287136E+02  0.44769287136E+02  0.00000000000E+00 0. -1.
          2   -1    0    0  502    0  0.00000000000E+00 -0.00000000000E+00 -0.10108854283E+04  0.10108854283E+04  0.00000000000E+00 0.  1.
          6    1    1    2  502    0  0.85805404099E+01 -0.59282605882E+02 -0.75188754151E+03  0.77385523718E+03  0.17300000000E+03 0.  1.
         -6    1    1    2    0  501 -0.85805404099E+01  0.59282605882E+02 -0.21422859965E+03  0.28179947825E+03  0.17300000000E+03 0. -1.
<mgrwt>
<rscale>  2 0.18307663E+03</rscale>
<asrwt>0</asrwt>
<pdfrwt beam="2">  1        2 0.15552082E+00 0.18307663E+03</pdfrwt>
<pdfrwt beam="1">  1       -2 0.68875834E-02 0.18307663E+03</pdfrwt>
<totfact> 0.30639803E+03</totfact>
</mgrwt>
</event>
<event>
 4    1  0.8142558E-001  0.2750078E+03  0.7546771E-02  0.1098447E+00
          1   -1    0    0  502    0  0.00000000000E+00  0.00000000000E+00  0.36180582171E+04  0.36180582171E+04  0.00000000000E+00 0. -1.
         -1   -1    0    0    0  501 -0.00000000000E+00 -0.00000000000E+00 -0.21068371068E+02  0.21068371068E+02  0.00000000000E+00 0.  1.
          6    1    1    2  502    0 -0.55786238244E+02  0.20636905007E+03  0.19595637783E+04  0.19787671642E+04  0.17300000000E+03 0. -1.
         -6    1    1    2    0  501  0.55786238244E+02 -0.20636905007E+03  0.16374260678E+04  0.16603594239E+04  0.17300000000E+03 0.  1.
<mgrwt>
<rscale>  2 0.27500780E+03</rscale>
<asrwt>0</asrwt>
<pdfrwt beam="1">  1        1 0.55662385E+00 0.27500780E+03</pdfrwt>
<pdfrwt beam="2">  1       -1 0.32412907E-02 0.27500780E+03</pdfrwt>
<totfact> 0.85557508E+01</totfact>
</mgrwt>
</event>
<event>
 4    1  0.8142558E-001  0.1944008E+03  0.7546771E-02  0.1154551E+00
         -2   -1    0    0    0  501 -0.00000000000E+00  0.00000000000E+00  0.14366885903E+02  0.14366885903E+02  0.00000000000E+00 0.  1.
          2   -1    0    0  502    0  0.00000000000E+00 -0.00000000000E+00 -0.30870467835E+04  0.30870467835E+04  0.00000000000E+00 0. -1.
          6    1    1    2  502    0 -0.50408441880E+02 -0.72949621596E+02 -0.93997083661E+03  0.95986292354E+03  0.17300000000E+03 0.  1.
         -6    1    1    2    0  501  0.50408441880E+02  0.72949621596E+02 -0.21327090610E+04  0.21415507459E+04  0.17300000000E+03 0. -1.
<mgrwt>
<rscale>  2 0.19440077E+03</rscale>
<asrwt>0</asrwt>
<pdfrwt beam="2">  1        2 0.47493051E+00 0.19440077E+03</pdfrwt>
<pdfrwt beam="1">  1       -2 0.22102890E-02 0.19440077E+03</pdfrwt>
<totfact> 0.12511355E+03</totfact>
</mgrwt>
</event>
<event>
 4    1  0.8142558E-001  0.1864996E+03  0.7546771E-02  0.1161657E+00
          1   -1    0    0  502    0  0.00000000000E+00  0.00000000000E+00  0.28934407173E+04  0.28934407173E+04  0.00000000000E+00 0.  1.
         -1   -1    0    0    0  501 -0.00000000000E+00 -0.00000000000E+00 -0.14418122884E+02  0.14418122884E+02  0.00000000000E+00 0. -1.
          6    1    1    2  502    0 -0.48978831480E+02 -0.49539695116E+02  0.84667833296E+03  0.86697537844E+03  0.17300000000E+03 0. -1.
         -6    1    1    2    0  501  0.48978831480E+02  0.49539695116E+02  0.20323442615E+04  0.20408834618E+04  0.17300000000E+03 0.  1.
<mgrwt>
<rscale>  2 0.18649962E+03</rscale>
<asrwt>0</asrwt>
<pdfrwt beam="1">  1        1 0.44514427E+00 0.18649962E+03</pdfrwt>
<pdfrwt beam="2">  1       -1 0.22181750E-02 0.18649962E+03</pdfrwt>
<totfact> 0.51404183E+02</totfact>
</mgrwt>
</event>
<event>
 4    1  0.8142558E-001  0.1796344E+03  0.7546771E-02  0.1168157E+00
         -2   -1    0    0    0  501 -0.00000000000E+00  0.00000000000E+00  0.19525964720E+02  0.19525964720E+02  0.00000000000E+00 0.  1.
          2   -1    0    0  502    0  0.00000000000E+00 -0.00000000000E+00 -0.17006199595E+04  0.17006199595E+04  0.00000000000E+00 0. -1.
          6    1    1    2  502    0 -0.44916816653E+02  0.17943963900E+02 -0.98507979697E+03  0.10013244792E+04  0.17300000000E+03 0. -1.
         -6    1    1    2    0  501  0.44916816653E+02 -0.17943963900E+02 -0.69601419781E+03  0.71882144501E+03  0.17300000000E+03 0. -1.
<mgrwt>
<rscale>  2 0.17963437E+03</rscale>
<asrwt>0</asrwt>
<pdfrwt beam="2">  1        2 0.26163387E+00 0.17963437E+03</pdfrwt>
<pdfrwt beam="1">  1       -2 0.30039943E-02 0.17963437E+03</pdfrwt>
<totfact> 0.44909489E+03</totfact>
</mgrwt>
</event>
<event>
 4    1  0.8142558E-001  0.1916492E+03  0.7546771E-02  0.1156982E+00
          4   -1    0    0  502    0  0.00000000000E+00  0.00000000000E+00  0.82422583600E+02  0.82422583600E+02  0.00000000000E+00 0.  1.
         -4   -1    0    0    0  501 -0.00000000000E+00 -0.00000000000E+00 -0.45022007057E+03  0.45022007057E+03  0.00000000000E+00 0. -1.
          6    1    1    2  502    0  0.76792867515E+02 -0.30054572623E+02 -0.21080919604E+03  0.28490338533E+03  0.17300000000E+03 0. -1.
         -6    1    1    2    0  501 -0.76792867515E+02  0.30054572623E+02 -0.15698829093E+03  0.24773926884E+03  0.17300000000E+03 0.  1.
<mgrwt>
<rscale>  2 0.19164922E+03</rscale>
<asrwt>0</asrwt>
<pdfrwt beam="1">  1        4 0.12680398E-01 0.19164922E+03</pdfrwt>
<pdfrwt beam="2">  1       -4 0.69264626E-01 0.19164922E+03</pdfrwt>
<totfact> 0.17416656E+02</totfact>
</mgrwt>
</event>
<event>
 4    1  0.8142558E-001  0.2111014E+03  0.7546771E-02  0.1140697E+00
         -1   -1    0    0    0  501 -0.00000000000E+00  0.00000000000E+00  0.22735459124E+02  0.22735459124E+02  0.00000000000E+00 0.  1.
          1   -1    0    0  502    0  0.00000000000E+00 -0.00000000000E+00 -0.20948306775E+04  0.20948306775E+04  0.00000000000E+00 0. -1.
          6    1    1    2  502    0  0.10303111536E+01  0.12096992170E+03 -0.76753476918E+03  0.79603605785E+03  0.17300000000E+03 0.  1.
         -6    1    1    2    0  501 -0.10303111536E+01 -0.12096992170E+03 -0.13045604492E+04  0.13215300788E+04  0.17300000000E+03 0. -1.
<mgrwt>
<rscale>  2 0.21110136E+03</rscale>
<asrwt>0</asrwt>
<pdfrwt beam="2">  1        1 0.32228163E+00 0.21110136E+03</pdfrwt>
<pdfrwt beam="1">  1       -1 0.34977631E-02 0.21110136E+03</pdfrwt>
<totfact> 0.88491623E+02</totfact>
</mgrwt>
</event>
<event>
 4    1  0.8142558E-001  0.1971547E+03  0.7546771E-02  0.1152162E+00
          1   -1    0    0  502    0  0.00000000000E+00  0.00000000000E+00  0.95395588655E+02  0.95395588655E+02  0.00000000000E+00 0. -1.
         -1   -1    0    0    0  501 -0.00000000000E+00 -0.00000000000E+00 -0.41111346051E+03  0.41111346051E+03  0.00000000000E+00 0.  1.
          6    1    1    2  502    0  0.93980416127E+02  0.10422970720E+02 -0.18173071126E+03  0.26813431028E+03  0.17300000000E+03 0.  1.
         -6    1    1    2    0  501 -0.93980416127E+02 -0.10422970720E+02 -0.13398716059E+03  0.23837473888E+03  0.17300000000E+03 0. -1.
<mgrwt>
<rscale>  2 0.19715465E+03</rscale>
<asrwt>0</asrwt>
<pdfrwt beam="1">  1        1 0.14676244E-01 0.19715465E+03</pdfrwt>
<pdfrwt beam="2">  1       -1 0.63248225E-01 0.19715465E+03</pdfrwt>
<totfact> 0.10006953E+03</totfact>
</mgrwt>
</event>
<event>
 4    1  0.8142558E-001  0.1836770E+03  0.7546771E-02  0.1164291E+00
          4   -1    0    0  502    0  0.00000000000E+00  0.00000000000E+00  0.16113735902E+04  0.16113735902E+04  0.00000000000E+00 0.  1.
         -4   -1    0    0    0  501 -0.00000000000E+00 -0.00000000000E+00 -0.34915656584E+02  0.34915656584E+02  0.00000000000E+00 0. -1.
          6    1    1    2  502    0  0.41012118212E+02  0.46111134280E+02  0.13090634196E+04  0.13218866317E+04  0.17300000000E+03 0.  1.
         -6    1    1    2    0  501 -0.41012118212E+02 -0.46111134280E+02  0.26739451402E+03  0.32440261508E+03  0.17300000000E+03 0. -1.
<mgrwt>
<rscale>  2 0.18367697E+03</rscale>
<asrwt>0</asrwt>
<pdfrwt beam="1">  1        4 0.24790357E+00 0.18367697E+03</pdfrwt>
<pdfrwt beam="2">  1       -4 0.53716407E-02 0.18367697E+03</pdfrwt>
<totfact> 0.27994899E+01</totfact>
</mgrwt>
</event>
<event>
 4    1  0.8142558E-001  0.2604399E+03  0.7546771E-02  0.1106879E+00
          2   -1    0    0  502    0  0.00000000000E+00  0.00000000000E+00  0.12464650986E+04  0.12464650986E+04  0.00000000000E+00 0.  1.
         -2   -1    0    0    0  501 -0.00000000000E+00 -0.00000000000E+00 -0.64122893739E+02  0.64122893739E+02  0.00000000000E+00 0. -1.
          6    1    1    2  502    0 -0.14517896254E+03  0.12970364714E+03  0.33622637481E+03  0.42529653462E+03  0.17300000000E+03 0. -1.
         -6    1    1    2    0  501  0.14517896254E+03 -0.12970364714E+03  0.84611583009E+03  0.88529145776E+03  0.17300000000E+03 0.  1.
<mgrwt>
<rscale>  2 0.26043995E+03</rscale>
<asrwt>0</asrwt>
<pdfrwt beam="1">  1        2 0.19176384E+00 0.26043995E+03</pdfrwt>
<pdfrwt beam="2">  1       -2 0.98650615E-02 0.26043995E+03</pdfrwt>
<totfact> 0.12769870E+03</totfact>
</mgrwt>
</event>
<event>
 4    1  0.8142558E-001  0.2031731E+03  0.7546771E-02  0.1147089E+00
         -1   -1    0    0    0  501 -0.00000000000E+00  0.00000000000E+00  0.18455576312E+02  0.18455576312E+02  0.00000000000E+00 0. -1.
          1   -1    0    0  502    0  0.00000000000E+00 -0.00000000000E+00 -0.26721787108E+04  0.26721787108E+04  0.00000000000E+00 0.  1.
          6    1    1    2  502    0 -0.43705230303E+02 -0.97160461178E+02 -0.78375744954E+03  0.80966353635E+03  0.17300000000E+03 0. -1.
         -6    1    1    2    0  501  0.43705230303E+02  0.97160461178E+02 -0.18699656849E+04  0.18809707507E+04  0.17300000000E+03 0.  1.
<mgrwt>
<rscale>  2 0.20317308E+03</rscale>
<asrwt>0</asrwt>
<pdfrwt beam="2">  1        1 0.41110455E+00 0.20317308E+03</pdfrwt>
<pdfrwt beam="1">  1       -1 0.28393185E-02 0.20317308E+03</pdfrwt>
<totfact> 0.50381508E+02</totfact>
</mgrwt>
</event>
<event>
 4    1  0.8142558E-001  0.2094129E+03  0.7546771E-02  0.1142032E+00
          1   -1    0    0  502    0  0.00000000000E+00  0.00000000000E+00  0.12702543849E+04  0.12702543849E+04  0.00000000000E+00 0. -1.
         -1   -1    0    0    0  501 -0.00000000000E+00 -0.00000000000E+00 -0.36312782518E+02  0.36312782518E+02  0.00000000000E+00 0.  1.
          6    1    1    2  502    0  0.99413227062E+02 -0.63574865017E+02  0.47196031479E+03  0.51633350841E+03  0.17300000000E+03 0.  1.
         -6    1    1    2    0  501 -0.99413227062E+02  0.63574865017E+02  0.76198128759E+03  0.79023365900E+03  0.17300000000E+03 0. -1.
<mgrwt>
<rscale>  2 0.20941288E+03</rscale>
<asrwt>0</asrwt>
<pdfrwt beam="1">  1        1 0.19542372E+00 0.20941288E+03</pdfrwt>
<pdfrwt beam="2">  1       -1 0.55865829E-02 0.20941288E+03</pdfrwt>
<totfact> 0.15247116E+03</totfact>
</mgrwt>
</event>
<event>
 4    1  0.8142558E-001  0.2366654E+03  0.7546771E-02  0.1122034E+00
         -2   -1    0    0    0  501 -0.00000000000E+00  0.00000000000E+00  0.22128393671E+02  0.22128393671E+02  0.00000000000E+00 0. -1.
          2   -1    0    0  502    0  0.00000000000E+00 -0.00000000000E+00 -0.25326115823E+04  0.25326115823E+04  0.00000000000E+00 0.  1.
          6    1    1    2  502    0 -0.64227875795E+02  0.14817661093E+03 -0.12246714972E+04  0.12473294690E+04  0.17300000000E+03 0.  1.
         -6    1    1    2    0  501  0.64227875795E+02 -0.14817661093E+03 -0.12858116914E+04  0.13074105070E+04  0.17300000000E+03 0.  1.
<mgrwt>
<rscale>  2 0.23666543E+03</rscale>
<asrwt>0</asrwt>
<pdfrwt beam="2">  1        2 0.38963219E+00 0.23666543E+03</pdfrwt>
<pdfrwt beam="1">  1       -2 0.34043714E-02 0.23666543E+03</pdfrwt>
<totfact> 0.13544835E+03</totfact>
</mgrwt>
</event>
<event>
 4    1  0.8142558E-001  0.1853368E+03  0.7546771E-02  0.1162736E+00
          1   -1    0    0  502    0  0.00000000000E+00  0.00000000000E+00  0.15446354573E+03  0.15446354573E+03  0.00000000000E+00 0. -1.
         -1   -1    0    0    0  501 -0.00000000000E+00 -0.00000000000E+00 -0.40997041136E+03  0.40997041136E+03  0.00000000000E+00 0.  1.
          6    1    1    2  502    0  0.62247797850E+02 -0.23365430484E+02 -0.31865576625E+03  0.36863427546E+03  0.17300000000E+03 0.  1.
         -6    1    1    2    0  501 -0.62247797850E+02  0.23365430484E+02  0.63148900614E+02  0.19579968163E+03  0.17300000000E+03 0. -1.
<mgrwt>
<rscale>  2 0.18533681E+03</rscale>
<asrwt>0</asrwt>
<pdfrwt beam="1">  1        1 0.23763623E-01 0.18533681E+03</pdfrwt>
<pdfrwt beam="2">  1       -1 0.63072370E-01 0.18533681E+03</pdfrwt>
<totfact> 0.54018699E+02</totfact>
</mgrwt>
</event>
<event>
 4    1  0.8142558E-001  0.1985519E+03  0.7546771E-02  0.1150967E+00
         -1   -1    0    0    0  501 -0.00000000000E+00  0.00000000000E+00  0.65967643693E+03  0.65967643693E+03  0.00000000000E+00 0.  1.
          1   -1    0    0  502    0  0.00000000000E+00 -0.00000000000E+00 -0.66283963441E+02  0.66283963441E+02  0.00000000000E+00 0. -1.
          6    1    1    2  502    0  0.93452913457E+02  0.27575489599E+02  0.41056501206E+03  0.45605535167E+03  0.17300000000E+03 0.  1.
         -6    1    1    2    0  501 -0.93452913457E+02 -0.27575489599E+02  0.18282746143E+03  0.26990504870E+03  0.17300000000E+03 0. -1.
<mgrwt>
<rscale>  2 0.19855189E+03</rscale>
<asrwt>0</asrwt>
<pdfrwt beam="2">  1        1 0.10197533E-01 0.19855189E+03</pdfrwt>
<pdfrwt beam="1">  1       -1 0.10148868E+00 0.19855189E+03</pdfrwt>
<totfact> 0.60836908E+02</totfact>
</mgrwt>
</event>
<event>
 4    1  0.8142558E-001  0.1743768E+03  0.7546771E-02  0.1173359E+00
         -2   -1    0    0    0  501 -0.00000000000E+00  0.00000000000E+00  0.15677157080E+02  0.15677157080E+02  0.00000000000E+00 0.  1.
          2   -1    0    0  502    0  0.00000000000E+00 -0.00000000000E+00 -0.19396101427E+04  0.19396101427E+04  0.00000000000E+00 0. -1.
          6    1    1    2  502    0  0.83341274117E+01 -0.20219465152E+02 -0.96497749262E+03  0.98060636634E+03  0.17300000000E+03 0. -1.
         -6    1    1    2    0  501 -0.83341274117E+01  0.20219465152E+02 -0.95895549303E+03  0.97468093346E+03  0.17300000000E+03 0. -1.
<mgrwt>
<rscale>  2 0.17437685E+03</rscale>
<asrwt>0</asrwt>
<pdfrwt beam="2">  1        2 0.29840156E+00 0.17437685E+03</pdfrwt>
<pdfrwt beam="1">  1       -2 0.24118703E-02 0.17437685E+03</pdfrwt>
<totfact> 0.46690477E+03</totfact>
</mgrwt>
</event>
<event>
 4    1  0.8142558E-001  0.2061021E+03  0.7546771E-02  0.1144690E+00
          2   -1    0    0  502    0  0.00000000000E+00  0.00000000000E+00  0.31352971304E+03  0.31352971304E+03  0.00000000000E+00 0.  1.
         -2   -1    0    0    0  501 -0.00000000000E+00 -0.00000000000E+00 -0.16982499753E+03  0.16982499753E+03  0.00000000000E+00 0. -1.
          6    1    1    2  502    0 -0.10786930395E+03  0.30220736216E+02  0.18053125796E+03  0.27398834780E+03  0.17300000000E+03 0. -1.
         -6    1    1    2    0  501  0.10786930395E+03 -0.30220736216E+02 -0.36826542449E+02  0.20936636277E+03  0.17300000000E+03 0. -1.
<mgrwt>
<rscale>  2 0.20610211E+03</rscale>
<asrwt>0</asrwt>
<pdfrwt beam="1">  1        2 0.48235340E-01 0.20610211E+03</pdfrwt>
<pdfrwt beam="2">  1       -2 0.26126923E-01 0.20610211E+03</pdfrwt>
<totfact> 0.13615724E+03</totfact>
</mgrwt>
</event>
<event>
 4    1  0.8142558E-001  0.2164087E+03  0.7546771E-02  0.1136589E+00
         -2   -1    0    0    0  501 -0.00000000000E+00  0.00000000000E+00  0.59656623085E+02  0.59656623085E+02  0.00000000000E+00 0. -1.
          2   -1    0    0  502    0  0.00000000000E+00 -0.00000000000E+00 -0.10489798638E+04  0.10489798638E+04  0.00000000000E+00 0.  1.
          6    1    1    2  502    0 -0.55666700272E+02 -0.11749446263E+03 -0.77271587195E+03  0.80244784817E+03  0.17300000000E+03 0.  1.
         -6    1    1    2    0  501  0.55666700272E+02  0.11749446263E+03 -0.21660736873E+03  0.30618863868E+03  0.17300000000E+03 0. -1.
<mgrwt>
<rscale>  2 0.21640871E+03</rscale>
<asrwt>0</asrwt>
<pdfrwt beam="2">  1        2 0.16138152E+00 0.21640871E+03</pdfrwt>
<pdfrwt beam="1">  1       -2 0.91779417E-02 0.21640871E+03</pdfrwt>
<totfact> 0.18625397E+03</totfact>
</mgrwt>
</event>
<event>
 4    1  0.8142558E-001  0.4239239E+03  0.7546771E-02  0.1035797E+00
          2   -1    0    0  502    0  0.00000000000E+00  0.00000000000E+00  0.33674244155E+03  0.33674244155E+03  0.00000000000E+00 0.  1.
         -2   -1    0    0    0  501 -0.00000000000E+00 -0.00000000000E+00 -0.55930326611E+03  0.55930326611E+03  0.00000000000E+00 0. -1.
          6    1    1    2  502    0  0.38621226844E+03 -0.24951169375E+02 -0.15379075072E+02  0.42420277356E+03  0.17300000000E+03 0.  1.
         -6    1    1    2    0  501 -0.38621226844E+03  0.24951169375E+02 -0.20718174949E+03  0.47184293411E+03  0.17300000000E+03 0. -1.
<mgrwt>
<rscale>  2 0.42392390E+03</rscale>
<asrwt>0</asrwt>
<pdfrwt beam="1">  1        2 0.51806530E-01 0.42392390E+03</pdfrwt>
<pdfrwt beam="2">  1       -2 0.86046656E-01 0.42392390E+03</pdfrwt>
<totfact> 0.11623884E+02</totfact>
</mgrwt>
</event>
<event>
 4    1  0.8142558E-001  0.2043562E+03  0.7546771E-02  0.1146115E+00
         -1   -1    0    0    0  501 -0.00000000000E+00  0.00000000000E+00  0.11847329724E+03  0.11847329724E+03  0.00000000000E+00 0.  1.
          1   -1    0    0  502    0  0.00000000000E+00 -0.00000000000E+00 -0.36692165175E+03  0.36692165175E+03  0.00000000000E+00 0. -1.
          6    1    1    2  502    0  0.73348281410E+02  0.80327454159E+02 -0.76103389660E+02  0.21806695347E+03  0.17300000000E+03 0. -1.
         -6    1    1    2    0  501 -0.73348281410E+02 -0.80327454159E+02 -0.17234496485E+03  0.26732799552E+03  0.17300000000E+03 0. -1.
<mgrwt>
<rscale>  2 0.20435623E+03</rscale>
<asrwt>0</asrwt>
<pdfrwt beam="2">  1        1 0.56449484E-01 0.20435623E+03</pdfrwt>
<pdfrwt beam="1">  1       -1 0.18226661E-01 0.20435623E+03</pdfrwt>
<totfact> 0.15800370E+03</totfact>
</mgrwt>
</event>
<event>
 4    1  0.8142558E-001  0.2596020E+03  0.7546771E-02  0.1107383E+00
         -2   -1    0    0    0  501 -0.00000000000E+00  0.00000000000E+00  0.41920070904E+02  0.41920070904E+02  0.00000000000E+00 0.  1.
          2   -1    0    0  502    0  0.00000000000E+00 -0.00000000000E+00 -0.18524072683E+04  0.18524072683E+04  0.00000000000E+00 0. -1.
          6    1    1    2  502    0 -0.14324221638E+01 -0.19355140488E+03 -0.56096010043E+03  0.61811765259E+03  0.17300000000E+03 0.  1.
         -6    1    1    2    0  501  0.14324221638E+01  0.19355140488E+03 -0.12495270970E+04  0.12762096867E+04  0.17300000000E+03 0. -1.
<mgrwt>
<rscale>  2 0.25960200E+03</rscale>
<asrwt>0</asrwt>
<pdfrwt beam="2">  1        2 0.28498576E+00 0.25960200E+03</pdfrwt>
<pdfrwt beam="1">  1       -2 0.64492411E-02 0.25960200E+03</pdfrwt>
<totfact> 0.11774315E+03</totfact>
</mgrwt>
</event>
<event>
 4    1  0.8142558E-001  0.2039807E+03  0.7546771E-02  0.1146423E+00
          1   -1    0    0  502    0  0.00000000000E+00  0.00000000000E+00  0.10279682843E+04  0.10279682843E+04  0.00000000000E+00 0.  1.
         -1   -1    0    0    0  501 -0.00000000000E+00 -0.00000000000E+00 -0.45269391034E+02  0.45269391034E+02  0.00000000000E+00 0. -1.
          6    1    1    2  502    0  0.10605164456E+03 -0.20788547392E+02  0.31673430515E+03  0.37673430303E+03  0.17300000000E+03 0. -1.
         -6    1    1    2    0  501 -0.10605164456E+03  0.20788547392E+02  0.66596458812E+03  0.69650337231E+03  0.17300000000E+03 0.  1.
<mgrwt>
<rscale>  2 0.20398067E+03</rscale>
<asrwt>0</asrwt>
<pdfrwt beam="1">  1        1 0.15814895E+00 0.20398067E+03</pdfrwt>
<pdfrwt beam="2">  1       -1 0.69645225E-02 0.20398067E+03</pdfrwt>
<totfact> 0.16214608E+03</totfact>
</mgrwt>
</event>
<event>
 4    1  0.8142558E-001  0.2237610E+03  0.7546771E-02  0.1131110E+00
         -2   -1    0    0    0  501 -0.00000000000E+00  0.00000000000E+00  0.30700179286E+03  0.30700179286E+03  0.00000000000E+00 0.  1.
          2   -1    0    0  502    0  0.00000000000E+00 -0.00000000000E+00 -0.17231452647E+03  0.17231452647E+03  0.00000000000E+00 0. -1.
          6    1    1    2  502    0  0.14127772651E+03 -0.13437938209E+02  0.12279335147E+03  0.25523945885E+03  0.17300000000E+03 0. -1.
         -6    1    1    2    0  501 -0.14127772651E+03  0.13437938209E+02  0.11893914924E+02  0.22407686048E+03  0.17300000000E+03 0. -1.
<mgrwt>
<rscale>  2 0.22376098E+03</rscale>
<asrwt>0</asrwt>
<pdfrwt beam="2">  1        2 0.26509927E-01 0.22376098E+03</pdfrwt>
<pdfrwt beam="1">  1       -2 0.47231045E-01 0.22376098E+03</pdfrwt>
<totfact> 0.86502876E+02</totfact>
</mgrwt>
</event>
<event>
 4    1  0.8142558E-001  0.1810154E+03  0.7546771E-02  0.1166824E+00
          1   -1    0    0  502    0  0.00000000000E+00  0.00000000000E+00  0.59475108171E+02  0.59475108171E+02  0.00000000000E+00 0.  1.
         -1   -1    0    0    0  501 -0.00000000000E+00 -0.00000000000E+00 -0.64266165652E+03  0.64266165652E+03  0.00000000000E+00 0. -1.
          6    1    1    2  502    0  0.50539031946E+02  0.16834258739E+02 -0.42422931438E+03  0.46123431919E+03  0.17300000000E+03 0. -1.
         -6    1    1    2    0  501 -0.50539031946E+02 -0.16834258739E+02 -0.15895723396E+03  0.24090244550E+03  0.17300000000E+03 0.  1.
<mgrwt>
<rscale>  2 0.18101543E+03</rscale>
<asrwt>0</asrwt>
<pdfrwt beam="1">  1        1 0.91500177E-02 0.18101543E+03</pdfrwt>
<pdfrwt beam="2">  1       -1 0.98871013E-01 0.18101543E+03</pdfrwt>
<totfact> 0.74472767E+02</totfact>
</mgrwt>
</event>
<event>
 4    1  0.8142558E-001  0.1774971E+03  0.7546771E-02  0.1170248E+00
          1   -1    0    0  502    0  0.00000000000E+00  0.00000000000E+00  0.50584828170E+03  0.50584828170E+03  0.00000000000E+00 0. -1.
         -1   -1    0    0    0  501 -0.00000000000E+00 -0.00000000000E+00 -0.73569366934E+02  0.73569366934E+02  0.00000000000E+00 0.  1.
          6    1    1    2  502    0  0.18076141838E+02  0.35347964458E+02  0.10266184498E+03  0.20504799416E+03  0.17300000000E+03 0.  1.
         -6    1    1    2    0  501 -0.18076141838E+02 -0.35347964458E+02  0.32961706979E+03  0.37436965448E+03  0.17300000000E+03 0. -1.
<mgrwt>
<rscale>  2 0.17749711E+03</rscale>
<asrwt>0</asrwt>
<pdfrwt beam="1">  1        1 0.77822810E-01 0.17749711E+03</pdfrwt>
<pdfrwt beam="2">  1       -1 0.11318364E-01 0.17749711E+03</pdfrwt>
<totfact> 0.22059799E+03</totfact>
</mgrwt>
</event>
<event>
 4    1  0.8142558E-001  0.2148902E+03  0.7546771E-02  0.1137751E+00
          2   -1    0    0  502    0  0.00000000000E+00  0.00000000000E+00  0.17745522291E+03  0.17745522291E+03  0.00000000000E+00 0.  1.
         -2   -1    0    0    0  501 -0.00000000000E+00 -0.00000000000E+00 -0.26385540459E+03  0.26385540459E+03  0.00000000000E+00 0. -1.
          6    1    1    2  502    0 -0.96135899960E+02 -0.83706063830E+02 -0.17308011355E+02  0.21558613972E+03  0.17300000000E+03 0.  1.
         -6    1    1    2    0  501  0.96135899960E+02  0.83706063830E+02 -0.69092170323E+02  0.22572448778E+03  0.17300000000E+03 0. -1.
<mgrwt>
<rscale>  2 0.21489024E+03</rscale>
<asrwt>0</asrwt>
<pdfrwt beam="1">  1        2 0.27300803E-01 0.21489024E+03</pdfrwt>
<pdfrwt beam="2">  1       -2 0.40593139E-01 0.21489024E+03</pdfrwt>
<totfact> 0.11229022E+03</totfact>
</mgrwt>
</event>
<event>
 4    1  0.8142558E-001  0.2408984E+03  0.7546771E-02  0.1119196E+00
          2   -1    0    0  502    0  0.00000000000E+00  0.00000000000E+00  0.13063560709E+04  0.13063560709E+04  0.00000000000E+00 0.  1.
         -2   -1    0    0    0  501 -0.00000000000E+00 -0.00000000000E+00 -0.44434164978E+02  0.44434164978E+02  0.00000000000E+00 0. -1.
          6    1    1    2  502    0 -0.39915666972E+02  0.16281817634E+03  0.62016839556E+03  0.66531260161E+03  0.17300000000E+03 0. -1.
         -6    1    1    2    0  501  0.39915666972E+02 -0.16281817634E+03  0.64175351039E+03  0.68547763429E+03  0.17300000000E+03 0.  1.
<mgrwt>
<rscale>  2 0.24089836E+03</rscale>
<asrwt>0</asrwt>
<pdfrwt beam="1">  1        2 0.20097783E+00 0.24089836E+03</pdfrwt>
<pdfrwt beam="2">  1       -2 0.68360264E-02 0.24089836E+03</pdfrwt>
<totfact> 0.21044022E+03</totfact>
</mgrwt>
</event>
<event>
 4    1  0.8142558E-001  0.2696436E+03  0.7546771E-02  0.1101484E+00
          2   -1    0    0  502    0  0.00000000000E+00  0.00000000000E+00  0.33413578735E+03  0.33413578735E+03  0.00000000000E+00 0.  1.
         -2   -1    0    0    0  501 -0.00000000000E+00 -0.00000000000E+00 -0.28296752144E+03  0.28296752144E+03  0.00000000000E+00 0. -1.
          6    1    1    2  502    0 -0.19781120534E+03 -0.60410222665E+02  0.17388489081E+03  0.32084828691E+03  0.17300000000E+03 0.  1.
         -6    1    1    2    0  501  0.19781120534E+03  0.60410222665E+02 -0.12271662490E+03  0.29625502188E+03  0.17300000000E+03 0. -1.
<mgrwt>
<rscale>  2 0.26964359E+03</rscale>
<asrwt>0</asrwt>
<pdfrwt beam="1">  1        2 0.51405506E-01 0.26964359E+03</pdfrwt>
<pdfrwt beam="2">  1       -2 0.43533465E-01 0.26964359E+03</pdfrwt>
<totfact> 0.49374161E+02</totfact>
</mgrwt>
</event>
<event>
 4    1  0.8142558E-001  0.2760716E+03  0.7546771E-02  0.1097854E+00
          2   -1    0    0  502    0  0.00000000000E+00  0.00000000000E+00  0.90412994822E+03  0.90412994822E+03  0.00000000000E+00 0.  1.
         -2   -1    0    0    0  501 -0.00000000000E+00 -0.00000000000E+00 -0.17626329103E+03  0.17626329103E+03  0.00000000000E+00 0. -1.
          6    1    1    2  502    0 -0.21363095590E+03 -0.25462376043E+02 -0.26264693112E+02  0.27731814224E+03  0.17300000000E+03 0. -1.
         -6    1    1    2    0  501  0.21363095590E+03  0.25462376043E+02  0.75413135031E+03  0.80307509700E+03  0.17300000000E+03 0.  1.
<mgrwt>
<rscale>  2 0.27607158E+03</rscale>
<asrwt>0</asrwt>
<pdfrwt beam="1">  1        2 0.13909691E+00 0.27607158E+03</pdfrwt>
<pdfrwt beam="2">  1       -2 0.27117430E-01 0.27607158E+03</pdfrwt>
<totfact> 0.37339733E+02</totfact>
</mgrwt>
</event>
<event>
 4    1  0.8142558E-001  0.4620195E+03  0.7546771E-02  0.1024197E+00
          2   -1    0    0  502    0  0.00000000000E+00  0.00000000000E+00  0.24867713777E+03  0.24867713777E+03  0.00000000000E+00 0. -1.
         -2   -1    0    0    0  501 -0.00000000000E+00 -0.00000000000E+00 -0.10253039970E+04  0.10253039970E+04  0.00000000000E+00 0.  1.
          6    1    1    2  502    0 -0.40120553779E+03 -0.15022355834E+03 -0.13130173611E+03  0.48031463328E+03  0.17300000000E+03 0.  1.
         -6    1    1    2    0  501  0.40120553779E+03  0.15022355834E+03 -0.64532512308E+03  0.79366650145E+03  0.17300000000E+03 0. -1.
<mgrwt>
<rscale>  2 0.46201948E+03</rscale>
<asrwt>0</asrwt>
<pdfrwt beam="1">  1        2 0.38258021E-01 0.46201948E+03</pdfrwt>
<pdfrwt beam="2">  1       -2 0.15773908E+00 0.46201948E+03</pdfrwt>
<totfact> 0.36703151E+01</totfact>
</mgrwt>
</event>
<event>
 4    1  0.8142558E-001  0.1891941E+03  0.7546771E-02  0.1159190E+00
         -1   -1    0    0    0  501 -0.00000000000E+00  0.00000000000E+00  0.89787873077E+02  0.89787873077E+02  0.00000000000E+00 0.  1.
          1   -1    0    0  502    0  0.00000000000E+00 -0.00000000000E+00 -0.42061764014E+03  0.42061764014E+03  0.00000000000E+00 0. -1.
          6    1    1    2  502    0  0.37311236640E+02  0.66882490506E+02 -0.22373020046E+03  0.29300102135E+03  0.17300000000E+03 0. -1.
         -6    1    1    2    0  501 -0.37311236640E+02 -0.66882490506E+02 -0.10709956660E+03  0.21740449186E+03  0.17300000000E+03 0. -1.
<mgrwt>
<rscale>  2 0.18919407E+03</rscale>
<asrwt>0</asrwt>
<pdfrwt beam="2">  1        1 0.64710406E-01 0.18919407E+03</pdfrwt>
<pdfrwt beam="1">  1       -1 0.13813519E-01 0.18919407E+03</pdfrwt>
<totfact> 0.20587467E+03</totfact>
</mgrwt>
</event>
<event>
 4    1  0.8142558E-001  0.1799154E+03  0.7546771E-02  0.1167885E+00
          2   -1    0    0  502    0  0.00000000000E+00  0.00000000000E+00  0.18674425852E+04  0.18674425852E+04  0.00000000000E+00 0. -1.
         -2   -1    0    0    0  501 -0.00000000000E+00 -0.00000000000E+00 -0.23815505445E+02  0.23815505445E+02  0.00000000000E+00 0.  1.
          6    1    1    2  502    0 -0.44396823982E+02  0.21667052607E+02  0.14151481620E+04  0.14265391195E+04  0.17300000000E+03 0. -1.
         -6    1    1    2    0  501  0.44396823982E+02 -0.21667052607E+02  0.42847891773E+03  0.46471897109E+03  0.17300000000E+03 0.  1.
<mgrwt>
<rscale>  2 0.17991537E+03</rscale>
<asrwt>0</asrwt>
<pdfrwt beam="1">  1        2 0.28729874E+00 0.17991537E+03</pdfrwt>
<pdfrwt beam="2">  1       -2 0.36639254E-02 0.17991537E+03</pdfrwt>
<totfact> 0.27411271E+03</totfact>
</mgrwt>
</event>
<event>
 4    1  0.8142558E-001  0.1767980E+03  0.7546771E-02  0.1170938E+00
          1   -1    0    0  502    0  0.00000000000E+00  0.00000000000E+00  0.70669096311E+03  0.70669096311E+03  0.00000000000E+00 0.  1.
         -1   -1    0    0    0  501 -0.00000000000E+00 -0.00000000000E+00 -0.61493782143E+02  0.61493782143E+02  0.00000000000E+00 0. -1.
          6    1    1    2  502    0  0.29647702269E+02  0.21202401321E+02  0.52610477406E+03  0.55501690187E+03  0.17300000000E+03 0.  1.
         -6    1    1    2    0  501 -0.29647702269E+02 -0.21202401321E+02  0.11909240691E+03  0.21316784339E+03  0.17300000000E+03 0. -1.
<mgrwt>
<rscale>  2 0.17679799E+03</rscale>
<asrwt>0</asrwt>
<pdfrwt beam="1">  1        1 0.10872168E+00 0.17679799E+03</pdfrwt>
<pdfrwt beam="2">  1       -1 0.94605823E-02 0.17679799E+03</pdfrwt>
<totfact> 0.18344798E+03</totfact>
</mgrwt>
</event>
<event>
 4    1  0.8142558E-001  0.2188214E+03  0.7546771E-02  0.1134765E+00
         -2   -1    0    0    0  501 -0.00000000000E+00  0.00000000000E+00  0.59852733441E+03  0.59852733441E+03  0.00000000000E+00 0. -1.
          2   -1    0    0  502    0  0.00000000000E+00 -0.00000000000E+00 -0.19273981434E+03  0.19273981434E+03  0.00000000000E+00 0.  1.
          6    1    1    2  502    0 -0.12344038427E+03  0.52117711626E+02  0.50547650345E+03  0.55080784297E+03  0.17300000000E+03 0. -1.
         -6    1    1    2    0  501  0.12344038427E+03 -0.52117711626E+02 -0.99688983377E+02  0.24045930579E+03  0.17300000000E+03 0.  1.
<mgrwt>
<rscale>  2 0.21882135E+03</rscale>
<asrwt>0</asrwt>
<pdfrwt beam="2">  1        2 0.29652279E-01 0.21882135E+03</pdfrwt>
<pdfrwt beam="1">  1       -2 0.92081127E-01 0.21882135E+03</pdfrwt>
<totfact> 0.18587183E+02</totfact>
</mgrwt>
</event>
<event>
 4    1  0.8142558E-001  0.5899636E+03  0.7546771E-02  0.9926450E-01
         -2   -1    0    0    0  501 -0.00000000000E+00  0.00000000000E+00  0.14681706570E+03  0.14681706570E+03  0.00000000000E+00 0.  1.
          2   -1    0    0  502    0  0.00000000000E+00 -0.00000000000E+00 -0.24811625694E+04  0.24811625694E+04  0.00000000000E+00 0. -1.
          6    1    1    2  502    0  0.43799320237E+03 -0.35537311955E+03 -0.88990438771E+03  0.10677016993E+04  0.17300000000E+03 0.  1.
         -6    1    1    2    0  501 -0.43799320237E+03  0.35537311955E+03 -0.14444411160E+04  0.15602779358E+04  0.17300000000E+03 0. -1.
<mgrwt>
<rscale>  2 0.58996364E+03</rscale>
<asrwt>0</asrwt>
<pdfrwt beam="2">  1        2 0.38171728E+00 0.58996364E+03</pdfrwt>
<pdfrwt beam="1">  1       -2 0.22587243E-01 0.58996364E+03</pdfrwt>
<totfact> 0.65306295E+01</totfact>
</mgrwt>
</event>
<event>
 4    1  0.8142558E-001  0.2282476E+03  0.7546771E-02  0.1127879E+00
          1   -1    0    0  502    0  0.00000000000E+00  0.00000000000E+00  0.85703097070E+03  0.85703097070E+03  0.00000000000E+00 0.  1.
         -1   -1    0    0    0  501 -0.00000000000E+00 -0.00000000000E+00 -0.15348394591E+03  0.15348394591E+03  0.00000000000E+00 0. -1.
          6    1    1    2  502    0 -0.90831411794E+02  0.11797302409E+03  0.74442949926E+03  0.77863486895E+03  0.17300000000E+03 0.  1.
         -6    1    1    2    0  501  0.90831411794E+02 -0.11797302409E+03 -0.40882474467E+02  0.23188004765E+03  0.17300000000E+03 0. -1.
<mgrwt>
<rscale>  2 0.22824763E+03</rscale>
<asrwt>0</asrwt>
<pdfrwt beam="1">  1        1 0.13185092E+00 0.22824763E+03</pdfrwt>
<pdfrwt beam="2">  1       -1 0.23612915E-01 0.22824763E+03</pdfrwt>
<totfact> 0.32082706E+02</totfact>
</mgrwt>
</event>
<event>
 4    1  0.8142558E-001  0.2356536E+03  0.7546771E-02  0.1122723E+00
          2   -1    0    0  502    0  0.00000000000E+00  0.00000000000E+00  0.11817908341E+04  0.11817908341E+04  0.00000000000E+00 0. -1.
         -2   -1    0    0    0  501 -0.00000000000E+00 -0.00000000000E+00 -0.51481092453E+02  0.51481092453E+02  0.00000000000E+00 0.  1.
          6    1    1    2  502    0 -0.16000068570E+03 -0.18456183159E+01  0.74727994528E+03  0.78355595993E+03  0.17300000000E+03 0.  1.
         -6    1    1    2    0  501  0.16000068570E+03  0.18456183159E+01  0.38302979639E+03  0.44971596665E+03  0.17300000000E+03 0.  1.
<mgrwt>
<rscale>  2 0.23565361E+03</rscale>
<asrwt>0</asrwt>
<pdfrwt beam="1">  1        2 0.18181395E+00 0.23565361E+03</pdfrwt>
<pdfrwt beam="2">  1       -2 0.79201689E-02 0.23565361E+03</pdfrwt>
<totfact> 0.19653442E+03</totfact>
</mgrwt>
</event>
<event>
 4    1  0.8142558E-001  0.1896130E+03  0.7546771E-02  0.1158811E+00
          1   -1    0    0  502    0  0.00000000000E+00  0.00000000000E+00  0.13122278448E+04  0.13122278448E+04  0.00000000000E+00 0.  1.
         -1   -1    0    0    0  501 -0.00000000000E+00 -0.00000000000E+00 -0.27608515215E+02  0.27608515215E+02  0.00000000000E+00 0. -1.
          6    1    1    2  502    0 -0.53871045024E+02 -0.55874746346E+02  0.58388127580E+03  0.61389772845E+03  0.17300000000E+03 0.  1.
         -6    1    1    2    0  501  0.53871045024E+02  0.55874746346E+02  0.70073805383E+03  0.72593863161E+03  0.17300000000E+03 0. -1.
<mgrwt>
<rscale>  2 0.18961297E+03</rscale>
<asrwt>0</asrwt>
<pdfrwt beam="1">  1        1 0.20188116E+00 0.18961297E+03</pdfrwt>
<pdfrwt beam="2">  1       -1 0.42474649E-02 0.18961297E+03</pdfrwt>
<totfact> 0.21488004E+03</totfact>
</mgrwt>
</event>
<event>
 4    1  0.8142558E-001  0.2368845E+03  0.7546771E-02  0.1121886E+00
         -2   -1    0    0    0  501 -0.00000000000E+00  0.00000000000E+00  0.46236847474E+02  0.46236847474E+02  0.00000000000E+00 0.  1.
          2   -1    0    0  502    0  0.00000000000E+00 -0.00000000000E+00 -0.12350665252E+04  0.12350665252E+04  0.00000000000E+00 0. -1.
          6    1    1    2  502    0 -0.14972612329E+02 -0.16112448044E+03 -0.67882337896E+03  0.71896832832E+03  0.17300000000E+03 0. -1.
         -6    1    1    2    0  501  0.14972612329E+02  0.16112448044E+03 -0.51000629874E+03  0.56233504432E+03  0.17300000000E+03 0.  1.
<mgrwt>
<rscale>  2 0.23688452E+03</rscale>
<asrwt>0</asrwt>
<pdfrwt beam="2">  1        2 0.19001022E+00 0.23688452E+03</pdfrwt>
<pdfrwt beam="1">  1       -2 0.71133618E-02 0.23688452E+03</pdfrwt>
<totfact> 0.21677168E+03</totfact>
</mgrwt>
</event>
<event>
 4    1  0.8142558E-001  0.2740521E+03  0.7546771E-02  0.1098983E+00
          2   -1    0    0  502    0  0.00000000000E+00  0.00000000000E+00  0.23932955086E+03  0.23932955086E+03  0.00000000000E+00 0. -1.
         -2   -1    0    0    0  501 -0.00000000000E+00 -0.00000000000E+00 -0.40009719680E+03  0.40009719680E+03  0.00000000000E+00 0.  1.
          6    1    1    2  502    0  0.14658519436E+03  0.15391018236E+03 -0.22885610082E+03  0.35704296425E+03  0.17300000000E+03 0.  1.
         -6    1    1    2    0  501 -0.14658519436E+03 -0.15391018236E+03  0.68088454884E+02  0.28238378340E+03  0.17300000000E+03 0. -1.
<mgrwt>
<rscale>  2 0.27405212E+03</rscale>
<asrwt>0</asrwt>
<pdfrwt beam="1">  1        2 0.36819931E-01 0.27405212E+03</pdfrwt>
<pdfrwt beam="2">  1       -2 0.61553415E-01 0.27405212E+03</pdfrwt>
<totfact> 0.35246559E+02</totfact>
</mgrwt>
</event>
<event>
 4    1  0.8142558E-001  0.1950316E+03  0.7546771E-02  0.1154000E+00
          1   -1    0    0  502    0  0.00000000000E+00  0.00000000000E+00  0.58172551097E+03  0.58172551097E+03  0.00000000000E+00 0. -1.
         -1   -1    0    0    0  501 -0.00000000000E+00 -0.00000000000E+00 -0.10141324728E+03  0.10141324728E+03  0.00000000000E+00 0.  1.
          6    1    1    2  502    0 -0.89935953000E+02 -0.44532186635E+01  0.36573425727E+02  0.19843115246E+03  0.17300000000E+03 0.  1.
         -6    1    1    2    0  501  0.89935953000E+02  0.44532186635E+01  0.44373883796E+03  0.48470760579E+03  0.17300000000E+03 0. -1.
<mgrwt>
<rscale>  2 0.19503155E+03</rscale>
<asrwt>0</asrwt>
<pdfrwt beam="1">  1        1 0.89496230E-01 0.19503155E+03</pdfrwt>
<pdfrwt beam="2">  1       -1 0.15602038E-01 0.19503155E+03</pdfrwt>
<totfact> 0.11079100E+03</totfact>
</mgrwt>
</event>
<event>
 4    1  0.8142558E-001  0.1731388E+03  0.7546771E-02  0.1174614E+00
          3   -1    0    0  502    0  0.00000000000E+00  0.00000000000E+00  0.10983003757E+02  0.10983003757E+02  0.00000000000E+00 0.  1.
         -3   -1    0    0    0  501 -0.00000000000E+00 -0.00000000000E+00 -0.27792739443E+04  0.27792739443E+04  0.00000000000E+00 0. -1.
          6    1    1    2  502    0  0.24763443735E+01  0.64745606873E+01 -0.11972628882E+04  0.12097171056E+04  0.17300000000E+03 0.  1.
         -6    1    1    2    0  501 -0.24763443735E+01 -0.64745606873E+01 -0.15710280523E+04  0.15805398424E+04  0.17300000000E+03 0. -1.
<mgrwt>
<rscale>  2 0.17313882E+03</rscale>
<asrwt>0</asrwt>
<pdfrwt beam="1">  1        3 0.16896951E-02 0.17313882E+03</pdfrwt>
<pdfrwt beam="2">  1       -3 0.42758005E+00 0.17313882E+03</pdfrwt>
<totfact> 0.28291837E+01</totfact>
</mgrwt>
</event>
<event>
 4    1  0.8142558E-001  0.3152039E+03  0.7546771E-02  0.1077878E+00
         -2   -1    0    0    0  501 -0.00000000000E+00  0.00000000000E+00  0.92763338402E+02  0.92763338402E+02  0.00000000000E+00 0. -1.
          2   -1    0    0  502    0  0.00000000000E+00 -0.00000000000E+00 -0.10712445881E+04  0.10712445881E+04  0.00000000000E+00 0.  1.
          6    1    1    2  502    0  0.19459397360E+03  0.17764478986E+03 -0.48124856632E+03  0.57528572771E+03  0.17300000000E+03 0. -1.
         -6    1    1    2    0  501 -0.19459397360E+03 -0.17764478986E+03 -0.49723268336E+03  0.58872219877E+03  0.17300000000E+03 0. -1.
<mgrwt>
<rscale>  2 0.31520388E+03</rscale>
<asrwt>0</asrwt>
<pdfrwt beam="2">  1        2 0.16480685E+00 0.31520388E+03</pdfrwt>
<pdfrwt beam="1">  1       -2 0.14271284E-01 0.31520388E+03</pdfrwt>
<totfact> 0.88383158E+02</totfact>
</mgrwt>
</event>
<event>
 4    1  0.8142558E-001  0.2657016E+03  0.7546771E-02  0.1103765E+00
          1   -1    0    0  502    0  0.00000000000E+00  0.00000000000E+00  0.40961176766E+03  0.40961176766E+03  0.00000000000E+00 0.  1.
         -1   -1    0    0    0  501 -0.00000000000E+00 -0.00000000000E+00 -0.17338087811E+03  0.17338087811E+03  0.00000000000E+00 0. -1.
          6    1    1    2  502    0  0.19611417250E+03 -0.46984660594E+02  0.95658231408E+02  0.28239657261E+03  0.17300000000E+03 0.  1.
         -6    1    1    2    0  501 -0.19611417250E+03  0.46984660594E+02  0.14057265814E+03  0.30059607316E+03  0.17300000000E+03 0. -1.
<mgrwt>
<rscale>  2 0.26570158E+03</rscale>
<asrwt>0</asrwt>
<pdfrwt beam="1">  1        1 0.63017195E-01 0.26570158E+03</pdfrwt>
<pdfrwt beam="2">  1       -1 0.26673981E-01 0.26570158E+03</pdfrwt>
<totfact> 0.73579751E+02</totfact>
</mgrwt>
</event>
<event>
 4    1  0.8142558E-001  0.1811008E+03  0.7546771E-02  0.1166742E+00
          1   -1    0    0  502    0  0.00000000000E+00  0.00000000000E+00  0.53167202283E+02  0.53167202283E+02  0.00000000000E+00 0. -1.
         -1   -1    0    0    0  501 -0.00000000000E+00 -0.00000000000E+00 -0.83891376397E+03  0.83891376397E+03  0.00000000000E+00 0.  1.
          6    1    1    2  502    0 -0.16658574142E+02 -0.50901658327E+02 -0.16340081193E+03  0.24392070894E+03  0.17300000000E+03 0. -1.
         -6    1    1    2    0  501  0.16658574142E+02  0.50901658327E+02 -0.62234574976E+03  0.64816025731E+03  0.17300000000E+03 0. -1.
<mgrwt>
<rscale>  2 0.18110076E+03</rscale>
<asrwt>0</asrwt>
<pdfrwt beam="1">  1        1 0.81795701E-02 0.18110076E+03</pdfrwt>
<pdfrwt beam="2">  1       -1 0.12906365E+00 0.18110076E+03</pdfrwt>
<totfact> 0.46728493E+02</totfact>
</mgrwt>
</event>
<event>
 4    1  0.8142558E-001  0.2400976E+03  0.7546771E-02  0.1119728E+00
         -1   -1    0    0    0  501 -0.00000000000E+00  0.00000000000E+00  0.51684994316E+02  0.51684994316E+02  0.00000000000E+00 0. -1.
          1   -1    0    0  502    0  0.00000000000E+00 -0.00000000000E+00 -0.14654844361E+04  0.14654844361E+04  0.00000000000E+00 0.  1.
          6    1    1    2  502    0 -0.33616133848E+02 -0.16305777128E+03 -0.10776919483E+04  0.11041135887E+04  0.17300000000E+03 0.  1.
         -6    1    1    2    0  501  0.33616133848E+02  0.16305777128E+03 -0.33610749346E+03  0.41305584174E+03  0.17300000000E+03 0. -1.
<mgrwt>
<rscale>  2 0.24009765E+03</rscale>
<asrwt>0</asrwt>
<pdfrwt beam="2">  1        1 0.22545914E+00 0.24009765E+03</pdfrwt>
<pdfrwt beam="1">  1       -1 0.79515378E-02 0.24009765E+03</pdfrwt>
<totfact> 0.65881629E+02</totfact>
</mgrwt>
</event>
<event>
 4    1  0.8142558E-001  0.3203160E+03  0.7546771E-02  0.1075504E+00
          1   -1    0    0  502    0  0.00000000000E+00  0.00000000000E+00  0.10137051051E+04  0.10137051051E+04  0.00000000000E+00 0. -1.
         -1   -1    0    0    0  501 -0.00000000000E+00 -0.00000000000E+00 -0.10267089009E+03  0.10267089009E+03  0.00000000000E+00 0.  1.
          6    1    1    2  502    0 -0.26210618743E+03  0.63037302964E+02  0.52198206779E+03  0.61242765626E+03  0.17300000000E+03 0. -1.
         -6    1    1    2    0  501  0.26210618743E+03 -0.63037302964E+02  0.38905214719E+03  0.50394833891E+03  0.17300000000E+03 0.  1.
<mgrwt>
<rscale>  2 0.32031602E+03</rscale>
<asrwt>0</asrwt>
<pdfrwt beam="1">  1        1 0.15595462E+00 0.32031602E+03</pdfrwt>
<pdfrwt beam="2">  1       -1 0.15795522E-01 0.32031602E+03</pdfrwt>
<totfact> 0.46216460E+02</totfact>
</mgrwt>
</event>
<event>
 4    1  0.8142558E-001  0.2014868E+03  0.7546771E-02  0.1148491E+00
          2   -1    0    0  502    0  0.00000000000E+00  0.00000000000E+00  0.25066460952E+03  0.25066460952E+03  0.00000000000E+00 0. -1.
         -2   -1    0    0    0  501 -0.00000000000E+00 -0.00000000000E+00 -0.16198266029E+03  0.16198266029E+03  0.00000000000E+00 0.  1.
          6    1    1    2  502    0  0.28232541622E+02  0.99352102976E+02  0.41749914265E+02  0.20576679060E+03  0.17300000000E+03 0.  1.
         -6    1    1    2    0  501 -0.28232541622E+02 -0.99352102976E+02  0.46932034967E+02  0.20688047921E+03  0.17300000000E+03 0. -1.
<mgrwt>
<rscale>  2 0.20148677E+03</rscale>
<asrwt>0</asrwt>
<pdfrwt beam="1">  1        2 0.38563786E-01 0.20148677E+03</pdfrwt>
<pdfrwt beam="2">  1       -2 0.24920409E-01 0.20148677E+03</pdfrwt>
<totfact> 0.18814707E+03</totfact>
</mgrwt>
</event>
<event>
 4    1  0.8142558E-001  0.2109346E+03  0.7546771E-02  0.1140828E+00
          2   -1    0    0  502    0  0.00000000000E+00  0.00000000000E+00  0.50834581635E+02  0.50834581635E+02  0.00000000000E+00 0.  1.
         -2   -1    0    0    0  501 -0.00000000000E+00 -0.00000000000E+00 -0.94616840910E+03  0.94616840910E+03  0.00000000000E+00 0. -1.
          6    1    1    2  502    0 -0.12040069145E+03 -0.82504550126E+01 -0.58413650737E+03  0.62105463186E+03  0.17300000000E+03 0. -1.
         -6    1    1    2    0  501  0.12040069145E+03  0.82504550126E+01 -0.31119732010E+03  0.37594835888E+03  0.17300000000E+03 0.  1.
<mgrwt>
<rscale>  2 0.21093458E+03</rscale>
<asrwt>0</asrwt>
<pdfrwt beam="1">  1        2 0.78207048E-02 0.21093458E+03</pdfrwt>
<pdfrwt beam="2">  1       -2 0.14556437E+00 0.21093458E+03</pdfrwt>
<totfact> 0.29919309E+02</totfact>
</mgrwt>
</event>
<event>
 4    1  0.8142558E-001  0.1757673E+03  0.7546771E-02  0.1171963E+00
         -1   -1    0    0    0  501 -0.00000000000E+00  0.00000000000E+00  0.39679864814E+03  0.39679864814E+03  0.00000000000E+00 0.  1.
          1   -1    0    0  502    0  0.00000000000E+00 -0.00000000000E+00 -0.92858660510E+02  0.92858660510E+02  0.00000000000E+00 0. -1.
          6    1    1    2  502    0  0.16821882657E+01  0.31021237550E+02  0.25037088088E+03  0.30590803345E+03  0.17300000000E+03 0.  1.
         -6    1    1    2    0  501 -0.16821882657E+01 -0.31021237550E+02  0.53569106742E+02  0.18374927519E+03  0.17300000000E+03 0. -1.
<mgrwt>
<rscale>  2 0.17576731E+03</rscale>
<asrwt>0</asrwt>
<pdfrwt beam="2">  1        1 0.14285948E-01 0.17576731E+03</pdfrwt>
<pdfrwt beam="1">  1       -1 0.61045945E-01 0.17576731E+03</pdfrwt>
<totfact> 0.11074698E+03</totfact>
</mgrwt>
</event>
<event>
 4    1  0.8142558E-001  0.3454853E+03  0.7546771E-02  0.1064483E+00
         -2   -1    0    0    0  501 -0.00000000000E+00  0.00000000000E+00  0.15617942496E+03  0.15617942496E+03  0.00000000000E+00 0. -1.
          2   -1    0    0  502    0  0.00000000000E+00 -0.00000000000E+00 -0.11594555011E+04  0.11594555011E+04  0.00000000000E+00 0.  1.
          6    1    1    2  502    0  0.26979241833E+03  0.12900833928E+03 -0.11758612387E+03  0.36494738953E+03  0.17300000000E+03 0. -1.
         -6    1    1    2    0  501 -0.26979241833E+03 -0.12900833928E+03 -0.88568995228E+03  0.95068753656E+03  0.17300000000E+03 0.  1.
<mgrwt>
<rscale>  2 0.34548531E+03</rscale>
<asrwt>0</asrwt>
<pdfrwt beam="2">  1        2 0.17837776E+00 0.34548531E+03</pdfrwt>
<pdfrwt beam="1">  1       -2 0.24027605E-01 0.34548531E+03</pdfrwt>
<totfact> 0.32103011E+02</totfact>
</mgrwt>
</event>
<event>
 4    1  0.8142558E-001  0.2579397E+03  0.7546771E-02  0.1108387E+00
          2   -1    0    0  502    0  0.00000000000E+00  0.00000000000E+00  0.41111360080E+03  0.41111360080E+03  0.00000000000E+00 0.  1.
         -2   -1    0    0    0  501 -0.00000000000E+00 -0.00000000000E+00 -0.24342554672E+03  0.24342554672E+03  0.00000000000E+00 0. -1.
          6    1    1    2  502    0 -0.15009895539E+03 -0.11863469284E+03  0.27331401267E+03  0.37581037276E+03  0.17300000000E+03 0. -1.
         -6    1    1    2    0  501  0.15009895539E+03  0.11863469284E+03 -0.10562595858E+03  0.27872877476E+03  0.17300000000E+03 0.  1.
<mgrwt>
<rscale>  2 0.25793970E+03</rscale>
<asrwt>0</asrwt>
<pdfrwt beam="1">  1        2 0.63248246E-01 0.25793970E+03</pdfrwt>
<pdfrwt beam="2">  1       -2 0.37450084E-01 0.25793970E+03</pdfrwt>
<totfact> 0.52610820E+02</totfact>
</mgrwt>
</event>
<event>
 4    1  0.8142558E-001  0.2151941E+03  0.7546771E-02  0.1137518E+00
          2   -1    0    0  502    0  0.00000000000E+00  0.00000000000E+00  0.10520755240E+04  0.10520755240E+04  0.00000000000E+00 0. -1.
         -2   -1    0    0    0  501 -0.00000000000E+00 -0.00000000000E+00 -0.44030911522E+02  0.44030911522E+02  0.00000000000E+00 0.  1.
          6    1    1    2  502    0 -0.37093269790E+00  0.12798186551E+03  0.49404627203E+03  0.53887866389E+03  0.17300000000E+03 0.  1.
         -6    1    1    2    0  501  0.37093269790E+00 -0.12798186551E+03  0.51399834041E+03  0.55722777159E+03  0.17300000000E+03 0.  1.
<mgrwt>
<rscale>  2 0.21519409E+03</rscale>
<asrwt>0</asrwt>
<pdfrwt beam="1">  1        2 0.16185775E+00 0.21519409E+03</pdfrwt>
<pdfrwt beam="2">  1       -2 0.67739872E-02 0.21519409E+03</pdfrwt>
<totfact> 0.29786706E+03</totfact>
</mgrwt>
</event>
<event>
 4    1  0.8142558E-001  0.2117275E+03  0.7546771E-02  0.1140205E+00
         -1   -1    0    0    0  501 -0.00000000000E+00  0.00000000000E+00  0.88996274104E+02  0.88996274104E+02  0.00000000000E+00 0. -1.
          1   -1    0    0  502    0  0.00000000000E+00 -0.00000000000E+00 -0.50439898236E+03  0.50439898236E+03  0.00000000000E+00 0.  1.
          6    1    1    2  502    0  0.87617506104E+02  0.84986553089E+02 -0.19675622655E+03  0.28903555883E+03  0.17300000000E+03 0. -1.
         -6    1    1    2    0  501 -0.87617506104E+02 -0.84986553089E+02 -0.21864648171E+03  0.30435969764E+03  0.17300000000E+03 0. -1.
<mgrwt>
<rscale>  2 0.21172752E+03</rscale>
<asrwt>0</asrwt>
<pdfrwt beam="2">  1        1 0.77599846E-01 0.21172752E+03</pdfrwt>
<pdfrwt beam="1">  1       -1 0.13691734E-01 0.21172752E+03</pdfrwt>
<totfact> 0.16515299E+03</totfact>
</mgrwt>
</event>
<event>
 4    1  0.8142558E-001  0.1732308E+03  0.7546771E-02  0.1174520E+00
          1   -1    0    0  502    0  0.00000000000E+00  0.00000000000E+00  0.76860454976E+03  0.76860454976E+03  0.00000000000E+00 0. -1.
         -1   -1    0    0    0  501 -0.00000000000E+00 -0.00000000000E+00 -0.39396000601E+02  0.39396000601E+02  0.00000000000E+00 0.  1.
          6    1    1    2  502    0 -0.12405638283E+01 -0.88530196720E+01  0.32638230349E+03  0.36950551145E+03  0.17300000000E+03 0.  1.
         -6    1    1    2    0  501  0.12405638283E+01  0.88530196720E+01  0.40282624566E+03  0.43849503891E+03  0.17300000000E+03 0. -1.
<mgrwt>
<rscale>  2 0.17323081E+03</rscale>
<asrwt>0</asrwt>
<pdfrwt beam="1">  1        1 0.11824684E+00 0.17323081E+03</pdfrwt>
<pdfrwt beam="2">  1       -1 0.60609237E-02 0.17323081E+03</pdfrwt>
<totfact> 0.31811436E+03</totfact>
</mgrwt>
</event>
<event>
 4    1  0.8142558E-001  0.1752204E+03  0.7546771E-02  0.1172511E+00
         -3   -1    0    0    0  501 -0.00000000000E+00  0.00000000000E+00  0.23952959529E+03  0.23952959529E+03  0.00000000000E+00 0.  1.
          3   -1    0    0  502    0  0.00000000000E+00 -0.00000000000E+00 -0.32080716748E+03  0.32080716748E+03  0.00000000000E+00 0. -1.
          6    1    1    2  502    0  0.10758423633E+02  0.25640460844E+02 -0.25773851373E+03  0.31165897768E+03  0.17300000000E+03 0. -1.
         -6    1    1    2    0  501 -0.10758423633E+02 -0.25640460844E+02  0.17646094153E+03  0.24867778509E+03  0.17300000000E+03 0.  1.
<mgrwt>
<rscale>  2 0.17522037E+03</rscale>
<asrwt>0</asrwt>
<pdfrwt beam="2">  1        3 0.49354949E-01 0.17522037E+03</pdfrwt>
<pdfrwt beam="1">  1       -3 0.36850707E-01 0.17522037E+03</pdfrwt>
<totfact> 0.72092100E+01</totfact>
</mgrwt>
</event>
<event>
 4    1  0.8142558E-001  0.1775392E+03  0.7546771E-02  0.1170206E+00
          2   -1    0    0  502    0  0.00000000000E+00  0.00000000000E+00  0.27648694815E+03  0.27648694815E+03  0.00000000000E+00 0. -1.
         -2   -1    0    0    0  501 -0.00000000000E+00 -0.00000000000E+00 -0.24298250323E+03  0.24298250323E+03  0.00000000000E+00 0.  1.
          6    1    1    2  502    0 -0.15753506642E+02  0.36646878221E+02 -0.17248385236E+03  0.24752948507E+03  0.17300000000E+03 0.  1.
         -6    1    1    2    0  501  0.15753506642E+02 -0.36646878221E+02  0.20598829729E+03  0.27193996631E+03  0.17300000000E+03 0. -1.
<mgrwt>
<rscale>  2 0.17753920E+03</rscale>
<asrwt>0</asrwt>
<pdfrwt beam="1">  1        2 0.42536454E-01 0.17753920E+03</pdfrwt>
<pdfrwt beam="2">  1       -2 0.37381924E-01 0.17753920E+03</pdfrwt>
<totfact> 0.80838529E+02</totfact>
</mgrwt>
</event>
<event>
 4    1  0.8142558E-001  0.2334850E+03  0.7546771E-02  0.1124211E+00
          2   -1    0    0  502    0  0.00000000000E+00  0.00000000000E+00  0.62945715883E+03  0.62945715883E+03  0.00000000000E+00 0. -1.
         -2   -1    0    0    0  501 -0.00000000000E+00 -0.00000000000E+00 -0.99580121587E+02  0.99580121587E+02  0.00000000000E+00 0.  1.
          6    1    1    2  502    0  0.57447955362E+00  0.15679890637E+03  0.13336752457E+03  0.26889054218E+03  0.17300000000E+03 0.  1.
         -6    1    1    2    0  501 -0.57447955362E+00 -0.15679890637E+03  0.39650951268E+03  0.46014673824E+03  0.17300000000E+03 0.  1.
<mgrwt>
<rscale>  2 0.23348496E+03</rscale>
<asrwt>0</asrwt>
<pdfrwt beam="1">  1        2 0.96839561E-01 0.23348496E+03</pdfrwt>
<pdfrwt beam="2">  1       -2 0.15320019E-01 0.23348496E+03</pdfrwt>
<totfact> 0.15726670E+03</totfact>
</mgrwt>
</event>
<event>
 4    1  0.8142558E-001  0.1890407E+03  0.7546771E-02  0.1159329E+00
          2   -1    0    0  502    0  0.00000000000E+00  0.00000000000E+00  0.54321718161E+03  0.54321718161E+03  0.00000000000E+00 0.  1.
         -2   -1    0    0    0  501 -0.00000000000E+00 -0.00000000000E+00 -0.12052160039E+03  0.12052160039E+03  0.00000000000E+00 0. -1.
          6    1    1    2  502    0 -0.34467291088E+02 -0.67966046032E+02  0.43499710107E+03  0.47429827694E+03  0.17300000000E+03 0.  1.
         -6    1    1    2    0  501  0.34467291088E+02  0.67966046032E+02 -0.12301519848E+02  0.18944050506E+03  0.17300000000E+03 0. -1.
<mgrwt>
<rscale>  2 0.18904068E+03</rscale>
<asrwt>0</asrwt>
<pdfrwt beam="1">  1        2 0.83571873E-01 0.18904068E+03</pdfrwt>
<pdfrwt beam="2">  1       -2 0.18541785E-01 0.18904068E+03</pdfrwt>
<totfact> 0.13504311E+03</totfact>
</mgrwt>
</event>
<event>
 4    1  0.8142558E-001  0.1742734E+03  0.7546771E-02  0.1173463E+00
         -2   -1    0    0    0  501 -0.00000000000E+00  0.00000000000E+00  0.20274440006E+02  0.20274440006E+02  0.00000000000E+00 0. -1.
          2   -1    0    0  502    0  0.00000000000E+00 -0.00000000000E+00 -0.15121476691E+04  0.15121476691E+04  0.00000000000E+00 0.  1.
          6    1    1    2  502    0  0.54571058736E+01  0.20308650259E+02 -0.82003527425E+03  0.83834901580E+03  0.17300000000E+03 0.  1.
         -6    1    1    2    0  501 -0.54571058736E+01 -0.20308650259E+02 -0.67183795481E+03  0.69407309327E+03  0.17300000000E+03 0. -1.
<mgrwt>
<rscale>  2 0.17427341E+03</rscale>
<asrwt>0</asrwt>
<pdfrwt beam="2">  1        2 0.23263818E+00 0.17427341E+03</pdfrwt>
<pdfrwt beam="1">  1       -2 0.31191436E-02 0.17427341E+03</pdfrwt>
<totfact> 0.53239340E+03</totfact>
</mgrwt>
</event>
<event>
 4    1  0.8142558E-001  0.2200608E+03  0.7546771E-02  0.1133838E+00
          2   -1    0    0  502    0  0.00000000000E+00  0.00000000000E+00  0.43760951356E+04  0.43760951356E+04  0.00000000000E+00 0.  1.
         -2   -1    0    0    0  501 -0.00000000000E+00 -0.00000000000E+00 -0.12775197361E+02  0.12775197361E+02  0.00000000000E+00 0. -1.
          6    1    1    2  502    0  0.95907094237E+02  0.96434411238E+02  0.13790417927E+04  0.13964895390E+04  0.17300000000E+03 0. -1.
         -6    1    1    2    0  501 -0.95907094237E+02 -0.96434411238E+02  0.29842781455E+04  0.29923807940E+04  0.17300000000E+03 0. -1.
<mgrwt>
<rscale>  2 0.22006082E+03</rscale>
<asrwt>0</asrwt>
<pdfrwt beam="1">  1        2 0.67324421E+00 0.22006082E+03</pdfrwt>
<pdfrwt beam="2">  1       -2 0.19654185E-02 0.22006082E+03</pdfrwt>
<totfact> 0.17842241E+02</totfact>
</mgrwt>
</event>
<event>
 4    1  0.8142558E-001  0.1877901E+03  0.7546771E-02  0.1160470E+00
          3   -1    0    0  502    0  0.00000000000E+00  0.00000000000E+00  0.25249836417E+03  0.25249836417E+03  0.00000000000E+00 0.  1.
         -3   -1    0    0    0  501 -0.00000000000E+00 -0.00000000000E+00 -0.23255732201E+03  0.23255732201E+03  0.00000000000E+00 0. -1.
          6    1    1    2  502    0 -0.21460143329E+02  0.69825278892E+02 -0.14331008720E+03  0.23622634996E+03  0.17300000000E+03 0. -1.
         -6    1    1    2    0  501  0.21460143329E+02 -0.69825278892E+02  0.16325112936E+03  0.24882933622E+03  0.17300000000E+03 0.  1.
<mgrwt>
<rscale>  2 0.18779006E+03</rscale>
<asrwt>0</asrwt>
<pdfrwt beam="1">  1        3 0.38845902E-01 0.18779006E+03</pdfrwt>
<pdfrwt beam="2">  1       -3 0.35778050E-01 0.18779006E+03</pdfrwt>
<totfact> 0.12289572E+02</totfact>
</mgrwt>
</event>
<event>
 4    1  0.8142558E-001  0.1997084E+03  0.7546771E-02  0.1149985E+00
         -1   -1    0    0    0  501 -0.00000000000E+00  0.00000000000E+00  0.84858360157E+03  0.84858360157E+03  0.00000000000E+00 0. -1.
          1   -1    0    0  502    0  0.00000000000E+00 -0.00000000000E+00 -0.50244635482E+02  0.50244635482E+02  0.00000000000E+00 0.  1.
          6    1    1    2  502    0  0.83189862057E+02  0.55080888901E+02  0.28496514664E+03  0.34797786175E+03  0.17300000000E+03 0.  1.
         -6    1    1    2    0  501 -0.83189862057E+02 -0.55080888901E+02  0.51337381945E+03  0.55085037530E+03  0.17300000000E+03 0.  1.
<mgrwt>
<rscale>  2 0.19970843E+03</rscale>
<asrwt>0</asrwt>
<pdfrwt beam="2">  1        1 0.77299446E-02 0.19970843E+03</pdfrwt>
<pdfrwt beam="1">  1       -1 0.13055131E+00 0.19970843E+03</pdfrwt>
<totfact> 0.49074344E+02</totfact>
</mgrwt>
</event>
<event>
 4    1  0.8142558E-001  0.1938813E+03  0.7546771E-02  0.1155006E+00
         -3   -1    0    0    0  501 -0.00000000000E+00  0.00000000000E+00  0.86636384960E+03  0.86636384960E+03  0.00000000000E+00 0. -1.
          3   -1    0    0  502    0  0.00000000000E+00 -0.00000000000E+00 -0.45820488586E+02  0.45820488586E+02  0.00000000000E+00 0.  1.
          6    1    1    2  502    0 -0.80990416941E+01  0.87151481032E+02  0.51535398116E+03  0.55061756330E+03  0.17300000000E+03 0. -1.
         -6    1    1    2    0  501  0.80990416941E+01 -0.87151481032E+02  0.30518937986E+03  0.36156677488E+03  0.17300000000E+03 0.  1.
<mgrwt>
<rscale>  2 0.19388134E+03</rscale>
<asrwt>0</asrwt>
<pdfrwt beam="2">  1        3 0.70493066E-02 0.19388134E+03</pdfrwt>
<pdfrwt beam="1">  1       -3 0.13328673E+00 0.19388134E+03</pdfrwt>
<totfact> 0.14664173E+02</totfact>
</mgrwt>
</event>
<event>
 4    1  0.8142558E-001  0.1800899E+03  0.7546771E-02  0.1167716E+00
          2   -1    0    0  502    0  0.00000000000E+00  0.00000000000E+00  0.26530123661E+04  0.26530123661E+04  0.00000000000E+00 0.  1.
         -2   -1    0    0    0  501 -0.00000000000E+00 -0.00000000000E+00 -0.12949013673E+02  0.12949013673E+02  0.00000000000E+00 0. -1.
          6    1    1    2  502    0 -0.38738749203E+02  0.31664978649E+02  0.16352849962E+04  0.16451715353E+04  0.17300000000E+03 0.  1.
         -6    1    1    2    0  501  0.38738749203E+02 -0.31664978649E+02  0.10047783562E+04  0.10207898445E+04  0.17300000000E+03 0. -1.
<mgrwt>
<rscale>  2 0.18008987E+03</rscale>
<asrwt>0</asrwt>
<pdfrwt beam="1">  1        2 0.40815532E+00 0.18008987E+03</pdfrwt>
<pdfrwt beam="2">  1       -2 0.19921581E-02 0.18008987E+03</pdfrwt>
<totfact> 0.25875318E+03</totfact>
</mgrwt>
</event>
<event>
 4    1  0.8142558E-001  0.2208570E+03  0.7546771E-02  0.1133246E+00
         -1   -1    0    0    0  501 -0.00000000000E+00  0.00000000000E+00  0.22170490224E+02  0.22170490224E+02  0.00000000000E+00 0. -1.
          1   -1    0    0  502    0  0.00000000000E+00 -0.00000000000E+00 -0.23767300965E+04  0.23767300965E+04  0.00000000000E+00 0.  1.
          6    1    1    2  502    0  0.13694204542E+03 -0.97828866877E+01 -0.85031943767E+03  0.87853342268E+03  0.17300000000E+03 0. -1.
         -6    1    1    2    0  501 -0.13694204542E+03  0.97828866877E+01 -0.15042401686E+04  0.15203671640E+04  0.17300000000E+03 0.  1.
<mgrwt>
<rscale>  2 0.22085703E+03</rscale>
<asrwt>0</asrwt>
<pdfrwt beam="2">  1        1 0.36565077E+00 0.22085703E+03</pdfrwt>
<pdfrwt beam="1">  1       -1 0.34108448E-02 0.22085703E+03</pdfrwt>
<totfact> 0.60126020E+02</totfact>
</mgrwt>
</event>
<event>
 4    1  0.8142558E-001  0.2980919E+03  0.7546771E-02  0.1086198E+00
         -2   -1    0    0    0  501 -0.00000000000E+00  0.00000000000E+00  0.78541646736E+02  0.78541646736E+02  0.00000000000E+00 0.  1.
          2   -1    0    0  502    0  0.00000000000E+00 -0.00000000000E+00 -0.11380521632E+04  0.11380521632E+04  0.00000000000E+00 0. -1.
          6    1    1    2  502    0  0.18071643824E+03  0.16208430770E+03 -0.48310341147E+03  0.56766861815E+03  0.17300000000E+03 0. -1.
         -6    1    1    2    0  501 -0.18071643824E+03 -0.16208430770E+03 -0.57640710501E+03  0.64892519180E+03  0.17300000000E+03 0.  1.
<mgrwt>
<rscale>  2 0.29809185E+03</rscale>
<asrwt>0</asrwt>
<pdfrwt beam="2">  1        2 0.17508494E+00 0.29809185E+03</pdfrwt>
<pdfrwt beam="1">  1       -2 0.12083331E-01 0.29809185E+03</pdfrwt>
<totfact> 0.10611646E+03</totfact>
</mgrwt>
</event>
<event>
 4    1  0.8142558E-001  0.2660335E+03  0.7546771E-02  0.1103571E+00
          2   -1    0    0  502    0  0.00000000000E+00  0.00000000000E+00  0.10811681900E+04  0.10811681900E+04  0.00000000000E+00 0. -1.
         -2   -1    0    0    0  501 -0.00000000000E+00 -0.00000000000E+00 -0.65743650265E+02  0.65743650265E+02  0.00000000000E+00 0.  1.
          6    1    1    2  502    0  0.18910998174E+03  0.71289803755E+02  0.54534570051E+03  0.60677487949E+03  0.17300000000E+03 0.  1.
         -6    1    1    2    0  501 -0.18910998174E+03 -0.71289803755E+02  0.47007883922E+03  0.54013696078E+03  0.17300000000E+03 0. -1.
<mgrwt>
<rscale>  2 0.26603350E+03</rscale>
<asrwt>0</asrwt>
<pdfrwt beam="1">  1        2 0.16633355E+00 0.26603350E+03</pdfrwt>
<pdfrwt beam="2">  1       -2 0.10114409E-01 0.26603350E+03</pdfrwt>
<totfact> 0.15279085E+03</totfact>
</mgrwt>
</event>
<event>
 4    1  0.8142558E-001  0.1734184E+03  0.7546771E-02  0.1174329E+00
          1   -1    0    0  502    0  0.00000000000E+00  0.00000000000E+00  0.20593821291E+04  0.20593821291E+04  0.00000000000E+00 0.  1.
         -1   -1    0    0    0  501 -0.00000000000E+00 -0.00000000000E+00 -0.19124201933E+02  0.19124201933E+02  0.00000000000E+00 0. -1.
          6    1    1    2  502    0  0.81396054937E+00 -0.12010998916E+02  0.51484129044E+03  0.54326373059E+03  0.17300000000E+03 0. -1.
         -6    1    1    2    0  501 -0.81396054937E+00  0.12010998916E+02  0.15254166367E+04  0.15352426005E+04  0.17300000000E+03 0.  1.
<mgrwt>
<rscale>  2 0.17341836E+03</rscale>
<asrwt>0</asrwt>
<pdfrwt beam="1">  1        1 0.31682784E+00 0.17341836E+03</pdfrwt>
<pdfrwt beam="2">  1       -1 0.29421865E-02 0.17341836E+03</pdfrwt>
<totfact> 0.12082295E+03</totfact>
</mgrwt>
</event>
<event>
 4    1  0.8142558E-001  0.1884926E+03  0.7546771E-02  0.1159828E+00
          2   -1    0    0  502    0  0.00000000000E+00  0.00000000000E+00  0.27341617230E+03  0.27341617230E+03  0.00000000000E+00 0.  1.
         -2   -1    0    0    0  501 -0.00000000000E+00 -0.00000000000E+00 -0.17843598802E+03  0.17843598802E+03  0.00000000000E+00 0. -1.
          6    1    1    2  502    0 -0.21777895865E+02  0.71597412176E+02 -0.70283814238E+02  0.20116978084E+03  0.17300000000E+03 0.  1.
         -6    1    1    2    0  501  0.21777895865E+02 -0.71597412176E+02  0.16526399851E+03  0.25068237948E+03  0.17300000000E+03 0.  1.
<mgrwt>
<rscale>  2 0.18849262E+03</rscale>
<asrwt>0</asrwt>
<pdfrwt beam="1">  1        2 0.42064026E-01 0.18849262E+03</pdfrwt>
<pdfrwt beam="2">  1       -2 0.27451690E-01 0.18849262E+03</pdfrwt>
<totfact> 0.14412041E+03</totfact>
</mgrwt>
</event>
<event>
 4    1  0.8142558E-001  0.1821621E+03  0.7546771E-02  0.1165727E+00
          2   -1    0    0  502    0  0.00000000000E+00  0.00000000000E+00  0.57608587453E+03  0.57608587453E+03  0.00000000000E+00 0.  1.
         -2   -1    0    0    0  501 -0.00000000000E+00 -0.00000000000E+00 -0.60109470864E+02  0.60109470864E+02  0.00000000000E+00 0. -1.
          6    1    1    2  502    0  0.56198076579E+02  0.97879546062E+01  0.19300400088E+03  0.26539324073E+03  0.17300000000E+03 0. -1.
         -6    1    1    2    0  501 -0.56198076579E+02 -0.97879546062E+01  0.32297240278E+03  0.37080210466E+03  0.17300000000E+03 0. -1.
<mgrwt>
<rscale>  2 0.18216209E+03</rscale>
<asrwt>0</asrwt>
<pdfrwt beam="1">  1        2 0.88628592E-01 0.18216209E+03</pdfrwt>
<pdfrwt beam="2">  1       -2 0.92476113E-02 0.18216209E+03</pdfrwt>
<totfact> 0.39086496E+03</totfact>
</mgrwt>
</event>
<event>
 4    1  0.8142558E-001  0.2182320E+03  0.7546771E-02  0.1135208E+00
          2   -1    0    0  502    0  0.00000000000E+00  0.00000000000E+00  0.21084784416E+03  0.21084784416E+03  0.00000000000E+00 0.  1.
         -2   -1    0    0    0  501 -0.00000000000E+00 -0.00000000000E+00 -0.23551220082E+03  0.23551220082E+03  0.00000000000E+00 0. -1.
          6    1    1    2  502    0 -0.12680475331E+03  0.40208764431E+02 -0.57479415992E+02  0.22567470718E+03  0.17300000000E+03 0. -1.
         -6    1    1    2    0  501  0.12680475331E+03 -0.40208764431E+02  0.32815059323E+02  0.22068533780E+03  0.17300000000E+03 0.  1.
<mgrwt>
<rscale>  2 0.21823196E+03</rscale>
<asrwt>0</asrwt>
<pdfrwt beam="1">  1        2 0.32438130E-01 0.21823196E+03</pdfrwt>
<pdfrwt beam="2">  1       -2 0.36232646E-01 0.21823196E+03</pdfrwt>
<totfact> 0.11526963E+03</totfact>
</mgrwt>
</event>
<event>
 4    1  0.8142558E-001  0.2030114E+03  0.7546771E-02  0.1147223E+00
          2   -1    0    0  502    0  0.00000000000E+00  0.00000000000E+00  0.38914629799E+03  0.38914629799E+03  0.00000000000E+00 0.  1.
         -2   -1    0    0    0  501 -0.00000000000E+00 -0.00000000000E+00 -0.10691957585E+03  0.10691957585E+03  0.00000000000E+00 0. -1.
          6    1    1    2  502    0  0.10082231034E+03  0.33458708689E+02  0.11698512514E+03  0.23430566138E+03  0.17300000000E+03 0.  1.
         -6    1    1    2    0  501 -0.10082231034E+03 -0.33458708689E+02  0.16524159700E+03  0.26176021246E+03  0.17300000000E+03 0.  1.
<mgrwt>
<rscale>  2 0.20301139E+03</rscale>
<asrwt>0</asrwt>
<pdfrwt beam="1">  1        2 0.59868661E-01 0.20301139E+03</pdfrwt>
<pdfrwt beam="2">  1       -2 0.16449166E-01 0.20301139E+03</pdfrwt>
<totfact> 0.23868648E+03</totfact>
</mgrwt>
</event>
<event>
 4    1  0.8142558E-001  0.1859672E+03  0.7546771E-02  0.1162150E+00
          2   -1    0    0  502    0  0.00000000000E+00  0.00000000000E+00  0.11715252200E+03  0.11715252200E+03  0.00000000000E+00 0. -1.
         -2   -1    0    0    0  501 -0.00000000000E+00 -0.00000000000E+00 -0.31473308143E+03  0.31473308143E+03  0.00000000000E+00 0.  1.
          6    1    1    2  502    0 -0.19266988265E+02  0.65449160006E+02 -0.15258211835E+03  0.24055168306E+03  0.17300000000E+03 0.  1.
         -6    1    1    2    0  501  0.19266988265E+02 -0.65449160006E+02 -0.44998441071E+02  0.19133392036E+03  0.17300000000E+03 0. -1.
<mgrwt>
<rscale>  2 0.18596723E+03</rscale>
<asrwt>0</asrwt>
<pdfrwt beam="1">  1        2 0.18023465E-01 0.18596723E+03</pdfrwt>
<pdfrwt beam="2">  1       -2 0.48420473E-01 0.18596723E+03</pdfrwt>
<totfact> 0.12694082E+03</totfact>
</mgrwt>
</event>
<event>
 4    1  0.8142558E-001  0.1808390E+03  0.7546771E-02  0.1166994E+00
         -2   -1    0    0    0  501 -0.00000000000E+00  0.00000000000E+00  0.47308666857E+03  0.47308666857E+03  0.00000000000E+00 0.  1.
          2   -1    0    0  502    0  0.00000000000E+00 -0.00000000000E+00 -0.69176776266E+02  0.69176776266E+02  0.00000000000E+00 0. -1.
          6    1    1    2  502    0  0.30471092277E+02  0.42956302705E+02  0.19463108869E+03  0.26567648012E+03  0.17300000000E+03 0. -1.
         -6    1    1    2    0  501 -0.30471092277E+02 -0.42956302705E+02  0.20927880362E+03  0.27658696472E+03  0.17300000000E+03 0.  1.
<mgrwt>
<rscale>  2 0.18083897E+03</rscale>
<asrwt>0</asrwt>
<pdfrwt beam="2">  1        2 0.10642581E-01 0.18083897E+03</pdfrwt>
<pdfrwt beam="1">  1       -2 0.72782562E-01 0.18083897E+03</pdfrwt>
<totfact> 0.10255378E+03</totfact>
</mgrwt>
</event>
<event>
 4    1  0.8142558E-001  0.2677606E+03  0.7546771E-02  0.1102568E+00
          2   -1    0    0  502    0  0.00000000000E+00  0.00000000000E+00  0.54774375977E+03  0.54774375977E+03  0.00000000000E+00 0. -1.
         -2   -1    0    0    0  501 -0.00000000000E+00 -0.00000000000E+00 -0.14569991572E+03  0.14569991572E+03  0.00000000000E+00 0.  1.
          6    1    1    2  502    0 -0.14116023702E+03 -0.14778546316E+03  0.90490520519E+02  0.28263809004E+03  0.17300000000E+03 0. -1.
         -6    1    1    2    0  501  0.14116023702E+03  0.14778546316E+03  0.31155332354E+03  0.41080558546E+03  0.17300000000E+03 0.  1.
<mgrwt>
<rscale>  2 0.26776063E+03</rscale>
<asrwt>0</asrwt>
<pdfrwt beam="1">  1        2 0.84268270E-01 0.26776063E+03</pdfrwt>
<pdfrwt beam="2">  1       -2 0.22415372E-01 0.26776063E+03</pdfrwt>
<totfact> 0.96885939E+02</totfact>
</mgrwt>
</event>
<event>
 4    1  0.8142558E-001  0.2050715E+03  0.7546771E-02  0.1145529E+00
          2   -1    0    0  502    0  0.00000000000E+00  0.00000000000E+00  0.11654683464E+03  0.11654683464E+03  0.00000000000E+00 0. -1.
         -2   -1    0    0    0  501 -0.00000000000E+00 -0.00000000000E+00 -0.40779714392E+03  0.40779714392E+03  0.00000000000E+00 0.  1.
          6    1    1    2  502    0  0.89017554584E+01 -0.10975463170E+03 -0.23459287641E+03  0.31158969510E+03  0.17300000000E+03 0.  1.
         -6    1    1    2    0  501 -0.89017554584E+01  0.10975463170E+03 -0.56657432872E+02  0.21275428346E+03  0.17300000000E+03 0. -1.
<mgrwt>
<rscale>  2 0.20507150E+03</rscale>
<asrwt>0</asrwt>
<pdfrwt beam="1">  1        2 0.17930282E-01 0.20507150E+03</pdfrwt>
<pdfrwt beam="2">  1       -2 0.62738022E-01 0.20507150E+03</pdfrwt>
<totfact> 0.75634151E+02</totfact>
</mgrwt>
</event>
<event>
 4    1  0.8142558E-001  0.2860926E+03  0.7546771E-02  0.1092407E+00
         -2   -1    0    0    0  501 -0.00000000000E+00  0.00000000000E+00  0.69604695901E+02  0.69604695901E+02  0.00000000000E+00 0.  1.
          2   -1    0    0  502    0  0.00000000000E+00 -0.00000000000E+00 -0.13019784604E+04  0.13019784604E+04  0.00000000000E+00 0. -1.
          6    1    1    2  502    0  0.16476338751E+03  0.15739435016E+03 -0.82958523495E+03  0.87753097802E+03  0.17300000000E+03 0. -1.
         -6    1    1    2    0  501 -0.16476338751E+03 -0.15739435016E+03 -0.40278852950E+03  0.49405217824E+03  0.17300000000E+03 0.  1.
<mgrwt>
<rscale>  2 0.28609256E+03</rscale>
<asrwt>0</asrwt>
<pdfrwt beam="2">  1        2 0.20030436E+00 0.28609256E+03</pdfrwt>
<pdfrwt beam="1">  1       -2 0.10708416E-01 0.28609256E+03</pdfrwt>
<totfact> 0.10413577E+03</totfact>
</mgrwt>
</event>
<event>
 4    1  0.8142558E-001  0.2037073E+03  0.7546771E-02  0.1146648E+00
          2   -1    0    0  502    0  0.00000000000E+00  0.00000000000E+00  0.17037312907E+04  0.17037312907E+04  0.00000000000E+00 0. -1.
         -2   -1    0    0    0  501 -0.00000000000E+00 -0.00000000000E+00 -0.28839655235E+02  0.28839655235E+02  0.00000000000E+00 0.  1.
          6    1    1    2  502    0 -0.15513176614E+02 -0.10642839918E+03  0.49588698726E+03  0.53609753491E+03  0.17300000000E+03 0.  1.
         -6    1    1    2    0  501  0.15513176614E+02  0.10642839918E+03  0.11790046482E+04  0.11964734110E+04  0.17300000000E+03 0. -1.
<mgrwt>
<rscale>  2 0.20370730E+03</rscale>
<asrwt>0</asrwt>
<pdfrwt beam="1">  1        2 0.26211243E+00 0.20370730E+03</pdfrwt>
<pdfrwt beam="2">  1       -2 0.44368714E-02 0.20370730E+03</pdfrwt>
<totfact> 0.25006766E+03</totfact>
</mgrwt>
</event>
<event>
 4    1  0.8142558E-001  0.1768269E+03  0.7546771E-02  0.1170910E+00
          2   -1    0    0  502    0  0.00000000000E+00  0.00000000000E+00  0.68874765972E+03  0.68874765972E+03  0.00000000000E+00 0. -1.
         -2   -1    0    0    0  501 -0.00000000000E+00 -0.00000000000E+00 -0.49388926388E+02  0.49388926388E+02  0.00000000000E+00 0.  1.
          6    1    1    2  502    0 -0.36466159618E+02  0.29953712896E+01  0.42459249705E+03  0.45994188937E+03  0.17300000000E+03 0. -1.
         -6    1    1    2    0  501  0.36466159618E+02 -0.29953712896E+01  0.21476623629E+03  0.27819469674E+03  0.17300000000E+03 0.  1.
<mgrwt>
<rscale>  2 0.17682690E+03</rscale>
<asrwt>0</asrwt>
<pdfrwt beam="1">  1        2 0.10596117E+00 0.17682690E+03</pdfrwt>
<pdfrwt beam="2">  1       -2 0.75982968E-02 0.17682690E+03</pdfrwt>
<totfact> 0.43075424E+03</totfact>
</mgrwt>
</event>
<event>
 4    1  0.8142558E-001  0.2434761E+03  0.7546771E-02  0.1117499E+00
         -1   -1    0    0    0  501 -0.00000000000E+00  0.00000000000E+00  0.24944142145E+03  0.24944142145E+03  0.00000000000E+00 0. -1.
          1   -1    0    0  502    0  0.00000000000E+00 -0.00000000000E+00 -0.25345024095E+03  0.25345024095E+03  0.00000000000E+00 0.  1.
          6    1    1    2  502    0  0.68448489828E+02  0.15705537831E+03 -0.64779015787E+02  0.25194624129E+03  0.17300000000E+03 0.  1.
         -6    1    1    2    0  501 -0.68448489828E+02 -0.15705537831E+03  0.60770196288E+02  0.25094542110E+03  0.17300000000E+03 0. -1.
<mgrwt>
<rscale>  2 0.24347605E+03</rscale>
<asrwt>0</asrwt>
<pdfrwt beam="2">  1        1 0.38992345E-01 0.24347605E+03</pdfrwt>
<pdfrwt beam="1">  1       -1 0.38375603E-01 0.24347605E+03</pdfrwt>
<totfact> 0.72331861E+02</totfact>
</mgrwt>
</event>
<event>
 4    1  0.8142558E-001  0.2265006E+03  0.7546771E-02  0.1129127E+00
         -2   -1    0    0    0  501 -0.00000000000E+00  0.00000000000E+00  0.36653930123E+02  0.36653930123E+02  0.00000000000E+00 0.  1.
          2   -1    0    0  502    0  0.00000000000E+00 -0.00000000000E+00 -0.14014150278E+04  0.14014150278E+04  0.00000000000E+00 0. -1.
          6    1    1    2  502    0 -0.95294467833E+02  0.11087148661E+03 -0.65683302262E+03  0.69478927866E+03  0.17300000000E+03 0.  1.
         -6    1    1    2    0  501  0.95294467833E+02 -0.11087148661E+03 -0.70792807503E+03  0.74327967923E+03  0.17300000000E+03 0.  1.
<mgrwt>
<rscale>  2 0.22650060E+03</rscale>
<asrwt>0</asrwt>
<pdfrwt beam="2">  1        2 0.21560230E+00 0.22650060E+03</pdfrwt>
<pdfrwt beam="1">  1       -2 0.56390664E-02 0.22650060E+03</pdfrwt>
<totfact> 0.25111589E+03</totfact>
</mgrwt>
</event>
<event>
 4    1  0.8142558E-001  0.1772284E+03  0.7546771E-02  0.1170513E+00
         -1   -1    0    0    0  501 -0.00000000000E+00  0.00000000000E+00  0.13973088041E+04  0.13973088041E+04  0.00000000000E+00 0. -1.
          1   -1    0    0  502    0  0.00000000000E+00 -0.00000000000E+00 -0.24969218979E+02  0.24969218979E+02  0.00000000000E+00 0.  1.
          6    1    1    2  502    0 -0.38168089972E+02  0.49101068286E+01  0.46158373139E+03  0.49443852330E+03  0.17300000000E+03 0.  1.
         -6    1    1    2    0  501  0.38168089972E+02 -0.49101068286E+01  0.91075585371E+03  0.92783949976E+03  0.17300000000E+03 0. -1.
<mgrwt>
<rscale>  2 0.17722842E+03</rscale>
<asrwt>0</asrwt>
<pdfrwt beam="2">  1        1 0.38414194E-02 0.17722842E+03</pdfrwt>
<pdfrwt beam="1">  1       -1 0.21497052E+00 0.17722842E+03</pdfrwt>
<totfact> 0.32050487E+02</totfact>
</mgrwt>
</event>
<event>
 4    1  0.8142558E-001  0.1833835E+03  0.7546771E-02  0.1164568E+00
         -2   -1    0    0    0  501 -0.00000000000E+00  0.00000000000E+00  0.91860358550E+02  0.91860358550E+02  0.00000000000E+00 0.  1.
          2   -1    0    0  502    0  0.00000000000E+00 -0.00000000000E+00 -0.47598317016E+03  0.47598317016E+03  0.00000000000E+00 0. -1.
          6    1    1    2  502    0 -0.58892815410E+02 -0.15236740709E+02 -0.55640659120E+02  0.19163873544E+03  0.17300000000E+03 0.  1.
         -6    1    1    2    0  501  0.58892815410E+02  0.15236740709E+02 -0.32848215249E+03  0.37620479327E+03  0.17300000000E+03 0. -1.
<mgrwt>
<rscale>  2 0.18338354E+03</rscale>
<asrwt>0</asrwt>
<pdfrwt beam="2">  1        2 0.73228179E-01 0.18338354E+03</pdfrwt>
<pdfrwt beam="1">  1       -2 0.14132363E-01 0.18338354E+03</pdfrwt>
<totfact> 0.24542780E+03</totfact>
</mgrwt>
</event>
<event>
 4    1  0.8142558E-001  0.2636441E+03  0.7546771E-02  0.1104973E+00
          3   -1    0    0  502    0  0.00000000000E+00  0.00000000000E+00  0.10651983671E+04  0.10651983671E+04  0.00000000000E+00 0. -1.
         -3   -1    0    0    0  501 -0.00000000000E+00 -0.00000000000E+00 -0.20348501203E+03  0.20348501203E+03  0.00000000000E+00 0.  1.
          6    1    1    2  502    0  0.10683863351E+03 -0.16782353974E+03 -0.91972853598E+02  0.27922614473E+03  0.17300000000E+03 0.  1.
         -6    1    1    2    0  501 -0.10683863351E+03  0.16782353974E+03  0.95368620871E+03  0.98945723444E+03  0.17300000000E+03 0. -1.
<mgrwt>
<rscale>  2 0.26364414E+03</rscale>
<asrwt>0</asrwt>
<pdfrwt beam="1">  1        3 0.16387667E+00 0.26364414E+03</pdfrwt>
<pdfrwt beam="2">  1       -3 0.31305387E-01 0.26364414E+03</pdfrwt>
<totfact> 0.66928514E+00</totfact>
</mgrwt>
</event>
<event>
 4    1  0.8142558E-001  0.2689332E+03  0.7546771E-02  0.1101892E+00
         -2   -1    0    0    0  501 -0.00000000000E+00  0.00000000000E+00  0.74137740933E+02  0.74137740933E+02  0.00000000000E+00 0.  1.
          2   -1    0    0  502    0  0.00000000000E+00 -0.00000000000E+00 -0.10292809775E+04  0.10292809775E+04  0.00000000000E+00 0. -1.
          6    1    1    2  502    0 -0.57941663455E+02  0.19758250733E+03 -0.35151803903E+03  0.44259463998E+03  0.17300000000E+03 0.  1.
         -6    1    1    2    0  501  0.57941663455E+02 -0.19758250733E+03 -0.60362519750E+03  0.66082407843E+03  0.17300000000E+03 0. -1.
<mgrwt>
<rscale>  2 0.26893323E+03</rscale>
<asrwt>0</asrwt>
<pdfrwt beam="2">  1        2 0.15835091E+00 0.26893323E+03</pdfrwt>
<pdfrwt beam="1">  1       -2 0.11405807E-01 0.26893323E+03</pdfrwt>
<totfact> 0.13533665E+03</totfact>
</mgrwt>
</event>
<event>
 4    1  0.8142558E-001  0.2048231E+03  0.7546771E-02  0.1145732E+00
          1   -1    0    0  502    0  0.00000000000E+00  0.00000000000E+00  0.98955148960E+03  0.98955148960E+03  0.00000000000E+00 0.  1.
         -1   -1    0    0    0  501 -0.00000000000E+00 -0.00000000000E+00 -0.51745418008E+02  0.51745418008E+02  0.00000000000E+00 0. -1.
          6    1    1    2  502    0 -0.15674877469E+02  0.10852555835E+03  0.24758679972E+03  0.32132805977E+03  0.17300000000E+03 0. -1.
         -6    1    1    2    0  501  0.15674877469E+02 -0.10852555835E+03  0.69021927187E+03  0.71996884784E+03  0.17300000000E+03 0.  1.
<mgrwt>
<rscale>  2 0.20482309E+03</rscale>
<asrwt>0</asrwt>
<pdfrwt beam="1">  1        1 0.15223868E+00 0.20482309E+03</pdfrwt>
<pdfrwt beam="2">  1       -1 0.79608343E-02 0.20482309E+03</pdfrwt>
<totfact> 0.14130805E+03</totfact>
</mgrwt>
</event>
<event>
 4    1  0.8142558E-001  0.1952050E+03  0.7546771E-02  0.1153849E+00
          4   -1    0    0  502    0  0.00000000000E+00  0.00000000000E+00  0.35855529883E+02  0.35855529883E+02  0.00000000000E+00 0.  1.
         -4   -1    0    0    0  501 -0.00000000000E+00 -0.00000000000E+00 -0.12332646656E+04  0.12332646656E+04  0.00000000000E+00 0. -1.
          6    1    1    2  502    0 -0.40330354964E+02  0.80928666433E+02 -0.83466677694E+03  0.85718936946E+03  0.17300000000E+03 0. -1.
         -6    1    1    2    0  501  0.40330354964E+02 -0.80928666433E+02 -0.36274235880E+03  0.41193082605E+03  0.17300000000E+03 0.  1.
<mgrwt>
<rscale>  2 0.19520499E+03</rscale>
<asrwt>0</asrwt>
<pdfrwt beam="1">  1        4 0.55162361E-02 0.19520499E+03</pdfrwt>
<pdfrwt beam="2">  1       -4 0.18973300E+00 0.19520499E+03</pdfrwt>
<totfact> 0.60966014E+01</totfact>
</mgrwt>
</event>
<event>
 4    1  0.8142558E-001  0.1949390E+03  0.7546771E-02  0.1154081E+00
          3   -1    0    0  502    0  0.00000000000E+00  0.00000000000E+00  0.27524500331E+03  0.27524500331E+03  0.00000000000E+00 0.  1.
         -3   -1    0    0    0  501 -0.00000000000E+00 -0.00000000000E+00 -0.15499391791E+03  0.15499391791E+03  0.00000000000E+00 0. -1.
          6    1    1    2  502    0  0.87529551783E+02  0.20267843209E+02 -0.10972880218E+02  0.19524756594E+03  0.17300000000E+03 0. -1.
         -6    1    1    2    0  501 -0.87529551783E+02 -0.20267843209E+02  0.13122396562E+03  0.23499135528E+03  0.17300000000E+03 0.  1.
<mgrwt>
<rscale>  2 0.19493899E+03</rscale>
<asrwt>0</asrwt>
<pdfrwt beam="1">  1        3 0.42345385E-01 0.19493899E+03</pdfrwt>
<pdfrwt beam="2">  1       -3 0.23845218E-01 0.19493899E+03</pdfrwt>
<totfact> 0.22164374E+02</totfact>
</mgrwt>
</event>
<event>
 4    1  0.8142558E-001  0.2440167E+03  0.7546771E-02  0.1117146E+00
         -2   -1    0    0    0  501 -0.00000000000E+00  0.00000000000E+00  0.20353361796E+02  0.20353361796E+02  0.00000000000E+00 0. -1.
          2   -1    0    0  502    0  0.00000000000E+00 -0.00000000000E+00 -0.29684087960E+04  0.29684087960E+04  0.00000000000E+00 0.  1.
          6    1    1    2  502    0 -0.15585741885E+03  0.72963052732E+02 -0.16536572054E+04  0.16715640266E+04  0.17300000000E+03 0. -1.
         -6    1    1    2    0  501  0.15585741885E+03 -0.72963052732E+02 -0.12943982287E+04  0.13171981311E+04  0.17300000000E+03 0.  1.
<mgrwt>
<rscale>  2 0.24401668E+03</rscale>
<asrwt>0</asrwt>
<pdfrwt beam="2">  1        2 0.45667819E+00 0.24401668E+03</pdfrwt>
<pdfrwt beam="1">  1       -2 0.31312870E-02 0.24401668E+03</pdfrwt>
<totfact> 0.86858074E+02</totfact>
</mgrwt>
</event>
<event>
 4    1  0.8142558E-001  0.1789377E+03  0.7546771E-02  0.1168835E+00
          2   -1    0    0  502    0  0.00000000000E+00  0.00000000000E+00  0.38884329941E+03  0.38884329941E+03  0.00000000000E+00 0. -1.
         -2   -1    0    0    0  501 -0.00000000000E+00 -0.00000000000E+00 -0.88402962362E+02  0.88402962362E+02  0.00000000000E+00 0.  1.
          6    1    1    2  502    0  0.35038846523E+02 -0.29359645316E+02  0.21269383247E+03  0.27795211082E+03  0.17300000000E+03 0. -1.
         -6    1    1    2    0  501 -0.35038846523E+02  0.29359645316E+02  0.87746504581E+02  0.19929415096E+03  0.17300000000E+03 0.  1.
<mgrwt>
<rscale>  2 0.17893773E+03</rscale>
<asrwt>0</asrwt>
<pdfrwt beam="1">  1        2 0.59822045E-01 0.17893773E+03</pdfrwt>
<pdfrwt beam="2">  1       -2 0.13600456E-01 0.17893773E+03</pdfrwt>
<totfact> 0.32528647E+03</totfact>
</mgrwt>
</event>
<event>
 4    1  0.8142558E-001  0.1854281E+03  0.7546771E-02  0.1162651E+00
         -3   -1    0    0    0  501 -0.00000000000E+00  0.00000000000E+00  0.60143573807E+03  0.60143573807E+03  0.00000000000E+00 0. -1.
          3   -1    0    0  502    0  0.00000000000E+00 -0.00000000000E+00 -0.67343796129E+02  0.67343796129E+02  0.00000000000E+00 0.  1.
          6    1    1    2  502    0  0.53648186245E+02 -0.39704693774E+02  0.39702195235E+03  0.43818948098E+03  0.17300000000E+03 0. -1.
         -6    1    1    2    0  501 -0.53648186245E+02  0.39704693774E+02  0.13706998959E+03  0.23059005321E+03  0.17300000000E+03 0.  1.
<mgrwt>
<rscale>  2 0.18542813E+03</rscale>
<asrwt>0</asrwt>
<pdfrwt beam="2">  1        3 0.10360584E-01 0.18542813E+03</pdfrwt>
<pdfrwt beam="1">  1       -3 0.92528572E-01 0.18542813E+03</pdfrwt>
<totfact> 0.18190241E+02</totfact>
</mgrwt>
</event>
<event>
 4    1  0.8142558E-001  0.2318970E+03  0.7546771E-02  0.1125312E+00
          1   -1    0    0  502    0  0.00000000000E+00  0.00000000000E+00  0.36283552828E+03  0.36283552828E+03  0.00000000000E+00 0.  1.
         -1   -1    0    0    0  501 -0.00000000000E+00 -0.00000000000E+00 -0.35236941199E+03  0.35236941199E+03  0.00000000000E+00 0. -1.
          6    1    1    2  502    0  0.74455914251E+02  0.13529049681E+03  0.27743115977E+03  0.36158574378E+03  0.17300000000E+03 0.  1.
         -6    1    1    2    0  501 -0.74455914251E+02 -0.13529049681E+03 -0.26696504348E+03  0.35361919650E+03  0.17300000000E+03 0. -1.
<mgrwt>
<rscale>  2 0.23189696E+03</rscale>
<asrwt>0</asrwt>
<pdfrwt beam="1">  1        1 0.55820850E-01 0.23189696E+03</pdfrwt>
<pdfrwt beam="2">  1       -1 0.54210679E-01 0.23189696E+03</pdfrwt>
<totfact> 0.24550439E+02</totfact>
</mgrwt>
</event>
<event>
 4    1  0.8142558E-001  0.2254525E+03  0.7546771E-02  0.1129882E+00
         -2   -1    0    0    0  501 -0.00000000000E+00  0.00000000000E+00  0.98818503066E+02  0.98818503066E+02  0.00000000000E+00 0. -1.
          2   -1    0    0  502    0  0.00000000000E+00 -0.00000000000E+00 -0.60776666676E+03  0.60776666676E+03  0.00000000000E+00 0.  1.
          6    1    1    2  502    0  0.14011038644E+03  0.35621521550E+02 -0.39297179432E+03  0.45305148087E+03  0.17300000000E+03 0.  1.
         -6    1    1    2    0  501 -0.14011038644E+03 -0.35621521550E+02 -0.11597636938E+03  0.25353368896E+03  0.17300000000E+03 0. -1.
<mgrwt>
<rscale>  2 0.22545246E+03</rscale>
<asrwt>0</asrwt>
<pdfrwt beam="2">  1        2 0.93502565E-01 0.22545246E+03</pdfrwt>
<pdfrwt beam="1">  1       -2 0.15202846E-01 0.22545246E+03</pdfrwt>
<totfact> 0.16587061E+03</totfact>
</mgrwt>
</event>
<event>
 4    1  0.8142558E-001  0.1789072E+03  0.7546771E-02  0.1168865E+00
          1   -1    0    0  502    0  0.00000000000E+00  0.00000000000E+00  0.11032054085E+04  0.11032054085E+04  0.00000000000E+00 0.  1.
         -1   -1    0    0    0  501 -0.00000000000E+00 -0.00000000000E+00 -0.35971940753E+02  0.35971940753E+02  0.00000000000E+00 0. -1.
          6    1    1    2  502    0 -0.44523034703E+02  0.98236124715E+01  0.78413343420E+03  0.80428418274E+03  0.17300000000E+03 0.  1.
         -6    1    1    2    0  501  0.44523034703E+02 -0.98236124715E+01  0.28310003356E+03  0.33489316652E+03  0.17300000000E+03 0. -1.
<mgrwt>
<rscale>  2 0.17890725E+03</rscale>
<asrwt>0</asrwt>
<pdfrwt beam="1">  1        1 0.16972388E+00 0.17890725E+03</pdfrwt>
<pdfrwt beam="2">  1       -1 0.55341456E-02 0.17890725E+03</pdfrwt>
<totfact> 0.20199874E+03</totfact>
</mgrwt>
</event>
<event>
 4    1  0.8142558E-001  0.2835671E+03  0.7546771E-02  0.1093756E+00
         -1   -1    0    0    0  501 -0.00000000000E+00  0.00000000000E+00  0.44170961053E+02  0.44170961053E+02  0.00000000000E+00 0. -1.
          1   -1    0    0  502    0  0.00000000000E+00 -0.00000000000E+00 -0.18453342941E+04  0.18453342941E+04  0.00000000000E+00 0.  1.
          6    1    1    2  502    0 -0.17808733486E+02 -0.22397359547E+03 -0.79083730902E+03  0.84013925738E+03  0.17300000000E+03 0. -1.
         -6    1    1    2    0  501  0.17808733486E+02  0.22397359547E+03 -0.10103260240E+04  0.10493659978E+04  0.17300000000E+03 0.  1.
<mgrwt>
<rscale>  2 0.28356714E+03</rscale>
<asrwt>0</asrwt>
<pdfrwt beam="2">  1        1 0.28389763E+00 0.28356714E+03</pdfrwt>
<pdfrwt beam="1">  1       -1 0.67955314E-02 0.28356714E+03</pdfrwt>
<totfact> 0.46940864E+02</totfact>
</mgrwt>
</event>
<event>
 4    1  0.8142558E-001  0.2078231E+03  0.7546771E-02  0.1143302E+00
         -1   -1    0    0    0  501 -0.00000000000E+00  0.00000000000E+00  0.59000651233E+02  0.59000651233E+02  0.00000000000E+00 0.  1.
          1   -1    0    0  502    0  0.00000000000E+00 -0.00000000000E+00 -0.99179017171E+03  0.99179017171E+03  0.00000000000E+00 0. -1.
          6    1    1    2  502    0 -0.10695331453E+03 -0.42689945295E+02 -0.19751390741E+03  0.28670923693E+03  0.17300000000E+03 0.  1.
         -6    1    1    2    0  501  0.10695331453E+03  0.42689945295E+02 -0.73527561307E+03  0.76408158602E+03  0.17300000000E+03 0. -1.
<mgrwt>
<rscale>  2 0.20782310E+03</rscale>
<asrwt>0</asrwt>
<pdfrwt beam="2">  1        1 0.15258310E+00 0.20782310E+03</pdfrwt>
<pdfrwt beam="1">  1       -1 0.90770237E-02 0.20782310E+03</pdfrwt>
<totfact> 0.11517927E+03</totfact>
</mgrwt>
</event>
<event>
 4    1  0.8142558E-001  0.2622374E+03  0.7546771E-02  0.1105806E+00
         -1   -1    0    0    0  501 -0.00000000000E+00  0.00000000000E+00  0.29199027770E+03  0.29199027770E+03  0.00000000000E+00 0.  1.
          1   -1    0    0  502    0  0.00000000000E+00 -0.00000000000E+00 -0.28731388867E+03  0.28731388867E+03  0.00000000000E+00 0. -1.
          6    1    1    2  502    0  0.17613434292E+03  0.88408878230E+02 -0.12064721627E+03  0.28865929277E+03  0.17300000000E+03 0. -1.
         -6    1    1    2    0  501 -0.17613434292E+03 -0.88408878230E+02  0.12532360530E+03  0.29064487360E+03  0.17300000000E+03 0.  1.
<mgrwt>
<rscale>  2 0.26223737E+03</rscale>
<asrwt>0</asrwt>
<pdfrwt beam="2">  1        1 0.44202137E-01 0.26223737E+03</pdfrwt>
<pdfrwt beam="1">  1       -1 0.44921581E-01 0.26223737E+03</pdfrwt>
<totfact> 0.46577210E+02</totfact>
</mgrwt>
</event>
<event>
 4    1  0.8142558E-001  0.1790169E+03  0.7546771E-02  0.1168758E+00
          2   -1    0    0  502    0  0.00000000000E+00  0.00000000000E+00  0.10501004765E+04  0.10501004765E+04  0.00000000000E+00 0. -1.
         -2   -1    0    0    0  501 -0.00000000000E+00 -0.00000000000E+00 -0.34533075739E+02  0.34533075739E+02  0.00000000000E+00 0.  1.
          6    1    1    2  502    0 -0.20564226566E+02  0.41172312609E+02  0.69270125377E+03  0.71545934456E+03  0.17300000000E+03 0. -1.
         -6    1    1    2    0  501  0.20564226566E+02 -0.41172312609E+02  0.32286614694E+03  0.36917420763E+03  0.17300000000E+03 0. -1.
<mgrwt>
<rscale>  2 0.17901689E+03</rscale>
<asrwt>0</asrwt>
<pdfrwt beam="1">  1        2 0.16155389E+00 0.17901689E+03</pdfrwt>
<pdfrwt beam="2">  1       -2 0.53127817E-02 0.17901689E+03</pdfrwt>
<totfact> 0.43143967E+03</totfact>
</mgrwt>
</event>
<event>
 4    1  0.8142558E-001  0.1819088E+03  0.7546771E-02  0.1165968E+00
          1   -1    0    0  502    0  0.00000000000E+00  0.00000000000E+00  0.31600179807E+03  0.31600179807E+03  0.00000000000E+00 0.  1.
         -1   -1    0    0    0  501 -0.00000000000E+00 -0.00000000000E+00 -0.10614758795E+03  0.10614758795E+03  0.00000000000E+00 0. -1.
          6    1    1    2  502    0 -0.68448344958E+01  0.55811968478E+02  0.80424850031E+02  0.19889440436E+03  0.17300000000E+03 0. -1.
         -6    1    1    2    0  501  0.68448344958E+01 -0.55811968478E+02  0.12942936009E+03  0.22325498166E+03  0.17300000000E+03 0. -1.
<mgrwt>
<rscale>  2 0.18190884E+03</rscale>
<asrwt>0</asrwt>
<pdfrwt beam="1">  1        1 0.48615661E-01 0.18190884E+03</pdfrwt>
<pdfrwt beam="2">  1       -1 0.16330398E-01 0.18190884E+03</pdfrwt>
<totfact> 0.22664673E+03</totfact>
</mgrwt>
</event>
<event>
 4    1  0.8142558E-001  0.1767571E+03  0.7546771E-02  0.1170979E+00
         -2   -1    0    0    0  501 -0.00000000000E+00  0.00000000000E+00  0.64367405533E+02  0.64367405533E+02  0.00000000000E+00 0.  1.
          2   -1    0    0  502    0  0.00000000000E+00 -0.00000000000E+00 -0.49845115732E+03  0.49845115732E+03  0.00000000000E+00 0. -1.
          6    1    1    2  502    0 -0.32304393599E+02 -0.16447027930E+02 -0.26260083878E+03  0.31654743578E+03  0.17300000000E+03 0. -1.
         -6    1    1    2    0  501  0.32304393599E+02  0.16447027930E+02 -0.17148291300E+03  0.24627112706E+03  0.17300000000E+03 0.  1.
<mgrwt>
<rscale>  2 0.17675712E+03</rscale>
<asrwt>0</asrwt>
<pdfrwt beam="2">  1        2 0.76684794E-01 0.17675712E+03</pdfrwt>
<pdfrwt beam="1">  1       -2 0.99026777E-02 0.17675712E+03</pdfrwt>
<totfact> 0.41235699E+03</totfact>
</mgrwt>
</event>
<event>
 4    1  0.8142558E-001  0.1800625E+03  0.7546771E-02  0.1167743E+00
          2   -1    0    0  502    0  0.00000000000E+00  0.00000000000E+00  0.18540487039E+03  0.18540487039E+03  0.00000000000E+00 0. -1.
         -2   -1    0    0    0  501 -0.00000000000E+00 -0.00000000000E+00 -0.20050318211E+03  0.20050318211E+03  0.00000000000E+00 0.  1.
          6    1    1    2  502    0 -0.26900745203E+02  0.42069585113E+02 -0.76535031734E+02  0.19565303771E+03  0.17300000000E+03 0.  1.
         -6    1    1    2    0  501  0.26900745203E+02 -0.42069585113E+02  0.61436720010E+02  0.19025501478E+03  0.17300000000E+03 0. -1.
<mgrwt>
<rscale>  2 0.18006249E+03</rscale>
<asrwt>0</asrwt>
<pdfrwt beam="1">  1        2 0.28523826E-01 0.18006249E+03</pdfrwt>
<pdfrwt beam="2">  1       -2 0.30846643E-01 0.18006249E+03</pdfrwt>
<totfact> 0.17765757E+03</totfact>
</mgrwt>
</event>
<event>
 4    1  0.8142558E-001  0.1884966E+03  0.7546771E-02  0.1159824E+00
          1   -1    0    0  502    0  0.00000000000E+00  0.00000000000E+00  0.55250804365E+03  0.55250804365E+03  0.00000000000E+00 0. -1.
         -1   -1    0    0    0  501 -0.00000000000E+00 -0.00000000000E+00 -0.86789796196E+02  0.86789796196E+02  0.00000000000E+00 0.  1.
          6    1    1    2  502    0  0.57737889788E+02 -0.47626547342E+02  0.39554497478E+03  0.43816295941E+03  0.17300000000E+03 0. -1.
         -6    1    1    2    0  501 -0.57737889788E+02  0.47626547342E+02  0.70173272674E+02  0.20113488043E+03  0.17300000000E+03 0.  1.
<mgrwt>
<rscale>  2 0.18849656E+03</rscale>
<asrwt>0</asrwt>
<pdfrwt beam="1">  1        1 0.85001235E-01 0.18849656E+03</pdfrwt>
<pdfrwt beam="2">  1       -1 0.13352277E-01 0.18849656E+03</pdfrwt>
<totfact> 0.15181627E+03</totfact>
</mgrwt>
</event>
<event>
 4    1  0.8142558E-001  0.1777195E+03  0.7546771E-02  0.1170029E+00
         -2   -1    0    0    0  501 -0.00000000000E+00  0.00000000000E+00  0.18117649029E+02  0.18117649029E+02  0.00000000000E+00 0. -1.
          2   -1    0    0  502    0  0.00000000000E+00 -0.00000000000E+00 -0.18620050048E+04  0.18620050048E+04  0.00000000000E+00 0.  1.
          6    1    1    2  502    0  0.14139737714E+02 -0.38148390573E+02 -0.68457298272E+03  0.70726543854E+03  0.17300000000E+03 0. -1.
         -6    1    1    2    0  501 -0.14139737714E+02  0.38148390573E+02 -0.11593143730E+04  0.11728572153E+04  0.17300000000E+03 0.  1.
<mgrwt>
<rscale>  2 0.17771953E+03</rscale>
<asrwt>0</asrwt>
<pdfrwt beam="2">  1        2 0.28646234E+00 0.17771953E+03</pdfrwt>
<pdfrwt beam="1">  1       -2 0.27873303E-02 0.17771953E+03</pdfrwt>
<totfact> 0.41387879E+03</totfact>
</mgrwt>
</event>
<event>
 4    1  0.8142558E-001  0.2141346E+03  0.7546771E-02  0.1138333E+00
          1   -1    0    0  502    0  0.00000000000E+00  0.00000000000E+00  0.19074795823E+03  0.19074795823E+03  0.00000000000E+00 0.  1.
         -1   -1    0    0    0  501 -0.00000000000E+00 -0.00000000000E+00 -0.49798253799E+03  0.49798253799E+03  0.00000000000E+00 0. -1.
          6    1    1    2  502    0 -0.61819002334E+02  0.11001388700E+03 -0.40129107240E+03  0.45484961160E+03  0.17300000000E+03 0. -1.
         -6    1    1    2    0  501  0.61819002334E+02 -0.11001388700E+03  0.94056492640E+02  0.23388088462E+03  0.17300000000E+03 0.  1.
<mgrwt>
<rscale>  2 0.21413464E+03</rscale>
<asrwt>0</asrwt>
<pdfrwt beam="1">  1        1 0.29345840E-01 0.21413464E+03</pdfrwt>
<pdfrwt beam="2">  1       -1 0.76612697E-01 0.21413464E+03</pdfrwt>
<totfact> 0.28066656E+02</totfact>
</mgrwt>
</event>
<event>
 4    1  0.8142558E-001  0.1800761E+03  0.7546771E-02  0.1167729E+00
          2   -1    0    0  502    0  0.00000000000E+00  0.00000000000E+00  0.64102199465E+03  0.64102199465E+03  0.00000000000E+00 0.  1.
         -2   -1    0    0    0  501 -0.00000000000E+00 -0.00000000000E+00 -0.85565212334E+02  0.85565212334E+02  0.00000000000E+00 0. -1.
          6    1    1    2  502    0 -0.49865818252E+02  0.34365698227E+01  0.45450621354E+02  0.18572336639E+03  0.17300000000E+03 0. -1.
         -6    1    1    2    0  501  0.49865818252E+02 -0.34365698227E+01  0.51000616096E+03  0.54086384059E+03  0.17300000000E+03 0.  1.
<mgrwt>
<rscale>  2 0.18007612E+03</rscale>
<asrwt>0</asrwt>
<pdfrwt beam="1">  1        2 0.98618765E-01 0.18007612E+03</pdfrwt>
<pdfrwt beam="2">  1       -2 0.13163879E-01 0.18007612E+03</pdfrwt>
<totfact> 0.19659635E+03</totfact>
</mgrwt>
</event>
<event>
 4    1  0.8142558E-001  0.2628101E+03  0.7546771E-02  0.1105467E+00
         -3   -1    0    0    0  501 -0.00000000000E+00  0.00000000000E+00  0.25467700390E+03  0.25467700390E+03  0.00000000000E+00 0. -1.
          3   -1    0    0  502    0  0.00000000000E+00 -0.00000000000E+00 -0.36899890303E+03  0.36899890303E+03  0.00000000000E+00 0.  1.
          6    1    1    2  502    0 -0.73262531929E+02  0.18377370334E+03 -0.21769853250E+03  0.34126503436E+03  0.17300000000E+03 0.  1.
         -6    1    1    2    0  501  0.73262531929E+02 -0.18377370334E+03  0.10337663337E+03  0.28241087258E+03  0.17300000000E+03 0. -1.
<mgrwt>
<rscale>  2 0.26281015E+03</rscale>
<asrwt>0</asrwt>
<pdfrwt beam="2">  1        3 0.56769062E-01 0.26281015E+03</pdfrwt>
<pdfrwt beam="1">  1       -3 0.39181078E-01 0.26281015E+03</pdfrwt>
<totfact> 0.49694834E+01</totfact>
</mgrwt>
</event>
<event>
 4    1  0.8142558E-001  0.1738494E+03  0.7546771E-02  0.1173892E+00
         -2   -1    0    0    0  501 -0.00000000000E+00  0.00000000000E+00  0.56178951448E+02  0.56178951448E+02  0.00000000000E+00 0.  1.
          2   -1    0    0  502    0  0.00000000000E+00 -0.00000000000E+00 -0.11144261406E+04  0.11144261406E+04  0.00000000000E+00 0. -1.
          6    1    1    2  502    0 -0.16747953423E+02  0.37570288707E+01 -0.95007413574E+03  0.96584909412E+03  0.17300000000E+03 0. -1.
         -6    1    1    2    0  501  0.16747953423E+02 -0.37570288707E+01 -0.10817305345E+03  0.20475599796E+03  0.17300000000E+03 0.  1.
<mgrwt>
<rscale>  2 0.17384939E+03</rscale>
<asrwt>0</asrwt>
<pdfrwt beam="2">  1        2 0.17145016E+00 0.17384939E+03</pdfrwt>
<pdfrwt beam="1">  1       -2 0.86429164E-02 0.17384939E+03</pdfrwt>
<totfact> 0.18714895E+03</totfact>
</mgrwt>
</event>
<event>
 4    1  0.8142558E-001  0.1966555E+03  0.7546771E-02  0.1152592E+00
          2   -1    0    0  502    0  0.00000000000E+00  0.00000000000E+00  0.30848049789E+02  0.30848049789E+02  0.00000000000E+00 0.  1.
         -2   -1    0    0    0  501 -0.00000000000E+00 -0.00000000000E+00 -0.14323386801E+04  0.14323386801E+04  0.00000000000E+00 0. -1.
          6    1    1    2  502    0 -0.76758586046E+02 -0.53408750924E+02 -0.95913022592E+03  0.97908332919E+03  0.17300000000E+03 0. -1.
         -6    1    1    2    0  501  0.76758586046E+02  0.53408750924E+02 -0.44236040443E+03  0.48410340074E+03  0.17300000000E+03 0.  1.
<mgrwt>
<rscale>  2 0.19665547E+03</rscale>
<asrwt>0</asrwt>
<pdfrwt beam="1">  1        2 0.47458535E-02 0.19665547E+03</pdfrwt>
<pdfrwt beam="2">  1       -2 0.22035981E+00 0.19665547E+03</pdfrwt>
<totfact> 0.18144121E+02</totfact>
</mgrwt>
</event>
<event>
 4    1  0.8142558E-001  0.2627847E+03  0.7546771E-02  0.1105482E+00
         -4   -1    0    0    0  501 -0.00000000000E+00  0.00000000000E+00  0.58671509603E+03  0.58671509603E+03  0.00000000000E+00 0. -1.
          4   -1    0    0  502    0  0.00000000000E+00 -0.00000000000E+00 -0.22346013195E+03  0.22346013195E+03  0.00000000000E+00 0.  1.
          6    1    1    2  502    0 -0.19207753750E+03  0.47254747241E+02  0.46031142338E+03  0.53003999664E+03  0.17300000000E+03 0. -1.
         -6    1    1    2    0  501  0.19207753750E+03 -0.47254747241E+02 -0.97056459301E+02  0.28013523134E+03  0.17300000000E+03 0.  1.
<mgrwt>
<rscale>  2 0.26278469E+03</rscale>
<asrwt>0</asrwt>
<pdfrwt beam="2">  1        4 0.34378482E-01 0.26278469E+03</pdfrwt>
<pdfrwt beam="1">  1       -4 0.90263860E-01 0.26278469E+03</pdfrwt>
<totfact> 0.16116896E+01</totfact>
</mgrwt>
</event>
<event>
 4    1  0.8142558E-001  0.2101833E+03  0.7546771E-02  0.1141421E+00
          1   -1    0    0  502    0  0.00000000000E+00  0.00000000000E+00  0.89297459399E+03  0.89297459399E+03  0.00000000000E+00 0.  1.
         -1   -1    0    0    0  501 -0.00000000000E+00 -0.00000000000E+00 -0.67739340444E+02  0.67739340444E+02  0.00000000000E+00 0. -1.
          6    1    1    2  502    0  0.12542815959E+02 -0.11870423302E+03  0.66206804025E+03  0.69463019449E+03  0.17300000000E+03 0.  1.
         -6    1    1    2    0  501 -0.12542815959E+02  0.11870423302E+03  0.16316721329E+03  0.26608373994E+03  0.17300000000E+03 0. -1.
<mgrwt>
<rscale>  2 0.21018329E+03</rscale>
<asrwt>0</asrwt>
<pdfrwt beam="1">  1        1 0.13738070E+00 0.21018329E+03</pdfrwt>
<pdfrwt beam="2">  1       -1 0.10421438E-01 0.21018329E+03</pdfrwt>
<totfact> 0.11078990E+03</totfact>
</mgrwt>
</event>
<event>
 4    1  0.8142558E-001  0.1970669E+03  0.7546771E-02  0.1152238E+00
         -1   -1    0    0    0  501 -0.00000000000E+00  0.00000000000E+00  0.25247140365E+02  0.25247140365E+02  0.00000000000E+00 0.  1.
          1   -1    0    0  502    0  0.00000000000E+00 -0.00000000000E+00 -0.15393737965E+04  0.15393737965E+04  0.00000000000E+00 0. -1.
          6    1    1    2  502    0 -0.94336448516E+02 -0.26429097207E+01 -0.77859308394E+03  0.80314540455E+03  0.17300000000E+03 0.  1.
         -6    1    1    2    0  501  0.94336448516E+02  0.26429097207E+01 -0.73553357222E+03  0.76147553234E+03  0.17300000000E+03 0.  1.
<mgrwt>
<rscale>  2 0.19706687E+03</rscale>
<asrwt>0</asrwt>
<pdfrwt beam="2">  1        1 0.23682677E+00 0.19706687E+03</pdfrwt>
<pdfrwt beam="1">  1       -1 0.38841750E-02 0.19706687E+03</pdfrwt>
<totfact> 0.17341791E+03</totfact>
</mgrwt>
</event>
<event>
 4    1  0.8142558E-001  0.1747531E+03  0.7546771E-02  0.1172980E+00
          2   -1    0    0  502    0  0.00000000000E+00  0.00000000000E+00  0.33674984833E+03  0.33674984833E+03  0.00000000000E+00 0.  1.
         -2   -1    0    0    0  501 -0.00000000000E+00 -0.00000000000E+00 -0.91445374044E+02  0.91445374044E+02  0.00000000000E+00 0. -1.
          6    1    1    2  502    0 -0.19231316291E+02  0.15485582161E+02  0.10314789155E+03  0.20292396190E+03  0.17300000000E+03 0.  1.
         -6    1    1    2    0  501  0.19231316291E+02 -0.15485582161E+02  0.14215658273E+03  0.22527126047E+03  0.17300000000E+03 0. -1.
<mgrwt>
<rscale>  2 0.17475310E+03</rscale>
<asrwt>0</asrwt>
<pdfrwt beam="1">  1        2 0.51807668E-01 0.17475310E+03</pdfrwt>
<pdfrwt beam="2">  1       -2 0.14068519E-01 0.17475310E+03</pdfrwt>
<totfact> 0.35886446E+03</totfact>
</mgrwt>
</event>
<event>
 4    1  0.8142558E-001  0.2404737E+03  0.7546771E-02  0.1119478E+00
         -2   -1    0    0    0  501 -0.00000000000E+00  0.00000000000E+00  0.46232536640E+02  0.46232536640E+02  0.00000000000E+00 0. -1.
          2   -1    0    0  502    0  0.00000000000E+00 -0.00000000000E+00 -0.15680807033E+04  0.15680807033E+04  0.00000000000E+00 0.  1.
          6    1    1    2  502    0  0.14542996524E+03 -0.82150485376E+02 -0.11239993114E+04  0.11494355262E+04  0.17300000000E+03 0.  1.
         -6    1    1    2    0  501 -0.14542996524E+03  0.82150485376E+02 -0.39784885532E+03  0.46487771372E+03  0.17300000000E+03 0. -1.
<mgrwt>
<rscale>  2 0.24047365E+03</rscale>
<asrwt>0</asrwt>
<pdfrwt beam="2">  1        2 0.24124320E+00 0.24047365E+03</pdfrwt>
<pdfrwt beam="1">  1       -2 0.71126976E-02 0.24047365E+03</pdfrwt>
<totfact> 0.14297795E+03</totfact>
</mgrwt>
</event>
<event>
 4    1  0.8142558E-001  0.1873965E+03  0.7546771E-02  0.1160831E+00
         -1   -1    0    0    0  501 -0.00000000000E+00  0.00000000000E+00  0.22507904192E+02  0.22507904192E+02  0.00000000000E+00 0.  1.
          1   -1    0    0  502    0  0.00000000000E+00 -0.00000000000E+00 -0.16961278940E+04  0.16961278940E+04  0.00000000000E+00 0. -1.
          6    1    1    2  502    0 -0.70073328523E+02 -0.16678876463E+02 -0.10800497449E+04  0.10961865297E+04  0.17300000000E+03 0. -1.
         -6    1    1    2    0  501  0.70073328523E+02  0.16678876463E+02 -0.59357024492E+03  0.62244926857E+03  0.17300000000E+03 0.  1.
<mgrwt>
<rscale>  2 0.18739652E+03</rscale>
<asrwt>0</asrwt>
<pdfrwt beam="2">  1        1 0.26094263E+00 0.18739652E+03</pdfrwt>
<pdfrwt beam="1">  1       -1 0.34627561E-02 0.18739652E+03</pdfrwt>
<totfact> 0.16257790E+03</totfact>
</mgrwt>
</event>
<event>
 4    1  0.8142558E-001  0.1745639E+03  0.7546771E-02  0.1173170E+00
          2   -1    0    0  502    0  0.00000000000E+00  0.00000000000E+00  0.12416612240E+04  0.12416612240E+04  0.00000000000E+00 0.  1.
         -2   -1    0    0    0  501 -0.00000000000E+00 -0.00000000000E+00 -0.26447260684E+02  0.26447260684E+02  0.00000000000E+00 0. -1.
          6    1    1    2  502    0 -0.57538900727E+01 -0.22593411489E+02  0.43741504056E+03  0.47096123747E+03  0.17300000000E+03 0. -1.
         -6    1    1    2    0  501  0.57538900727E+01  0.22593411489E+02  0.77779892271E+03  0.79714724717E+03  0.17300000000E+03 0.  1.
<mgrwt>
<rscale>  2 0.17456394E+03</rscale>
<asrwt>0</asrwt>
<pdfrwt beam="1">  1        2 0.19102476E+00 0.17456394E+03</pdfrwt>
<pdfrwt beam="2">  1       -2 0.40688103E-02 0.17456394E+03</pdfrwt>
<totfact> 0.50100658E+03</totfact>
</mgrwt>
</event>
<event>
 4    1  0.8142558E-001  0.2081610E+03  0.7546771E-02  0.1143031E+00
         -2   -1    0    0    0  501 -0.00000000000E+00  0.00000000000E+00  0.69696871926E+02  0.69696871926E+02  0.00000000000E+00 0.  1.
          2   -1    0    0  502    0  0.00000000000E+00 -0.00000000000E+00 -0.88648037233E+03  0.88648037233E+03  0.00000000000E+00 0. -1.
          6    1    1    2  502    0  0.95022010407E+02  0.66127148113E+02 -0.14710848221E+03  0.25489583700E+03  0.17300000000E+03 0.  1.
         -6    1    1    2    0  501 -0.95022010407E+02 -0.66127148113E+02 -0.66967501819E+03  0.70128140726E+03  0.17300000000E+03 0. -1.
<mgrwt>
<rscale>  2 0.20816095E+03</rscale>
<asrwt>0</asrwt>
<pdfrwt beam="2">  1        2 0.13638159E+00 0.20816095E+03</pdfrwt>
<pdfrwt beam="1">  1       -2 0.10722596E-01 0.20816095E+03</pdfrwt>
<totfact> 0.18343456E+03</totfact>
</mgrwt>
</event>
<event>
 4    1  0.8142558E-001  0.2690707E+03  0.7546771E-02  0.1101813E+00
          3   -1    0    0  502    0  0.00000000000E+00  0.00000000000E+00  0.60511012359E+03  0.60511012359E+03  0.00000000000E+00 0.  1.
         -3   -1    0    0    0  501 -0.00000000000E+00 -0.00000000000E+00 -0.12540195877E+03  0.12540195877E+03  0.00000000000E+00 0. -1.
          6    1    1    2  502    0 -0.93155413001E+02 -0.18382635273E+03  0.31810704267E+03  0.41664271208E+03  0.17300000000E+03 0.  1.
         -6    1    1    2    0  501  0.93155413001E+02  0.18382635273E+03  0.16160112214E+03  0.31386937029E+03  0.17300000000E+03 0. -1.
<mgrwt>
<rscale>  2 0.26907073E+03</rscale>
<asrwt>0</asrwt>
<pdfrwt beam="1">  1        3 0.93093863E-01 0.26907073E+03</pdfrwt>
<pdfrwt beam="2">  1       -3 0.19292609E-01 0.26907073E+03</pdfrwt>
<totfact> 0.63690292E+01</totfact>
</mgrwt>
</event>
<event>
 4    1  0.8142558E-001  0.2545832E+03  0.7546771E-02  0.1110442E+00
         -2   -1    0    0    0  501 -0.00000000000E+00  0.00000000000E+00  0.33106195703E+02  0.33106195703E+02  0.00000000000E+00 0. -1.
          2   -1    0    0  502    0  0.00000000000E+00 -0.00000000000E+00 -0.21622218174E+04  0.21622218174E+04  0.00000000000E+00 0.  1.
          6    1    1    2  502    0 -0.70261846900E+02 -0.17305166603E+03 -0.72698329185E+03  0.77027093472E+03  0.17300000000E+03 0.  1.
         -6    1    1    2    0  501  0.70261846900E+02  0.17305166603E+03 -0.14021323299E+04  0.14250570784E+04  0.17300000000E+03 0.  1.
<mgrwt>
<rscale>  2 0.25458320E+03</rscale>
<asrwt>0</asrwt>
<pdfrwt beam="2">  1        2 0.33264954E+00 0.25458320E+03</pdfrwt>
<pdfrwt beam="1">  1       -2 0.50932604E-02 0.25458320E+03</pdfrwt>
<totfact> 0.11630664E+03</totfact>
</mgrwt>
</event>
<event>
 4    1  0.8142558E-001  0.1778105E+03  0.7546771E-02  0.1169939E+00
          2   -1    0    0  502    0  0.00000000000E+00  0.00000000000E+00  0.69146218878E+03  0.69146218878E+03  0.00000000000E+00 0.  1.
         -2   -1    0    0    0  501 -0.00000000000E+00 -0.00000000000E+00 -0.52653346259E+02  0.52653346259E+02  0.00000000000E+00 0. -1.
          6    1    1    2  502    0 -0.40576003526E+02 -0.64145455109E+01  0.18443446300E+03  0.25618866017E+03  0.17300000000E+03 0. -1.
         -6    1    1    2    0  501  0.40576003526E+02  0.64145455109E+01  0.45437437952E+03  0.48792687487E+03  0.17300000000E+03 0.  1.
<mgrwt>
<rscale>  2 0.17781046E+03</rscale>
<asrwt>0</asrwt>
<pdfrwt beam="1">  1        2 0.10637879E+00 0.17781046E+03</pdfrwt>
<pdfrwt beam="2">  1       -2 0.81005153E-02 0.17781046E+03</pdfrwt>
<totfact> 0.38826666E+03</totfact>
</mgrwt>
</event>
<event>
 4    1  0.8142558E-001  0.2210211E+03  0.7546771E-02  0.1133124E+00
          1   -1    0    0  502    0  0.00000000000E+00  0.00000000000E+00  0.18246428507E+03  0.18246428507E+03  0.00000000000E+00 0. -1.
         -1   -1    0    0    0  501 -0.00000000000E+00 -0.00000000000E+00 -0.43518774146E+03  0.43518774146E+03  0.00000000000E+00 0.  1.
          6    1    1    2  502    0 -0.13015927230E+03  0.44495809813E+02 -0.31793468492E+03  0.38721154055E+03  0.17300000000E+03 0.  1.
         -6    1    1    2    0  501  0.13015927230E+03 -0.44495809813E+02  0.65211228535E+02  0.23044048599E+03  0.17300000000E+03 0. -1.
<mgrwt>
<rscale>  2 0.22102107E+03</rscale>
<asrwt>0</asrwt>
<pdfrwt beam="1">  1        1 0.28071428E-01 0.22102107E+03</pdfrwt>
<pdfrwt beam="2">  1       -1 0.66951960E-01 0.22102107E+03</pdfrwt>
<totfact> 0.38894062E+02</totfact>
</mgrwt>
</event>
<event>
 4    1  0.8142558E-001  0.1742663E+03  0.7546771E-02  0.1173470E+00
         -1   -1    0    0    0  501 -0.00000000000E+00  0.00000000000E+00  0.13702381722E+03  0.13702381722E+03  0.00000000000E+00 0. -1.
          1   -1    0    0  502    0  0.00000000000E+00 -0.00000000000E+00 -0.38230938447E+03  0.38230938447E+03  0.00000000000E+00 0.  1.
          6    1    1    2  502    0  0.77875852246E+01 -0.19470383730E+02  0.45697159897E+02  0.18015818813E+03  0.17300000000E+03 0. -1.
         -6    1    1    2    0  501 -0.77875852246E+01  0.19470383730E+02 -0.29098272715E+03  0.33917501357E+03  0.17300000000E+03 0.  1.
<mgrwt>
<rscale>  2 0.17426630E+03</rscale>
<asrwt>0</asrwt>
<pdfrwt beam="2">  1        1 0.58816829E-01 0.17426630E+03</pdfrwt>
<pdfrwt beam="1">  1       -1 0.21080587E-01 0.17426630E+03</pdfrwt>
<totfact> 0.11824894E+03</totfact>
</mgrwt>
</event>
<event>
 4    1  0.8142558E-001  0.1737542E+03  0.7546771E-02  0.1173988E+00
          1   -1    0    0  502    0  0.00000000000E+00  0.00000000000E+00  0.28407808348E+02  0.28407808348E+02  0.00000000000E+00 0. -1.
         -1   -1    0    0    0  501 -0.00000000000E+00 -0.00000000000E+00 -0.12246264462E+04  0.12246264462E+04  0.00000000000E+00 0.  1.
          6    1    1    2  502    0  0.36260107361E+01  0.15759750273E+02 -0.37032840804E+03  0.40906435617E+03  0.17300000000E+03 0. -1.
         -6    1    1    2    0  501 -0.36260107361E+01 -0.15759750273E+02 -0.82589022985E+03  0.84396989842E+03  0.17300000000E+03 0.  1.
<mgrwt>
<rscale>  2 0.17375419E+03</rscale>
<asrwt>0</asrwt>
<pdfrwt beam="1">  1        1 0.43704316E-02 0.17375419E+03</pdfrwt>
<pdfrwt beam="2">  1       -1 0.18840409E+00 0.17375419E+03</pdfrwt>
<totfact> 0.40158195E+02</totfact>
</mgrwt>
</event>
<event>
 4    1  0.8142558E-001  0.2275317E+03  0.7546771E-02  0.1128389E+00
          2   -1    0    0  502    0  0.00000000000E+00  0.00000000000E+00  0.40598362880E+02  0.40598362880E+02  0.00000000000E+00 0. -1.
         -2   -1    0    0    0  501 -0.00000000000E+00 -0.00000000000E+00 -0.12760719785E+04  0.12760719785E+04  0.00000000000E+00 0.  1.
          6    1    1    2  502    0  0.17568747729E+02  0.14674127082E+03 -0.63503598762E+03  0.67456754075E+03  0.17300000000E+03 0.  1.
         -6    1    1    2    0  501 -0.17568747729E+02 -0.14674127082E+03 -0.60043762801E+03  0.64210280064E+03  0.17300000000E+03 0. -1.
<mgrwt>
<rscale>  2 0.22753167E+03</rscale>
<asrwt>0</asrwt>
<pdfrwt beam="1">  1        2 0.62459027E-02 0.22753167E+03</pdfrwt>
<pdfrwt beam="2">  1       -2 0.19631874E+00 0.22753167E+03</pdfrwt>
<totfact> 0.17822621E+02</totfact>
</mgrwt>
</event>
<event>
 4    1  0.8142558E-001  0.4555393E+03  0.7546771E-02  0.1026083E+00
         -1   -1    0    0    0  501 -0.00000000000E+00  0.00000000000E+00  0.97154492993E+02  0.97154492993E+02  0.00000000000E+00 0. -1.
          1   -1    0    0  502    0  0.00000000000E+00 -0.00000000000E+00 -0.29113955705E+04  0.29113955705E+04  0.00000000000E+00 0.  1.
          6    1    1    2  502    0  0.32061205537E+02  0.42018937625E+03 -0.21834668389E+04  0.22304805467E+04  0.17300000000E+03 0.  1.
         -6    1    1    2    0  501 -0.32061205537E+02 -0.42018937625E+03 -0.63077423861E+03  0.77806951676E+03  0.17300000000E+03 0. -1.
<mgrwt>
<rscale>  2 0.45553928E+03</rscale>
<asrwt>0</asrwt>
<pdfrwt beam="2">  1        1 0.44790698E+00 0.45553928E+03</pdfrwt>
<pdfrwt beam="1">  1       -1 0.14946846E-01 0.45553928E+03</pdfrwt>
<totfact> 0.25570910E+01</totfact>
</mgrwt>
</event>
<event>
 4    1  0.8142558E-001  0.1755616E+03  0.7546771E-02  0.1172169E+00
          2   -1    0    0  502    0  0.00000000000E+00  0.00000000000E+00  0.94935821126E+02  0.94935821126E+02  0.00000000000E+00 0. -1.
         -2   -1    0    0    0  501 -0.00000000000E+00 -0.00000000000E+00 -0.33107864181E+03  0.33107864181E+03  0.00000000000E+00 0.  1.
          6    1    1    2  502    0 -0.88241868460E+00 -0.29868091552E+02 -0.88413266460E+02  0.19656751319E+03  0.17300000000E+03 0. -1.
         -6    1    1    2    0  501  0.88241868460E+00  0.29868091552E+02 -0.14772955422E+03  0.22944694974E+03  0.17300000000E+03 0.  1.
<mgrwt>
<rscale>  2 0.17556162E+03</rscale>
<asrwt>0</asrwt>
<pdfrwt beam="1">  1        2 0.14605511E-01 0.17556162E+03</pdfrwt>
<pdfrwt beam="2">  1       -2 0.50935176E-01 0.17556162E+03</pdfrwt>
<totfact> 0.14650761E+03</totfact>
</mgrwt>
</event>
<event>
 4    1  0.8142558E-001  0.1805848E+03  0.7546771E-02  0.1167238E+00
          1   -1    0    0  502    0  0.00000000000E+00  0.00000000000E+00  0.85404127585E+03  0.85404127585E+03  0.00000000000E+00 0.  1.
         -1   -1    0    0    0  501 -0.00000000000E+00 -0.00000000000E+00 -0.92263086897E+02  0.92263086897E+02  0.00000000000E+00 0. -1.
          6    1    1    2  502    0 -0.37932020060E+02 -0.35256757468E+02  0.18645465981E+02  0.18154484431E+03  0.17300000000E+03 0. -1.
         -6    1    1    2    0  501  0.37932020060E+02  0.35256757468E+02  0.74313272297E+03  0.76475951844E+03  0.17300000000E+03 0.  1.
<mgrwt>
<rscale>  2 0.18058482E+03</rscale>
<asrwt>0</asrwt>
<pdfrwt beam="1">  1        1 0.13139096E+00 0.18058482E+03</pdfrwt>
<pdfrwt beam="2">  1       -1 0.14194322E-01 0.18058482E+03</pdfrwt>
<totfact> 0.73542434E+02</totfact>
</mgrwt>
</event>
<event>
 4    1  0.8142558E-001  0.2095748E+03  0.7546771E-02  0.1141903E+00
          2   -1    0    0  502    0  0.00000000000E+00  0.00000000000E+00  0.18011229235E+04  0.18011229235E+04  0.00000000000E+00 0. -1.
         -2   -1    0    0    0  501 -0.00000000000E+00 -0.00000000000E+00 -0.29382278694E+02  0.29382278694E+02  0.00000000000E+00 0.  1.
          6    1    1    2  502    0 -0.11047310503E+03  0.42288100624E+02  0.12632998530E+04  0.12805655426E+04  0.17300000000E+03 0. -1.
         -6    1    1    2    0  501  0.11047310503E+03 -0.42288100624E+02  0.50844079185E+03  0.54993965961E+03  0.17300000000E+03 0. -1.
<mgrwt>
<rscale>  2 0.20957478E+03</rscale>
<asrwt>0</asrwt>
<pdfrwt beam="1">  1        2 0.27709575E+00 0.20957478E+03</pdfrwt>
<pdfrwt beam="2">  1       -2 0.45203520E-02 0.20957478E+03</pdfrwt>
<totfact> 0.21630498E+03</totfact>
</mgrwt>
</event>
<event>
 4    1  0.8142558E-001  0.1786005E+03  0.7546771E-02  0.1169164E+00
          2   -1    0    0  502    0  0.00000000000E+00  0.00000000000E+00  0.20658505925E+04  0.20658505925E+04  0.00000000000E+00 0.  1.
         -2   -1    0    0    0  501 -0.00000000000E+00 -0.00000000000E+00 -0.15754639481E+02  0.15754639481E+02  0.00000000000E+00 0. -1.
          6    1    1    2  502    0 -0.28268371917E+01  0.44284826489E+02  0.87812108290E+03  0.89609975622E+03  0.17300000000E+03 0. -1.
         -6    1    1    2    0  501  0.28268371917E+01 -0.44284826489E+02  0.11719748701E+04  0.11855054758E+04  0.17300000000E+03 0.  1.
<mgrwt>
<rscale>  2 0.17860050E+03</rscale>
<asrwt>0</asrwt>
<pdfrwt beam="1">  1        2 0.31782295E+00 0.17860050E+03</pdfrwt>
<pdfrwt beam="2">  1       -2 0.24237923E-02 0.17860050E+03</pdfrwt>
<totfact> 0.39882640E+03</totfact>
</mgrwt>
</event>
<event>
 4    1  0.8142558E-001  0.1802314E+03  0.7546771E-02  0.1167579E+00
         -2   -1    0    0    0  501 -0.00000000000E+00  0.00000000000E+00  0.24684223881E+02  0.24684223881E+02  0.00000000000E+00 0.  1.
          2   -1    0    0  502    0  0.00000000000E+00 -0.00000000000E+00 -0.14974116566E+04  0.14974116566E+04  0.00000000000E+00 0. -1.
          6    1    1    2  502    0  0.26627545402E+02 -0.42957255426E+02 -0.10012910037E+04  0.10173824384E+04  0.17300000000E+03 0. -1.
         -6    1    1    2    0  501 -0.26627545402E+02  0.42957255426E+02 -0.47143642907E+03  0.50471344209E+03  0.17300000000E+03 0.  1.
<mgrwt>
<rscale>  2 0.18023138E+03</rscale>
<asrwt>0</asrwt>
<pdfrwt beam="2">  1        2 0.23037100E+00 0.18023138E+03</pdfrwt>
<pdfrwt beam="1">  1       -2 0.37975733E-02 0.18023138E+03</pdfrwt>
<totfact> 0.40473439E+03</totfact>
</mgrwt>
</event>
<event>
 4    1  0.8142558E-001  0.1880825E+03  0.7546771E-02  0.1160202E+00
          2   -1    0    0  502    0  0.00000000000E+00  0.00000000000E+00  0.74631867156E+03  0.74631867156E+03  0.00000000000E+00 0. -1.
         -2   -1    0    0    0  501 -0.00000000000E+00 -0.00000000000E+00 -0.48125511570E+02  0.48125511570E+02  0.00000000000E+00 0.  1.
          6    1    1    2  502    0 -0.77201253369E+01  0.73392189713E+02  0.30030276437E+03  0.35433989915E+03  0.17300000000E+03 0.  1.
         -6    1    1    2    0  501  0.77201253369E+01 -0.73392189713E+02  0.39789039563E+03  0.44010428398E+03  0.17300000000E+03 0. -1.
<mgrwt>
<rscale>  2 0.18808247E+03</rscale>
<asrwt>0</asrwt>
<pdfrwt beam="1">  1        2 0.11481825E+00 0.18808247E+03</pdfrwt>
<pdfrwt beam="2">  1       -2 0.74039254E-02 0.18808247E+03</pdfrwt>
<totfact> 0.40775126E+03</totfact>
</mgrwt>
</event>
<event>
 4    1  0.8142558E-001  0.2582305E+03  0.7546771E-02  0.1108211E+00
         -2   -1    0    0    0  501 -0.00000000000E+00  0.00000000000E+00  0.34506024478E+03  0.34506024478E+03  0.00000000000E+00 0. -1.
          2   -1    0    0  502    0  0.00000000000E+00 -0.00000000000E+00 -0.22534084520E+03  0.22534084520E+03  0.00000000000E+00 0.  1.
          6    1    1    2  502    0  0.16848933878E+03 -0.91462230699E+02 -0.47766725961E+02  0.26261122793E+03  0.17300000000E+03 0.  1.
         -6    1    1    2    0  501 -0.16848933878E+03  0.91462230699E+02  0.16748612554E+03  0.30778986204E+03  0.17300000000E+03 0.  1.
<mgrwt>
<rscale>  2 0.25823051E+03</rscale>
<asrwt>0</asrwt>
<pdfrwt beam="2">  1        2 0.34667822E-01 0.25823051E+03</pdfrwt>
<pdfrwt beam="1">  1       -2 0.53086192E-01 0.25823051E+03</pdfrwt>
<totfact> 0.51040647E+02</totfact>
</mgrwt>
</event>
<event>
 4    1  0.8142558E-001  0.1919963E+03  0.7546771E-02  0.1156673E+00
          2   -1    0    0  502    0  0.00000000000E+00  0.00000000000E+00  0.63569177134E+03  0.63569177134E+03  0.00000000000E+00 0. -1.
         -2   -1    0    0    0  501 -0.00000000000E+00 -0.00000000000E+00 -0.58150086104E+02  0.58150086104E+02  0.00000000000E+00 0.  1.
          6    1    1    2  502    0  0.75459344387E+02 -0.35205945424E+02  0.27046177321E+03  0.33168078331E+03  0.17300000000E+03 0. -1.
         -6    1    1    2    0  501 -0.75459344387E+02  0.35205945424E+02  0.30707991203E+03  0.36216107414E+03  0.17300000000E+03 0.  1.
<mgrwt>
<rscale>  2 0.19199628E+03</rscale>
<asrwt>0</asrwt>
<pdfrwt beam="1">  1        2 0.97798729E-01 0.19199628E+03</pdfrwt>
<pdfrwt beam="2">  1       -2 0.89461675E-02 0.19199628E+03</pdfrwt>
<totfact> 0.36820739E+03</totfact>
</mgrwt>
</event>
<event>
 4    1  0.8142558E-001  0.1789097E+03  0.7546771E-02  0.1168862E+00
          4   -1    0    0  502    0  0.00000000000E+00  0.00000000000E+00  0.50616029999E+03  0.50616029999E+03  0.00000000000E+00 0.  1.
         -4   -1    0    0    0  501 -0.00000000000E+00 -0.00000000000E+00 -0.87750340350E+02  0.87750340350E+02  0.00000000000E+00 0. -1.
          6    1    1    2  502    0  0.78001396558E+01 -0.44931636892E+02  0.36615335889E+03  0.40752543037E+03  0.17300000000E+03 0.  1.
         -6    1    1    2    0  501 -0.78001396558E+01  0.44931636892E+02  0.52256600748E+02  0.18638520997E+03  0.17300000000E+03 0. -1.
<mgrwt>
<rscale>  2 0.17890974E+03</rscale>
<asrwt>0</asrwt>
<pdfrwt beam="1">  1        4 0.77870814E-01 0.17890974E+03</pdfrwt>
<pdfrwt beam="2">  1       -4 0.13500053E-01 0.17890974E+03</pdfrwt>
<totfact> 0.11963687E+02</totfact>
</mgrwt>
</event>
<event>
 4    1  0.8142558E-001  0.2142827E+03  0.7546771E-02  0.1138219E+00
          2   -1    0    0  502    0  0.00000000000E+00  0.00000000000E+00  0.78062149366E+03  0.78062149366E+03  0.00000000000E+00 0. -1.
         -2   -1    0    0    0  501 -0.00000000000E+00 -0.00000000000E+00 -0.75998443331E+02  0.75998443331E+02  0.00000000000E+00 0.  1.
          6    1    1    2  502    0  0.83122615895E+02 -0.95282161190E+02  0.14868558141E+03  0.26081499503E+03  0.17300000000E+03 0.  1.
         -6    1    1    2    0  501 -0.83122615895E+02  0.95282161190E+02  0.55593746892E+03  0.59580494196E+03  0.17300000000E+03 0. -1.
<mgrwt>
<rscale>  2 0.21428266E+03</rscale>
<asrwt>0</asrwt>
<pdfrwt beam="1">  1        2 0.12009561E+00 0.21428266E+03</pdfrwt>
<pdfrwt beam="2">  1       -2 0.11692069E-01 0.21428266E+03</pdfrwt>
<totfact> 0.18812589E+03</totfact>
</mgrwt>
</event>
<event>
 4    1  0.8142558E-001  0.1743965E+03  0.7546771E-02  0.1173339E+00
         -1   -1    0    0    0  501 -0.00000000000E+00  0.00000000000E+00  0.53193138856E+03  0.53193138856E+03  0.00000000000E+00 0.  1.
          1   -1    0    0  502    0  0.00000000000E+00 -0.00000000000E+00 -0.66460722622E+02  0.66460722622E+02  0.00000000000E+00 0. -1.
          6    1    1    2  502    0 -0.11665485034E+02 -0.18682704341E+02  0.12091019929E+03  0.21221075202E+03  0.17300000000E+03 0. -1.
         -6    1    1    2    0  501  0.11665485034E+02  0.18682704341E+02  0.34456046665E+03  0.38618135916E+03  0.17300000000E+03 0.  1.
<mgrwt>
<rscale>  2 0.17439646E+03</rscale>
<asrwt>0</asrwt>
<pdfrwt beam="2">  1        1 0.10224727E-01 0.17439646E+03</pdfrwt>
<pdfrwt beam="1">  1       -1 0.81835596E-01 0.17439646E+03</pdfrwt>
<totfact> 0.96067612E+02</totfact>
</mgrwt>
</event>
<event>
 4    1  0.8142558E-001  0.2418391E+03  0.7546771E-02  0.1118574E+00
          2   -1    0    0  502    0  0.00000000000E+00  0.00000000000E+00  0.21203951859E+04  0.21203951859E+04  0.00000000000E+00 0. -1.
         -2   -1    0    0    0  501 -0.00000000000E+00 -0.00000000000E+00 -0.33685097240E+02  0.33685097240E+02  0.00000000000E+00 0.  1.
          6    1    1    2  502    0  0.21781675033E+01  0.16897458253E+03  0.58493414896E+03  0.63295664352E+03  0.17300000000E+03 0.  1.
         -6    1    1    2    0  501 -0.21781675033E+01 -0.16897458253E+03  0.15017759397E+04  0.15211236396E+04  0.17300000000E+03 0. -1.
<mgrwt>
<rscale>  2 0.24183911E+03</rscale>
<asrwt>0</asrwt>
<pdfrwt beam="1">  1        2 0.32621454E+00 0.24183911E+03</pdfrwt>
<pdfrwt beam="2">  1       -2 0.51823243E-02 0.24183911E+03</pdfrwt>
<totfact> 0.11937329E+03</totfact>
</mgrwt>
</event>
<event>
 4    1  0.8142558E-001  0.1882476E+03  0.7546771E-02  0.1160051E+00
         -1   -1    0    0    0  501 -0.00000000000E+00  0.00000000000E+00  0.51386409787E+02  0.51386409787E+02  0.00000000000E+00 0.  1.
          1   -1    0    0  502    0  0.00000000000E+00 -0.00000000000E+00 -0.81310878444E+03  0.81310878444E+03  0.00000000000E+00 0. -1.
          6    1    1    2  502    0 -0.70058629915E+02 -0.24494109742E+02 -0.54931055302E+03  0.58067138443E+03  0.17300000000E+03 0. -1.
         -6    1    1    2    0  501  0.70058629915E+02  0.24494109742E+02 -0.21241182163E+03  0.28382380980E+03  0.17300000000E+03 0.  1.
<mgrwt>
<rscale>  2 0.18824764E+03</rscale>
<asrwt>0</asrwt>
<pdfrwt beam="2">  1        1 0.12509366E+00 0.18824764E+03</pdfrwt>
<pdfrwt beam="1">  1       -1 0.79056015E-02 0.18824764E+03</pdfrwt>
<totfact> 0.19594866E+03</totfact>
</mgrwt>
</event>
<event>
 4    1  0.8142558E-001  0.1935329E+03  0.7546771E-02  0.1155313E+00
         -2   -1    0    0    0  501 -0.00000000000E+00  0.00000000000E+00  0.69614516570E+02  0.69614516570E+02  0.00000000000E+00 0. -1.
          2   -1    0    0  502    0  0.00000000000E+00 -0.00000000000E+00 -0.15807312972E+04  0.15807312972E+04  0.00000000000E+00 0.  1.
          6    1    1    2  502    0 -0.82267127200E+02 -0.27533524184E+02 -0.85372835213E+02  0.21152658501E+03  0.17300000000E+03 0. -1.
         -6    1    1    2    0  501  0.82267127200E+02  0.27533524184E+02 -0.14257439454E+04  0.14388192287E+04  0.17300000000E+03 0.  1.
<mgrwt>
<rscale>  2 0.19353288E+03</rscale>
<asrwt>0</asrwt>
<pdfrwt beam="2">  1        2 0.24318942E+00 0.19353288E+03</pdfrwt>
<pdfrwt beam="1">  1       -2 0.10709926E-01 0.19353288E+03</pdfrwt>
<totfact> 0.74328522E+02</totfact>
</mgrwt>
</event>
<event>
 4    1  0.8142558E-001  0.2958812E+03  0.7546771E-02  0.1087318E+00
         -2   -1    0    0    0  501 -0.00000000000E+00  0.00000000000E+00  0.57001083062E+03  0.57001083062E+03  0.00000000000E+00 0. -1.
          2   -1    0    0  502    0  0.00000000000E+00 -0.00000000000E+00 -0.20378078550E+03  0.20378078550E+03  0.00000000000E+00 0.  1.
          6    1    1    2  502    0  0.15891848838E+02 -0.23950807361E+03  0.37513297101E+03  0.47777653158E+03  0.17300000000E+03 0. -1.
         -6    1    1    2    0  501 -0.15891848838E+02  0.23950807361E+03 -0.89029258897E+01  0.29601508454E+03  0.17300000000E+03 0.  1.
<mgrwt>
<rscale>  2 0.29588117E+03</rscale>
<asrwt>0</asrwt>
<pdfrwt beam="2">  1        2 0.31350890E-01 0.29588117E+03</pdfrwt>
<pdfrwt beam="1">  1       -2 0.87693973E-01 0.29588117E+03</pdfrwt>
<totfact> 0.19458849E+02</totfact>
</mgrwt>
</event>
<event>
 4    1  0.8142558E-001  0.1817514E+03  0.7546771E-02  0.1166119E+00
          2   -1    0    0  502    0  0.00000000000E+00  0.00000000000E+00  0.78780131417E+03  0.78780131417E+03  0.00000000000E+00 0. -1.
         -2   -1    0    0    0  501 -0.00000000000E+00 -0.00000000000E+00 -0.56030531057E+02  0.56030531057E+02  0.00000000000E+00 0.  1.
          6    1    1    2  502    0  0.18593584049E+01  0.55687676021E+02  0.15423920198E+03  0.23837639544E+03  0.17300000000E+03 0.  1.
         -6    1    1    2    0  501 -0.18593584049E+01 -0.55687676021E+02  0.57753158113E+03  0.60545544979E+03  0.17300000000E+03 0. -1.
<mgrwt>
<rscale>  2 0.18175141E+03</rscale>
<asrwt>0</asrwt>
<pdfrwt beam="1">  1        2 0.12120019E+00 0.18175141E+03</pdfrwt>
<pdfrwt beam="2">  1       -2 0.86200823E-02 0.18175141E+03</pdfrwt>
<totfact> 0.30065295E+03</totfact>
</mgrwt>
</event>
<event>
 4    1  0.8142558E-001  0.3644080E+03  0.7546771E-02  0.1056852E+00
         -2   -1    0    0    0  501 -0.00000000000E+00  0.00000000000E+00  0.16344408868E+03  0.16344408868E+03  0.00000000000E+00 0. -1.
          2   -1    0    0  502    0  0.00000000000E+00 -0.00000000000E+00 -0.96695365690E+03  0.96695365690E+03  0.00000000000E+00 0.  1.
          6    1    1    2  502    0 -0.28887322575E+03  0.13934282822E+03 -0.17584142380E+03  0.40461508950E+03  0.17300000000E+03 0. -1.
         -6    1    1    2    0  501  0.28887322575E+03 -0.13934282822E+03 -0.62766814442E+03  0.72578265607E+03  0.17300000000E+03 0.  1.
<mgrwt>
<rscale>  2 0.36440796E+03</rscale>
<asrwt>0</asrwt>
<pdfrwt beam="2">  1        2 0.14876210E+00 0.36440796E+03</pdfrwt>
<pdfrwt beam="1">  1       -2 0.25145245E-01 0.36440796E+03</pdfrwt>
<totfact> 0.38655515E+02</totfact>
</mgrwt>
</event>
<event>
 4    1  0.8142558E-001  0.2638116E+03  0.7546771E-02  0.1104875E+00
         -3   -1    0    0    0  501 -0.00000000000E+00  0.00000000000E+00  0.14511010127E+04  0.14511010127E+04  0.00000000000E+00 0.  1.
          3   -1    0    0  502    0  0.00000000000E+00 -0.00000000000E+00 -0.50970897241E+02  0.50970897241E+02  0.00000000000E+00 0. -1.
          6    1    1    2  502    0  0.87935528416E+02 -0.17870335790E+03  0.51756587438E+03  0.58092252634E+03  0.17300000000E+03 0.  1.
         -6    1    1    2    0  501 -0.87935528416E+02  0.17870335790E+03  0.88256424110E+03  0.92114938362E+03  0.17300000000E+03 0.  1.
<mgrwt>
<rscale>  2 0.26381158E+03</rscale>
<asrwt>0</asrwt>
<pdfrwt beam="2">  1        3 0.78416776E-02 0.26381158E+03</pdfrwt>
<pdfrwt beam="1">  1       -3 0.22324628E+00 0.26381158E+03</pdfrwt>
<totfact> 0.31847809E+01</totfact>
</mgrwt>
</event>
<event>
 4    1  0.8142558E-001  0.1972269E+03  0.7546771E-02  0.1152100E+00
         -2   -1    0    0    0  501 -0.00000000000E+00  0.00000000000E+00  0.72698662843E+02  0.72698662843E+02  0.00000000000E+00 0. -1.
          2   -1    0    0  502    0  0.00000000000E+00 -0.00000000000E+00 -0.63113847094E+03  0.63113847094E+03  0.00000000000E+00 0.  1.
          6    1    1    2  502    0 -0.63166851829E+02 -0.70564886575E+02 -0.41652394670E+03  0.46085860365E+03  0.17300000000E+03 0.  1.
         -6    1    1    2    0  501  0.63166851829E+02  0.70564886575E+02 -0.14191586140E+03  0.24297853013E+03  0.17300000000E+03 0. -1.
<mgrwt>
<rscale>  2 0.19722691E+03</rscale>
<asrwt>0</asrwt>
<pdfrwt beam="2">  1        2 0.97098225E-01 0.19722691E+03</pdfrwt>
<pdfrwt beam="1">  1       -2 0.11184410E-01 0.19722691E+03</pdfrwt>
<totfact> 0.26084324E+03</totfact>
</mgrwt>
</event>
<event>
 4    1  0.8142558E-001  0.2332694E+03  0.7546771E-02  0.1124360E+00
         -2   -1    0    0    0  501 -0.00000000000E+00  0.00000000000E+00  0.58209608283E+02  0.58209608283E+02  0.00000000000E+00 0.  1.
          2   -1    0    0  502    0  0.00000000000E+00 -0.00000000000E+00 -0.12839591068E+04  0.12839591068E+04  0.00000000000E+00 0. -1.
          6    1    1    2  502    0 -0.10860580826E+03  0.11265155826E+03 -0.96282837714E+03  0.99068313753E+03  0.17300000000E+03 0. -1.
         -6    1    1    2    0  501  0.10860580826E+03 -0.11265155826E+03 -0.26292112142E+03  0.35148557759E+03  0.17300000000E+03 0.  1.
<mgrwt>
<rscale>  2 0.23326936E+03</rscale>
<asrwt>0</asrwt>
<pdfrwt beam="2">  1        2 0.19753215E+00 0.23326936E+03</pdfrwt>
<pdfrwt beam="1">  1       -2 0.89553251E-02 0.23326936E+03</pdfrwt>
<totfact> 0.14201061E+03</totfact>
</mgrwt>
</event>
<event>
 4    1  0.8142558E-001  0.2201464E+03  0.7546771E-02  0.1133774E+00
         -2   -1    0    0    0  501 -0.00000000000E+00  0.00000000000E+00  0.89710983696E+03  0.89710983696E+03  0.00000000000E+00 0. -1.
          2   -1    0    0  502    0  0.00000000000E+00 -0.00000000000E+00 -0.54855428289E+02  0.54855428289E+02  0.00000000000E+00 0.  1.
          6    1    1    2  502    0  0.10697933297E+03  0.84207360669E+02  0.47976612376E+03  0.52786361002E+03  0.17300000000E+03 0. -1.
         -6    1    1    2    0  501 -0.10697933297E+03 -0.84207360669E+02  0.36248828491E+03  0.42410165523E+03  0.17300000000E+03 0.  1.
<mgrwt>
<rscale>  2 0.22014645E+03</rscale>
<asrwt>0</asrwt>
<pdfrwt beam="2">  1        2 0.84392973E-02 0.22014645E+03</pdfrwt>
<pdfrwt beam="1">  1       -2 0.13801689E+00 0.22014645E+03</pdfrwt>
<totfact> 0.31112391E+02</totfact>
</mgrwt>
</event>
<event>
 4    1  0.8142558E-001  0.2028963E+03  0.7546771E-02  0.1147318E+00
          1   -1    0    0  502    0  0.00000000000E+00  0.00000000000E+00  0.48225879328E+03  0.48225879328E+03  0.00000000000E+00 0. -1.
         -1   -1    0    0    0  501 -0.00000000000E+00 -0.00000000000E+00 -0.85807283675E+02  0.85807283675E+02  0.00000000000E+00 0.  1.
          6    1    1    2  502    0  0.71433417726E+02 -0.78327403463E+02  0.17778104755E+03  0.26976474226E+03  0.17300000000E+03 0. -1.
         -6    1    1    2    0  501 -0.71433417726E+02  0.78327403463E+02  0.21867046206E+03  0.29830133469E+03  0.17300000000E+03 0. -1.
<mgrwt>
<rscale>  2 0.20289632E+03</rscale>
<asrwt>0</asrwt>
<pdfrwt beam="1">  1        1 0.74193659E-01 0.20289632E+03</pdfrwt>
<pdfrwt beam="2">  1       -1 0.13201121E-01 0.20289632E+03</pdfrwt>
<totfact> 0.18542630E+03</totfact>
</mgrwt>
</event>
<event>
 4    1  0.8142558E-001  0.1865462E+03  0.7546771E-02  0.1161614E+00
          2   -1    0    0  502    0  0.00000000000E+00  0.00000000000E+00  0.18766496424E+03  0.18766496424E+03  0.00000000000E+00 0.  1.
         -2   -1    0    0    0  501 -0.00000000000E+00 -0.00000000000E+00 -0.19461783538E+03  0.19461783538E+03  0.00000000000E+00 0. -1.
          6    1    1    2  502    0  0.48992602968E+02  0.49701120471E+02 -0.44998031155E+02  0.19189658499E+03  0.17300000000E+03 0. -1.
         -6    1    1    2    0  501 -0.48992602968E+02 -0.49701120471E+02  0.38045160014E+02  0.19038621463E+03  0.17300000000E+03 0.  1.
<mgrwt>
<rscale>  2 0.18654618E+03</rscale>
<asrwt>0</asrwt>
<pdfrwt beam="1">  1        2 0.28871533E-01 0.18654618E+03</pdfrwt>
<pdfrwt beam="2">  1       -2 0.29941205E-01 0.18654618E+03</pdfrwt>
<totfact> 0.18526668E+03</totfact>
</mgrwt>
</event>
<event>
 4    1  0.8142558E-001  0.2069750E+03  0.7546771E-02  0.1143984E+00
          2   -1    0    0  502    0  0.00000000000E+00  0.00000000000E+00  0.38214128791E+03  0.38214128791E+03  0.00000000000E+00 0.  1.
         -2   -1    0    0    0  501 -0.00000000000E+00 -0.00000000000E+00 -0.14520628552E+03  0.14520628552E+03  0.00000000000E+00 0. -1.
          6    1    1    2  502    0 -0.11305808294E+03  0.11293175774E+02 -0.74304621702E+01  0.20710837189E+03  0.17300000000E+03 0. -1.
         -6    1    1    2    0  501  0.11305808294E+03 -0.11293175774E+02  0.24436546456E+03  0.32023920155E+03  0.17300000000E+03 0.  1.
<mgrwt>
<rscale>  2 0.20697504E+03</rscale>
<asrwt>0</asrwt>
<pdfrwt beam="1">  1        2 0.58790967E-01 0.20697504E+03</pdfrwt>
<pdfrwt beam="2">  1       -2 0.22339429E-01 0.20697504E+03</pdfrwt>
<totfact> 0.14479752E+03</totfact>
</mgrwt>
</event>
<event>
 4    1  0.8142558E-001  0.2181539E+03  0.7546771E-02  0.1135267E+00
          2   -1    0    0  502    0  0.00000000000E+00  0.00000000000E+00  0.48923334678E+04  0.48923334678E+04  0.00000000000E+00 0.  1.
         -2   -1    0    0    0  501 -0.00000000000E+00 -0.00000000000E+00 -0.12482173783E+02  0.12482173783E+02  0.00000000000E+00 0. -1.
          6    1    1    2  502    0 -0.98539636150E+02  0.89174390766E+02  0.35919647772E+04  0.35985833452E+04  0.17300000000E+03 0.  1.
         -6    1    1    2    0  501  0.98539636150E+02 -0.89174390766E+02  0.12878865168E+04  0.13062322964E+04  0.17300000000E+03 0. -1.
<mgrwt>
<rscale>  2 0.21815392E+03</rscale>
<asrwt>0</asrwt>
<pdfrwt beam="1">  1        2 0.75266516E+00 0.21815392E+03</pdfrwt>
<pdfrwt beam="2">  1       -2 0.19203383E-02 0.21815392E+03</pdfrwt>
<totfact> 0.57213679E+01</totfact>
</mgrwt>
</event>
<event>
 4    1  0.8142558E-001  0.1866113E+03  0.7546771E-02  0.1161554E+00
          2   -1    0    0  502    0  0.00000000000E+00  0.00000000000E+00  0.24959940082E+04  0.24959940082E+04  0.00000000000E+00 0.  1.
         -2   -1    0    0    0  501 -0.00000000000E+00 -0.00000000000E+00 -0.29276038507E+02  0.29276038507E+02  0.00000000000E+00 0. -1.
          6    1    1    2  502    0 -0.69614206322E+02  0.69732278707E+01  0.21468625604E+04  0.21549576833E+04  0.17300000000E+03 0.  1.
         -6    1    1    2    0  501  0.69614206322E+02 -0.69732278707E+01  0.31985540931E+03  0.37031236341E+03  0.17300000000E+03 0. -1.
<mgrwt>
<rscale>  2 0.18661126E+03</rscale>
<asrwt>0</asrwt>
<pdfrwt beam="1">  1        2 0.38399891E+00 0.18661126E+03</pdfrwt>
<pdfrwt beam="2">  1       -2 0.45040079E-02 0.18661126E+03</pdfrwt>
<totfact> 0.94008663E+02</totfact>
</mgrwt>
</event>
<event>
 4    1  0.8142558E-001  0.2007898E+03  0.7546771E-02  0.1149074E+00
          2   -1    0    0  502    0  0.00000000000E+00  0.00000000000E+00  0.52605301139E+03  0.52605301139E+03  0.00000000000E+00 0. -1.
         -2   -1    0    0    0  501 -0.00000000000E+00 -0.00000000000E+00 -0.78081452597E+02  0.78081452597E+02  0.00000000000E+00 0.  1.
          6    1    1    2  502    0 -0.63214531459E+01 -0.10172302441E+03  0.26503246118E+03  0.33250374426E+03  0.17300000000E+03 0.  1.
         -6    1    1    2    0  501  0.63214531459E+01  0.10172302441E+03  0.18293909761E+03  0.27163071972E+03  0.17300000000E+03 0. -1.
<mgrwt>
<rscale>  2 0.20078978E+03</rscale>
<asrwt>0</asrwt>
<pdfrwt beam="1">  1        2 0.80931230E-01 0.20078978E+03</pdfrwt>
<pdfrwt beam="2">  1       -2 0.12012532E-01 0.20078978E+03</pdfrwt>
<totfact> 0.28663307E+03</totfact>
</mgrwt>
</event>
<event>
 4    1  0.8142558E-001  0.1876032E+03  0.7546771E-02  0.1160641E+00
         -2   -1    0    0    0  501 -0.00000000000E+00  0.00000000000E+00  0.28423148918E+02  0.28423148918E+02  0.00000000000E+00 0.  1.
          2   -1    0    0  502    0  0.00000000000E+00 -0.00000000000E+00 -0.12617918053E+04  0.12617918053E+04  0.00000000000E+00 0. -1.
          6    1    1    2  502    0  0.29294875922E+02  0.66391140094E+02 -0.70480040567E+03  0.72934119935E+03  0.17300000000E+03 0.  1.
         -6    1    1    2    0  501 -0.29294875922E+02 -0.66391140094E+02 -0.52856825071E+03  0.56087375486E+03  0.17300000000E+03 0.  1.
<mgrwt>
<rscale>  2 0.18760323E+03</rscale>
<asrwt>0</asrwt>
<pdfrwt beam="2">  1        2 0.19412182E+00 0.18760323E+03</pdfrwt>
<pdfrwt beam="1">  1       -2 0.43727920E-02 0.18760323E+03</pdfrwt>
<totfact> 0.43908023E+03</totfact>
</mgrwt>
</event>
<event>
 4    1  0.8142558E-001  0.1969757E+03  0.7546771E-02  0.1152316E+00
         -1   -1    0    0    0  501 -0.00000000000E+00  0.00000000000E+00  0.79873981672E+02  0.79873981672E+02  0.00000000000E+00 0. -1.
          1   -1    0    0  502    0  0.00000000000E+00 -0.00000000000E+00 -0.53049810473E+03  0.53049810473E+03  0.00000000000E+00 0.  1.
          6    1    1    2  502    0  0.65688697653E+01  0.93953548617E+02 -0.13668392304E+03  0.23975386162E+03  0.17300000000E+03 0. -1.
         -6    1    1    2    0  501 -0.65688697653E+01 -0.93953548617E+02 -0.31394020003E+03  0.37061822478E+03  0.17300000000E+03 0.  1.
<mgrwt>
<rscale>  2 0.19697568E+03</rscale>
<asrwt>0</asrwt>
<pdfrwt beam="2">  1        1 0.81615094E-01 0.19697568E+03</pdfrwt>
<pdfrwt beam="1">  1       -1 0.12288305E-01 0.19697568E+03</pdfrwt>
<totfact> 0.18269563E+03</totfact>
</mgrwt>
</event>
<event>
 4    1  0.8142558E-001  0.1951221E+03  0.7546771E-02  0.1153921E+00
          1   -1    0    0  502    0  0.00000000000E+00  0.00000000000E+00  0.15921811889E+03  0.15921811889E+03  0.00000000000E+00 0. -1.
         -1   -1    0    0    0  501 -0.00000000000E+00 -0.00000000000E+00 -0.24774397394E+03  0.24774397394E+03  0.00000000000E+00 0.  1.
          6    1    1    2  502    0 -0.87500805127E+02 -0.22074004456E+02 -0.63043145113E+01  0.19522396613E+03  0.17300000000E+03 0. -1.
         -6    1    1    2    0  501  0.87500805127E+02  0.22074004456E+02 -0.82221540543E+02  0.21173812670E+03  0.17300000000E+03 0.  1.
<mgrwt>
<rscale>  2 0.19512215E+03</rscale>
<asrwt>0</asrwt>
<pdfrwt beam="1">  1        1 0.24495095E-01 0.19512215E+03</pdfrwt>
<pdfrwt beam="2">  1       -1 0.38114457E-01 0.19512215E+03</pdfrwt>
<totfact> 0.13123394E+03</totfact>
</mgrwt>
</event>
<event>
 4    1  0.8142558E-001  0.1983976E+03  0.7546771E-02  0.1151098E+00
         -3   -1    0    0    0  501 -0.00000000000E+00  0.00000000000E+00  0.20006161669E+03  0.20006161669E+03  0.00000000000E+00 0.  1.
          3   -1    0    0  502    0  0.00000000000E+00 -0.00000000000E+00 -0.21360717484E+03  0.21360717484E+03  0.00000000000E+00 0. -1.
          6    1    1    2  502    0  0.44055412091E+02  0.86554665646E+02 -0.64881537283E+02  0.20873716334E+03  0.17300000000E+03 0. -1.
         -6    1    1    2    0  501 -0.44055412091E+02 -0.86554665646E+02  0.51335979133E+02  0.20493162819E+03  0.17300000000E+03 0.  1.
<mgrwt>
<rscale>  2 0.19839755E+03</rscale>
<asrwt>0</asrwt>
<pdfrwt beam="2">  1        3 0.32862643E-01 0.19839755E+03</pdfrwt>
<pdfrwt beam="1">  1       -3 0.30778710E-01 0.19839755E+03</pdfrwt>
<totfact> 0.22596438E+02</totfact>
</mgrwt>
</event>
<event>
 4    1  0.8142558E-001  0.2584269E+03  0.7546771E-02  0.1108092E+00
         -3   -1    0    0    0  501 -0.00000000000E+00  0.00000000000E+00  0.40952727998E+03  0.40952727998E+03  0.00000000000E+00 0. -1.
          3   -1    0    0  502    0  0.00000000000E+00 -0.00000000000E+00 -0.30674237854E+03  0.30674237854E+03  0.00000000000E+00 0.  1.
          6    1    1    2  502    0  0.12712178210E+03 -0.14385934655E+03  0.29648821587E+03  0.39330614186E+03  0.17300000000E+03 0. -1.
         -6    1    1    2    0  501 -0.12712178210E+03  0.14385934655E+03 -0.19370331443E+03  0.32296351666E+03  0.17300000000E+03 0.  1.
<mgrwt>
<rscale>  2 0.25842689E+03</rscale>
<asrwt>0</asrwt>
<pdfrwt beam="2">  1        3 0.47191135E-01 0.25842689E+03</pdfrwt>
<pdfrwt beam="1">  1       -3 0.63004197E-01 0.25842689E+03</pdfrwt>
<totfact> 0.27661353E+01</totfact>
</mgrwt>
</event>
<event>
 4    1  0.8142558E-001  0.2563659E+03  0.7546771E-02  0.1109347E+00
         -2   -1    0    0    0  501 -0.00000000000E+00  0.00000000000E+00  0.33620978524E+02  0.33620978524E+02  0.00000000000E+00 0.  1.
          2   -1    0    0  502    0  0.00000000000E+00 -0.00000000000E+00 -0.21225870322E+04  0.21225870322E+04  0.00000000000E+00 0. -1.
          6    1    1    2  502    0  0.13193495385E+03 -0.13560096633E+03 -0.13475664903E+04  0.13717357252E+04  0.17300000000E+03 0. -1.
         -6    1    1    2    0  501 -0.13193495385E+03  0.13560096633E+03 -0.74139956338E+03  0.78447228549E+03  0.17300000000E+03 0.  1.
<mgrwt>
<rscale>  2 0.25636586E+03</rscale>
<asrwt>0</asrwt>
<pdfrwt beam="2">  1        2 0.32655187E+00 0.25636586E+03</pdfrwt>
<pdfrwt beam="1">  1       -2 0.51724579E-02 0.25636586E+03</pdfrwt>
<totfact> 0.11919185E+03</totfact>
</mgrwt>
</event>
<event>
 4    1  0.8142558E-001  0.2201795E+03  0.7546771E-02  0.1133749E+00
         -2   -1    0    0    0  501 -0.00000000000E+00  0.00000000000E+00  0.35826598895E+03  0.35826598895E+03  0.00000000000E+00 0.  1.
          2   -1    0    0  502    0  0.00000000000E+00 -0.00000000000E+00 -0.19359095226E+03  0.19359095226E+03  0.00000000000E+00 0. -1.
          6    1    1    2  502    0  0.21726039647E+02 -0.13445441472E+03  0.23372713675E+03  0.32110338661E+03  0.17300000000E+03 0.  1.
         -6    1    1    2    0  501 -0.21726039647E+02  0.13445441472E+03 -0.69052100057E+02  0.23075355460E+03  0.17300000000E+03 0. -1.
<mgrwt>
<rscale>  2 0.22017950E+03</rscale>
<asrwt>0</asrwt>
<pdfrwt beam="2">  1        2 0.29783223E-01 0.22017950E+03</pdfrwt>
<pdfrwt beam="1">  1       -2 0.55117844E-01 0.22017950E+03</pdfrwt>
<totfact> 0.55802508E+02</totfact>
</mgrwt>
</event>
<event>
 4    1  0.8142558E-001  0.1813914E+03  0.7546771E-02  0.1166463E+00
         -3   -1    0    0    0  501 -0.00000000000E+00  0.00000000000E+00  0.35921265242E+03  0.35921265242E+03  0.00000000000E+00 0. -1.
          3   -1    0    0  502    0  0.00000000000E+00 -0.00000000000E+00 -0.13000344796E+03  0.13000344796E+03  0.00000000000E+00 0.  1.
          6    1    1    2  502    0 -0.54523306753E+02 -0.10289663732E+01 -0.18347319675E+02  0.18231695996E+03  0.17300000000E+03 0.  1.
         -6    1    1    2    0  501  0.54523306753E+02  0.10289663732E+01  0.24755652414E+03  0.30689914042E+03  0.17300000000E+03 0. -1.
<mgrwt>
<rscale>  2 0.18139143E+03</rscale>
<asrwt>0</asrwt>
<pdfrwt beam="2">  1        3 0.20000531E-01 0.18139143E+03</pdfrwt>
<pdfrwt beam="1">  1       -3 0.55263485E-01 0.18139143E+03</pdfrwt>
<totfact> 0.17690160E+02</totfact>
</mgrwt>
</event>
<event>
 4    1  0.8142558E-001  0.1909210E+03  0.7546771E-02  0.1157633E+00
          2   -1    0    0  502    0  0.00000000000E+00  0.00000000000E+00  0.79053879993E+03  0.79053879993E+03  0.00000000000E+00 0. -1.
         -2   -1    0    0    0  501 -0.00000000000E+00 -0.00000000000E+00 -0.47031010108E+02  0.47031010108E+02  0.00000000000E+00 0.  1.
          6    1    1    2  502    0  0.44370530137E+02  0.67476458630E+02  0.31311205995E+03  0.36672875330E+03  0.17300000000E+03 0.  1.
         -6    1    1    2    0  501 -0.44370530137E+02 -0.67476458630E+02  0.43039572987E+03  0.47084105673E+03  0.17300000000E+03 0. -1.
<mgrwt>
<rscale>  2 0.19092097E+03</rscale>
<asrwt>0</asrwt>
<pdfrwt beam="1">  1        2 0.12162134E+00 0.19092097E+03</pdfrwt>
<pdfrwt beam="2">  1       -2 0.72355406E-02 0.19092097E+03</pdfrwt>
<totfact> 0.39356944E+03</totfact>
</mgrwt>
</event>
<event>
 4    1  0.8142558E-001  0.2291596E+03  0.7546771E-02  0.1127233E+00
         -1   -1    0    0    0  501 -0.00000000000E+00  0.00000000000E+00  0.22256189780E+03  0.22256189780E+03  0.00000000000E+00 0.  1.
          1   -1    0    0  502    0  0.00000000000E+00 -0.00000000000E+00 -0.24273129240E+03  0.24273129240E+03  0.00000000000E+00 0. -1.
          6    1    1    2  502    0 -0.96716585434E+02 -0.11502628073E+03  0.28792467660E+02  0.23096135900E+03  0.17300000000E+03 0.  1.
         -6    1    1    2    0  501  0.96716585434E+02  0.11502628073E+03 -0.48961862259E+02  0.23433183120E+03  0.17300000000E+03 0. -1.
<mgrwt>
<rscale>  2 0.22915965E+03</rscale>
<asrwt>0</asrwt>
<pdfrwt beam="2">  1        1 0.37343276E-01 0.22915965E+03</pdfrwt>
<pdfrwt beam="1">  1       -1 0.34240292E-01 0.22915965E+03</pdfrwt>
<totfact> 0.93186768E+02</totfact>
</mgrwt>
</event>
<event>
 4    1  0.8142558E-001  0.1914582E+03  0.7546771E-02  0.1157153E+00
          2   -1    0    0  502    0  0.00000000000E+00  0.00000000000E+00  0.70036255489E+03  0.70036255489E+03  0.00000000000E+00 0. -1.
         -2   -1    0    0    0  501 -0.00000000000E+00 -0.00000000000E+00 -0.58100030735E+02  0.58100030735E+02  0.00000000000E+00 0.  1.
          6    1    1    2  502    0  0.40566866373E+02  0.71285130766E+02  0.20171376114E+03  0.27810911878E+03  0.17300000000E+03 0.  1.
         -6    1    1    2    0  501 -0.40566866373E+02 -0.71285130766E+02  0.44054876302E+03  0.48035346685E+03  0.17300000000E+03 0. -1.
<mgrwt>
<rscale>  2 0.19145820E+03</rscale>
<asrwt>0</asrwt>
<pdfrwt beam="1">  1        2 0.10774808E+00 0.19145820E+03</pdfrwt>
<pdfrwt beam="2">  1       -2 0.89384667E-02 0.19145820E+03</pdfrwt>
<totfact> 0.32862833E+03</totfact>
</mgrwt>
</event>
<event>
 4    1  0.8142558E-001  0.3120477E+03  0.7546771E-02  0.1079368E+00
         -2   -1    0    0    0  501 -0.00000000000E+00  0.00000000000E+00  0.77299767143E+03  0.77299767143E+03  0.00000000000E+00 0. -1.
          2   -1    0    0  502    0  0.00000000000E+00 -0.00000000000E+00 -0.18260692185E+03  0.18260692185E+03  0.00000000000E+00 0.  1.
          6    1    1    2  502    0  0.77890040442E+02  0.24774568803E+03  0.29096481496E+02  0.31340132350E+03  0.17300000000E+03 0. -1.
         -6    1    1    2    0  501 -0.77890040442E+02 -0.24774568803E+03  0.56129426808E+03  0.64220326978E+03  0.17300000000E+03 0. -1.
<mgrwt>
<rscale>  2 0.31204773E+03</rscale>
<asrwt>0</asrwt>
<pdfrwt beam="2">  1        2 0.28093373E-01 0.31204773E+03</pdfrwt>
<pdfrwt beam="1">  1       -2 0.11892272E+00 0.31204773E+03</pdfrwt>
<totfact> 0.10745466E+02</totfact>
</mgrwt>
</event>
<event>
 4    1  0.8142558E-001  0.1780572E+03  0.7546771E-02  0.1169697E+00
          1   -1    0    0  502    0  0.00000000000E+00  0.00000000000E+00  0.64103851291E+03  0.64103851291E+03  0.00000000000E+00 0. -1.
         -1   -1    0    0    0  501 -0.00000000000E+00 -0.00000000000E+00 -0.55663181583E+02  0.55663181583E+02  0.00000000000E+00 0.  1.
          6    1    1    2  502    0 -0.36917875834E+02  0.20308963673E+02  0.17637807658E+03  0.25062643408E+03  0.17300000000E+03 0.  1.
         -6    1    1    2    0  501  0.36917875834E+02 -0.20308963673E+02  0.40899725475E+03  0.44607526041E+03  0.17300000000E+03 0. -1.
<mgrwt>
<rscale>  2 0.17805725E+03</rscale>
<asrwt>0</asrwt>
<pdfrwt beam="1">  1        1 0.98621305E-01 0.17805725E+03</pdfrwt>
<pdfrwt beam="2">  1       -1 0.85635668E-02 0.17805725E+03</pdfrwt>
<totfact> 0.24547079E+03</totfact>
</mgrwt>
</event>
<event>
 4    1  0.8142558E-001  0.1878503E+03  0.7546771E-02  0.1160415E+00
          1   -1    0    0  502    0  0.00000000000E+00  0.00000000000E+00  0.10705796665E+04  0.10705796665E+04  0.00000000000E+00 0. -1.
         -1   -1    0    0    0  501 -0.00000000000E+00 -0.00000000000E+00 -0.37872727931E+02  0.37872727931E+02  0.00000000000E+00 0.  1.
          6    1    1    2  502    0  0.18763642921E+01  0.73179382717E+02  0.31676944471E+03  0.36828063199E+03  0.17300000000E+03 0.  1.
         -6    1    1    2    0  501 -0.18763642921E+01 -0.73179382717E+02  0.71593749384E+03  0.74017176242E+03  0.17300000000E+03 0. -1.
<mgrwt>
<rscale>  2 0.18785032E+03</rscale>
<asrwt>0</asrwt>
<pdfrwt beam="1">  1        1 0.16470454E+00 0.18785032E+03</pdfrwt>
<pdfrwt beam="2">  1       -1 0.58265744E-02 0.18785032E+03</pdfrwt>
<totfact> 0.19743426E+03</totfact>
</mgrwt>
</event>
<event>
 4    1  0.8142558E-001  0.2118982E+03  0.7546771E-02  0.1140072E+00
          2   -1    0    0  502    0  0.00000000000E+00  0.00000000000E+00  0.12340730842E+04  0.12340730842E+04  0.00000000000E+00 0. -1.
         -2   -1    0    0    0  501 -0.00000000000E+00 -0.00000000000E+00 -0.36461265146E+02  0.36461265146E+02  0.00000000000E+00 0.  1.
          6    1    1    2  502    0 -0.23086030450E+02 -0.12016190832E+03  0.56961345712E+03  0.60775022793E+03  0.17300000000E+03 0.  1.
         -6    1    1    2    0  501  0.23086030450E+02  0.12016190832E+03  0.62799836190E+03  0.66278412138E+03  0.17300000000E+03 0. -1.
<mgrwt>
<rscale>  2 0.21189820E+03</rscale>
<asrwt>0</asrwt>
<pdfrwt beam="1">  1        2 0.18985737E+00 0.21189820E+03</pdfrwt>
<pdfrwt beam="2">  1       -2 0.56094263E-02 0.21189820E+03</pdfrwt>
<totfact> 0.31258880E+03</totfact>
</mgrwt>
</event>
<event>
 4    1  0.8142558E-001  0.1757390E+03  0.7546771E-02  0.1171992E+00
         -2   -1    0    0    0  501 -0.00000000000E+00  0.00000000000E+00  0.24914580825E+03  0.24914580825E+03  0.00000000000E+00 0. -1.
          2   -1    0    0  502    0  0.00000000000E+00 -0.00000000000E+00 -0.13242453782E+03  0.13242453782E+03  0.00000000000E+00 0.  1.
          6    1    1    2  502    0 -0.30499851336E+02 -0.49949545861E+01  0.10659473475E+03  0.20553984523E+03  0.17300000000E+03 0. -1.
         -6    1    1    2    0  501  0.30499851336E+02  0.49949545861E+01  0.10126535686E+02  0.17603050085E+03  0.17300000000E+03 0.  1.
<mgrwt>
<rscale>  2 0.17573898E+03</rscale>
<asrwt>0</asrwt>
<pdfrwt beam="2">  1        2 0.20373006E-01 0.17573898E+03</pdfrwt>
<pdfrwt beam="1">  1       -2 0.38330124E-01 0.17573898E+03</pdfrwt>
<totfact> 0.17287670E+03</totfact>
</mgrwt>
</event>
<event>
 4    1  0.8142558E-001  0.2570185E+03  0.7546771E-02  0.1108948E+00
          2   -1    0    0  502    0  0.00000000000E+00  0.00000000000E+00  0.13414587525E+04  0.13414587525E+04  0.00000000000E+00 0. -1.
         -2   -1    0    0    0  501 -0.00000000000E+00 -0.00000000000E+00 -0.62537988787E+02  0.62537988787E+02  0.00000000000E+00 0.  1.
          6    1    1    2  502    0 -0.17974653024E+03 -0.61811847037E+02  0.31579581739E+03  0.40716767781E+03  0.17300000000E+03 0.  1.
         -6    1    1    2    0  501  0.17974653024E+03  0.61811847037E+02  0.96312494629E+03  0.99682906345E+03  0.17300000000E+03 0. -1.
<mgrwt>
<rscale>  2 0.25701852E+03</rscale>
<asrwt>0</asrwt>
<pdfrwt beam="1">  1        2 0.20637825E+00 0.25701852E+03</pdfrwt>
<pdfrwt beam="2">  1       -2 0.96212301E-02 0.25701852E+03</pdfrwt>
<totfact> 0.11771076E+03</totfact>
</mgrwt>
</event>
<event>
 4    1  0.8142558E-001  0.2366868E+03  0.7546771E-02  0.1122020E+00
          1   -1    0    0  502    0  0.00000000000E+00  0.00000000000E+00  0.24076361645E+04  0.24076361645E+04  0.00000000000E+00 0.  1.
         -1   -1    0    0    0  501 -0.00000000000E+00 -0.00000000000E+00 -0.23660973132E+02  0.23660973132E+02  0.00000000000E+00 0. -1.
          6    1    1    2  502    0 -0.16150190668E+03  0.29658544989E+01  0.10353042751E+04  0.10620148795E+04  0.17300000000E+03 0. -1.
         -6    1    1    2    0  501  0.16150190668E+03 -0.29658544989E+01  0.13486709162E+04  0.13692822581E+04  0.17300000000E+03 0.  1.
<mgrwt>
<rscale>  2 0.23668684E+03</rscale>
<asrwt>0</asrwt>
<pdfrwt beam="1">  1        1 0.37040537E+00 0.23668684E+03</pdfrwt>
<pdfrwt beam="2">  1       -1 0.36401516E-02 0.23668684E+03</pdfrwt>
<totfact> 0.51956437E+02</totfact>
</mgrwt>
</event>
<event>
 4    1  0.8142558E-001  0.1749397E+03  0.7546771E-02  0.1172792E+00
         -1   -1    0    0    0  501 -0.00000000000E+00  0.00000000000E+00  0.10781335997E+02  0.10781335997E+02  0.00000000000E+00 0. -1.
          1   -1    0    0  502    0  0.00000000000E+00 -0.00000000000E+00 -0.32903568526E+04  0.32903568526E+04  0.00000000000E+00 0.  1.
          6    1    1    2  502    0 -0.14865297003E+02 -0.21305366051E+02 -0.22513839769E+04  0.22581704336E+04  0.17300000000E+03 0.  1.
         -6    1    1    2    0  501  0.14865297003E+02  0.21305366051E+02 -0.10281915397E+04  0.10429677550E+04  0.17300000000E+03 0. -1.
<mgrwt>
<rscale>  2 0.17493969E+03</rscale>
<asrwt>0</asrwt>
<pdfrwt beam="2">  1        1 0.50620862E+00 0.17493969E+03</pdfrwt>
<pdfrwt beam="1">  1       -1 0.16586675E-02 0.17493969E+03</pdfrwt>
<totfact> 0.41403147E+02</totfact>
</mgrwt>
</event>
<event>
 4    1  0.8142558E-001  0.2282749E+03  0.7546771E-02  0.1127860E+00
          2   -1    0    0  502    0  0.00000000000E+00  0.00000000000E+00  0.17399236541E+04  0.17399236541E+04  0.00000000000E+00 0. -1.
         -2   -1    0    0    0  501 -0.00000000000E+00 -0.00000000000E+00 -0.70630242770E+02  0.70630242770E+02  0.00000000000E+00 0.  1.
          6    1    1    2  502    0 -0.25947303858E+02 -0.14665326877E+03  0.15216863143E+04  0.15387133206E+04  0.17300000000E+03 0. -1.
         -6    1    1    2    0  501  0.25947303858E+02  0.14665326877E+03  0.14760709702E+03  0.27184057628E+03  0.17300000000E+03 0.  1.
<mgrwt>
<rscale>  2 0.22827493E+03</rscale>
<asrwt>0</asrwt>
<pdfrwt beam="1">  1        2 0.26768053E+00 0.22827493E+03</pdfrwt>
<pdfrwt beam="2">  1       -2 0.10866193E-01 0.22827493E+03</pdfrwt>
<totfact> 0.59629165E+02</totfact>
</mgrwt>
</event>
<event>
 4    1  0.8142558E-001  0.2284653E+03  0.7546771E-02  0.1127725E+00
          2   -1    0    0  502    0  0.00000000000E+00  0.00000000000E+00  0.30839255231E+03  0.30839255231E+03  0.00000000000E+00 0. -1.
         -2   -1    0    0    0  501 -0.00000000000E+00 -0.00000000000E+00 -0.17209750707E+03  0.17209750707E+03  0.00000000000E+00 0.  1.
          6    1    1    2  502    0  0.12203664048E+03 -0.85874679862E+02  0.37261547170E+02  0.23148396307E+03  0.17300000000E+03 0.  1.
         -6    1    1    2    0  501 -0.12203664048E+03  0.85874679862E+02  0.99033498076E+02  0.24900609631E+03  0.17300000000E+03 0. -1.
<mgrwt>
<rscale>  2 0.22846532E+03</rscale>
<asrwt>0</asrwt>
<pdfrwt beam="1">  1        2 0.47445008E-01 0.22846532E+03</pdfrwt>
<pdfrwt beam="2">  1       -2 0.26476540E-01 0.22846532E+03</pdfrwt>
<totfact> 0.13564288E+03</totfact>
</mgrwt>
</event>
<event>
 4    1  0.8142558E-001  0.2259439E+03  0.7546771E-02  0.1129528E+00
         -1   -1    0    0    0  501 -0.00000000000E+00  0.00000000000E+00  0.22137863533E+03  0.22137863533E+03  0.00000000000E+00 0. -1.
          1   -1    0    0  502    0  0.00000000000E+00 -0.00000000000E+00 -0.23995295250E+03  0.23995295250E+03  0.00000000000E+00 0.  1.
          6    1    1    2  502    0 -0.50244317115E+02 -0.13637145302E+03  0.36244734352E+02  0.22883257061E+03  0.17300000000E+03 0. -1.
         -6    1    1    2    0  501  0.50244317115E+02  0.13637145302E+03 -0.54819051522E+02  0.23249901723E+03  0.17300000000E+03 0.  1.
<mgrwt>
<rscale>  2 0.22594394E+03</rscale>
<asrwt>0</asrwt>
<pdfrwt beam="2">  1        1 0.36915838E-01 0.22594394E+03</pdfrwt>
<pdfrwt beam="1">  1       -1 0.34058252E-01 0.22594394E+03</pdfrwt>
<totfact> 0.95406943E+02</totfact>
</mgrwt>
</event>
<event>
 4    1  0.8142558E-001  0.2070458E+03  0.7546771E-02  0.1143927E+00
         -2   -1    0    0    0  501 -0.00000000000E+00  0.00000000000E+00  0.33816731705E+02  0.33816731705E+02  0.00000000000E+00 0. -1.
          2   -1    0    0  502    0  0.00000000000E+00 -0.00000000000E+00 -0.15036176557E+04  0.15036176557E+04  0.00000000000E+00 0.  1.
          6    1    1    2  502    0  0.38383285203E+02 -0.10707796653E+03 -0.10394227061E+04  0.10598431627E+04  0.17300000000E+03 0.  1.
         -6    1    1    2    0  501 -0.38383285203E+02  0.10707796653E+03 -0.43037821781E+03  0.47759122465E+03  0.17300000000E+03 0.  1.
<mgrwt>
<rscale>  2 0.20704581E+03</rscale>
<asrwt>0</asrwt>
<pdfrwt beam="2">  1        2 0.23132579E+00 0.20704581E+03</pdfrwt>
<pdfrwt beam="1">  1       -2 0.52025741E-02 0.20704581E+03</pdfrwt>
<totfact> 0.25029998E+03</totfact>
</mgrwt>
</event>
<event>
 4    1  0.8142558E-001  0.1786440E+03  0.7546771E-02  0.1169122E+00
          2   -1    0    0  502    0  0.00000000000E+00  0.00000000000E+00  0.10303979010E+04  0.10303979010E+04  0.00000000000E+00 0.  1.
         -2   -1    0    0    0  501 -0.00000000000E+00 -0.00000000000E+00 -0.31270084534E+02  0.31270084534E+02  0.00000000000E+00 0. -1.
          6    1    1    2  502    0 -0.44171423134E+02 -0.57941341760E+01  0.44775308660E+03  0.48207521527E+03  0.17300000000E+03 0. -1.
         -6    1    1    2    0  501  0.44171423134E+02  0.57941341760E+01  0.55137472982E+03  0.57959277022E+03  0.17300000000E+03 0. -1.
<mgrwt>
<rscale>  2 0.17864402E+03</rscale>
<asrwt>0</asrwt>
<pdfrwt beam="1">  1        2 0.15852273E+00 0.17864402E+03</pdfrwt>
<pdfrwt beam="2">  1       -2 0.48107830E-02 0.17864402E+03</pdfrwt>
<totfact> 0.51497724E+03</totfact>
</mgrwt>
</event>
<event>
 4    1  0.8142558E-001  0.2131859E+03  0.7546771E-02  0.1139068E+00
         -2   -1    0    0    0  501 -0.00000000000E+00  0.00000000000E+00  0.27986314676E+03  0.27986314676E+03  0.00000000000E+00 0. -1.
          2   -1    0    0  502    0  0.00000000000E+00 -0.00000000000E+00 -0.35878693057E+03  0.35878693057E+03  0.00000000000E+00 0.  1.
          6    1    1    2  502    0 -0.85501439168E+02  0.90602027136E+02 -0.27571475887E+03  0.34852094869E+03  0.17300000000E+03 0.  1.
         -6    1    1    2    0  501  0.85501439168E+02 -0.90602027136E+02  0.19679097506E+03  0.29012912864E+03  0.17300000000E+03 0. -1.
<mgrwt>
<rscale>  2 0.21318589E+03</rscale>
<asrwt>0</asrwt>
<pdfrwt beam="2">  1        2 0.55197989E-01 0.21318589E+03</pdfrwt>
<pdfrwt beam="1">  1       -2 0.43055869E-01 0.21318589E+03</pdfrwt>
<totfact> 0.46733011E+02</totfact>
</mgrwt>
</event>
<event>
 4    1  0.8142558E-001  0.2403924E+03  0.7546771E-02  0.1119532E+00
         -1   -1    0    0    0  501 -0.00000000000E+00  0.00000000000E+00  0.13755608822E+03  0.13755608822E+03  0.00000000000E+00 0. -1.
          1   -1    0    0  502    0  0.00000000000E+00 -0.00000000000E+00 -0.88510612263E+03  0.88510612263E+03  0.00000000000E+00 0.  1.
          6    1    1    2  502    0  0.16655609962E+03 -0.10889912575E+02 -0.31542406325E+01  0.24041313140E+03  0.17300000000E+03 0. -1.
         -6    1    1    2    0  501 -0.16655609962E+03  0.10889912575E+02 -0.74439579377E+03  0.78224907945E+03  0.17300000000E+03 0.  1.
<mgrwt>
<rscale>  2 0.24039244E+03</rscale>
<asrwt>0</asrwt>
<pdfrwt beam="2">  1        1 0.13617017E+00 0.24039244E+03</pdfrwt>
<pdfrwt beam="1">  1       -1 0.21162476E-01 0.24039244E+03</pdfrwt>
<totfact> 0.36432409E+02</totfact>
</mgrwt>
</event>
<event>
 4    1  0.8142558E-001  0.1949408E+03  0.7546771E-02  0.1154079E+00
         -2   -1    0    0    0  501 -0.00000000000E+00  0.00000000000E+00  0.33502109579E+02  0.33502109579E+02  0.00000000000E+00 0.  1.
          2   -1    0    0  502    0  0.00000000000E+00 -0.00000000000E+00 -0.17209134017E+04  0.17209134017E+04  0.00000000000E+00 0. -1.
          6    1    1    2  502    0  0.86027104717E+02  0.25927860105E+02 -0.33155973493E+03  0.38462159911E+03  0.17300000000E+03 0.  1.
         -6    1    1    2    0  501 -0.86027104717E+02 -0.25927860105E+02 -0.13558515572E+04  0.13697939122E+04  0.17300000000E+03 0. -1.
<mgrwt>
<rscale>  2 0.19494080E+03</rscale>
<asrwt>0</asrwt>
<pdfrwt beam="2">  1        2 0.26475597E+00 0.19494080E+03</pdfrwt>
<pdfrwt beam="1">  1       -2 0.51541695E-02 0.19494080E+03</pdfrwt>
<totfact> 0.19534000E+03</totfact>
</mgrwt>
</event>
<event>
 4    1  0.8142558E-001  0.1823612E+03  0.7546771E-02  0.1165537E+00
          1   -1    0    0  502    0  0.00000000000E+00  0.00000000000E+00  0.12001012958E+03  0.12001012958E+03  0.00000000000E+00 0. -1.
         -1   -1    0    0    0  501 -0.00000000000E+00 -0.00000000000E+00 -0.39389844943E+03  0.39389844943E+03  0.00000000000E+00 0.  1.
          6    1    1    2  502    0 -0.56470850053E+02  0.11732769079E+02 -0.27686092625E+03  0.33152313232E+03  0.17300000000E+03 0.  1.
         -6    1    1    2    0  501  0.56470850053E+02 -0.11732769079E+02  0.29726063990E+01  0.18238544669E+03  0.17300000000E+03 0. -1.
<mgrwt>
<rscale>  2 0.18236122E+03</rscale>
<asrwt>0</asrwt>
<pdfrwt beam="1">  1        1 0.18463097E-01 0.18236122E+03</pdfrwt>
<pdfrwt beam="2">  1       -1 0.60599761E-01 0.18236122E+03</pdfrwt>
<totfact> 0.80559638E+02</totfact>
</mgrwt>
</event>
<event>
 4    1  0.8142558E-001  0.1979646E+03  0.7546771E-02  0.1151468E+00
          2   -1    0    0  502    0  0.00000000000E+00  0.00000000000E+00  0.14193345425E+04  0.14193345425E+04  0.00000000000E+00 0. -1.
         -2   -1    0    0    0  501 -0.00000000000E+00 -0.00000000000E+00 -0.27843352024E+02  0.27843352024E+02  0.00000000000E+00 0.  1.
          6    1    1    2  502    0 -0.86897587619E+02 -0.41349452268E+02  0.62971753342E+03  0.66010161327E+03  0.17300000000E+03 0.  1.
         -6    1    1    2    0  501  0.86897587619E+02  0.41349452268E+02  0.76177365704E+03  0.78707628124E+03  0.17300000000E+03 0. -1.
<mgrwt>
<rscale>  2 0.19796456E+03</rscale>
<asrwt>0</asrwt>
<pdfrwt beam="1">  1        2 0.21835910E+00 0.19796456E+03</pdfrwt>
<pdfrwt beam="2">  1       -2 0.42835937E-02 0.19796456E+03</pdfrwt>
<totfact> 0.37226878E+03</totfact>
</mgrwt>
</event>
<event>
 4    1  0.8142558E-001  0.2136684E+03  0.7546771E-02  0.1138693E+00
         -2   -1    0    0    0  501 -0.00000000000E+00  0.00000000000E+00  0.33592486238E+02  0.33592486238E+02  0.00000000000E+00 0.  1.
          2   -1    0    0  502    0  0.00000000000E+00 -0.00000000000E+00 -0.14009399252E+04  0.14009399252E+04  0.00000000000E+00 0. -1.
          6    1    1    2  502    0  0.11898256791E+03  0.39602240465E+02 -0.80768921218E+03  0.83547354978E+03  0.17300000000E+03 0. -1.
         -6    1    1    2    0  501 -0.11898256791E+03 -0.39602240465E+02 -0.55965822674E+03  0.59905886161E+03  0.17300000000E+03 0.  1.
<mgrwt>
<rscale>  2 0.21366841E+03</rscale>
<asrwt>0</asrwt>
<pdfrwt beam="2">  1        2 0.21552922E+00 0.21366841E+03</pdfrwt>
<pdfrwt beam="1">  1       -2 0.51680747E-02 0.21366841E+03</pdfrwt>
<totfact> 0.28693004E+03</totfact>
</mgrwt>
</event>
<event>
 4    1  0.8142558E-001  0.1738820E+03  0.7546771E-02  0.1173859E+00
          2   -1    0    0  502    0  0.00000000000E+00  0.00000000000E+00  0.71866714458E+03  0.71866714458E+03  0.00000000000E+00 0.  1.
         -2   -1    0    0    0  501 -0.00000000000E+00 -0.00000000000E+00 -0.83009799820E+02  0.83009799820E+02  0.00000000000E+00 0. -1.
          6    1    1    2  502    0 -0.44854713508E+01 -0.16906724584E+02  0.36332222268E+02  0.17763723474E+03  0.17300000000E+03 0. -1.
         -6    1    1    2    0  501  0.44854713508E+01  0.16906724584E+02  0.59932512249E+03  0.62403970967E+03  0.17300000000E+03 0.  1.
<mgrwt>
<rscale>  2 0.17388202E+03</rscale>
<asrwt>0</asrwt>
<pdfrwt beam="1">  1        2 0.11056417E+00 0.17388202E+03</pdfrwt>
<pdfrwt beam="2">  1       -2 0.12770739E-01 0.17388202E+03</pdfrwt>
<totfact> 0.18012387E+03</totfact>
</mgrwt>
</event>
<event>
 4    1  0.8142558E-001  0.2283396E+03  0.7546771E-02  0.1127814E+00
          3   -1    0    0  502    0  0.00000000000E+00  0.00000000000E+00  0.16080444874E+03  0.16080444874E+03  0.00000000000E+00 0. -1.
         -3   -1    0    0    0  501 -0.00000000000E+00 -0.00000000000E+00 -0.11684154454E+04  0.11684154454E+04  0.00000000000E+00 0.  1.
          6    1    1    2  502    0 -0.14680149559E+03 -0.25676567461E+02 -0.10687229363E+04  0.10928438496E+04  0.17300000000E+03 0.  1.
         -6    1    1    2    0  501  0.14680149559E+03  0.25676567461E+02  0.61111939646E+02  0.23637604445E+03  0.17300000000E+03 0. -1.
<mgrwt>
<rscale>  2 0.22833958E+03</rscale>
<asrwt>0</asrwt>
<pdfrwt beam="1">  1        3 0.24739145E-01 0.22833958E+03</pdfrwt>
<pdfrwt beam="2">  1       -3 0.17975623E+00 0.22833958E+03</pdfrwt>
<totfact> 0.80449840E+00</totfact>
</mgrwt>
</event>
<event>
 4    1  0.8142558E-001  0.1923094E+03  0.7546771E-02  0.1156395E+00
         -1   -1    0    0    0  501 -0.00000000000E+00  0.00000000000E+00  0.21489497906E+04  0.21489497906E+04  0.00000000000E+00 0.  1.
          1   -1    0    0  502    0  0.00000000000E+00 -0.00000000000E+00 -0.17664787858E+02  0.17664787858E+02  0.00000000000E+00 0. -1.
          6    1    1    2  502    0 -0.21837033918E+02 -0.81099056419E+02  0.12395089613E+04  0.12543386218E+04  0.17300000000E+03 0.  1.
         -6    1    1    2    0  501  0.21837033918E+02  0.81099056419E+02  0.89177604143E+03  0.91227595665E+03  0.17300000000E+03 0. -1.
<mgrwt>
<rscale>  2 0.19230942E+03</rscale>
<asrwt>0</asrwt>
<pdfrwt beam="2">  1        1 0.27176614E-02 0.19230942E+03</pdfrwt>
<pdfrwt beam="1">  1       -1 0.33060745E+00 0.19230942E+03</pdfrwt>
<totfact> 0.98232977E+01</totfact>
</mgrwt>
</event>
<event>
 4    1  0.8142558E-001  0.2834566E+03  0.7546771E-02  0.1093816E+00
          1   -1    0    0  502    0  0.00000000000E+00  0.00000000000E+00  0.42826673839E+03  0.42826673839E+03  0.00000000000E+00 0. -1.
         -1   -1    0    0    0  501 -0.00000000000E+00 -0.00000000000E+00 -0.18932680588E+03  0.18932680588E+03  0.00000000000E+00 0.  1.
          6    1    1    2  502    0  0.18145869326E+03  0.13225504830E+03  0.14886473238E+03  0.32016927352E+03  0.17300000000E+03 0. -1.
         -6    1    1    2    0  501 -0.18145869326E+03 -0.13225504830E+03  0.90075200129E+02  0.29742427076E+03  0.17300000000E+03 0.  1.
<mgrwt>
<rscale>  2 0.28345662E+03</rscale>
<asrwt>0</asrwt>
<pdfrwt beam="1">  1        1 0.65887190E-01 0.28345662E+03</pdfrwt>
<pdfrwt beam="2">  1       -1 0.29127201E-01 0.28345662E+03</pdfrwt>
<totfact> 0.59823671E+02</totfact>
</mgrwt>
</event>
<event>
 4    1  0.8142558E-001  0.2146643E+03  0.7546771E-02  0.1137925E+00
          2   -1    0    0  502    0  0.00000000000E+00  0.00000000000E+00  0.29768715434E+04  0.29768715434E+04  0.00000000000E+00 0.  1.
         -2   -1    0    0    0  501 -0.00000000000E+00 -0.00000000000E+00 -0.20446881440E+02  0.20446881440E+02  0.00000000000E+00 0. -1.
          6    1    1    2  502    0  0.78974631562E+02  0.99572886358E+02  0.22168801046E+04  0.22272490095E+04  0.17300000000E+03 0.  1.
         -6    1    1    2    0  501 -0.78974631562E+02 -0.99572886358E+02  0.73954455736E+03  0.77006941535E+03  0.17300000000E+03 0. -1.
<mgrwt>
<rscale>  2 0.21466428E+03</rscale>
<asrwt>0</asrwt>
<pdfrwt beam="1">  1        2 0.45797989E+00 0.21466428E+03</pdfrwt>
<pdfrwt beam="2">  1       -2 0.31456764E-02 0.21466428E+03</pdfrwt>
<totfact> 0.85859720E+02</totfact>
</mgrwt>
</event>
<event>
 4    1  0.8142558E-001  0.2149408E+03  0.7546771E-02  0.1137712E+00
          2   -1    0    0  502    0  0.00000000000E+00  0.00000000000E+00  0.28077057837E+04  0.28077057837E+04  0.00000000000E+00 0. -1.
         -2   -1    0    0    0  501 -0.00000000000E+00 -0.00000000000E+00 -0.17697795583E+02  0.17697795583E+02  0.00000000000E+00 0.  1.
          6    1    1    2  502    0  0.11456299703E+03  0.56087952813E+02  0.17694327117E+04  0.17824398055E+04  0.17300000000E+03 0. -1.
         -6    1    1    2    0  501 -0.11456299703E+03 -0.56087952813E+02  0.10205752764E+04  0.10429637738E+04  0.17300000000E+03 0.  1.
<mgrwt>
<rscale>  2 0.21494078E+03</rscale>
<asrwt>0</asrwt>
<pdfrwt beam="1">  1        2 0.43195438E+00 0.21494078E+03</pdfrwt>
<pdfrwt beam="2">  1       -2 0.27227400E-02 0.21494078E+03</pdfrwt>
<totfact> 0.13318044E+03</totfact>
</mgrwt>
</event>
<event>
 4    1  0.8142558E-001  0.2664557E+03  0.7546771E-02  0.1103325E+00
          2   -1    0    0  502    0  0.00000000000E+00  0.00000000000E+00  0.10733998066E+04  0.10733998066E+04  0.00000000000E+00 0. -1.
         -2   -1    0    0    0  501 -0.00000000000E+00 -0.00000000000E+00 -0.66914529197E+02  0.66914529197E+02  0.00000000000E+00 0.  1.
          6    1    1    2  502    0 -0.17690485662E+03  0.98865226619E+02  0.56443630682E+03  0.62416905225E+03  0.17300000000E+03 0.  1.
         -6    1    1    2    0  501  0.17690485662E+03 -0.98865226619E+02  0.44204897056E+03  0.51614528352E+03  0.17300000000E+03 0. -1.
<mgrwt>
<rscale>  2 0.26645574E+03</rscale>
<asrwt>0</asrwt>
<pdfrwt beam="1">  1        2 0.16513842E+00 0.26645574E+03</pdfrwt>
<pdfrwt beam="2">  1       -2 0.10294544E-01 0.26645574E+03</pdfrwt>
<totfact> 0.15012637E+03</totfact>
</mgrwt>
</event>
<event>
 4    1  0.8142558E-001  0.1822468E+03  0.7546771E-02  0.1165646E+00
         -2   -1    0    0    0  501 -0.00000000000E+00  0.00000000000E+00  0.36342323902E+03  0.36342323902E+03  0.00000000000E+00 0.  1.
          2   -1    0    0  502    0  0.00000000000E+00 -0.00000000000E+00 -0.95574270138E+02  0.95574270138E+02  0.00000000000E+00 0. -1.
          6    1    1    2  502    0 -0.78534805209E-01 -0.57313951845E+02  0.18193402059E+03  0.25751482111E+03  0.17300000000E+03 0. -1.
         -6    1    1    2    0  501  0.78534805209E-01  0.57313951845E+02  0.85914948298E+02  0.20148268805E+03  0.17300000000E+03 0. -1.
<mgrwt>
<rscale>  2 0.18224680E+03</rscale>
<asrwt>0</asrwt>
<pdfrwt beam="2">  1        2 0.14703734E-01 0.18224680E+03</pdfrwt>
<pdfrwt beam="1">  1       -2 0.55911267E-01 0.18224680E+03</pdfrwt>
<totfact> 0.12062039E+03</totfact>
</mgrwt>
</event>
<event>
 4    1  0.8142558E-001  0.1874737E+03  0.7546771E-02  0.1160760E+00
          1   -1    0    0  502    0  0.00000000000E+00  0.00000000000E+00  0.35125149736E+03  0.35125149736E+03  0.00000000000E+00 0.  1.
         -1   -1    0    0    0  501 -0.00000000000E+00 -0.00000000000E+00 -0.14496874546E+03  0.14496874546E+03  0.00000000000E+00 0. -1.
          6    1    1    2  502    0 -0.38873413896E+02  0.60878955334E+02 -0.34951249125E+02  0.19070390485E+03  0.17300000000E+03 0. -1.
         -6    1    1    2    0  501  0.38873413896E+02 -0.60878955334E+02  0.24123400103E+03  0.30551633797E+03  0.17300000000E+03 0.  1.
<mgrwt>
<rscale>  2 0.18747370E+03</rscale>
<asrwt>0</asrwt>
<pdfrwt beam="1">  1        1 0.54038692E-01 0.18747370E+03</pdfrwt>
<pdfrwt beam="2">  1       -1 0.22302884E-01 0.18747370E+03</pdfrwt>
<totfact> 0.12018765E+03</totfact>
</mgrwt>
</event>
<event>
 4    1  0.8142558E-001  0.2329903E+03  0.7546771E-02  0.1124553E+00
          1   -1    0    0  502    0  0.00000000000E+00  0.00000000000E+00  0.18666339329E+03  0.18666339329E+03  0.00000000000E+00 0. -1.
         -1   -1    0    0    0  501 -0.00000000000E+00 -0.00000000000E+00 -0.30778017330E+03  0.30778017330E+03  0.00000000000E+00 0.  1.
          6    1    1    2  502    0  0.43268206132E+02 -0.14994439163E+03 -0.25154452600E+01  0.23300383196E+03  0.17300000000E+03 0. -1.
         -6    1    1    2    0  501 -0.43268206132E+02  0.14994439163E+03 -0.11860133475E+03  0.26143973464E+03  0.17300000000E+03 0. -1.
<mgrwt>
<rscale>  2 0.23299025E+03</rscale>
<asrwt>0</asrwt>
<pdfrwt beam="1">  1        1 0.28717445E-01 0.23299025E+03</pdfrwt>
<pdfrwt beam="2">  1       -1 0.47350796E-01 0.23299025E+03</pdfrwt>
<totfact> 0.72902122E+02</totfact>
</mgrwt>
</event>
<event>
 4    1  0.8142558E-001  0.1903922E+03  0.7546771E-02  0.1158108E+00
         -2   -1    0    0    0  501 -0.00000000000E+00  0.00000000000E+00  0.52538530375E+02  0.52538530375E+02  0.00000000000E+00 0.  1.
          2   -1    0    0  502    0  0.00000000000E+00 -0.00000000000E+00 -0.96047595222E+03  0.96047595222E+03  0.00000000000E+00 0. -1.
          6    1    1    2  502    0  0.78390450564E+02 -0.13232861261E+02 -0.18515981690E+03  0.26558111595E+03  0.17300000000E+03 0.  1.
         -6    1    1    2    0  501 -0.78390450564E+02  0.13232861261E+02 -0.72277760495E+03  0.74743336664E+03  0.17300000000E+03 0. -1.
<mgrwt>
<rscale>  2 0.19039215E+03</rscale>
<asrwt>0</asrwt>
<pdfrwt beam="2">  1        2 0.14776553E+00 0.19039215E+03</pdfrwt>
<pdfrwt beam="1">  1       -2 0.80828506E-02 0.19039215E+03</pdfrwt>
<totfact> 0.25686736E+03</totfact>
</mgrwt>
</event>
<event>
 4    1  0.8142558E-001  0.1806625E+03  0.7546771E-02  0.1167163E+00
          1   -1    0    0  502    0  0.00000000000E+00  0.00000000000E+00  0.34172808198E+03  0.34172808198E+03  0.00000000000E+00 0.  1.
         -1   -1    0    0    0  501 -0.00000000000E+00 -0.00000000000E+00 -0.30583973292E+03  0.30583973292E+03  0.00000000000E+00 0. -1.
          6    1    1    2  502    0 -0.33545300790E+01  0.51949022174E+02 -0.25056375608E+03  0.30890313957E+03  0.17300000000E+03 0. -1.
         -6    1    1    2    0  501  0.33545300790E+01 -0.51949022174E+02  0.28645210514E+03  0.33866467533E+03  0.17300000000E+03 0.  1.
<mgrwt>
<rscale>  2 0.18066254E+03</rscale>
<asrwt>0</asrwt>
<pdfrwt beam="1">  1        1 0.52573551E-01 0.18066254E+03</pdfrwt>
<pdfrwt beam="2">  1       -1 0.47052266E-01 0.18066254E+03</pdfrwt>
<totfact> 0.34571376E+02</totfact>
</mgrwt>
</event>
<event>
 4    1  0.8142558E-001  0.1851855E+03  0.7546771E-02  0.1162877E+00
         -2   -1    0    0    0  501 -0.00000000000E+00  0.00000000000E+00  0.13226027826E+03  0.13226027826E+03  0.00000000000E+00 0. -1.
          2   -1    0    0  502    0  0.00000000000E+00 -0.00000000000E+00 -0.32671283648E+03  0.32671283648E+03  0.00000000000E+00 0.  1.
          6    1    1    2  502    0  0.30888465599E+02  0.58400109252E+02 -0.20147723250E+03  0.27365442675E+03  0.17300000000E+03 0.  1.
         -6    1    1    2    0  501 -0.30888465599E+02 -0.58400109252E+02  0.70246742779E+01  0.18531868798E+03  0.17300000000E+03 0. -1.
<mgrwt>
<rscale>  2 0.18518550E+03</rscale>
<asrwt>0</asrwt>
<pdfrwt beam="2">  1        2 0.50263513E-01 0.18518550E+03</pdfrwt>
<pdfrwt beam="1">  1       -2 0.20347735E-01 0.18518550E+03</pdfrwt>
<totfact> 0.20071827E+03</totfact>
</mgrwt>
</event>
<event>
 4    1  0.8142558E-001  0.2346252E+03  0.7546771E-02  0.1123426E+00
         -1   -1    0    0    0  501 -0.00000000000E+00  0.00000000000E+00  0.76915106578E+03  0.76915106578E+03  0.00000000000E+00 0.  1.
          1   -1    0    0  502    0  0.00000000000E+00 -0.00000000000E+00 -0.73918182917E+02  0.73918182917E+02  0.00000000000E+00 0. -1.
          6    1    1    2  502    0  0.72452156537E+02 -0.14096337856E+03  0.42273057792E+03  0.48347712520E+03  0.17300000000E+03 0.  1.
         -6    1    1    2    0  501 -0.72452156537E+02  0.14096337856E+03  0.27250230495E+03  0.35959212350E+03  0.17300000000E+03 0. -1.
<mgrwt>
<rscale>  2 0.23462521E+03</rscale>
<asrwt>0</asrwt>
<pdfrwt beam="2">  1        1 0.11372029E-01 0.23462521E+03</pdfrwt>
<pdfrwt beam="1">  1       -1 0.11833093E+00 0.23462521E+03</pdfrwt>
<totfact> 0.36971602E+02</totfact>
</mgrwt>
</event>
<event>
 4    1  0.8142558E-001  0.2612235E+03  0.7546771E-02  0.1106410E+00
          1   -1    0    0  502    0  0.00000000000E+00  0.00000000000E+00  0.17383088565E+04  0.17383088565E+04  0.00000000000E+00 0.  1.
         -1   -1    0    0    0  501 -0.00000000000E+00 -0.00000000000E+00 -0.43506681656E+02  0.43506681656E+02  0.00000000000E+00 0. -1.
          6    1    1    2  502    0 -0.14525800589E+03  0.13118249312E+03  0.11258995342E+04  0.11558059941E+04  0.17300000000E+03 0.  1.
         -6    1    1    2    0  501  0.14525800589E+03 -0.13118249312E+03  0.56890264063E+03  0.62600954409E+03  0.17300000000E+03 0. -1.
<mgrwt>
<rscale>  2 0.26122353E+03</rscale>
<asrwt>0</asrwt>
<pdfrwt beam="1">  1        1 0.26743208E+00 0.26122353E+03</pdfrwt>
<pdfrwt beam="2">  1       -1 0.66933370E-02 0.26122353E+03</pdfrwt>
<totfact> 0.56571971E+02</totfact>
</mgrwt>
</event>
<event>
 4    1  0.8142558E-001  0.3437156E+03  0.7546771E-02  0.1065224E+00
          1   -1    0    0  502    0  0.00000000000E+00  0.00000000000E+00  0.93324270655E+03  0.93324270655E+03  0.00000000000E+00 0.  1.
         -1   -1    0    0    0  501 -0.00000000000E+00 -0.00000000000E+00 -0.13372550185E+03  0.13372550185E+03  0.00000000000E+00 0. -1.
          6    1    1    2  502    0 -0.28337372296E+03 -0.88942220159E+02  0.27653673639E+03  0.44114958003E+03  0.17300000000E+03 0.  1.
         -6    1    1    2    0  501  0.28337372296E+03  0.88942220159E+02  0.52298046830E+03  0.62581862837E+03  0.17300000000E+03 0. -1.
<mgrwt>
<rscale>  2 0.34371556E+03</rscale>
<asrwt>0</asrwt>
<pdfrwt beam="1">  1        1 0.14357580E+00 0.34371556E+03</pdfrwt>
<pdfrwt beam="2">  1       -1 0.20573155E-01 0.34371556E+03</pdfrwt>
<totfact> 0.34592283E+02</totfact>
</mgrwt>
</event>
<event>
 4    1  0.8142558E-001  0.2271044E+03  0.7546771E-02  0.1128695E+00
          3   -1    0    0  502    0  0.00000000000E+00  0.00000000000E+00  0.58579374763E+03  0.58579374763E+03  0.00000000000E+00 0. -1.
         -3   -1    0    0    0  501 -0.00000000000E+00 -0.00000000000E+00 -0.97333744814E+02  0.97333744814E+02  0.00000000000E+00 0.  1.
          6    1    1    2  502    0  0.14708346507E+03 -0.37216735523E+01  0.13871574485E+03  0.26611736963E+03  0.17300000000E+03 0.  1.
         -6    1    1    2    0  501 -0.14708346507E+03  0.37216735523E+01  0.34974425796E+03  0.41701012281E+03  0.17300000000E+03 0. -1.
<mgrwt>
<rscale>  2 0.22710437E+03</rscale>
<asrwt>0</asrwt>
<pdfrwt beam="1">  1        3 0.90122113E-01 0.22710437E+03</pdfrwt>
<pdfrwt beam="2">  1       -3 0.14974423E-01 0.22710437E+03</pdfrwt>
<totfact> 0.10547104E+02</totfact>
</mgrwt>
</event>
<event>
 4    1  0.8142558E-001  0.1880096E+03  0.7546771E-02  0.1160269E+00
          2   -1    0    0  502    0  0.00000000000E+00  0.00000000000E+00  0.13478594368E+04  0.13478594368E+04  0.00000000000E+00 0. -1.
         -2   -1    0    0    0  501 -0.00000000000E+00 -0.00000000000E+00 -0.27435168078E+02  0.27435168078E+02  0.00000000000E+00 0.  1.
          6    1    1    2  502    0 -0.71506088492E+01  0.73263072990E+02  0.80463481367E+03  0.82630792834E+03  0.17300000000E+03 0. -1.
         -6    1    1    2    0  501  0.71506088492E+01 -0.73263072990E+02  0.51578945504E+03  0.54898667652E+03  0.17300000000E+03 0. -1.
<mgrwt>
<rscale>  2 0.18800960E+03</rscale>
<asrwt>0</asrwt>
<pdfrwt beam="1">  1        2 0.20736294E+00 0.18800960E+03</pdfrwt>
<pdfrwt beam="2">  1       -2 0.42207961E-02 0.18800960E+03</pdfrwt>
<totfact> 0.41554880E+03</totfact>
</mgrwt>
</event>
<event>
 4    1  0.8142558E-001  0.1845069E+03  0.7546771E-02  0.1163511E+00
          1   -1    0    0  502    0  0.00000000000E+00  0.00000000000E+00  0.34060356545E+03  0.34060356545E+03  0.00000000000E+00 0.  1.
         -1   -1    0    0    0  501 -0.00000000000E+00 -0.00000000000E+00 -0.14662925685E+03  0.14662925685E+03  0.00000000000E+00 0. -1.
          6    1    1    2  502    0  0.63644874119E+02  0.79451945903E+01 -0.40469393631E+02  0.18889300659E+03  0.17300000000E+03 0. -1.
         -6    1    1    2    0  501 -0.63644874119E+02 -0.79451945903E+01  0.23444370223E+03  0.29833981570E+03  0.17300000000E+03 0.  1.
<mgrwt>
<rscale>  2 0.18450690E+03</rscale>
<asrwt>0</asrwt>
<pdfrwt beam="1">  1        1 0.52400548E-01 0.18450690E+03</pdfrwt>
<pdfrwt beam="2">  1       -1 0.22558347E-01 0.18450690E+03</pdfrwt>
<totfact> 0.12259914E+03</totfact>
</mgrwt>
</event>
<event>
 4    1  0.8142558E-001  0.1742573E+03  0.7546771E-02  0.1173480E+00
          2   -1    0    0  502    0  0.00000000000E+00  0.00000000000E+00  0.75111063178E+03  0.75111063178E+03  0.00000000000E+00 0. -1.
         -2   -1    0    0    0  501 -0.00000000000E+00 -0.00000000000E+00 -0.40956121762E+02  0.40956121762E+02  0.00000000000E+00 0.  1.
          6    1    1    2  502    0 -0.18918863119E+02 -0.88699695096E+01  0.40006601801E+03  0.43636958934E+03  0.17300000000E+03 0. -1.
         -6    1    1    2    0  501  0.18918863119E+02  0.88699695096E+01  0.31008849202E+03  0.35569716420E+03  0.17300000000E+03 0.  1.
<mgrwt>
<rscale>  2 0.17425728E+03</rscale>
<asrwt>0</asrwt>
<pdfrwt beam="1">  1        2 0.11555547E+00 0.17425728E+03</pdfrwt>
<pdfrwt beam="2">  1       -2 0.63009424E-02 0.17425728E+03</pdfrwt>
<totfact> 0.51709773E+03</totfact>
</mgrwt>
</event>
<event>
 4    1  0.8142558E-001  0.2024796E+03  0.7546771E-02  0.1147664E+00
          1   -1    0    0  502    0  0.00000000000E+00  0.00000000000E+00  0.29728892597E+04  0.29728892597E+04  0.00000000000E+00 0.  1.
         -1   -1    0    0    0  501 -0.00000000000E+00 -0.00000000000E+00 -0.14213539104E+02  0.14213539104E+02  0.00000000000E+00 0. -1.
          6    1    1    2  502    0  0.62425451899E+02 -0.84687867253E+02  0.12217056502E+04  0.12383709734E+04  0.17300000000E+03 0. -1.
         -6    1    1    2    0  501 -0.62425451899E+02  0.84687867253E+02  0.17369700703E+04  0.17487318254E+04  0.17300000000E+03 0.  1.
<mgrwt>
<rscale>  2 0.20247956E+03</rscale>
<asrwt>0</asrwt>
<pdfrwt beam="1">  1        1 0.45736709E+00 0.20247956E+03</pdfrwt>
<pdfrwt beam="2">  1       -1 0.21867007E-02 0.20247956E+03</pdfrwt>
<totfact> 0.46099577E+02</totfact>
</mgrwt>
</event>
<event>
 4    1  0.8142558E-001  0.2623637E+03  0.7546771E-02  0.1105731E+00
          1   -1    0    0  502    0  0.00000000000E+00  0.00000000000E+00  0.59644678002E+03  0.59644678002E+03  0.00000000000E+00 0.  1.
         -1   -1    0    0    0  501 -0.00000000000E+00 -0.00000000000E+00 -0.15723791520E+03  0.15723791520E+03  0.00000000000E+00 0. -1.
          6    1    1    2  502    0 -0.10254527711E+03 -0.16849382267E+03  0.41397244619E+03  0.49011007778E+03  0.17300000000E+03 0.  1.
         -6    1    1    2    0  501  0.10254527711E+03  0.16849382267E+03  0.25236418632E+02  0.26357461745E+03  0.17300000000E+03 0. -1.
<mgrwt>
<rscale>  2 0.26236368E+03</rscale>
<asrwt>0</asrwt>
<pdfrwt beam="1">  1        1 0.91761042E-01 0.26236368E+03</pdfrwt>
<pdfrwt beam="2">  1       -1 0.24190449E-01 0.26236368E+03</pdfrwt>
<totfact> 0.52482756E+02</totfact>
</mgrwt>
</event>
<event>
 4    1  0.8142558E-001  0.1886874E+03  0.7546771E-02  0.1159651E+00
         -1   -1    0    0    0  501 -0.00000000000E+00  0.00000000000E+00  0.60073640273E+02  0.60073640273E+02  0.00000000000E+00 0.  1.
          1   -1    0    0  502    0  0.00000000000E+00 -0.00000000000E+00 -0.75286901124E+03  0.75286901124E+03  0.00000000000E+00 0. -1.
          6    1    1    2  502    0  0.27145639106E+02  0.70264162088E+02 -0.53390601500E+03  0.56626722583E+03  0.17300000000E+03 0. -1.
         -6    1    1    2    0  501 -0.27145639106E+02 -0.70264162088E+02 -0.15888935597E+03  0.24667542568E+03  0.17300000000E+03 0.  1.
<mgrwt>
<rscale>  2 0.18868741E+03</rscale>
<asrwt>0</asrwt>
<pdfrwt beam="2">  1        1 0.11582600E+00 0.18868741E+03</pdfrwt>
<pdfrwt beam="1">  1       -1 0.92420987E-02 0.18868741E+03</pdfrwt>
<totfact> 0.17344569E+03</totfact>
</mgrwt>
</event>
<event>
 4    1  0.8142558E-001  0.1854749E+03  0.7546771E-02  0.1162607E+00
         -1   -1    0    0    0  501 -0.00000000000E+00  0.00000000000E+00  0.49005718127E+02  0.49005718127E+02  0.00000000000E+00 0. -1.
          1   -1    0    0  502    0  0.00000000000E+00 -0.00000000000E+00 -0.77497232924E+03  0.77497232924E+03  0.00000000000E+00 0.  1.
          6    1    1    2  502    0 -0.33807727466E+02  0.57697274135E+02 -0.23654257557E+03  0.30058830306E+03  0.17300000000E+03 0. -1.
         -6    1    1    2    0  501  0.33807727466E+02 -0.57697274135E+02 -0.48942403554E+03  0.52338974431E+03  0.17300000000E+03 0.  1.
<mgrwt>
<rscale>  2 0.18547490E+03</rscale>
<asrwt>0</asrwt>
<pdfrwt beam="2">  1        1 0.11922651E+00 0.18547490E+03</pdfrwt>
<pdfrwt beam="1">  1       -1 0.75393411E-02 0.18547490E+03</pdfrwt>
<totfact> 0.22647395E+03</totfact>
</mgrwt>
</event>
<event>
 4    1  0.8142558E-001  0.1736867E+03  0.7546771E-02  0.1174057E+00
         -1   -1    0    0    0  501 -0.00000000000E+00  0.00000000000E+00  0.83320087831E+02  0.83320087831E+02  0.00000000000E+00 0. -1.
          1   -1    0    0  502    0  0.00000000000E+00 -0.00000000000E+00 -0.36311368776E+03  0.36311368776E+03  0.00000000000E+00 0.  1.
          6    1    1    2  502    0 -0.16636331800E+01 -0.15339770997E+02 -0.12788651121E+03  0.21568967522E+03  0.17300000000E+03 0. -1.
         -6    1    1    2    0  501  0.16636331800E+01  0.15339770997E+02 -0.15190708872E+03  0.23074410036E+03  0.17300000000E+03 0.  1.
<mgrwt>
<rscale>  2 0.17368672E+03</rscale>
<asrwt>0</asrwt>
<pdfrwt beam="2">  1        1 0.55863645E-01 0.17368672E+03</pdfrwt>
<pdfrwt beam="1">  1       -1 0.12818475E-01 0.17368672E+03</pdfrwt>
<totfact> 0.27820118E+03</totfact>
</mgrwt>
</event>
<event>
 4    1  0.8142558E-001  0.1998967E+03  0.7546771E-02  0.1149826E+00
          1   -1    0    0  502    0  0.00000000000E+00  0.00000000000E+00  0.12295048477E+04  0.12295048477E+04  0.00000000000E+00 0. -1.
         -1   -1    0    0    0  501 -0.00000000000E+00 -0.00000000000E+00 -0.35505652520E+02  0.35505652520E+02  0.00000000000E+00 0.  1.
          6    1    1    2  502    0 -0.79611555717E+02 -0.60759263516E+02  0.78103343292E+03  0.80620835473E+03  0.17300000000E+03 0. -1.
         -6    1    1    2    0  501  0.79611555717E+02  0.60759263516E+02  0.41296576230E+03  0.45880214553E+03  0.17300000000E+03 0.  1.
<mgrwt>
<rscale>  2 0.19989669E+03</rscale>
<asrwt>0</asrwt>
<pdfrwt beam="1">  1        1 0.18915456E+00 0.19989669E+03</pdfrwt>
<pdfrwt beam="2">  1       -1 0.54624090E-02 0.19989669E+03</pdfrwt>
<totfact> 0.16818612E+03</totfact>
</mgrwt>
</event>
<event>
 4    1  0.8142558E-001  0.3843866E+03  0.7546771E-02  0.1049324E+00
         -1   -1    0    0    0  501 -0.00000000000E+00  0.00000000000E+00  0.13846203914E+03  0.13846203914E+03  0.00000000000E+00 0. -1.
          1   -1    0    0  502    0  0.00000000000E+00 -0.00000000000E+00 -0.16691175325E+04  0.16691175325E+04  0.00000000000E+00 0.  1.
          6    1    1    2  502    0 -0.20840022927E+03  0.27275151233E+03 -0.13081129690E+04  0.13634194449E+04  0.17300000000E+03 0.  1.
         -6    1    1    2    0  501  0.20840022927E+03 -0.27275151233E+03 -0.22254252434E+03  0.44416012673E+03  0.17300000000E+03 0. -1.
<mgrwt>
<rscale>  2 0.38438658E+03</rscale>
<asrwt>0</asrwt>
<pdfrwt beam="2">  1        1 0.25678732E+00 0.38438658E+03</pdfrwt>
<pdfrwt beam="1">  1       -1 0.21301851E-01 0.38438658E+03</pdfrwt>
<totfact> 0.98975019E+01</totfact>
</mgrwt>
</event>
<event>
 4    1  0.8142558E-001  0.2054074E+03  0.7546771E-02  0.1145255E+00
         -1   -1    0    0    0  501 -0.00000000000E+00  0.00000000000E+00  0.43939871773E+02  0.43939871773E+02  0.00000000000E+00 0. -1.
          1   -1    0    0  502    0  0.00000000000E+00 -0.00000000000E+00 -0.96288372608E+03  0.96288372608E+03  0.00000000000E+00 0.  1.
          6    1    1    2  502    0  0.29022621912E+02 -0.10686855497E+03 -0.43302324633E+03  0.47927166877E+03  0.17300000000E+03 0. -1.
         -6    1    1    2    0  501 -0.29022621912E+02  0.10686855497E+03 -0.48592060798E+03  0.52755192909E+03  0.17300000000E+03 0.  1.
<mgrwt>
<rscale>  2 0.20540740E+03</rscale>
<asrwt>0</asrwt>
<pdfrwt beam="2">  1        1 0.14813596E+00 0.20540740E+03</pdfrwt>
<pdfrwt beam="1">  1       -1 0.67599803E-02 0.20540740E+03</pdfrwt>
<totfact> 0.18967019E+03</totfact>
</mgrwt>
</event>
<event>
 4    1  0.8142558E-001  0.1820514E+03  0.7546771E-02  0.1165832E+00
          1   -1    0    0  502    0  0.00000000000E+00  0.00000000000E+00  0.39826032183E+03  0.39826032183E+03  0.00000000000E+00 0.  1.
         -1   -1    0    0    0  501 -0.00000000000E+00 -0.00000000000E+00 -0.12150311312E+03  0.12150311312E+03  0.00000000000E+00 0. -1.
          6    1    1    2  502    0 -0.20585179535E+02 -0.52820268844E+02 -0.75003622668E+01  0.18220588863E+03  0.17300000000E+03 0. -1.
         -6    1    1    2    0  501  0.20585179535E+02  0.52820268844E+02  0.28425757098E+03  0.33755754631E+03  0.17300000000E+03 0.  1.
<mgrwt>
<rscale>  2 0.18205145E+03</rscale>
<asrwt>0</asrwt>
<pdfrwt beam="1">  1        1 0.61270818E-01 0.18205145E+03</pdfrwt>
<pdfrwt beam="2">  1       -1 0.18692787E-01 0.18205145E+03</pdfrwt>
<totfact> 0.13643227E+03</totfact>
</mgrwt>
</event>
<event>
 4    1  0.8142558E-001  0.1931329E+03  0.7546771E-02  0.1155666E+00
         -1   -1    0    0    0  501 -0.00000000000E+00  0.00000000000E+00  0.15090136457E+02  0.15090136457E+02  0.00000000000E+00 0. -1.
          1   -1    0    0  502    0  0.00000000000E+00 -0.00000000000E+00 -0.24730786100E+04  0.24730786100E+04  0.00000000000E+00 0.  1.
          6    1    1    2  502    0  0.81514133793E+01 -0.85468563511E+02 -0.12010913673E+04  0.12165199519E+04  0.17300000000E+03 0.  1.
         -6    1    1    2    0  501 -0.81514133793E+01  0.85468563511E+02 -0.12568971062E+04  0.12716487945E+04  0.17300000000E+03 0.  1.
<mgrwt>
<rscale>  2 0.19313291E+03</rscale>
<asrwt>0</asrwt>
<pdfrwt beam="2">  1        1 0.38047382E+00 0.19313291E+03</pdfrwt>
<pdfrwt beam="1">  1       -1 0.23215583E-02 0.19313291E+03</pdfrwt>
<totfact> 0.91875446E+02</totfact>
</mgrwt>
</event>
<event>
 4    1  0.8142558E-001  0.2615911E+03  0.7546771E-02  0.1106191E+00
          2   -1    0    0  502    0  0.00000000000E+00  0.00000000000E+00  0.15259476944E+04  0.15259476944E+04  0.00000000000E+00 0. -1.
         -2   -1    0    0    0  501 -0.00000000000E+00 -0.00000000000E+00 -0.44865369824E+02  0.44865369824E+02  0.00000000000E+00 0.  1.
          6    1    1    2  502    0 -0.19562414884E+03 -0.15233972745E+02  0.75760771342E+03  0.80149817777E+03  0.17300000000E+03 0.  1.
         -6    1    1    2    0  501  0.19562414884E+03  0.15233972745E+02  0.72347461119E+03  0.76931488649E+03  0.17300000000E+03 0.  1.
<mgrwt>
<rscale>  2 0.26159106E+03</rscale>
<asrwt>0</asrwt>
<pdfrwt beam="1">  1        2 0.23476114E+00 0.26159106E+03</pdfrwt>
<pdfrwt beam="2">  1       -2 0.69023658E-02 0.26159106E+03</pdfrwt>
<totfact> 0.15755522E+03</totfact>
</mgrwt>
</event>
<event>
 4    1  0.8142558E-001  0.1870818E+03  0.7546771E-02  0.1161120E+00
         -2   -1    0    0    0  501 -0.00000000000E+00  0.00000000000E+00  0.17133533891E+03  0.17133533891E+03  0.00000000000E+00 0. -1.
          2   -1    0    0  502    0  0.00000000000E+00 -0.00000000000E+00 -0.20747712678E+03  0.20747712678E+03  0.00000000000E+00 0.  1.
          6    1    1    2  502    0  0.63243672175E+02 -0.32723510204E+02 -0.41599876547E+02  0.19165108901E+03  0.17300000000E+03 0. -1.
         -6    1    1    2    0  501 -0.63243672175E+02  0.32723510204E+02  0.54580886763E+01  0.18716137668E+03  0.17300000000E+03 0. -1.
<mgrwt>
<rscale>  2 0.18708177E+03</rscale>
<asrwt>0</asrwt>
<pdfrwt beam="2">  1        2 0.31919558E-01 0.18708177E+03</pdfrwt>
<pdfrwt beam="1">  1       -2 0.26359283E-01 0.18708177E+03</pdfrwt>
<totfact> 0.20860793E+03</totfact>
</mgrwt>
</event>
<event>
 4    1  0.8142558E-001  0.2377517E+03  0.7546771E-02  0.1121300E+00
          2   -1    0    0  502    0  0.00000000000E+00  0.00000000000E+00  0.10040905935E+04  0.10040905935E+04  0.00000000000E+00 0.  1.
         -2   -1    0    0    0  501 -0.00000000000E+00 -0.00000000000E+00 -0.64157300788E+02  0.64157300788E+02  0.00000000000E+00 0. -1.
          6    1    1    2  502    0  0.70864241495E+02  0.14688476578E+03  0.28299426338E+03  0.36961010301E+03  0.17300000000E+03 0.  1.
         -6    1    1    2    0  501 -0.70864241495E+02 -0.14688476578E+03  0.65693902931E+03  0.69863779126E+03  0.17300000000E+03 0. -1.
<mgrwt>
<rscale>  2 0.23775171E+03</rscale>
<asrwt>0</asrwt>
<pdfrwt beam="1">  1        2 0.15447547E+00 0.23775171E+03</pdfrwt>
<pdfrwt beam="2">  1       -2 0.98703547E-02 0.23775171E+03</pdfrwt>
<totfact> 0.17674255E+03</totfact>
</mgrwt>
</event>
<event>
 4    1  0.8142558E-001  0.2367462E+03  0.7546771E-02  0.1121980E+00
         -1   -1    0    0    0  501 -0.00000000000E+00  0.00000000000E+00  0.23975507964E+03  0.23975507964E+03  0.00000000000E+00 0. -1.
          1   -1    0    0  502    0  0.00000000000E+00 -0.00000000000E+00 -0.28222713944E+03  0.28222713944E+03  0.00000000000E+00 0.  1.
          6    1    1    2  502    0  0.14119348692E+03 -0.78639389576E+02 -0.12937509429E+03  0.26979004682E+03  0.17300000000E+03 0.  1.
         -6    1    1    2    0  501 -0.14119348692E+03  0.78639389576E+02  0.86903034493E+02  0.25219217226E+03  0.17300000000E+03 0. -1.
<mgrwt>
<rscale>  2 0.23674618E+03</rscale>
<asrwt>0</asrwt>
<pdfrwt beam="2">  1        1 0.43419560E-01 0.23674618E+03</pdfrwt>
<pdfrwt beam="1">  1       -1 0.36885397E-01 0.23674618E+03</pdfrwt>
<totfact> 0.67743914E+02</totfact>
</mgrwt>
</event>
<event>
 4    1  0.8142558E-001  0.2449727E+03  0.7546771E-02  0.1116524E+00
          1   -1    0    0  502    0  0.00000000000E+00  0.00000000000E+00  0.44546891586E+03  0.44546891586E+03  0.00000000000E+00 0. -1.
         -1   -1    0    0    0  501 -0.00000000000E+00 -0.00000000000E+00 -0.14093028264E+03  0.14093028264E+03  0.00000000000E+00 0.  1.
          6    1    1    2  502    0 -0.82736356875E+02  0.15243786962E+03  0.21383957249E+03  0.32517529366E+03  0.17300000000E+03 0.  1.
         -6    1    1    2    0  501  0.82736356875E+02 -0.15243786962E+03  0.90699060722E+02  0.26122390484E+03  0.17300000000E+03 0.  1.
<mgrwt>
<rscale>  2 0.24497267E+03</rscale>
<asrwt>0</asrwt>
<pdfrwt beam="1">  1        1 0.68533679E-01 0.24497267E+03</pdfrwt>
<pdfrwt beam="2">  1       -1 0.21681582E-01 0.24497267E+03</pdfrwt>
<totfact> 0.93096509E+02</totfact>
</mgrwt>
</event>
<event>
 4    1  0.8142558E-001  0.1903267E+03  0.7546771E-02  0.1158167E+00
          1   -1    0    0  502    0  0.00000000000E+00  0.00000000000E+00  0.75011191652E+02  0.75011191652E+02  0.00000000000E+00 0.  1.
         -1   -1    0    0    0  501 -0.00000000000E+00 -0.00000000000E+00 -0.54811194433E+03  0.54811194433E+03  0.00000000000E+00 0. -1.
          6    1    1    2  502    0  0.25417911626E+02  0.75161165720E+02 -0.34400179347E+03  0.39314311004E+03  0.17300000000E+03 0. -1.
         -6    1    1    2    0  501 -0.25417911626E+02 -0.75161165720E+02 -0.12909895922E+03  0.22998002595E+03  0.17300000000E+03 0.  1.
<mgrwt>
<rscale>  2 0.19032675E+03</rscale>
<asrwt>0</asrwt>
<pdfrwt beam="1">  1        1 0.11540183E-01 0.19032675E+03</pdfrwt>
<pdfrwt beam="2">  1       -1 0.84324920E-01 0.19032675E+03</pdfrwt>
<totfact> 0.76942744E+02</totfact>
</mgrwt>
</event>
<event>
 4    1  0.8142558E-001  0.1876968E+03  0.7546771E-02  0.1160555E+00
          2   -1    0    0  502    0  0.00000000000E+00  0.00000000000E+00  0.47515554507E+03  0.47515554507E+03  0.00000000000E+00 0. -1.
         -2   -1    0    0    0  501 -0.00000000000E+00 -0.00000000000E+00 -0.10995444294E+03  0.10995444294E+03  0.00000000000E+00 0.  1.
          6    1    1    2  502    0  0.42073679288E+02  0.59421249573E+02  0.34955734621E+03  0.39676241970E+03  0.17300000000E+03 0. -1.
         -6    1    1    2    0  501 -0.42073679288E+02 -0.59421249573E+02  0.15643755911E+02  0.18834756831E+03  0.17300000000E+03 0.  1.
<mgrwt>
<rscale>  2 0.18769678E+03</rscale>
<asrwt>0</asrwt>
<pdfrwt beam="1">  1        2 0.73100852E-01 0.18769678E+03</pdfrwt>
<pdfrwt beam="2">  1       -2 0.16916068E-01 0.18769678E+03</pdfrwt>
<totfact> 0.18284612E+03</totfact>
</mgrwt>
</event>
<event>
 4    1  0.8142558E-001  0.2004993E+03  0.7546771E-02  0.1149318E+00
         -1   -1    0    0    0  501 -0.00000000000E+00  0.00000000000E+00  0.98502197883E+02  0.98502197883E+02  0.00000000000E+00 0. -1.
          1   -1    0    0  502    0  0.00000000000E+00 -0.00000000000E+00 -0.42710761045E+03  0.42710761045E+03  0.00000000000E+00 0.  1.
          6    1    1    2  502    0 -0.79729064623E+02 -0.62563984452E+02 -0.10888022146E+03  0.22815538241E+03  0.17300000000E+03 0. -1.
         -6    1    1    2    0  501  0.79729064623E+02  0.62563984452E+02 -0.21972519110E+03  0.29745442592E+03  0.17300000000E+03 0.  1.
<mgrwt>
<rscale>  2 0.20049932E+03</rscale>
<asrwt>0</asrwt>
<pdfrwt beam="2">  1        1 0.65708862E-01 0.20049932E+03</pdfrwt>
<pdfrwt beam="1">  1       -1 0.15154185E-01 0.20049932E+03</pdfrwt>
<totfact> 0.17466264E+03</totfact>
</mgrwt>
</event>
<event>
 4    1  0.8142558E-001  0.2134259E+03  0.7546771E-02  0.1138881E+00
         -2   -1    0    0    0  501 -0.00000000000E+00  0.00000000000E+00  0.57933369135E+03  0.57933369135E+03  0.00000000000E+00 0.  1.
          2   -1    0    0  502    0  0.00000000000E+00 -0.00000000000E+00 -0.93225466473E+02  0.93225466473E+02  0.00000000000E+00 0. -1.
          6    1    1    2  502    0  0.24196279676E+02  0.12262203058E+03  0.10997697110E+03  0.24009489063E+03  0.17300000000E+03 0. -1.
         -6    1    1    2    0  501 -0.24196279676E+02 -0.12262203058E+03  0.37613125378E+03  0.43246426719E+03  0.17300000000E+03 0.  1.
<mgrwt>
<rscale>  2 0.21342592E+03</rscale>
<asrwt>0</asrwt>
<pdfrwt beam="2">  1        2 0.14342380E-01 0.21342592E+03</pdfrwt>
<pdfrwt beam="1">  1       -2 0.89128258E-01 0.21342592E+03</pdfrwt>
<totfact> 0.45899190E+02</totfact>
</mgrwt>
</event>
<event>
 4    1  0.8142558E-001  0.1756573E+03  0.7546771E-02  0.1172073E+00
          2   -1    0    0  502    0  0.00000000000E+00  0.00000000000E+00  0.89635440085E+03  0.89635440085E+03  0.00000000000E+00 0.  1.
         -2   -1    0    0    0  501 -0.00000000000E+00 -0.00000000000E+00 -0.43510318997E+02  0.43510318997E+02  0.00000000000E+00 0. -1.
          6    1    1    2  502    0  0.30260953214E+02 -0.32801910701E+01  0.64118021842E+03  0.66480640598E+03  0.17300000000E+03 0.  1.
         -6    1    1    2    0  501 -0.30260953214E+02  0.32801910701E+01  0.21166386343E+03  0.27505831387E+03  0.17300000000E+03 0. -1.
<mgrwt>
<rscale>  2 0.17565729E+03</rscale>
<asrwt>0</asrwt>
<pdfrwt beam="1">  1        2 0.13790066E+00 0.17565729E+03</pdfrwt>
<pdfrwt beam="2">  1       -2 0.66938959E-02 0.17565729E+03</pdfrwt>
<totfact> 0.37657163E+03</totfact>
</mgrwt>
</event>
<event>
 4    1  0.8142558E-001  0.1855425E+03  0.7546771E-02  0.1162544E+00
          1   -1    0    0  502    0  0.00000000000E+00  0.00000000000E+00  0.15275231386E+04  0.15275231386E+04  0.00000000000E+00 0.  1.
         -1   -1    0    0    0  501 -0.00000000000E+00 -0.00000000000E+00 -0.23873235768E+02  0.23873235768E+02  0.00000000000E+00 0. -1.
          6    1    1    2  502    0 -0.43519863826E+02 -0.51020146210E+02  0.93533194689E+03  0.95355748895E+03  0.17300000000E+03 0.  1.
         -6    1    1    2    0  501  0.43519863826E+02  0.51020146210E+02  0.56831795592E+03  0.59783888539E+03  0.17300000000E+03 0.  1.
<mgrwt>
<rscale>  2 0.18554254E+03</rscale>
<asrwt>0</asrwt>
<pdfrwt beam="1">  1        1 0.23500348E+00 0.18554254E+03</pdfrwt>
<pdfrwt beam="2">  1       -1 0.36728067E-02 0.18554254E+03</pdfrwt>
<totfact> 0.19177879E+03</totfact>
</mgrwt>
</event>
<event>
 4    1  0.8142558E-001  0.2748074E+03  0.7546771E-02  0.1098559E+00
          2   -1    0    0  502    0  0.00000000000E+00  0.00000000000E+00  0.49916325273E+03  0.49916325273E+03  0.00000000000E+00 0. -1.
         -2   -1    0    0    0  501 -0.00000000000E+00 -0.00000000000E+00 -0.15224670583E+03  0.15224670583E+03  0.00000000000E+00 0.  1.
          6    1    1    2  502    0  0.21000616652E+03  0.38568630555E+02  0.19925779691E+03  0.33944483921E+03  0.17300000000E+03 0.  1.
         -6    1    1    2    0  501 -0.21000616652E+03 -0.38568630555E+02  0.14765874998E+03  0.31196511934E+03  0.17300000000E+03 0. -1.
<mgrwt>
<rscale>  2 0.27480744E+03</rscale>
<asrwt>0</asrwt>
<pdfrwt beam="1">  1        2 0.76794346E-01 0.27480744E+03</pdfrwt>
<pdfrwt beam="2">  1       -2 0.23422570E-01 0.27480744E+03</pdfrwt>
<totfact> 0.99694923E+02</totfact>
</mgrwt>
</event>
<event>
 4    1  0.8142558E-001  0.1921002E+03  0.7546771E-02  0.1156581E+00
         -3   -1    0    0    0  501 -0.00000000000E+00  0.00000000000E+00  0.14291567932E+03  0.14291567932E+03  0.00000000000E+00 0. -1.
          3   -1    0    0  502    0  0.00000000000E+00 -0.00000000000E+00 -0.39345953561E+03  0.39345953561E+03  0.00000000000E+00 0.  1.
          6    1    1    2  502    0  0.82941298483E+02  0.97080541400E+01  0.31964719682E+02  0.19474149176E+03  0.17300000000E+03 0. -1.
         -6    1    1    2    0  501 -0.82941298483E+02 -0.97080541400E+01 -0.28250857597E+03  0.34163372317E+03  0.17300000000E+03 0.  1.
<mgrwt>
<rscale>  2 0.19210025E+03</rscale>
<asrwt>0</asrwt>
<pdfrwt beam="2">  1        3 0.60532236E-01 0.19210025E+03</pdfrwt>
<pdfrwt beam="1">  1       -3 0.21987028E-01 0.19210025E+03</pdfrwt>
<totfact> 0.12470076E+02</totfact>
</mgrwt>
</event>
<event>
 4    1  0.8142558E-001  0.2031807E+03  0.7546771E-02  0.1147083E+00
         -2   -1    0    0    0  501 -0.00000000000E+00  0.00000000000E+00  0.32868170550E+02  0.32868170550E+02  0.00000000000E+00 0. -1.
          2   -1    0    0  502    0  0.00000000000E+00 -0.00000000000E+00 -0.17608977692E+04  0.17608977692E+04  0.00000000000E+00 0.  1.
          6    1    1    2  502    0  0.74475624042E+02  0.76202328127E+02 -0.38376128962E+03  0.43422936427E+03  0.17300000000E+03 0. -1.
         -6    1    1    2    0  501 -0.74475624042E+02 -0.76202328127E+02 -0.13442683091E+04  0.13595365755E+04  0.17300000000E+03 0.  1.
<mgrwt>
<rscale>  2 0.20318074E+03</rscale>
<asrwt>0</asrwt>
<pdfrwt beam="2">  1        2 0.27090734E+00 0.20318074E+03</pdfrwt>
<pdfrwt beam="1">  1       -2 0.50566419E-02 0.20318074E+03</pdfrwt>
<totfact> 0.19161114E+03</totfact>
</mgrwt>
</event>
<event>
 4    1  0.8142558E-001  0.1851608E+03  0.7546771E-02  0.1162900E+00
         -2   -1    0    0    0  501 -0.00000000000E+00  0.00000000000E+00  0.19051632850E+02  0.19051632850E+02  0.00000000000E+00 0. -1.
          2   -1    0    0  502    0  0.00000000000E+00 -0.00000000000E+00 -0.18323409316E+04  0.18323409316E+04  0.00000000000E+00 0.  1.
          6    1    1    2  502    0  0.82341946107E+01  0.65480551598E+02 -0.10304655727E+04  0.10469688635E+04  0.17300000000E+03 0. -1.
         -6    1    1    2    0  501 -0.82341946107E+01 -0.65480551598E+02 -0.78282372604E+03  0.80442370095E+03  0.17300000000E+03 0.  1.
<mgrwt>
<rscale>  2 0.18516075E+03</rscale>
<asrwt>0</asrwt>
<pdfrwt beam="2">  1        2 0.28189854E+00 0.18516075E+03</pdfrwt>
<pdfrwt beam="1">  1       -2 0.29310211E-02 0.18516075E+03</pdfrwt>
<totfact> 0.39817308E+03</totfact>
</mgrwt>
</event>
<event>
 4    1  0.8142558E-001  0.2084229E+03  0.7546771E-02  0.1142821E+00
          2   -1    0    0  502    0  0.00000000000E+00  0.00000000000E+00  0.12861573238E+04  0.12861573238E+04  0.00000000000E+00 0. -1.
         -2   -1    0    0    0  501 -0.00000000000E+00 -0.00000000000E+00 -0.54099826474E+02  0.54099826474E+02  0.00000000000E+00 0.  1.
          6    1    1    2  502    0 -0.49610268343E+02  0.10511854677E+03  0.20528345647E+03  0.29254296283E+03  0.17300000000E+03 0.  1.
         -6    1    1    2    0  501  0.49610268343E+02 -0.10511854677E+03  0.10267740409E+04  0.10477141875E+04  0.17300000000E+03 0. -1.
<mgrwt>
<rscale>  2 0.20842286E+03</rscale>
<asrwt>0</asrwt>
<pdfrwt beam="1">  1        2 0.19787034E+00 0.20842286E+03</pdfrwt>
<pdfrwt beam="2">  1       -2 0.83230512E-02 0.20842286E+03</pdfrwt>
<totfact> 0.15897619E+03</totfact>
</mgrwt>
</event>
<event>
 4    1  0.8142558E-001  0.2060467E+03  0.7546771E-02  0.1144735E+00
         -2   -1    0    0    0  501 -0.00000000000E+00  0.00000000000E+00  0.16644781546E+03  0.16644781546E+03  0.00000000000E+00 0.  1.
          2   -1    0    0  502    0  0.00000000000E+00 -0.00000000000E+00 -0.31214498068E+03  0.31214498068E+03  0.00000000000E+00 0. -1.
          6    1    1    2  502    0  0.11020192648E+03  0.19539106122E+02 -0.17517662208E+03  0.27044794359E+03  0.17300000000E+03 0. -1.
         -6    1    1    2    0  501 -0.11020192648E+03 -0.19539106122E+02  0.29479456859E+02  0.20814485256E+03  0.17300000000E+03 0.  1.
<mgrwt>
<rscale>  2 0.20604670E+03</rscale>
<asrwt>0</asrwt>
<pdfrwt beam="2">  1        2 0.48022304E-01 0.20604670E+03</pdfrwt>
<pdfrwt beam="1">  1       -2 0.25607357E-01 0.20604670E+03</pdfrwt>
<totfact> 0.14175891E+03</totfact>
</mgrwt>
</event>
<event>
 4    1  0.8142558E-001  0.2032964E+03  0.7546771E-02  0.1146987E+00
          2   -1    0    0  502    0  0.00000000000E+00  0.00000000000E+00  0.62984272165E+03  0.62984272165E+03  0.00000000000E+00 0. -1.
         -2   -1    0    0    0  501 -0.00000000000E+00 -0.00000000000E+00 -0.74610655911E+02  0.74610655911E+02  0.00000000000E+00 0.  1.
          6    1    1    2  502    0 -0.18194909110E+02 -0.10521113462E+03  0.39989444731E+03  0.44860339561E+03  0.17300000000E+03 0.  1.
         -6    1    1    2    0  501  0.18194909110E+02  0.10521113462E+03  0.15533761843E+03  0.25584998195E+03  0.17300000000E+03 0.  1.
<mgrwt>
<rscale>  2 0.20329643E+03</rscale>
<asrwt>0</asrwt>
<pdfrwt beam="1">  1        2 0.96898877E-01 0.20329643E+03</pdfrwt>
<pdfrwt beam="2">  1       -2 0.11478563E-01 0.20329643E+03</pdfrwt>
<totfact> 0.25099745E+03</totfact>
</mgrwt>
</event>
<event>
 4    1  0.8142558E-001  0.1893808E+03  0.7546771E-02  0.1159021E+00
         -2   -1    0    0    0  501 -0.00000000000E+00  0.00000000000E+00  0.68174215163E+02  0.68174215163E+02  0.00000000000E+00 0. -1.
          2   -1    0    0  502    0  0.00000000000E+00 -0.00000000000E+00 -0.76271589773E+03  0.76271589773E+03  0.00000000000E+00 0.  1.
          6    1    1    2  502    0  0.33733103380E+01  0.76972117963E+02 -0.57867575499E+03  0.60887660128E+03  0.17300000000E+03 0.  1.
         -6    1    1    2    0  501 -0.33733103380E+01 -0.76972117963E+02 -0.11586592757E+03  0.22201351161E+03  0.17300000000E+03 0. -1.
<mgrwt>
<rscale>  2 0.18938080E+03</rscale>
<asrwt>0</asrwt>
<pdfrwt beam="2">  1        2 0.11734091E+00 0.18938080E+03</pdfrwt>
<pdfrwt beam="1">  1       -2 0.10488341E-01 0.18938080E+03</pdfrwt>
<totfact> 0.22996106E+03</totfact>
</mgrwt>
</event>
<event>
 4    1  0.8142558E-001  0.2008605E+03  0.7546771E-02  0.1149015E+00
          2   -1    0    0  502    0  0.00000000000E+00  0.00000000000E+00  0.34651803995E+04  0.34651803995E+04  0.00000000000E+00 0. -1.
         -2   -1    0    0    0  501 -0.00000000000E+00 -0.00000000000E+00 -0.12437823169E+02  0.12437823169E+02  0.00000000000E+00 0.  1.
          6    1    1    2  502    0  0.55412623645E+02 -0.85705264075E+02  0.21659395722E+04  0.21752331327E+04  0.17300000000E+03 0. -1.
         -6    1    1    2    0  501 -0.55412623645E+02  0.85705264075E+02  0.12868030041E+04  0.13023850900E+04  0.17300000000E+03 0.  1.
<mgrwt>
<rscale>  2 0.20086053E+03</rscale>
<asrwt>0</asrwt>
<pdfrwt beam="1">  1        2 0.53310391E+00 0.20086053E+03</pdfrwt>
<pdfrwt beam="2">  1       -2 0.19135140E-02 0.20086053E+03</pdfrwt>
<totfact> 0.89806089E+02</totfact>
</mgrwt>
</event>
<event>
 4    1  0.8142558E-001  0.2164749E+03  0.7546771E-02  0.1136539E+00
         -2   -1    0    0    0  501 -0.00000000000E+00  0.00000000000E+00  0.16419335418E+03  0.16419335418E+03  0.00000000000E+00 0. -1.
          2   -1    0    0  502    0  0.00000000000E+00 -0.00000000000E+00 -0.28664740578E+03  0.28664740578E+03  0.00000000000E+00 0.  1.
          6    1    1    2  502    0  0.68726257534E+02 -0.11049467003E+03 -0.46377947667E+02  0.22138718258E+03  0.17300000000E+03 0.  1.
         -6    1    1    2    0  501 -0.68726257534E+02  0.11049467003E+03 -0.76076103933E+02  0.22945357737E+03  0.17300000000E+03 0.  1.
<mgrwt>
<rscale>  2 0.21647487E+03</rscale>
<asrwt>0</asrwt>
<pdfrwt beam="2">  1        2 0.44099601E-01 0.21647487E+03</pdfrwt>
<pdfrwt beam="1">  1       -2 0.25260516E-01 0.21647487E+03</pdfrwt>
<totfact> 0.15931759E+03</totfact>
</mgrwt>
</event>
<event>
 4    1  0.8142558E-001  0.2308787E+03  0.7546771E-02  0.1126023E+00
         -1   -1    0    0    0  501 -0.00000000000E+00  0.00000000000E+00  0.20068455393E+03  0.20068455393E+03  0.00000000000E+00 0. -1.
          1   -1    0    0  502    0  0.00000000000E+00 -0.00000000000E+00 -0.36918811068E+03  0.36918811068E+03  0.00000000000E+00 0.  1.
          6    1    1    2  502    0  0.13681715282E+02 -0.15227869793E+03 -0.23517142496E+03  0.32956120872E+03  0.17300000000E+03 0.  1.
         -6    1    1    2    0  501 -0.13681715282E+02  0.15227869793E+03  0.66667868209E+02  0.24031145588E+03  0.17300000000E+03 0. -1.
<mgrwt>
<rscale>  2 0.23087874E+03</rscale>
<asrwt>0</asrwt>
<pdfrwt beam="2">  1        1 0.56798170E-01 0.23087874E+03</pdfrwt>
<pdfrwt beam="1">  1       -1 0.30874547E-01 0.23087874E+03</pdfrwt>
<totfact> 0.65632626E+02</totfact>
</mgrwt>
</event>
<event>
 4    1  0.8142558E-001  0.2398806E+03  0.7546771E-02  0.1119872E+00
          1   -1    0    0  502    0  0.00000000000E+00  0.00000000000E+00  0.25391006802E+03  0.25391006802E+03  0.00000000000E+00 0. -1.
         -1   -1    0    0    0  501 -0.00000000000E+00 -0.00000000000E+00 -0.31159334289E+03  0.31159334289E+03  0.00000000000E+00 0.  1.
          6    1    1    2  502    0  0.12372673889E+02 -0.16571251129E+03  0.11880929581E+03  0.26769080714E+03  0.17300000000E+03 0.  1.
         -6    1    1    2    0  501 -0.12372673889E+02  0.16571251129E+03 -0.17649257067E+03  0.29781260376E+03  0.17300000000E+03 0. -1.
<mgrwt>
<rscale>  2 0.23988064E+03</rscale>
<asrwt>0</asrwt>
<pdfrwt beam="1">  1        1 0.39063087E-01 0.23988064E+03</pdfrwt>
<pdfrwt beam="2">  1       -1 0.47937438E-01 0.23988064E+03</pdfrwt>
<totfact> 0.48363428E+02</totfact>
</mgrwt>
</event>
<event>
 4    1  0.8142558E-001  0.1893164E+03  0.7546771E-02  0.1159079E+00
         -2   -1    0    0    0  501 -0.00000000000E+00  0.00000000000E+00  0.17123286504E+02  0.17123286504E+02  0.00000000000E+00 0.  1.
          2   -1    0    0  502    0  0.00000000000E+00 -0.00000000000E+00 -0.20999351192E+04  0.20999351192E+04  0.00000000000E+00 0. -1.
          6    1    1    2  502    0  0.35853107943E+02 -0.68016500704E+02 -0.98099901124E+03  0.99909946941E+03  0.17300000000E+03 0. -1.
         -6    1    1    2    0  501 -0.35853107943E+02  0.68016500704E+02 -0.11018128214E+04  0.11179589363E+04  0.17300000000E+03 0.  1.
<mgrwt>
<rscale>  2 0.18931637E+03</rscale>
<asrwt>0</asrwt>
<pdfrwt beam="2">  1        2 0.32306690E+00 0.18931637E+03</pdfrwt>
<pdfrwt beam="1">  1       -2 0.26343521E-02 0.18931637E+03</pdfrwt>
<totfact> 0.33865522E+03</totfact>
</mgrwt>
</event>
<event>
 4    1  0.8142558E-001  0.2524650E+03  0.7546771E-02  0.1111757E+00
          2   -1    0    0  502    0  0.00000000000E+00  0.00000000000E+00  0.23537598293E+04  0.23537598293E+04  0.00000000000E+00 0.  1.
         -2   -1    0    0    0  501 -0.00000000000E+00 -0.00000000000E+00 -0.28636796193E+02  0.28636796193E+02  0.00000000000E+00 0. -1.
          6    1    1    2  502    0 -0.16599862537E+03  0.79082343181E+02  0.88477438284E+03  0.92008927239E+03  0.17300000000E+03 0. -1.
         -6    1    1    2    0  501  0.16599862537E+03 -0.79082343181E+02  0.14403486503E+04  0.14623073531E+04  0.17300000000E+03 0.  1.
<mgrwt>
<rscale>  2 0.25246497E+03</rscale>
<asrwt>0</asrwt>
<pdfrwt beam="1">  1        2 0.36211674E+00 0.25246497E+03</pdfrwt>
<pdfrwt beam="2">  1       -2 0.44056628E-02 0.25246497E+03</pdfrwt>
<totfact> 0.11462931E+03</totfact>
</mgrwt>
</event>
<event>
 4    1  0.8142558E-001  0.2018872E+03  0.7546771E-02  0.1148156E+00
         -2   -1    0    0    0  501 -0.00000000000E+00  0.00000000000E+00  0.12427176848E+03  0.12427176848E+03  0.00000000000E+00 0.  1.
          2   -1    0    0  502    0  0.00000000000E+00 -0.00000000000E+00 -0.43066857382E+03  0.43066857382E+03  0.00000000000E+00 0. -1.
          6    1    1    2  502    0  0.84755940034E+02  0.60381108370E+02 -0.17707762574E+02  0.20266231143E+03  0.17300000000E+03 0. -1.
         -6    1    1    2    0  501 -0.84755940034E+02 -0.60381108370E+02 -0.28868904277E+03  0.35227803087E+03  0.17300000000E+03 0.  1.
<mgrwt>
<rscale>  2 0.20188722E+03</rscale>
<asrwt>0</asrwt>
<pdfrwt beam="2">  1        2 0.66256703E-01 0.20188722E+03</pdfrwt>
<pdfrwt beam="1">  1       -2 0.19118734E-01 0.20188722E+03</pdfrwt>
<totfact> 0.16601839E+03</totfact>
</mgrwt>
</event>
<event>
 4    1  0.8142558E-001  0.2815126E+03  0.7546771E-02  0.1094866E+00
          2   -1    0    0  502    0  0.00000000000E+00  0.00000000000E+00  0.15207052308E+03  0.15207052308E+03  0.00000000000E+00 0. -1.
         -2   -1    0    0    0  501 -0.00000000000E+00 -0.00000000000E+00 -0.52428044046E+03  0.52428044046E+03  0.00000000000E+00 0.  1.
          6    1    1    2  502    0  0.15844536393E+03  0.15561296984E+03 -0.15991258640E+03  0.32376127783E+03  0.17300000000E+03 0. -1.
         -6    1    1    2    0  501 -0.15844536393E+03 -0.15561296984E+03 -0.21229733097E+03  0.35258968571E+03  0.17300000000E+03 0.  1.
<mgrwt>
<rscale>  2 0.28151257E+03</rscale>
<asrwt>0</asrwt>
<pdfrwt beam="1">  1        2 0.23395465E-01 0.28151257E+03</pdfrwt>
<pdfrwt beam="2">  1       -2 0.80658530E-01 0.28151257E+03</pdfrwt>
<totfact> 0.32559823E+02</totfact>
</mgrwt>
</event>
<event>
 4    1  0.8142558E-001  0.1812109E+03  0.7546771E-02  0.1166636E+00
          1   -1    0    0  502    0  0.00000000000E+00  0.00000000000E+00  0.44508522232E+02  0.44508522232E+02  0.00000000000E+00 0. -1.
         -1   -1    0    0    0  501 -0.00000000000E+00 -0.00000000000E+00 -0.79811532752E+03  0.79811532752E+03  0.00000000000E+00 0.  1.
          6    1    1    2  502    0  0.35871293656E+02 -0.40269591981E+02 -0.49264525107E+03  0.52491592960E+03  0.17300000000E+03 0.  1.
         -6    1    1    2    0  501 -0.35871293656E+02  0.40269591981E+02 -0.26096155422E+03  0.31770792015E+03  0.17300000000E+03 0. -1.
<mgrwt>
<rscale>  2 0.18121090E+03</rscale>
<asrwt>0</asrwt>
<pdfrwt beam="1">  1        1 0.68474656E-02 0.18121090E+03</pdfrwt>
<pdfrwt beam="2">  1       -1 0.12278696E+00 0.18121090E+03</pdfrwt>
<totfact> 0.67070504E+02</totfact>
</mgrwt>
</event>
<event>
 4    1  0.8142558E-001  0.2927190E+03  0.7546771E-02  0.1088938E+00
         -1   -1    0    0    0  501 -0.00000000000E+00  0.00000000000E+00  0.68595610716E+02  0.68595610716E+02  0.00000000000E+00 0.  1.
          1   -1    0    0  502    0  0.00000000000E+00 -0.00000000000E+00 -0.15586982430E+04  0.15586982430E+04  0.00000000000E+00 0. -1.
          6    1    1    2  502    0 -0.14716132630E+03  0.18465901548E+03 -0.38244318733E+03  0.48160896949E+03  0.17300000000E+03 0.  1.
         -6    1    1    2    0  501  0.14716132630E+03 -0.18465901548E+03 -0.11076594450E+04  0.11456848842E+04  0.17300000000E+03 0. -1.
<mgrwt>
<rscale>  2 0.29271899E+03</rscale>
<asrwt>0</asrwt>
<pdfrwt beam="2">  1        1 0.23979971E+00 0.29271899E+03</pdfrwt>
<pdfrwt beam="1">  1       -1 0.10553172E-01 0.29271899E+03</pdfrwt>
<totfact> 0.36664143E+02</totfact>
</mgrwt>
</event>
<event>
 4    1  0.8142558E-001  0.1746122E+03  0.7546771E-02  0.1173122E+00
         -3   -1    0    0    0  501 -0.00000000000E+00  0.00000000000E+00  0.32813413050E+03  0.32813413050E+03  0.00000000000E+00 0. -1.
          3   -1    0    0  502    0  0.00000000000E+00 -0.00000000000E+00 -0.10367180980E+03  0.10367180980E+03  0.00000000000E+00 0.  1.
          6    1    1    2  502    0  0.12163711492E+02 -0.20308950950E+02  0.42693646251E+02  0.17975582549E+03  0.17300000000E+03 0.  1.
         -6    1    1    2    0  501 -0.12163711492E+02  0.20308950950E+02  0.18176867445E+03  0.25205011481E+03  0.17300000000E+03 0. -1.
<mgrwt>
<rscale>  2 0.17461217E+03</rscale>
<asrwt>0</asrwt>
<pdfrwt beam="2">  1        3 0.15949509E-01 0.17461217E+03</pdfrwt>
<pdfrwt beam="1">  1       -3 0.50482173E-01 0.17461217E+03</pdfrwt>
<totfact> 0.31441553E+02</totfact>
</mgrwt>
</event>
<event>
 4    1  0.8142558E-001  0.1913444E+03  0.7546771E-02  0.1157254E+00
          3   -1    0    0  502    0  0.00000000000E+00  0.00000000000E+00  0.12865732741E+03  0.12865732741E+03  0.00000000000E+00 0. -1.
         -3   -1    0    0    0  501 -0.00000000000E+00 -0.00000000000E+00 -0.38215126103E+03  0.38215126103E+03  0.00000000000E+00 0.  1.
          6    1    1    2  502    0  0.38719202001E+02  0.72003528818E+02  0.23102176431E+01  0.19135835982E+03  0.17300000000E+03 0. -1.
         -6    1    1    2    0  501 -0.38719202001E+02 -0.72003528818E+02 -0.25580415126E+03  0.31945022862E+03  0.17300000000E+03 0.  1.
<mgrwt>
<rscale>  2 0.19134441E+03</rscale>
<asrwt>0</asrwt>
<pdfrwt beam="1">  1        3 0.19793435E-01 0.19134441E+03</pdfrwt>
<pdfrwt beam="2">  1       -3 0.58792501E-01 0.19134441E+03</pdfrwt>
<totfact> 0.15957132E+02</totfact>
</mgrwt>
</event>
<event>
 4    1  0.8142558E-001  0.1946634E+03  0.7546771E-02  0.1154321E+00
          1   -1    0    0  502    0  0.00000000000E+00  0.00000000000E+00  0.32463013229E+03  0.32463013229E+03  0.00000000000E+00 0.  1.
         -1   -1    0    0    0  501 -0.00000000000E+00 -0.00000000000E+00 -0.14832679090E+03  0.14832679090E+03  0.00000000000E+00 0. -1.
          6    1    1    2  502    0  0.42452257719E+02 -0.78502615659E+02 -0.20994360129E+02  0.19579228281E+03  0.17300000000E+03 0. -1.
         -6    1    1    2    0  501 -0.42452257719E+02  0.78502615659E+02  0.19729770152E+03  0.27716464038E+03  0.17300000000E+03 0.  1.
<mgrwt>
<rscale>  2 0.19466344E+03</rscale>
<asrwt>0</asrwt>
<pdfrwt beam="1">  1        1 0.49943097E-01 0.19466344E+03</pdfrwt>
<pdfrwt beam="2">  1       -1 0.22819506E-01 0.19466344E+03</pdfrwt>
<totfact> 0.12790827E+03</totfact>
</mgrwt>
</event>
<event>
 4    1  0.8142558E-001  0.1987613E+03  0.7546771E-02  0.1150788E+00
          2   -1    0    0  502    0  0.00000000000E+00  0.00000000000E+00  0.25912650297E+04  0.25912650297E+04  0.00000000000E+00 0. -1.
         -2   -1    0    0    0  501 -0.00000000000E+00 -0.00000000000E+00 -0.46763968108E+02  0.46763968108E+02  0.00000000000E+00 0.  1.
          6    1    1    2  502    0 -0.90351860957E+02  0.37597978233E+02  0.23551146270E+04  0.23634870368E+04  0.17300000000E+03 0. -1.
         -6    1    1    2    0  501  0.90351860957E+02 -0.37597978233E+02  0.18938643454E+03  0.27454196097E+03  0.17300000000E+03 0.  1.
<mgrwt>
<rscale>  2 0.19876133E+03</rscale>
<asrwt>0</asrwt>
<pdfrwt beam="1">  1        2 0.39865605E+00 0.19876133E+03</pdfrwt>
<pdfrwt beam="2">  1       -2 0.71944586E-02 0.19876133E+03</pdfrwt>
<totfact> 0.40704705E+02</totfact>
</mgrwt>
</event>
<event>
 4    1  0.8142558E-001  0.1907251E+03  0.7546771E-02  0.1157809E+00
          2   -1    0    0  502    0  0.00000000000E+00  0.00000000000E+00  0.10780027213E+04  0.10780027213E+04  0.00000000000E+00 0.  1.
         -2   -1    0    0    0  501 -0.00000000000E+00 -0.00000000000E+00 -0.76017579828E+02  0.76017579828E+02  0.00000000000E+00 0. -1.
          6    1    1    2  502    0 -0.42681036090E+02  0.68010381455E+02  0.93128246099E+03  0.95061196341E+03  0.17300000000E+03 0.  1.
         -6    1    1    2    0  501  0.42681036090E+02 -0.68010381455E+02  0.70702680484E+02  0.20340833772E+03  0.17300000000E+03 0. -1.
<mgrwt>
<rscale>  2 0.19072515E+03</rscale>
<asrwt>0</asrwt>
<pdfrwt beam="1">  1        2 0.16584656E+00 0.19072515E+03</pdfrwt>
<pdfrwt beam="2">  1       -2 0.11695013E-01 0.19072515E+03</pdfrwt>
<totfact> 0.12174355E+03</totfact>
</mgrwt>
</event>
<event>
 4    1  0.8142558E-001  0.1797228E+03  0.7546771E-02  0.1168072E+00
         -2   -1    0    0    0  501 -0.00000000000E+00  0.00000000000E+00  0.39252947995E+02  0.39252947995E+02  0.00000000000E+00 0.  1.
          2   -1    0    0  502    0  0.00000000000E+00 -0.00000000000E+00 -0.82497406110E+03  0.82497406110E+03  0.00000000000E+00 0. -1.
          6    1    1    2  502    0 -0.20459312283E+02 -0.44189578146E+02 -0.41465290580E+03  0.45192624903E+03  0.17300000000E+03 0. -1.
         -6    1    1    2    0  501  0.20459312283E+02  0.44189578146E+02 -0.37106820730E+03  0.41230076006E+03  0.17300000000E+03 0.  1.
<mgrwt>
<rscale>  2 0.17972285E+03</rscale>
<asrwt>0</asrwt>
<pdfrwt beam="2">  1        2 0.12691909E+00 0.17972285E+03</pdfrwt>
<pdfrwt beam="1">  1       -2 0.60389150E-02 0.17972285E+03</pdfrwt>
<totfact> 0.49131309E+03</totfact>
</mgrwt>
</event>
<event>
 4    1  0.8142558E-001  0.2261862E+03  0.7546771E-02  0.1129353E+00
          2   -1    0    0  502    0  0.00000000000E+00  0.00000000000E+00  0.12004653727E+04  0.12004653727E+04  0.00000000000E+00 0. -1.
         -2   -1    0    0    0  501 -0.00000000000E+00 -0.00000000000E+00 -0.46466480402E+02  0.46466480402E+02  0.00000000000E+00 0.  1.
          6    1    1    2  502    0 -0.89774341597E+02  0.11476827680E+03  0.75645045835E+03  0.78954258004E+03  0.17300000000E+03 0. -1.
         -6    1    1    2    0  501  0.89774341597E+02 -0.11476827680E+03  0.39754843392E+03  0.45738927303E+03  0.17300000000E+03 0.  1.
<mgrwt>
<rscale>  2 0.22618618E+03</rscale>
<asrwt>0</asrwt>
<pdfrwt beam="1">  1        2 0.18468696E+00 0.22618618E+03</pdfrwt>
<pdfrwt beam="2">  1       -2 0.71486902E-02 0.22618618E+03</pdfrwt>
<totfact> 0.22494782E+03</totfact>
</mgrwt>
</event>
<event>
 4    1  0.8142558E-001  0.1752209E+03  0.7546771E-02  0.1172510E+00
          2   -1    0    0  502    0  0.00000000000E+00  0.00000000000E+00  0.11515651134E+03  0.11515651134E+03  0.00000000000E+00 0. -1.
         -2   -1    0    0    0  501 -0.00000000000E+00 -0.00000000000E+00 -0.29368627964E+03  0.29368627964E+03  0.00000000000E+00 0.  1.
          6    1    1    2  502    0  0.27043690135E+02  0.64799908266E+01 -0.15132977618E+03  0.23152333061E+03  0.17300000000E+03 0.  1.
         -6    1    1    2    0  501 -0.27043690135E+02 -0.64799908266E+01 -0.27199992115E+02  0.17731946038E+03  0.17300000000E+03 0. -1.
<mgrwt>
<rscale>  2 0.17522086E+03</rscale>
<asrwt>0</asrwt>
<pdfrwt beam="1">  1        2 0.17716387E-01 0.17522086E+03</pdfrwt>
<pdfrwt beam="2">  1       -2 0.45182504E-01 0.17522086E+03</pdfrwt>
<totfact> 0.14802455E+03</totfact>
</mgrwt>
</event>
<event>
 4    1  0.8142558E-001  0.1964090E+03  0.7546771E-02  0.1152805E+00
          2   -1    0    0  502    0  0.00000000000E+00  0.00000000000E+00  0.58376674857E+03  0.58376674857E+03  0.00000000000E+00 0. -1.
         -2   -1    0    0    0  501 -0.00000000000E+00 -0.00000000000E+00 -0.67457934302E+02  0.67457934302E+02  0.00000000000E+00 0.  1.
          6    1    1    2  502    0 -0.61915244803E+02 -0.69382934845E+02  0.30465721288E+03  0.36248104302E+03  0.17300000000E+03 0. -1.
         -6    1    1    2    0  501  0.61915244803E+02  0.69382934845E+02  0.21165160139E+03  0.28874363986E+03  0.17300000000E+03 0. -1.
<mgrwt>
<rscale>  2 0.19640898E+03</rscale>
<asrwt>0</asrwt>
<pdfrwt beam="1">  1        2 0.89810266E-01 0.19640898E+03</pdfrwt>
<pdfrwt beam="2">  1       -2 0.10378144E-01 0.19640898E+03</pdfrwt>
<totfact> 0.32165823E+03</totfact>
</mgrwt>
</event>
<event>
 4    1  0.8142558E-001  0.1854130E+03  0.7546771E-02  0.1162665E+00
         -2   -1    0    0    0  501 -0.00000000000E+00  0.00000000000E+00  0.43346718401E+03  0.43346718401E+03  0.00000000000E+00 0.  1.
          2   -1    0    0  502    0  0.00000000000E+00 -0.00000000000E+00 -0.85003526755E+02  0.85003526755E+02  0.00000000000E+00 0. -1.
          6    1    1    2  502    0  0.66674802743E+02 -0.18571314675E+01  0.24132729839E+03  0.30433015494E+03  0.17300000000E+03 0.  1.
         -6    1    1    2    0  501 -0.66674802743E+02  0.18571314675E+01  0.10713635887E+03  0.21414055583E+03  0.17300000000E+03 0. -1.
<mgrwt>
<rscale>  2 0.18541299E+03</rscale>
<asrwt>0</asrwt>
<pdfrwt beam="2">  1        2 0.13077466E-01 0.18541299E+03</pdfrwt>
<pdfrwt beam="1">  1       -2 0.66687258E-01 0.18541299E+03</pdfrwt>
<totfact> 0.96303577E+02</totfact>
</mgrwt>
</event>
<event>
 4    1  0.8142558E-001  0.3663329E+03  0.7546771E-02  0.1056104E+00
          2   -1    0    0  502    0  0.00000000000E+00  0.00000000000E+00  0.40633928151E+03  0.40633928151E+03  0.00000000000E+00 0. -1.
         -2   -1    0    0    0  501 -0.00000000000E+00 -0.00000000000E+00 -0.33125451683E+03  0.33125451683E+03  0.00000000000E+00 0.  1.
          6    1    1    2  502    0  0.28916732467E+03 -0.14371174019E+03  0.57694924543E+02  0.37084836557E+03  0.17300000000E+03 0. -1.
         -6    1    1    2    0  501 -0.28916732467E+03  0.14371174019E+03  0.17389840132E+02  0.36674543278E+03  0.17300000000E+03 0.  1.
<mgrwt>
<rscale>  2 0.36633292E+03</rscale>
<asrwt>0</asrwt>
<pdfrwt beam="1">  1        2 0.62513735E-01 0.36633292E+03</pdfrwt>
<pdfrwt beam="2">  1       -2 0.50962234E-01 0.36633292E+03</pdfrwt>
<totfact> 0.29070070E+02</totfact>
</mgrwt>
</event>
<event>
 4    1  0.8142558E-001  0.2533108E+03  0.7546771E-02  0.1111230E+00
         -2   -1    0    0    0  501 -0.00000000000E+00  0.00000000000E+00  0.13137912518E+03  0.13137912518E+03  0.00000000000E+00 0. -1.
          2   -1    0    0  502    0  0.00000000000E+00 -0.00000000000E+00 -0.53451580809E+03  0.53451580809E+03  0.00000000000E+00 0.  1.
          6    1    1    2  502    0 -0.89403913094E+02 -0.16200090671E+03 -0.29935780855E+03  0.39214978132E+03  0.17300000000E+03 0.  1.
         -6    1    1    2    0  501  0.89403913094E+02  0.16200090671E+03 -0.10377887436E+03  0.27374515195E+03  0.17300000000E+03 0. -1.
<mgrwt>
<rscale>  2 0.25331078E+03</rscale>
<asrwt>0</asrwt>
<pdfrwt beam="2">  1        2 0.82233202E-01 0.25331078E+03</pdfrwt>
<pdfrwt beam="1">  1       -2 0.20212173E-01 0.25331078E+03</pdfrwt>
<totfact> 0.11912135E+03</totfact>
</mgrwt>
</event>
<event>
 4    1  0.8142558E-001  0.3161956E+03  0.7546771E-02  0.1077414E+00
         -1   -1    0    0    0  501 -0.00000000000E+00  0.00000000000E+00  0.21365332793E+03  0.21365332793E+03  0.00000000000E+00 0.  1.
          1   -1    0    0  502    0  0.00000000000E+00 -0.00000000000E+00 -0.48370537692E+03  0.48370537692E+03  0.00000000000E+00 0. -1.
          6    1    1    2  502    0 -0.69955409865E+02 -0.25525846337E+03 -0.72102426414E+02  0.32431219895E+03  0.17300000000E+03 0. -1.
         -6    1    1    2    0  501  0.69955409865E+02  0.25525846337E+03 -0.19794962258E+03  0.37304650591E+03  0.17300000000E+03 0.  1.
<mgrwt>
<rscale>  2 0.31619558E+03</rscale>
<asrwt>0</asrwt>
<pdfrwt beam="2">  1        1 0.74416212E-01 0.31619558E+03</pdfrwt>
<pdfrwt beam="1">  1       -1 0.32869743E-01 0.31619558E+03</pdfrwt>
<totfact> 0.41343914E+02</totfact>
</mgrwt>
</event>
<event>
 4    1  0.8142558E-001  0.1790187E+03  0.7546771E-02  0.1168756E+00
          4   -1    0    0  502    0  0.00000000000E+00  0.00000000000E+00  0.30088899239E+03  0.30088899239E+03  0.00000000000E+00 0.  1.
         -4   -1    0    0    0  501 -0.00000000000E+00 -0.00000000000E+00 -0.15419105847E+03  0.15419105847E+03  0.00000000000E+00 0. -1.
          6    1    1    2  502    0 -0.30170717764E+02 -0.34762172409E+02  0.19988121912E+03  0.26832849755E+03  0.17300000000E+03 0.  1.
         -6    1    1    2    0  501  0.30170717764E+02  0.34762172409E+02 -0.53183285192E+02  0.18675155331E+03  0.17300000000E+03 0. -1.
<mgrwt>
<rscale>  2 0.17901866E+03</rscale>
<asrwt>0</asrwt>
<pdfrwt beam="1">  1        4 0.46290614E-01 0.17901866E+03</pdfrwt>
<pdfrwt beam="2">  1       -4 0.23721701E-01 0.17901866E+03</pdfrwt>
<totfact> 0.13108352E+02</totfact>
</mgrwt>
</event>
<event>
 4    1  0.8142558E-001  0.2097206E+03  0.7546771E-02  0.1141787E+00
          1   -1    0    0  502    0  0.00000000000E+00  0.00000000000E+00  0.44283883526E+04  0.44283883526E+04  0.00000000000E+00 0.  1.
         -1   -1    0    0    0  501 -0.00000000000E+00 -0.00000000000E+00 -0.11111050951E+02  0.11111050951E+02  0.00000000000E+00 0. -1.
          6    1    1    2  502    0  0.11053882987E+03 -0.42835519855E+02  0.29317319255E+04  0.29392235025E+04  0.17300000000E+03 0.  1.
         -6    1    1    2    0  501 -0.11053882987E+03  0.42835519855E+02  0.14855453762E+04  0.15002759011E+04  0.17300000000E+03 0. -1.
<mgrwt>
<rscale>  2 0.20972056E+03</rscale>
<asrwt>0</asrwt>
<pdfrwt beam="1">  1        1 0.68128911E+00 0.20972056E+03</pdfrwt>
<pdfrwt beam="2">  1       -1 0.17093960E-02 0.20972056E+03</pdfrwt>
<totfact> 0.45946216E+01</totfact>
</mgrwt>
</event>
<event>
 4    1  0.8142558E-001  0.1904197E+03  0.7546771E-02  0.1158083E+00
         -1   -1    0    0    0  501 -0.00000000000E+00  0.00000000000E+00  0.22003438065E+03  0.22003438065E+03  0.00000000000E+00 0.  1.
          1   -1    0    0  502    0  0.00000000000E+00 -0.00000000000E+00 -0.19865068739E+03  0.19865068739E+03  0.00000000000E+00 0. -1.
          6    1    1    2  502    0 -0.29886595959E+02 -0.73739137096E+02  0.97119833755E+02  0.21375670999E+03  0.17300000000E+03 0. -1.
         -6    1    1    2    0  501  0.29886595959E+02  0.73739137096E+02 -0.75736140491E+02  0.20492835805E+03  0.17300000000E+03 0. -1.
<mgrwt>
<rscale>  2 0.19041972E+03</rscale>
<asrwt>0</asrwt>
<pdfrwt beam="2">  1        1 0.30561644E-01 0.19041972E+03</pdfrwt>
<pdfrwt beam="1">  1       -1 0.33851443E-01 0.19041972E+03</pdfrwt>
<totfact> 0.12191518E+03</totfact>
</mgrwt>
</event>
<event>
 4    1  0.8142558E-001  0.1940551E+03  0.7546771E-02  0.1154854E+00
          3   -1    0    0  502    0  0.00000000000E+00  0.00000000000E+00  0.13565916989E+03  0.13565916989E+03  0.00000000000E+00 0.  1.
         -3   -1    0    0    0  501 -0.00000000000E+00 -0.00000000000E+00 -0.28178143780E+03  0.28178143780E+03  0.00000000000E+00 0. -1.
          6    1    1    2  502    0  0.14599923991E+02  0.86690456600E+02 -0.98522406140E+02  0.21763285036E+03  0.17300000000E+03 0. -1.
         -6    1    1    2    0  501 -0.14599923991E+02 -0.86690456600E+02 -0.47599861773E+02  0.19980775732E+03  0.17300000000E+03 0.  1.
<mgrwt>
<rscale>  2 0.19405513E+03</rscale>
<asrwt>0</asrwt>
<pdfrwt beam="1">  1        3 0.20870641E-01 0.19405513E+03</pdfrwt>
<pdfrwt beam="2">  1       -3 0.43350991E-01 0.19405513E+03</pdfrwt>
<totfact> 0.26869440E+02</totfact>
</mgrwt>
</event>
<event>
 4    1  0.8142558E-001  0.1780112E+03  0.7546771E-02  0.1169742E+00
          2   -1    0    0  502    0  0.00000000000E+00  0.00000000000E+00  0.11963707183E+03  0.11963707183E+03  0.00000000000E+00 0. -1.
         -2   -1    0    0    0  501 -0.00000000000E+00 -0.00000000000E+00 -0.33087561104E+03  0.33087561104E+03  0.00000000000E+00 0.  1.
          6    1    1    2  502    0  0.18508181358E+02  0.37635477728E+02 -0.20622970531E+03  0.27243104323E+03  0.17300000000E+03 0.  1.
         -6    1    1    2    0  501 -0.18508181358E+02 -0.37635477728E+02 -0.50088339007E+01  0.17808163964E+03  0.17300000000E+03 0. -1.
<mgrwt>
<rscale>  2 0.17801118E+03</rscale>
<asrwt>0</asrwt>
<pdfrwt beam="1">  1        2 0.18405704E-01 0.17801118E+03</pdfrwt>
<pdfrwt beam="2">  1       -2 0.50903939E-01 0.17801118E+03</pdfrwt>
<totfact> 0.11204187E+03</totfact>
</mgrwt>
</event>
<event>
 4    1  0.8142558E-001  0.2250536E+03  0.7546771E-02  0.1130170E+00
         -1   -1    0    0    0  501 -0.00000000000E+00  0.00000000000E+00  0.49682434080E+03  0.49682434080E+03  0.00000000000E+00 0. -1.
          1   -1    0    0  502    0  0.00000000000E+00 -0.00000000000E+00 -0.10834202739E+03  0.10834202739E+03  0.00000000000E+00 0.  1.
          6    1    1    2  502    0 -0.25238347262E+02 -0.14171507904E+03  0.26776182132E+03  0.34977926004E+03  0.17300000000E+03 0.  1.
         -6    1    1    2    0  501  0.25238347262E+02  0.14171507904E+03  0.12072049209E+03  0.25538710815E+03  0.17300000000E+03 0. -1.
<mgrwt>
<rscale>  2 0.22505363E+03</rscale>
<asrwt>0</asrwt>
<pdfrwt beam="2">  1        1 0.16668005E-01 0.22505363E+03</pdfrwt>
<pdfrwt beam="1">  1       -1 0.76434513E-01 0.22505363E+03</pdfrwt>
<totfact> 0.58199192E+02</totfact>
</mgrwt>
</event>
<event>
 4    1  0.8142558E-001  0.1825816E+03  0.7546771E-02  0.1165328E+00
         -1   -1    0    0    0  501 -0.00000000000E+00  0.00000000000E+00  0.31747894468E+02  0.31747894468E+02  0.00000000000E+00 0.  1.
          1   -1    0    0  502    0  0.00000000000E+00 -0.00000000000E+00 -0.14335664752E+04  0.14335664752E+04  0.00000000000E+00 0. -1.
          6    1    1    2  502    0  0.58164844195E+02 -0.48870498256E+01 -0.32194441136E+03  0.37011381542E+03  0.17300000000E+03 0.  1.
         -6    1    1    2    0  501 -0.58164844195E+02  0.48870498256E+01 -0.10798741694E+04  0.10952005542E+04  0.17300000000E+03 0. -1.
<mgrwt>
<rscale>  2 0.18258158E+03</rscale>
<asrwt>0</asrwt>
<pdfrwt beam="2">  1        1 0.22054868E+00 0.18258158E+03</pdfrwt>
<pdfrwt beam="1">  1       -1 0.48842916E-02 0.18258158E+03</pdfrwt>
<totfact> 0.14488322E+03</totfact>
</mgrwt>
</event>
<event>
 4    1  0.8142558E-001  0.2293219E+03  0.7546771E-02  0.1127118E+00
         -2   -1    0    0    0  501 -0.00000000000E+00  0.00000000000E+00  0.18132053202E+03  0.18132053202E+03  0.00000000000E+00 0. -1.
          2   -1    0    0  502    0  0.00000000000E+00 -0.00000000000E+00 -0.30035921188E+03  0.30035921188E+03  0.00000000000E+00 0.  1.
          6    1    1    2  502    0 -0.63245842679E+02  0.13659979899E+03 -0.14858759199E+02  0.22980279464E+03  0.17300000000E+03 0.  1.
         -6    1    1    2    0  501  0.63245842679E+02 -0.13659979899E+03 -0.10417992066E+03  0.25187694926E+03  0.17300000000E+03 0.  1.
<mgrwt>
<rscale>  2 0.22932192E+03</rscale>
<asrwt>0</asrwt>
<pdfrwt beam="2">  1        2 0.46209109E-01 0.22932192E+03</pdfrwt>
<pdfrwt beam="1">  1       -2 0.27895467E-01 0.22932192E+03</pdfrwt>
<totfact> 0.12712304E+03</totfact>
</mgrwt>
</event>
<event>
 4    1  0.8142558E-001  0.3477158E+03  0.7546771E-02  0.1063557E+00
         -2   -1    0    0    0  501 -0.00000000000E+00  0.00000000000E+00  0.14720252641E+03  0.14720252641E+03  0.00000000000E+00 0.  1.
          2   -1    0    0  502    0  0.00000000000E+00 -0.00000000000E+00 -0.10372440344E+04  0.10372440344E+04  0.00000000000E+00 0. -1.
          6    1    1    2  502    0  0.86823189611E+02  0.28885807087E+03 -0.71520210744E+03  0.79524858117E+03  0.17300000000E+03 0. -1.
         -6    1    1    2    0  501 -0.86823189611E+02 -0.28885807087E+03 -0.17483940050E+03  0.38919797960E+03  0.17300000000E+03 0.  1.
<mgrwt>
<rscale>  2 0.34771576E+03</rscale>
<asrwt>0</asrwt>
<pdfrwt beam="2">  1        2 0.15957600E+00 0.34771576E+03</pdfrwt>
<pdfrwt beam="1">  1       -2 0.22646543E-01 0.34771576E+03</pdfrwt>
<totfact> 0.42128252E+02</totfact>
</mgrwt>
</event>
<event>
 4    1  0.8142558E-001  0.1810583E+03  0.7546771E-02  0.1166783E+00
         -2   -1    0    0    0  501 -0.00000000000E+00  0.00000000000E+00  0.57241883951E+02  0.57241883951E+02  0.00000000000E+00 0. -1.
          2   -1    0    0  502    0  0.00000000000E+00 -0.00000000000E+00 -0.98186954570E+03  0.98186954570E+03  0.00000000000E+00 0.  1.
          6    1    1    2  502    0  0.39076180857E+02 -0.36416326231E+02 -0.79771142550E+03  0.81800098723E+03  0.17300000000E+03 0.  1.
         -6    1    1    2    0  501 -0.39076180857E+02  0.36416326231E+02 -0.12691623625E+03  0.22111044243E+03  0.17300000000E+03 0. -1.
<mgrwt>
<rscale>  2 0.18105827E+03</rscale>
<asrwt>0</asrwt>
<pdfrwt beam="2">  1        2 0.15105684E+00 0.18105827E+03</pdfrwt>
<pdfrwt beam="1">  1       -2 0.88064444E-02 0.18105827E+03</pdfrwt>
<totfact> 0.21781101E+03</totfact>
</mgrwt>
</event>
<event>
 4    1  0.8142558E-001  0.2718500E+03  0.7546771E-02  0.1100225E+00
         -2   -1    0    0    0  501 -0.00000000000E+00  0.00000000000E+00  0.98231624531E+02  0.98231624531E+02  0.00000000000E+00 0. -1.
          2   -1    0    0  502    0  0.00000000000E+00 -0.00000000000E+00 -0.75250863624E+03  0.75250863624E+03  0.00000000000E+00 0.  1.
          6    1    1    2  502    0  0.13917517091E+03 -0.15685564924E+03 -0.32055202882E+03  0.42030468243E+03  0.17300000000E+03 0.  1.
         -6    1    1    2    0  501 -0.13917517091E+03  0.15685564924E+03 -0.33372498289E+03  0.43043557834E+03  0.17300000000E+03 0. -1.
<mgrwt>
<rscale>  2 0.27185000E+03</rscale>
<asrwt>0</asrwt>
<pdfrwt beam="2">  1        2 0.11577056E+00 0.27185000E+03</pdfrwt>
<pdfrwt beam="1">  1       -2 0.15112557E-01 0.27185000E+03</pdfrwt>
<totfact> 0.12972211E+03</totfact>
</mgrwt>
</event>
<event>
 4    1  0.8142558E-001  0.1983724E+03  0.7546771E-02  0.1151120E+00
         -2   -1    0    0    0  501 -0.00000000000E+00  0.00000000000E+00  0.73494150767E+02  0.73494150767E+02  0.00000000000E+00 0.  1.
          2   -1    0    0  502    0  0.00000000000E+00 -0.00000000000E+00 -0.13525667877E+04  0.13525667877E+04  0.00000000000E+00 0. -1.
          6    1    1    2  502    0  0.40870071540E+01  0.96984035530E+02 -0.85327005572E+02  0.21594514270E+03  0.17300000000E+03 0.  1.
         -6    1    1    2    0  501 -0.40870071540E+01 -0.96984035530E+02 -0.11937456313E+04  0.12101157957E+04  0.17300000000E+03 0. -1.
<mgrwt>
<rscale>  2 0.19837239E+03</rscale>
<asrwt>0</asrwt>
<pdfrwt beam="2">  1        2 0.20808721E+00 0.19837239E+03</pdfrwt>
<pdfrwt beam="1">  1       -2 0.11306792E-01 0.19837239E+03</pdfrwt>
<totfact> 0.90093805E+02</totfact>
</mgrwt>
</event>
<event>
 4    1  0.8142558E-001  0.2834038E+03  0.7546771E-02  0.1093844E+00
          1   -1    0    0  502    0  0.00000000000E+00  0.00000000000E+00  0.65054898696E+03  0.65054898696E+03  0.00000000000E+00 0.  1.
         -1   -1    0    0    0  501 -0.00000000000E+00 -0.00000000000E+00 -0.20348639684E+03  0.20348639684E+03  0.00000000000E+00 0. -1.
          6    1    1    2  502    0  0.21568782604E+03 -0.62189245664E+02 -0.44256509261E+02  0.28683859432E+03  0.17300000000E+03 0. -1.
         -6    1    1    2    0  501 -0.21568782604E+03  0.62189245664E+02  0.49131909939E+03  0.56719678948E+03  0.17300000000E+03 0.  1.
<mgrwt>
<rscale>  2 0.28340385E+03</rscale>
<asrwt>0</asrwt>
<pdfrwt beam="1">  1        1 0.10008446E+00 0.28340385E+03</pdfrwt>
<pdfrwt beam="2">  1       -1 0.31305600E-01 0.28340385E+03</pdfrwt>
<totfact> 0.29984206E+02</totfact>
</mgrwt>
</event>
<event>
 4    1  0.8142558E-001  0.2459627E+03  0.7546771E-02  0.1115883E+00
          1   -1    0    0  502    0  0.00000000000E+00  0.00000000000E+00  0.37632484829E+03  0.37632484829E+03  0.00000000000E+00 0.  1.
         -1   -1    0    0    0  501 -0.00000000000E+00 -0.00000000000E+00 -0.16766600779E+03  0.16766600779E+03  0.00000000000E+00 0. -1.
          6    1    1    2  502    0 -0.15726109441E+03 -0.76404125656E+02  0.49124083665E+02  0.25082028990E+03  0.17300000000E+03 0. -1.
         -6    1    1    2    0  501  0.15726109441E+03  0.76404125656E+02  0.15953475684E+03  0.29317056618E+03  0.17300000000E+03 0.  1.
<mgrwt>
<rscale>  2 0.24596268E+03</rscale>
<asrwt>0</asrwt>
<pdfrwt beam="1">  1        1 0.57896130E-01 0.24596268E+03</pdfrwt>
<pdfrwt beam="2">  1       -1 0.25794770E-01 0.24596268E+03</pdfrwt>
<totfact> 0.86781768E+02</totfact>
</mgrwt>
</event>
<event>
 4    1  0.8142558E-001  0.2163942E+03  0.7546771E-02  0.1136600E+00
         -1   -1    0    0    0  501 -0.00000000000E+00  0.00000000000E+00  0.62362719100E+03  0.62362719100E+03  0.00000000000E+00 0.  1.
          1   -1    0    0  502    0  0.00000000000E+00 -0.00000000000E+00 -0.22471328578E+03  0.22471328578E+03  0.00000000000E+00 0. -1.
          6    1    1    2  502    0 -0.27759987901E+02  0.12699150911E+03  0.54557909324E+03  0.58692674781E+03  0.17300000000E+03 0.  1.
         -6    1    1    2    0  501  0.27759987901E+02 -0.12699150911E+03 -0.14666518802E+03  0.26141372896E+03  0.17300000000E+03 0. -1.
<mgrwt>
<rscale>  2 0.21639422E+03</rscale>
<asrwt>0</asrwt>
<pdfrwt beam="2">  1        1 0.34571275E-01 0.21639422E+03</pdfrwt>
<pdfrwt beam="1">  1       -1 0.95942644E-01 0.21639422E+03</pdfrwt>
<totfact> 0.14191113E+02</totfact>
</mgrwt>
</event>
<event>
 4    1  0.8142558E-001  0.1845659E+03  0.7546771E-02  0.1163456E+00
          2   -1    0    0  502    0  0.00000000000E+00  0.00000000000E+00  0.84460090638E+03  0.84460090638E+03  0.00000000000E+00 0.  1.
         -2   -1    0    0    0  501 -0.00000000000E+00 -0.00000000000E+00 -0.27697459749E+03  0.27697459749E+03  0.00000000000E+00 0. -1.
          6    1    1    2  502    0  0.70819654547E+01 -0.63917184993E+02  0.80216528086E+03  0.82312435184E+03  0.17300000000E+03 0.  1.
         -6    1    1    2    0  501 -0.70819654547E+01  0.63917184993E+02 -0.23453897197E+03  0.29845115203E+03  0.17300000000E+03 0. -1.
<mgrwt>
<rscale>  2 0.18456587E+03</rscale>
<asrwt>0</asrwt>
<pdfrwt beam="1">  1        2 0.12993860E+00 0.18456587E+03</pdfrwt>
<pdfrwt beam="2">  1       -2 0.42611477E-01 0.18456587E+03</pdfrwt>
<totfact> 0.17870240E+02</totfact>
</mgrwt>
</event>
<event>
 4    1  0.8142558E-001  0.5448509E+03  0.7546771E-02  0.1002693E+00
          2   -1    0    0  502    0  0.00000000000E+00  0.00000000000E+00  0.63569565604E+03  0.63569565604E+03  0.00000000000E+00 0. -1.
         -2   -1    0    0    0  501 -0.00000000000E+00 -0.00000000000E+00 -0.47170606939E+03  0.47170606939E+03  0.00000000000E+00 0.  1.
          6    1    1    2  502    0 -0.50726070614E+03  0.98081876263E+02  0.26620960502E+02  0.54550082858E+03  0.17300000000E+03 0.  1.
         -6    1    1    2    0  501  0.50726070614E+03 -0.98081876263E+02  0.13736862615E+03  0.56190089686E+03  0.17300000000E+03 0. -1.
<mgrwt>
<rscale>  2 0.54485088E+03</rscale>
<asrwt>0</asrwt>
<pdfrwt beam="1">  1        2 0.97799332E-01 0.54485088E+03</pdfrwt>
<pdfrwt beam="2">  1       -2 0.72570164E-01 0.54485088E+03</pdfrwt>
<totfact> 0.81541536E+01</totfact>
</mgrwt>
</event>
<event>
 4    1  0.8142558E-001  0.4196946E+03  0.7546771E-02  0.1037166E+00
         -2   -1    0    0    0  501 -0.00000000000E+00  0.00000000000E+00  0.46653169601E+02  0.46653169601E+02  0.00000000000E+00 0. -1.
          2   -1    0    0  502    0  0.00000000000E+00 -0.00000000000E+00 -0.37860344682E+04  0.37860344682E+04  0.00000000000E+00 0.  1.
          6    1    1    2  502    0 -0.12981971632E+03  0.35966842869E+03 -0.19703124396E+04  0.20145159833E+04  0.17300000000E+03 0.  1.
         -6    1    1    2    0  501  0.12981971632E+03 -0.35966842869E+03 -0.17690688590E+04  0.18181716545E+04  0.17300000000E+03 0.  1.
<mgrwt>
<rscale>  2 0.41969458E+03</rscale>
<asrwt>0</asrwt>
<pdfrwt beam="2">  1        2 0.58246703E+00 0.41969458E+03</pdfrwt>
<pdfrwt beam="1">  1       -2 0.71774084E-02 0.41969458E+03</pdfrwt>
<totfact> 0.68659413E+01</totfact>
</mgrwt>
</event>
<event>
 4    1  0.8142558E-001  0.1874587E+03  0.7546771E-02  0.1160774E+00
          1   -1    0    0  502    0  0.00000000000E+00  0.00000000000E+00  0.58887181458E+03  0.58887181458E+03  0.00000000000E+00 0. -1.
         -1   -1    0    0    0  501 -0.00000000000E+00 -0.00000000000E+00 -0.17829773373E+03  0.17829773373E+03  0.00000000000E+00 0.  1.
          6    1    1    2  502    0  0.65316892837E+02 -0.30748375424E+02  0.51816352998E+03  0.55103012884E+03  0.17300000000E+03 0. -1.
         -6    1    1    2    0  501 -0.65316892837E+02  0.30748375424E+02 -0.10758944913E+03  0.21613941946E+03  0.17300000000E+03 0.  1.
<mgrwt>
<rscale>  2 0.18745869E+03</rscale>
<asrwt>0</asrwt>
<pdfrwt beam="1">  1        1 0.90595663E-01 0.18745869E+03</pdfrwt>
<pdfrwt beam="2">  1       -1 0.27430421E-01 0.18745869E+03</pdfrwt>
<totfact> 0.43533362E+02</totfact>
</mgrwt>
</event>
<event>
 4    1  0.8142558E-001  0.2013468E+03  0.7546771E-02  0.1148608E+00
          2   -1    0    0  502    0  0.00000000000E+00  0.00000000000E+00  0.26811601873E+04  0.26811601873E+04  0.00000000000E+00 0.  1.
         -2   -1    0    0    0  501 -0.00000000000E+00 -0.00000000000E+00 -0.15123411952E+02  0.15123411952E+02  0.00000000000E+00 0. -1.
          6    1    1    2  502    0 -0.10285540032E+03  0.56824685480E+01  0.13143608824E+04  0.13296935936E+04  0.17300000000E+03 0.  1.
         -6    1    1    2    0  501  0.10285540032E+03 -0.56824685480E+01  0.13516758929E+04  0.13665900056E+04  0.17300000000E+03 0.  1.
<mgrwt>
<rscale>  2 0.20134678E+03</rscale>
<asrwt>0</asrwt>
<pdfrwt beam="1">  1        2 0.41248581E+00 0.20134678E+03</pdfrwt>
<pdfrwt beam="2">  1       -2 0.23266809E-02 0.20134678E+03</pdfrwt>
<totfact> 0.19828318E+03</totfact>
</mgrwt>
</event>
<event>
 4    1  0.8142558E-001  0.1791472E+03  0.7546771E-02  0.1168631E+00
          2   -1    0    0  502    0  0.00000000000E+00  0.00000000000E+00  0.50803704918E+03  0.50803704918E+03  0.00000000000E+00 0.  1.
         -2   -1    0    0    0  501 -0.00000000000E+00 -0.00000000000E+00 -0.64911942978E+02  0.64911942978E+02  0.00000000000E+00 0. -1.
          6    1    1    2  502    0  0.12587184535E+02 -0.44791426825E+02  0.26846472677E+03  0.32274915748E+03  0.17300000000E+03 0.  1.
         -6    1    1    2    0  501 -0.12587184535E+02  0.44791426825E+02  0.17466037943E+03  0.25019983468E+03  0.17300000000E+03 0. -1.
<mgrwt>
<rscale>  2 0.17914717E+03</rscale>
<asrwt>0</asrwt>
<pdfrwt beam="1">  1        2 0.78159543E-01 0.17914717E+03</pdfrwt>
<pdfrwt beam="2">  1       -2 0.99864531E-02 0.17914717E+03</pdfrwt>
<totfact> 0.39860640E+03</totfact>
</mgrwt>
</event>
<event>
 4    1  0.8142558E-001  0.1986678E+03  0.7546771E-02  0.1150868E+00
          1   -1    0    0  502    0  0.00000000000E+00  0.00000000000E+00  0.18656266842E+04  0.18656266842E+04  0.00000000000E+00 0.  1.
         -1   -1    0    0    0  501 -0.00000000000E+00 -0.00000000000E+00 -0.24316998333E+02  0.24316998333E+02  0.00000000000E+00 0. -1.
          6    1    1    2  502    0 -0.97663176615E+02 -0.13475266975E+01  0.12613661588E+04  0.12769156191E+04  0.17300000000E+03 0.  1.
         -6    1    1    2    0  501  0.97663176615E+02  0.13475266975E+01  0.57994352711E+03  0.61302806342E+03  0.17300000000E+03 0. -1.
<mgrwt>
<rscale>  2 0.19866784E+03</rscale>
<asrwt>0</asrwt>
<pdfrwt beam="1">  1        1 0.28701938E+00 0.19866784E+03</pdfrwt>
<pdfrwt beam="2">  1       -1 0.37410782E-02 0.19866784E+03</pdfrwt>
<totfact> 0.11271575E+03</totfact>
</mgrwt>
</event>
<event>
 4    1  0.8142558E-001  0.4917713E+03  0.7546771E-02  0.1015949E+00
         -2   -1    0    0    0  501 -0.00000000000E+00  0.00000000000E+00  0.32260808330E+03  0.32260808330E+03  0.00000000000E+00 0.  1.
          2   -1    0    0  502    0  0.00000000000E+00 -0.00000000000E+00 -0.18378162449E+04  0.18378162449E+04  0.00000000000E+00 0. -1.
          6    1    1    2  502    0  0.68229928476E+02 -0.45525234219E+03  0.73601022469E+02  0.49724855829E+03  0.17300000000E+03 0.  1.
         -6    1    1    2    0  501 -0.68229928476E+02  0.45525234219E+03 -0.15888091841E+04  0.16631757699E+04  0.17300000000E+03 0. -1.
<mgrwt>
<rscale>  2 0.49177131E+03</rscale>
<asrwt>0</asrwt>
<pdfrwt beam="2">  1        2 0.28274096E+00 0.49177131E+03</pdfrwt>
<pdfrwt beam="1">  1       -2 0.49632013E-01 0.49177131E+03</pdfrwt>
<totfact> 0.33810324E+01</totfact>
</mgrwt>
</event>
<event>
 4    1  0.8142558E-001  0.1820277E+03  0.7546771E-02  0.1165855E+00
          1   -1    0    0  502    0  0.00000000000E+00  0.00000000000E+00  0.77307421718E+03  0.77307421718E+03  0.00000000000E+00 0. -1.
         -1   -1    0    0    0  501 -0.00000000000E+00 -0.00000000000E+00 -0.13536513946E+03  0.13536513946E+03  0.00000000000E+00 0.  1.
          6    1    1    2  502    0 -0.35384664522E+01  0.56502822926E+02 -0.56632601482E+02  0.19063405072E+03  0.17300000000E+03 0.  1.
         -6    1    1    2    0  501  0.35384664522E+01 -0.56502822926E+02  0.69434167920E+03  0.71780530593E+03  0.17300000000E+03 0. -1.
<mgrwt>
<rscale>  2 0.18202772E+03</rscale>
<asrwt>0</asrwt>
<pdfrwt beam="1">  1        1 0.11893449E+00 0.18202772E+03</pdfrwt>
<pdfrwt beam="2">  1       -1 0.20825407E-01 0.18202772E+03</pdfrwt>
<totfact> 0.46464944E+02</totfact>
</mgrwt>
</event>
<event>
 4    1  0.8142558E-001  0.2043209E+03  0.7546771E-02  0.1146144E+00
         -2   -1    0    0    0  501 -0.00000000000E+00  0.00000000000E+00  0.40059376607E+02  0.40059376607E+02  0.00000000000E+00 0. -1.
          2   -1    0    0  502    0  0.00000000000E+00 -0.00000000000E+00 -0.10470496158E+04  0.10470496158E+04  0.00000000000E+00 0.  1.
          6    1    1    2  502    0 -0.16547006903E+02  0.10744398234E+03 -0.54075977121E+03  0.57807278343E+03  0.17300000000E+03 0. -1.
         -6    1    1    2    0  501  0.16547006903E+02 -0.10744398234E+03 -0.46623046799E+03  0.50903620899E+03  0.17300000000E+03 0. -1.
<mgrwt>
<rscale>  2 0.20432086E+03</rscale>
<asrwt>0</asrwt>
<pdfrwt beam="2">  1        2 0.16108455E+00 0.20432086E+03</pdfrwt>
<pdfrwt beam="1">  1       -2 0.61629813E-02 0.20432086E+03</pdfrwt>
<totfact> 0.34657267E+03</totfact>
</mgrwt>
</event>
<event>
 4    1  0.8142558E-001  0.2141723E+03  0.7546771E-02  0.1138304E+00
         -2   -1    0    0    0  501 -0.00000000000E+00  0.00000000000E+00  0.40570365500E+02  0.40570365500E+02  0.00000000000E+00 0. -1.
          2   -1    0    0  502    0  0.00000000000E+00 -0.00000000000E+00 -0.11661562028E+04  0.11661562028E+04  0.00000000000E+00 0.  1.
          6    1    1    2  502    0 -0.51693071079E+02  0.11518944392E+03 -0.66811482520E+03  0.70160330761E+03  0.17300000000E+03 0.  1.
         -6    1    1    2    0  501  0.51693071079E+02 -0.11518944392E+03 -0.45747101211E+03  0.50512326071E+03  0.17300000000E+03 0. -1.
<mgrwt>
<rscale>  2 0.21417232E+03</rscale>
<asrwt>0</asrwt>
<pdfrwt beam="2">  1        2 0.17940863E+00 0.21417232E+03</pdfrwt>
<pdfrwt beam="1">  1       -2 0.62415952E-02 0.21417232E+03</pdfrwt>
<totfact> 0.28996287E+03</totfact>
</mgrwt>
</event>
<event>
 4    1  0.8142558E-001  0.1777096E+03  0.7546771E-02  0.1170038E+00
         -2   -1    0    0    0  501 -0.00000000000E+00  0.00000000000E+00  0.13193275084E+02  0.13193275084E+02  0.00000000000E+00 0. -1.
          2   -1    0    0  502    0  0.00000000000E+00 -0.00000000000E+00 -0.24371295445E+04  0.24371295445E+04  0.00000000000E+00 0.  1.
          6    1    1    2  502    0 -0.11989394848E+02 -0.38832330653E+02 -0.13755233809E+04  0.13869553947E+04  0.17300000000E+03 0.  1.
         -6    1    1    2    0  501  0.11989394848E+02  0.38832330653E+02 -0.10484128885E+04  0.10633674248E+04  0.17300000000E+03 0. -1.
<mgrwt>
<rscale>  2 0.17770958E+03</rscale>
<asrwt>0</asrwt>
<pdfrwt beam="2">  1        2 0.37494304E+00 0.17770958E+03</pdfrwt>
<pdfrwt beam="1">  1       -2 0.20297345E-02 0.17770958E+03</pdfrwt>
<totfact> 0.32986337E+03</totfact>
</mgrwt>
</event>
<event>
 4    1  0.8142558E-001  0.1978322E+03  0.7546771E-02  0.1151581E+00
          2   -1    0    0  502    0  0.00000000000E+00  0.00000000000E+00  0.22946644972E+04  0.22946644972E+04  0.00000000000E+00 0. -1.
         -2   -1    0    0    0  501 -0.00000000000E+00 -0.00000000000E+00 -0.20443779567E+02  0.20443779567E+02  0.00000000000E+00 0.  1.
          6    1    1    2  502    0 -0.90974585290E+02 -0.30532326546E+02  0.16083305192E+04  0.16204519916E+04  0.17300000000E+03 0. -1.
         -6    1    1    2    0  501  0.90974585290E+02  0.30532326546E+02  0.66589019841E+03  0.69465628513E+03  0.17300000000E+03 0.  1.
<mgrwt>
<rscale>  2 0.19783225E+03</rscale>
<asrwt>0</asrwt>
<pdfrwt beam="1">  1        2 0.35302510E+00 0.19783225E+03</pdfrwt>
<pdfrwt beam="2">  1       -2 0.31451987E-02 0.19783225E+03</pdfrwt>
<totfact> 0.20571852E+03</totfact>
</mgrwt>
</event>
<event>
 4    1  0.8142558E-001  0.2697262E+03  0.7546771E-02  0.1101436E+00
         -1   -1    0    0    0  501 -0.00000000000E+00  0.00000000000E+00  0.20549626667E+03  0.20549626667E+03  0.00000000000E+00 0.  1.
          1   -1    0    0  502    0  0.00000000000E+00 -0.00000000000E+00 -0.13566108604E+04  0.13566108604E+04  0.00000000000E+00 0. -1.
          6    1    1    2  502    0 -0.16229202717E+03  0.12839210566E+03 -0.12470054220E+04  0.12758427636E+04  0.17300000000E+03 0. -1.
         -6    1    1    2    0  501  0.16229202717E+03 -0.12839210566E+03  0.95890828250E+02  0.28626436352E+03  0.17300000000E+03 0.  1.
<mgrwt>
<rscale>  2 0.26972622E+03</rscale>
<asrwt>0</asrwt>
<pdfrwt beam="2">  1        1 0.20870936E+00 0.26972622E+03</pdfrwt>
<pdfrwt beam="1">  1       -1 0.31614810E-01 0.26972622E+03</pdfrwt>
<totfact> 0.84405640E+01</totfact>
</mgrwt>
</event>
<event>
 4    1  0.8142558E-001  0.1827210E+03  0.7546771E-02  0.1165195E+00
          2   -1    0    0  502    0  0.00000000000E+00  0.00000000000E+00  0.42308934393E+03  0.42308934393E+03  0.00000000000E+00 0. -1.
         -2   -1    0    0    0  501 -0.00000000000E+00 -0.00000000000E+00 -0.12619451161E+03  0.12619451161E+03  0.00000000000E+00 0.  1.
          6    1    1    2  502    0  0.57034196272E+02  0.14320699539E+02 -0.19663217205E+02  0.18377601609E+03  0.17300000000E+03 0.  1.
         -6    1    1    2    0  501 -0.57034196272E+02 -0.14320699539E+02  0.31655804952E+03  0.36550783945E+03  0.17300000000E+03 0. -1.
<mgrwt>
<rscale>  2 0.18272105E+03</rscale>
<asrwt>0</asrwt>
<pdfrwt beam="1">  1        2 0.65090668E-01 0.18272105E+03</pdfrwt>
<pdfrwt beam="2">  1       -2 0.19414540E-01 0.18272105E+03</pdfrwt>
<totfact> 0.16454611E+03</totfact>
</mgrwt>
</event>
<event>
 4    1  0.8142558E-001  0.2131788E+03  0.7546771E-02  0.1139073E+00
          1   -1    0    0  502    0  0.00000000000E+00  0.00000000000E+00  0.40600815696E+03  0.40600815696E+03  0.00000000000E+00 0.  1.
         -1   -1    0    0    0  501 -0.00000000000E+00 -0.00000000000E+00 -0.17601882118E+03  0.17601882118E+03  0.00000000000E+00 0. -1.
          6    1    1    2  502    0 -0.74554872667E+02 -0.99788532114E+02  0.29059242843E+03  0.36040135910E+03  0.17300000000E+03 0.  1.
         -6    1    1    2    0  501  0.74554872667E+02  0.99788532114E+02 -0.60603092649E+02  0.22162561905E+03  0.17300000000E+03 0. -1.
<mgrwt>
<rscale>  2 0.21317875E+03</rscale>
<asrwt>0</asrwt>
<pdfrwt beam="1">  1        1 0.62462793E-01 0.21317875E+03</pdfrwt>
<pdfrwt beam="2">  1       -1 0.27079819E-01 0.21317875E+03</pdfrwt>
<totfact> 0.72576934E+02</totfact>
</mgrwt>
</event>
<event>
 4    1  0.8142558E-001  0.1740744E+03  0.7546771E-02  0.1173664E+00
         -3   -1    0    0    0  501 -0.00000000000E+00  0.00000000000E+00  0.11733951092E+03  0.11733951092E+03  0.00000000000E+00 0.  1.
          3   -1    0    0  502    0  0.00000000000E+00 -0.00000000000E+00 -0.29406773840E+03  0.29406773840E+03  0.00000000000E+00 0. -1.
          6    1    1    2  502    0 -0.15141602184E+02  0.11984947450E+02 -0.16564830152E+02  0.17486080373E+03  0.17300000000E+03 0.  1.
         -6    1    1    2    0  501  0.15141602184E+02 -0.11984947450E+02 -0.16016339732E+03  0.23654644560E+03  0.17300000000E+03 0. -1.
<mgrwt>
<rscale>  2 0.17407443E+03</rscale>
<asrwt>0</asrwt>
<pdfrwt beam="2">  1        3 0.45241190E-01 0.17407443E+03</pdfrwt>
<pdfrwt beam="1">  1       -3 0.18052233E-01 0.17407443E+03</pdfrwt>
<totfact> 0.31531934E+02</totfact>
</mgrwt>
</event>
<event>
 4    1  0.8142558E-001  0.2620313E+03  0.7546771E-02  0.1105929E+00
          2   -1    0    0  502    0  0.00000000000E+00  0.00000000000E+00  0.23224625061E+04  0.23224625061E+04  0.00000000000E+00 0. -1.
         -2   -1    0    0    0  501 -0.00000000000E+00 -0.00000000000E+00 -0.31208849392E+02  0.31208849392E+02  0.00000000000E+00 0.  1.
          6    1    1    2  502    0 -0.18799609037E+03 -0.58214019908E+02  0.14158297251E+04  0.14398729849E+04  0.17300000000E+03 0. -1.
         -6    1    1    2    0  501  0.18799609037E+03  0.58214019908E+02  0.87542393166E+03  0.91379837067E+03  0.17300000000E+03 0.  1.
<mgrwt>
<rscale>  2 0.26203130E+03</rscale>
<asrwt>0</asrwt>
<pdfrwt beam="1">  1        2 0.35730179E+00 0.26203130E+03</pdfrwt>
<pdfrwt beam="2">  1       -2 0.48013633E-02 0.26203130E+03</pdfrwt>
<totfact> 0.10442509E+03</totfact>
</mgrwt>
</event>
<event>
 4    1  0.8142558E-001  0.5048007E+03  0.7546771E-02  0.1012533E+00
         -2   -1    0    0    0  501 -0.00000000000E+00  0.00000000000E+00  0.19507158016E+03  0.19507158016E+03  0.00000000000E+00 0.  1.
          2   -1    0    0  502    0  0.00000000000E+00 -0.00000000000E+00 -0.15406920727E+04  0.15406920727E+04  0.00000000000E+00 0. -1.
          6    1    1    2  502    0  0.12104780580E+03 -0.45852173741E+03 -0.10113158167E+04  0.11303023649E+04  0.17300000000E+03 0. -1.
         -6    1    1    2    0  501 -0.12104780580E+03  0.45852173741E+03 -0.33430467587E+03  0.60546128800E+03  0.17300000000E+03 0.  1.
<mgrwt>
<rscale>  2 0.50480071E+03</rscale>
<asrwt>0</asrwt>
<pdfrwt beam="2">  1        2 0.23702956E+00 0.50480071E+03</pdfrwt>
<pdfrwt beam="1">  1       -2 0.30011011E-01 0.50480071E+03</pdfrwt>
<totfact> 0.12877852E+02</totfact>
</mgrwt>
</event>
<event>
 4    1  0.8142558E-001  0.1953690E+03  0.7546771E-02  0.1153706E+00
         -2   -1    0    0    0  501 -0.00000000000E+00  0.00000000000E+00  0.28039003676E+02  0.28039003676E+02  0.00000000000E+00 0.  1.
          2   -1    0    0  502    0  0.00000000000E+00 -0.00000000000E+00 -0.27948030438E+04  0.27948030438E+04  0.00000000000E+00 0. -1.
          6    1    1    2  502    0  0.63423645451E+02 -0.64942090497E+02 -0.23942228667E+04  0.24021807112E+04  0.17300000000E+03 0. -1.
         -6    1    1    2    0  501 -0.63423645451E+02  0.64942090497E+02 -0.37254117337E+03  0.42066133620E+03  0.17300000000E+03 0.  1.
<mgrwt>
<rscale>  2 0.19536897E+03</rscale>
<asrwt>0</asrwt>
<pdfrwt beam="2">  1        2 0.42996975E+00 0.19536897E+03</pdfrwt>
<pdfrwt beam="1">  1       -2 0.43136923E-02 0.19536897E+03</pdfrwt>
<totfact> 0.68462395E+02</totfact>
</mgrwt>
</event>
<event>
 4    1  0.8142558E-001  0.2085548E+03  0.7546771E-02  0.1142716E+00
          1   -1    0    0  502    0  0.00000000000E+00  0.00000000000E+00  0.11975371107E+03  0.11975371107E+03  0.00000000000E+00 0. -1.
         -1   -1    0    0    0  501 -0.00000000000E+00 -0.00000000000E+00 -0.38598661873E+03  0.38598661873E+03  0.00000000000E+00 0.  1.
          6    1    1    2  502    0  0.10540483068E+03  0.49557173655E+02 -0.19455035880E+03  0.28521033274E+03  0.17300000000E+03 0.  1.
         -6    1    1    2    0  501 -0.10540483068E+03 -0.49557173655E+02 -0.71682548863E+02  0.22052999706E+03  0.17300000000E+03 0.  1.
<mgrwt>
<rscale>  2 0.20855477E+03</rscale>
<asrwt>0</asrwt>
<pdfrwt beam="1">  1        1 0.18423648E-01 0.20855477E+03</pdfrwt>
<pdfrwt beam="2">  1       -1 0.59382557E-01 0.20855477E+03</pdfrwt>
<totfact> 0.84120786E+02</totfact>
</mgrwt>
</event>
<event>
 4    1  0.8142558E-001  0.1820888E+03  0.7546771E-02  0.1165797E+00
          2   -1    0    0  502    0  0.00000000000E+00  0.00000000000E+00  0.60450016745E+03  0.60450016745E+03  0.00000000000E+00 0.  1.
         -2   -1    0    0    0  501 -0.00000000000E+00 -0.00000000000E+00 -0.67351243823E+02  0.67351243823E+02  0.00000000000E+00 0. -1.
          6    1    1    2  502    0  0.56809261710E+02  0.20510061083E+00  0.12384351452E+03  0.22021251184E+03  0.17300000000E+03 0. -1.
         -6    1    1    2    0  501 -0.56809261710E+02 -0.20510061083E+00  0.41330540911E+03  0.45163889944E+03  0.17300000000E+03 0.  1.
<mgrwt>
<rscale>  2 0.18208881E+03</rscale>
<asrwt>0</asrwt>
<pdfrwt beam="1">  1        2 0.93000022E-01 0.18208881E+03</pdfrwt>
<pdfrwt beam="2">  1       -2 0.10361730E-01 0.18208881E+03</pdfrwt>
<totfact> 0.30903762E+03</totfact>
</mgrwt>
</event>
<event>
 4    1  0.8142558E-001  0.2110710E+03  0.7546771E-02  0.1140721E+00
          2   -1    0    0  502    0  0.00000000000E+00  0.00000000000E+00  0.79140458711E+03  0.79140458711E+03  0.00000000000E+00 0.  1.
         -2   -1    0    0    0  501 -0.00000000000E+00 -0.00000000000E+00 -0.66974503119E+02  0.66974503119E+02  0.00000000000E+00 0. -1.
          6    1    1    2  502    0  0.41007325972E+02 -0.11375573290E+03  0.19081949031E+03  0.28454005945E+03  0.17300000000E+03 0. -1.
         -6    1    1    2    0  501 -0.41007325972E+02  0.11375573290E+03  0.53361059368E+03  0.57383903077E+03  0.17300000000E+03 0. -1.
<mgrwt>
<rscale>  2 0.21107100E+03</rscale>
<asrwt>0</asrwt>
<pdfrwt beam="1">  1        2 0.12175455E+00 0.21107100E+03</pdfrwt>
<pdfrwt beam="2">  1       -2 0.10303770E-01 0.21107100E+03</pdfrwt>
<totfact> 0.22631538E+03</totfact>
</mgrwt>
</event>
<event>
 4    1  0.8142558E-001  0.4160085E+03  0.7546771E-02  0.1038373E+00
         -2   -1    0    0    0  501 -0.00000000000E+00  0.00000000000E+00  0.11208931301E+03  0.11208931301E+03  0.00000000000E+00 0.  1.
          2   -1    0    0  502    0  0.00000000000E+00 -0.00000000000E+00 -0.17190207525E+04  0.17190207525E+04  0.00000000000E+00 0. -1.
          6    1    1    2  502    0 -0.35665355861E+03  0.12622329172E+03 -0.10956251232E+04  0.11719460272E+04  0.17300000000E+03 0.  1.
         -6    1    1    2    0  501  0.35665355861E+03 -0.12622329172E+03 -0.51130631629E+03  0.65916403825E+03  0.17300000000E+03 0. -1.
<mgrwt>
<rscale>  2 0.41600851E+03</rscale>
<asrwt>0</asrwt>
<pdfrwt beam="2">  1        2 0.26446472E+00 0.41600851E+03</pdfrwt>
<pdfrwt beam="1">  1       -2 0.17244511E-01 0.41600851E+03</pdfrwt>
<totfact> 0.27781935E+02</totfact>
</mgrwt>
</event>
<event>
 4    1  0.8142558E-001  0.1777519E+03  0.7546771E-02  0.1169997E+00
          1   -1    0    0  502    0  0.00000000000E+00  0.00000000000E+00  0.23470667748E+03  0.23470667748E+03  0.00000000000E+00 0.  1.
         -1   -1    0    0    0  501 -0.00000000000E+00 -0.00000000000E+00 -0.15162379271E+03  0.15162379271E+03  0.00000000000E+00 0. -1.
          6    1    1    2  502    0  0.20843923898E+02  0.35103505473E+02 -0.23149685387E+02  0.17925298657E+03  0.17300000000E+03 0. -1.
         -6    1    1    2    0  501 -0.20843923898E+02 -0.35103505473E+02  0.10623257016E+03  0.20707748362E+03  0.17300000000E+03 0.  1.
<mgrwt>
<rscale>  2 0.17775186E+03</rscale>
<asrwt>0</asrwt>
<pdfrwt beam="1">  1        1 0.36108720E-01 0.17775186E+03</pdfrwt>
<pdfrwt beam="2">  1       -1 0.23326737E-01 0.17775186E+03</pdfrwt>
<totfact> 0.18462318E+03</totfact>
</mgrwt>
</event>
<event>
 4    1  0.8142558E-001  0.3112191E+03  0.7546771E-02  0.1079763E+00
         -2   -1    0    0    0  501 -0.00000000000E+00  0.00000000000E+00  0.33019733428E+02  0.33019733428E+02  0.00000000000E+00 0. -1.
          2   -1    0    0  502    0  0.00000000000E+00 -0.00000000000E+00 -0.31594041898E+04  0.31594041898E+04  0.00000000000E+00 0.  1.
          6    1    1    2  502    0  0.22743983827E+03 -0.12328610980E+03 -0.19901903437E+04  0.20143770623E+04  0.17300000000E+03 0.  1.
         -6    1    1    2    0  501 -0.22743983827E+03  0.12328610980E+03 -0.11361941126E+04  0.11780468609E+04  0.17300000000E+03 0. -1.
<mgrwt>
<rscale>  2 0.31121913E+03</rscale>
<asrwt>0</asrwt>
<pdfrwt beam="2">  1        2 0.48606208E+00 0.31121913E+03</pdfrwt>
<pdfrwt beam="1">  1       -2 0.50799600E-02 0.31121913E+03</pdfrwt>
<totfact> 0.31592550E+02</totfact>
</mgrwt>
</event>
<event>
 4    1  0.8142558E-001  0.2027870E+03  0.7546771E-02  0.1147409E+00
         -2   -1    0    0    0  501 -0.00000000000E+00  0.00000000000E+00  0.60153551026E+02  0.60153551026E+02  0.00000000000E+00 0.  1.
          2   -1    0    0  502    0  0.00000000000E+00 -0.00000000000E+00 -0.71249279865E+03  0.71249279865E+03  0.00000000000E+00 0. -1.
          6    1    1    2  502    0 -0.12015106837E+02 -0.10511524458E+03 -0.40392923594E+03  0.45197500493E+03  0.17300000000E+03 0.  1.
         -6    1    1    2    0  501  0.12015106837E+02  0.10511524458E+03 -0.24841001169E+03  0.32067134475E+03  0.17300000000E+03 0. -1.
<mgrwt>
<rscale>  2 0.20278702E+03</rscale>
<asrwt>0</asrwt>
<pdfrwt beam="2">  1        2 0.10961428E+00 0.20278702E+03</pdfrwt>
<pdfrwt beam="1">  1       -2 0.92543926E-02 0.20278702E+03</pdfrwt>
<totfact> 0.30523640E+03</totfact>
</mgrwt>
</event>
<event>
 4    1  0.8142558E-001  0.1740191E+03  0.7546771E-02  0.1173720E+00
          2   -1    0    0  502    0  0.00000000000E+00  0.00000000000E+00  0.67439003811E+03  0.67439003811E+03  0.00000000000E+00 0. -1.
         -2   -1    0    0    0  501 -0.00000000000E+00 -0.00000000000E+00 -0.51452265120E+02  0.51452265120E+02  0.00000000000E+00 0.  1.
          6    1    1    2  502    0 -0.18716561099E+02  0.18246718053E+01  0.18199518163E+03  0.25180326690E+03  0.17300000000E+03 0.  1.
         -6    1    1    2    0  501  0.18716561099E+02 -0.18246718053E+01  0.44094259137E+03  0.47403903633E+03  0.17300000000E+03 0.  1.
<mgrwt>
<rscale>  2 0.17401908E+03</rscale>
<asrwt>0</asrwt>
<pdfrwt beam="1">  1        2 0.10375231E+00 0.17401908E+03</pdfrwt>
<pdfrwt beam="2">  1       -2 0.79157336E-02 0.17401908E+03</pdfrwt>
<totfact> 0.41428233E+03</totfact>
</mgrwt>
</event>
<event>
 4    1  0.8142558E-001  0.2831985E+03  0.7546771E-02  0.1093955E+00
         -2   -1    0    0    0  501 -0.00000000000E+00  0.00000000000E+00  0.81720126509E+02  0.81720126509E+02  0.00000000000E+00 0.  1.
          2   -1    0    0  502    0  0.00000000000E+00 -0.00000000000E+00 -0.10416166853E+04  0.10416166853E+04  0.00000000000E+00 0. -1.
          6    1    1    2  502    0  0.21831225886E+03 -0.51108907994E+02 -0.34491831908E+03  0.44628467337E+03  0.17300000000E+03 0.  1.
         -6    1    1    2    0  501 -0.21831225886E+03  0.51108907994E+02 -0.61497823967E+03  0.67705213840E+03  0.17300000000E+03 0. -1.
<mgrwt>
<rscale>  2 0.28319845E+03</rscale>
<asrwt>0</asrwt>
<pdfrwt beam="2">  1        2 0.16024872E+00 0.28319845E+03</pdfrwt>
<pdfrwt beam="1">  1       -2 0.12572327E-01 0.28319845E+03</pdfrwt>
<totfact> 0.11355676E+03</totfact>
</mgrwt>
</event>
<event>
 4    1  0.8142558E-001  0.1736957E+03  0.7546771E-02  0.1174048E+00
         -2   -1    0    0    0  501 -0.00000000000E+00  0.00000000000E+00  0.64978579839E+02  0.64978579839E+02  0.00000000000E+00 0.  1.
          2   -1    0    0  502    0  0.00000000000E+00 -0.00000000000E+00 -0.46559725210E+03  0.46559725210E+03  0.00000000000E+00 0. -1.
          6    1    1    2  502    0 -0.14828485955E+02  0.46174503499E+01 -0.18636034076E+03  0.25475553272E+03  0.17300000000E+03 0.  1.
         -6    1    1    2    0  501  0.14828485955E+02 -0.46174503499E+01 -0.21425833150E+03  0.27582029922E+03  0.17300000000E+03 0. -1.
<mgrwt>
<rscale>  2 0.17369572E+03</rscale>
<asrwt>0</asrwt>
<pdfrwt beam="2">  1        2 0.71630345E-01 0.17369572E+03</pdfrwt>
<pdfrwt beam="1">  1       -2 0.99967048E-02 0.17369572E+03</pdfrwt>
<totfact> 0.43762217E+03</totfact>
</mgrwt>
</event>
<event>
 4    1  0.8142558E-001  0.2652846E+03  0.7546771E-02  0.1104009E+00
          2   -1    0    0  502    0  0.00000000000E+00  0.00000000000E+00  0.15492031904E+03  0.15492031904E+03  0.00000000000E+00 0.  1.
         -2   -1    0    0    0  501 -0.00000000000E+00 -0.00000000000E+00 -0.46081520694E+03  0.46081520694E+03  0.00000000000E+00 0. -1.
          6    1    1    2  502    0  0.16217435354E+03  0.11893857482E+03 -0.18963413060E+03  0.32609355868E+03  0.17300000000E+03 0. -1.
         -6    1    1    2    0  501 -0.16217435354E+03 -0.11893857482E+03 -0.11626075731E+03  0.28964196729E+03  0.17300000000E+03 0.  1.
<mgrwt>
<rscale>  2 0.26528457E+03</rscale>
<asrwt>0</asrwt>
<pdfrwt beam="1">  1        2 0.23833895E-01 0.26528457E+03</pdfrwt>
<pdfrwt beam="2">  1       -2 0.70894648E-01 0.26528457E+03</pdfrwt>
<totfact> 0.42271703E+02</totfact>
</mgrwt>
</event>
<event>
 4    1  0.8142558E-001  0.2034780E+03  0.7546771E-02  0.1146837E+00
          2   -1    0    0  502    0  0.00000000000E+00  0.00000000000E+00  0.57412011843E+03  0.57412011843E+03  0.00000000000E+00 0. -1.
         -2   -1    0    0    0  501 -0.00000000000E+00 -0.00000000000E+00 -0.90778177150E+02  0.90778177150E+02  0.00000000000E+00 0.  1.
          6    1    1    2  502    0 -0.98240389231E+02  0.42698005460E+02  0.90935767487E+02  0.22287352367E+03  0.17300000000E+03 0.  1.
         -6    1    1    2    0  501  0.98240389231E+02 -0.42698005460E+02  0.39240617379E+03  0.44202477190E+03  0.17300000000E+03 0. -1.
<mgrwt>
<rscale>  2 0.20347799E+03</rscale>
<asrwt>0</asrwt>
<pdfrwt beam="1">  1        2 0.88326170E-01 0.20347799E+03</pdfrwt>
<pdfrwt beam="2">  1       -2 0.13965874E-01 0.20347799E+03</pdfrwt>
<totfact> 0.20332117E+03</totfact>
</mgrwt>
</event>
<event>
 4    1  0.8142558E-001  0.2321851E+03  0.7546771E-02  0.1125111E+00
          1   -1    0    0  502    0  0.00000000000E+00  0.00000000000E+00  0.35301295187E+03  0.35301295187E+03  0.00000000000E+00 0.  1.
         -1   -1    0    0    0  501 -0.00000000000E+00 -0.00000000000E+00 -0.21964735751E+03  0.21964735751E+03  0.00000000000E+00 0. -1.
          6    1    1    2  502    0 -0.42549925955E+02  0.14889738293E+03 -0.91378760413E+02  0.24951954772E+03  0.17300000000E+03 0. -1.
         -6    1    1    2    0  501  0.42549925955E+02 -0.14889738293E+03  0.22474435478E+03  0.32314076166E+03  0.17300000000E+03 0.  1.
<mgrwt>
<rscale>  2 0.23218511E+03</rscale>
<asrwt>0</asrwt>
<pdfrwt beam="1">  1        1 0.54309685E-01 0.23218511E+03</pdfrwt>
<pdfrwt beam="2">  1       -1 0.33791901E-01 0.23218511E+03</pdfrwt>
<totfact> 0.59493165E+02</totfact>
</mgrwt>
</event>
<event>
 4    1  0.8142558E-001  0.2271801E+03  0.7546771E-02  0.1128640E+00
          2   -1    0    0  502    0  0.00000000000E+00  0.00000000000E+00  0.13886469313E+04  0.13886469313E+04  0.00000000000E+00 0. -1.
         -2   -1    0    0    0  501 -0.00000000000E+00 -0.00000000000E+00 -0.43457117582E+02  0.43457117582E+02  0.00000000000E+00 0.  1.
          6    1    1    2  502    0  0.14724718230E+03  0.24377359883E+00  0.40015572873E+03  0.46014714968E+03  0.17300000000E+03 0.  1.
         -6    1    1    2    0  501 -0.14724718230E+03 -0.24377359883E+00  0.94503408500E+03  0.97195689922E+03  0.17300000000E+03 0. -1.
<mgrwt>
<rscale>  2 0.22718009E+03</rscale>
<asrwt>0</asrwt>
<pdfrwt beam="1">  1        2 0.21363796E+00 0.22718009E+03</pdfrwt>
<pdfrwt beam="2">  1       -2 0.66857115E-02 0.22718009E+03</pdfrwt>
<totfact> 0.19639380E+03</totfact>
</mgrwt>
</event>
<event>
 4    1  0.8142558E-001  0.2372151E+03  0.7546771E-02  0.1121662E+00
          2   -1    0    0  502    0  0.00000000000E+00  0.00000000000E+00  0.26047543838E+04  0.26047543838E+04  0.00000000000E+00 0. -1.
         -2   -1    0    0    0  501 -0.00000000000E+00 -0.00000000000E+00 -0.33957201514E+02  0.33957201514E+02  0.00000000000E+00 0.  1.
          6    1    1    2  502    0 -0.15711567426E+03 -0.40702249364E+02  0.48960588588E+03  0.54404497212E+03  0.17300000000E+03 0.  1.
         -6    1    1    2    0  501  0.15711567426E+03  0.40702249364E+02  0.20811912964E+04  0.20946666132E+04  0.17300000000E+03 0. -1.
<mgrwt>
<rscale>  2 0.23721511E+03</rscale>
<asrwt>0</asrwt>
<pdfrwt beam="1">  1        2 0.40073129E+00 0.23721511E+03</pdfrwt>
<pdfrwt beam="2">  1       -2 0.52241869E-02 0.23721511E+03</pdfrwt>
<totfact> 0.64745422E+02</totfact>
</mgrwt>
</event>
<event>
 4    1  0.8142558E-001  0.2779507E+03  0.7546771E-02  0.1096814E+00
          1   -1    0    0  502    0  0.00000000000E+00  0.00000000000E+00  0.19617126826E+03  0.19617126826E+03  0.00000000000E+00 0. -1.
         -1   -1    0    0    0  501 -0.00000000000E+00 -0.00000000000E+00 -0.83048988707E+03  0.83048988707E+03  0.00000000000E+00 0.  1.
          6    1    1    2  502    0 -0.21754056087E+03 -0.19161760723E+01 -0.68938433832E+03  0.74330837024E+03  0.17300000000E+03 0.  1.
         -6    1    1    2    0  501  0.21754056087E+03  0.19161760723E+01  0.55065719510E+02  0.28335278509E+03  0.17300000000E+03 0. -1.
<mgrwt>
<rscale>  2 0.27795066E+03</rscale>
<asrwt>0</asrwt>
<pdfrwt beam="1">  1        1 0.30180195E-01 0.27795066E+03</pdfrwt>
<pdfrwt beam="2">  1       -1 0.12776767E+00 0.27795066E+03</pdfrwt>
<totfact> 0.85982425E+01</totfact>
</mgrwt>
</event>
<event>
 4    1  0.8142558E-001  0.3211707E+03  0.7546771E-02  0.1075112E+00
          2   -1    0    0  502    0  0.00000000000E+00  0.00000000000E+00  0.68171912199E+03  0.68171912199E+03  0.00000000000E+00 0. -1.
         -2   -1    0    0    0  501 -0.00000000000E+00 -0.00000000000E+00 -0.22294462342E+03  0.22294462342E+03  0.00000000000E+00 0.  1.
          6    1    1    2  502    0 -0.21404132378E+03  0.16555337951E+03  0.48578933939E+03  0.58235890310E+03  0.17300000000E+03 0. -1.
         -6    1    1    2    0  501  0.21404132378E+03 -0.16555337951E+03 -0.27014840809E+02  0.32230484231E+03  0.17300000000E+03 0.  1.
<mgrwt>
<rscale>  2 0.32117069E+03</rscale>
<asrwt>0</asrwt>
<pdfrwt beam="1">  1        2 0.10487986E+00 0.32117069E+03</pdfrwt>
<pdfrwt beam="2">  1       -2 0.34299173E-01 0.32117069E+03</pdfrwt>
<totfact> 0.34690384E+02</totfact>
</mgrwt>
</event>
<event>
 4    1  0.8142558E-001  0.1818523E+03  0.7546771E-02  0.1166022E+00
         -2   -1    0    0    0  501 -0.00000000000E+00  0.00000000000E+00  0.47689654330E+02  0.47689654330E+02  0.00000000000E+00 0.  1.
          2   -1    0    0  502    0  0.00000000000E+00 -0.00000000000E+00 -0.71911078023E+03  0.71911078023E+03  0.00000000000E+00 0. -1.
          6    1    1    2  502    0 -0.25481932688E+02 -0.49919233644E+02 -0.26328150988E+03  0.31998033100E+03  0.17300000000E+03 0.  1.
         -6    1    1    2    0  501  0.25481932688E+02  0.49919233644E+02 -0.40813961601E+03  0.44682010355E+03  0.17300000000E+03 0.  1.
<mgrwt>
<rscale>  2 0.18185230E+03</rscale>
<asrwt>0</asrwt>
<pdfrwt beam="2">  1        2 0.11063242E+00 0.18185230E+03</pdfrwt>
<pdfrwt beam="1">  1       -2 0.73368703E-02 0.18185230E+03</pdfrwt>
<totfact> 0.43218797E+03</totfact>
</mgrwt>
</event>
<event>
 4    1  0.8142558E-001  0.1796698E+03  0.7546771E-02  0.1168123E+00
         -2   -1    0    0    0  501 -0.00000000000E+00  0.00000000000E+00  0.25168484696E+03  0.25168484696E+03  0.00000000000E+00 0. -1.
          2   -1    0    0  502    0  0.00000000000E+00 -0.00000000000E+00 -0.14944359151E+03  0.14944359151E+03  0.00000000000E+00 0.  1.
          6    1    1    2  502    0  0.35333140377E+02  0.33223447441E+02  0.12663147081E+03  0.21981073146E+03  0.17300000000E+03 0. -1.
         -6    1    1    2    0  501 -0.35333140377E+02 -0.33223447441E+02 -0.24390215355E+02  0.18131770701E+03  0.17300000000E+03 0.  1.
<mgrwt>
<rscale>  2 0.17966978E+03</rscale>
<asrwt>0</asrwt>
<pdfrwt beam="2">  1        2 0.22991322E-01 0.17966978E+03</pdfrwt>
<pdfrwt beam="1">  1       -2 0.38720746E-01 0.17966978E+03</pdfrwt>
<totfact> 0.14806691E+03</totfact>
</mgrwt>
</event>
<event>
 4    1  0.8142558E-001  0.2289027E+03  0.7546771E-02  0.1127414E+00
         -2   -1    0    0    0  501 -0.00000000000E+00  0.00000000000E+00  0.19787377456E+03  0.19787377456E+03  0.00000000000E+00 0. -1.
          2   -1    0    0  502    0  0.00000000000E+00 -0.00000000000E+00 -0.33924583897E+03  0.33924583897E+03  0.00000000000E+00 0.  1.
          6    1    1    2  502    0  0.48023467809E+02 -0.14199007901E+03 -0.19649509234E+03  0.30167326251E+03  0.17300000000E+03 0.  1.
         -6    1    1    2    0  501 -0.48023467809E+02  0.14199007901E+03  0.55123027930E+02  0.23544635102E+03  0.17300000000E+03 0. -1.
<mgrwt>
<rscale>  2 0.22890268E+03</rscale>
<asrwt>0</asrwt>
<pdfrwt beam="2">  1        2 0.52191667E-01 0.22890268E+03</pdfrwt>
<pdfrwt beam="1">  1       -2 0.30442119E-01 0.22890268E+03</pdfrwt>
<totfact> 0.95188091E+02</totfact>
</mgrwt>
</event>
<event>
 4    1  0.8142558E-001  0.2199004E+03  0.7546771E-02  0.1133957E+00
         -1   -1    0    0    0  501 -0.00000000000E+00  0.00000000000E+00  0.46148078549E+03  0.46148078549E+03  0.00000000000E+00 0.  1.
          1   -1    0    0  502    0  0.00000000000E+00 -0.00000000000E+00 -0.11367157930E+03  0.11367157930E+03  0.00000000000E+00 0. -1.
          6    1    1    2  502    0 -0.75373171934E+02 -0.11289852631E+03  0.25431238465E+03  0.33620080499E+03  0.17300000000E+03 0.  1.
         -6    1    1    2    0  501  0.75373171934E+02  0.11289852631E+03  0.93496821541E+02  0.23895155980E+03  0.17300000000E+03 0. -1.
<mgrwt>
<rscale>  2 0.21990041E+03</rscale>
<asrwt>0</asrwt>
<pdfrwt beam="2">  1        1 0.17487936E-01 0.21990041E+03</pdfrwt>
<pdfrwt beam="1">  1       -1 0.70997043E-01 0.21990041E+03</pdfrwt>
<totfact> 0.63470567E+02</totfact>
</mgrwt>
</event>
<event>
 4    1  0.8142558E-001  0.2051463E+03  0.7546771E-02  0.1145468E+00
          1   -1    0    0  502    0  0.00000000000E+00  0.00000000000E+00  0.10886217958E+04  0.10886217958E+04  0.00000000000E+00 0.  1.
         -1   -1    0    0    0  501 -0.00000000000E+00 -0.00000000000E+00 -0.40417802548E+02  0.40417802548E+02  0.00000000000E+00 0. -1.
          6    1    1    2  502    0  0.98830804595E+02  0.48871919851E+02  0.40633987341E+03  0.45518906534E+03  0.17300000000E+03 0. -1.
         -6    1    1    2    0  501 -0.98830804595E+02 -0.48871919851E+02  0.64186411984E+03  0.67385053300E+03  0.17300000000E+03 0.  1.
<mgrwt>
<rscale>  2 0.20514627E+03</rscale>
<asrwt>0</asrwt>
<pdfrwt beam="1">  1        1 0.16748025E+00 0.20514627E+03</pdfrwt>
<pdfrwt beam="2">  1       -1 0.62181243E-02 0.20514627E+03</pdfrwt>
<totfact> 0.17387635E+03</totfact>
</mgrwt>
</event>
<event>
 4    1  0.8142558E-001  0.1937490E+03  0.7546771E-02  0.1155123E+00
          3   -1    0    0  502    0  0.00000000000E+00  0.00000000000E+00  0.12763628028E+03  0.12763628028E+03  0.00000000000E+00 0.  1.
         -3   -1    0    0    0  501 -0.00000000000E+00 -0.00000000000E+00 -0.39293962588E+03  0.39293962588E+03  0.00000000000E+00 0. -1.
          6    1    1    2  502    0 -0.20692007502E+02  0.84743862604E+02 -0.21121425343E+01  0.19376052893E+03  0.17300000000E+03 0.  1.
         -6    1    1    2    0  501  0.20692007502E+02 -0.84743862604E+02 -0.26319120307E+03  0.32681537723E+03  0.17300000000E+03 0. -1.
<mgrwt>
<rscale>  2 0.19374902E+03</rscale>
<asrwt>0</asrwt>
<pdfrwt beam="1">  1        3 0.19636351E-01 0.19374902E+03</pdfrwt>
<pdfrwt beam="2">  1       -3 0.60452249E-01 0.19374902E+03</pdfrwt>
<totfact> 0.15296210E+02</totfact>
</mgrwt>
</event>
<event>
 4    1  0.8142558E-001  0.2843406E+03  0.7546771E-02  0.1093342E+00
         -1   -1    0    0    0  501 -0.00000000000E+00  0.00000000000E+00  0.10699263853E+03  0.10699263853E+03  0.00000000000E+00 0.  1.
          1   -1    0    0  502    0  0.00000000000E+00 -0.00000000000E+00 -0.94781288714E+03  0.94781288714E+03  0.00000000000E+00 0. -1.
          6    1    1    2  502    0  0.22298658467E+03 -0.34605432036E+02 -0.65788074099E+03  0.71669841791E+03  0.17300000000E+03 0. -1.
         -6    1    1    2    0  501 -0.22298658467E+03  0.34605432036E+02 -0.18293950763E+03  0.33810710776E+03  0.17300000000E+03 0.  1.
<mgrwt>
<rscale>  2 0.28434056E+03</rscale>
<asrwt>0</asrwt>
<pdfrwt beam="2">  1        1 0.14581737E+00 0.28434056E+03</pdfrwt>
<pdfrwt beam="1">  1       -1 0.16460406E-01 0.28434056E+03</pdfrwt>
<totfact> 0.48695230E+02</totfact>
</mgrwt>
</event>
<event>
 4    1  0.8142558E-001  0.1999556E+03  0.7546771E-02  0.1149777E+00
          1   -1    0    0  502    0  0.00000000000E+00  0.00000000000E+00  0.28260866811E+04  0.28260866811E+04  0.00000000000E+00 0. -1.
         -1   -1    0    0    0  501 -0.00000000000E+00 -0.00000000000E+00 -0.15381758462E+02  0.15381758462E+02  0.00000000000E+00 0.  1.
          6    1    1    2  502    0 -0.62086623923E+02 -0.78730394081E+02  0.10029109350E+04  0.10226497775E+04  0.17300000000E+03 0.  1.
         -6    1    1    2    0  501  0.62086623923E+02  0.78730394081E+02  0.18077939877E+04  0.18188186621E+04  0.17300000000E+03 0. -1.
<mgrwt>
<rscale>  2 0.19995555E+03</rscale>
<asrwt>0</asrwt>
<pdfrwt beam="1">  1        1 0.43478215E+00 0.19995555E+03</pdfrwt>
<pdfrwt beam="2">  1       -1 0.23664266E-02 0.19995555E+03</pdfrwt>
<totfact> 0.51831757E+02</totfact>
</mgrwt>
</event>
<event>
 4    1  0.8142558E-001  0.2228008E+03  0.7546771E-02  0.1131812E+00
         -2   -1    0    0    0  501 -0.00000000000E+00  0.00000000000E+00  0.22216648739E+02  0.22216648739E+02  0.00000000000E+00 0.  1.
          2   -1    0    0  502    0  0.00000000000E+00 -0.00000000000E+00 -0.28223387881E+04  0.28223387881E+04  0.00000000000E+00 0. -1.
          6    1    1    2  502    0  0.98797434596E+02 -0.99750996865E+02 -0.75089279710E+03  0.78324976042E+03  0.17300000000E+03 0.  1.
         -6    1    1    2    0  501 -0.98797434596E+02  0.99750996865E+02 -0.20492293422E+04  0.20613056764E+04  0.17300000000E+03 0. -1.
<mgrwt>
<rscale>  2 0.22280080E+03</rscale>
<asrwt>0</asrwt>
<pdfrwt beam="2">  1        2 0.43420558E+00 0.22280080E+03</pdfrwt>
<pdfrwt beam="1">  1       -2 0.34179490E-02 0.22280080E+03</pdfrwt>
<totfact> 0.93000417E+02</totfact>
</mgrwt>
</event>
<event>
 4    1  0.8142558E-001  0.1949912E+03  0.7546771E-02  0.1154035E+00
          2   -1    0    0  502    0  0.00000000000E+00  0.00000000000E+00  0.45148014304E+03  0.45148014304E+03  0.00000000000E+00 0. -1.
         -2   -1    0    0    0  501 -0.00000000000E+00 -0.00000000000E+00 -0.86788750271E+02  0.86788750271E+02  0.00000000000E+00 0.  1.
          6    1    1    2  502    0  0.11202421424E+02  0.89258459928E+02  0.13600211164E+03  0.23773544390E+03  0.17300000000E+03 0.  1.
         -6    1    1    2    0  501 -0.11202421424E+02 -0.89258459928E+02  0.22868928113E+03  0.30053344942E+03  0.17300000000E+03 0.  1.
<mgrwt>
<rscale>  2 0.19499120E+03</rscale>
<asrwt>0</asrwt>
<pdfrwt beam="1">  1        2 0.69458482E-01 0.19499120E+03</pdfrwt>
<pdfrwt beam="2">  1       -2 0.13352116E-01 0.19499120E+03</pdfrwt>
<totfact> 0.28591091E+03</totfact>
</mgrwt>
</event>
<event>
 4    1  0.8142558E-001  0.2863285E+03  0.7546771E-02  0.1092282E+00
          2   -1    0    0  502    0  0.00000000000E+00  0.00000000000E+00  0.56143218262E+03  0.56143218262E+03  0.00000000000E+00 0.  1.
         -2   -1    0    0    0  501 -0.00000000000E+00 -0.00000000000E+00 -0.15419902179E+03  0.15419902179E+03  0.00000000000E+00 0. -1.
          6    1    1    2  502    0 -0.22043904565E+03  0.58835589294E+02  0.28599158069E+03  0.40469146722E+03  0.17300000000E+03 0. -1.
         -6    1    1    2    0  501  0.22043904565E+03 -0.58835589294E+02  0.12124158014E+03  0.31093973720E+03  0.17300000000E+03 0.  1.
<mgrwt>
<rscale>  2 0.28632848E+03</rscale>
<asrwt>0</asrwt>
<pdfrwt beam="1">  1        2 0.86374181E-01 0.28632848E+03</pdfrwt>
<pdfrwt beam="2">  1       -2 0.23722927E-01 0.28632848E+03</pdfrwt>
<totfact> 0.85281303E+02</totfact>
</mgrwt>
</event>
<event>
 4    1  0.8142558E-001  0.1843096E+03  0.7546771E-02  0.1163696E+00
          2   -1    0    0  502    0  0.00000000000E+00  0.00000000000E+00  0.26809220675E+04  0.26809220675E+04  0.00000000000E+00 0. -1.
         -2   -1    0    0    0  501 -0.00000000000E+00 -0.00000000000E+00 -0.14039859522E+02  0.14039859522E+02  0.00000000000E+00 0.  1.
          6    1    1    2  502    0  0.29295674572E+02  0.56416337194E+02  0.17541834197E+04  0.17638394228E+04  0.17300000000E+03 0. -1.
         -6    1    1    2    0  501 -0.29295674572E+02 -0.56416337194E+02  0.91269878827E+03  0.93112250417E+03  0.17300000000E+03 0.  1.
<mgrwt>
<rscale>  2 0.18430963E+03</rscale>
<asrwt>0</asrwt>
<pdfrwt beam="1">  1        2 0.41244914E+00 0.18430963E+03</pdfrwt>
<pdfrwt beam="2">  1       -2 0.21599805E-02 0.18430963E+03</pdfrwt>
<totfact> 0.22172808E+03</totfact>
</mgrwt>
</event>
<event>
 4    1  0.8142558E-001  0.1962611E+03  0.7546771E-02  0.1152932E+00
         -2   -1    0    0    0  501 -0.00000000000E+00  0.00000000000E+00  0.15939879874E+03  0.15939879874E+03  0.00000000000E+00 0. -1.
          2   -1    0    0  502    0  0.00000000000E+00 -0.00000000000E+00 -0.51689266703E+03  0.51689266703E+03  0.00000000000E+00 0.  1.
          6    1    1    2  502    0  0.58306192192E+02 -0.72040262660E+02 -0.42550032537E+03  0.46858183745E+03  0.17300000000E+03 0.  1.
         -6    1    1    2    0  501 -0.58306192192E+02  0.72040262660E+02  0.68006457080E+02  0.20770962832E+03  0.17300000000E+03 0. -1.
<mgrwt>
<rscale>  2 0.19626108E+03</rscale>
<asrwt>0</asrwt>
<pdfrwt beam="2">  1        2 0.79521949E-01 0.19626108E+03</pdfrwt>
<pdfrwt beam="1">  1       -2 0.24522892E-01 0.19626108E+03</pdfrwt>
<totfact> 0.88299758E+02</totfact>
</mgrwt>
</event>
<event>
 4    1  0.8142558E-001  0.1865090E+03  0.7546771E-02  0.1161648E+00
         -4   -1    0    0    0  501 -0.00000000000E+00  0.00000000000E+00  0.78998890525E+02  0.78998890525E+02  0.00000000000E+00 0. -1.
          4   -1    0    0  502    0  0.00000000000E+00 -0.00000000000E+00 -0.59691265898E+03  0.59691265898E+03  0.00000000000E+00 0.  1.
          6    1    1    2  502    0 -0.13970774671E+02  0.68274757998E+02 -0.43204830493E+03  0.47058619074E+03  0.17300000000E+03 0.  1.
         -6    1    1    2    0  501  0.13970774671E+02 -0.68274757998E+02 -0.85865463526E+02  0.20532535876E+03  0.17300000000E+03 0. -1.
<mgrwt>
<rscale>  2 0.18650905E+03</rscale>
<asrwt>0</asrwt>
<pdfrwt beam="2">  1        4 0.91832720E-01 0.18650905E+03</pdfrwt>
<pdfrwt beam="1">  1       -4 0.12153675E-01 0.18650905E+03</pdfrwt>
<totfact> 0.99630136E+01</totfact>
</mgrwt>
</event>
<event>
 4    1  0.8142558E-001  0.1775198E+03  0.7546771E-02  0.1170225E+00
          1   -1    0    0  502    0  0.00000000000E+00  0.00000000000E+00  0.10109548490E+04  0.10109548490E+04  0.00000000000E+00 0. -1.
         -1   -1    0    0    0  501 -0.00000000000E+00 -0.00000000000E+00 -0.31866866203E+02  0.31866866203E+02  0.00000000000E+00 0.  1.
          6    1    1    2  502    0 -0.17028965245E+02  0.35976452991E+02  0.41253864806E+03  0.44911182012E+03  0.17300000000E+03 0.  1.
         -6    1    1    2    0  501  0.17028965245E+02 -0.35976452991E+02  0.56654933469E+03  0.59370989504E+03  0.17300000000E+03 0. -1.
<mgrwt>
<rscale>  2 0.17751983E+03</rscale>
<asrwt>0</asrwt>
<pdfrwt beam="1">  1        1 0.15553149E+00 0.17751983E+03</pdfrwt>
<pdfrwt beam="2">  1       -1 0.49025956E-02 0.17751983E+03</pdfrwt>
<totfact> 0.28216435E+03</totfact>
</mgrwt>
</event>
<event>
 4    1  0.8142558E-001  0.2201525E+03  0.7546771E-02  0.1133769E+00
         -1   -1    0    0    0  501 -0.00000000000E+00  0.00000000000E+00  0.85871057814E+02  0.85871057814E+02  0.00000000000E+00 0. -1.
          1   -1    0    0  502    0  0.00000000000E+00 -0.00000000000E+00 -0.63580885966E+03  0.63580885966E+03  0.00000000000E+00 0.  1.
          6    1    1    2  502    0 -0.13570232077E+03 -0.11091332268E+02 -0.15405567211E+03  0.26870111206E+03  0.17300000000E+03 0. -1.
         -6    1    1    2    0  501  0.13570232077E+03  0.11091332268E+02 -0.39588212973E+03  0.45297880541E+03  0.17300000000E+03 0.  1.
<mgrwt>
<rscale>  2 0.22015253E+03</rscale>
<asrwt>0</asrwt>
<pdfrwt beam="2">  1        1 0.97816746E-01 0.22015253E+03</pdfrwt>
<pdfrwt beam="1">  1       -1 0.13210932E-01 0.22015253E+03</pdfrwt>
<totfact> 0.12743895E+03</totfact>
</mgrwt>
</event>
<event>
 4    1  0.8142558E-001  0.1957796E+03  0.7546771E-02  0.1153349E+00
         -2   -1    0    0    0  501 -0.00000000000E+00  0.00000000000E+00  0.17214311203E+03  0.17214311203E+03  0.00000000000E+00 0.  1.
          2   -1    0    0  502    0  0.00000000000E+00 -0.00000000000E+00 -0.31956937164E+03  0.31956937164E+03  0.00000000000E+00 0. -1.
          6    1    1    2  502    0  0.88261547490E+02  0.24709637869E+02 -0.20910041726E+03  0.28644833997E+03  0.17300000000E+03 0. -1.
         -6    1    1    2    0  501 -0.88261547490E+02 -0.24709637869E+02  0.61674157658E+02  0.20526414371E+03  0.17300000000E+03 0.  1.
<mgrwt>
<rscale>  2 0.19577964E+03</rscale>
<asrwt>0</asrwt>
<pdfrwt beam="2">  1        2 0.49164519E-01 0.19577964E+03</pdfrwt>
<pdfrwt beam="1">  1       -2 0.26483556E-01 0.19577964E+03</pdfrwt>
<totfact> 0.13009599E+03</totfact>
</mgrwt>
</event>
<event>
 4    1  0.8142558E-001  0.1757247E+03  0.7546771E-02  0.1172006E+00
         -2   -1    0    0    0  501 -0.00000000000E+00  0.00000000000E+00  0.13529067792E+03  0.13529067792E+03  0.00000000000E+00 0. -1.
          2   -1    0    0  502    0  0.00000000000E+00 -0.00000000000E+00 -0.23531121807E+03  0.23531121807E+03  0.00000000000E+00 0.  1.
          6    1    1    2  502    0  0.25732168708E+02 -0.16971695254E+02 -0.82124969316E+02  0.19396827970E+03  0.17300000000E+03 0.  1.
         -6    1    1    2    0  501 -0.25732168708E+02  0.16971695254E+02 -0.17895570835E+02  0.17663361628E+03  0.17300000000E+03 0. -1.
<mgrwt>
<rscale>  2 0.17572474E+03</rscale>
<asrwt>0</asrwt>
<pdfrwt beam="2">  1        2 0.36201726E-01 0.17572474E+03</pdfrwt>
<pdfrwt beam="1">  1       -2 0.20813951E-01 0.17572474E+03</pdfrwt>
<totfact> 0.27395526E+03</totfact>
</mgrwt>
</event>
<event>
 4    1  0.8142558E-001  0.2034343E+03  0.7546771E-02  0.1146873E+00
         -2   -1    0    0    0  501 -0.00000000000E+00  0.00000000000E+00  0.34152463313E+02  0.34152463313E+02  0.00000000000E+00 0. -1.
          2   -1    0    0  502    0  0.00000000000E+00 -0.00000000000E+00 -0.15281203898E+04  0.15281203898E+04  0.00000000000E+00 0.  1.
          6    1    1    2  502    0 -0.52287520633E+02  0.93394592291E+02 -0.39158173353E+03  0.44127291863E+03  0.17300000000E+03 0.  1.
         -6    1    1    2    0  501  0.52287520633E+02 -0.93394592291E+02 -0.11023861929E+04  0.11209999344E+04  0.17300000000E+03 0.  1.
<mgrwt>
<rscale>  2 0.20343435E+03</rscale>
<asrwt>0</asrwt>
<pdfrwt beam="2">  1        2 0.23509547E+00 0.20343435E+03</pdfrwt>
<pdfrwt beam="1">  1       -2 0.52542245E-02 0.20343435E+03</pdfrwt>
<totfact> 0.23931255E+03</totfact>
</mgrwt>
</event>
<event>
 4    1  0.8142558E-001  0.3211872E+03  0.7546771E-02  0.1075104E+00
          2   -1    0    0  502    0  0.00000000000E+00  0.00000000000E+00  0.19435633772E+04  0.19435633772E+04  0.00000000000E+00 0.  1.
         -2   -1    0    0    0  501 -0.00000000000E+00 -0.00000000000E+00 -0.90366234583E+02  0.90366234583E+02  0.00000000000E+00 0. -1.
          6    1    1    2  502    0  0.11186418721E+03  0.24641154318E+03  0.27333809955E+03  0.42175225152E+03  0.17300000000E+03 0. -1.
         -6    1    1    2    0  501 -0.11186418721E+03 -0.24641154318E+03  0.15798590430E+04  0.16121773602E+04  0.17300000000E+03 0.  1.
<mgrwt>
<rscale>  2 0.32118724E+03</rscale>
<asrwt>0</asrwt>
<pdfrwt beam="1">  1        2 0.29900972E+00 0.32118724E+03</pdfrwt>
<pdfrwt beam="2">  1       -2 0.13902499E-01 0.32118724E+03</pdfrwt>
<totfact> 0.30717743E+02</totfact>
</mgrwt>
</event>
<event>
 4    1  0.8142558E-001  0.2019212E+03  0.7546771E-02  0.1148128E+00
          2   -1    0    0  502    0  0.00000000000E+00  0.00000000000E+00  0.81073821490E+02  0.81073821490E+02  0.00000000000E+00 0.  1.
         -2   -1    0    0    0  501 -0.00000000000E+00 -0.00000000000E+00 -0.80577133744E+03  0.80577133744E+03  0.00000000000E+00 0. -1.
          6    1    1    2  502    0 -0.53986151940E+02 -0.89042961408E+02 -0.63420533584E+03  0.66557385885E+03  0.17300000000E+03 0. -1.
         -6    1    1    2    0  501  0.53986151940E+02  0.89042961408E+02 -0.90492180109E+02  0.22127130008E+03  0.17300000000E+03 0.  1.
<mgrwt>
<rscale>  2 0.20192116E+03</rscale>
<asrwt>0</asrwt>
<pdfrwt beam="1">  1        2 0.12472895E-01 0.20192116E+03</pdfrwt>
<pdfrwt beam="2">  1       -2 0.12396482E+00 0.20192116E+03</pdfrwt>
<totfact> 0.25007612E+02</totfact>
</mgrwt>
</event>
<event>
 4    1  0.8142558E-001  0.1813910E+03  0.7546771E-02  0.1166464E+00
         -2   -1    0    0    0  501 -0.00000000000E+00  0.00000000000E+00  0.17669590314E+02  0.17669590314E+02  0.00000000000E+00 0.  1.
          2   -1    0    0  502    0  0.00000000000E+00 -0.00000000000E+00 -0.19589463785E+04  0.19589463785E+04  0.00000000000E+00 0. -1.
          6    1    1    2  502    0 -0.54170846431E+02 -0.62610456224E+01 -0.11903764689E+04  0.12041174441E+04  0.17300000000E+03 0.  1.
         -6    1    1    2    0  501  0.54170846431E+02  0.62610456224E+01 -0.75090031921E+03  0.77249852472E+03  0.17300000000E+03 0.  1.
<mgrwt>
<rscale>  2 0.18139096E+03</rscale>
<asrwt>0</asrwt>
<pdfrwt beam="2">  1        2 0.30137639E+00 0.18139096E+03</pdfrwt>
<pdfrwt beam="1">  1       -2 0.27183983E-02 0.18139096E+03</pdfrwt>
<totfact> 0.38269913E+03</totfact>
</mgrwt>
</event>
<event>
 4    1  0.8142558E-001  0.1829017E+03  0.7546771E-02  0.1165024E+00
         -1   -1    0    0    0  501 -0.00000000000E+00  0.00000000000E+00  0.12845406917E+03  0.12845406917E+03  0.00000000000E+00 0.  1.
          1   -1    0    0  502    0  0.00000000000E+00 -0.00000000000E+00 -0.61961464025E+03  0.61961464025E+03  0.00000000000E+00 0. -1.
          6    1    1    2  502    0 -0.55920295277E+02  0.19923948222E+02 -0.53036109075E+03  0.56101330619E+03  0.17300000000E+03 0. -1.
         -6    1    1    2    0  501  0.55920295277E+02 -0.19923948222E+02  0.39200519672E+02  0.18705540323E+03  0.17300000000E+03 0.  1.
<mgrwt>
<rscale>  2 0.18290173E+03</rscale>
<asrwt>0</asrwt>
<pdfrwt beam="2">  1        1 0.95325330E-01 0.18290173E+03</pdfrwt>
<pdfrwt beam="1">  1       -1 0.19762164E-01 0.18290173E+03</pdfrwt>
<totfact> 0.69574751E+02</totfact>
</mgrwt>
</event>
<event>
 4    1  0.8142558E-001  0.2474018E+03  0.7546771E-02  0.1114958E+00
         -4   -1    0    0    0  501 -0.00000000000E+00  0.00000000000E+00  0.61303393315E+03  0.61303393315E+03  0.00000000000E+00 0. -1.
          4   -1    0    0  502    0  0.00000000000E+00 -0.00000000000E+00 -0.10123290862E+03  0.10123290862E+03  0.00000000000E+00 0.  1.
          6    1    1    2  502    0 -0.47746296305E+02 -0.17029076347E+03  0.21406608937E+03  0.32715736818E+03  0.17300000000E+03 0.  1.
         -6    1    1    2    0  501  0.47746296305E+02  0.17029076347E+03  0.29773493516E+03  0.38710947360E+03  0.17300000000E+03 0. -1.
<mgrwt>
<rscale>  2 0.24740180E+03</rscale>
<asrwt>0</asrwt>
<pdfrwt beam="2">  1        4 0.15574294E-01 0.24740180E+03</pdfrwt>
<pdfrwt beam="1">  1       -4 0.94312911E-01 0.24740180E+03</pdfrwt>
<totfact> 0.62926509E+01</totfact>
</mgrwt>
</event>
<event>
 4    1  0.8142558E-001  0.2132541E+03  0.7546771E-02  0.1139015E+00
         -2   -1    0    0    0  501 -0.00000000000E+00  0.00000000000E+00  0.39953153430E+02  0.39953153430E+02  0.00000000000E+00 0. -1.
          2   -1    0    0  502    0  0.00000000000E+00 -0.00000000000E+00 -0.22973193549E+04  0.22973193549E+04  0.00000000000E+00 0.  1.
          6    1    1    2  502    0 -0.71548860747E+02  0.10212273667E+03 -0.29860206315E+03  0.36693389723E+03  0.17300000000E+03 0. -1.
         -6    1    1    2    0  501  0.71548860747E+02 -0.10212273667E+03 -0.19587641383E+04  0.19703386111E+04  0.17300000000E+03 0.  1.
<mgrwt>
<rscale>  2 0.21325406E+03</rscale>
<asrwt>0</asrwt>
<pdfrwt beam="2">  1        2 0.35343385E+00 0.21325406E+03</pdfrwt>
<pdfrwt beam="1">  1       -2 0.61466371E-02 0.21325406E+03</pdfrwt>
<totfact> 0.74462455E+02</totfact>
</mgrwt>
</event>
<event>
 4    1  0.8142558E-001  0.1866353E+03  0.7546771E-02  0.1161532E+00
         -2   -1    0    0    0  501 -0.00000000000E+00  0.00000000000E+00  0.45825302873E+03  0.45825302873E+03  0.00000000000E+00 0. -1.
          2   -1    0    0  502    0  0.00000000000E+00 -0.00000000000E+00 -0.18784932767E+03  0.18784932767E+03  0.00000000000E+00 0.  1.
          6    1    1    2  502    0  0.45112646934E+02 -0.53559233380E+02 -0.11406231108E+03  0.21873032072E+03  0.17300000000E+03 0.  1.
         -6    1    1    2    0  501 -0.45112646934E+02  0.53559233380E+02  0.38446601214E+03  0.42737203568E+03  0.17300000000E+03 0. -1.
<mgrwt>
<rscale>  2 0.18663532E+03</rscale>
<asrwt>0</asrwt>
<pdfrwt beam="2">  1        2 0.28899897E-01 0.18663532E+03</pdfrwt>
<pdfrwt beam="1">  1       -2 0.70500466E-01 0.18663532E+03</pdfrwt>
<totfact> 0.34485537E+02</totfact>
</mgrwt>
</event>
<event>
 4    1  0.8142558E-001  0.2296391E+03  0.7546771E-02  0.1126894E+00
          1   -1    0    0  502    0  0.00000000000E+00  0.00000000000E+00  0.19161883812E+03  0.19161883812E+03  0.00000000000E+00 0. -1.
         -1   -1    0    0    0  501 -0.00000000000E+00 -0.00000000000E+00 -0.34233197542E+03  0.34233197542E+03  0.00000000000E+00 0.  1.
          6    1    1    2  502    0  0.15097385723E+03  0.34678327009E+01 -0.19357947994E+03  0.30034504571E+03  0.17300000000E+03 0.  1.
         -6    1    1    2    0  501 -0.15097385723E+03 -0.34678327009E+01  0.42866342635E+02  0.23360576782E+03  0.17300000000E+03 0. -1.
<mgrwt>
<rscale>  2 0.22963913E+03</rscale>
<asrwt>0</asrwt>
<pdfrwt beam="1">  1        1 0.29479821E-01 0.22963913E+03</pdfrwt>
<pdfrwt beam="2">  1       -1 0.52666458E-01 0.22963913E+03</pdfrwt>
<totfact> 0.57932186E+02</totfact>
</mgrwt>
</event>
<event>
 4    1  0.8142558E-001  0.1778469E+03  0.7546771E-02  0.1169903E+00
          1   -1    0    0  502    0  0.00000000000E+00  0.00000000000E+00  0.12167464206E+03  0.12167464206E+03  0.00000000000E+00 0.  1.
         -1   -1    0    0    0  501 -0.00000000000E+00 -0.00000000000E+00 -0.27794851292E+03  0.27794851292E+03  0.00000000000E+00 0. -1.
          6    1    1    2  502    0 -0.93281455156E+01 -0.40168438988E+02 -0.27293195560E+02  0.17992897575E+03  0.17300000000E+03 0.  1.
         -6    1    1    2    0  501  0.93281455156E+01  0.40168438988E+02 -0.12898067530E+03  0.21969417924E+03  0.17300000000E+03 0. -1.
<mgrwt>
<rscale>  2 0.17784689E+03</rscale>
<asrwt>0</asrwt>
<pdfrwt beam="1">  1        1 0.18719176E-01 0.17784689E+03</pdfrwt>
<pdfrwt beam="2">  1       -1 0.42761310E-01 0.17784689E+03</pdfrwt>
<totfact> 0.15060438E+03</totfact>
</mgrwt>
</event>
<event>
 4    1  0.8142558E-001  0.1982469E+03  0.7546771E-02  0.1151227E+00
         -2   -1    0    0    0  501 -0.00000000000E+00  0.00000000000E+00  0.11394392758E+03  0.11394392758E+03  0.00000000000E+00 0.  1.
          2   -1    0    0  502    0  0.00000000000E+00 -0.00000000000E+00 -0.78774036404E+03  0.78774036404E+03  0.00000000000E+00 0. -1.
          6    1    1    2  502    0  0.19846399015E+02  0.94757357654E+02 -0.67492061210E+03  0.70343419665E+03  0.17300000000E+03 0. -1.
         -6    1    1    2    0  501 -0.19846399015E+02 -0.94757357654E+02  0.11241756335E+01  0.19825009497E+03  0.17300000000E+03 0.  1.
<mgrwt>
<rscale>  2 0.19824691E+03</rscale>
<asrwt>0</asrwt>
<pdfrwt beam="2">  1        2 0.12119082E+00 0.19824691E+03</pdfrwt>
<pdfrwt beam="1">  1       -2 0.17529836E-01 0.19824691E+03</pdfrwt>
<totfact> 0.95610543E+02</totfact>
</mgrwt>
</event>
<event>
 4    1  0.8142558E-001  0.1969795E+03  0.7546771E-02  0.1152313E+00
          2   -1    0    0  502    0  0.00000000000E+00  0.00000000000E+00  0.78802611826E+03  0.78802611826E+03  0.00000000000E+00 0. -1.
         -2   -1    0    0    0  501 -0.00000000000E+00 -0.00000000000E+00 -0.56677472381E+02  0.56677472381E+02  0.00000000000E+00 0.  1.
          6    1    1    2  502    0 -0.91356396222E+02 -0.22933277151E+02  0.51869023940E+03  0.55483375058E+03  0.17300000000E+03 0.  1.
         -6    1    1    2    0  501  0.91356396222E+02  0.22933277151E+02  0.21265840648E+03  0.28986984006E+03  0.17300000000E+03 0.  1.
<mgrwt>
<rscale>  2 0.19697951E+03</rscale>
<asrwt>0</asrwt>
<pdfrwt beam="1">  1        2 0.12123478E+00 0.19697951E+03</pdfrwt>
<pdfrwt beam="2">  1       -2 0.87196117E-02 0.19697951E+03</pdfrwt>
<totfact> 0.29578661E+03</totfact>
</mgrwt>
</event>
<event>
 4    1  0.8142558E-001  0.4331918E+03  0.7546771E-02  0.1032856E+00
         -2   -1    0    0    0  501 -0.00000000000E+00  0.00000000000E+00  0.12574776764E+03  0.12574776764E+03  0.00000000000E+00 0. -1.
          2   -1    0    0  502    0  0.00000000000E+00 -0.00000000000E+00 -0.19459849765E+04  0.19459849765E+04  0.00000000000E+00 0.  1.
          6    1    1    2  502    0 -0.27406621559E+03 -0.28742621731E+03 -0.14102736076E+04  0.14753056528E+04  0.17300000000E+03 0.  1.
         -6    1    1    2    0  501  0.27406621559E+03  0.28742621731E+03 -0.40996360129E+03  0.59642709136E+03  0.17300000000E+03 0. -1.
<mgrwt>
<rscale>  2 0.43319178E+03</rscale>
<asrwt>0</asrwt>
<pdfrwt beam="2">  1        2 0.29938228E+00 0.43319178E+03</pdfrwt>
<pdfrwt beam="1">  1       -2 0.19345812E-01 0.43319178E+03</pdfrwt>
<totfact> 0.17211174E+02</totfact>
</mgrwt>
</event>
<event>
 4    1  0.8142558E-001  0.3884548E+03  0.7546771E-02  0.1047852E+00
         -2   -1    0    0    0  501 -0.00000000000E+00  0.00000000000E+00  0.17777649125E+03  0.17777649125E+03  0.00000000000E+00 0.  1.
          2   -1    0    0  502    0  0.00000000000E+00 -0.00000000000E+00 -0.90628118522E+03  0.90628118522E+03  0.00000000000E+00 0. -1.
          6    1    1    2  502    0 -0.20940214367E+03  0.27770282082E+03 -0.50075612104E+03  0.63376163281E+03  0.17300000000E+03 0. -1.
         -6    1    1    2    0  501  0.20940214367E+03 -0.27770282082E+03 -0.22774857293E+03  0.45029604366E+03  0.17300000000E+03 0.  1.
<mgrwt>
<rscale>  2 0.38845478E+03</rscale>
<asrwt>0</asrwt>
<pdfrwt beam="2">  1        2 0.13942787E+00 0.38845478E+03</pdfrwt>
<pdfrwt beam="1">  1       -2 0.27350230E-01 0.38845478E+03</pdfrwt>
<totfact> 0.36298082E+02</totfact>
</mgrwt>
</event>
<event>
 4    1  0.8142558E-001  0.2272550E+03  0.7546771E-02  0.1128587E+00
         -1   -1    0    0    0  501 -0.00000000000E+00  0.00000000000E+00  0.19149979571E+03  0.19149979571E+03  0.00000000000E+00 0.  1.
          1   -1    0    0  502    0  0.00000000000E+00 -0.00000000000E+00 -0.28317445332E+03  0.28317445332E+03  0.00000000000E+00 0. -1.
          6    1    1    2  502    0  0.10541676333E+03  0.10297159175E+03 -0.97635842329E+02  0.24734106090E+03  0.17300000000E+03 0.  1.
         -6    1    1    2    0  501 -0.10541676333E+03 -0.10297159175E+03  0.59611847212E+01  0.22733318812E+03  0.17300000000E+03 0. -1.
<mgrwt>
<rscale>  2 0.22725502E+03</rscale>
<asrwt>0</asrwt>
<pdfrwt beam="2">  1        1 0.43565300E-01 0.22725502E+03</pdfrwt>
<pdfrwt beam="1">  1       -1 0.29461507E-01 0.22725502E+03</pdfrwt>
<totfact> 0.99358299E+02</totfact>
</mgrwt>
</event>
<event>
 4    1  0.8142558E-001  0.1863258E+03  0.7546771E-02  0.1161818E+00
         -3   -1    0    0    0  501 -0.00000000000E+00  0.00000000000E+00  0.12239597052E+04  0.12239597052E+04  0.00000000000E+00 0. -1.
          3   -1    0    0  502    0  0.00000000000E+00 -0.00000000000E+00 -0.35193728848E+02  0.35193728848E+02  0.00000000000E+00 0.  1.
          6    1    1    2  502    0 -0.67339494436E+02 -0.15927571058E+02  0.31705460697E+03  0.36775116428E+03  0.17300000000E+03 0.  1.
         -6    1    1    2    0  501  0.67339494436E+02  0.15927571058E+02  0.87171136939E+03  0.89140226977E+03  0.17300000000E+03 0.  1.
<mgrwt>
<rscale>  2 0.18632578E+03</rscale>
<asrwt>0</asrwt>
<pdfrwt beam="2">  1        3 0.54144207E-02 0.18632578E+03</pdfrwt>
<pdfrwt beam="1">  1       -3 0.18830146E+00 0.18632578E+03</pdfrwt>
<totfact> 0.92187166E+01</totfact>
</mgrwt>
</event>
<event>
 4    1  0.8142558E-001  0.2719607E+03  0.7546771E-02  0.1100163E+00
         -2   -1    0    0    0  501 -0.00000000000E+00  0.00000000000E+00  0.90947081271E+03  0.90947081271E+03  0.00000000000E+00 0.  1.
          2   -1    0    0  502    0  0.00000000000E+00 -0.00000000000E+00 -0.81334541246E+02  0.81334541246E+02  0.00000000000E+00 0. -1.
          6    1    1    2  502    0 -0.73921059582E+02 -0.19639073197E+03  0.40868050769E+03  0.49089958242E+03  0.17300000000E+03 0. -1.
         -6    1    1    2    0  501  0.73921059582E+02  0.19639073197E+03  0.41945576377E+03  0.49990577154E+03  0.17300000000E+03 0.  1.
<mgrwt>
<rscale>  2 0.27196074E+03</rscale>
<asrwt>0</asrwt>
<pdfrwt beam="2">  1        2 0.12513007E-01 0.27196074E+03</pdfrwt>
<pdfrwt beam="1">  1       -2 0.13991858E+00 0.27196074E+03</pdfrwt>
<totfact> 0.18432609E+02</totfact>
</mgrwt>
</event>
<event>
 4    1  0.8142558E-001  0.1783608E+03  0.7546771E-02  0.1169399E+00
         -2   -1    0    0    0  501 -0.00000000000E+00  0.00000000000E+00  0.99351963828E+02  0.99351963828E+02  0.00000000000E+00 0.  1.
          2   -1    0    0  502    0  0.00000000000E+00 -0.00000000000E+00 -0.34277240609E+03  0.34277240609E+03  0.00000000000E+00 0. -1.
          6    1    1    2  502    0  0.31780335339E+02 -0.29556475293E+02 -0.64982793858E+02  0.18982976174E+03  0.17300000000E+03 0.  1.
         -6    1    1    2    0  501 -0.31780335339E+02  0.29556475293E+02 -0.17843764841E+03  0.25229460818E+03  0.17300000000E+03 0. -1.
<mgrwt>
<rscale>  2 0.17836080E+03</rscale>
<asrwt>0</asrwt>
<pdfrwt beam="2">  1        2 0.52734216E-01 0.17836080E+03</pdfrwt>
<pdfrwt beam="1">  1       -2 0.15284918E-01 0.17836080E+03</pdfrwt>
<totfact> 0.30760682E+03</totfact>
</mgrwt>
</event>
<event>
 4    1  0.8142558E-001  0.3018662E+03  0.7546771E-02  0.1084311E+00
          1   -1    0    0  502    0  0.00000000000E+00  0.00000000000E+00  0.29024462337E+04  0.29024462337E+04  0.00000000000E+00 0.  1.
         -1   -1    0    0    0  501 -0.00000000000E+00 -0.00000000000E+00 -0.33303493460E+02  0.33303493460E+02  0.00000000000E+00 0. -1.
          6    1    1    2  502    0 -0.14019567773E+03 -0.20381204921E+03  0.17859335214E+04  0.18112652270E+04  0.17300000000E+03 0.  1.
         -6    1    1    2    0  501  0.14019567773E+03  0.20381204921E+03  0.10832092188E+04  0.11244845002E+04  0.17300000000E+03 0. -1.
<mgrwt>
<rscale>  2 0.30186616E+03</rscale>
<asrwt>0</asrwt>
<pdfrwt beam="1">  1        1 0.44652999E+00 0.30186616E+03</pdfrwt>
<pdfrwt beam="2">  1       -1 0.51236167E-02 0.30186616E+03</pdfrwt>
<totfact> 0.14235162E+02</totfact>
</mgrwt>
</event>
<event>
 4    1  0.8142558E-001  0.1971030E+03  0.7546771E-02  0.1152206E+00
          2   -1    0    0  502    0  0.00000000000E+00  0.00000000000E+00  0.14370634127E+03  0.14370634127E+03  0.00000000000E+00 0. -1.
         -2   -1    0    0    0  501 -0.00000000000E+00 -0.00000000000E+00 -0.27092587194E+03  0.27092587194E+03  0.00000000000E+00 0.  1.
          6    1    1    2  502    0 -0.22832277747E+02 -0.91647616469E+02 -0.73248977390E+02  0.21027365788E+03  0.17300000000E+03 0. -1.
         -6    1    1    2    0  501  0.22832277747E+02  0.91647616469E+02 -0.53970553281E+02  0.20435855532E+03  0.17300000000E+03 0. -1.
<mgrwt>
<rscale>  2 0.19710301E+03</rscale>
<asrwt>0</asrwt>
<pdfrwt beam="1">  1        2 0.22108668E-01 0.19710301E+03</pdfrwt>
<pdfrwt beam="2">  1       -2 0.41680903E-01 0.19710301E+03</pdfrwt>
<totfact> 0.13484960E+03</totfact>
</mgrwt>
</event>
<event>
 4    1  0.8142558E-001  0.2426579E+03  0.7546771E-02  0.1118035E+00
          1   -1    0    0  502    0  0.00000000000E+00  0.00000000000E+00  0.48234557287E+03  0.48234557287E+03  0.00000000000E+00 0.  1.
         -1   -1    0    0    0  501 -0.00000000000E+00 -0.00000000000E+00 -0.15105774692E+03  0.15105774692E+03  0.00000000000E+00 0. -1.
          6    1    1    2  502    0  0.12775105470E+03 -0.11239890694E+03  0.26923401452E+02  0.24414691438E+03  0.17300000000E+03 0. -1.
         -6    1    1    2    0  501 -0.12775105470E+03  0.11239890694E+03  0.30436442450E+03  0.38925640542E+03  0.17300000000E+03 0.  1.
<mgrwt>
<rscale>  2 0.24265788E+03</rscale>
<asrwt>0</asrwt>
<pdfrwt beam="1">  1        1 0.74207011E-01 0.24265788E+03</pdfrwt>
<pdfrwt beam="2">  1       -1 0.23239654E-01 0.24265788E+03</pdfrwt>
<totfact> 0.74813067E+02</totfact>
</mgrwt>
</event>
<event>
 4    1  0.8142558E-001  0.1905179E+03  0.7546771E-02  0.1157995E+00
          2   -1    0    0  502    0  0.00000000000E+00  0.00000000000E+00  0.60831764542E+03  0.60831764542E+03  0.00000000000E+00 0.  1.
         -2   -1    0    0    0  501 -0.00000000000E+00 -0.00000000000E+00 -0.64281825215E+02  0.64281825215E+02  0.00000000000E+00 0. -1.
          6    1    1    2  502    0 -0.79577181688E+02  0.59605610597E+01  0.18191969713E+03  0.26342329498E+03  0.17300000000E+03 0. -1.
         -6    1    1    2    0  501  0.79577181688E+02 -0.59605610597E+01  0.36211612308E+03  0.40917617566E+03  0.17300000000E+03 0.  1.
<mgrwt>
<rscale>  2 0.19051786E+03</rscale>
<asrwt>0</asrwt>
<pdfrwt beam="1">  1        2 0.93587326E-01 0.19051786E+03</pdfrwt>
<pdfrwt beam="2">  1       -2 0.98895120E-02 0.19051786E+03</pdfrwt>
<totfact> 0.33082038E+03</totfact>
</mgrwt>
</event>
<event>
 4    1  0.8142558E-001  0.2438863E+03  0.7546771E-02  0.1117231E+00
         -2   -1    0    0    0  501 -0.00000000000E+00  0.00000000000E+00  0.15866944028E+04  0.15866944028E+04  0.00000000000E+00 0. -1.
          2   -1    0    0  502    0  0.00000000000E+00 -0.00000000000E+00 -0.68450972755E+02  0.68450972755E+02  0.00000000000E+00 0.  1.
          6    1    1    2  502    0 -0.14293163988E+02 -0.17131027962E+03  0.20252035542E+03  0.31700946484E+03  0.17300000000E+03 0.  1.
         -6    1    1    2    0  501  0.14293163988E+02  0.17131027962E+03  0.13157230747E+04  0.13381359108E+04  0.17300000000E+03 0. -1.
<mgrwt>
<rscale>  2 0.24388626E+03</rscale>
<asrwt>0</asrwt>
<pdfrwt beam="2">  1        2 0.10530920E-01 0.24388626E+03</pdfrwt>
<pdfrwt beam="1">  1       -2 0.24410680E+00 0.24388626E+03</pdfrwt>
<totfact> 0.46847653E+01</totfact>
</mgrwt>
</event>
<event>
 4    1  0.8142558E-001  0.2638121E+03  0.7546771E-02  0.1104874E+00
         -1   -1    0    0    0  501 -0.00000000000E+00  0.00000000000E+00  0.32133234181E+03  0.32133234181E+03  0.00000000000E+00 0.  1.
          1   -1    0    0  502    0  0.00000000000E+00 -0.00000000000E+00 -0.22231793040E+03  0.22231793040E+03  0.00000000000E+00 0. -1.
          6    1    1    2  502    0  0.19236082029E+03 -0.51624823894E+02  0.93145503169E+02  0.27977293005E+03  0.17300000000E+03 0.  1.
         -6    1    1    2    0  501 -0.19236082029E+03  0.51624823894E+02  0.58689082361E+01  0.26387734217E+03  0.17300000000E+03 0.  1.
<mgrwt>
<rscale>  2 0.26381207E+03</rscale>
<asrwt>0</asrwt>
<pdfrwt beam="2">  1        1 0.34202758E-01 0.26381207E+03</pdfrwt>
<pdfrwt beam="1">  1       -1 0.49435745E-01 0.26381207E+03</pdfrwt>
<totfact> 0.53996444E+02</totfact>
</mgrwt>
</event>
<event>
 4    1  0.8142558E-001  0.1859149E+03  0.7546771E-02  0.1162198E+00
         -2   -1    0    0    0  501 -0.00000000000E+00  0.00000000000E+00  0.16773332264E+03  0.16773332264E+03  0.00000000000E+00 0. -1.
          2   -1    0    0  502    0  0.00000000000E+00 -0.00000000000E+00 -0.27539397960E+03  0.27539397960E+03  0.00000000000E+00 0.  1.
          6    1    1    2  502    0  0.64422657453E+02 -0.22024286541E+02 -0.16499622745E+03  0.24857212849E+03  0.17300000000E+03 0.  1.
         -6    1    1    2    0  501 -0.64422657453E+02  0.22024286541E+02  0.57335570484E+02  0.19455517375E+03  0.17300000000E+03 0. -1.
<mgrwt>
<rscale>  2 0.18591489E+03</rscale>
<asrwt>0</asrwt>
<pdfrwt beam="2">  1        2 0.42368304E-01 0.18591489E+03</pdfrwt>
<pdfrwt beam="1">  1       -2 0.25805127E-01 0.18591489E+03</pdfrwt>
<totfact> 0.15955171E+03</totfact>
</mgrwt>
</event>
<event>
 4    1  0.8142558E-001  0.3203987E+03  0.7546771E-02  0.1075466E+00
         -2   -1    0    0    0  501 -0.00000000000E+00  0.00000000000E+00  0.11706143334E+03  0.11706143334E+03  0.00000000000E+00 0. -1.
          2   -1    0    0  502    0  0.00000000000E+00 -0.00000000000E+00 -0.94327635361E+03  0.94327635361E+03  0.00000000000E+00 0.  1.
          6    1    1    2  502    0  0.19179120014E+03 -0.18958503676E+03 -0.27250768550E+03  0.42061358665E+03  0.17300000000E+03 0. -1.
         -6    1    1    2    0  501 -0.19179120014E+03  0.18958503676E+03 -0.55370723477E+03  0.63972420031E+03  0.17300000000E+03 0.  1.
<mgrwt>
<rscale>  2 0.32039874E+03</rscale>
<asrwt>0</asrwt>
<pdfrwt beam="2">  1        2 0.14511944E+00 0.32039874E+03</pdfrwt>
<pdfrwt beam="1">  1       -2 0.18009451E-01 0.32039874E+03</pdfrwt>
<totfact> 0.71744502E+02</totfact>
</mgrwt>
</event>
<event>
 4    1  0.8142558E-001  0.1740535E+03  0.7546771E-02  0.1173685E+00
         -2   -1    0    0    0  501 -0.00000000000E+00  0.00000000000E+00  0.41794270100E+02  0.41794270100E+02  0.00000000000E+00 0. -1.
          2   -1    0    0  502    0  0.00000000000E+00 -0.00000000000E+00 -0.74499238729E+03  0.74499238729E+03  0.00000000000E+00 0.  1.
          6    1    1    2  502    0 -0.18830309563E+02  0.33242181183E+01 -0.41628241345E+03  0.45120469716E+03  0.17300000000E+03 0.  1.
         -6    1    1    2    0  501  0.18830309563E+02 -0.33242181183E+01 -0.28691570373E+03  0.33558196023E+03  0.17300000000E+03 0. -1.
<mgrwt>
<rscale>  2 0.17405353E+03</rscale>
<asrwt>0</asrwt>
<pdfrwt beam="2">  1        2 0.11461422E+00 0.17405353E+03</pdfrwt>
<pdfrwt beam="1">  1       -2 0.64298872E-02 0.17405353E+03</pdfrwt>
<totfact> 0.50633457E+03</totfact>
</mgrwt>
</event>
<event>
 4    1  0.8142558E-001  0.2860419E+03  0.7546771E-02  0.1092434E+00
          2   -1    0    0  502    0  0.00000000000E+00  0.00000000000E+00  0.25939889928E+03  0.25939889928E+03  0.00000000000E+00 0. -1.
         -2   -1    0    0    0  501 -0.00000000000E+00 -0.00000000000E+00 -0.32277640377E+03  0.32277640377E+03  0.00000000000E+00 0.  1.
          6    1    1    2  502    0  0.17460243816E+03  0.14630423516E+03  0.12251950531E+02  0.28630412314E+03  0.17300000000E+03 0. -1.
         -6    1    1    2    0  501 -0.17460243816E+03 -0.14630423516E+03 -0.75629455022E+02  0.29587117992E+03  0.17300000000E+03 0.  1.
<mgrwt>
<rscale>  2 0.28604185E+03</rscale>
<asrwt>0</asrwt>
<pdfrwt beam="1">  1        2 0.39907523E-01 0.28604185E+03</pdfrwt>
<pdfrwt beam="2">  1       -2 0.49657908E-01 0.28604185E+03</pdfrwt>
<totfact> 0.50091311E+02</totfact>
</mgrwt>
</event>
<event>
 4    1  0.8142558E-001  0.2241912E+03  0.7546771E-02  0.1130796E+00
          1   -1    0    0  502    0  0.00000000000E+00  0.00000000000E+00  0.29238008694E+03  0.29238008694E+03  0.00000000000E+00 0.  1.
         -1   -1    0    0    0  501 -0.00000000000E+00 -0.00000000000E+00 -0.18772345373E+03  0.18772345373E+03  0.00000000000E+00 0. -1.
          6    1    1    2  502    0 -0.94526676124E+02  0.10675866744E+03 -0.17354010934E+02  0.22486188487E+03  0.17300000000E+03 0. -1.
         -6    1    1    2    0  501  0.94526676124E+02 -0.10675866744E+03  0.12201064415E+03  0.25524165580E+03  0.17300000000E+03 0.  1.
<mgrwt>
<rscale>  2 0.22419123E+03</rscale>
<asrwt>0</asrwt>
<pdfrwt beam="1">  1        1 0.44981552E-01 0.22419123E+03</pdfrwt>
<pdfrwt beam="2">  1       -1 0.28880532E-01 0.22419123E+03</pdfrwt>
<totfact> 0.98708110E+02</totfact>
</mgrwt>
</event>
<event>
 4    1  0.8142558E-001  0.2382663E+03  0.7546771E-02  0.1120953E+00
          1   -1    0    0  502    0  0.00000000000E+00  0.00000000000E+00  0.27290631270E+03  0.27290631270E+03  0.00000000000E+00 0. -1.
         -1   -1    0    0    0  501 -0.00000000000E+00 -0.00000000000E+00 -0.27954084686E+03  0.27954084686E+03  0.00000000000E+00 0.  1.
          6    1    1    2  502    0  0.96733455210E+02  0.13222893672E+03 -0.14303277813E+03  0.27790147298E+03  0.17300000000E+03 0.  1.
         -6    1    1    2    0  501 -0.96733455210E+02 -0.13222893672E+03  0.13639824397E+03  0.27454568658E+03  0.17300000000E+03 0. -1.
<mgrwt>
<rscale>  2 0.23826635E+03</rscale>
<asrwt>0</asrwt>
<pdfrwt beam="1">  1        1 0.41985586E-01 0.23826635E+03</pdfrwt>
<pdfrwt beam="2">  1       -1 0.43006284E-01 0.23826635E+03</pdfrwt>
<totfact> 0.53803837E+02</totfact>
</mgrwt>
</event>
<event>
 4    1  0.8142558E-001  0.2043939E+03  0.7546771E-02  0.1146084E+00
          2   -1    0    0  502    0  0.00000000000E+00  0.00000000000E+00  0.26346797664E+04  0.26346797664E+04  0.00000000000E+00 0.  1.
         -2   -1    0    0    0  501 -0.00000000000E+00 -0.00000000000E+00 -0.22140816947E+02  0.22140816947E+02  0.00000000000E+00 0. -1.
          6    1    1    2  502    0  0.66110333411E+02  0.86471228065E+02  0.59854567813E+03  0.63248223554E+03  0.17300000000E+03 0.  1.
         -6    1    1    2    0  501 -0.66110333411E+02 -0.86471228065E+02  0.20139932713E+04  0.20243383478E+04  0.17300000000E+03 0.  1.
<mgrwt>
<rscale>  2 0.20439386E+03</rscale>
<asrwt>0</asrwt>
<pdfrwt beam="1">  1        2 0.40533510E+00 0.20439386E+03</pdfrwt>
<pdfrwt beam="2">  1       -2 0.34062816E-02 0.20439386E+03</pdfrwt>
<totfact> 0.11956828E+03</totfact>
</mgrwt>
</event>
<event>
 4    1  0.8142558E-001  0.2652376E+03  0.7546771E-02  0.1104037E+00
         -2   -1    0    0    0  501 -0.00000000000E+00  0.00000000000E+00  0.78509204758E+03  0.78509204758E+03  0.00000000000E+00 0. -1.
          2   -1    0    0  502    0  0.00000000000E+00 -0.00000000000E+00 -0.99440868476E+02  0.99440868476E+02  0.00000000000E+00 0.  1.
          6    1    1    2  502    0 -0.10870332670E+02 -0.20075810681E+03  0.20375704469E+03  0.33446661245E+03  0.17300000000E+03 0.  1.
         -6    1    1    2    0  501  0.10870332670E+02  0.20075810681E+03  0.48189413441E+03  0.55006630361E+03  0.17300000000E+03 0. -1.
<mgrwt>
<rscale>  2 0.26523759E+03</rscale>
<asrwt>0</asrwt>
<pdfrwt beam="2">  1        2 0.15298596E-01 0.26523759E+03</pdfrwt>
<pdfrwt beam="1">  1       -2 0.12078339E+00 0.26523759E+03</pdfrwt>
<totfact> 0.20861530E+02</totfact>
</mgrwt>
</event>
<event>
 4    1  0.8142558E-001  0.2071065E+03  0.7546771E-02  0.1143878E+00
          1   -1    0    0  502    0  0.00000000000E+00  0.00000000000E+00  0.44535450874E+03  0.44535450874E+03  0.00000000000E+00 0.  1.
         -1   -1    0    0    0  501 -0.00000000000E+00 -0.00000000000E+00 -0.97325055846E+02  0.97325055846E+02  0.00000000000E+00 0. -1.
          6    1    1    2  502    0 -0.63078880218E+02  0.94790133486E+02  0.14633545006E+03  0.25358860085E+03  0.17300000000E+03 0. -1.
         -6    1    1    2    0  501  0.63078880218E+02 -0.94790133486E+02  0.20169400283E+03  0.28909096373E+03  0.17300000000E+03 0.  1.
<mgrwt>
<rscale>  2 0.20710653E+03</rscale>
<asrwt>0</asrwt>
<pdfrwt beam="1">  1        1 0.68516077E-01 0.20710653E+03</pdfrwt>
<pdfrwt beam="2">  1       -1 0.14973086E-01 0.20710653E+03</pdfrwt>
<totfact> 0.16875820E+03</totfact>
</mgrwt>
</event>
<event>
 4    1  0.8142558E-001  0.1768568E+03  0.7546771E-02  0.1170880E+00
         -4   -1    0    0    0  501 -0.00000000000E+00  0.00000000000E+00  0.44936068719E+03  0.44936068719E+03  0.00000000000E+00 0.  1.
          4   -1    0    0  502    0  0.00000000000E+00 -0.00000000000E+00 -0.93976581524E+02  0.93976581524E+02  0.00000000000E+00 0. -1.
          6    1    1    2  502    0  0.34021621288E+02  0.13850626020E+02  0.31603608576E+03  0.36215620671E+03  0.17300000000E+03 0.  1.
         -6    1    1    2    0  501 -0.34021621288E+02 -0.13850626020E+02  0.39348019897E+02  0.18118106200E+03  0.17300000000E+03 0. -1.
<mgrwt>
<rscale>  2 0.17685675E+03</rscale>
<asrwt>0</asrwt>
<pdfrwt beam="2">  1        4 0.14457936E-01 0.17685675E+03</pdfrwt>
<pdfrwt beam="1">  1       -4 0.69132412E-01 0.17685675E+03</pdfrwt>
<totfact> 0.13751614E+02</totfact>
</mgrwt>
</event>
<event>
 4    1  0.8142558E-001  0.1858727E+03  0.7546771E-02  0.1162237E+00
          2   -1    0    0  502    0  0.00000000000E+00  0.00000000000E+00  0.10381605238E+04  0.10381605238E+04  0.00000000000E+00 0. -1.
         -2   -1    0    0    0  501 -0.00000000000E+00 -0.00000000000E+00 -0.38455944457E+02  0.38455944457E+02  0.00000000000E+00 0.  1.
          6    1    1    2  502    0  0.67900662433E+02  0.30285098939E+01  0.30233867642E+03  0.35490470142E+03  0.17300000000E+03 0.  1.
         -6    1    1    2    0  501 -0.67900662433E+02 -0.30285098939E+01  0.69736590294E+03  0.72171176685E+03  0.17300000000E+03 0. -1.
<mgrwt>
<rscale>  2 0.18587273E+03</rscale>
<asrwt>0</asrwt>
<pdfrwt beam="1">  1        2 0.15971698E+00 0.18587273E+03</pdfrwt>
<pdfrwt beam="2">  1       -2 0.59162999E-02 0.18587273E+03</pdfrwt>
<totfact> 0.37267579E+03</totfact>
</mgrwt>
</event>
<event>
 4    1  0.8142558E-001  0.2439394E+03  0.7546771E-02  0.1117196E+00
          2   -1    0    0  502    0  0.00000000000E+00  0.00000000000E+00  0.27361467945E+04  0.27361467945E+04  0.00000000000E+00 0. -1.
         -2   -1    0    0    0  501 -0.00000000000E+00 -0.00000000000E+00 -0.21781877475E+02  0.21781877475E+02  0.00000000000E+00 0.  1.
          6    1    1    2  502    0  0.15792672373E+03  0.68092542561E+02  0.14113523952E+04  0.14322786139E+04  0.17300000000E+03 0.  1.
         -6    1    1    2    0  501 -0.15792672373E+03 -0.68092542561E+02  0.13030125218E+04  0.13256500580E+04  0.17300000000E+03 0. -1.
<mgrwt>
<rscale>  2 0.24393943E+03</rscale>
<asrwt>0</asrwt>
<pdfrwt beam="1">  1        2 0.42094539E+00 0.24393943E+03</pdfrwt>
<pdfrwt beam="2">  1       -2 0.33510602E-02 0.24393943E+03</pdfrwt>
<totfact> 0.10676240E+03</totfact>
</mgrwt>
</event>
<event>
 4    1  0.8142558E-001  0.2263316E+03  0.7546771E-02  0.1129249E+00
         -2   -1    0    0    0  501 -0.00000000000E+00  0.00000000000E+00  0.12693757477E+03  0.12693757477E+03  0.00000000000E+00 0.  1.
          2   -1    0    0  502    0  0.00000000000E+00 -0.00000000000E+00 -0.43724679933E+03  0.43724679933E+03  0.00000000000E+00 0. -1.
          6    1    1    2  502    0 -0.11353897384E+03  0.91683703647E+02 -0.76846868393E+02  0.23902184268E+03  0.17300000000E+03 0. -1.
         -6    1    1    2    0  501  0.11353897384E+03 -0.91683703647E+02 -0.23346235617E+03  0.32516253143E+03  0.17300000000E+03 0. -1.
<mgrwt>
<rscale>  2 0.22633162E+03</rscale>
<asrwt>0</asrwt>
<pdfrwt beam="2">  1        2 0.67268739E-01 0.22633162E+03</pdfrwt>
<pdfrwt beam="1">  1       -2 0.19528858E-01 0.22633162E+03</pdfrwt>
<totfact> 0.15784827E+03</totfact>
</mgrwt>
</event>
<event>
 4    1  0.8142558E-001  0.1854996E+03  0.7546771E-02  0.1162584E+00
         -3   -1    0    0    0  501 -0.00000000000E+00  0.00000000000E+00  0.51506087362E+03  0.51506087362E+03  0.00000000000E+00 0.  1.
          3   -1    0    0  502    0  0.00000000000E+00 -0.00000000000E+00 -0.75926167814E+02  0.75926167814E+02  0.00000000000E+00 0. -1.
          6    1    1    2  502    0  0.24222938993E+02  0.62404743692E+02  0.11716500880E+03  0.21940314969E+03  0.17300000000E+03 0. -1.
         -6    1    1    2    0  501 -0.24222938993E+02 -0.62404743692E+02  0.32196969701E+03  0.37158389174E+03  0.17300000000E+03 0.  1.
<mgrwt>
<rscale>  2 0.18549960E+03</rscale>
<asrwt>0</asrwt>
<pdfrwt beam="2">  1        3 0.11680949E-01 0.18549960E+03</pdfrwt>
<pdfrwt beam="1">  1       -3 0.79240132E-01 0.18549960E+03</pdfrwt>
<totfact> 0.20969801E+02</totfact>
</mgrwt>
</event>
<event>
 4    1  0.8142558E-001  0.1848221E+03  0.7546771E-02  0.1163216E+00
          1   -1    0    0  502    0  0.00000000000E+00  0.00000000000E+00  0.36320615479E+03  0.36320615479E+03  0.00000000000E+00 0. -1.
         -1   -1    0    0    0  501 -0.00000000000E+00 -0.00000000000E+00 -0.21377520992E+03  0.21377520992E+03  0.00000000000E+00 0.  1.
          6    1    1    2  502    0 -0.41919248037E+01  0.64904817190E+02 -0.14118201008E+03  0.23257593921E+03  0.17300000000E+03 0.  1.
         -6    1    1    2    0  501  0.41919248037E+01 -0.64904817190E+02  0.29061295495E+03  0.34440542550E+03  0.17300000000E+03 0. -1.
<mgrwt>
<rscale>  2 0.18482210E+03</rscale>
<asrwt>0</asrwt>
<pdfrwt beam="1">  1        1 0.55877870E-01 0.18482210E+03</pdfrwt>
<pdfrwt beam="2">  1       -1 0.32888494E-01 0.18482210E+03</pdfrwt>
<totfact> 0.60168051E+02</totfact>
</mgrwt>
</event>
<event>
 4    1  0.8142558E-001  0.1835982E+03  0.7546771E-02  0.1164365E+00
          1   -1    0    0  502    0  0.00000000000E+00  0.00000000000E+00  0.12644718329E+03  0.12644718329E+03  0.00000000000E+00 0. -1.
         -1   -1    0    0    0  501 -0.00000000000E+00 -0.00000000000E+00 -0.28250409909E+03  0.28250409909E+03  0.00000000000E+00 0.  1.
          6    1    1    2  502    0 -0.61352059689E+02 -0.39016994168E+01 -0.29482202617E+02  0.18595025883E+03  0.17300000000E+03 0. -1.
         -6    1    1    2    0  501  0.61352059689E+02  0.39016994168E+01 -0.12657471319E+03  0.22300102355E+03  0.17300000000E+03 0.  1.
<mgrwt>
<rscale>  2 0.18359820E+03</rscale>
<asrwt>0</asrwt>
<pdfrwt beam="1">  1        1 0.19453413E-01 0.18359820E+03</pdfrwt>
<pdfrwt beam="2">  1       -1 0.43462169E-01 0.18359820E+03</pdfrwt>
<totfact> 0.13935095E+03</totfact>
</mgrwt>
</event>
<event>
 4    1  0.8142558E-001  0.4405152E+03  0.7546771E-02  0.1030589E+00
         -1   -1    0    0    0  501 -0.00000000000E+00  0.00000000000E+00  0.24859141387E+03  0.24859141387E+03  0.00000000000E+00 0.  1.
          1   -1    0    0  502    0  0.00000000000E+00 -0.00000000000E+00 -0.83745428757E+03  0.83745428757E+03  0.00000000000E+00 0. -1.
          6    1    1    2  502    0 -0.21256625009E+03 -0.34487711923E+03 -0.15295950235E+03  0.46631560922E+03  0.17300000000E+03 0.  1.
         -6    1    1    2    0  501  0.21256625009E+03  0.34487711923E+03 -0.43590337135E+03  0.61973009221E+03  0.17300000000E+03 0. -1.
<mgrwt>
<rscale>  2 0.44051520E+03</rscale>
<asrwt>0</asrwt>
<pdfrwt beam="2">  1        1 0.12883912E+00 0.44051520E+03</pdfrwt>
<pdfrwt beam="1">  1       -1 0.38244832E-01 0.44051520E+03</pdfrwt>
<totfact> 0.14166296E+02</totfact>
</mgrwt>
</event>
<event>
 4    1  0.8142558E-001  0.1761003E+03  0.7546771E-02  0.1171631E+00
         -2   -1    0    0    0  501 -0.00000000000E+00  0.00000000000E+00  0.67128754195E+03  0.67128754195E+03  0.00000000000E+00 0.  1.
          2   -1    0    0  502    0  0.00000000000E+00 -0.00000000000E+00 -0.48602575022E+02  0.48602575022E+02  0.00000000000E+00 0. -1.
          6    1    1    2  502    0  0.31581697567E+02  0.92152257424E+01  0.39142463584E+03  0.42921389720E+03  0.17300000000E+03 0.  1.
         -6    1    1    2    0  501 -0.31581697567E+02 -0.92152257424E+01  0.23126033109E+03  0.29067621977E+03  0.17300000000E+03 0. -1.
<mgrwt>
<rscale>  2 0.17610032E+03</rscale>
<asrwt>0</asrwt>
<pdfrwt beam="2">  1        2 0.74773197E-02 0.17610032E+03</pdfrwt>
<pdfrwt beam="1">  1       -2 0.10327500E+00 0.17610032E+03</pdfrwt>
<totfact> 0.72793116E+02</totfact>
</mgrwt>
</event>
<event>
 4    1  0.8142558E-001  0.2513489E+03  0.7546771E-02  0.1112455E+00
          1   -1    0    0  502    0  0.00000000000E+00  0.00000000000E+00  0.70915233697E+02  0.70915233697E+02  0.00000000000E+00 0. -1.
         -1   -1    0    0    0  501 -0.00000000000E+00 -0.00000000000E+00 -0.10114089384E+04  0.10114089384E+04  0.00000000000E+00 0.  1.
          6    1    1    2  502    0 -0.12918417728E+03 -0.12868058862E+03 -0.28342491539E+03  0.37882176312E+03  0.17300000000E+03 0. -1.
         -6    1    1    2    0  501  0.12918417728E+03  0.12868058862E+03 -0.65706878927E+03  0.70350240893E+03  0.17300000000E+03 0.  1.
<mgrwt>
<rscale>  2 0.25134885E+03</rscale>
<asrwt>0</asrwt>
<pdfrwt beam="1">  1        1 0.10910036E-01 0.25134885E+03</pdfrwt>
<pdfrwt beam="2">  1       -1 0.15560137E+00 0.25134885E+03</pdfrwt>
<totfact> 0.19631882E+02</totfact>
</mgrwt>
</event>
<event>
 4    1  0.8142558E-001  0.2003594E+03  0.7546771E-02  0.1149436E+00
         -1   -1    0    0    0  501 -0.00000000000E+00  0.00000000000E+00  0.36483654508E+02  0.36483654508E+02  0.00000000000E+00 0. -1.
          1   -1    0    0  502    0  0.00000000000E+00 -0.00000000000E+00 -0.11541796572E+04  0.11541796572E+04  0.00000000000E+00 0.  1.
          6    1    1    2  502    0 -0.71573760961E+01  0.10081502545E+03 -0.43025075647E+03  0.47461522397E+03  0.17300000000E+03 0.  1.
         -6    1    1    2    0  501  0.71573760961E+01 -0.10081502545E+03 -0.68744524624E+03  0.71604808775E+03  0.17300000000E+03 0.  1.
<mgrwt>
<rscale>  2 0.20035942E+03</rscale>
<asrwt>0</asrwt>
<pdfrwt beam="2">  1        1 0.17756607E+00 0.20035942E+03</pdfrwt>
<pdfrwt beam="1">  1       -1 0.56128708E-02 0.20035942E+03</pdfrwt>
<totfact> 0.18217613E+03</totfact>
</mgrwt>
</event>
<event>
 4    1  0.8142558E-001  0.1960027E+03  0.7546771E-02  0.1153156E+00
          2   -1    0    0  502    0  0.00000000000E+00  0.00000000000E+00  0.35825373705E+03  0.35825373705E+03  0.00000000000E+00 0. -1.
         -2   -1    0    0    0  501 -0.00000000000E+00 -0.00000000000E+00 -0.10723971014E+03  0.10723971014E+03  0.00000000000E+00 0.  1.
          6    1    1    2  502    0 -0.67362687596E+02  0.62851493437E+02  0.12383402909E+03  0.23184457869E+03  0.17300000000E+03 0.  1.
         -6    1    1    2    0  501  0.67362687596E+02 -0.62851493437E+02  0.12717999782E+03  0.23364886850E+03  0.17300000000E+03 0. -1.
<mgrwt>
<rscale>  2 0.19600266E+03</rscale>
<asrwt>0</asrwt>
<pdfrwt beam="1">  1        2 0.55115959E-01 0.19600266E+03</pdfrwt>
<pdfrwt beam="2">  1       -2 0.16498417E-01 0.19600266E+03</pdfrwt>
<totfact> 0.25938459E+03</totfact>
</mgrwt>
</event>
<event>
 4    1  0.8142558E-001  0.2142413E+03  0.7546771E-02  0.1138251E+00
          1   -1    0    0  502    0  0.00000000000E+00  0.00000000000E+00  0.48801456027E+03  0.48801456027E+03  0.00000000000E+00 0.  1.
         -1   -1    0    0    0  501 -0.00000000000E+00 -0.00000000000E+00 -0.11780057567E+03  0.11780057567E+03  0.00000000000E+00 0. -1.
          6    1    1    2  502    0 -0.78178847011E+02 -0.99289483250E+02  0.32110864342E+03  0.38601825667E+03  0.17300000000E+03 0.  1.
         -6    1    1    2    0  501  0.78178847011E+02  0.99289483250E+02  0.49105341177E+02  0.21979687927E+03  0.17300000000E+03 0. -1.
<mgrwt>
<rscale>  2 0.21424130E+03</rscale>
<asrwt>0</asrwt>
<pdfrwt beam="1">  1        1 0.75079162E-01 0.21424130E+03</pdfrwt>
<pdfrwt beam="2">  1       -1 0.18123166E-01 0.21424130E+03</pdfrwt>
<totfact> 0.11046089E+03</totfact>
</mgrwt>
</event>
<event>
 4    1  0.8142558E-001  0.1904253E+03  0.7546771E-02  0.1158078E+00
          1   -1    0    0  502    0  0.00000000000E+00  0.00000000000E+00  0.76670150607E+03  0.76670150607E+03  0.00000000000E+00 0.  1.
         -1   -1    0    0    0  501 -0.00000000000E+00 -0.00000000000E+00 -0.10117077222E+03  0.10117077222E+03  0.00000000000E+00 0. -1.
          6    1    1    2  502    0  0.75056065679E+02 -0.26445639626E+02  0.64942426261E+03  0.67676706311E+03  0.17300000000E+03 0.  1.
         -6    1    1    2    0  501 -0.75056065679E+02  0.26445639626E+02  0.16106471243E+02  0.19110521517E+03  0.17300000000E+03 0. -1.
<mgrwt>
<rscale>  2 0.19042527E+03</rscale>
<asrwt>0</asrwt>
<pdfrwt beam="1">  1        1 0.11795407E+00 0.19042527E+03</pdfrwt>
<pdfrwt beam="2">  1       -1 0.15564735E-01 0.19042527E+03</pdfrwt>
<totfact> 0.74989824E+02</totfact>
</mgrwt>
</event>
<event>
 4    1  0.8142558E-001  0.1772917E+03  0.7546771E-02  0.1170450E+00
         -1   -1    0    0    0  501 -0.00000000000E+00  0.00000000000E+00  0.65604069676E+02  0.65604069676E+02  0.00000000000E+00 0.  1.
          1   -1    0    0  502    0  0.00000000000E+00 -0.00000000000E+00 -0.50615325463E+03  0.50615325463E+03  0.00000000000E+00 0. -1.
          6    1    1    2  502    0  0.32804437632E+02  0.20669564751E+02 -0.15420939640E+03  0.23497425386E+03  0.17300000000E+03 0.  1.
         -6    1    1    2    0  501 -0.32804437632E+02 -0.20669564751E+02 -0.28633978855E+03  0.33678307045E+03  0.17300000000E+03 0. -1.
<mgrwt>
<rscale>  2 0.17729174E+03</rscale>
<asrwt>0</asrwt>
<pdfrwt beam="2">  1        1 0.77869731E-01 0.17729174E+03</pdfrwt>
<pdfrwt beam="1">  1       -1 0.10092934E-01 0.17729174E+03</pdfrwt>
<totfact> 0.26302589E+03</totfact>
</mgrwt>
</event>
<event>
 4    1  0.8142558E-001  0.1817125E+03  0.7546771E-02  0.1166156E+00
         -2   -1    0    0    0  501 -0.00000000000E+00  0.00000000000E+00  0.29576439815E+02  0.29576439815E+02  0.00000000000E+00 0.  1.
          2   -1    0    0  502    0  0.00000000000E+00 -0.00000000000E+00 -0.14942338046E+04  0.14942338046E+04  0.00000000000E+00 0. -1.
          6    1    1    2  502    0  0.13230948301E+02  0.53994275865E+02 -0.34920751800E+03  0.39365636086E+03  0.17300000000E+03 0.  1.
         -6    1    1    2    0  501 -0.13230948301E+02 -0.53994275865E+02 -0.11154498467E+04  0.11301538835E+04  0.17300000000E+03 0. -1.
<mgrwt>
<rscale>  2 0.18171252E+03</rscale>
<asrwt>0</asrwt>
<pdfrwt beam="2">  1        2 0.22988212E+00 0.18171252E+03</pdfrwt>
<pdfrwt beam="1">  1       -2 0.45502215E-02 0.18171252E+03</pdfrwt>
<totfact> 0.30985854E+03</totfact>
</mgrwt>
</event>
<event>
 4    1  0.8142558E-001  0.1743399E+03  0.7546771E-02  0.1173396E+00
         -2   -1    0    0    0  501 -0.00000000000E+00  0.00000000000E+00  0.25565420579E+02  0.25565420579E+02  0.00000000000E+00 0.  1.
          2   -1    0    0  502    0  0.00000000000E+00 -0.00000000000E+00 -0.11938269004E+04  0.11938269004E+04  0.00000000000E+00 0. -1.
          6    1    1    2  502    0  0.11244460247E+02  0.18410967516E+02 -0.54491209978E+03  0.57212201329E+03  0.17300000000E+03 0. -1.
         -6    1    1    2    0  501 -0.11244460247E+02 -0.18410967516E+02 -0.62334938007E+03  0.64727030771E+03  0.17300000000E+03 0. -1.
<mgrwt>
<rscale>  2 0.17433990E+03</rscale>
<asrwt>0</asrwt>
<pdfrwt beam="2">  1        2 0.18366565E+00 0.17433990E+03</pdfrwt>
<pdfrwt beam="1">  1       -2 0.39331423E-02 0.17433990E+03</pdfrwt>
<totfact> 0.56038002E+03</totfact>
</mgrwt>
</event>
<event>
 4    1  0.8142558E-001  0.3525590E+03  0.7546771E-02  0.1061570E+00
         -2   -1    0    0    0  501 -0.00000000000E+00  0.00000000000E+00  0.94503493716E+02  0.94503493716E+02  0.00000000000E+00 0. -1.
          2   -1    0    0  502    0  0.00000000000E+00 -0.00000000000E+00 -0.15016186360E+04  0.15016186360E+04  0.00000000000E+00 0.  1.
          6    1    1    2  502    0  0.28828433675E+03  0.10611788235E+03 -0.42242168806E+03  0.55021627231E+03  0.17300000000E+03 0. -1.
         -6    1    1    2    0  501 -0.28828433675E+03 -0.10611788235E+03 -0.98469345427E+03  0.10459058575E+04  0.17300000000E+03 0.  1.
<mgrwt>
<rscale>  2 0.35255902E+03</rscale>
<asrwt>0</asrwt>
<pdfrwt beam="2">  1        2 0.23101824E+00 0.35255902E+03</pdfrwt>
<pdfrwt beam="1">  1       -2 0.14539000E-01 0.35255902E+03</pdfrwt>
<totfact> 0.48826499E+02</totfact>
</mgrwt>
</event>
<event>
 4    1  0.8142558E-001  0.2262540E+03  0.7546771E-02  0.1129304E+00
          1   -1    0    0  502    0  0.00000000000E+00  0.00000000000E+00  0.19608600292E+04  0.19608600292E+04  0.00000000000E+00 0. -1.
         -1   -1    0    0    0  501 -0.00000000000E+00 -0.00000000000E+00 -0.26293203146E+02  0.26293203146E+02  0.00000000000E+00 0.  1.
          6    1    1    2  502    0  0.70169495183E+02 -0.12782064794E+03  0.10510446218E+04  0.10751212365E+04  0.17300000000E+03 0. -1.
         -6    1    1    2    0  501 -0.70169495183E+02  0.12782064794E+03  0.88352220427E+03  0.91203199589E+03  0.17300000000E+03 0. -1.
<mgrwt>
<rscale>  2 0.22625401E+03</rscale>
<asrwt>0</asrwt>
<pdfrwt beam="1">  1        1 0.30167066E+00 0.22625401E+03</pdfrwt>
<pdfrwt beam="2">  1       -1 0.40451097E-02 0.22625401E+03</pdfrwt>
<totfact> 0.86896228E+02</totfact>
</mgrwt>
</event>
<event>
 4    1  0.8142558E-001  0.1931063E+03  0.7546771E-02  0.1155689E+00
         -2   -1    0    0    0  501 -0.00000000000E+00  0.00000000000E+00  0.31594328587E+02  0.31594328587E+02  0.00000000000E+00 0. -1.
          2   -1    0    0  502    0  0.00000000000E+00 -0.00000000000E+00 -0.12120376531E+04  0.12120376531E+04  0.00000000000E+00 0.  1.
          6    1    1    2  502    0  0.84452566846E+02 -0.15126165196E+02 -0.48956247979E+03  0.52627127847E+03  0.17300000000E+03 0. -1.
         -6    1    1    2    0  501 -0.84452566846E+02  0.15126165196E+02 -0.69088084474E+03  0.71736070324E+03  0.17300000000E+03 0. -1.
<mgrwt>
<rscale>  2 0.19310628E+03</rscale>
<asrwt>0</asrwt>
<pdfrwt beam="2">  1        2 0.18646736E+00 0.19310628E+03</pdfrwt>
<pdfrwt beam="1">  1       -2 0.48606652E-02 0.19310628E+03</pdfrwt>
<totfact> 0.39920470E+03</totfact>
</mgrwt>
</event>
<event>
 4    1  0.8142558E-001  0.2857904E+03  0.7546771E-02  0.1092568E+00
         -2   -1    0    0    0  501 -0.00000000000E+00  0.00000000000E+00  0.60272022973E+03  0.60272022973E+03  0.00000000000E+00 0.  1.
          2   -1    0    0  502    0  0.00000000000E+00 -0.00000000000E+00 -0.13667998150E+03  0.13667998150E+03  0.00000000000E+00 0. -1.
          6    1    1    2  502    0  0.10331015621E+03  0.20266761930E+03  0.19885258166E+03  0.34816447481E+03  0.17300000000E+03 0.  1.
         -6    1    1    2    0  501 -0.10331015621E+03 -0.20266761930E+03  0.26718766656E+03  0.39123573642E+03  0.17300000000E+03 0.  1.
<mgrwt>
<rscale>  2 0.28579040E+03</rscale>
<asrwt>0</asrwt>
<pdfrwt beam="2">  1        2 0.21027690E-01 0.28579040E+03</pdfrwt>
<pdfrwt beam="1">  1       -2 0.92726188E-01 0.28579040E+03</pdfrwt>
<totfact> 0.26858185E+02</totfact>
</mgrwt>
</event>
<event>
 4    1  0.8142558E-001  0.2977624E+03  0.7546771E-02  0.1086365E+00
         -2   -1    0    0    0  501 -0.00000000000E+00  0.00000000000E+00  0.18235030044E+03  0.18235030044E+03  0.00000000000E+00 0. -1.
          2   -1    0    0  502    0  0.00000000000E+00 -0.00000000000E+00 -0.49034104117E+03  0.49034104117E+03  0.00000000000E+00 0.  1.
          6    1    1    2  502    0 -0.14018122264E+03  0.19769341813E+03 -0.18482805867E+03  0.35046237176E+03  0.17300000000E+03 0. -1.
         -6    1    1    2    0  501  0.14018122264E+03 -0.19769341813E+03 -0.12316268206E+03  0.32222896984E+03  0.17300000000E+03 0.  1.
<mgrwt>
<rscale>  2 0.29776243E+03</rscale>
<asrwt>0</asrwt>
<pdfrwt beam="2">  1        2 0.75437083E-01 0.29776243E+03</pdfrwt>
<pdfrwt beam="1">  1       -2 0.28053892E-01 0.29776243E+03</pdfrwt>
<totfact> 0.73775985E+02</totfact>
</mgrwt>
</event>
<event>
 4    1  0.8142558E-001  0.1903318E+03  0.7546771E-02  0.1158162E+00
         -1   -1    0    0    0  501 -0.00000000000E+00  0.00000000000E+00  0.12907749446E+04  0.12907749446E+04  0.00000000000E+00 0. -1.
          1   -1    0    0  502    0  0.00000000000E+00 -0.00000000000E+00 -0.28583639688E+02  0.28583639688E+02  0.00000000000E+00 0.  1.
          6    1    1    2  502    0  0.42638401934E+02 -0.66926635146E+02  0.71991535892E+03  0.74465047627E+03  0.17300000000E+03 0. -1.
         -6    1    1    2    0  501 -0.42638401934E+02  0.66926635146E+02  0.54227594600E+03  0.57470810802E+03  0.17300000000E+03 0.  1.
<mgrwt>
<rscale>  2 0.19033184E+03</rscale>
<asrwt>0</asrwt>
<pdfrwt beam="2">  1        1 0.43974840E-02 0.19033184E+03</pdfrwt>
<pdfrwt beam="1">  1       -1 0.19858072E+00 0.19033184E+03</pdfrwt>
<totfact> 0.34027097E+02</totfact>
</mgrwt>
</event>
<event>
 4    1  0.8142558E-001  0.2268779E+03  0.7546771E-02  0.1128857E+00
          2   -1    0    0  502    0  0.00000000000E+00  0.00000000000E+00  0.84743646487E+02  0.84743646487E+02  0.00000000000E+00 0.  1.
         -2   -1    0    0    0  501 -0.00000000000E+00 -0.00000000000E+00 -0.65403823854E+03  0.65403823854E+03  0.00000000000E+00 0. -1.
          6    1    1    2  502    0  0.27404151830E+02  0.14419987878E+03 -0.18601045268E+03  0.29338282343E+03  0.17300000000E+03 0.  1.
         -6    1    1    2    0  501 -0.27404151830E+02 -0.14419987878E+03 -0.38328413937E+03  0.44539906160E+03  0.17300000000E+03 0. -1.
<mgrwt>
<rscale>  2 0.22687792E+03</rscale>
<asrwt>0</asrwt>
<pdfrwt beam="1">  1        2 0.13037484E-01 0.22687792E+03</pdfrwt>
<pdfrwt beam="2">  1       -2 0.10062127E+00 0.22687792E+03</pdfrwt>
<totfact> 0.39007949E+02</totfact>
</mgrwt>
</event>
<event>
 4    1  0.8142558E-001  0.2186265E+03  0.7546771E-02  0.1134911E+00
         -1   -1    0    0    0  501 -0.00000000000E+00  0.00000000000E+00  0.13239667523E+03  0.13239667523E+03  0.00000000000E+00 0.  1.
          1   -1    0    0  502    0  0.00000000000E+00 -0.00000000000E+00 -0.36503861616E+03  0.36503861616E+03  0.00000000000E+00 0. -1.
          6    1    1    2  502    0 -0.92145904522E+02  0.96838431948E+02 -0.90217570748E+02  0.23650953404E+03  0.17300000000E+03 0. -1.
         -6    1    1    2    0  501  0.92145904522E+02 -0.96838431948E+02 -0.14242437018E+03  0.26092575734E+03  0.17300000000E+03 0.  1.
<mgrwt>
<rscale>  2 0.21862651E+03</rscale>
<asrwt>0</asrwt>
<pdfrwt beam="2">  1        1 0.56159786E-01 0.21862651E+03</pdfrwt>
<pdfrwt beam="1">  1       -1 0.20368720E-01 0.21862651E+03</pdfrwt>
<totfact> 0.13303025E+03</totfact>
</mgrwt>
</event>
<event>
 4    1  0.8142558E-001  0.1854295E+03  0.7546771E-02  0.1162649E+00
          2   -1    0    0  502    0  0.00000000000E+00  0.00000000000E+00  0.12143640736E+04  0.12143640736E+04  0.00000000000E+00 0. -1.
         -2   -1    0    0    0  501 -0.00000000000E+00 -0.00000000000E+00 -0.31924613293E+02  0.31924613293E+02  0.00000000000E+00 0.  1.
          6    1    1    2  502    0  0.58374542357E+02 -0.32365327514E+02  0.38167017539E+03  0.42433032463E+03  0.17300000000E+03 0.  1.
         -6    1    1    2    0  501 -0.58374542357E+02  0.32365327514E+02  0.80076928489E+03  0.82195836223E+03  0.17300000000E+03 0. -1.
<mgrwt>
<rscale>  2 0.18542951E+03</rscale>
<asrwt>0</asrwt>
<pdfrwt beam="1">  1        2 0.18682521E+00 0.18542951E+03</pdfrwt>
<pdfrwt beam="2">  1       -2 0.49114799E-02 0.18542951E+03</pdfrwt>
<totfact> 0.39147100E+03</totfact>
</mgrwt>
</event>
<event>
 4    1  0.8142558E-001  0.1955751E+03  0.7546771E-02  0.1153527E+00
          2   -1    0    0  502    0  0.00000000000E+00  0.00000000000E+00  0.62568473004E+03  0.62568473004E+03  0.00000000000E+00 0.  1.
         -2   -1    0    0    0  501 -0.00000000000E+00 -0.00000000000E+00 -0.62464368141E+02  0.62464368141E+02  0.00000000000E+00 0. -1.
          6    1    1    2  502    0 -0.88751826833E+02  0.21064585080E+02  0.23136611554E+03  0.30295194822E+03  0.17300000000E+03 0.  1.
         -6    1    1    2    0  501  0.88751826833E+02 -0.21064585080E+02  0.33185424636E+03  0.38519714996E+03  0.17300000000E+03 0. -1.
<mgrwt>
<rscale>  2 0.19557506E+03</rscale>
<asrwt>0</asrwt>
<pdfrwt beam="1">  1        2 0.96259185E-01 0.19557506E+03</pdfrwt>
<pdfrwt beam="2">  1       -2 0.96099032E-02 0.19557506E+03</pdfrwt>
<totfact> 0.33530954E+03</totfact>
</mgrwt>
</event>
<event>
 4    1  0.8142558E-001  0.2335200E+03  0.7546771E-02  0.1124186E+00
          3   -1    0    0  502    0  0.00000000000E+00  0.00000000000E+00  0.82514490999E+03  0.82514490999E+03  0.00000000000E+00 0. -1.
         -3   -1    0    0    0  501 -0.00000000000E+00 -0.00000000000E+00 -0.88272982082E+02  0.88272982082E+02  0.00000000000E+00 0.  1.
          6    1    1    2  502    0  0.34925033877E+02  0.15291453056E+03  0.59739714920E+03  0.64141637453E+03  0.17300000000E+03 0. -1.
         -6    1    1    2    0  501 -0.34925033877E+02 -0.15291453056E+03  0.13947477871E+03  0.27200151754E+03  0.17300000000E+03 0.  1.
<mgrwt>
<rscale>  2 0.23352005E+03</rscale>
<asrwt>0</asrwt>
<pdfrwt beam="1">  1        3 0.12694537E+00 0.23352005E+03</pdfrwt>
<pdfrwt beam="2">  1       -3 0.13580459E-01 0.23352005E+03</pdfrwt>
<totfact> 0.56357221E+01</totfact>
</mgrwt>
</event>
<event>
 4    1  0.8142558E-001  0.2401210E+03  0.7546771E-02  0.1119712E+00
         -2   -1    0    0    0  501 -0.00000000000E+00  0.00000000000E+00  0.64783056152E+02  0.64783056152E+02  0.00000000000E+00 0.  1.
          2   -1    0    0  502    0  0.00000000000E+00 -0.00000000000E+00 -0.89092956270E+03  0.89092956270E+03  0.00000000000E+00 0. -1.
          6    1    1    2  502    0  0.34013246404E+02  0.16300983072E+03 -0.42835581614E+03  0.49106701281E+03  0.17300000000E+03 0.  1.
         -6    1    1    2    0  501 -0.34013246404E+02 -0.16300983072E+03 -0.39779069041E+03  0.46464560605E+03  0.17300000000E+03 0. -1.
<mgrwt>
<rscale>  2 0.24012102E+03</rscale>
<asrwt>0</asrwt>
<pdfrwt beam="2">  1        2 0.13706608E+00 0.24012102E+03</pdfrwt>
<pdfrwt beam="1">  1       -2 0.99666248E-02 0.24012102E+03</pdfrwt>
<totfact> 0.20503351E+03</totfact>
</mgrwt>
</event>
<event>
 4    1  0.8142558E-001  0.1816420E+03  0.7546771E-02  0.1166223E+00
          2   -1    0    0  502    0  0.00000000000E+00  0.00000000000E+00  0.85039255573E+03  0.85039255573E+03  0.00000000000E+00 0. -1.
         -2   -1    0    0    0  501 -0.00000000000E+00 -0.00000000000E+00 -0.41669388112E+02  0.41669388112E+02  0.00000000000E+00 0.  1.
          6    1    1    2  502    0  0.44910911829E+02  0.32369885191E+02  0.28728272712E+03  0.33988993037E+03  0.17300000000E+03 0.  1.
         -6    1    1    2    0  501 -0.44910911829E+02 -0.32369885191E+02  0.52144044050E+03  0.55217201347E+03  0.17300000000E+03 0.  1.
<mgrwt>
<rscale>  2 0.18164195E+03</rscale>
<asrwt>0</asrwt>
<pdfrwt beam="1">  1        2 0.13082961E+00 0.18164195E+03</pdfrwt>
<pdfrwt beam="2">  1       -2 0.64106757E-02 0.18164195E+03</pdfrwt>
<totfact> 0.43144156E+03</totfact>
</mgrwt>
</event>
<event>
 4    1  0.8142558E-001  0.1886352E+03  0.7546771E-02  0.1159698E+00
          2   -1    0    0  502    0  0.00000000000E+00  0.00000000000E+00  0.17855086768E+04  0.17855086768E+04  0.00000000000E+00 0. -1.
         -2   -1    0    0    0  501 -0.00000000000E+00 -0.00000000000E+00 -0.23459276714E+02  0.23459276714E+02  0.00000000000E+00 0.  1.
          6    1    1    2  502    0 -0.42169967033E+00  0.75193551974E+02  0.53014902661E+03  0.56270883991E+03  0.17300000000E+03 0.  1.
         -6    1    1    2    0  501  0.42169967033E+00 -0.75193551974E+02  0.12319003735E+04  0.12462591136E+04  0.17300000000E+03 0. -1.
<mgrwt>
<rscale>  2 0.18863522E+03</rscale>
<asrwt>0</asrwt>
<pdfrwt beam="1">  1        2 0.27469354E+00 0.18863522E+03</pdfrwt>
<pdfrwt beam="2">  1       -2 0.36091209E-02 0.18863522E+03</pdfrwt>
<totfact> 0.30907567E+03</totfact>
</mgrwt>
</event>
<event>
 4    1  0.8142558E-001  0.1956711E+03  0.7546771E-02  0.1153444E+00
         -2   -1    0    0    0  501 -0.00000000000E+00  0.00000000000E+00  0.80681688845E+02  0.80681688845E+02  0.00000000000E+00 0. -1.
          2   -1    0    0  502    0  0.00000000000E+00 -0.00000000000E+00 -0.19851056741E+04  0.19851056741E+04  0.00000000000E+00 0.  1.
          6    1    1    2  502    0 -0.91420544684E+02 -0.67389810509E+00 -0.51195473697E+02  0.20225762447E+03  0.17300000000E+03 0. -1.
         -6    1    1    2    0  501  0.91420544684E+02  0.67389810509E+00 -0.18532285116E+04  0.18635297385E+04  0.17300000000E+03 0.  1.
<mgrwt>
<rscale>  2 0.19567108E+03</rscale>
<asrwt>0</asrwt>
<pdfrwt beam="2">  1        2 0.30540087E+00 0.19567108E+03</pdfrwt>
<pdfrwt beam="1">  1       -2 0.12412567E-01 0.19567108E+03</pdfrwt>
<totfact> 0.36134558E+02</totfact>
</mgrwt>
</event>
<event>
 4    1  0.8142558E-001  0.1776991E+03  0.7546771E-02  0.1170049E+00
         -1   -1    0    0    0  501 -0.00000000000E+00  0.00000000000E+00  0.58437373211E+03  0.58437373211E+03  0.00000000000E+00 0.  1.
          1   -1    0    0  502    0  0.00000000000E+00 -0.00000000000E+00 -0.54055125652E+02  0.54055125652E+02  0.00000000000E+00 0. -1.
          6    1    1    2  502    0 -0.20814561030E+02 -0.34853069029E+02  0.25909164084E+03  0.31417425217E+03  0.17300000000E+03 0.  1.
         -6    1    1    2    0  501  0.20814561030E+02  0.34853069029E+02  0.27122696562E+03  0.32425460560E+03  0.17300000000E+03 0.  1.
<mgrwt>
<rscale>  2 0.17769913E+03</rscale>
<asrwt>0</asrwt>
<pdfrwt beam="2">  1        1 0.83161736E-02 0.17769913E+03</pdfrwt>
<pdfrwt beam="1">  1       -1 0.89903647E-01 0.17769913E+03</pdfrwt>
<totfact> 0.10404407E+03</totfact>
</mgrwt>
</event>
<event>
 4    1  0.8142558E-001  0.1732433E+03  0.7546771E-02  0.1174507E+00
          3   -1    0    0  502    0  0.00000000000E+00  0.00000000000E+00  0.13903202999E+03  0.13903202999E+03  0.00000000000E+00 0.  1.
         -3   -1    0    0    0  501 -0.00000000000E+00 -0.00000000000E+00 -0.26467347943E+03  0.26467347943E+03  0.00000000000E+00 0. -1.
          6    1    1    2  502    0 -0.76710316146E+01 -0.50406007605E+01  0.23853866210E+02  0.17487784112E+03  0.17300000000E+03 0.  1.
         -6    1    1    2    0  501  0.76710316146E+01  0.50406007605E+01 -0.14949531565E+03  0.22882766831E+03  0.17300000000E+03 0. -1.
<mgrwt>
<rscale>  2 0.17324333E+03</rscale>
<asrwt>0</asrwt>
<pdfrwt beam="1">  1        3 0.21389543E-01 0.17324333E+03</pdfrwt>
<pdfrwt beam="2">  1       -3 0.40718996E-01 0.17324333E+03</pdfrwt>
<totfact> 0.28688065E+02</totfact>
</mgrwt>
</event>
<event>
 4    1  0.8142558E-001  0.2071741E+03  0.7546771E-02  0.1143824E+00
          2   -1    0    0  502    0  0.00000000000E+00  0.00000000000E+00  0.12651666768E+03  0.12651666768E+03  0.00000000000E+00 0. -1.
         -2   -1    0    0    0  501 -0.00000000000E+00 -0.00000000000E+00 -0.34586292975E+03  0.34586292975E+03  0.00000000000E+00 0.  1.
          6    1    1    2  502    0 -0.61405734742E+02  0.96028427671E+02 -0.77020598850E+02  0.22102781686E+03  0.17300000000E+03 0. -1.
         -6    1    1    2    0  501  0.61405734742E+02 -0.96028427671E+02 -0.14232566322E+03  0.25135178056E+03  0.17300000000E+03 0.  1.
<mgrwt>
<rscale>  2 0.20717414E+03</rscale>
<asrwt>0</asrwt>
<pdfrwt beam="1">  1        2 0.19464103E-01 0.20717414E+03</pdfrwt>
<pdfrwt beam="2">  1       -2 0.53209681E-01 0.20717414E+03</pdfrwt>
<totfact> 0.96512125E+02</totfact>
</mgrwt>
</event>
<event>
 4    1  0.8142558E-001  0.2034809E+03  0.7546771E-02  0.1146835E+00
         -1   -1    0    0    0  501 -0.00000000000E+00  0.00000000000E+00  0.49712030173E+03  0.49712030173E+03  0.00000000000E+00 0.  1.
          1   -1    0    0  502    0  0.00000000000E+00 -0.00000000000E+00 -0.96651052025E+02  0.96651052025E+02  0.00000000000E+00 0. -1.
          6    1    1    2  502    0 -0.13976898237E+02  0.10620792676E+03  0.89844997679E+02  0.22243336305E+03  0.17300000000E+03 0.  1.
         -6    1    1    2    0  501  0.13976898237E+02 -0.10620792676E+03  0.31062425203E+03  0.37133799070E+03  0.17300000000E+03 0. -1.
<mgrwt>
<rscale>  2 0.20348090E+03</rscale>
<asrwt>0</asrwt>
<pdfrwt beam="2">  1        1 0.14869393E-01 0.20348090E+03</pdfrwt>
<pdfrwt beam="1">  1       -1 0.76480045E-01 0.20348090E+03</pdfrwt>
<totfact> 0.67446489E+02</totfact>
</mgrwt>
</event>
<event>
 4    1  0.8142558E-001  0.1977018E+03  0.7546771E-02  0.1151693E+00
         -2   -1    0    0    0  501 -0.00000000000E+00  0.00000000000E+00  0.98955147319E+02  0.98955147319E+02  0.00000000000E+00 0. -1.
          2   -1    0    0  502    0  0.00000000000E+00 -0.00000000000E+00 -0.40267375194E+03  0.40267375194E+03  0.00000000000E+00 0.  1.
          6    1    1    2  502    0 -0.68561604012E+02 -0.66755612929E+02 -0.11720598127E+03  0.22983308606E+03  0.17300000000E+03 0.  1.
         -6    1    1    2    0  501  0.68561604012E+02  0.66755612929E+02 -0.18651262335E+03  0.27179581320E+03  0.17300000000E+03 0. -1.
<mgrwt>
<rscale>  2 0.19770181E+03</rscale>
<asrwt>0</asrwt>
<pdfrwt beam="2">  1        2 0.61949807E-01 0.19770181E+03</pdfrwt>
<pdfrwt beam="1">  1       -2 0.15223869E-01 0.19770181E+03</pdfrwt>
<totfact> 0.26131622E+03</totfact>
</mgrwt>
</event>
<event>
 4    1  0.8142558E-001  0.2244478E+03  0.7546771E-02  0.1130610E+00
         -1   -1    0    0    0  501 -0.00000000000E+00  0.00000000000E+00  0.85424499937E+02  0.85424499937E+02  0.00000000000E+00 0.  1.
          1   -1    0    0  502    0  0.00000000000E+00 -0.00000000000E+00 -0.66728464363E+03  0.66728464363E+03  0.00000000000E+00 0. -1.
          6    1    1    2  502    0  0.85727533817E+02  0.11444915719E+03 -0.16261896855E+03  0.27716736563E+03  0.17300000000E+03 0.  1.
         -6    1    1    2    0  501 -0.85727533817E+02 -0.11444915719E+03 -0.41924117514E+03  0.47554177794E+03  0.17300000000E+03 0. -1.
<mgrwt>
<rscale>  2 0.22444781E+03</rscale>
<asrwt>0</asrwt>
<pdfrwt beam="2">  1        1 0.10265918E+00 0.22444781E+03</pdfrwt>
<pdfrwt beam="1">  1       -1 0.13142230E-01 0.22444781E+03</pdfrwt>
<totfact> 0.11997895E+03</totfact>
</mgrwt>
</event>
<event>
 4    1  0.8142558E-001  0.1817348E+03  0.7546771E-02  0.1166135E+00
         -4   -1    0    0    0  501 -0.00000000000E+00  0.00000000000E+00  0.83871473921E+03  0.83871473921E+03  0.00000000000E+00 0. -1.
          4   -1    0    0  502    0  0.00000000000E+00 -0.00000000000E+00 -0.47762785074E+02  0.47762785074E+02  0.00000000000E+00 0.  1.
          6    1    1    2  502    0 -0.52601340640E+02  0.18211184442E+02  0.58117907081E+03  0.60893075191E+03  0.17300000000E+03 0. -1.
         -6    1    1    2    0  501  0.52601340640E+02 -0.18211184442E+02  0.20977288333E+03  0.27754677238E+03  0.17300000000E+03 0.  1.
<mgrwt>
<rscale>  2 0.18173483E+03</rscale>
<asrwt>0</asrwt>
<pdfrwt beam="2">  1        4 0.73481214E-02 0.18173483E+03</pdfrwt>
<pdfrwt beam="1">  1       -4 0.12903303E+00 0.18173483E+03</pdfrwt>
<totfact> 0.10362223E+02</totfact>
</mgrwt>
</event>
<event>
 4    1  0.8142558E-001  0.2061172E+03  0.7546771E-02  0.1144678E+00
          2   -1    0    0  502    0  0.00000000000E+00  0.00000000000E+00  0.12900875471E+04  0.12900875471E+04  0.00000000000E+00 0. -1.
         -2   -1    0    0    0  501 -0.00000000000E+00 -0.00000000000E+00 -0.43576302243E+02  0.43576302243E+02  0.00000000000E+00 0.  1.
          6    1    1    2  502    0 -0.68791440242E+02 -0.88447974264E+02  0.29367373094E+03  0.35878763447E+03  0.17300000000E+03 0.  1.
         -6    1    1    2    0  501  0.68791440242E+02  0.88447974264E+02  0.95283751390E+03  0.97487621485E+03  0.17300000000E+03 0. -1.
<mgrwt>
<rscale>  2 0.20611722E+03</rscale>
<asrwt>0</asrwt>
<pdfrwt beam="1">  1        2 0.19847498E+00 0.20611722E+03</pdfrwt>
<pdfrwt beam="2">  1       -2 0.67040475E-02 0.20611722E+03</pdfrwt>
<totfact> 0.22133523E+03</totfact>
</mgrwt>
</event>
<event>
 4    1  0.8142558E-001  0.2822837E+03  0.7546771E-02  0.1094448E+00
         -2   -1    0    0    0  501 -0.00000000000E+00  0.00000000000E+00  0.37320529470E+03  0.37320529470E+03  0.00000000000E+00 0.  1.
          2   -1    0    0  502    0  0.00000000000E+00 -0.00000000000E+00 -0.10999411571E+04  0.10999411571E+04  0.00000000000E+00 0. -1.
          6    1    1    2  502    0 -0.42975314080E+02 -0.21887941582E+03  0.29786282044E+03  0.41037341056E+03  0.17300000000E+03 0.  1.
         -6    1    1    2    0  501  0.42975314080E+02  0.21887941582E+03 -0.10245986828E+04  0.10627730412E+04  0.17300000000E+03 0. -1.
<mgrwt>
<rscale>  2 0.28228368E+03</rscale>
<asrwt>0</asrwt>
<pdfrwt beam="2">  1        2 0.16922171E+00 0.28228368E+03</pdfrwt>
<pdfrwt beam="1">  1       -2 0.57416200E-01 0.28228368E+03</pdfrwt>
<totfact> 0.66986190E+01</totfact>
</mgrwt>
</event>
<event>
 4    1  0.8142558E-001  0.1776511E+03  0.7546771E-02  0.1170096E+00
          1   -1    0    0  502    0  0.00000000000E+00  0.00000000000E+00  0.20544780215E+04  0.20544780215E+04  0.00000000000E+00 0. -1.
         -1   -1    0    0    0  501 -0.00000000000E+00 -0.00000000000E+00 -0.18534432612E+02  0.18534432612E+02  0.00000000000E+00 0.  1.
          6    1    1    2  502    0 -0.32505952603E+02  0.23964043271E+02  0.58911619346E+03  0.61531926812E+03  0.17300000000E+03 0.  1.
         -6    1    1    2    0  501  0.32505952603E+02 -0.23964043271E+02  0.14468273954E+04  0.14576931860E+04  0.17300000000E+03 0. -1.
<mgrwt>
<rscale>  2 0.17765110E+03</rscale>
<asrwt>0</asrwt>
<pdfrwt beam="1">  1        1 0.31607336E+00 0.17765110E+03</pdfrwt>
<pdfrwt beam="2">  1       -1 0.28514528E-02 0.17765110E+03</pdfrwt>
<totfact> 0.12736315E+03</totfact>
</mgrwt>
</event>
<event>
 4    1  0.8142558E-001  0.2885760E+03  0.7546771E-02  0.1091095E+00
         -2   -1    0    0    0  501 -0.00000000000E+00  0.00000000000E+00  0.63102904925E+02  0.63102904925E+02  0.00000000000E+00 0.  1.
          2   -1    0    0  502    0  0.00000000000E+00 -0.00000000000E+00 -0.14324439096E+04  0.14324439096E+04  0.00000000000E+00 0. -1.
          6    1    1    2  502    0  0.21852286587E+03  0.74798931515E+02 -0.47487239199E+03  0.55567968448E+03  0.17300000000E+03 0.  1.
         -6    1    1    2    0  501 -0.21852286587E+03 -0.74798931515E+02 -0.89446861266E+03  0.93986713002E+03  0.17300000000E+03 0. -1.
<mgrwt>
<rscale>  2 0.28857603E+03</rscale>
<asrwt>0</asrwt>
<pdfrwt beam="2">  1        2 0.22037597E+00 0.28857603E+03</pdfrwt>
<pdfrwt beam="1">  1       -2 0.97081399E-02 0.28857603E+03</pdfrwt>
<totfact> 0.10329366E+03</totfact>
</mgrwt>
</event>
<event>
 4    1  0.8142558E-001  0.1769153E+03  0.7546771E-02  0.1170822E+00
          2   -1    0    0  502    0  0.00000000000E+00  0.00000000000E+00  0.27252374456E+04  0.27252374456E+04  0.00000000000E+00 0.  1.
         -2   -1    0    0    0  501 -0.00000000000E+00 -0.00000000000E+00 -0.11492737883E+02  0.11492737883E+02  0.00000000000E+00 0. -1.
          6    1    1    2  502    0 -0.22253509225E+02 -0.29577097239E+02  0.13926539775E+04  0.14038461897E+04  0.17300000000E+03 0. -1.
         -6    1    1    2    0  501  0.22253509225E+02  0.29577097239E+02  0.13210907302E+04  0.13328839938E+04  0.17300000000E+03 0.  1.
<mgrwt>
<rscale>  2 0.17691530E+03</rscale>
<asrwt>0</asrwt>
<pdfrwt beam="1">  1        2 0.41926678E+00 0.17691530E+03</pdfrwt>
<pdfrwt beam="2">  1       -2 0.17681157E-02 0.17691530E+03</pdfrwt>
<totfact> 0.28095057E+03</totfact>
</mgrwt>
</event>
<event>
 4    1  0.8142558E-001  0.2424355E+03  0.7546771E-02  0.1118181E+00
          2   -1    0    0  502    0  0.00000000000E+00  0.00000000000E+00  0.90115522834E+03  0.90115522834E+03  0.00000000000E+00 0. -1.
         -2   -1    0    0    0  501 -0.00000000000E+00 -0.00000000000E+00 -0.10527845945E+03  0.10527845945E+03  0.00000000000E+00 0.  1.
          6    1    1    2  502    0  0.11573901468E+03 -0.12429988048E+03  0.70833908334E+03  0.74867832664E+03  0.17300000000E+03 0. -1.
         -6    1    1    2    0  501 -0.11573901468E+03  0.12429988048E+03  0.87537685561E+02  0.25775536115E+03  0.17300000000E+03 0. -1.
<mgrwt>
<rscale>  2 0.24243552E+03</rscale>
<asrwt>0</asrwt>
<pdfrwt beam="1">  1        2 0.13863926E+00 0.24243552E+03</pdfrwt>
<pdfrwt beam="2">  1       -2 0.16196687E-01 0.24243552E+03</pdfrwt>
<totfact> 0.91595858E+02</totfact>
</mgrwt>
</event>
<event>
 4    1  0.8142558E-001  0.1777192E+03  0.7546771E-02  0.1170029E+00
         -2   -1    0    0    0  501 -0.00000000000E+00  0.00000000000E+00  0.90233659585E+02  0.90233659585E+02  0.00000000000E+00 0. -1.
          2   -1    0    0  502    0  0.00000000000E+00 -0.00000000000E+00 -0.42206998461E+03  0.42206998461E+03  0.00000000000E+00 0.  1.
          6    1    1    2  502    0 -0.39595147800E+02 -0.93447609224E+01 -0.60089095446E+02  0.18760277098E+03  0.17300000000E+03 0. -1.
         -6    1    1    2    0  501  0.39595147800E+02  0.93447609224E+01 -0.27174722958E+03  0.32470087322E+03  0.17300000000E+03 0. -1.
<mgrwt>
<rscale>  2 0.17771916E+03</rscale>
<asrwt>0</asrwt>
<pdfrwt beam="2">  1        2 0.64933846E-01 0.17771916E+03</pdfrwt>
<pdfrwt beam="1">  1       -2 0.13882101E-01 0.17771916E+03</pdfrwt>
<totfact> 0.28786201E+03</totfact>
</mgrwt>
</event>
<event>
 4    1  0.8142558E-001  0.1861857E+03  0.7546771E-02  0.1161947E+00
         -1   -1    0    0    0  501 -0.00000000000E+00  0.00000000000E+00  0.22940259776E+02  0.22940259776E+02  0.00000000000E+00 0. -1.
          1   -1    0    0  502    0  0.00000000000E+00 -0.00000000000E+00 -0.15111385986E+04  0.15111385986E+04  0.00000000000E+00 0.  1.
          6    1    1    2  502    0  0.34170123483E+02 -0.59736989568E+02 -0.74779945782E+03  0.77062905109E+03  0.17300000000E+03 0.  1.
         -6    1    1    2    0  501 -0.34170123483E+02  0.59736989568E+02 -0.74039888102E+03  0.76344980731E+03  0.17300000000E+03 0. -1.
<mgrwt>
<rscale>  2 0.18618567E+03</rscale>
<asrwt>0</asrwt>
<pdfrwt beam="2">  1        1 0.23248283E+00 0.18618567E+03</pdfrwt>
<pdfrwt beam="1">  1       -1 0.35292712E-02 0.18618567E+03</pdfrwt>
<totfact> 0.20847831E+03</totfact>
</mgrwt>
</event>
<event>
 4    1  0.8142558E-001  0.1737789E+03  0.7546771E-02  0.1173963E+00
          1   -1    0    0  502    0  0.00000000000E+00  0.00000000000E+00  0.10935514111E+04  0.10935514111E+04  0.00000000000E+00 0.  1.
         -1   -1    0    0    0  501 -0.00000000000E+00 -0.00000000000E+00 -0.31866638163E+02  0.31866638163E+02  0.00000000000E+00 0. -1.
          6    1    1    2  502    0 -0.10460490931E+02 -0.12676128755E+02  0.32531866231E+03  0.36882426460E+03  0.17300000000E+03 0. -1.
         -6    1    1    2    0  501  0.10460490931E+02  0.12676128755E+02  0.73636611060E+03  0.75659378464E+03  0.17300000000E+03 0.  1.
<mgrwt>
<rscale>  2 0.17377890E+03</rscale>
<asrwt>0</asrwt>
<pdfrwt beam="1">  1        1 0.16823865E+00 0.17377890E+03</pdfrwt>
<pdfrwt beam="2">  1       -1 0.49025605E-02 0.17377890E+03</pdfrwt>
<totfact> 0.24578034E+03</totfact>
</mgrwt>
</event>
<event>
 4    1  0.8142558E-001  0.2140798E+03  0.7546771E-02  0.1138375E+00
          1   -1    0    0  502    0  0.00000000000E+00  0.00000000000E+00  0.77112080893E+03  0.77112080893E+03  0.00000000000E+00 0. -1.
         -1   -1    0    0    0  501 -0.00000000000E+00 -0.00000000000E+00 -0.80624873692E+02  0.80624873692E+02  0.00000000000E+00 0.  1.
          6    1    1    2  502    0  0.78634904561E+02 -0.98578446663E+02  0.12691048345E+03  0.24887030593E+03  0.17300000000E+03 0.  1.
         -6    1    1    2    0  501 -0.78634904561E+02  0.98578446663E+02  0.56358545179E+03  0.60287537670E+03  0.17300000000E+03 0. -1.
<mgrwt>
<rscale>  2 0.21407979E+03</rscale>
<asrwt>0</asrwt>
<pdfrwt beam="1">  1        1 0.11863397E+00 0.21407979E+03</pdfrwt>
<pdfrwt beam="2">  1       -1 0.12403827E-01 0.21407979E+03</pdfrwt>
<totfact> 0.10621850E+03</totfact>
</mgrwt>
</event>
<event>
 4    1  0.8142558E-001  0.2961993E+03  0.7546771E-02  0.1087156E+00
         -2   -1    0    0    0  501 -0.00000000000E+00  0.00000000000E+00  0.59080928419E+03  0.59080928419E+03  0.00000000000E+00 0.  1.
          2   -1    0    0  502    0  0.00000000000E+00 -0.00000000000E+00 -0.15091314749E+03  0.15091314749E+03  0.00000000000E+00 0. -1.
          6    1    1    2  502    0  0.23827566268E+03 -0.32089526893E+02  0.26686340388E+03  0.39868547189E+03  0.17300000000E+03 0. -1.
         -6    1    1    2    0  501 -0.23827566268E+03  0.32089526893E+02  0.17303273282E+03  0.34303695980E+03  0.17300000000E+03 0.  1.
<mgrwt>
<rscale>  2 0.29619931E+03</rscale>
<asrwt>0</asrwt>
<pdfrwt beam="2">  1        2 0.23217408E-01 0.29619931E+03</pdfrwt>
<pdfrwt beam="1">  1       -2 0.90893735E-01 0.29619931E+03</pdfrwt>
<totfact> 0.25101214E+02</totfact>
</mgrwt>
</event>
<event>
 4    1  0.8142558E-001  0.4198095E+03  0.7546771E-02  0.1037128E+00
         -2   -1    0    0    0  501 -0.00000000000E+00  0.00000000000E+00  0.64273087516E+03  0.64273087516E+03  0.00000000000E+00 0.  1.
          2   -1    0    0  502    0  0.00000000000E+00 -0.00000000000E+00 -0.27795746650E+03  0.27795746650E+03  0.00000000000E+00 0. -1.
          6    1    1    2  502    0 -0.28308731613E+03 -0.25724030588E+03  0.23587433214E+03  0.48153577654E+03  0.17300000000E+03 0. -1.
         -6    1    1    2    0  501  0.28308731613E+03  0.25724030588E+03  0.12889907652E+03  0.43915256512E+03  0.17300000000E+03 0. -1.
<mgrwt>
<rscale>  2 0.41980948E+03</rscale>
<asrwt>0</asrwt>
<pdfrwt beam="2">  1        2 0.42762687E-01 0.41980948E+03</pdfrwt>
<pdfrwt beam="1">  1       -2 0.98881672E-01 0.41980948E+03</pdfrwt>
<totfact> 0.10420903E+02</totfact>
</mgrwt>
</event>
<event>
 4    1  0.8142558E-001  0.1756714E+03  0.7546771E-02  0.1172059E+00
         -1   -1    0    0    0  501 -0.00000000000E+00  0.00000000000E+00  0.83119950053E+02  0.83119950053E+02  0.00000000000E+00 0.  1.
          1   -1    0    0  502    0  0.00000000000E+00 -0.00000000000E+00 -0.38194304880E+03  0.38194304880E+03  0.00000000000E+00 0. -1.
          6    1    1    2  502    0 -0.29665790815E+02 -0.71688070643E+01 -0.11055156877E+03  0.20756228053E+03  0.17300000000E+03 0.  1.
         -6    1    1    2    0  501  0.29665790815E+02  0.71688070643E+01 -0.18827152997E+03  0.25750071832E+03  0.17300000000E+03 0. -1.
<mgrwt>
<rscale>  2 0.17567143E+03</rscale>
<asrwt>0</asrwt>
<pdfrwt beam="2">  1        1 0.58760469E-01 0.17567143E+03</pdfrwt>
<pdfrwt beam="1">  1       -1 0.12787685E-01 0.17567143E+03</pdfrwt>
<totfact> 0.26207529E+03</totfact>
</mgrwt>
</event>
<event>
 4    1  0.8142558E-001  0.1881434E+03  0.7546771E-02  0.1160147E+00
         -1   -1    0    0    0  501 -0.00000000000E+00  0.00000000000E+00  0.47650018022E+02  0.47650018022E+02  0.00000000000E+00 0. -1.
          1   -1    0    0  502    0  0.00000000000E+00 -0.00000000000E+00 -0.74389712983E+03  0.74389712983E+03  0.00000000000E+00 0.  1.
          6    1    1    2  502    0  0.53154360900E+02 -0.51415463561E+02 -0.33344239406E+03  0.38285998241E+03  0.17300000000E+03 0.  1.
         -6    1    1    2    0  501 -0.53154360900E+02  0.51415463561E+02 -0.36280471775E+03  0.40868716545E+03  0.17300000000E+03 0. -1.
<mgrwt>
<rscale>  2 0.18814339E+03</rscale>
<asrwt>0</asrwt>
<pdfrwt beam="2">  1        1 0.11444571E+00 0.18814339E+03</pdfrwt>
<pdfrwt beam="1">  1       -1 0.73307724E-02 0.18814339E+03</pdfrwt>
<totfact> 0.25125836E+03</totfact>
</mgrwt>
</event>
<event>
 4    1  0.8142558E-001  0.2742568E+03  0.7546771E-02  0.1098868E+00
          2   -1    0    0  502    0  0.00000000000E+00  0.00000000000E+00  0.16405805165E+04  0.16405805165E+04  0.00000000000E+00 0.  1.
         -2   -1    0    0    0  501 -0.00000000000E+00 -0.00000000000E+00 -0.68162234385E+02  0.68162234385E+02  0.00000000000E+00 0. -1.
          6    1    1    2  502    0  0.89373320707E+02  0.19313265557E+03  0.29736673349E+03  0.40452909325E+03  0.17300000000E+03 0. -1.
         -6    1    1    2    0  501 -0.89373320707E+02 -0.19313265557E+03  0.12750515486E+04  0.13042136576E+04  0.17300000000E+03 0. -1.
<mgrwt>
<rscale>  2 0.27425684E+03</rscale>
<asrwt>0</asrwt>
<pdfrwt beam="1">  1        2 0.25239697E+00 0.27425684E+03</pdfrwt>
<pdfrwt beam="2">  1       -2 0.10486499E-01 0.27425684E+03</pdfrwt>
<totfact> 0.70742726E+02</totfact>
</mgrwt>
</event>
<event>
 4    1  0.8142558E-001  0.1967195E+03  0.7546771E-02  0.1152537E+00
          1   -1    0    0  502    0  0.00000000000E+00  0.00000000000E+00  0.62482805524E+02  0.62482805524E+02  0.00000000000E+00 0.  1.
         -1   -1    0    0    0  501 -0.00000000000E+00 -0.00000000000E+00 -0.66278082833E+03  0.66278082833E+03  0.00000000000E+00 0. -1.
          6    1    1    2  502    0  0.16364302446E+02 -0.92205065568E+02 -0.39297998033E+03  0.43946766599E+03  0.17300000000E+03 0.  1.
         -6    1    1    2    0  501 -0.16364302446E+02  0.92205065568E+02 -0.20731804247E+03  0.28579596786E+03  0.17300000000E+03 0. -1.
<mgrwt>
<rscale>  2 0.19671951E+03</rscale>
<asrwt>0</asrwt>
<pdfrwt beam="1">  1        1 0.96127396E-02 0.19671951E+03</pdfrwt>
<pdfrwt beam="2">  1       -1 0.10196628E+00 0.19671951E+03</pdfrwt>
<totfact> 0.65156151E+02</totfact>
</mgrwt>
</event>
<event>
 4    1  0.8142558E-001  0.1828018E+03  0.7546771E-02  0.1165119E+00
          3   -1    0    0  502    0  0.00000000000E+00  0.00000000000E+00  0.16302526541E+03  0.16302526541E+03  0.00000000000E+00 0.  1.
         -3   -1    0    0    0  501 -0.00000000000E+00 -0.00000000000E+00 -0.33161070104E+03  0.33161070104E+03  0.00000000000E+00 0. -1.
          6    1    1    2  502    0  0.45913421959E+02 -0.37141040270E+02  0.68539652370E+02  0.19522854078E+03  0.17300000000E+03 0.  1.
         -6    1    1    2    0  501 -0.45913421959E+02  0.37141040270E+02 -0.23712508800E+03  0.29940742567E+03  0.17300000000E+03 0. -1.
<mgrwt>
<rscale>  2 0.18280180E+03</rscale>
<asrwt>0</asrwt>
<pdfrwt beam="1">  1        3 0.25080810E-01 0.18280180E+03</pdfrwt>
<pdfrwt beam="2">  1       -3 0.51017031E-01 0.18280180E+03</pdfrwt>
<totfact> 0.13870626E+02</totfact>
</mgrwt>
</event>
<event>
 4    1  0.8142558E-001  0.1986521E+03  0.7546771E-02  0.1150881E+00
          1   -1    0    0  502    0  0.00000000000E+00  0.00000000000E+00  0.62325937478E+03  0.62325937478E+03  0.00000000000E+00 0.  1.
         -1   -1    0    0    0  501 -0.00000000000E+00 -0.00000000000E+00 -0.80253266287E+02  0.80253266287E+02  0.00000000000E+00 0. -1.
          6    1    1    2  502    0  0.45995957610E+02 -0.86128060788E+02  0.10990936955E+03  0.22703026337E+03  0.17300000000E+03 0. -1.
         -6    1    1    2    0  501 -0.45995957610E+02  0.86128060788E+02  0.43309673894E+03  0.47648237769E+03  0.17300000000E+03 0.  1.
<mgrwt>
<rscale>  2 0.19865214E+03</rscale>
<asrwt>0</asrwt>
<pdfrwt beam="1">  1        1 0.95886055E-01 0.19865214E+03</pdfrwt>
<pdfrwt beam="2">  1       -1 0.12346657E-01 0.19865214E+03</pdfrwt>
<totfact> 0.14556113E+03</totfact>
</mgrwt>
</event>
<event>
 4    1  0.8142558E-001  0.1746289E+03  0.7546771E-02  0.1173105E+00
         -2   -1    0    0    0  501 -0.00000000000E+00  0.00000000000E+00  0.60577222779E+03  0.60577222779E+03  0.00000000000E+00 0.  1.
          2   -1    0    0  502    0  0.00000000000E+00 -0.00000000000E+00 -0.76822134072E+02  0.76822134072E+02  0.00000000000E+00 0. -1.
          6    1    1    2  502    0 -0.65494476323E+01 -0.22876984242E+02  0.64093911301E+02  0.18601957192E+03  0.17300000000E+03 0. -1.
         -6    1    1    2    0  501  0.65494476323E+01  0.22876984242E+02  0.46485618242E+03  0.49657478994E+03  0.17300000000E+03 0.  1.
<mgrwt>
<rscale>  2 0.17462890E+03</rscale>
<asrwt>0</asrwt>
<pdfrwt beam="2">  1        2 0.11818790E-01 0.17462890E+03</pdfrwt>
<pdfrwt beam="1">  1       -2 0.93195724E-01 0.17462890E+03</pdfrwt>
<totfact> 0.52174897E+02</totfact>
</mgrwt>
</event>
<event>
 4    1  0.8142558E-001  0.2183407E+03  0.7546771E-02  0.1135126E+00
         -2   -1    0    0    0  501 -0.00000000000E+00  0.00000000000E+00  0.10200473790E+03  0.10200473790E+03  0.00000000000E+00 0. -1.
          2   -1    0    0  502    0  0.00000000000E+00 -0.00000000000E+00 -0.46967847104E+03  0.46967847104E+03  0.00000000000E+00 0.  1.
          6    1    1    2  502    0 -0.13319970388E+03 -0.12164531661E+01 -0.20393219993E+03  0.29876576617E+03  0.17300000000E+03 0. -1.
         -6    1    1    2    0  501  0.13319970388E+03  0.12164531661E+01 -0.16374153322E+03  0.27291744277E+03  0.17300000000E+03 0.  1.
<mgrwt>
<rscale>  2 0.21834065E+03</rscale>
<asrwt>0</asrwt>
<pdfrwt beam="2">  1        2 0.72258227E-01 0.21834065E+03</pdfrwt>
<pdfrwt beam="1">  1       -2 0.15693036E-01 0.21834065E+03</pdfrwt>
<totfact> 0.21057259E+03</totfact>
</mgrwt>
</event>
<event>
 4    1  0.8142558E-001  0.1910116E+03  0.7546771E-02  0.1157552E+00
          1   -1    0    0  502    0  0.00000000000E+00  0.00000000000E+00  0.39534942525E+03  0.39534942525E+03  0.00000000000E+00 0.  1.
         -1   -1    0    0    0  501 -0.00000000000E+00 -0.00000000000E+00 -0.92303457158E+02  0.92303457158E+02  0.00000000000E+00 0. -1.
          6    1    1    2  502    0 -0.76511810460E+02 -0.26502007852E+02  0.14821787082E+03  0.24177251868E+03  0.17300000000E+03 0.  1.
         -6    1    1    2    0  501  0.76511810460E+02  0.26502007852E+02  0.15482809727E+03  0.24588036372E+03  0.17300000000E+03 0. -1.
<mgrwt>
<rscale>  2 0.19101155E+03</rscale>
<asrwt>0</asrwt>
<pdfrwt beam="1">  1        1 0.60822988E-01 0.19101155E+03</pdfrwt>
<pdfrwt beam="2">  1       -1 0.14200532E-01 0.19101155E+03</pdfrwt>
<totfact> 0.21341837E+03</totfact>
</mgrwt>
</event>
<event>
 4    1  0.8142558E-001  0.2861135E+03  0.7546771E-02  0.1092396E+00
         -1   -1    0    0    0  501 -0.00000000000E+00  0.00000000000E+00  0.12785463184E+03  0.12785463184E+03  0.00000000000E+00 0. -1.
          1   -1    0    0  502    0  0.00000000000E+00 -0.00000000000E+00 -0.64103612934E+03  0.64103612934E+03  0.00000000000E+00 0.  1.
          6    1    1    2  502    0 -0.43570270933E+02 -0.22368181191E+03 -0.26991952782E+03  0.39334142038E+03  0.17300000000E+03 0.  1.
         -6    1    1    2    0  501  0.43570270933E+02  0.22368181191E+03 -0.24326196968E+03  0.37554934081E+03  0.17300000000E+03 0. -1.
<mgrwt>
<rscale>  2 0.28611348E+03</rscale>
<asrwt>0</asrwt>
<pdfrwt beam="2">  1        1 0.98620945E-01 0.28611348E+03</pdfrwt>
<pdfrwt beam="1">  1       -1 0.19669943E-01 0.28611348E+03</pdfrwt>
<totfact> 0.66593528E+02</totfact>
</mgrwt>
</event>
<event>
 4    1  0.8142558E-001  0.1802863E+03  0.7546771E-02  0.1167526E+00
          1   -1    0    0  502    0  0.00000000000E+00  0.00000000000E+00  0.89851266509E+03  0.89851266509E+03  0.00000000000E+00 0.  1.
         -1   -1    0    0    0  501 -0.00000000000E+00 -0.00000000000E+00 -0.46673046160E+02  0.46673046160E+02  0.00000000000E+00 0. -1.
          6    1    1    2  502    0  0.48396236867E+02  0.15229592507E+02  0.20177886588E+03  0.27058796527E+03  0.17300000000E+03 0. -1.
         -6    1    1    2    0  501 -0.48396236867E+02 -0.15229592507E+02  0.65006075305E+03  0.67459774598E+03  0.17300000000E+03 0. -1.
<mgrwt>
<rscale>  2 0.18028626E+03</rscale>
<asrwt>0</asrwt>
<pdfrwt beam="1">  1        1 0.13823271E+00 0.18028626E+03</pdfrwt>
<pdfrwt beam="2">  1       -1 0.71804693E-02 0.18028626E+03</pdfrwt>
<totfact> 0.19366792E+03</totfact>
</mgrwt>
</event>
<event>
 4    1  0.8142558E-001  0.1763362E+03  0.7546771E-02  0.1171397E+00
          1   -1    0    0  502    0  0.00000000000E+00  0.00000000000E+00  0.35981059701E+03  0.35981059701E+03  0.00000000000E+00 0. -1.
         -1   -1    0    0    0  501 -0.00000000000E+00 -0.00000000000E+00 -0.13996532435E+03  0.13996532435E+03  0.00000000000E+00 0.  1.
          6    1    1    2  502    0  0.33777195851E+02 -0.49556435134E+01 -0.44638428940E+02  0.18189845162E+03  0.17300000000E+03 0.  1.
         -6    1    1    2    0  501 -0.33777195851E+02  0.49556435134E+01  0.26448370160E+03  0.31787746975E+03  0.17300000000E+03 0. -1.
<mgrwt>
<rscale>  2 0.17633621E+03</rscale>
<asrwt>0</asrwt>
<pdfrwt beam="1">  1        1 0.55355476E-01 0.17633621E+03</pdfrwt>
<pdfrwt beam="2">  1       -1 0.21533127E-01 0.17633621E+03</pdfrwt>
<totfact> 0.12335212E+03</totfact>
</mgrwt>
</event>
<event>
 4    1  0.8142558E-001  0.1787664E+03  0.7546771E-02  0.1169002E+00
         -1   -1    0    0    0  501 -0.00000000000E+00  0.00000000000E+00  0.20157513189E+02  0.20157513189E+02  0.00000000000E+00 0.  1.
          1   -1    0    0  502    0  0.00000000000E+00 -0.00000000000E+00 -0.15913050020E+04  0.15913050020E+04  0.00000000000E+00 0. -1.
          6    1    1    2  502    0  0.40605121456E+02  0.19484456462E+02 -0.73642948270E+03  0.75781647048E+03  0.17300000000E+03 0. -1.
         -6    1    1    2    0  501 -0.40605121456E+02 -0.19484456462E+02 -0.83471800609E+03  0.85364604469E+03  0.17300000000E+03 0. -1.
<mgrwt>
<rscale>  2 0.17876638E+03</rscale>
<asrwt>0</asrwt>
<pdfrwt beam="2">  1        1 0.24481619E+00 0.17876638E+03</pdfrwt>
<pdfrwt beam="1">  1       -1 0.31011554E-02 0.17876638E+03</pdfrwt>
<totfact> 0.22354762E+03</totfact>
</mgrwt>
</event>
<event>
 4    1  0.8142558E-001  0.2064196E+03  0.7546771E-02  0.1144433E+00
         -2   -1    0    0    0  501 -0.00000000000E+00  0.00000000000E+00  0.10692911607E+04  0.10692911607E+04  0.00000000000E+00 0. -1.
          2   -1    0    0  502    0  0.00000000000E+00 -0.00000000000E+00 -0.39847998616E+02  0.39847998616E+02  0.00000000000E+00 0.  1.
          6    1    1    2  502    0  0.90725772822E+02 -0.66699977154E+02  0.51406412228E+03  0.55395936189E+03  0.17300000000E+03 0.  1.
         -6    1    1    2    0  501 -0.90725772822E+02  0.66699977154E+02  0.51537903984E+03  0.55517979747E+03  0.17300000000E+03 0.  1.
<mgrwt>
<rscale>  2 0.20641960E+03</rscale>
<asrwt>0</asrwt>
<pdfrwt beam="2">  1        2 0.61304621E-02 0.20641960E+03</pdfrwt>
<pdfrwt beam="1">  1       -2 0.16450631E+00 0.20641960E+03</pdfrwt>
<totfact> 0.29748247E+02</totfact>
</mgrwt>
</event>
<event>
 4    1  0.8142558E-001  0.2051196E+03  0.7546771E-02  0.1145490E+00
         -2   -1    0    0    0  501 -0.00000000000E+00  0.00000000000E+00  0.72286824157E+02  0.72286824157E+02  0.00000000000E+00 0.  1.
          2   -1    0    0  502    0  0.00000000000E+00 -0.00000000000E+00 -0.58205940377E+03  0.58205940377E+03  0.00000000000E+00 0. -1.
          6    1    1    2  502    0 -0.26118518757E+02  0.10706473751E+03 -0.25662677644E+03  0.32852905112E+03  0.17300000000E+03 0.  1.
         -6    1    1    2    0  501  0.26118518757E+02 -0.10706473751E+03 -0.25314580317E+03  0.32581717681E+03  0.17300000000E+03 0. -1.
<mgrwt>
<rscale>  2 0.20511956E+03</rscale>
<asrwt>0</asrwt>
<pdfrwt beam="2">  1        2 0.89547605E-01 0.20511956E+03</pdfrwt>
<pdfrwt beam="1">  1       -2 0.11121049E-01 0.20511956E+03</pdfrwt>
<totfact> 0.28940215E+03</totfact>
</mgrwt>
</event>
<event>
 4    1  0.8142558E-001  0.2302598E+03  0.7546771E-02  0.1126457E+00
          1   -1    0    0  502    0  0.00000000000E+00  0.00000000000E+00  0.37043752829E+03  0.37043752829E+03  0.00000000000E+00 0.  1.
         -1   -1    0    0    0  501 -0.00000000000E+00 -0.00000000000E+00 -0.14817589040E+03  0.14817589040E+03  0.00000000000E+00 0. -1.
          6    1    1    2  502    0 -0.13998921373E+03  0.59106830355E+02  0.63265091189E+02  0.23879294193E+03  0.17300000000E+03 0.  1.
         -6    1    1    2    0  501  0.13998921373E+03 -0.59106830355E+02  0.15899654670E+03  0.27982047676E+03  0.17300000000E+03 0. -1.
<mgrwt>
<rscale>  2 0.23025985E+03</rscale>
<asrwt>0</asrwt>
<pdfrwt beam="1">  1        1 0.56990389E-01 0.23025985E+03</pdfrwt>
<pdfrwt beam="2">  1       -1 0.22796291E-01 0.23025985E+03</pdfrwt>
<totfact> 0.10865856E+03</totfact>
</mgrwt>
</event>
<event>
 4    1  0.8142558E-001  0.1842464E+03  0.7546771E-02  0.1163756E+00
         -1   -1    0    0    0  501 -0.00000000000E+00  0.00000000000E+00  0.23533783506E+03  0.23533783506E+03  0.00000000000E+00 0.  1.
          1   -1    0    0  502    0  0.00000000000E+00 -0.00000000000E+00 -0.17628345486E+03  0.17628345486E+03  0.00000000000E+00 0. -1.
          6    1    1    2  502    0 -0.24177799400E+02 -0.58593244830E+02 -0.58210359887E+02  0.19322313609E+03  0.17300000000E+03 0. -1.
         -6    1    1    2    0  501  0.24177799400E+02  0.58593244830E+02  0.11726474009E+03  0.21839815382E+03  0.17300000000E+03 0.  1.
<mgrwt>
<rscale>  2 0.18424640E+03</rscale>
<asrwt>0</asrwt>
<pdfrwt beam="2">  1        1 0.27120532E-01 0.18424640E+03</pdfrwt>
<pdfrwt beam="1">  1       -1 0.36205821E-01 0.18424640E+03</pdfrwt>
<totfact> 0.12603634E+03</totfact>
</mgrwt>
</event>
<event>
 4    1  0.8142558E-001  0.3923731E+03  0.7546771E-02  0.1046453E+00
          3   -1    0    0  502    0  0.00000000000E+00  0.00000000000E+00  0.20433215287E+03  0.20433215287E+03  0.00000000000E+00 0.  1.
         -3   -1    0    0    0  501 -0.00000000000E+00 -0.00000000000E+00 -0.11656499434E+04  0.11656499434E+04  0.00000000000E+00 0. -1.
          6    1    1    2  502    0 -0.22000144438E+03  0.27500361660E+03 -0.73327227286E+02  0.39916601425E+03  0.17300000000E+03 0.  1.
         -6    1    1    2    0  501  0.22000144438E+03 -0.27500361660E+03 -0.88799056323E+03  0.97081608199E+03  0.17300000000E+03 0. -1.
<mgrwt>
<rscale>  2 0.39237307E+03</rscale>
<asrwt>0</asrwt>
<pdfrwt beam="1">  1        3 0.31435715E-01 0.39237307E+03</pdfrwt>
<pdfrwt beam="2">  1       -3 0.17933077E+00 0.39237307E+03</pdfrwt>
<totfact> 0.52239209E+00</totfact>
</mgrwt>
</event>
<event>
 4    1  0.8142558E-001  0.2069365E+03  0.7546771E-02  0.1144015E+00
          1   -1    0    0  502    0  0.00000000000E+00  0.00000000000E+00  0.20374203878E+03  0.20374203878E+03  0.00000000000E+00 0. -1.
         -1   -1    0    0    0  501 -0.00000000000E+00 -0.00000000000E+00 -0.66073641254E+03  0.66073641254E+03  0.00000000000E+00 0.  1.
          6    1    1    2  502    0  0.14837864512E+02 -0.11257690975E+03 -0.58542806507E+03  0.62092571392E+03  0.17300000000E+03 0.  1.
         -6    1    1    2    0  501 -0.14837864512E+02  0.11257690975E+03  0.12843369131E+03  0.24355273740E+03  0.17300000000E+03 0. -1.
<mgrwt>
<rscale>  2 0.20693652E+03</rscale>
<asrwt>0</asrwt>
<pdfrwt beam="1">  1        1 0.31344929E-01 0.20693652E+03</pdfrwt>
<pdfrwt beam="2">  1       -1 0.10165176E+00 0.20693652E+03</pdfrwt>
<totfact> 0.14144095E+02</totfact>
</mgrwt>
</event>
<event>
 4    1  0.8142558E-001  0.2066061E+03  0.7546771E-02  0.1144282E+00
          3   -1    0    0  502    0  0.00000000000E+00  0.00000000000E+00  0.31891550867E+02  0.31891550867E+02  0.00000000000E+00 0.  1.
         -3   -1    0    0    0  501 -0.00000000000E+00 -0.00000000000E+00 -0.15035424990E+04  0.15035424990E+04  0.00000000000E+00 0. -1.
          6    1    1    2  502    0  0.48974767005E+02  0.10177690973E+03 -0.48145123404E+03  0.52390968489E+03  0.17300000000E+03 0.  1.
         -6    1    1    2    0  501 -0.48974767005E+02 -0.10177690973E+03 -0.99019971405E+03  0.10115243649E+04  0.17300000000E+03 0. -1.
<mgrwt>
<rscale>  2 0.20660607E+03</rscale>
<asrwt>0</asrwt>
<pdfrwt beam="1">  1        3 0.49063925E-02 0.20660607E+03</pdfrwt>
<pdfrwt beam="2">  1       -3 0.23131423E+00 0.20660607E+03</pdfrwt>
<totfact> 0.60425073E+01</totfact>
</mgrwt>
</event>
<event>
 4    1  0.8142558E-001  0.1880977E+03  0.7546771E-02  0.1160188E+00
         -1   -1    0    0    0  501 -0.00000000000E+00  0.00000000000E+00  0.25098524461E+03  0.25098524461E+03  0.00000000000E+00 0.  1.
          1   -1    0    0  502    0  0.00000000000E+00 -0.00000000000E+00 -0.47353401665E+03  0.47353401665E+03  0.00000000000E+00 0. -1.
          6    1    1    2  502    0  0.23030596800E+02  0.70152254166E+02 -0.41486172079E+03  0.45551179407E+03  0.17300000000E+03 0. -1.
         -6    1    1    2    0  501 -0.23030596800E+02 -0.70152254166E+02  0.19231294875E+03  0.26900746720E+03  0.17300000000E+03 0.  1.
<mgrwt>
<rscale>  2 0.18809771E+03</rscale>
<asrwt>0</asrwt>
<pdfrwt beam="2">  1        1 0.72851386E-01 0.18809771E+03</pdfrwt>
<pdfrwt beam="1">  1       -1 0.38613115E-01 0.18809771E+03</pdfrwt>
<totfact> 0.32421816E+02</totfact>
</mgrwt>
</event>
<event>
 4    1  0.8142558E-001  0.2145953E+03  0.7546771E-02  0.1137978E+00
          1   -1    0    0  502    0  0.00000000000E+00  0.00000000000E+00  0.63994583244E+03  0.63994583244E+03  0.00000000000E+00 0.  1.
         -1   -1    0    0    0  501 -0.00000000000E+00 -0.00000000000E+00 -0.75950065332E+02  0.75950065332E+02  0.00000000000E+00 0. -1.
          6    1    1    2  502    0  0.77287887369E+02 -0.10074087521E+03  0.19996434869E+03  0.29332044289E+03  0.17300000000E+03 0. -1.
         -6    1    1    2    0  501 -0.77287887369E+02  0.10074087521E+03  0.36403141842E+03  0.42257545488E+03  0.17300000000E+03 0. -1.
<mgrwt>
<rscale>  2 0.21459530E+03</rscale>
<asrwt>0</asrwt>
<pdfrwt beam="1">  1        1 0.98453201E-01 0.21459530E+03</pdfrwt>
<pdfrwt beam="2">  1       -1 0.11684626E-01 0.21459530E+03</pdfrwt>
<totfact> 0.15298052E+03</totfact>
</mgrwt>
</event>
<event>
 4    1  0.8142558E-001  0.2446246E+03  0.7546771E-02  0.1116750E+00
         -4   -1    0    0    0  501 -0.00000000000E+00  0.00000000000E+00  0.15794382037E+03  0.15794382037E+03  0.00000000000E+00 0.  1.
          4   -1    0    0  502    0  0.00000000000E+00 -0.00000000000E+00 -0.65275687063E+03  0.65275687063E+03  0.00000000000E+00 0. -1.
          6    1    1    2  502    0  0.15106433335E+03 -0.84212659673E+02  0.15157523283E+02  0.24509376853E+03  0.17300000000E+03 0.  1.
         -6    1    1    2    0  501 -0.15106433335E+03  0.84212659673E+02 -0.50997057354E+03  0.56560692247E+03  0.17300000000E+03 0. -1.
<mgrwt>
<rscale>  2 0.24462462E+03</rscale>
<asrwt>0</asrwt>
<pdfrwt beam="2">  1        4 0.10042413E+00 0.24462462E+03</pdfrwt>
<pdfrwt beam="1">  1       -4 0.24299050E-01 0.24462462E+03</pdfrwt>
<totfact> 0.24216291E+01</totfact>
</mgrwt>
</event>
<event>
 4    1  0.8142558E-001  0.2561497E+03  0.7546771E-02  0.1109479E+00
          2   -1    0    0  502    0  0.00000000000E+00  0.00000000000E+00  0.11018970391E+03  0.11018970391E+03  0.00000000000E+00 0. -1.
         -2   -1    0    0    0  501 -0.00000000000E+00 -0.00000000000E+00 -0.64112776906E+03  0.64112776906E+03  0.00000000000E+00 0.  1.
          6    1    1    2  502    0  0.15346599115E+03 -0.11014461913E+03 -0.16520030240E+03  0.30480122617E+03  0.17300000000E+03 0. -1.
         -6    1    1    2    0  501 -0.15346599115E+03  0.11014461913E+03 -0.36573776274E+03  0.44651624680E+03  0.17300000000E+03 0.  1.
<mgrwt>
<rscale>  2 0.25614966E+03</rscale>
<asrwt>0</asrwt>
<pdfrwt beam="1">  1        2 0.16952263E-01 0.25614966E+03</pdfrwt>
<pdfrwt beam="2">  1       -2 0.98635039E-01 0.25614966E+03</pdfrwt>
<totfact> 0.29912135E+02</totfact>
</mgrwt>
</event>
<event>
 4    1  0.8142558E-001  0.2054422E+03  0.7546771E-02  0.1145227E+00
         -2   -1    0    0    0  501 -0.00000000000E+00  0.00000000000E+00  0.10254337414E+03  0.10254337414E+03  0.00000000000E+00 0.  1.
          2   -1    0    0  502    0  0.00000000000E+00 -0.00000000000E+00 -0.42823147891E+03  0.42823147891E+03  0.00000000000E+00 0. -1.
          6    1    1    2  502    0 -0.36388829970E+02 -0.10465821658E+03 -0.11053790083E+03  0.23329191320E+03  0.17300000000E+03 0.  1.
         -6    1    1    2    0  501  0.36388829970E+02  0.10465821658E+03 -0.21515020394E+03  0.29748293985E+03  0.17300000000E+03 0. -1.
<mgrwt>
<rscale>  2 0.20544218E+03</rscale>
<asrwt>0</asrwt>
<pdfrwt beam="2">  1        2 0.65881766E-01 0.20544218E+03</pdfrwt>
<pdfrwt beam="1">  1       -2 0.15775904E-01 0.20544218E+03</pdfrwt>
<totfact> 0.23067591E+03</totfact>
</mgrwt>
</event>
<event>
 4    1  0.8142558E-001  0.2311592E+03  0.7546771E-02  0.1125827E+00
         -1   -1    0    0    0  501 -0.00000000000E+00  0.00000000000E+00  0.65316425592E+03  0.65316425592E+03  0.00000000000E+00 0. -1.
          1   -1    0    0  502    0  0.00000000000E+00 -0.00000000000E+00 -0.12011579817E+03  0.12011579817E+03  0.00000000000E+00 0.  1.
          6    1    1    2  502    0  0.54052194471E+02  0.14347104470E+03  0.48177928185E+02  0.23612643469E+03  0.17300000000E+03 0.  1.
         -6    1    1    2    0  501 -0.54052194471E+02 -0.14347104470E+03  0.48487052957E+03  0.53715361940E+03  0.17300000000E+03 0. -1.
<mgrwt>
<rscale>  2 0.23115921E+03</rscale>
<asrwt>0</asrwt>
<pdfrwt beam="2">  1        1 0.18479354E-01 0.23115921E+03</pdfrwt>
<pdfrwt beam="1">  1       -1 0.10048681E+00 0.23115921E+03</pdfrwt>
<totfact> 0.28400330E+02</totfact>
</mgrwt>
</event>
<event>
 4    1  0.8142558E-001  0.2603058E+03  0.7546771E-02  0.1106960E+00
          3   -1    0    0  502    0  0.00000000000E+00  0.00000000000E+00  0.20995183703E+04  0.20995183703E+04  0.00000000000E+00 0.  1.
         -3   -1    0    0    0  501 -0.00000000000E+00 -0.00000000000E+00 -0.33062374967E+02  0.33062374967E+02  0.00000000000E+00 0. -1.
          6    1    1    2  502    0 -0.68598179665E+02 -0.18200109791E+03  0.11979200804E+04  0.12258758620E+04  0.17300000000E+03 0.  1.
         -6    1    1    2    0  501  0.68598179665E+02  0.18200109791E+03  0.86853591493E+03  0.90670488331E+03  0.17300000000E+03 0. -1.
<mgrwt>
<rscale>  2 0.26030580E+03</rscale>
<asrwt>0</asrwt>
<pdfrwt beam="1">  1        3 0.32300272E+00 0.26030580E+03</pdfrwt>
<pdfrwt beam="2">  1       -3 0.50865209E-02 0.26030580E+03</pdfrwt>
<totfact> 0.18670584E+01</totfact>
</mgrwt>
</event>
<event>
 4    1  0.8142558E-001  0.1797208E+03  0.7546771E-02  0.1168074E+00
          1   -1    0    0  502    0  0.00000000000E+00  0.00000000000E+00  0.76982841270E+03  0.76982841270E+03  0.00000000000E+00 0.  1.
         -1   -1    0    0    0  501 -0.00000000000E+00 -0.00000000000E+00 -0.42889031529E+02  0.42889031529E+02  0.00000000000E+00 0. -1.
          6    1    1    2  502    0 -0.29863888680E+02 -0.38454176160E+02  0.42337794008E+03  0.45994397013E+03  0.17300000000E+03 0.  1.
         -6    1    1    2    0  501  0.29863888680E+02  0.38454176160E+02  0.30356144109E+03  0.35277347410E+03  0.17300000000E+03 0. -1.
<mgrwt>
<rscale>  2 0.17972083E+03</rscale>
<asrwt>0</asrwt>
<pdfrwt beam="1">  1        1 0.11843513E+00 0.17972083E+03</pdfrwt>
<pdfrwt beam="2">  1       -1 0.65983131E-02 0.17972083E+03</pdfrwt>
<totfact> 0.27960226E+03</totfact>
</mgrwt>
</event>
<event>
 4    1  0.8142558E-001  0.2914929E+03  0.7546771E-02  0.1089572E+00
          2   -1    0    0  502    0  0.00000000000E+00  0.00000000000E+00  0.81377584932E+03  0.81377584932E+03  0.00000000000E+00 0. -1.
         -2   -1    0    0    0  501 -0.00000000000E+00 -0.00000000000E+00 -0.21454692780E+03  0.21454692780E+03  0.00000000000E+00 0.  1.
          6    1    1    2  502    0  0.23421372132E+03  0.13528325242E+02 -0.68769368108E+02  0.29949508982E+03  0.17300000000E+03 0.  1.
         -6    1    1    2    0  501 -0.23421372132E+03 -0.13528325242E+02  0.66799828963E+03  0.72882768731E+03  0.17300000000E+03 0. -1.
<mgrwt>
<rscale>  2 0.29149285E+03</rscale>
<asrwt>0</asrwt>
<pdfrwt beam="1">  1        2 0.12519628E+00 0.29149285E+03</pdfrwt>
<pdfrwt beam="2">  1       -2 0.33007220E-01 0.29149285E+03</pdfrwt>
<totfact> 0.29927977E+02</totfact>
</mgrwt>
</event>
<event>
 4    1  0.8142558E-001  0.3129443E+03  0.7546771E-02  0.1078943E+00
          2   -1    0    0  502    0  0.00000000000E+00  0.00000000000E+00  0.91148234647E+03  0.91148234647E+03  0.00000000000E+00 0. -1.
         -2   -1    0    0    0  501 -0.00000000000E+00 -0.00000000000E+00 -0.14088249818E+03  0.14088249818E+03  0.00000000000E+00 0.  1.
          6    1    1    2  502    0 -0.25368005451E+03  0.60427996274E+02  0.64164528995E+03  0.71389270266E+03  0.17300000000E+03 0. -1.
         -6    1    1    2    0  501  0.25368005451E+03 -0.60427996274E+02  0.12895455833E+03  0.33847214199E+03  0.17300000000E+03 0.  1.
<mgrwt>
<rscale>  2 0.31294426E+03</rscale>
<asrwt>0</asrwt>
<pdfrwt beam="1">  1        2 0.14022805E+00 0.31294426E+03</pdfrwt>
<pdfrwt beam="2">  1       -2 0.21674231E-01 0.31294426E+03</pdfrwt>
<totfact> 0.54704026E+02</totfact>
</mgrwt>
</event>
<event>
 4    1  0.8142558E-001  0.1934537E+03  0.7546771E-02  0.1155383E+00
         -1   -1    0    0    0  501 -0.00000000000E+00  0.00000000000E+00  0.21355786037E+02  0.21355786037E+02  0.00000000000E+00 0. -1.
          1   -1    0    0  502    0  0.00000000000E+00 -0.00000000000E+00 -0.18427999499E+04  0.18427999499E+04  0.00000000000E+00 0.  1.
          6    1    1    2  502    0 -0.79289753878E+02 -0.34763265907E+02 -0.70430563781E+03  0.73039084138E+03  0.17300000000E+03 0. -1.
         -6    1    1    2    0  501  0.79289753878E+02  0.34763265907E+02 -0.11171385260E+04  0.11337648945E+04  0.17300000000E+03 0.  1.
<mgrwt>
<rscale>  2 0.19345374E+03</rscale>
<asrwt>0</asrwt>
<pdfrwt beam="2">  1        1 0.28350759E+00 0.19345374E+03</pdfrwt>
<pdfrwt beam="1">  1       -1 0.32855066E-02 0.19345374E+03</pdfrwt>
<totfact> 0.14127696E+03</totfact>
</mgrwt>
</event>
<event>
 4    1  0.8142558E-001  0.4697331E+03  0.7546771E-02  0.1021996E+00
          2   -1    0    0  502    0  0.00000000000E+00  0.00000000000E+00  0.25906249029E+04  0.25906249029E+04  0.00000000000E+00 0.  1.
         -2   -1    0    0    0  501 -0.00000000000E+00 -0.00000000000E+00 -0.13916528506E+03  0.13916528506E+03  0.00000000000E+00 0. -1.
          6    1    1    2  502    0 -0.44093031000E+02  0.43448361445E+03  0.20758942023E+04  0.21283763637E+04  0.17300000000E+03 0.  1.
         -6    1    1    2    0  501  0.44093031000E+02 -0.43448361445E+03  0.37556541552E+03  0.60141382420E+03  0.17300000000E+03 0. -1.
<mgrwt>
<rscale>  2 0.46973312E+03</rscale>
<asrwt>0</asrwt>
<pdfrwt beam="1">  1        2 0.39855764E+00 0.46973312E+03</pdfrwt>
<pdfrwt beam="2">  1       -2 0.21410046E-01 0.46973312E+03</pdfrwt>
<totfact> 0.63672674E+01</totfact>
</mgrwt>
</event>
<event>
 4    1  0.8142558E-001  0.2127303E+03  0.7546771E-02  0.1139422E+00
         -3   -1    0    0    0  501 -0.00000000000E+00  0.00000000000E+00  0.70728945696E+02  0.70728945696E+02  0.00000000000E+00 0.  1.
          3   -1    0    0  502    0  0.00000000000E+00 -0.00000000000E+00 -0.14602560489E+04  0.14602560489E+04  0.00000000000E+00 0. -1.
          6    1    1    2  502    0  0.90140845530E+02 -0.84851734438E+02 -0.12685460818E+04  0.12862594414E+04  0.17300000000E+03 0. -1.
         -6    1    1    2    0  501 -0.90140845530E+02  0.84851734438E+02 -0.12098102144E+03  0.24472555326E+03  0.17300000000E+03 0.  1.
<mgrwt>
<rscale>  2 0.21273032E+03</rscale>
<asrwt>0</asrwt>
<pdfrwt beam="2">  1        3 0.22465475E+00 0.21273032E+03</pdfrwt>
<pdfrwt beam="1">  1       -3 0.10881378E-01 0.21273032E+03</pdfrwt>
<totfact> 0.18122299E+01</totfact>
</mgrwt>
</event>
<event>
 4    1  0.8142558E-001  0.1793472E+03  0.7546771E-02  0.1168436E+00
          2   -1    0    0  502    0  0.00000000000E+00  0.00000000000E+00  0.69126370789E+03  0.69126370789E+03  0.00000000000E+00 0.  1.
         -2   -1    0    0    0  501 -0.00000000000E+00 -0.00000000000E+00 -0.64595210557E+02  0.64595210557E+02  0.00000000000E+00 0. -1.
          6    1    1    2  502    0 -0.47283725953E+02  0.82612900007E+00  0.11347885276E+03  0.21223308708E+03  0.17300000000E+03 0. -1.
         -6    1    1    2    0  501  0.47283725953E+02 -0.82612900007E+00  0.51318964457E+03  0.54362583136E+03  0.17300000000E+03 0. -1.
<mgrwt>
<rscale>  2 0.17934724E+03</rscale>
<asrwt>0</asrwt>
<pdfrwt beam="1">  1        2 0.10634826E+00 0.17934724E+03</pdfrwt>
<pdfrwt beam="2">  1       -2 0.99377252E-02 0.17934724E+03</pdfrwt>
<totfact> 0.28196582E+03</totfact>
</mgrwt>
</event>
<event>
 4    1  0.8142558E-001  0.1883307E+03  0.7546771E-02  0.1159976E+00
         -2   -1    0    0    0  501 -0.00000000000E+00  0.00000000000E+00  0.16476040685E+03  0.16476040685E+03  0.00000000000E+00 0.  1.
          2   -1    0    0  502    0  0.00000000000E+00 -0.00000000000E+00 -0.25230422662E+03  0.25230422662E+03  0.00000000000E+00 0. -1.
          6    1    1    2  502    0 -0.31704481252E+01 -0.74359906927E+02  0.36118720951E+02  0.19176289918E+03  0.17300000000E+03 0.  1.
         -6    1    1    2    0  501  0.31704481252E+01  0.74359906927E+02 -0.12366254072E+03  0.22530173430E+03  0.17300000000E+03 0. -1.
<mgrwt>
<rscale>  2 0.18833069E+03</rscale>
<asrwt>0</asrwt>
<pdfrwt beam="2">  1        2 0.38816035E-01 0.18833069E+03</pdfrwt>
<pdfrwt beam="1">  1       -2 0.25347755E-01 0.18833069E+03</pdfrwt>
<totfact> 0.18095513E+03</totfact>
</mgrwt>
</event>
<event>
 4    1  0.8142558E-001  0.6031213E+03  0.7546771E-02  0.9898951E-01
          2   -1    0    0  502    0  0.00000000000E+00  0.00000000000E+00  0.83206701413E+03  0.83206701413E+03  0.00000000000E+00 0.  1.
         -2   -1    0    0    0  501 -0.00000000000E+00 -0.00000000000E+00 -0.44903772742E+03  0.44903772742E+03  0.00000000000E+00 0. -1.
          6    1    1    2  502    0 -0.50439636711E+03  0.28179896501E+03  0.29564646801E+03  0.67168607689E+03  0.17300000000E+03 0.  1.
         -6    1    1    2    0  501  0.50439636711E+03 -0.28179896501E+03  0.87382818702E+02  0.60941866466E+03  0.17300000000E+03 0.  1.
<mgrwt>
<rscale>  2 0.60312134E+03</rscale>
<asrwt>0</asrwt>
<pdfrwt beam="1">  1        2 0.12801031E+00 0.60312134E+03</pdfrwt>
<pdfrwt beam="2">  1       -2 0.69082727E-01 0.60312134E+03</pdfrwt>
<totfact> 0.64149833E+01</totfact>
</mgrwt>
</event>
<event>
 4    1  0.8142558E-001  0.3360938E+03  0.7546771E-02  0.1068472E+00
          2   -1    0    0  502    0  0.00000000000E+00  0.00000000000E+00  0.15371948312E+04  0.15371948312E+04  0.00000000000E+00 0.  1.
         -2   -1    0    0    0  501 -0.00000000000E+00 -0.00000000000E+00 -0.74949091467E+02  0.74949091467E+02  0.00000000000E+00 0. -1.
          6    1    1    2  502    0  0.28719965466E+03  0.23375073844E+02  0.61841837272E+03  0.70384680110E+03  0.17300000000E+03 0. -1.
         -6    1    1    2    0  501 -0.28719965466E+03 -0.23375073844E+02  0.84382736704E+03  0.90829712158E+03  0.17300000000E+03 0.  1.
<mgrwt>
<rscale>  2 0.33609379E+03</rscale>
<asrwt>0</asrwt>
<pdfrwt beam="1">  1        2 0.23649149E+00 0.33609379E+03</pdfrwt>
<pdfrwt beam="2">  1       -2 0.11530631E-01 0.33609379E+03</pdfrwt>
<totfact> 0.68473022E+02</totfact>
</mgrwt>
</event>
<event>
 4    1  0.8142558E-001  0.2029622E+03  0.7546771E-02  0.1147264E+00
         -2   -1    0    0    0  501 -0.00000000000E+00  0.00000000000E+00  0.11740719027E+03  0.11740719027E+03  0.00000000000E+00 0.  1.
          2   -1    0    0  502    0  0.00000000000E+00 -0.00000000000E+00 -0.39749349680E+03  0.39749349680E+03  0.00000000000E+00 0. -1.
          6    1    1    2  502    0 -0.52808019674E+02 -0.92064922503E+02 -0.51862868096E+02  0.20948363656E+03  0.17300000000E+03 0.  1.
         -6    1    1    2    0  501  0.52808019674E+02  0.92064922503E+02 -0.22822343843E+03  0.30541705052E+03  0.17300000000E+03 0.  1.
<mgrwt>
<rscale>  2 0.20296216E+03</rscale>
<asrwt>0</asrwt>
<pdfrwt beam="2">  1        2 0.61152846E-01 0.20296216E+03</pdfrwt>
<pdfrwt beam="1">  1       -2 0.18062645E-01 0.20296216E+03</pdfrwt>
<totfact> 0.19942326E+03</totfact>
</mgrwt>
</event>
<event>
 4    1  0.8142558E-001  0.1938610E+03  0.7546771E-02  0.1155024E+00
          1   -1    0    0  502    0  0.00000000000E+00  0.00000000000E+00  0.38707742323E+03  0.38707742323E+03  0.00000000000E+00 0. -1.
         -1   -1    0    0    0  501 -0.00000000000E+00 -0.00000000000E+00 -0.10431675662E+03  0.10431675662E+03  0.00000000000E+00 0.  1.
          6    1    1    2  502    0  0.12292734073E+02 -0.86614020778E+02  0.76720253341E+02  0.20849004096E+03  0.17300000000E+03 0.  1.
         -6    1    1    2    0  501 -0.12292734073E+02  0.86614020778E+02  0.20604041326E+03  0.28290413890E+03  0.17300000000E+03 0. -1.
<mgrwt>
<rscale>  2 0.19386103E+03</rscale>
<asrwt>0</asrwt>
<pdfrwt beam="1">  1        1 0.59550372E-01 0.19386103E+03</pdfrwt>
<pdfrwt beam="2">  1       -1 0.16048732E-01 0.19386103E+03</pdfrwt>
<totfact> 0.18073760E+03</totfact>
</mgrwt>
</event>
<event>
 4    1  0.8142558E-001  0.1984902E+03  0.7546771E-02  0.1151019E+00
         -2   -1    0    0    0  501 -0.00000000000E+00  0.00000000000E+00  0.84931796259E+03  0.84931796259E+03  0.00000000000E+00 0. -1.
          2   -1    0    0  502    0  0.00000000000E+00 -0.00000000000E+00 -0.65928974188E+02  0.65928974188E+02  0.00000000000E+00 0.  1.
          6    1    1    2  502    0 -0.26880244259E+02  0.93524326028E+02  0.64083297297E+03  0.67086902324E+03  0.17300000000E+03 0. -1.
         -6    1    1    2    0  501  0.26880244259E+02 -0.93524326028E+02  0.14255601543E+03  0.24437791354E+03  0.17300000000E+03 0.  1.
<mgrwt>
<rscale>  2 0.19849017E+03</rscale>
<asrwt>0</asrwt>
<pdfrwt beam="2">  1        2 0.10142920E-01 0.19849017E+03</pdfrwt>
<pdfrwt beam="1">  1       -2 0.13066429E+00 0.19849017E+03</pdfrwt>
<totfact> 0.28298218E+02</totfact>
</mgrwt>
</event>
<event>
 4    1  0.8142558E-001  0.2247917E+03  0.7546771E-02  0.1130360E+00
         -2   -1    0    0    0  501 -0.00000000000E+00  0.00000000000E+00  0.23898564384E+03  0.23898564384E+03  0.00000000000E+00 0. -1.
          2   -1    0    0  502    0  0.00000000000E+00 -0.00000000000E+00 -0.21752060535E+03  0.21752060535E+03  0.00000000000E+00 0.  1.
          6    1    1    2  502    0  0.14331651926E+03 -0.79186892309E+01 -0.27427552608E+02  0.22645882843E+03  0.17300000000E+03 0.  1.
         -6    1    1    2    0  501 -0.14331651926E+03  0.79186892309E+01  0.48892591093E+02  0.23004742076E+03  0.17300000000E+03 0. -1.
<mgrwt>
<rscale>  2 0.22479175E+03</rscale>
<asrwt>0</asrwt>
<pdfrwt beam="2">  1        2 0.33464709E-01 0.22479175E+03</pdfrwt>
<pdfrwt beam="1">  1       -2 0.36767022E-01 0.22479175E+03</pdfrwt>
<totfact> 0.10845975E+03</totfact>
</mgrwt>
</event>
<event>
 4    1  0.8142558E-001  0.2500125E+03  0.7546771E-02  0.1113297E+00
          1   -1    0    0  502    0  0.00000000000E+00  0.00000000000E+00  0.64283096838E+03  0.64283096838E+03  0.00000000000E+00 0. -1.
         -1   -1    0    0    0  501 -0.00000000000E+00 -0.00000000000E+00 -0.97415899491E+02  0.97415899491E+02  0.00000000000E+00 0.  1.
          6    1    1    2  502    0  0.12689783909E+03 -0.12835175686E+03  0.28861830229E+03  0.38184651297E+03  0.17300000000E+03 0. -1.
         -6    1    1    2    0  501 -0.12689783909E+03  0.12835175686E+03  0.25679676661E+03  0.35840035490E+03  0.17300000000E+03 0. -1.
<mgrwt>
<rscale>  2 0.25001247E+03</rscale>
<asrwt>0</asrwt>
<pdfrwt beam="1">  1        1 0.98897069E-01 0.25001247E+03</pdfrwt>
<pdfrwt beam="2">  1       -1 0.14987062E-01 0.25001247E+03</pdfrwt>
<totfact> 0.10283717E+03</totfact>
</mgrwt>
</event>
<event>
 4    1  0.8142558E-001  0.1821265E+03  0.7546771E-02  0.1165761E+00
         -1   -1    0    0    0  501 -0.00000000000E+00  0.00000000000E+00  0.14005319616E+03  0.14005319616E+03  0.00000000000E+00 0. -1.
          1   -1    0    0  502    0  0.00000000000E+00 -0.00000000000E+00 -0.25803473604E+03  0.25803473604E+03  0.00000000000E+00 0.  1.
          6    1    1    2  502    0 -0.50342702548E+02 -0.26583450090E+02 -0.19436724952E+01  0.18213688638E+03  0.17300000000E+03 0. -1.
         -6    1    1    2    0  501  0.50342702548E+02  0.26583450090E+02 -0.11603786739E+03  0.21595104581E+03  0.17300000000E+03 0.  1.
<mgrwt>
<rscale>  2 0.18212652E+03</rscale>
<asrwt>0</asrwt>
<pdfrwt beam="2">  1        1 0.39697651E-01 0.18212652E+03</pdfrwt>
<pdfrwt beam="1">  1       -1 0.21546646E-01 0.18212652E+03</pdfrwt>
<totfact> 0.18690494E+03</totfact>
</mgrwt>
</event>
<event>
 4    1  0.8142558E-001  0.2016976E+03  0.7546771E-02  0.1148315E+00
          1   -1    0    0  502    0  0.00000000000E+00  0.00000000000E+00  0.35560560203E+03  0.35560560203E+03  0.00000000000E+00 0.  1.
         -1   -1    0    0    0  501 -0.00000000000E+00 -0.00000000000E+00 -0.14026722968E+03  0.14026722968E+03  0.00000000000E+00 0. -1.
          6    1    1    2  502    0 -0.62115946167E+02 -0.83033267789E+02  0.12004216978E+01  0.20170115354E+03  0.17300000000E+03 0. -1.
         -6    1    1    2    0  501  0.62115946167E+02  0.83033267789E+02  0.21413795065E+03  0.29417167817E+03  0.17300000000E+03 0.  1.
<mgrwt>
<rscale>  2 0.20169758E+03</rscale>
<asrwt>0</asrwt>
<pdfrwt beam="1">  1        1 0.54708554E-01 0.20169758E+03</pdfrwt>
<pdfrwt beam="2">  1       -1 0.21579574E-01 0.20169758E+03</pdfrwt>
<totfact> 0.12501726E+03</totfact>
</mgrwt>
</event>
<event>
 4    1  0.8142558E-001  0.1827442E+03  0.7546771E-02  0.1165173E+00
         -1   -1    0    0    0  501 -0.00000000000E+00  0.00000000000E+00  0.11326032854E+03  0.11326032854E+03  0.00000000000E+00 0. -1.
          1   -1    0    0  502    0  0.00000000000E+00 -0.00000000000E+00 -0.29881074745E+03  0.29881074745E+03  0.00000000000E+00 0.  1.
          6    1    1    2  502    0  0.55160164098E+02  0.20586036167E+02 -0.69070647637E+02  0.19536167217E+03  0.17300000000E+03 0. -1.
         -6    1    1    2    0  501 -0.55160164098E+02 -0.20586036167E+02 -0.11647977128E+03  0.21670940382E+03  0.17300000000E+03 0. -1.
<mgrwt>
<rscale>  2 0.18274416E+03</rscale>
<asrwt>0</asrwt>
<pdfrwt beam="2">  1        1 0.45970884E-01 0.18274416E+03</pdfrwt>
<pdfrwt beam="1">  1       -1 0.17424666E-01 0.18274416E+03</pdfrwt>
<totfact> 0.21923807E+03</totfact>
</mgrwt>
</event>
<event>
 4    1  0.8142558E-001  0.2129400E+03  0.7546771E-02  0.1139259E+00
          2   -1    0    0  502    0  0.00000000000E+00  0.00000000000E+00  0.14635271204E+04  0.14635271204E+04  0.00000000000E+00 0. -1.
         -2   -1    0    0    0  501 -0.00000000000E+00 -0.00000000000E+00 -0.31742030118E+02  0.31742030118E+02  0.00000000000E+00 0.  1.
          6    1    1    2  502    0  0.46743747242E+02  0.11501938280E+03  0.60022761624E+03  0.63688038722E+03  0.17300000000E+03 0.  1.
         -6    1    1    2    0  501 -0.46743747242E+02 -0.11501938280E+03  0.83155747404E+03  0.85838876330E+03  0.17300000000E+03 0. -1.
<mgrwt>
<rscale>  2 0.21293998E+03</rscale>
<asrwt>0</asrwt>
<pdfrwt beam="1">  1        2 0.22515797E+00 0.21293998E+03</pdfrwt>
<pdfrwt beam="2">  1       -2 0.48833904E-02 0.21293998E+03</pdfrwt>
<totfact> 0.28944670E+03</totfact>
</mgrwt>
</event>
<event>
 4    1  0.8142558E-001  0.1895665E+03  0.7546771E-02  0.1158853E+00
         -2   -1    0    0    0  501 -0.00000000000E+00  0.00000000000E+00  0.19765874029E+03  0.19765874029E+03  0.00000000000E+00 0. -1.
          2   -1    0    0  502    0  0.00000000000E+00 -0.00000000000E+00 -0.18210228285E+03  0.18210228285E+03  0.00000000000E+00 0.  1.
          6    1    1    2  502    0 -0.77440002219E+02 -0.30825954512E+01  0.11336875259E+00  0.18956652972E+03  0.17300000000E+03 0.  1.
         -6    1    1    2    0  501  0.77440002219E+02  0.30825954512E+01  0.15443088691E+02  0.19019449342E+03  0.17300000000E+03 0. -1.
<mgrwt>
<rscale>  2 0.18956650E+03</rscale>
<asrwt>0</asrwt>
<pdfrwt beam="2">  1        2 0.28015736E-01 0.18956650E+03</pdfrwt>
<pdfrwt beam="1">  1       -2 0.30409037E-01 0.18956650E+03</pdfrwt>
<totfact> 0.18629137E+03</totfact>
</mgrwt>
</event>
<event>
 4    1  0.8142558E-001  0.2454981E+03  0.7546771E-02  0.1116183E+00
          2   -1    0    0  502    0  0.00000000000E+00  0.00000000000E+00  0.52302666290E+03  0.52302666290E+03  0.00000000000E+00 0. -1.
         -2   -1    0    0    0  501 -0.00000000000E+00 -0.00000000000E+00 -0.13002780007E+03  0.13002780007E+03  0.00000000000E+00 0.  1.
          6    1    1    2  502    0  0.48933920116E+02 -0.16716994073E+03  0.86352329832E+02  0.26024227652E+03  0.17300000000E+03 0.  1.
         -6    1    1    2    0  501 -0.48933920116E+02  0.16716994073E+03  0.30664653300E+03  0.39281218645E+03  0.17300000000E+03 0. -1.
<mgrwt>
<rscale>  2 0.24549810E+03</rscale>
<asrwt>0</asrwt>
<pdfrwt beam="1">  1        2 0.80465640E-01 0.24549810E+03</pdfrwt>
<pdfrwt beam="2">  1       -2 0.20004277E-01 0.24549810E+03</pdfrwt>
<totfact> 0.12424475E+03</totfact>
</mgrwt>
</event>
<event>
 4    1  0.8142558E-001  0.1918750E+03  0.7546771E-02  0.1156781E+00
          2   -1    0    0  502    0  0.00000000000E+00  0.00000000000E+00  0.27177896120E+03  0.27177896120E+03  0.00000000000E+00 0. -1.
         -2   -1    0    0    0  501 -0.00000000000E+00 -0.00000000000E+00 -0.23660733413E+03  0.23660733413E+03  0.00000000000E+00 0.  1.
          6    1    1    2  502    0 -0.77248676444E+02  0.30325619808E+02 -0.14861014398E+03  0.24269523300E+03  0.17300000000E+03 0.  1.
         -6    1    1    2    0  501  0.77248676444E+02 -0.30325619808E+02  0.18378177105E+03  0.26569106233E+03  0.17300000000E+03 0. -1.
<mgrwt>
<rscale>  2 0.19187496E+03</rscale>
<asrwt>0</asrwt>
<pdfrwt beam="1">  1        2 0.41812148E-01 0.19187496E+03</pdfrwt>
<pdfrwt beam="2">  1       -2 0.36401129E-01 0.19187496E+03</pdfrwt>
<totfact> 0.86646660E+02</totfact>
</mgrwt>
</event>
<event>
 4    1  0.8142558E-001  0.2600579E+03  0.7546771E-02  0.1107108E+00
          2   -1    0    0  502    0  0.00000000000E+00  0.00000000000E+00  0.41486482604E+03  0.41486482604E+03  0.00000000000E+00 0.  1.
         -2   -1    0    0    0  501 -0.00000000000E+00 -0.00000000000E+00 -0.16393157050E+03  0.16393157050E+03  0.00000000000E+00 0. -1.
          6    1    1    2  502    0 -0.18492432235E+03 -0.59195309470E+02  0.10385274101E+03  0.28002764413E+03  0.17300000000E+03 0. -1.
         -6    1    1    2    0  501  0.18492432235E+03  0.59195309470E+02  0.14708051454E+03  0.29876875241E+03  0.17300000000E+03 0.  1.
<mgrwt>
<rscale>  2 0.26005786E+03</rscale>
<asrwt>0</asrwt>
<pdfrwt beam="1">  1        2 0.63825357E-01 0.26005786E+03</pdfrwt>
<pdfrwt beam="2">  1       -2 0.25220242E-01 0.26005786E+03</pdfrwt>
<totfact> 0.10740015E+03</totfact>
</mgrwt>
</event>
<event>
 4    1  0.8142558E-001  0.1759642E+03  0.7546771E-02  0.1171767E+00
          1   -1    0    0  502    0  0.00000000000E+00  0.00000000000E+00  0.35062089223E+03  0.35062089223E+03  0.00000000000E+00 0. -1.
         -1   -1    0    0    0  501 -0.00000000000E+00 -0.00000000000E+00 -0.11039079257E+03  0.11039079257E+03  0.00000000000E+00 0.  1.
          6    1    1    2  502    0  0.97042173975E+01 -0.30663170918E+02  0.17024026104E+02  0.17678580076E+03  0.17300000000E+03 0.  1.
         -6    1    1    2    0  501 -0.97042173975E+01  0.30663170918E+02  0.22320607356E+03  0.28422588404E+03  0.17300000000E+03 0. -1.
<mgrwt>
<rscale>  2 0.17596421E+03</rscale>
<asrwt>0</asrwt>
<pdfrwt beam="1">  1        1 0.53941675E-01 0.17596421E+03</pdfrwt>
<pdfrwt beam="2">  1       -1 0.16983199E-01 0.17596421E+03</pdfrwt>
<totfact> 0.18672571E+03</totfact>
</mgrwt>
</event>
<event>
 4    1  0.8142558E-001  0.4758178E+03  0.7546771E-02  0.1020291E+00
          2   -1    0    0  502    0  0.00000000000E+00  0.00000000000E+00  0.69796387770E+03  0.69796387770E+03  0.00000000000E+00 0.  1.
         -2   -1    0    0    0  501 -0.00000000000E+00 -0.00000000000E+00 -0.41846048435E+03  0.41846048435E+03  0.00000000000E+00 0. -1.
          6    1    1    2  502    0  0.39564319814E+03 -0.19985005630E+03 -0.12493466748E+03  0.49194639584E+03  0.17300000000E+03 0. -1.
         -6    1    1    2    0  501 -0.39564319814E+03  0.19985005630E+03  0.40443806083E+03  0.62447796621E+03  0.17300000000E+03 0.  1.
<mgrwt>
<rscale>  2 0.47581781E+03</rscale>
<asrwt>0</asrwt>
<pdfrwt beam="1">  1        2 0.10737906E+00 0.47581781E+03</pdfrwt>
<pdfrwt beam="2">  1       -2 0.64378536E-01 0.47581781E+03</pdfrwt>
<totfact> 0.94754759E+01</totfact>
</mgrwt>
</event>
<event>
 4    1  0.8142558E-001  0.1738246E+03  0.7546771E-02  0.1173917E+00
         -4   -1    0    0    0  501 -0.00000000000E+00  0.00000000000E+00  0.46252560545E+03  0.46252560545E+03  0.00000000000E+00 0. -1.
          4   -1    0    0  502    0  0.00000000000E+00 -0.00000000000E+00 -0.67349638688E+02  0.67349638688E+02  0.00000000000E+00 0.  1.
          6    1    1    2  502    0  0.10938607563E+02  0.12897723618E+02  0.24351088586E+03  0.29918649024E+03  0.17300000000E+03 0. -1.
         -6    1    1    2    0  501 -0.10938607563E+02 -0.12897723618E+02  0.15166508090E+03  0.23068875390E+03  0.17300000000E+03 0.  1.
<mgrwt>
<rscale>  2 0.17382464E+03</rscale>
<asrwt>0</asrwt>
<pdfrwt beam="2">  1        4 0.10361483E-01 0.17382464E+03</pdfrwt>
<pdfrwt beam="1">  1       -4 0.71157784E-01 0.17382464E+03</pdfrwt>
<totfact> 0.22870107E+02</totfact>
</mgrwt>
</event>
<event>
 4    1  0.8142558E-001  0.1826130E+03  0.7546771E-02  0.1165298E+00
         -2   -1    0    0    0  501 -0.00000000000E+00  0.00000000000E+00  0.15202527515E+03  0.15202527515E+03  0.00000000000E+00 0. -1.
          2   -1    0    0  502    0  0.00000000000E+00 -0.00000000000E+00 -0.53276044914E+03  0.53276044914E+03  0.00000000000E+00 0.  1.
          6    1    1    2  502    0 -0.14085231368E+02 -0.56745978953E+02  0.72242864088E+02  0.19638363293E+03  0.17300000000E+03 0. -1.
         -6    1    1    2    0  501  0.14085231368E+02  0.56745978953E+02 -0.45297803807E+03  0.48840209136E+03  0.17300000000E+03 0.  1.
<mgrwt>
<rscale>  2 0.18261298E+03</rscale>
<asrwt>0</asrwt>
<pdfrwt beam="2">  1        2 0.81963144E-01 0.18261298E+03</pdfrwt>
<pdfrwt beam="1">  1       -2 0.23388505E-01 0.18261298E+03</pdfrwt>
<totfact> 0.92680527E+02</totfact>
</mgrwt>
</event>
<event>
 4    1  0.8142558E-001  0.2155939E+03  0.7546771E-02  0.1137211E+00
          1   -1    0    0  502    0  0.00000000000E+00  0.00000000000E+00  0.14516767874E+04  0.14516767874E+04  0.00000000000E+00 0. -1.
         -1   -1    0    0    0  501 -0.00000000000E+00 -0.00000000000E+00 -0.69628248194E+02  0.69628248194E+02  0.00000000000E+00 0.  1.
          6    1    1    2  502    0  0.24008684783E+02  0.12639343759E+03  0.12500643826E+04  0.12685194830E+04  0.17300000000E+03 0. -1.
         -6    1    1    2    0  501 -0.24008684783E+02 -0.12639343759E+03  0.13198415656E+03  0.25278555258E+03  0.17300000000E+03 0.  1.
<mgrwt>
<rscale>  2 0.21559387E+03</rscale>
<asrwt>0</asrwt>
<pdfrwt beam="1">  1        1 0.22333487E+00 0.21559387E+03</pdfrwt>
<pdfrwt beam="2">  1       -1 0.10712039E-01 0.21559387E+03</pdfrwt>
<totfact> 0.42676976E+02</totfact>
</mgrwt>
</event>
<event>
 4    1  0.8142558E-001  0.1973167E+03  0.7546771E-02  0.1152023E+00
          2   -1    0    0  502    0  0.00000000000E+00  0.00000000000E+00  0.66513479319E+03  0.66513479319E+03  0.00000000000E+00 0. -1.
         -2   -1    0    0    0  501 -0.00000000000E+00 -0.00000000000E+00 -0.73039344333E+02  0.73039344333E+02  0.00000000000E+00 0.  1.
          6    1    1    2  502    0 -0.92576807021E+02 -0.20842449598E+02  0.46052078364E+03  0.50101224044E+03  0.17300000000E+03 0. -1.
         -6    1    1    2    0  501  0.92576807021E+02  0.20842449598E+02  0.13157466522E+03  0.23716189709E+03  0.17300000000E+03 0.  1.
<mgrwt>
<rscale>  2 0.19731668E+03</rscale>
<asrwt>0</asrwt>
<pdfrwt beam="1">  1        2 0.10232843E+00 0.19731668E+03</pdfrwt>
<pdfrwt beam="2">  1       -2 0.11236823E-01 0.19731668E+03</pdfrwt>
<totfact> 0.24338485E+03</totfact>
</mgrwt>
</event>
<event>
 4    1  0.8142558E-001  0.1847417E+03  0.7546771E-02  0.1163291E+00
         -2   -1    0    0    0  501 -0.00000000000E+00  0.00000000000E+00  0.92634447437E+02  0.92634447437E+02  0.00000000000E+00 0. -1.
          2   -1    0    0  502    0  0.00000000000E+00 -0.00000000000E+00 -0.37944127669E+03  0.37944127669E+03  0.00000000000E+00 0.  1.
          6    1    1    2  502    0 -0.17369589292E+02 -0.62440416189E+02 -0.10319787351E+03  0.21161122206E+03  0.17300000000E+03 0. -1.
         -6    1    1    2    0  501  0.17369589292E+02  0.62440416189E+02 -0.18360895574E+03  0.26046450206E+03  0.17300000000E+03 0. -1.
<mgrwt>
<rscale>  2 0.18474173E+03</rscale>
<asrwt>0</asrwt>
<pdfrwt beam="2">  1        2 0.58375581E-01 0.18474173E+03</pdfrwt>
<pdfrwt beam="1">  1       -2 0.14251453E-01 0.18474173E+03</pdfrwt>
<totfact> 0.30981946E+03</totfact>
</mgrwt>
</event>
<event>
 4    1  0.8142558E-001  0.1923695E+03  0.7546771E-02  0.1156341E+00
          2   -1    0    0  502    0  0.00000000000E+00  0.00000000000E+00  0.27286262853E+03  0.27286262853E+03  0.00000000000E+00 0. -1.
         -2   -1    0    0    0  501 -0.00000000000E+00 -0.00000000000E+00 -0.14863794504E+03  0.14863794504E+03  0.00000000000E+00 0.  1.
          6    1    1    2  502    0  0.70841095974E+02 -0.45371349513E+02 -0.25405717206E+00  0.19236965660E+03  0.17300000000E+03 0.  1.
         -6    1    1    2    0  501 -0.70841095974E+02  0.45371349513E+02  0.12447874066E+03  0.22913091697E+03  0.17300000000E+03 0. -1.
<mgrwt>
<rscale>  2 0.19236949E+03</rscale>
<asrwt>0</asrwt>
<pdfrwt beam="1">  1        2 0.41978866E-01 0.19236949E+03</pdfrwt>
<pdfrwt beam="2">  1       -2 0.22867376E-01 0.19236949E+03</pdfrwt>
<totfact> 0.19932955E+03</totfact>
</mgrwt>
</event>
<event>
 4    1  0.8142558E-001  0.2530096E+03  0.7546771E-02  0.1111417E+00
         -2   -1    0    0    0  501 -0.00000000000E+00  0.00000000000E+00  0.17190145536E+03  0.17190145536E+03  0.00000000000E+00 0.  1.
          2   -1    0    0  502    0  0.00000000000E+00 -0.00000000000E+00 -0.37276299057E+03  0.37276299057E+03  0.00000000000E+00 0. -1.
          6    1    1    2  502    0 -0.15582831082E+03 -0.99007006722E+02 -0.10908103733E+03  0.27552227231E+03  0.17300000000E+03 0. -1.
         -6    1    1    2    0  501  0.15582831082E+03  0.99007006722E+02 -0.91780497870E+02  0.26914217362E+03  0.17300000000E+03 0. -1.
<mgrwt>
<rscale>  2 0.25300958E+03</rscale>
<asrwt>0</asrwt>
<pdfrwt beam="2">  1        2 0.57348152E-01 0.25300958E+03</pdfrwt>
<pdfrwt beam="1">  1       -2 0.26446378E-01 0.25300958E+03</pdfrwt>
<totfact> 0.11089341E+03</totfact>
</mgrwt>
</event>
<event>
 4    1  0.8142558E-001  0.3150037E+03  0.7546771E-02  0.1077972E+00
          2   -1    0    0  502    0  0.00000000000E+00  0.00000000000E+00  0.14614837159E+04  0.14614837159E+04  0.00000000000E+00 0.  1.
         -2   -1    0    0    0  501 -0.00000000000E+00 -0.00000000000E+00 -0.83413128816E+02  0.83413128816E+02  0.00000000000E+00 0. -1.
          6    1    1    2  502    0 -0.18286586142E+03 -0.18936313196E+03  0.10222108176E+04  0.10696458642E+04  0.17300000000E+03 0.  1.
         -6    1    1    2    0  501  0.18286586142E+03  0.18936313196E+03  0.35585976947E+03  0.47525098058E+03  0.17300000000E+03 0. -1.
<mgrwt>
<rscale>  2 0.31500368E+03</rscale>
<asrwt>0</asrwt>
<pdfrwt beam="1">  1        2 0.22484363E+00 0.31500368E+03</pdfrwt>
<pdfrwt beam="2">  1       -2 0.12832790E-01 0.31500368E+03</pdfrwt>
<totfact> 0.63326318E+02</totfact>
</mgrwt>
</event>
<event>
 4    1  0.8142558E-001  0.1743329E+03  0.7546771E-02  0.1173403E+00
         -1   -1    0    0    0  501 -0.00000000000E+00  0.00000000000E+00  0.35284804283E+03  0.35284804283E+03  0.00000000000E+00 0.  1.
          1   -1    0    0  502    0  0.00000000000E+00 -0.00000000000E+00 -0.87429841565E+02  0.87429841565E+02  0.00000000000E+00 0. -1.
          6    1    1    2  502    0 -0.37057663921E+01 -0.21195163326E+02  0.10590139644E+03  0.20397811996E+03  0.17300000000E+03 0. -1.
         -6    1    1    2    0  501  0.37057663921E+01  0.21195163326E+02  0.15951680483E+03  0.23629976444E+03  0.17300000000E+03 0.  1.
<mgrwt>
<rscale>  2 0.17433292E+03</rscale>
<asrwt>0</asrwt>
<pdfrwt beam="2">  1        1 0.13450745E-01 0.17433292E+03</pdfrwt>
<pdfrwt beam="1">  1       -1 0.54284314E-01 0.17433292E+03</pdfrwt>
<totfact> 0.14963328E+03</totfact>
</mgrwt>
</event>
<event>
 4    1  0.8142558E-001  0.2509469E+03  0.7546771E-02  0.1112708E+00
          1   -1    0    0  502    0  0.00000000000E+00  0.00000000000E+00  0.20633851396E+04  0.20633851396E+04  0.00000000000E+00 0. -1.
         -1   -1    0    0    0  501 -0.00000000000E+00 -0.00000000000E+00 -0.31081939635E+02  0.31081939635E+02  0.00000000000E+00 0.  1.
          6    1    1    2  502    0  0.13651296326E+03 -0.12003991327E+03  0.87533255755E+03  0.91059401284E+03  0.17300000000E+03 0.  1.
         -6    1    1    2    0  501 -0.13651296326E+03  0.12003991327E+03  0.11569706424E+04  0.11838730663E+04  0.17300000000E+03 0. -1.
<mgrwt>
<rscale>  2 0.25094695E+03</rscale>
<asrwt>0</asrwt>
<pdfrwt beam="1">  1        1 0.31744376E+00 0.25094695E+03</pdfrwt>
<pdfrwt beam="2">  1       -1 0.47818385E-02 0.25094695E+03</pdfrwt>
<totfact> 0.57899632E+02</totfact>
</mgrwt>
</event>
<event>
 4    1  0.8142558E-001  0.1890941E+03  0.7546771E-02  0.1159281E+00
         -2   -1    0    0    0  501 -0.00000000000E+00  0.00000000000E+00  0.49334086842E+03  0.49334086842E+03  0.00000000000E+00 0. -1.
          2   -1    0    0  502    0  0.00000000000E+00 -0.00000000000E+00 -0.12317000462E+03  0.12317000462E+03  0.00000000000E+00 0.  1.
          6    1    1    2  502    0  0.20049292973E+01  0.76312261156E+02  0.38283979565E+03  0.42699284546E+03  0.17300000000E+03 0. -1.
         -6    1    1    2    0  501 -0.20049292973E+01 -0.76312261156E+02 -0.12668931846E+02  0.18951802758E+03  0.17300000000E+03 0.  1.
<mgrwt>
<rscale>  2 0.18909411E+03</rscale>
<asrwt>0</asrwt>
<pdfrwt beam="2">  1        2 0.18949232E-01 0.18909411E+03</pdfrwt>
<pdfrwt beam="1">  1       -2 0.75898594E-01 0.18909411E+03</pdfrwt>
<totfact> 0.47226113E+02</totfact>
</mgrwt>
</event>
<event>
 4    1  0.8142558E-001  0.1769640E+03  0.7546771E-02  0.1170774E+00
         -1   -1    0    0    0  501 -0.00000000000E+00  0.00000000000E+00  0.14048500835E+03  0.14048500835E+03  0.00000000000E+00 0. -1.
          1   -1    0    0  502    0  0.00000000000E+00 -0.00000000000E+00 -0.22314452841E+03  0.22314452841E+03  0.00000000000E+00 0.  1.
          6    1    1    2  502    0  0.10565560137E+02  0.35715942406E+02 -0.47156933871E+02  0.18313938958E+03  0.17300000000E+03 0.  1.
         -6    1    1    2    0  501 -0.10565560137E+02 -0.35715942406E+02 -0.35502586185E+02  0.18049014718E+03  0.17300000000E+03 0. -1.
<mgrwt>
<rscale>  2 0.17696401E+03</rscale>
<asrwt>0</asrwt>
<pdfrwt beam="2">  1        1 0.34329927E-01 0.17696401E+03</pdfrwt>
<pdfrwt beam="1">  1       -1 0.21613078E-01 0.17696401E+03</pdfrwt>
<totfact> 0.22273167E+03</totfact>
</mgrwt>
</event>
<event>
 4    1  0.8142558E-001  0.2370725E+03  0.7546771E-02  0.1121759E+00
          1   -1    0    0  502    0  0.00000000000E+00  0.00000000000E+00  0.13316108658E+04  0.13316108658E+04  0.00000000000E+00 0.  1.
         -1   -1    0    0    0  501 -0.00000000000E+00 -0.00000000000E+00 -0.42253020611E+02  0.42253020611E+02  0.00000000000E+00 0. -1.
          6    1    1    2  502    0 -0.99048037998E+02 -0.12831152877E+03  0.62201997792E+03  0.66566674483E+03  0.17300000000E+03 0.  1.
         -6    1    1    2    0  501  0.99048037998E+02  0.12831152877E+03  0.66733786728E+03  0.70819714158E+03  0.17300000000E+03 0. -1.
<mgrwt>
<rscale>  2 0.23707248E+03</rscale>
<asrwt>0</asrwt>
<pdfrwt beam="1">  1        1 0.20486318E+00 0.23707248E+03</pdfrwt>
<pdfrwt beam="2">  1       -1 0.65004657E-02 0.23707248E+03</pdfrwt>
<totfact> 0.11010689E+03</totfact>
</mgrwt>
</event>
<event>
 4    1  0.8142558E-001  0.2082988E+03  0.7546771E-02  0.1142920E+00
         -2   -1    0    0    0  501 -0.00000000000E+00  0.00000000000E+00  0.36836142275E+02  0.36836142275E+02  0.00000000000E+00 0.  1.
          2   -1    0    0  502    0  0.00000000000E+00 -0.00000000000E+00 -0.12056884501E+04  0.12056884501E+04  0.00000000000E+00 0. -1.
          6    1    1    2  502    0  0.48195380329E+02  0.10553013774E+03 -0.49006836335E+03  0.53249920696E+03  0.17300000000E+03 0.  1.
         -6    1    1    2    0  501 -0.48195380329E+02 -0.10553013774E+03 -0.67878394450E+03  0.71002538544E+03  0.17300000000E+03 0. -1.
<mgrwt>
<rscale>  2 0.20829883E+03</rscale>
<asrwt>0</asrwt>
<pdfrwt beam="2">  1        2 0.18549054E+00 0.20829883E+03</pdfrwt>
<pdfrwt beam="1">  1       -2 0.56670985E-02 0.20829883E+03</pdfrwt>
<totfact> 0.31916257E+03</totfact>
</mgrwt>
</event>
<event>
 4    1  0.8142558E-001  0.2033695E+03  0.7546771E-02  0.1146927E+00
         -1   -1    0    0    0  501 -0.00000000000E+00  0.00000000000E+00  0.18906663749E+03  0.18906663749E+03  0.00000000000E+00 0.  1.
          1   -1    0    0  502    0  0.00000000000E+00 -0.00000000000E+00 -0.22167830359E+03  0.22167830359E+03  0.00000000000E+00 0. -1.
          6    1    1    2  502    0  0.10457879225E+03  0.22213270217E+02  0.72807152126E+01  0.20349978372E+03  0.17300000000E+03 0.  1.
         -6    1    1    2    0  501 -0.10457879225E+03 -0.22213270217E+02 -0.39892381307E+02  0.20724515736E+03  0.17300000000E+03 0. -1.
<mgrwt>
<rscale>  2 0.20336950E+03</rscale>
<asrwt>0</asrwt>
<pdfrwt beam="2">  1        1 0.34104354E-01 0.20336950E+03</pdfrwt>
<pdfrwt beam="1">  1       -1 0.29087175E-01 0.20336950E+03</pdfrwt>
<totfact> 0.13778529E+03</totfact>
</mgrwt>
</event>
<event>
 4    1  0.8142558E-001  0.4328494E+03  0.7546771E-02  0.1032964E+00
          2   -1    0    0  502    0  0.00000000000E+00  0.00000000000E+00  0.98087159336E+03  0.98087159336E+03  0.00000000000E+00 0.  1.
         -2   -1    0    0    0  501 -0.00000000000E+00 -0.00000000000E+00 -0.19276112115E+03  0.19276112115E+03  0.00000000000E+00 0. -1.
          6    1    1    2  502    0 -0.20295902079E+03  0.34093580554E+03  0.44994844454E+03  0.62434941368E+03  0.17300000000E+03 0.  1.
         -6    1    1    2    0  501  0.20295902079E+03 -0.34093580554E+03  0.33816202767E+03  0.54928330083E+03  0.17300000000E+03 0. -1.
<mgrwt>
<rscale>  2 0.43284938E+03</rscale>
<asrwt>0</asrwt>
<pdfrwt beam="1">  1        2 0.15090332E+00 0.43284938E+03</pdfrwt>
<pdfrwt beam="2">  1       -2 0.29655558E-01 0.43284938E+03</pdfrwt>
<totfact> 0.27946157E+02</totfact>
</mgrwt>
</event>
<event>
 4    1  0.8142558E-001  0.1997701E+03  0.7546771E-02  0.1149933E+00
         -2   -1    0    0    0  501 -0.00000000000E+00  0.00000000000E+00  0.40804467323E+02  0.40804467323E+02  0.00000000000E+00 0. -1.
          2   -1    0    0  502    0  0.00000000000E+00 -0.00000000000E+00 -0.10212636144E+04  0.10212636144E+04  0.00000000000E+00 0.  1.
          6    1    1    2  502    0 -0.91105210755E+02  0.40974964137E+02 -0.59948680195E+03  0.63189598260E+03  0.17300000000E+03 0.  1.
         -6    1    1    2    0  501  0.91105210755E+02 -0.40974964137E+02 -0.38097234512E+03  0.43017209912E+03  0.17300000000E+03 0.  1.
<mgrwt>
<rscale>  2 0.19977014E+03</rscale>
<asrwt>0</asrwt>
<pdfrwt beam="2">  1        2 0.15711747E+00 0.19977014E+03</pdfrwt>
<pdfrwt beam="1">  1       -2 0.62776106E-02 0.19977014E+03</pdfrwt>
<totfact> 0.34893233E+03</totfact>
</mgrwt>
</event>
<event>
 4    1  0.8142558E-001  0.2537373E+03  0.7546771E-02  0.1110965E+00
          2   -1    0    0  502    0  0.00000000000E+00  0.00000000000E+00  0.24943902336E+04  0.24943902336E+04  0.00000000000E+00 0. -1.
         -2   -1    0    0    0  501 -0.00000000000E+00 -0.00000000000E+00 -0.25953426931E+02  0.25953426931E+02  0.00000000000E+00 0.  1.
          6    1    1    2  502    0  0.18554311444E+03  0.52305551566E+01  0.13275846209E+04  0.13516151566E+04  0.17300000000E+03 0. -1.
         -6    1    1    2    0  501 -0.18554311444E+03 -0.52305551566E+01  0.11408521858E+04  0.11687285039E+04  0.17300000000E+03 0.  1.
<mgrwt>
<rscale>  2 0.25373728E+03</rscale>
<asrwt>0</asrwt>
<pdfrwt beam="1">  1        2 0.38375215E+00 0.25373728E+03</pdfrwt>
<pdfrwt beam="2">  1       -2 0.39928369E-02 0.25373728E+03</pdfrwt>
<totfact> 0.11157545E+03</totfact>
</mgrwt>
</event>
<event>
 4    1  0.8142558E-001  0.2037702E+03  0.7546771E-02  0.1146597E+00
          1   -1    0    0  502    0  0.00000000000E+00  0.00000000000E+00  0.87298361068E+03  0.87298361068E+03  0.00000000000E+00 0. -1.
         -1   -1    0    0    0  501 -0.00000000000E+00 -0.00000000000E+00 -0.63182116501E+02  0.63182116501E+02  0.00000000000E+00 0.  1.
          6    1    1    2  502    0  0.10705556413E+03 -0.11506216103E+02  0.63762671955E+03  0.66939533932E+03  0.17300000000E+03 0. -1.
         -6    1    1    2    0  501 -0.10705556413E+03  0.11506216103E+02  0.17217477463E+03  0.26677038786E+03  0.17300000000E+03 0. -1.
<mgrwt>
<rscale>  2 0.20377018E+03</rscale>
<asrwt>0</asrwt>
<pdfrwt beam="1">  1        1 0.13430516E+00 0.20377018E+03</pdfrwt>
<pdfrwt beam="2">  1       -1 0.97203262E-02 0.20377018E+03</pdfrwt>
<totfact> 0.12791422E+03</totfact>
</mgrwt>
</event>
<event>
 4    1  0.8142558E-001  0.1877438E+03  0.7546771E-02  0.1160512E+00
         -1   -1    0    0    0  501 -0.00000000000E+00  0.00000000000E+00  0.11259242257E+04  0.11259242257E+04  0.00000000000E+00 0.  1.
          1   -1    0    0  502    0  0.00000000000E+00 -0.00000000000E+00 -0.37248061229E+02  0.37248061229E+02  0.00000000000E+00 0. -1.
          6    1    1    2  502    0 -0.39236978557E+02 -0.61475063942E+02  0.77663620496E+03  0.79900658247E+03  0.17300000000E+03 0.  1.
         -6    1    1    2    0  501  0.39236978557E+02  0.61475063942E+02  0.31203995951E+03  0.36416570446E+03  0.17300000000E+03 0. -1.
<mgrwt>
<rscale>  2 0.18774377E+03</rscale>
<asrwt>0</asrwt>
<pdfrwt beam="2">  1        1 0.57304718E-02 0.18774377E+03</pdfrwt>
<pdfrwt beam="1">  1       -1 0.17321909E+00 0.18774377E+03</pdfrwt>
<totfact> 0.35204724E+02</totfact>
</mgrwt>
</event>
<event>
 4    1  0.8142558E-001  0.2207394E+03  0.7546771E-02  0.1133333E+00
          2   -1    0    0  502    0  0.00000000000E+00  0.00000000000E+00  0.49634226828E+03  0.49634226828E+03  0.00000000000E+00 0. -1.
         -2   -1    0    0    0  501 -0.00000000000E+00 -0.00000000000E+00 -0.11400098052E+03  0.11400098052E+03  0.00000000000E+00 0.  1.
          6    1    1    2  502    0  0.10799741023E+03  0.84459657857E+02  0.77448500604E+02  0.23393192315E+03  0.17300000000E+03 0.  1.
         -6    1    1    2    0  501 -0.10799741023E+03 -0.84459657857E+02  0.30489278715E+03  0.37641132565E+03  0.17300000000E+03 0. -1.
<mgrwt>
<rscale>  2 0.22073938E+03</rscale>
<asrwt>0</asrwt>
<pdfrwt beam="1">  1        2 0.76360348E-01 0.22073938E+03</pdfrwt>
<pdfrwt beam="2">  1       -2 0.17538613E-01 0.22073938E+03</pdfrwt>
<totfact> 0.16450803E+03</totfact>
</mgrwt>
</event>
<event>
 4    1  0.8142558E-001  0.1896050E+03  0.7546771E-02  0.1158818E+00
         -2   -1    0    0    0  501 -0.00000000000E+00  0.00000000000E+00  0.83956879896E+02  0.83956879896E+02  0.00000000000E+00 0. -1.
          2   -1    0    0  502    0  0.00000000000E+00 -0.00000000000E+00 -0.62636264441E+03  0.62636264441E+03  0.00000000000E+00 0.  1.
          6    1    1    2  502    0  0.76191616378E+02  0.14693258026E+02 -0.47097064401E+03  0.50770404938E+03  0.17300000000E+03 0.  1.
         -6    1    1    2    0  501 -0.76191616378E+02 -0.14693258026E+02 -0.71435120504E+02  0.20261547492E+03  0.17300000000E+03 0. -1.
<mgrwt>
<rscale>  2 0.18960500E+03</rscale>
<asrwt>0</asrwt>
<pdfrwt beam="2">  1        2 0.96363479E-01 0.18960500E+03</pdfrwt>
<pdfrwt beam="1">  1       -2 0.12916444E-01 0.18960500E+03</pdfrwt>
<totfact> 0.20851989E+03</totfact>
</mgrwt>
</event>
<event>
 4    1  0.8142558E-001  0.1979750E+03  0.7546771E-02  0.1151459E+00
          2   -1    0    0  502    0  0.00000000000E+00  0.00000000000E+00  0.13929754583E+04  0.13929754583E+04  0.00000000000E+00 0.  1.
         -2   -1    0    0    0  501 -0.00000000000E+00 -0.00000000000E+00 -0.43150698941E+02  0.43150698941E+02  0.00000000000E+00 0. -1.
          6    1    1    2  502    0 -0.60079654561E+01 -0.96067627738E+02  0.25135406333E+03  0.31995773143E+03  0.17300000000E+03 0. -1.
         -6    1    1    2    0  501  0.60079654561E+01  0.96067627738E+02  0.10984706960E+04  0.11161684258E+04  0.17300000000E+03 0.  1.
<mgrwt>
<rscale>  2 0.19797496E+03</rscale>
<asrwt>0</asrwt>
<pdfrwt beam="1">  1        2 0.21430388E+00 0.19797496E+03</pdfrwt>
<pdfrwt beam="2">  1       -2 0.66385701E-02 0.19797496E+03</pdfrwt>
<totfact> 0.19753282E+03</totfact>
</mgrwt>
</event>
<event>
 4    1  0.8142558E-001  0.2932069E+03  0.7546771E-02  0.1088687E+00
          1   -1    0    0  502    0  0.00000000000E+00  0.00000000000E+00  0.14347858350E+03  0.14347858350E+03  0.00000000000E+00 0.  1.
         -1   -1    0    0    0  501 -0.00000000000E+00 -0.00000000000E+00 -0.70546651062E+03  0.70546651062E+03  0.00000000000E+00 0. -1.
          6    1    1    2  502    0 -0.21042746871E+03 -0.10845080186E+03 -0.11623877038E+03  0.31540727282E+03  0.17300000000E+03 0.  1.
         -6    1    1    2    0  501  0.21042746871E+03  0.10845080186E+03 -0.44574915675E+03  0.53353782130E+03  0.17300000000E+03 0. -1.
<mgrwt>
<rscale>  2 0.29320692E+03</rscale>
<asrwt>0</asrwt>
<pdfrwt beam="1">  1        1 0.22073629E-01 0.29320692E+03</pdfrwt>
<pdfrwt beam="2">  1       -1 0.10853331E+00 0.29320692E+03</pdfrwt>
<totfact> 0.18860500E+02</totfact>
</mgrwt>
</event>
<event>
 4    1  0.8142558E-001  0.1764022E+03  0.7546771E-02  0.1171331E+00
         -2   -1    0    0    0  501 -0.00000000000E+00  0.00000000000E+00  0.72095037521E+02  0.72095037521E+02  0.00000000000E+00 0. -1.
          2   -1    0    0  502    0  0.00000000000E+00 -0.00000000000E+00 -0.48979753448E+03  0.48979753448E+03  0.00000000000E+00 0.  1.
          6    1    1    2  502    0  0.24738295477E+02 -0.24015833815E+02 -0.30567643317E+03  0.35292467374E+03  0.17300000000E+03 0.  1.
         -6    1    1    2    0  501 -0.24738295477E+02  0.24015833815E+02 -0.11202606379E+03  0.20896789827E+03  0.17300000000E+03 0. -1.
<mgrwt>
<rscale>  2 0.17640222E+03</rscale>
<asrwt>0</asrwt>
<pdfrwt beam="2">  1        2 0.75353465E-01 0.17640222E+03</pdfrwt>
<pdfrwt beam="1">  1       -2 0.11091545E-01 0.17640222E+03</pdfrwt>
<totfact> 0.35115055E+03</totfact>
</mgrwt>
</event>
<event>
 4    1  0.8142558E-001  0.1788294E+03  0.7546771E-02  0.1168941E+00
          1   -1    0    0  502    0  0.00000000000E+00  0.00000000000E+00  0.49977931968E+03  0.49977931968E+03  0.00000000000E+00 0. -1.
         -1   -1    0    0    0  501 -0.00000000000E+00 -0.00000000000E+00 -0.13894424796E+03  0.13894424796E+03  0.00000000000E+00 0.  1.
          6    1    1    2  502    0 -0.12037379399E+02 -0.43658444278E+02  0.41498410727E+03  0.45187583200E+03  0.17300000000E+03 0. -1.
         -6    1    1    2    0  501  0.12037379399E+02  0.43658444278E+02 -0.54149035549E+02  0.18684773563E+03  0.17300000000E+03 0.  1.
<mgrwt>
<rscale>  2 0.17882941E+03</rscale>
<asrwt>0</asrwt>
<pdfrwt beam="1">  1        1 0.76889125E-01 0.17882941E+03</pdfrwt>
<pdfrwt beam="2">  1       -1 0.21376038E-01 0.17882941E+03</pdfrwt>
<totfact> 0.81885157E+02</totfact>
</mgrwt>
</event>
<event>
 4    1  0.8142558E-001  0.1802944E+03  0.7546771E-02  0.1167518E+00
         -1   -1    0    0    0  501 -0.00000000000E+00  0.00000000000E+00  0.23915734063E+02  0.23915734063E+02  0.00000000000E+00 0. -1.
          1   -1    0    0  502    0  0.00000000000E+00 -0.00000000000E+00 -0.14614775239E+04  0.14614775239E+04  0.00000000000E+00 0.  1.
          6    1    1    2  502    0 -0.11056102635E+02  0.49546301861E+02 -0.91526279817E+03  0.93285157616E+03  0.17300000000E+03 0. -1.
         -6    1    1    2    0  501  0.11056102635E+02 -0.49546301861E+02 -0.52229899172E+03  0.55254168185E+03  0.17300000000E+03 0. -1.
<mgrwt>
<rscale>  2 0.18029441E+03</rscale>
<asrwt>0</asrwt>
<pdfrwt beam="2">  1        1 0.22484274E+00 0.18029441E+03</pdfrwt>
<pdfrwt beam="1">  1       -1 0.36793429E-02 0.18029441E+03</pdfrwt>
<totfact> 0.21131771E+03</totfact>
</mgrwt>
</event>
<event>
 4    1  0.8142558E-001  0.1736227E+03  0.7546771E-02  0.1174122E+00
         -2   -1    0    0    0  501 -0.00000000000E+00  0.00000000000E+00  0.53664116280E+02  0.53664116280E+02  0.00000000000E+00 0. -1.
          2   -1    0    0  502    0  0.00000000000E+00 -0.00000000000E+00 -0.56962730414E+03  0.56962730414E+03  0.00000000000E+00 0.  1.
          6    1    1    2  502    0  0.34355065953E+01  0.14284403934E+02 -0.22129119155E+03  0.28127324501E+03  0.17300000000E+03 0. -1.
         -6    1    1    2    0  501 -0.34355065953E+01 -0.14284403934E+02 -0.29467199631E+03  0.34201817541E+03  0.17300000000E+03 0. -1.
<mgrwt>
<rscale>  2 0.17362271E+03</rscale>
<asrwt>0</asrwt>
<pdfrwt beam="2">  1        2 0.87634978E-01 0.17362271E+03</pdfrwt>
<pdfrwt beam="1">  1       -2 0.82560171E-02 0.17362271E+03</pdfrwt>
<totfact> 0.47186707E+03</totfact>
</mgrwt>
</event>
<event>
 4    1  0.8142558E-001  0.2105957E+03  0.7546771E-02  0.1141095E+00
         -1   -1    0    0    0  501 -0.00000000000E+00  0.00000000000E+00  0.25859828714E+02  0.25859828714E+02  0.00000000000E+00 0. -1.
          1   -1    0    0  502    0  0.00000000000E+00 -0.00000000000E+00 -0.17333415767E+04  0.17333415767E+04  0.00000000000E+00 0.  1.
          6    1    1    2  502    0  0.45622160173E+02 -0.11108639034E+03 -0.94413105253E+03  0.96733345438E+03  0.17300000000E+03 0.  1.
         -6    1    1    2    0  501 -0.45622160173E+02  0.11108639034E+03 -0.76335069549E+03  0.79186795106E+03  0.17300000000E+03 0. -1.
<mgrwt>
<rscale>  2 0.21059574E+03</rscale>
<asrwt>0</asrwt>
<pdfrwt beam="2">  1        1 0.26666787E+00 0.21059574E+03</pdfrwt>
<pdfrwt beam="1">  1       -1 0.39784362E-02 0.21059574E+03</pdfrwt>
<totfact> 0.12512157E+03</totfact>
</mgrwt>
</event>
<event>
 4    1  0.8142558E-001  0.5427061E+03  0.7546771E-02  0.1003196E+00
          1   -1    0    0  502    0  0.00000000000E+00  0.00000000000E+00  0.10097962131E+04  0.10097962131E+04  0.00000000000E+00 0. -1.
         -1   -1    0    0    0  501 -0.00000000000E+00 -0.00000000000E+00 -0.33982217923E+03  0.33982217923E+03  0.00000000000E+00 0.  1.
          6    1    1    2  502    0  0.48451602023E+03 -0.17275753439E+03  0.58899721047E+03  0.80090427236E+03  0.17300000000E+03 0. -1.
         -6    1    1    2    0  501 -0.48451602023E+03  0.17275753439E+03  0.80976823428E+02  0.54871411999E+03  0.17300000000E+03 0.  1.
<mgrwt>
<rscale>  2 0.54270613E+03</rscale>
<asrwt>0</asrwt>
<pdfrwt beam="1">  1        1 0.15535326E+00 0.54270613E+03</pdfrwt>
<pdfrwt beam="2">  1       -1 0.52280336E-01 0.54270613E+03</pdfrwt>
<totfact> 0.57385522E+01</totfact>
</mgrwt>
</event>
<event>
 4    1  0.8142558E-001  0.2015503E+03  0.7546771E-02  0.1148438E+00
         -1   -1    0    0    0  501 -0.00000000000E+00  0.00000000000E+00  0.19999886917E+02  0.19999886917E+02  0.00000000000E+00 0.  1.
          1   -1    0    0  502    0  0.00000000000E+00 -0.00000000000E+00 -0.20401936348E+04  0.20401936348E+04  0.00000000000E+00 0. -1.
          6    1    1    2  502    0 -0.11268587289E+02 -0.10279360995E+03 -0.94146444657E+03  0.96279686927E+03  0.17300000000E+03 0. -1.
         -6    1    1    2    0  501  0.11268587289E+02  0.10279360995E+03 -0.10787293013E+04  0.10973966524E+04  0.17300000000E+03 0.  1.
<mgrwt>
<rscale>  2 0.20155026E+03</rscale>
<asrwt>0</asrwt>
<pdfrwt beam="2">  1        1 0.31387610E+00 0.20155026E+03</pdfrwt>
<pdfrwt beam="1">  1       -1 0.30769041E-02 0.20155026E+03</pdfrwt>
<totfact> 0.11607539E+03</totfact>
</mgrwt>
</event>
<event>
 4    1  0.8142558E-001  0.2593733E+03  0.7546771E-02  0.1107520E+00
         -3   -1    0    0    0  501 -0.00000000000E+00  0.00000000000E+00  0.23420839998E+02  0.23420839998E+02  0.00000000000E+00 0. -1.
          3   -1    0    0  502    0  0.00000000000E+00 -0.00000000000E+00 -0.28839591954E+04  0.28839591954E+04  0.00000000000E+00 0.  1.
          6    1    1    2  502    0 -0.14558310007E+03 -0.12708678267E+03 -0.15222219686E+04  0.15441613293E+04  0.17300000000E+03 0. -1.
         -6    1    1    2    0  501  0.14558310007E+03  0.12708678267E+03 -0.13383163868E+04  0.13632187061E+04  0.17300000000E+03 0. -1.
<mgrwt>
<rscale>  2 0.25937326E+03</rscale>
<asrwt>0</asrwt>
<pdfrwt beam="2">  1        3 0.44368606E+00 0.25937326E+03</pdfrwt>
<pdfrwt beam="1">  1       -3 0.36032059E-02 0.25937326E+03</pdfrwt>
<totfact> 0.77259114E+00</totfact>
</mgrwt>
</event>
<event>
 4    1  0.8142558E-001  0.1856514E+03  0.7546771E-02  0.1162443E+00
          1   -1    0    0  502    0  0.00000000000E+00  0.00000000000E+00  0.34585750399E+03  0.34585750399E+03  0.00000000000E+00 0.  1.
         -1   -1    0    0    0  501 -0.00000000000E+00 -0.00000000000E+00 -0.19021721664E+03  0.19021721664E+03  0.00000000000E+00 0. -1.
          6    1    1    2  502    0  0.13454119404E+02  0.66003298722E+02  0.26276566115E+03  0.32173318363E+03  0.17300000000E+03 0.  1.
         -6    1    1    2    0  501 -0.13454119404E+02 -0.66003298722E+02 -0.10712537380E+03  0.21434153700E+03  0.17300000000E+03 0. -1.
<mgrwt>
<rscale>  2 0.18565142E+03</rscale>
<asrwt>0</asrwt>
<pdfrwt beam="1">  1        1 0.53208847E-01 0.18565142E+03</pdfrwt>
<pdfrwt beam="2">  1       -1 0.29264187E-01 0.18565142E+03</pdfrwt>
<totfact> 0.78054514E+02</totfact>
</mgrwt>
</event>
<event>
 4    1  0.8142558E-001  0.2177891E+03  0.7546771E-02  0.1135542E+00
         -2   -1    0    0    0  501 -0.00000000000E+00  0.00000000000E+00  0.15799878881E+04  0.15799878881E+04  0.00000000000E+00 0. -1.
          2   -1    0    0  502    0  0.00000000000E+00 -0.00000000000E+00 -0.31339291278E+02  0.31339291278E+02  0.00000000000E+00 0.  1.
          6    1    1    2  502    0  0.68522792199E+02  0.11317117836E+03  0.60905556618E+03  0.64682360142E+03  0.17300000000E+03 0.  1.
         -6    1    1    2    0  501 -0.68522792199E+02 -0.11317117836E+03  0.93959303068E+03  0.96450357800E+03  0.17300000000E+03 0. -1.
<mgrwt>
<rscale>  2 0.21778909E+03</rscale>
<asrwt>0</asrwt>
<pdfrwt beam="2">  1        2 0.48214307E-02 0.21778909E+03</pdfrwt>
<pdfrwt beam="1">  1       -2 0.24307500E+00 0.21778909E+03</pdfrwt>
<totfact> 0.13009066E+02</totfact>
</mgrwt>
</event>
<event>
 4    1  0.8142558E-001  0.3108304E+03  0.7546771E-02  0.1079949E+00
          2   -1    0    0  502    0  0.00000000000E+00  0.00000000000E+00  0.94798855562E+03  0.94798855562E+03  0.00000000000E+00 0. -1.
         -2   -1    0    0    0  501 -0.00000000000E+00 -0.00000000000E+00 -0.11834857671E+03  0.11834857671E+03  0.00000000000E+00 0.  1.
          6    1    1    2  502    0  0.18367718150E+03  0.18151929555E+03  0.21615065687E+03  0.37859829387E+03  0.17300000000E+03 0.  1.
         -6    1    1    2    0  501 -0.18367718150E+03 -0.18151929555E+03  0.61348932204E+03  0.68773883846E+03  0.17300000000E+03 0. -1.
<mgrwt>
<rscale>  2 0.31083044E+03</rscale>
<asrwt>0</asrwt>
<pdfrwt beam="1">  1        2 0.14584439E+00 0.31083044E+03</pdfrwt>
<pdfrwt beam="2">  1       -2 0.18207474E-01 0.31083044E+03</pdfrwt>
<totfact> 0.69973320E+02</totfact>
</mgrwt>
</event>
<event>
 4    1  0.8142558E-001  0.1893313E+03  0.7546771E-02  0.1159066E+00
         -1   -1    0    0    0  501 -0.00000000000E+00  0.00000000000E+00  0.16780104654E+02  0.16780104654E+02  0.00000000000E+00 0. -1.
          1   -1    0    0  502    0  0.00000000000E+00 -0.00000000000E+00 -0.21824319607E+04  0.21824319607E+04  0.00000000000E+00 0.  1.
          6    1    1    2  502    0  0.60653566361E+01  0.76684723264E+02 -0.92285219609E+03  0.94207351685E+03  0.17300000000E+03 0. -1.
         -6    1    1    2    0  501 -0.60653566361E+01 -0.76684723264E+02 -0.12427996600E+04  0.12571385485E+04  0.17300000000E+03 0.  1.
<mgrwt>
<rscale>  2 0.18933128E+03</rscale>
<asrwt>0</asrwt>
<pdfrwt beam="2">  1        1 0.33575864E+00 0.18933128E+03</pdfrwt>
<pdfrwt beam="1">  1       -1 0.25815555E-02 0.18933128E+03</pdfrwt>
<totfact> 0.12171665E+03</totfact>
</mgrwt>
</event>
<event>
 4    1  0.8142558E-001  0.4598418E+03  0.7546771E-02  0.1024827E+00
          4   -1    0    0  502    0  0.00000000000E+00  0.00000000000E+00  0.17992388940E+04  0.17992388940E+04  0.00000000000E+00 0. -1.
         -4   -1    0    0    0  501 -0.00000000000E+00 -0.00000000000E+00 -0.21567651804E+03  0.21567651804E+03  0.00000000000E+00 0.  1.
          6    1    1    2  502    0  0.41993968285E+03 -0.71945130794E+02  0.14714154570E+04  0.15415958894E+04  0.17300000000E+03 0. -1.
         -6    1    1    2    0  501 -0.41993968285E+03  0.71945130794E+02  0.11214691894E+03  0.47331952264E+03  0.17300000000E+03 0.  1.
<mgrwt>
<rscale>  2 0.45984175E+03</rscale>
<asrwt>0</asrwt>
<pdfrwt beam="1">  1        4 0.27680597E+00 0.45984175E+03</pdfrwt>
<pdfrwt beam="2">  1       -4 0.33181004E-01 0.45984175E+03</pdfrwt>
<totfact> 0.77800944E-01</totfact>
</mgrwt>
</event>
<event>
 4    1  0.8142558E-001  0.1834479E+03  0.7546771E-02  0.1164507E+00
         -2   -1    0    0    0  501 -0.00000000000E+00  0.00000000000E+00  0.99527783319E+02  0.99527783319E+02  0.00000000000E+00 0. -1.
          2   -1    0    0  502    0  0.00000000000E+00 -0.00000000000E+00 -0.99467689623E+03  0.99467689623E+03  0.00000000000E+00 0.  1.
          6    1    1    2  502    0 -0.53265162288E+02  0.29781597765E+02 -0.89206366658E+03  0.91073086382E+03  0.17300000000E+03 0.  1.
         -6    1    1    2    0  501  0.53265162288E+02 -0.29781597765E+02 -0.30854463292E+01  0.18347381573E+03  0.17300000000E+03 0. -1.
<mgrwt>
<rscale>  2 0.18344787E+03</rscale>
<asrwt>0</asrwt>
<pdfrwt beam="2">  1        2 0.15302721E+00 0.18344787E+03</pdfrwt>
<pdfrwt beam="1">  1       -2 0.15311967E-01 0.18344787E+03</pdfrwt>
<totfact> 0.88071768E+02</totfact>
</mgrwt>
</event>
<event>
 4    1  0.8142558E-001  0.1738242E+03  0.7546771E-02  0.1173917E+00
         -1   -1    0    0    0  501 -0.00000000000E+00  0.00000000000E+00  0.10078063418E+03  0.10078063418E+03  0.00000000000E+00 0.  1.
          1   -1    0    0  502    0  0.00000000000E+00 -0.00000000000E+00 -0.29987700065E+03  0.29987700065E+03  0.00000000000E+00 0. -1.
          6    1    1    2  502    0  0.22131600921E+01  0.16762166519E+02 -0.10258084825E+03  0.20183582123E+03  0.17300000000E+03 0. -1.
         -6    1    1    2    0  501 -0.22131600921E+01 -0.16762166519E+02 -0.96515518227E+02  0.19882181360E+03  0.17300000000E+03 0.  1.
<mgrwt>
<rscale>  2 0.17382425E+03</rscale>
<asrwt>0</asrwt>
<pdfrwt beam="2">  1        1 0.46134922E-01 0.17382425E+03</pdfrwt>
<pdfrwt beam="1">  1       -1 0.15504713E-01 0.17382425E+03</pdfrwt>
<totfact> 0.26230768E+03</totfact>
</mgrwt>
</event>
<event>
 4    1  0.8142558E-001  0.2049122E+03  0.7546771E-02  0.1145659E+00
         -1   -1    0    0    0  501 -0.00000000000E+00  0.00000000000E+00  0.23866630983E+03  0.23866630983E+03  0.00000000000E+00 0. -1.
          1   -1    0    0  502    0  0.00000000000E+00 -0.00000000000E+00 -0.17913921619E+03  0.17913921619E+03  0.00000000000E+00 0.  1.
          6    1    1    2  502    0 -0.68410845118E+02 -0.85906826387E+02  0.18112738197E+01  0.20492024610E+03  0.17300000000E+03 0.  1.
         -6    1    1    2    0  501  0.68410845118E+02  0.85906826387E+02  0.57715819824E+02  0.21288527992E+03  0.17300000000E+03 0.  1.
<mgrwt>
<rscale>  2 0.20491224E+03</rscale>
<asrwt>0</asrwt>
<pdfrwt beam="2">  1        1 0.27559879E-01 0.20491224E+03</pdfrwt>
<pdfrwt beam="1">  1       -1 0.36717894E-01 0.20491224E+03</pdfrwt>
<totfact> 0.12077314E+03</totfact>
</mgrwt>
</event>
<event>
 4    1  0.8142558E-001  0.2603066E+03  0.7546771E-02  0.1106959E+00
         -1   -1    0    0    0  501 -0.00000000000E+00  0.00000000000E+00  0.61623402072E+03  0.61623402072E+03  0.00000000000E+00 0. -1.
          1   -1    0    0  502    0  0.00000000000E+00 -0.00000000000E+00 -0.12913227408E+03  0.12913227408E+03  0.00000000000E+00 0.  1.
          6    1    1    2  502    0  0.16634871936E+03 -0.10079010458E+03  0.99939882069E+02  0.27883242573E+03  0.17300000000E+03 0.  1.
         -6    1    1    2    0  501 -0.16634871936E+03  0.10079010458E+03  0.38716186456E+03  0.46653386907E+03  0.17300000000E+03 0. -1.
<mgrwt>
<rscale>  2 0.26030663E+03</rscale>
<asrwt>0</asrwt>
<pdfrwt beam="2">  1        1 0.19866504E-01 0.26030663E+03</pdfrwt>
<pdfrwt beam="1">  1       -1 0.94805232E-01 0.26030663E+03</pdfrwt>
<totfact> 0.29355607E+02</totfact>
</mgrwt>
</event>
<event>
 4    1  0.8142558E-001  0.2258014E+03  0.7546771E-02  0.1129630E+00
          2   -1    0    0  502    0  0.00000000000E+00  0.00000000000E+00  0.10237119613E+04  0.10237119613E+04  0.00000000000E+00 0. -1.
         -2   -1    0    0    0  501 -0.00000000000E+00 -0.00000000000E+00 -0.57137881522E+02  0.57137881522E+02  0.00000000000E+00 0.  1.
          6    1    1    2  502    0 -0.14500833413E+03 -0.54655405331E+01  0.28968874557E+03  0.36729532860E+03  0.17300000000E+03 0.  1.
         -6    1    1    2    0  501  0.14500833413E+03  0.54655405331E+01  0.67688533423E+03  0.71355451424E+03  0.17300000000E+03 0. -1.
<mgrwt>
<rscale>  2 0.22580144E+03</rscale>
<asrwt>0</asrwt>
<pdfrwt beam="1">  1        2 0.15749413E+00 0.22580144E+03</pdfrwt>
<pdfrwt beam="2">  1       -2 0.87904441E-02 0.22580144E+03</pdfrwt>
<totfact> 0.20649309E+03</totfact>
</mgrwt>
</event>
<event>
 4    1  0.8142558E-001  0.2662491E+03  0.7546771E-02  0.1103446E+00
         -4   -1    0    0    0  501 -0.00000000000E+00  0.00000000000E+00  0.58778375029E+02  0.58778375029E+02  0.00000000000E+00 0.  1.
          4   -1    0    0  502    0  0.00000000000E+00 -0.00000000000E+00 -0.14498463463E+04  0.14498463463E+04  0.00000000000E+00 0. -1.
          6    1    1    2  502    0  0.61980610904E+02  0.19266024702E+03 -0.10048628042E+04  0.10395373116E+04  0.17300000000E+03 0. -1.
         -6    1    1    2    0  501 -0.61980610904E+02 -0.19266024702E+03 -0.38620516709E+03  0.46908740976E+03  0.17300000000E+03 0. -1.
<mgrwt>
<rscale>  2 0.26624907E+03</rscale>
<asrwt>0</asrwt>
<pdfrwt beam="2">  1        4 0.22305327E+00 0.26624907E+03</pdfrwt>
<pdfrwt beam="1">  1       -4 0.90428273E-02 0.26624907E+03</pdfrwt>
<totfact> 0.17062853E+01</totfact>
</mgrwt>
</event>
<event>
 4    1  0.8142558E-001  0.1794536E+03  0.7546771E-02  0.1168333E+00
          2   -1    0    0  502    0  0.00000000000E+00  0.00000000000E+00  0.18989365969E+04  0.18989365969E+04  0.00000000000E+00 0.  1.
         -2   -1    0    0    0  501 -0.00000000000E+00 -0.00000000000E+00 -0.29670579905E+02  0.29670579905E+02  0.00000000000E+00 0. -1.
          6    1    1    2  502    0 -0.47687548438E+02  0.71135311351E+00  0.30345094836E+03  0.35254231854E+03  0.17300000000E+03 0. -1.
         -6    1    1    2    0  501  0.47687548438E+02 -0.71135311351E+00  0.15658150686E+04  0.15760648582E+04  0.17300000000E+03 0.  1.
<mgrwt>
<rscale>  2 0.17945364E+03</rscale>
<asrwt>0</asrwt>
<pdfrwt beam="1">  1        2 0.29214400E+00 0.17945364E+03</pdfrwt>
<pdfrwt beam="2">  1       -2 0.45647061E-02 0.17945364E+03</pdfrwt>
<totfact> 0.18996137E+03</totfact>
</mgrwt>
</event>
<event>
 4    1  0.8142558E-001  0.1827253E+03  0.7546771E-02  0.1165191E+00
         -2   -1    0    0    0  501 -0.00000000000E+00  0.00000000000E+00  0.72047186701E+02  0.72047186701E+02  0.00000000000E+00 0.  1.
          2   -1    0    0  502    0  0.00000000000E+00 -0.00000000000E+00 -0.58565606872E+03  0.58565606872E+03  0.00000000000E+00 0. -1.
          6    1    1    2  502    0  0.44139855644E+02 -0.38874342507E+02 -0.10657064010E+03  0.21153213159E+03  0.17300000000E+03 0.  1.
         -6    1    1    2    0  501 -0.44139855644E+02  0.38874342507E+02 -0.40703824192E+03  0.44617112384E+03  0.17300000000E+03 0. -1.
<mgrwt>
<rscale>  2 0.18272532E+03</rscale>
<asrwt>0</asrwt>
<pdfrwt beam="2">  1        2 0.90100934E-01 0.18272532E+03</pdfrwt>
<pdfrwt beam="1">  1       -2 0.11084183E-01 0.18272532E+03</pdfrwt>
<totfact> 0.28791937E+03</totfact>
</mgrwt>
</event>
<event>
 4    1  0.8142558E-001  0.1978139E+03  0.7546771E-02  0.1151597E+00
         -2   -1    0    0    0  501 -0.00000000000E+00  0.00000000000E+00  0.12744502250E+03  0.12744502250E+03  0.00000000000E+00 0. -1.
          2   -1    0    0  502    0  0.00000000000E+00 -0.00000000000E+00 -0.34087064520E+03  0.34087064520E+03  0.00000000000E+00 0.  1.
          6    1    1    2  502    0 -0.82666509905E+02 -0.48658047499E+02 -0.18048408389E+03  0.26777763533E+03  0.17300000000E+03 0.  1.
         -6    1    1    2    0  501  0.82666509905E+02  0.48658047499E+02 -0.32941538806E+02  0.20053803237E+03  0.17300000000E+03 0. -1.
<mgrwt>
<rscale>  2 0.19781395E+03</rscale>
<asrwt>0</asrwt>
<pdfrwt beam="2">  1        2 0.52441636E-01 0.19781395E+03</pdfrwt>
<pdfrwt beam="1">  1       -2 0.19606927E-01 0.19781395E+03</pdfrwt>
<totfact> 0.20470407E+03</totfact>
</mgrwt>
</event>
<event>
 4    1  0.8142558E-001  0.2270651E+03  0.7546771E-02  0.1128723E+00
          2   -1    0    0  502    0  0.00000000000E+00  0.00000000000E+00  0.23848861425E+03  0.23848861425E+03  0.00000000000E+00 0.  1.
         -2   -1    0    0    0  501 -0.00000000000E+00 -0.00000000000E+00 -0.22417036256E+03  0.22417036256E+03  0.00000000000E+00 0. -1.
          6    1    1    2  502    0 -0.10630396039E+03 -0.10163172241E+03 -0.36491361175E+02  0.22997860430E+03  0.17300000000E+03 0.  1.
         -6    1    1    2    0  501  0.10630396039E+03  0.10163172241E+03  0.50809612862E+02  0.23268037251E+03  0.17300000000E+03 0.  1.
<mgrwt>
<rscale>  2 0.22706505E+03</rscale>
<asrwt>0</asrwt>
<pdfrwt beam="1">  1        2 0.36690556E-01 0.22706505E+03</pdfrwt>
<pdfrwt beam="2">  1       -2 0.34487748E-01 0.22706505E+03</pdfrwt>
<totfact> 0.11063389E+03</totfact>
</mgrwt>
</event>
<event>
 4    1  0.8142558E-001  0.1811099E+03  0.7546771E-02  0.1166733E+00
         -2   -1    0    0    0  501 -0.00000000000E+00  0.00000000000E+00  0.56039844083E+02  0.56039844083E+02  0.00000000000E+00 0. -1.
          2   -1    0    0  502    0  0.00000000000E+00 -0.00000000000E+00 -0.59076534235E+03  0.59076534235E+03  0.00000000000E+00 0.  1.
          6    1    1    2  502    0 -0.45446022576E+02 -0.28398297414E+02 -0.23629144176E+03  0.29771538374E+03  0.17300000000E+03 0. -1.
         -6    1    1    2    0  501  0.45446022576E+02  0.28398297414E+02 -0.29843405650E+03  0.34908980269E+03  0.17300000000E+03 0.  1.
<mgrwt>
<rscale>  2 0.18110992E+03</rscale>
<asrwt>0</asrwt>
<pdfrwt beam="2">  1        2 0.90886979E-01 0.18110992E+03</pdfrwt>
<pdfrwt beam="1">  1       -2 0.86215142E-02 0.18110992E+03</pdfrwt>
<totfact> 0.42381069E+03</totfact>
</mgrwt>
</event>
<event>
 4    1  0.8142558E-001  0.2244551E+03  0.7546771E-02  0.1130605E+00
          2   -1    0    0  502    0  0.00000000000E+00  0.00000000000E+00  0.62310760896E+03  0.62310760896E+03  0.00000000000E+00 0.  1.
         -2   -1    0    0    0  501 -0.00000000000E+00 -0.00000000000E+00 -0.84911638425E+02  0.84911638425E+02  0.00000000000E+00 0. -1.
          6    1    1    2  502    0 -0.12994507969E+03 -0.59710751605E+02  0.19170109332E+03  0.29517690759E+03  0.17300000000E+03 0. -1.
         -6    1    1    2    0  501  0.12994507969E+03  0.59710751605E+02  0.34649487722E+03  0.41284233980E+03  0.17300000000E+03 0.  1.
<mgrwt>
<rscale>  2 0.22445511E+03</rscale>
<asrwt>0</asrwt>
<pdfrwt beam="1">  1        2 0.95862706E-01 0.22445511E+03</pdfrwt>
<pdfrwt beam="2">  1       -2 0.13063329E-01 0.22445511E+03</pdfrwt>
<totfact> 0.20665636E+03</totfact>
</mgrwt>
</event>
<event>
 4    1  0.8142558E-001  0.1744449E+03  0.7546771E-02  0.1173290E+00
          2   -1    0    0  502    0  0.00000000000E+00  0.00000000000E+00  0.10909218161E+04  0.10909218161E+04  0.00000000000E+00 0. -1.
         -2   -1    0    0    0  501 -0.00000000000E+00 -0.00000000000E+00 -0.30505989611E+02  0.30505989611E+02  0.00000000000E+00 0.  1.
          6    1    1    2  502    0 -0.15799899785E+02 -0.15886139208E+02  0.36615989415E+03  0.40559101856E+03  0.17300000000E+03 0.  1.
         -6    1    1    2    0  501  0.15799899785E+02  0.15886139208E+02  0.69425593236E+03  0.71583678717E+03  0.17300000000E+03 0. -1.
<mgrwt>
<rscale>  2 0.17444485E+03</rscale>
<asrwt>0</asrwt>
<pdfrwt beam="1">  1        2 0.16783410E+00 0.17444485E+03</pdfrwt>
<pdfrwt beam="2">  1       -2 0.46932300E-02 0.17444485E+03</pdfrwt>
<totfact> 0.49211090E+03</totfact>
</mgrwt>
</event>
<event>
 4    1  0.8142558E-001  0.3093523E+03  0.7546771E-02  0.1080657E+00
          2   -1    0    0  502    0  0.00000000000E+00  0.00000000000E+00  0.41093490659E+04  0.41093490659E+04  0.00000000000E+00 0. -1.
         -2   -1    0    0    0  501 -0.00000000000E+00 -0.00000000000E+00 -0.27460833425E+02  0.27460833425E+02  0.00000000000E+00 0.  1.
          6    1    1    2  502    0  0.18282809935E+03  0.17984367170E+03  0.28472316430E+04  0.28639879345E+04  0.17300000000E+03 0. -1.
         -6    1    1    2    0  501 -0.18282809935E+03 -0.17984367170E+03  0.12346565895E+04  0.12728219648E+04  0.17300000000E+03 0.  1.
<mgrwt>
<rscale>  2 0.30935232E+03</rscale>
<asrwt>0</asrwt>
<pdfrwt beam="1">  1        2 0.63220706E+00 0.30935232E+03</pdfrwt>
<pdfrwt beam="2">  1       -2 0.42247469E-02 0.30935232E+03</pdfrwt>
<totfact> 0.91581369E+01</totfact>
</mgrwt>
</event>
<event>
 4    1  0.8142558E-001  0.3707478E+03  0.7546771E-02  0.1054407E+00
         -2   -1    0    0    0  501 -0.00000000000E+00  0.00000000000E+00  0.75393462927E+02  0.75393462927E+02  0.00000000000E+00 0.  1.
          2   -1    0    0  502    0  0.00000000000E+00 -0.00000000000E+00 -0.30263964371E+04  0.30263964371E+04  0.00000000000E+00 0. -1.
          6    1    1    2  502    0  0.25616460623E+03  0.20470628238E+03 -0.49759828891E+03  0.62053043814E+03  0.17300000000E+03 0.  1.
         -6    1    1    2    0  501 -0.25616460623E+03 -0.20470628238E+03 -0.24534046852E+04  0.24812594619E+04  0.17300000000E+03 0. -1.
<mgrwt>
<rscale>  2 0.37074785E+03</rscale>
<asrwt>0</asrwt>
<pdfrwt beam="2">  1        2 0.46559939E+00 0.37074785E+03</pdfrwt>
<pdfrwt beam="1">  1       -2 0.11598996E-01 0.37074785E+03</pdfrwt>
<totfact> 0.10210614E+02</totfact>
</mgrwt>
</event>
<event>
 4    1  0.8142558E-001  0.1946435E+03  0.7546771E-02  0.1154339E+00
          2   -1    0    0  502    0  0.00000000000E+00  0.00000000000E+00  0.93719494060E+03  0.93719494060E+03  0.00000000000E+00 0. -1.
         -2   -1    0    0    0  501 -0.00000000000E+00 -0.00000000000E+00 -0.54501372561E+02  0.54501372561E+02  0.00000000000E+00 0.  1.
          6    1    1    2  502    0 -0.80494639726E+02 -0.38440990728E+02  0.69334095934E+03  0.72014427908E+03  0.17300000000E+03 0.  1.
         -6    1    1    2    0  501  0.80494639726E+02  0.38440990728E+02  0.18935260870E+03  0.27155203408E+03  0.17300000000E+03 0.  1.
<mgrwt>
<rscale>  2 0.19464351E+03</rscale>
<asrwt>0</asrwt>
<pdfrwt beam="1">  1        2 0.14418383E+00 0.19464351E+03</pdfrwt>
<pdfrwt beam="2">  1       -2 0.83848272E-02 0.19464351E+03</pdfrwt>
<totfact> 0.25090081E+03</totfact>
</mgrwt>
</event>
<event>
 4    1  0.8142558E-001  0.1867652E+03  0.7546771E-02  0.1161412E+00
         -1   -1    0    0    0  501 -0.00000000000E+00  0.00000000000E+00  0.20153236765E+03  0.20153236765E+03  0.00000000000E+00 0. -1.
          1   -1    0    0  502    0  0.00000000000E+00 -0.00000000000E+00 -0.17309881314E+03  0.17309881314E+03  0.00000000000E+00 0.  1.
          6    1    1    2  502    0 -0.38275655253E+02  0.59052514987E+02  0.12264781766E+02  0.18716743890E+03  0.17300000000E+03 0.  1.
         -6    1    1    2    0  501  0.38275655253E+02 -0.59052514987E+02  0.16168772750E+02  0.18746374189E+03  0.17300000000E+03 0. -1.
<mgrwt>
<rscale>  2 0.18676516E+03</rscale>
<asrwt>0</asrwt>
<pdfrwt beam="2">  1        1 0.26630587E-01 0.18676516E+03</pdfrwt>
<pdfrwt beam="1">  1       -1 0.31004980E-01 0.18676516E+03</pdfrwt>
<totfact> 0.16841376E+03</totfact>
</mgrwt>
</event>
<event>
 4    1  0.8142558E-001  0.2339403E+03  0.7546771E-02  0.1123897E+00
         -4   -1    0    0    0  501 -0.00000000000E+00  0.00000000000E+00  0.41857863655E+03  0.41857863655E+03  0.00000000000E+00 0.  1.
          4   -1    0    0  502    0  0.00000000000E+00 -0.00000000000E+00 -0.13376878556E+03  0.13376878556E+03  0.00000000000E+00 0. -1.
          6    1    1    2  502    0 -0.78341499718E+02  0.13660778205E+03  0.10089933488E+03  0.25477196171E+03  0.17300000000E+03 0.  1.
         -6    1    1    2    0  501  0.78341499718E+02 -0.13660778205E+03  0.18391051611E+03  0.29757546039E+03  0.17300000000E+03 0. -1.
<mgrwt>
<rscale>  2 0.23394033E+03</rscale>
<asrwt>0</asrwt>
<pdfrwt beam="2">  1        4 0.20579813E-01 0.23394033E+03</pdfrwt>
<pdfrwt beam="1">  1       -4 0.64396713E-01 0.23394033E+03</pdfrwt>
<totfact> 0.88640983E+01</totfact>
</mgrwt>
</event>
<event>
 4    1  0.8142558E-001  0.1823330E+03  0.7546771E-02  0.1165564E+00
          2   -1    0    0  502    0  0.00000000000E+00  0.00000000000E+00  0.32823112669E+02  0.32823112669E+02  0.00000000000E+00 0.  1.
         -2   -1    0    0    0  501 -0.00000000000E+00 -0.00000000000E+00 -0.11571937901E+04  0.11571937901E+04  0.00000000000E+00 0. -1.
          6    1    1    2  502    0  0.44422036353E+02 -0.36647281605E+02 -0.77232037657E+03  0.79355157654E+03  0.17300000000E+03 0. -1.
         -6    1    1    2    0  501 -0.44422036353E+02  0.36647281605E+02 -0.35205030082E+03  0.39646532619E+03  0.17300000000E+03 0. -1.
<mgrwt>
<rscale>  2 0.18233305E+03</rscale>
<asrwt>0</asrwt>
<pdfrwt beam="1">  1        2 0.50497099E-02 0.18233305E+03</pdfrwt>
<pdfrwt beam="2">  1       -2 0.17802981E+00 0.18233305E+03</pdfrwt>
<totfact> 0.30919344E+02</totfact>
</mgrwt>
</event>
<event>
 4    1  0.8142558E-001  0.1833068E+03  0.7546771E-02  0.1164641E+00
         -1   -1    0    0    0  501 -0.00000000000E+00  0.00000000000E+00  0.42733322240E+03  0.42733322240E+03  0.00000000000E+00 0.  1.
          1   -1    0    0  502    0  0.00000000000E+00 -0.00000000000E+00 -0.79005158182E+02  0.79005158182E+02  0.00000000000E+00 0. -1.
          6    1    1    2  502    0 -0.54543978451E+02  0.26407346228E+02  0.15672817282E+03  0.24117444656E+03  0.17300000000E+03 0.  1.
         -6    1    1    2    0  501  0.54543978451E+02 -0.26407346228E+02  0.19159989140E+03  0.26516393402E+03  0.17300000000E+03 0. -1.
<mgrwt>
<rscale>  2 0.18330683E+03</rscale>
<asrwt>0</asrwt>
<pdfrwt beam="2">  1        1 0.12154640E-01 0.18330683E+03</pdfrwt>
<pdfrwt beam="1">  1       -1 0.65743572E-01 0.18330683E+03</pdfrwt>
<totfact> 0.11875297E+03</totfact>
</mgrwt>
</event>
<event>
 4    1  0.8142558E-001  0.2431597E+03  0.7546771E-02  0.1117706E+00
          2   -1    0    0  502    0  0.00000000000E+00  0.00000000000E+00  0.20052946190E+04  0.20052946190E+04  0.00000000000E+00 0.  1.
         -2   -1    0    0    0  501 -0.00000000000E+00 -0.00000000000E+00 -0.36398420546E+02  0.36398420546E+02  0.00000000000E+00 0. -1.
          6    1    1    2  502    0 -0.13454880177E+03  0.10532940316E+03  0.14293425969E+04  0.14498782440E+04  0.17300000000E+03 0.  1.
         -6    1    1    2    0  501  0.13454880177E+03 -0.10532940316E+03  0.53955360154E+03  0.59181479549E+03  0.17300000000E+03 0. -1.
<mgrwt>
<rscale>  2 0.24315975E+03</rscale>
<asrwt>0</asrwt>
<pdfrwt beam="1">  1        2 0.30850678E+00 0.24315975E+03</pdfrwt>
<pdfrwt beam="2">  1       -2 0.55997586E-02 0.24315975E+03</pdfrwt>
<totfact> 0.12187839E+03</totfact>
</mgrwt>
</event>
<event>
 4    1  0.8142558E-001  0.2621620E+03  0.7546771E-02  0.1105851E+00
         -2   -1    0    0    0  501 -0.00000000000E+00  0.00000000000E+00  0.12478023080E+03  0.12478023080E+03  0.00000000000E+00 0.  1.
          2   -1    0    0  502    0  0.00000000000E+00 -0.00000000000E+00 -0.65643274278E+03  0.65643274278E+03  0.00000000000E+00 0. -1.
          6    1    1    2  502    0 -0.14322386978E+03 -0.13522891040E+03 -0.10913531954E+03  0.28397086656E+03  0.17300000000E+03 0.  1.
         -6    1    1    2    0  501  0.14322386978E+03  0.13522891040E+03 -0.42251719244E+03  0.49724210702E+03  0.17300000000E+03 0. -1.
<mgrwt>
<rscale>  2 0.26216204E+03</rscale>
<asrwt>0</asrwt>
<pdfrwt beam="2">  1        2 0.10098965E+00 0.26216204E+03</pdfrwt>
<pdfrwt beam="1">  1       -2 0.19196959E-01 0.26216204E+03</pdfrwt>
<totfact> 0.10246646E+03</totfact>
</mgrwt>
</event>
<event>
 4    1  0.8142558E-001  0.2945722E+03  0.7546771E-02  0.1087986E+00
         -2   -1    0    0    0  501 -0.00000000000E+00  0.00000000000E+00  0.40575870052E+02  0.40575870052E+02  0.00000000000E+00 0. -1.
          2   -1    0    0  502    0  0.00000000000E+00 -0.00000000000E+00 -0.21423280346E+04  0.21423280346E+04  0.00000000000E+00 0.  1.
          6    1    1    2  502    0  0.18324952579E+03  0.15252345401E+03 -0.10049317352E+04  0.10472156345E+04  0.17300000000E+03 0. -1.
         -6    1    1    2    0  501 -0.18324952579E+03 -0.15252345401E+03 -0.10968204293E+04  0.11356882701E+04  0.17300000000E+03 0. -1.
<mgrwt>
<rscale>  2 0.29457222E+03</rscale>
<asrwt>0</asrwt>
<pdfrwt beam="2">  1        2 0.32958884E+00 0.29457222E+03</pdfrwt>
<pdfrwt beam="1">  1       -2 0.62424432E-02 0.29457222E+03</pdfrwt>
<totfact> 0.86731127E+02</totfact>
</mgrwt>
</event>
<event>
 4    1  0.8142558E-001  0.1745629E+03  0.7546771E-02  0.1173171E+00
          2   -1    0    0  502    0  0.00000000000E+00  0.00000000000E+00  0.24625178415E+04  0.24625178415E+04  0.00000000000E+00 0.  1.
         -2   -1    0    0    0  501 -0.00000000000E+00 -0.00000000000E+00 -0.13768336864E+02  0.13768336864E+02  0.00000000000E+00 0. -1.
          6    1    1    2  502    0  0.20784573807E+02  0.10545943885E+02  0.83041717749E+03  0.84856638167E+03  0.17300000000E+03 0. -1.
         -6    1    1    2    0  501 -0.20784573807E+02 -0.10545943885E+02  0.16183323272E+04  0.16277197967E+04  0.17300000000E+03 0.  1.
<mgrwt>
<rscale>  2 0.17456293E+03</rscale>
<asrwt>0</asrwt>
<pdfrwt beam="1">  1        2 0.37884855E+00 0.17456293E+03</pdfrwt>
<pdfrwt beam="2">  1       -2 0.21182076E-02 0.17456293E+03</pdfrwt>
<totfact> 0.30040033E+03</totfact>
</mgrwt>
</event>
<event>
 4    1  0.8142558E-001  0.1907127E+03  0.7546771E-02  0.1157820E+00
          2   -1    0    0  502    0  0.00000000000E+00  0.00000000000E+00  0.89496695075E+02  0.89496695075E+02  0.00000000000E+00 0.  1.
         -2   -1    0    0    0  501 -0.00000000000E+00 -0.00000000000E+00 -0.45485864443E+03  0.45485864443E+03  0.00000000000E+00 0. -1.
          6    1    1    2  502    0 -0.28892249417E+02  0.74883691518E+02 -0.27152051073E+03  0.33180523968E+03  0.17300000000E+03 0. -1.
         -6    1    1    2    0  501  0.28892249417E+02 -0.74883691518E+02 -0.93841438623E+02  0.21255009982E+03  0.17300000000E+03 0.  1.
<mgrwt>
<rscale>  2 0.19071269E+03</rscale>
<asrwt>0</asrwt>
<pdfrwt beam="1">  1        2 0.13768722E-01 0.19071269E+03</pdfrwt>
<pdfrwt beam="2">  1       -2 0.69978255E-01 0.19071269E+03</pdfrwt>
<totfact> 0.81801559E+02</totfact>
</mgrwt>
</event>
<event>
 4    1  0.8142558E-001  0.4387868E+03  0.7546771E-02  0.1031120E+00
         -1   -1    0    0    0  501 -0.00000000000E+00  0.00000000000E+00  0.59568592126E+03  0.59568592126E+03  0.00000000000E+00 0.  1.
          1   -1    0    0  502    0  0.00000000000E+00 -0.00000000000E+00 -0.38752978089E+03  0.38752978089E+03  0.00000000000E+00 0. -1.
          6    1    1    2  502    0  0.24482517514E+02  0.40249907482E+03 -0.96196487651E+02  0.44920781731E+03  0.17300000000E+03 0. -1.
         -6    1    1    2    0  501 -0.24482517514E+02 -0.40249907482E+03  0.30435262802E+03  0.53400788485E+03  0.17300000000E+03 0.  1.
<mgrwt>
<rscale>  2 0.43878685E+03</rscale>
<asrwt>0</asrwt>
<pdfrwt beam="2">  1        1 0.59619966E-01 0.43878685E+03</pdfrwt>
<pdfrwt beam="1">  1       -1 0.91643988E-01 0.43878685E+03</pdfrwt>
<totfact> 0.76112094E+01</totfact>
</mgrwt>
</event>
