<event>
 4    1  0.4306168E+000  0.2084412E+03  0.7546771E-02  0.1142806E+00
         21   -1    0    0  501  502  0.00000000000E+00  0.00000000000E+00  0.92421572919E+02  0.92421572919E+02  0.00000000000E+00 0.  1.
         21   -1    0    0  502  503 -0.00000000000E+00 -0.00000000000E+00 -0.47094126621E+03  0.47094126621E+03  0.00000000000E+00 0. -1.
          6    1    1    2  501    0  0.29545187426E+02  0.11245367443E+03 -0.17738253439E+03  0.27370113354E+03  0.17300000000E+03 0. -1.
         -6    1    1    2    0  503 -0.29545187426E+02 -0.11245367443E+03 -0.20113715890E+03  0.28966170559E+03  0.17300000000E+03 0.  1.
<mgrwt>
<rscale>  2 0.20844123E+03</rscale>
<asrwt>0</asrwt>
<pdfrwt beam="1">  1       21 0.14218704E-01 0.20844123E+03</pdfrwt>
<pdfrwt beam="2">  1       21 0.72452501E-01 0.20844123E+03</pdfrwt>
<totfact> 0.73709321E+04</totfact>
</mgrwt>
</event>
<event>
 4    1  0.4306168E+000  0.2106919E+03  0.7546771E-02  0.1141019E+00
         21   -1    0    0  501  502  0.00000000000E+00  0.00000000000E+00  0.43279282003E+02  0.43279282003E+02  0.00000000000E+00 0. -1.
         21   -1    0    0  502  503 -0.00000000000E+00 -0.00000000000E+00 -0.12188289037E+04  0.12188289037E+04  0.00000000000E+00 0.  1.
          6    1    1    2  501    0  0.58984147929E+02  0.10479958345E+03 -0.33656809327E+03  0.39707576583E+03  0.17300000000E+03 0.  1.
         -6    1    1    2    0  503 -0.58984147929E+02 -0.10479958345E+03 -0.83898152843E+03  0.86503241988E+03  0.17300000000E+03 0.  1.
<mgrwt>
<rscale>  2 0.21069191E+03</rscale>
<asrwt>0</asrwt>
<pdfrwt beam="1">  1       21 0.66583514E-02 0.21069191E+03</pdfrwt>
<pdfrwt beam="2">  1       21 0.18751213E+00 0.21069191E+03</pdfrwt>
<totfact> 0.26380767E+04</totfact>
</mgrwt>
</event>
<event>
 4    1  0.4306168E+000  0.2479124E+03  0.7546771E-02  0.1114631E+00
         21   -1    0    0  501  502  0.00000000000E+00  0.00000000000E+00  0.11735493814E+04  0.11735493814E+04  0.00000000000E+00 0. -1.
         21   -1    0    0  502  503 -0.00000000000E+00 -0.00000000000E+00 -0.55371678174E+02  0.55371678174E+02  0.00000000000E+00 0. -1.
          6    1    1    2  501    0 -0.17061332757E+03 -0.49220176161E+02  0.70211787523E+03  0.74460059361E+03  0.17300000000E+03 0. -1.
         -6    1    1    2    0  503  0.17061332757E+03  0.49220176161E+02  0.41605982803E+03  0.48432046600E+03  0.17300000000E+03 0. -1.
<mgrwt>
<rscale>  2 0.24791235E+03</rscale>
<asrwt>0</asrwt>
<pdfrwt beam="1">  1       21 0.18054604E+00 0.24791235E+03</pdfrwt>
<pdfrwt beam="2">  1       21 0.85187206E-02 0.24791235E+03</pdfrwt>
<totfact> 0.18703817E+04</totfact>
</mgrwt>
</event>
<event>
 4    1  0.4306168E+000  0.1880153E+03  0.7546771E-02  0.1160264E+00
         21   -1    0    0  503  502  0.00000000000E+00  0.00000000000E+00  0.17627547074E+03  0.17627547074E+03  0.00000000000E+00 0.  1.
         21   -1    0    0  501  503 -0.00000000000E+00 -0.00000000000E+00 -0.20931250934E+03  0.20931250934E+03  0.00000000000E+00 0. -1.
          6    1    1    2  501    0 -0.72261441719E+02  0.14108401664E+02 -0.55994308303E+02  0.19617626136E+03  0.17300000000E+03 0. -1.
         -6    1    1    2    0  502  0.72261441719E+02 -0.14108401664E+02  0.22957269702E+02  0.18941171872E+03  0.17300000000E+03 0.  1.
<mgrwt>
<rscale>  2 0.18801533E+03</rscale>
<asrwt>0</asrwt>
<pdfrwt beam="1">  1       21 0.27119303E-01 0.18801533E+03</pdfrwt>
<pdfrwt beam="2">  1       21 0.32201924E-01 0.18801533E+03</pdfrwt>
<totfact> 0.12041422E+05</totfact>
</mgrwt>
</event>
<event>
 4    1  0.4306168E+000  0.1785975E+03  0.7546771E-02  0.1169167E+00
         21   -1    0    0  501  502  0.00000000000E+00  0.00000000000E+00  0.14773440345E+04  0.14773440345E+04  0.00000000000E+00 0.  1.
         21   -1    0    0  502  503 -0.00000000000E+00 -0.00000000000E+00 -0.31619077671E+02  0.31619077671E+02  0.00000000000E+00 0.  1.
          6    1    1    2  501    0  0.61457309224E+01  0.43935339080E+02  0.11477623038E+04  0.11615745305E+04  0.17300000000E+03 0.  1.
         -6    1    1    2    0  503 -0.61457309224E+01 -0.43935339080E+02  0.29796265301E+03  0.34738858159E+03  0.17300000000E+03 0.  1.
<mgrwt>
<rscale>  2 0.17859755E+03</rscale>
<asrwt>0</asrwt>
<pdfrwt beam="1">  1       21 0.22728364E+00 0.17859755E+03</pdfrwt>
<pdfrwt beam="2">  1       21 0.48644746E-02 0.17859755E+03</pdfrwt>
<totfact> 0.25887147E+04</totfact>
</mgrwt>
</event>
<event>
 4    1  0.4306168E+000  0.2183031E+03  0.7546771E-02  0.1135155E+00
         21   -1    0    0  503  502  0.00000000000E+00  0.00000000000E+00  0.41176329775E+03  0.41176329775E+03  0.00000000000E+00 0. -1.
         21   -1    0    0  501  503 -0.00000000000E+00 -0.00000000000E+00 -0.11576157032E+03  0.11576157032E+03  0.00000000000E+00 0. -1.
          6    1    1    2  501    0  0.60225666677E+02  0.11874382989E+03  0.14415423215E+03  0.26160403420E+03  0.17300000000E+03 0. -1.
         -6    1    1    2    0  502 -0.60225666677E+02 -0.11874382989E+03  0.15184749528E+03  0.26592083387E+03  0.17300000000E+03 0. -1.
<mgrwt>
<rscale>  2 0.21830306E+03</rscale>
<asrwt>0</asrwt>
<pdfrwt beam="1">  1       21 0.63348199E-01 0.21830306E+03</pdfrwt>
<pdfrwt beam="2">  1       21 0.17809473E-01 0.21830306E+03</pdfrwt>
<totfact> 0.65237933E+04</totfact>
</mgrwt>
</event>
<event>
 4    1  0.4306168E+000  0.2155306E+03  0.7546771E-02  0.1137260E+00
         21   -1    0    0  503  502  0.00000000000E+00  0.00000000000E+00  0.12093277606E+03  0.12093277606E+03  0.00000000000E+00 0. -1.
         21   -1    0    0  501  503 -0.00000000000E+00 -0.00000000000E+00 -0.39134663043E+03  0.39134663043E+03  0.00000000000E+00 0. -1.
          6    1    1    2  501    0  0.12125721177E+03 -0.42674552686E+02 -0.16999916305E+03  0.27450527189E+03  0.17300000000E+03 0. -1.
         -6    1    1    2    0  502 -0.12125721177E+03  0.42674552686E+02 -0.10041469132E+03  0.23777413460E+03  0.17300000000E+03 0. -1.
<mgrwt>
<rscale>  2 0.21553058E+03</rscale>
<asrwt>0</asrwt>
<pdfrwt beam="1">  1       21 0.18605043E-01 0.21553058E+03</pdfrwt>
<pdfrwt beam="2">  1       21 0.60207174E-01 0.21553058E+03</pdfrwt>
<totfact> 0.67234156E+04</totfact>
</mgrwt>
</event>
<event>
 4    1  0.4306168E+000  0.2901914E+03  0.7546771E-02  0.1090249E+00
         21   -1    0    0  501  502  0.00000000000E+00  0.00000000000E+00  0.19555217406E+03  0.19555217406E+03  0.00000000000E+00 0. -1.
         21   -1    0    0  502  503 -0.00000000000E+00 -0.00000000000E+00 -0.26780377388E+04  0.26780377388E+04  0.00000000000E+00 0. -1.
          6    1    1    2  501    0 -0.20762976118E+03 -0.10569723576E+03  0.74973295231E+02  0.29971989986E+03  0.17300000000E+03 0. -1.
         -6    1    1    2    0  503  0.20762976118E+03  0.10569723576E+03 -0.25574588600E+04  0.25738700130E+04  0.17300000000E+03 0. -1.
<mgrwt>
<rscale>  2 0.29019136E+03</rscale>
<asrwt>0</asrwt>
<pdfrwt beam="1">  1       21 0.30084948E-01 0.29019136E+03</pdfrwt>
<pdfrwt beam="2">  1       21 0.41200583E+00 0.29019136E+03</pdfrwt>
<totfact> 0.67034664E+01</totfact>
</mgrwt>
</event>
<event>
 4    1  0.4306168E+000  0.1972302E+03  0.7546771E-02  0.1152097E+00
         21   -1    0    0  503  502  0.00000000000E+00  0.00000000000E+00  0.18780915708E+03  0.18780915708E+03  0.00000000000E+00 0. -1.
         21   -1    0    0  501  503 -0.00000000000E+00 -0.00000000000E+00 -0.23175360765E+03  0.23175360765E+03  0.00000000000E+00 0.  1.
          6    1    1    2  501    0  0.94705660606E+02 -0.12570742328E+01 -0.90360930984E+02  0.21694432520E+03  0.17300000000E+03 0.  1.
         -6    1    1    2    0  502 -0.94705660606E+02  0.12570742328E+01  0.46416480405E+02  0.20261843954E+03  0.17300000000E+03 0. -1.
<mgrwt>
<rscale>  2 0.19723018E+03</rscale>
<asrwt>0</asrwt>
<pdfrwt beam="1">  1       21 0.28893716E-01 0.19723018E+03</pdfrwt>
<pdfrwt beam="2">  1       21 0.35654401E-01 0.19723018E+03</pdfrwt>
<totfact> 0.86789467E+04</totfact>
</mgrwt>
</event>
<event>
 4    1  0.4306168E+000  0.2528343E+03  0.7546771E-02  0.1111527E+00
         21   -1    0    0  501  502  0.00000000000E+00  0.00000000000E+00  0.41665730040E+03  0.41665730040E+03  0.00000000000E+00 0. -1.
         21   -1    0    0  502  503 -0.00000000000E+00 -0.00000000000E+00 -0.15359483506E+03  0.15359483506E+03  0.00000000000E+00 0. -1.
          6    1    1    2  501    0 -0.58066684294E+02  0.17499846356E+03  0.12202034053E+03  0.28073860721E+03  0.17300000000E+03 0. -1.
         -6    1    1    2    0  503  0.58066684294E+02 -0.17499846356E+03  0.14104212480E+03  0.28951352825E+03  0.17300000000E+03 0. -1.
<mgrwt>
<rscale>  2 0.25283434E+03</rscale>
<asrwt>0</asrwt>
<pdfrwt beam="1">  1       21 0.64101123E-01 0.25283434E+03</pdfrwt>
<pdfrwt beam="2">  1       21 0.23629975E-01 0.25283434E+03</pdfrwt>
<totfact> 0.36805236E+04</totfact>
</mgrwt>
</event>
<event>
 4    1  0.4306168E+000  0.1837094E+03  0.7546771E-02  0.1164261E+00
         21   -1    0    0  501  502  0.00000000000E+00  0.00000000000E+00  0.74371259550E+03  0.74371259550E+03  0.00000000000E+00 0.  1.
         21   -1    0    0  502  503 -0.00000000000E+00 -0.00000000000E+00 -0.78408558842E+02  0.78408558842E+02  0.00000000000E+00 0.  1.
          6    1    1    2  501    0  0.10960451065E+02 -0.60827608788E+02  0.59944459984E+03  0.62696328262E+03  0.17300000000E+03 0.  1.
         -6    1    1    2    0  503 -0.10960451065E+02  0.60827608788E+02  0.65859436826E+02  0.19515787173E+03  0.17300000000E+03 0.  1.
<mgrwt>
<rscale>  2 0.18370936E+03</rscale>
<asrwt>0</asrwt>
<pdfrwt beam="1">  1       21 0.11441732E+00 0.18370936E+03</pdfrwt>
<pdfrwt beam="2">  1       21 0.12062856E-01 0.18370936E+03</pdfrwt>
<totfact> 0.34679801E+04</totfact>
</mgrwt>
</event>
<event>
 4    1  0.4306168E+000  0.2798031E+03  0.7546771E-02  0.1095797E+00
         21   -1    0    0  501  502  0.00000000000E+00  0.00000000000E+00  0.64824072767E+02  0.64824072767E+02  0.00000000000E+00 0.  1.
         21   -1    0    0  502  503 -0.00000000000E+00 -0.00000000000E+00 -0.12434695325E+04  0.12434695325E+04  0.00000000000E+00 0. -1.
          6    1    1    2  501    0  0.21930799296E+03 -0.16271853850E+02 -0.47841760523E+03  0.55423205789E+03  0.17300000000E+03 0.  1.
         -6    1    1    2    0  503 -0.21930799296E+03  0.16271853850E+02 -0.70022785448E+03  0.75406154735E+03  0.17300000000E+03 0. -1.
<mgrwt>
<rscale>  2 0.27980309E+03</rscale>
<asrwt>0</asrwt>
<pdfrwt beam="1">  1       21 0.99729341E-02 0.27980309E+03</pdfrwt>
<pdfrwt beam="2">  1       21 0.19130301E+00 0.27980309E+03</pdfrwt>
<totfact> 0.11748102E+04</totfact>
</mgrwt>
</event>
<event>
 4    1  0.4306168E+000  0.1803529E+03  0.7546771E-02  0.1167462E+00
         21   -1    0    0  503  502  0.00000000000E+00  0.00000000000E+00  0.20338815597E+03  0.20338815597E+03  0.00000000000E+00 0. -1.
         21   -1    0    0  501  503 -0.00000000000E+00 -0.00000000000E+00 -0.65066470597E+03  0.65066470597E+03  0.00000000000E+00 0. -1.
          6    1    1    2  501    0  0.50645836857E+02  0.57583952781E+01 -0.59449064476E+03  0.62124575380E+03  0.17300000000E+03 0. -1.
         -6    1    1    2    0  502 -0.50645836857E+02 -0.57583952781E+01  0.14721409475E+03  0.23280710814E+03  0.17300000000E+03 0. -1.
<mgrwt>
<rscale>  2 0.18035288E+03</rscale>
<asrwt>0</asrwt>
<pdfrwt beam="1">  1       21 0.31290486E-01 0.18035288E+03</pdfrwt>
<pdfrwt beam="2">  1       21 0.10010226E+00 0.18035288E+03</pdfrwt>
<totfact> 0.81113141E+03</totfact>
</mgrwt>
</event>
<event>
 4    1  0.4306168E+000  0.1959522E+03  0.7546771E-02  0.1153200E+00
         21   -1    0    0  503  502  0.00000000000E+00  0.00000000000E+00  0.71251835258E+03  0.71251835258E+03  0.00000000000E+00 0. -1.
         21   -1    0    0  501  503 -0.00000000000E+00 -0.00000000000E+00 -0.58506099383E+02  0.58506099383E+02  0.00000000000E+00 0. -1.
          6    1    1    2  501    0  0.71664952571E+02 -0.57726778210E+02  0.21871336440E+03  0.29365418798E+03  0.17300000000E+03 0.  1.
         -6    1    1    2    0  502 -0.71664952571E+02  0.57726778210E+02  0.43529888879E+03  0.47737026398E+03  0.17300000000E+03 0.  1.
<mgrwt>
<rscale>  2 0.19595215E+03</rscale>
<asrwt>0</asrwt>
<pdfrwt beam="1">  1       21 0.10961820E+00 0.19595215E+03</pdfrwt>
<pdfrwt beam="2">  1       21 0.90009389E-02 0.19595215E+03</pdfrwt>
<totfact> 0.64221134E+04</totfact>
</mgrwt>
</event>
<event>
 4    1  0.4306168E+000  0.2606705E+03  0.7546771E-02  0.1106741E+00
         21   -1    0    0  501  502  0.00000000000E+00  0.00000000000E+00  0.20920905861E+03  0.20920905861E+03  0.00000000000E+00 0.  1.
         21   -1    0    0  502  503 -0.00000000000E+00 -0.00000000000E+00 -0.33692208822E+03  0.33692208822E+03  0.00000000000E+00 0. -1.
          6    1    1    2  501    0 -0.75885850818E+02  0.17961477270E+03 -0.12040999019E+02  0.26094849029E+03  0.17300000000E+03 0. -1.
         -6    1    1    2    0  503  0.75885850818E+02 -0.17961477270E+03 -0.11567203060E+03  0.28518265654E+03  0.17300000000E+03 0.  1.
<mgrwt>
<rscale>  2 0.26067054E+03</rscale>
<asrwt>0</asrwt>
<pdfrwt beam="1">  1       21 0.32186009E-01 0.26067054E+03</pdfrwt>
<pdfrwt beam="2">  1       21 0.51834167E-01 0.26067054E+03</pdfrwt>
<totfact> 0.31754483E+04</totfact>
</mgrwt>
</event>
<event>
 4    1  0.4306168E+000  0.2165273E+03  0.7546771E-02  0.1136499E+00
         21   -1    0    0  503  502  0.00000000000E+00  0.00000000000E+00  0.77815834310E+03  0.77815834310E+03  0.00000000000E+00 0. -1.
         21   -1    0    0  501  503 -0.00000000000E+00 -0.00000000000E+00 -0.86721374833E+02  0.86721374833E+02  0.00000000000E+00 0.  1.
          6    1    1    2  501    0 -0.94423034298E+01  0.12986886286E+03  0.10679959697E+03  0.24143370218E+03  0.17300000000E+03 0.  1.
         -6    1    1    2    0  502  0.94423034298E+01 -0.12986886286E+03  0.58463737130E+03  0.62344601575E+03  0.17300000000E+03 0. -1.
<mgrwt>
<rscale>  2 0.21652732E+03</rscale>
<asrwt>0</asrwt>
<pdfrwt beam="1">  1       21 0.11971666E+00 0.21652732E+03</pdfrwt>
<pdfrwt beam="2">  1       21 0.13341750E-01 0.21652732E+03</pdfrwt>
<totfact> 0.25404105E+04</totfact>
</mgrwt>
</event>
<event>
 4    1  0.4306168E+000  0.1970504E+03  0.7546771E-02  0.1152252E+00
         21   -1    0    0  501  502  0.00000000000E+00  0.00000000000E+00  0.47501263037E+03  0.47501263037E+03  0.00000000000E+00 0. -1.
         21   -1    0    0  502  503 -0.00000000000E+00 -0.00000000000E+00 -0.97169717671E+02  0.97169717671E+02  0.00000000000E+00 0. -1.
          6    1    1    2  501    0 -0.44098880783E+02 -0.83397619502E+02  0.30291446630E+03  0.36136691619E+03  0.17300000000E+03 0. -1.
         -6    1    1    2    0  503  0.44098880783E+02  0.83397619502E+02  0.74928446397E+02  0.21081543185E+03  0.17300000000E+03 0. -1.
<mgrwt>
<rscale>  2 0.19705044E+03</rscale>
<asrwt>0</asrwt>
<pdfrwt beam="1">  1       21 0.73078865E-01 0.19705044E+03</pdfrwt>
<pdfrwt beam="2">  1       21 0.14949188E-01 0.19705044E+03</pdfrwt>
<totfact> 0.66356573E+04</totfact>
</mgrwt>
</event>
<event>
 4    1  0.4306168E+000  0.2083430E+03  0.7546771E-02  0.1142885E+00
         21   -1    0    0  503  502  0.00000000000E+00  0.00000000000E+00  0.17430743490E+03  0.17430743490E+03  0.00000000000E+00 0. -1.
         21   -1    0    0  501  503 -0.00000000000E+00 -0.00000000000E+00 -0.33417678169E+03  0.33417678169E+03  0.00000000000E+00 0.  1.
          6    1    1    2  501    0  0.11605206406E+03 -0.31151734414E+01 -0.20827348568E+03  0.29459231272E+03  0.17300000000E+03 0.  1.
         -6    1    1    2    0  502 -0.11605206406E+03  0.31151734414E+01  0.48404138883E+02  0.21389190386E+03  0.17300000000E+03 0. -1.
<mgrwt>
<rscale>  2 0.20834295E+03</rscale>
<asrwt>0</asrwt>
<pdfrwt beam="1">  1       21 0.26816529E-01 0.20834295E+03</pdfrwt>
<pdfrwt beam="2">  1       21 0.51411812E-01 0.20834295E+03</pdfrwt>
<totfact> 0.47238816E+04</totfact>
</mgrwt>
</event>
<event>
 4    1  0.4306168E+000  0.1898254E+03  0.7546771E-02  0.1158619E+00
         21   -1    0    0  503  502  0.00000000000E+00  0.00000000000E+00  0.19771405459E+04  0.19771405459E+04  0.00000000000E+00 0.  1.
         21   -1    0    0  501  503 -0.00000000000E+00 -0.00000000000E+00 -0.18957337619E+02  0.18957337619E+02  0.00000000000E+00 0.  1.
          6    1    1    2  501    0  0.41015950572E+02 -0.66500864394E+02  0.78294723977E+03  0.80563022127E+03  0.17300000000E+03 0.  1.
         -6    1    1    2    0  502 -0.41015950572E+02  0.66500864394E+02  0.11752359685E+04  0.11904676622E+04  0.17300000000E+03 0.  1.
<mgrwt>
<rscale>  2 0.18982538E+03</rscale>
<asrwt>0</asrwt>
<pdfrwt beam="1">  1       21 0.30417531E+00 0.18982538E+03</pdfrwt>
<pdfrwt beam="2">  1       21 0.29165150E-02 0.18982538E+03</pdfrwt>
<totfact> 0.21473811E+04</totfact>
</mgrwt>
</event>
<event>
 4    1  0.4306168E+000  0.2703899E+03  0.7546771E-02  0.1101057E+00
         21   -1    0    0  501  502  0.00000000000E+00  0.00000000000E+00  0.16844745252E+03  0.16844745252E+03  0.00000000000E+00 0.  1.
         21   -1    0    0  502  503 -0.00000000000E+00 -0.00000000000E+00 -0.49163328707E+03  0.49163328707E+03  0.00000000000E+00 0.  1.
          6    1    1    2  501    0 -0.16747405911E+02 -0.20712606200E+03 -0.48617816050E+02  0.27472599659E+03  0.17300000000E+03 0.  1.
         -6    1    1    2    0  503  0.16747405911E+02  0.20712606200E+03 -0.27456801850E+03  0.38535474300E+03  0.17300000000E+03 0.  1.
<mgrwt>
<rscale>  2 0.27038987E+03</rscale>
<asrwt>0</asrwt>
<pdfrwt beam="1">  1       21 0.25914993E-01 0.27038987E+03</pdfrwt>
<pdfrwt beam="2">  1       21 0.75635889E-01 0.27038987E+03</pdfrwt>
<totfact> 0.21184504E+04</totfact>
</mgrwt>
</event>
<event>
 4    1  0.4306168E+000  0.2017437E+03  0.7546771E-02  0.1148276E+00
         21   -1    0    0  503  502  0.00000000000E+00  0.00000000000E+00  0.10751844012E+04  0.10751844012E+04  0.00000000000E+00 0. -1.
         21   -1    0    0  501  503 -0.00000000000E+00 -0.00000000000E+00 -0.37855132060E+02  0.37855132060E+02  0.00000000000E+00 0. -1.
          6    1    1    2  501    0 -0.59208628571E+02  0.85239945272E+02  0.52103363904E+03  0.55872762862E+03  0.17300000000E+03 0. -1.
         -6    1    1    2    0  502  0.59208628571E+02 -0.85239945272E+02  0.51629563006E+03  0.55431190461E+03  0.17300000000E+03 0. -1.
<mgrwt>
<rscale>  2 0.20174367E+03</rscale>
<asrwt>0</asrwt>
<pdfrwt beam="1">  1       21 0.16541296E+00 0.20174367E+03</pdfrwt>
<pdfrwt beam="2">  1       21 0.58238673E-02 0.20174367E+03</pdfrwt>
<totfact> 0.47458706E+04</totfact>
</mgrwt>
</event>
<event>
 4    1  0.4306168E+000  0.2339870E+03  0.7546771E-02  0.1123865E+00
         21   -1    0    0  501  502  0.00000000000E+00  0.00000000000E+00  0.51226381664E+03  0.51226381664E+03  0.00000000000E+00 0. -1.
         21   -1    0    0  502  503 -0.00000000000E+00 -0.00000000000E+00 -0.10736252798E+03  0.10736252798E+03  0.00000000000E+00 0. -1.
          6    1    1    2  501    0 -0.14305839064E+03 -0.65994134860E+02  0.18164597933E+03  0.29621814728E+03  0.17300000000E+03 0. -1.
         -6    1    1    2    0  503  0.14305839064E+03  0.65994134860E+02  0.22325530932E+03  0.32340819734E+03  0.17300000000E+03 0. -1.
<mgrwt>
<rscale>  2 0.23398703E+03</rscale>
<asrwt>0</asrwt>
<pdfrwt beam="1">  1       21 0.78809816E-01 0.23398703E+03</pdfrwt>
<pdfrwt beam="2">  1       21 0.16517312E-01 0.23398703E+03</pdfrwt>
<totfact> 0.45875662E+04</totfact>
</mgrwt>
</event>
<event>
 4    1  0.4306168E+000  0.2025255E+03  0.7546771E-02  0.1147626E+00
         21   -1    0    0  503  502  0.00000000000E+00  0.00000000000E+00  0.10860597373E+04  0.10860597373E+04  0.00000000000E+00 0. -1.
         21   -1    0    0  501  503 -0.00000000000E+00 -0.00000000000E+00 -0.58235137167E+02  0.58235137167E+02  0.00000000000E+00 0.  1.
          6    1    1    2  501    0 -0.95607368305E+02  0.44122451260E+02  0.17470827460E+03  0.26746876602E+03  0.17300000000E+03 0. -1.
         -6    1    1    2    0  502  0.95607368305E+02 -0.44122451260E+02  0.85311632557E+03  0.87682610850E+03  0.17300000000E+03 0. -1.
<mgrwt>
<rscale>  2 0.20252545E+03</rscale>
<asrwt>0</asrwt>
<pdfrwt beam="1">  1       21 0.16708610E+00 0.20252545E+03</pdfrwt>
<pdfrwt beam="2">  1       21 0.89592527E-02 0.20252545E+03</pdfrwt>
<totfact> 0.21881293E+04</totfact>
</mgrwt>
</event>
<event>
 4    1  0.4306168E+000  0.1874358E+03  0.7546771E-02  0.1160795E+00
         21   -1    0    0  501  502  0.00000000000E+00  0.00000000000E+00  0.85247450858E+02  0.85247450858E+02  0.00000000000E+00 0.  1.
         21   -1    0    0  502  503 -0.00000000000E+00 -0.00000000000E+00 -0.55292830484E+03  0.55292830484E+03  0.00000000000E+00 0.  1.
          6    1    1    2  501    0  0.21340138319E+02  0.68903983662E+02 -0.72816515189E+02  0.20108308072E+03  0.17300000000E+03 0.  1.
         -6    1    1    2    0  503 -0.21340138319E+02 -0.68903983662E+02 -0.39486433879E+03  0.43709267498E+03  0.17300000000E+03 0.  1.
<mgrwt>
<rscale>  2 0.18743575E+03</rscale>
<asrwt>0</asrwt>
<pdfrwt beam="1">  1       21 0.13114993E-01 0.18743575E+03</pdfrwt>
<pdfrwt beam="2">  1       21 0.85065892E-01 0.18743575E+03</pdfrwt>
<totfact> 0.59987964E+04</totfact>
</mgrwt>
</event>
<event>
 4    1  0.4306168E+000  0.4252881E+03  0.7546771E-02  0.1035359E+00
         21   -1    0    0  501  502  0.00000000000E+00  0.00000000000E+00  0.47271624640E+03  0.47271624640E+03  0.00000000000E+00 0.  1.
         21   -1    0    0  502  503 -0.00000000000E+00 -0.00000000000E+00 -0.41759841963E+03  0.41759841963E+03  0.00000000000E+00 0. -1.
          6    1    1    2  501    0 -0.32396184450E+03 -0.21445205891E+03  0.15639684973E+03  0.45313346474E+03  0.17300000000E+03 0.  1.
         -6    1    1    2    0  503  0.32396184450E+03  0.21445205891E+03 -0.10127902296E+03  0.43718120129E+03  0.17300000000E+03 0. -1.
<mgrwt>
<rscale>  2 0.42528809E+03</rscale>
<asrwt>0</asrwt>
<pdfrwt beam="1">  1       21 0.72725577E-01 0.42528809E+03</pdfrwt>
<pdfrwt beam="2">  1       21 0.64245910E-01 0.42528809E+03</pdfrwt>
<totfact> 0.33515390E+03</totfact>
</mgrwt>
</event>
<event>
 4    1  0.4306168E+000  0.1825013E+03  0.7546771E-02  0.1165404E+00
         21   -1    0    0  503  502  0.00000000000E+00  0.00000000000E+00  0.75921548144E+02  0.75921548144E+02  0.00000000000E+00 0. -1.
         21   -1    0    0  501  503 -0.00000000000E+00 -0.00000000000E+00 -0.52379581019E+03  0.52379581019E+03  0.00000000000E+00 0.  1.
          6    1    1    2  501    0  0.40623646740E+02  0.41562615892E+02 -0.34479959166E+03  0.39011984072E+03  0.17300000000E+03 0.  1.
         -6    1    1    2    0  502 -0.40623646740E+02 -0.41562615892E+02 -0.10307467038E+03  0.20959751761E+03  0.17300000000E+03 0. -1.
<mgrwt>
<rscale>  2 0.18250132E+03</rscale>
<asrwt>0</asrwt>
<pdfrwt beam="1">  1       21 0.11680238E-01 0.18250132E+03</pdfrwt>
<pdfrwt beam="2">  1       21 0.80583972E-01 0.18250132E+03</pdfrwt>
<totfact> 0.83670780E+04</totfact>
</mgrwt>
</event>
<event>
 4    1  0.4306168E+000  0.2593764E+03  0.7546771E-02  0.1107518E+00
         21   -1    0    0  501  502  0.00000000000E+00  0.00000000000E+00  0.11914590978E+04  0.11914590978E+04  0.00000000000E+00 0. -1.
         21   -1    0    0  502  503 -0.00000000000E+00 -0.00000000000E+00 -0.59734642157E+02  0.59734642157E+02  0.00000000000E+00 0.  1.
          6    1    1    2  501    0  0.18370265673E+03 -0.60003658164E+02  0.71221841309E+03  0.75797834601E+03  0.17300000000E+03 0. -1.
         -6    1    1    2    0  503 -0.18370265673E+03  0.60003658164E+02  0.41950604254E+03  0.49321539393E+03  0.17300000000E+03 0.  1.
<mgrwt>
<rscale>  2 0.25937638E+03</rscale>
<asrwt>0</asrwt>
<pdfrwt beam="1">  1       21 0.18330138E+00 0.25937638E+03</pdfrwt>
<pdfrwt beam="2">  1       21 0.91899459E-02 0.25937638E+03</pdfrwt>
<totfact> 0.15563421E+04</totfact>
</mgrwt>
</event>
<event>
 4    1  0.4306168E+000  0.2513339E+03  0.7546771E-02  0.1112465E+00
         21   -1    0    0  501  502  0.00000000000E+00  0.00000000000E+00  0.28575289815E+04  0.28575289815E+04  0.00000000000E+00 0. -1.
         21   -1    0    0  502  503 -0.00000000000E+00 -0.00000000000E+00 -0.32901039134E+02  0.32901039134E+02  0.00000000000E+00 0.  1.
          6    1    1    2  501    0  0.18072566899E+03 -0.24040618968E+02  0.22401388565E+04  0.22541940500E+04  0.17300000000E+03 0. -1.
         -6    1    1    2    0  503 -0.18072566899E+03  0.24040618968E+02  0.58448908585E+03  0.63623597059E+03  0.17300000000E+03 0.  1.
<mgrwt>
<rscale>  2 0.25133388E+03</rscale>
<asrwt>0</asrwt>
<pdfrwt beam="1">  1       21 0.43961965E+00 0.25133388E+03</pdfrwt>
<pdfrwt beam="2">  1       21 0.50617006E-02 0.25133388E+03</pdfrwt>
<totfact> 0.11843435E+03</totfact>
</mgrwt>
</event>
<event>
 4    1  0.4306168E+000  0.1822948E+03  0.7546771E-02  0.1165600E+00
         21   -1    0    0  503  502  0.00000000000E+00  0.00000000000E+00  0.28338158445E+03  0.28338158445E+03  0.00000000000E+00 0.  1.
         21   -1    0    0  501  503 -0.00000000000E+00 -0.00000000000E+00 -0.13234330626E+03  0.13234330626E+03  0.00000000000E+00 0. -1.
          6    1    1    2  501    0 -0.29037217654E+02 -0.49590842668E+02  0.53627446722E+01  0.18237371169E+03  0.17300000000E+03 0. -1.
         -6    1    1    2    0  502  0.29037217654E+02  0.49590842668E+02  0.14567553352E+03  0.23335117902E+03  0.17300000000E+03 0.  1.
<mgrwt>
<rscale>  2 0.18229485E+03</rscale>
<asrwt>0</asrwt>
<pdfrwt beam="1">  1       21 0.43597167E-01 0.18229485E+03</pdfrwt>
<pdfrwt beam="2">  1       21 0.20360509E-01 0.18229485E+03</pdfrwt>
<totfact> 0.11330356E+05</totfact>
</mgrwt>
</event>
<event>
 4    1  0.4306168E+000  0.2714780E+03  0.7546771E-02  0.1100437E+00
         21   -1    0    0  501  502  0.00000000000E+00  0.00000000000E+00  0.21529311793E+03  0.21529311793E+03  0.00000000000E+00 0.  1.
         21   -1    0    0  502  503 -0.00000000000E+00 -0.00000000000E+00 -0.73433658499E+03  0.73433658499E+03  0.00000000000E+00 0.  1.
          6    1    1    2  501    0 -0.20150423645E+03 -0.56278958788E+02  0.87395602971E+02  0.28519864994E+03  0.17300000000E+03 0.  1.
         -6    1    1    2    0  503  0.20150423645E+03  0.56278958788E+02 -0.60643907003E+03  0.66443105298E+03  0.17300000000E+03 0.  1.
<mgrwt>
<rscale>  2 0.27147795E+03</rscale>
<asrwt>0</asrwt>
<pdfrwt beam="1">  1       21 0.33122017E-01 0.27147795E+03</pdfrwt>
<pdfrwt beam="2">  1       21 0.11297486E+00 0.27147795E+03</pdfrwt>
<totfact> 0.50891927E+03</totfact>
</mgrwt>
</event>
<event>
 4    1  0.4306168E+000  0.2182628E+03  0.7546771E-02  0.1135185E+00
         21   -1    0    0  503  502  0.00000000000E+00  0.00000000000E+00  0.18339670264E+04  0.18339670264E+04  0.00000000000E+00 0. -1.
         21   -1    0    0  501  503 -0.00000000000E+00 -0.00000000000E+00 -0.28553856239E+02  0.28553856239E+02  0.00000000000E+00 0.  1.
          6    1    1    2  501    0 -0.10654455025E+03 -0.79736491871E+02  0.62287928722E+03  0.66001307242E+03  0.17300000000E+03 0. -1.
         -6    1    1    2    0  502  0.10654455025E+03  0.79736491871E+02  0.11825338830E+04  0.12025078102E+04  0.17300000000E+03 0. -1.
<mgrwt>
<rscale>  2 0.21826280E+03</rscale>
<asrwt>0</asrwt>
<pdfrwt beam="1">  1       21 0.28214868E+00 0.21826280E+03</pdfrwt>
<pdfrwt beam="2">  1       21 0.43929024E-02 0.21826280E+03</pdfrwt>
<totfact> 0.14131524E+04</totfact>
</mgrwt>
</event>
<event>
 4    1  0.4306168E+000  0.2508991E+03  0.7546771E-02  0.1112738E+00
         21   -1    0    0  503  502  0.00000000000E+00  0.00000000000E+00  0.94975819743E+03  0.94975819743E+03  0.00000000000E+00 0. -1.
         21   -1    0    0  501  503 -0.00000000000E+00 -0.00000000000E+00 -0.71754901054E+02  0.71754901054E+02  0.00000000000E+00 0.  1.
          6    1    1    2  501    0  0.18080082607E+03 -0.18232466579E+02  0.29792339175E+03  0.38949802169E+03  0.17300000000E+03 0.  1.
         -6    1    1    2    0  502 -0.18080082607E+03  0.18232466579E+02  0.58007990462E+03  0.63201507679E+03  0.17300000000E+03 0. -1.
<mgrwt>
<rscale>  2 0.25089911E+03</rscale>
<asrwt>0</asrwt>
<pdfrwt beam="1">  1       21 0.14611664E+00 0.25089911E+03</pdfrwt>
<pdfrwt beam="2">  1       21 0.11039216E-01 0.25089911E+03</pdfrwt>
<totfact> 0.21056306E+04</totfact>
</mgrwt>
</event>
<event>
 4    1  0.4306168E+000  0.2010985E+03  0.7546771E-02  0.1148816E+00
         21   -1    0    0  503  502  0.00000000000E+00  0.00000000000E+00  0.24401003591E+03  0.24401003591E+03  0.00000000000E+00 0.  1.
         21   -1    0    0  501  503 -0.00000000000E+00 -0.00000000000E+00 -0.25724495931E+03  0.25724495931E+03  0.00000000000E+00 0.  1.
          6    1    1    2  501    0 -0.85856509056E+02  0.56037957068E+02 -0.15610102936E+03  0.25457439806E+03  0.17300000000E+03 0.  1.
         -6    1    1    2    0  502  0.85856509056E+02 -0.56037957068E+02  0.14286610596E+03  0.24668059716E+03  0.17300000000E+03 0.  1.
<mgrwt>
<rscale>  2 0.20109847E+03</rscale>
<asrwt>0</asrwt>
<pdfrwt beam="1">  1       21 0.37540006E-01 0.20109847E+03</pdfrwt>
<pdfrwt beam="2">  1       21 0.39576148E-01 0.20109847E+03</pdfrwt>
<totfact> 0.41938097E+04</totfact>
</mgrwt>
</event>
<event>
 4    1  0.4306168E+000  0.1754539E+03  0.7546771E-02  0.1172277E+00
         21   -1    0    0  501  502  0.00000000000E+00  0.00000000000E+00  0.27527194930E+03  0.27527194930E+03  0.00000000000E+00 0. -1.
         21   -1    0    0  502  503 -0.00000000000E+00 -0.00000000000E+00 -0.13588841242E+03  0.13588841242E+03  0.00000000000E+00 0. -1.
          6    1    1    2  501    0  0.25337494131E+02 -0.14597548433E+02  0.15619053375E+03  0.23490329896E+03  0.17300000000E+03 0. -1.
         -6    1    1    2    0  503 -0.25337494131E+02  0.14597548433E+02 -0.16806996880E+02  0.17625706276E+03  0.17300000000E+03 0. -1.
<mgrwt>
<rscale>  2 0.17545392E+03</rscale>
<asrwt>0</asrwt>
<pdfrwt beam="1">  1       21 0.42349531E-01 0.17545392E+03</pdfrwt>
<pdfrwt beam="2">  1       21 0.20905910E-01 0.17545392E+03</pdfrwt>
<totfact> 0.11469667E+05</totfact>
</mgrwt>
</event>
<event>
 4    1  0.4306168E+000  0.2154625E+03  0.7546771E-02  0.1137312E+00
         21   -1    0    0  501  502  0.00000000000E+00  0.00000000000E+00  0.10074502297E+03  0.10074502297E+03  0.00000000000E+00 0. -1.
         21   -1    0    0  502  503 -0.00000000000E+00 -0.00000000000E+00 -0.46080913157E+03  0.46080913157E+03  0.00000000000E+00 0.  1.
          6    1    1    2  501    0 -0.12310988227E+03  0.36592836390E+02 -0.18053296996E+03  0.28109826045E+03  0.17300000000E+03 0.  1.
         -6    1    1    2    0  503  0.12310988227E+03 -0.36592836390E+02 -0.17953113864E+03  0.28045589409E+03  0.17300000000E+03 0.  1.
<mgrwt>
<rscale>  2 0.21546248E+03</rscale>
<asrwt>0</asrwt>
<pdfrwt beam="1">  1       21 0.15499235E-01 0.21546248E+03</pdfrwt>
<pdfrwt beam="2">  1       21 0.70893711E-01 0.21546248E+03</pdfrwt>
<totfact> 0.65898053E+04</totfact>
</mgrwt>
</event>
<event>
 4    1  0.4306168E+000  0.3869294E+03  0.7546771E-02  0.1048402E+00
         21   -1    0    0  503  502  0.00000000000E+00  0.00000000000E+00  0.36168481491E+03  0.36168481491E+03  0.00000000000E+00 0. -1.
         21   -1    0    0  501  503 -0.00000000000E+00 -0.00000000000E+00 -0.53385261804E+03  0.53385261804E+03  0.00000000000E+00 0.  1.
          6    1    1    2  501    0  0.32551473969E+03  0.11758209300E+03 -0.29830208926E+03  0.48856783644E+03  0.17300000000E+03 0. -1.
         -6    1    1    2    0  502 -0.32551473969E+03 -0.11758209300E+03  0.12613428613E+03  0.40696959651E+03  0.17300000000E+03 0.  1.
<mgrwt>
<rscale>  2 0.38692944E+03</rscale>
<asrwt>0</asrwt>
<pdfrwt beam="1">  1       21 0.55643818E-01 0.38692944E+03</pdfrwt>
<pdfrwt beam="2">  1       21 0.82131172E-01 0.38692944E+03</pdfrwt>
<totfact> 0.35256179E+03</totfact>
</mgrwt>
</event>
<event>
 4    1  0.4306168E+000  0.3019799E+03  0.7546771E-02  0.1084255E+00
         21   -1    0    0  503  502  0.00000000000E+00  0.00000000000E+00  0.81430044850E+03  0.81430044850E+03  0.00000000000E+00 0. -1.
         21   -1    0    0  501  503 -0.00000000000E+00 -0.00000000000E+00 -0.19701591443E+03  0.19701591443E+03  0.00000000000E+00 0.  1.
          6    1    1    2  501    0 -0.42206067245E+02  0.24388833798E+03 -0.23548198682E+02  0.30289666749E+03  0.17300000000E+03 0.  1.
         -6    1    1    2    0  502  0.42206067245E+02 -0.24388833798E+03  0.64083273275E+03  0.70841969543E+03  0.17300000000E+03 0. -1.
<mgrwt>
<rscale>  2 0.30197992E+03</rscale>
<asrwt>0</asrwt>
<pdfrwt beam="1">  1       21 0.12527699E+00 0.30197992E+03</pdfrwt>
<pdfrwt beam="2">  1       21 0.30310141E-01 0.30197992E+03</pdfrwt>
<totfact> 0.46073251E+03</totfact>
</mgrwt>
</event>
<event>
 4    1  0.4306168E+000  0.2251887E+03  0.7546771E-02  0.1130073E+00
         21   -1    0    0  503  502  0.00000000000E+00  0.00000000000E+00  0.71956273177E+03  0.71956273177E+03  0.00000000000E+00 0. -1.
         21   -1    0    0  501  503 -0.00000000000E+00 -0.00000000000E+00 -0.10087271272E+03  0.10087271272E+03  0.00000000000E+00 0. -1.
          6    1    1    2  501    0 -0.74370474570E+02  0.12349086875E+03  0.84149281941E+02  0.24039772004E+03  0.17300000000E+03 0. -1.
         -6    1    1    2    0  502  0.74370474570E+02 -0.12349086875E+03  0.53454073711E+03  0.58003772444E+03  0.17300000000E+03 0. -1.
<mgrwt>
<rscale>  2 0.22518873E+03</rscale>
<asrwt>0</asrwt>
<pdfrwt beam="1">  1       21 0.11070196E+00 0.22518873E+03</pdfrwt>
<pdfrwt beam="2">  1       21 0.15518879E-01 0.22518873E+03</pdfrwt>
<totfact> 0.23262927E+04</totfact>
</mgrwt>
</event>
<event>
 4    1  0.4306168E+000  0.1995247E+03  0.7546771E-02  0.1150141E+00
         21   -1    0    0  503  502  0.00000000000E+00  0.00000000000E+00  0.11162023125E+03  0.11162023125E+03  0.00000000000E+00 0.  1.
         21   -1    0    0  501  503 -0.00000000000E+00 -0.00000000000E+00 -0.41508552546E+03  0.41508552546E+03  0.00000000000E+00 0.  1.
          6    1    1    2  501    0 -0.76431240417E+02 -0.63556022668E+02 -0.25053854737E+03  0.32028060548E+03  0.17300000000E+03 0.  1.
         -6    1    1    2    0  502  0.76431240417E+02  0.63556022668E+02 -0.52926746843E+02  0.20642515123E+03  0.17300000000E+03 0.  1.
<mgrwt>
<rscale>  2 0.19952469E+03</rscale>
<asrwt>0</asrwt>
<pdfrwt beam="1">  1       21 0.17172343E-01 0.19952469E+03</pdfrwt>
<pdfrwt beam="2">  1       21 0.63859312E-01 0.19952469E+03</pdfrwt>
<totfact> 0.69144999E+04</totfact>
</mgrwt>
</event>
<event>
 4    1  0.4306168E+000  0.2128259E+03  0.7546771E-02  0.1139348E+00
         21   -1    0    0  503  502  0.00000000000E+00  0.00000000000E+00  0.91605582779E+02  0.91605582779E+02  0.00000000000E+00 0. -1.
         21   -1    0    0  501  503 -0.00000000000E+00 -0.00000000000E+00 -0.16883794699E+04  0.16883794699E+04  0.00000000000E+00 0. -1.
          6    1    1    2  501    0  0.12186333039E+03  0.22697407074E+02 -0.15467972245E+04  0.15613700706E+04  0.17300000000E+03 0. -1.
         -6    1    1    2    0  502 -0.12186333039E+03 -0.22697407074E+02 -0.49976662595E+02  0.21861498207E+03  0.17300000000E+03 0. -1.
<mgrwt>
<rscale>  2 0.21282585E+03</rscale>
<asrwt>0</asrwt>
<pdfrwt beam="1">  1       21 0.14093168E-01 0.21282585E+03</pdfrwt>
<pdfrwt beam="2">  1       21 0.25975066E+00 0.21282585E+03</pdfrwt>
<totfact> 0.25051874E+03</totfact>
</mgrwt>
</event>
<event>
 4    1  0.4306168E+000  0.1928519E+03  0.7546771E-02  0.1155914E+00
         21   -1    0    0  503  502  0.00000000000E+00  0.00000000000E+00  0.11167748000E+03  0.11167748000E+03  0.00000000000E+00 0.  1.
         21   -1    0    0  501  503 -0.00000000000E+00 -0.00000000000E+00 -0.37784259605E+03  0.37784259605E+03  0.00000000000E+00 0.  1.
          6    1    1    2  501    0 -0.22923493723E+02  0.82081441005E+02 -0.21737517084E+03  0.29059217887E+03  0.17300000000E+03 0.  1.
         -6    1    1    2    0  502  0.22923493723E+02 -0.82081441005E+02 -0.48789945219E+02  0.19892789718E+03  0.17300000000E+03 0.  1.
<mgrwt>
<rscale>  2 0.19285188E+03</rscale>
<asrwt>0</asrwt>
<pdfrwt beam="1">  1       21 0.17181151E-01 0.19285188E+03</pdfrwt>
<pdfrwt beam="2">  1       21 0.58129630E-01 0.19285188E+03</pdfrwt>
<totfact> 0.84838038E+04</totfact>
</mgrwt>
</event>
<event>
 4    1  0.4306168E+000  0.2583560E+03  0.7546771E-02  0.1108135E+00
         21   -1    0    0  503  502  0.00000000000E+00  0.00000000000E+00  0.12404383999E+03  0.12404383999E+03  0.00000000000E+00 0.  1.
         21   -1    0    0  501  503 -0.00000000000E+00 -0.00000000000E+00 -0.67345357613E+03  0.67345357613E+03  0.00000000000E+00 0.  1.
          6    1    1    2  501    0 -0.15730497131E+03  0.10988164853E+03 -0.45346982513E+03  0.52190297277E+03  0.17300000000E+03 0.  1.
         -6    1    1    2    0  502  0.15730497131E+03 -0.10988164853E+03 -0.95939911003E+02  0.27559444335E+03  0.17300000000E+03 0.  1.
<mgrwt>
<rscale>  2 0.25835602E+03</rscale>
<asrwt>0</asrwt>
<pdfrwt beam="1">  1       21 0.19083668E-01 0.25835602E+03</pdfrwt>
<pdfrwt beam="2">  1       21 0.10360824E+00 0.25835602E+03</pdfrwt>
<totfact> 0.18310707E+04</totfact>
</mgrwt>
</event>
<event>
 4    1  0.4306168E+000  0.2778061E+03  0.7546771E-02  0.1096893E+00
         21   -1    0    0  501  502  0.00000000000E+00  0.00000000000E+00  0.84357381809E+03  0.84357381809E+03  0.00000000000E+00 0. -1.
         21   -1    0    0  502  503 -0.00000000000E+00 -0.00000000000E+00 -0.92069384772E+02  0.92069384772E+02  0.00000000000E+00 0.  1.
          6    1    1    2  501    0 -0.53534720201E+02  0.21066856293E+03  0.41295296847E+03  0.49770107881E+03  0.17300000000E+03 0. -1.
         -6    1    1    2    0  503  0.53534720201E+02 -0.21066856293E+03  0.33855146485E+03  0.43794212406E+03  0.17300000000E+03 0.  1.
<mgrwt>
<rscale>  2 0.27780606E+03</rscale>
<asrwt>0</asrwt>
<pdfrwt beam="1">  1       21 0.12978058E+00 0.27780606E+03</pdfrwt>
<pdfrwt beam="2">  1       21 0.14164521E-01 0.27780606E+03</pdfrwt>
<totfact> 0.18007617E+04</totfact>
</mgrwt>
</event>
<event>
 4    1  0.4306168E+000  0.1739008E+03  0.7546771E-02  0.1173840E+00
         21   -1    0    0  501  502  0.00000000000E+00  0.00000000000E+00  0.47664758739E+03  0.47664758739E+03  0.00000000000E+00 0.  1.
         21   -1    0    0  502  503 -0.00000000000E+00 -0.00000000000E+00 -0.16945346596E+03  0.16945346596E+03  0.00000000000E+00 0.  1.
          6    1    1    2  501    0  0.45071264498E+01  0.17093509370E+02  0.40911002398E+03  0.44453629095E+03  0.17300000000E+03 0.  1.
         -6    1    1    2    0  503 -0.45071264498E+01 -0.17093509370E+02 -0.10191590255E+03  0.20156476241E+03  0.17300000000E+03 0.  1.
<mgrwt>
<rscale>  2 0.17390084E+03</rscale>
<asrwt>0</asrwt>
<pdfrwt beam="1">  1       21 0.73330398E-01 0.17390084E+03</pdfrwt>
<pdfrwt beam="2">  1       21 0.26069764E-01 0.17390084E+03</pdfrwt>
<totfact> 0.23629363E+04</totfact>
</mgrwt>
</event>
<event>
 4    1  0.4306168E+000  0.1808572E+03  0.7546771E-02  0.1166976E+00
         21   -1    0    0  501  502  0.00000000000E+00  0.00000000000E+00  0.10954464635E+03  0.10954464635E+03  0.00000000000E+00 0. -1.
         21   -1    0    0  502  503 -0.00000000000E+00 -0.00000000000E+00 -0.10417279311E+04  0.10417279311E+04  0.00000000000E+00 0. -1.
          6    1    1    2  501    0  0.50932495577E+02 -0.13646084616E+02  0.20096833956E+02  0.18197037524E+03  0.17300000000E+03 0. -1.
         -6    1    1    2    0  503 -0.50932495577E+02  0.13646084616E+02 -0.95228011875E+03  0.96930220226E+03  0.17300000000E+03 0. -1.
<mgrwt>
<rscale>  2 0.18085722E+03</rscale>
<asrwt>0</asrwt>
<pdfrwt beam="1">  1       21 0.16853023E-01 0.18085722E+03</pdfrwt>
<pdfrwt beam="2">  1       21 0.16026583E+00 0.18085722E+03</pdfrwt>
<totfact> 0.80193015E+03</totfact>
</mgrwt>
</event>
<event>
 4    1  0.4306168E+000  0.2016690E+03  0.7546771E-02  0.1148338E+00
         21   -1    0    0  501  502  0.00000000000E+00  0.00000000000E+00  0.78130807792E+02  0.78130807792E+02  0.00000000000E+00 0. -1.
         21   -1    0    0  502  503 -0.00000000000E+00 -0.00000000000E+00 -0.53235793001E+03  0.53235793001E+03  0.00000000000E+00 0.  1.
          6    1    1    2  501    0  0.16788461008E+02 -0.10227181806E+03 -0.18163807578E+03  0.27140885720E+03  0.17300000000E+03 0. -1.
         -6    1    1    2    0  503 -0.16788461008E+02  0.10227181806E+03 -0.27258904644E+03  0.33907988060E+03  0.17300000000E+03 0.  1.
<mgrwt>
<rscale>  2 0.20166898E+03</rscale>
<asrwt>0</asrwt>
<pdfrwt beam="1">  1       21 0.12020124E-01 0.20166898E+03</pdfrwt>
<pdfrwt beam="2">  1       21 0.81901221E-01 0.20166898E+03</pdfrwt>
<totfact> 0.75987230E+04</totfact>
</mgrwt>
</event>
<event>
 4    1  0.4306168E+000  0.1820221E+03  0.7546771E-02  0.1165860E+00
         21   -1    0    0  503  502  0.00000000000E+00  0.00000000000E+00  0.14439337108E+03  0.14439337108E+03  0.00000000000E+00 0. -1.
         21   -1    0    0  501  503 -0.00000000000E+00 -0.00000000000E+00 -0.26855120364E+03  0.26855120364E+03  0.00000000000E+00 0.  1.
          6    1    1    2  501    0  0.54755273611E+02 -0.14314435379E+02 -0.14085700318E+03  0.23015807262E+03  0.17300000000E+03 0.  1.
         -6    1    1    2    0  502 -0.54755273611E+02  0.14314435379E+02  0.16699170619E+02  0.18278650209E+03  0.17300000000E+03 0. -1.
<mgrwt>
<rscale>  2 0.18202209E+03</rscale>
<asrwt>0</asrwt>
<pdfrwt beam="1">  1       21 0.22214365E-01 0.18202209E+03</pdfrwt>
<pdfrwt beam="2">  1       21 0.41315569E-01 0.18202209E+03</pdfrwt>
<totfact> 0.10734120E+05</totfact>
</mgrwt>
</event>
<event>
 4    1  0.4306168E+000  0.2009999E+03  0.7546771E-02  0.1148898E+00
         21   -1    0    0  501  502  0.00000000000E+00  0.00000000000E+00  0.74383096893E+02  0.74383096893E+02  0.00000000000E+00 0. -1.
         21   -1    0    0  502  503 -0.00000000000E+00 -0.00000000000E+00 -0.57390933009E+03  0.57390933009E+03  0.00000000000E+00 0. -1.
          6    1    1    2  501    0  0.10180782036E+03  0.10350000622E+02 -0.17471686047E+03  0.26632111469E+03  0.17300000000E+03 0. -1.
         -6    1    1    2    0  503 -0.10180782036E+03 -0.10350000622E+02 -0.32480937273E+03  0.38197131229E+03  0.17300000000E+03 0. -1.
<mgrwt>
<rscale>  2 0.20099989E+03</rscale>
<asrwt>0</asrwt>
<pdfrwt beam="1">  1       21 0.11443553E-01 0.20099989E+03</pdfrwt>
<pdfrwt beam="2">  1       21 0.88293743E-01 0.20099989E+03</pdfrwt>
<totfact> 0.69867540E+04</totfact>
</mgrwt>
</event>
<event>
 4    1  0.4306168E+000  0.2100289E+03  0.7546771E-02  0.1141543E+00
         21   -1    0    0  501  502  0.00000000000E+00  0.00000000000E+00  0.36275742130E+02  0.36275742130E+02  0.00000000000E+00 0.  1.
         21   -1    0    0  502  503 -0.00000000000E+00 -0.00000000000E+00 -0.21449984372E+04  0.21449984372E+04  0.00000000000E+00 0. -1.
          6    1    1    2  501    0 -0.30668884670E+02 -0.11507627686E+03 -0.33661840303E+03  0.39676703396E+03  0.17300000000E+03 0.  1.
         -6    1    1    2    0  503  0.30668884670E+02  0.11507627686E+03 -0.17721042921E+04  0.17845071454E+04  0.17300000000E+03 0. -1.
<mgrwt>
<rscale>  2 0.21002888E+03</rscale>
<asrwt>0</asrwt>
<pdfrwt beam="1">  1       21 0.55808834E-02 0.21002888E+03</pdfrwt>
<pdfrwt beam="2">  1       21 0.32999976E+00 0.21002888E+03</pdfrwt>
<totfact> 0.50062569E+03</totfact>
</mgrwt>
</event>
<event>
 4    1  0.4306168E+000  0.2292759E+03  0.7546771E-02  0.1127150E+00
         21   -1    0    0  501  502  0.00000000000E+00  0.00000000000E+00  0.22965751648E+04  0.22965751648E+04  0.00000000000E+00 0. -1.
         21   -1    0    0  502  503 -0.00000000000E+00 -0.00000000000E+00 -0.23074066310E+02  0.23074066310E+02  0.00000000000E+00 0. -1.
          6    1    1    2  501    0 -0.57483312671E+02 -0.13904711302E+03  0.10330168244E+04  0.10581546155E+04  0.17300000000E+03 0. -1.
         -6    1    1    2    0  503  0.57483312671E+02  0.13904711302E+03  0.12404842741E+04  0.12614946155E+04  0.17300000000E+03 0. -1.
<mgrwt>
<rscale>  2 0.22927588E+03</rscale>
<asrwt>0</asrwt>
<pdfrwt beam="1">  1       21 0.35331907E+00 0.22927588E+03</pdfrwt>
<pdfrwt beam="2">  1       21 0.35498582E-02 0.22927588E+03</pdfrwt>
<totfact> 0.76691525E+03</totfact>
</mgrwt>
</event>
<event>
 4    1  0.4306168E+000  0.1846257E+03  0.7546771E-02  0.1163400E+00
         21   -1    0    0  503  502  0.00000000000E+00  0.00000000000E+00  0.45276825682E+02  0.45276825682E+02  0.00000000000E+00 0. -1.
         21   -1    0    0  501  503 -0.00000000000E+00 -0.00000000000E+00 -0.80002614304E+03  0.80002614304E+03  0.00000000000E+00 0. -1.
          6    1    1    2  501    0  0.58273266607E+02  0.27602089500E+02 -0.27474037227E+03  0.33101196519E+03  0.17300000000E+03 0.  1.
         -6    1    1    2    0  502 -0.58273266607E+02 -0.27602089500E+02 -0.48000894509E+03  0.51429100353E+03  0.17300000000E+03 0.  1.
<mgrwt>
<rscale>  2 0.18462570E+03</rscale>
<asrwt>0</asrwt>
<pdfrwt beam="1">  1       21 0.69656656E-02 0.18462570E+03</pdfrwt>
<pdfrwt beam="2">  1       21 0.12308094E+00 0.18462570E+03</pdfrwt>
<totfact> 0.75926106E+04</totfact>
</mgrwt>
</event>
<event>
 4    1  0.4306168E+000  0.2367341E+03  0.7546771E-02  0.1121988E+00
         21   -1    0    0  503  502  0.00000000000E+00  0.00000000000E+00  0.89143311267E+03  0.89143311267E+03  0.00000000000E+00 0.  1.
         21   -1    0    0  501  503 -0.00000000000E+00 -0.00000000000E+00 -0.63409862802E+02  0.63409862802E+02  0.00000000000E+00 0.  1.
          6    1    1    2  501    0 -0.47752212564E+02  0.15438181587E+03  0.36989650600E+03  0.43916562255E+03  0.17300000000E+03 0.  1.
         -6    1    1    2    0  502  0.47752212564E+02 -0.15438181587E+03  0.45812674387E+03  0.51567735293E+03  0.17300000000E+03 0.  1.
<mgrwt>
<rscale>  2 0.23673407E+03</rscale>
<asrwt>0</asrwt>
<pdfrwt beam="1">  1       21 0.13714355E+00 0.23673407E+03</pdfrwt>
<pdfrwt beam="2">  1       21 0.97553642E-02 0.23673407E+03</pdfrwt>
<totfact> 0.31199212E+04</totfact>
</mgrwt>
</event>
<event>
 4    1  0.4306168E+000  0.1831138E+03  0.7546771E-02  0.1164823E+00
         21   -1    0    0  503  502  0.00000000000E+00  0.00000000000E+00  0.35458999484E+03  0.35458999484E+03  0.00000000000E+00 0.  1.
         21   -1    0    0  501  503 -0.00000000000E+00 -0.00000000000E+00 -0.21091802338E+03  0.21091802338E+03  0.00000000000E+00 0.  1.
          6    1    1    2  501    0  0.59162804094E+02 -0.10070932403E+02 -0.13817730057E+03  0.22939840335E+03  0.17300000000E+03 0.  1.
         -6    1    1    2    0  502 -0.59162804094E+02  0.10070932403E+02  0.28184927203E+03  0.33610961487E+03  0.17300000000E+03 0.  1.
<mgrwt>
<rscale>  2 0.18311379E+03</rscale>
<asrwt>0</asrwt>
<pdfrwt beam="1">  1       21 0.54552307E-01 0.18311379E+03</pdfrwt>
<pdfrwt beam="2">  1       21 0.32448927E-01 0.18311379E+03</pdfrwt>
<totfact> 0.29152301E+04</totfact>
</mgrwt>
</event>
<event>
 4    1  0.4306168E+000  0.1940916E+03  0.7546771E-02  0.1154822E+00
         21   -1    0    0  501  502  0.00000000000E+00  0.00000000000E+00  0.49510586993E+02  0.49510586993E+02  0.00000000000E+00 0.  1.
         21   -1    0    0  502  503 -0.00000000000E+00 -0.00000000000E+00 -0.76309901650E+03  0.76309901650E+03  0.00000000000E+00 0. -1.
          6    1    1    2  501    0 -0.54298604242E+02  0.69240186221E+02 -0.33487690545E+03  0.38705824318E+03  0.17300000000E+03 0. -1.
         -6    1    1    2    0  503  0.54298604242E+02 -0.69240186221E+02 -0.37871152406E+03  0.42555136031E+03  0.17300000000E+03 0.  1.
<mgrwt>
<rscale>  2 0.19409158E+03</rscale>
<asrwt>0</asrwt>
<pdfrwt beam="1">  1       21 0.76170137E-02 0.19409158E+03</pdfrwt>
<pdfrwt beam="2">  1       21 0.11739984E+00 0.19409158E+03</pdfrwt>
<totfact> 0.72798103E+04</totfact>
</mgrwt>
</event>
<event>
 4    1  0.4306168E+000  0.1866282E+03  0.7546771E-02  0.1161538E+00
         21   -1    0    0  503  502  0.00000000000E+00  0.00000000000E+00  0.81482662997E+02  0.81482662997E+02  0.00000000000E+00 0. -1.
         21   -1    0    0  501  503 -0.00000000000E+00 -0.00000000000E+00 -0.45986810180E+03  0.45986810180E+03  0.00000000000E+00 0. -1.
          6    1    1    2  501    0  0.15913897353E+02  0.68175118416E+02 -0.11733086851E+03  0.22044643704E+03  0.17300000000E+03 0. -1.
         -6    1    1    2    0  502 -0.15913897353E+02 -0.68175118416E+02 -0.26105457030E+03  0.32090432776E+03  0.17300000000E+03 0. -1.
<mgrwt>
<rscale>  2 0.18662824E+03</rscale>
<asrwt>0</asrwt>
<pdfrwt beam="1">  1       21 0.12535794E-01 0.18662824E+03</pdfrwt>
<pdfrwt beam="2">  1       21 0.70748940E-01 0.18662824E+03</pdfrwt>
<totfact> 0.98442687E+04</totfact>
</mgrwt>
</event>
<event>
 4    1  0.4306168E+000  0.1942481E+03  0.7546771E-02  0.1154685E+00
         21   -1    0    0  501  502  0.00000000000E+00  0.00000000000E+00  0.28205472631E+02  0.28205472631E+02  0.00000000000E+00 0.  1.
         21   -1    0    0  502  503 -0.00000000000E+00 -0.00000000000E+00 -0.13489454084E+04  0.13489454084E+04  0.00000000000E+00 0. -1.
          6    1    1    2  501    0 -0.60429020278E+02 -0.64433486210E+02 -0.59768677303E+03  0.62845987882E+03  0.17300000000E+03 0.  1.
         -6    1    1    2    0  503  0.60429020278E+02  0.64433486210E+02 -0.72305316272E+03  0.74869100219E+03  0.17300000000E+03 0. -1.
<mgrwt>
<rscale>  2 0.19424814E+03</rscale>
<asrwt>0</asrwt>
<pdfrwt beam="1">  1       21 0.43393028E-02 0.19424814E+03</pdfrwt>
<pdfrwt beam="2">  1       21 0.20753009E+00 0.19424814E+03</pdfrwt>
<totfact> 0.41054636E+04</totfact>
</mgrwt>
</event>
<event>
 4    1  0.4306168E+000  0.1941179E+03  0.7546771E-02  0.1154799E+00
         21   -1    0    0  503  502  0.00000000000E+00  0.00000000000E+00  0.76626482708E+02  0.76626482708E+02  0.00000000000E+00 0.  1.
         21   -1    0    0  501  503 -0.00000000000E+00 -0.00000000000E+00 -0.76307327669E+03  0.76307327669E+03  0.00000000000E+00 0.  1.
          6    1    1    2  501    0  0.58299436092E+02 -0.65984387971E+02 -0.59357318150E+03  0.62450851515E+03  0.17300000000E+03 0.  1.
         -6    1    1    2    0  502 -0.58299436092E+02  0.65984387971E+02 -0.92873612485E+02  0.21519124425E+03  0.17300000000E+03 0.  1.
<mgrwt>
<rscale>  2 0.19411791E+03</rscale>
<asrwt>0</asrwt>
<pdfrwt beam="1">  1       21 0.11788690E-01 0.19411791E+03</pdfrwt>
<pdfrwt beam="2">  1       21 0.11739589E+00 0.19411791E+03</pdfrwt>
<totfact> 0.33741960E+04</totfact>
</mgrwt>
</event>
<event>
 4    1  0.4306168E+000  0.1794212E+03  0.7546771E-02  0.1168364E+00
         21   -1    0    0  503  502  0.00000000000E+00  0.00000000000E+00  0.30035487094E+02  0.30035487094E+02  0.00000000000E+00 0. -1.
         21   -1    0    0  501  503 -0.00000000000E+00 -0.00000000000E+00 -0.11925682338E+04  0.11925682338E+04  0.00000000000E+00 0. -1.
          6    1    1    2  501    0  0.47556649169E+02 -0.11552101362E+01 -0.77579986779E+03  0.79627721571E+03  0.17300000000E+03 0. -1.
         -6    1    1    2    0  502 -0.47556649169E+02  0.11552101362E+01 -0.38673287892E+03  0.42632650519E+03  0.17300000000E+03 0. -1.
<mgrwt>
<rscale>  2 0.17942121E+03</rscale>
<asrwt>0</asrwt>
<pdfrwt beam="1">  1       21 0.46208442E-02 0.17942121E+03</pdfrwt>
<pdfrwt beam="2">  1       21 0.18347203E+00 0.17942121E+03</pdfrwt>
<totfact> 0.53421790E+04</totfact>
</mgrwt>
</event>
<event>
 4    1  0.4306168E+000  0.1934340E+03  0.7546771E-02  0.1155400E+00
         21   -1    0    0  501  502  0.00000000000E+00  0.00000000000E+00  0.14913836677E+03  0.14913836677E+03  0.00000000000E+00 0. -1.
         21   -1    0    0  502  503 -0.00000000000E+00 -0.00000000000E+00 -0.27325011062E+03  0.27325011062E+03  0.00000000000E+00 0.  1.
          6    1    1    2  501    0 -0.36109660174E+02  0.78637250860E+02 -0.16362591844E+01  0.19344095255E+03  0.17300000000E+03 0. -1.
         -6    1    1    2    0  503  0.36109660174E+02 -0.78637250860E+02 -0.12247548467E+03  0.22894752483E+03  0.17300000000E+03 0.  1.
<mgrwt>
<rscale>  2 0.19343403E+03</rscale>
<asrwt>0</asrwt>
<pdfrwt beam="1">  1       21 0.22944364E-01 0.19343403E+03</pdfrwt>
<pdfrwt beam="2">  1       21 0.42038478E-01 0.19343403E+03</pdfrwt>
<totfact> 0.97080155E+04</totfact>
</mgrwt>
</event>
<event>
 4    1  0.4306168E+000  0.1805861E+03  0.7546771E-02  0.1167237E+00
         21   -1    0    0  503  502  0.00000000000E+00  0.00000000000E+00  0.11903098408E+03  0.11903098408E+03  0.00000000000E+00 0. -1.
         21   -1    0    0  501  503 -0.00000000000E+00 -0.00000000000E+00 -0.17266504064E+04  0.17266504064E+04  0.00000000000E+00 0. -1.
          6    1    1    2  501    0 -0.31347781112E+01  0.51696455940E+02 -0.16502747540E+04  0.16601259332E+04  0.17300000000E+03 0. -1.
         -6    1    1    2    0  502  0.31347781112E+01 -0.51696455940E+02  0.42655331717E+02  0.18555545725E+03  0.17300000000E+03 0. -1.
<mgrwt>
<rscale>  2 0.18058613E+03</rscale>
<asrwt>0</asrwt>
<pdfrwt beam="1">  1       21 0.18312458E-01 0.18058613E+03</pdfrwt>
<pdfrwt beam="2">  1       21 0.26563853E+00 0.18058613E+03</pdfrwt>
<totfact> 0.14879262E+03</totfact>
</mgrwt>
</event>
<event>
 4    1  0.4306168E+000  0.1732743E+03  0.7546771E-02  0.1174476E+00
         21   -1    0    0  501  502  0.00000000000E+00  0.00000000000E+00  0.43282103003E+03  0.43282103003E+03  0.00000000000E+00 0.  1.
         21   -1    0    0  502  503 -0.00000000000E+00 -0.00000000000E+00 -0.82553151381E+02  0.82553151381E+02  0.00000000000E+00 0.  1.
          6    1    1    2  501    0  0.12367541424E+01  0.96664303804E+01  0.27811725339E+03  0.32767846446E+03  0.17300000000E+03 0.  1.
         -6    1    1    2    0  503 -0.12367541424E+01 -0.96664303804E+01  0.72150625260E+02  0.18769571695E+03  0.17300000000E+03 0.  1.
<mgrwt>
<rscale>  2 0.17327426E+03</rscale>
<asrwt>0</asrwt>
<pdfrwt beam="1">  1       21 0.66587849E-01 0.17327426E+03</pdfrwt>
<pdfrwt beam="2">  1       21 0.12700485E-01 0.17327426E+03</pdfrwt>
<totfact> 0.11041095E+05</totfact>
</mgrwt>
</event>
<event>
 4    1  0.4306168E+000  0.1897572E+03  0.7546771E-02  0.1158680E+00
         21   -1    0    0  501  502  0.00000000000E+00  0.00000000000E+00  0.31517849672E+03  0.31517849672E+03  0.00000000000E+00 0.  1.
         21   -1    0    0  502  503 -0.00000000000E+00 -0.00000000000E+00 -0.13014809929E+03  0.13014809929E+03  0.00000000000E+00 0.  1.
          6    1    1    2  501    0 -0.20744328699E+02  0.75156414907E+02  0.17034751005E+03  0.25500213343E+03  0.17300000000E+03 0. -1.
         -6    1    1    2    0  503  0.20744328699E+02 -0.75156414907E+02  0.14682887385E+02  0.19032446258E+03  0.17300000000E+03 0. -1.
<mgrwt>
<rscale>  2 0.18975725E+03</rscale>
<asrwt>0</asrwt>
<pdfrwt beam="1">  1       21 0.48488999E-01 0.18975725E+03</pdfrwt>
<pdfrwt beam="2">  1       21 0.20022785E-01 0.18975725E+03</pdfrwt>
<totfact> 0.93662156E+04</totfact>
</mgrwt>
</event>
<event>
 4    1  0.4306168E+000  0.2411127E+03  0.7546771E-02  0.1119054E+00
         21   -1    0    0  501  502  0.00000000000E+00  0.00000000000E+00  0.53672672966E+03  0.53672672966E+03  0.00000000000E+00 0. -1.
         21   -1    0    0  502  503 -0.00000000000E+00 -0.00000000000E+00 -0.23492920082E+03  0.23492920082E+03  0.00000000000E+00 0.  1.
          6    1    1    2  501    0  0.14965395455E+02 -0.16727925434E+03  0.43414698471E+03  0.49660740664E+03  0.17300000000E+03 0. -1.
         -6    1    1    2    0  503 -0.14965395455E+02  0.16727925434E+03 -0.13234945588E+03  0.27504852384E+03  0.17300000000E+03 0.  1.
<mgrwt>
<rscale>  2 0.24111265E+03</rscale>
<asrwt>0</asrwt>
<pdfrwt beam="1">  1       21 0.82573343E-01 0.24111265E+03</pdfrwt>
<pdfrwt beam="2">  1       21 0.36142954E-01 0.24111265E+03</pdfrwt>
<totfact> 0.91562499E+03</totfact>
</mgrwt>
</event>
<event>
 4    1  0.4306168E+000  0.2047476E+03  0.7546771E-02  0.1145794E+00
         21   -1    0    0  501  502  0.00000000000E+00  0.00000000000E+00  0.16960259671E+03  0.16960259671E+03  0.00000000000E+00 0. -1.
         21   -1    0    0  502  503 -0.00000000000E+00 -0.00000000000E+00 -0.31924702644E+03  0.31924702644E+03  0.00000000000E+00 0.  1.
          6    1    1    2  501    0 -0.44425051953E+02 -0.10009487670E+03  0.41313120180E+02  0.20887398948E+03  0.17300000000E+03 0. -1.
         -6    1    1    2    0  503  0.44425051953E+02  0.10009487670E+03 -0.19095754991E+03  0.27997563367E+03  0.17300000000E+03 0. -1.
<mgrwt>
<rscale>  2 0.20474758E+03</rscale>
<asrwt>0</asrwt>
<pdfrwt beam="1">  1       21 0.26092707E-01 0.20474758E+03</pdfrwt>
<pdfrwt beam="2">  1       21 0.49114927E-01 0.20474758E+03</pdfrwt>
<totfact> 0.54877274E+04</totfact>
</mgrwt>
</event>
<event>
 4    1  0.4306168E+000  0.2168517E+03  0.7546771E-02  0.1136252E+00
         21   -1    0    0  501  502  0.00000000000E+00  0.00000000000E+00  0.30510881870E+02  0.30510881870E+02  0.00000000000E+00 0. -1.
         21   -1    0    0  502  503 -0.00000000000E+00 -0.00000000000E+00 -0.15467406541E+04  0.15467406541E+04  0.00000000000E+00 0. -1.
          6    1    1    2  501    0 -0.11964883256E+03  0.52724069939E+02 -0.71109657785E+03  0.74342653552E+03  0.17300000000E+03 0. -1.
         -6    1    1    2    0  503  0.11964883256E+03 -0.52724069939E+02 -0.80513319439E+03  0.83382500046E+03  0.17300000000E+03 0. -1.
<mgrwt>
<rscale>  2 0.21685173E+03</rscale>
<asrwt>0</asrwt>
<pdfrwt beam="1">  1       21 0.46939827E-02 0.21685173E+03</pdfrwt>
<pdfrwt beam="2">  1       21 0.23796006E+00 0.21685173E+03</pdfrwt>
<totfact> 0.23003285E+04</totfact>
</mgrwt>
</event>
<event>
 4    1  0.4306168E+000  0.2002559E+03  0.7546771E-02  0.1149523E+00
         21   -1    0    0  501  502  0.00000000000E+00  0.00000000000E+00  0.42541249095E+03  0.42541249095E+03  0.00000000000E+00 0. -1.
         21   -1    0    0  502  503 -0.00000000000E+00 -0.00000000000E+00 -0.12666918796E+03  0.12666918796E+03  0.00000000000E+00 0. -1.
          6    1    1    2  501    0 -0.11849138639E+02  0.10016505405E+03  0.28898397052E+03  0.35158807624E+03  0.17300000000E+03 0. -1.
         -6    1    1    2    0  503  0.11849138639E+02 -0.10016505405E+03  0.97593324735E+01  0.20049360267E+03  0.17300000000E+03 0. -1.
<mgrwt>
<rscale>  2 0.20025594E+03</rscale>
<asrwt>0</asrwt>
<pdfrwt beam="1">  1       21 0.65448075E-01 0.20025594E+03</pdfrwt>
<pdfrwt beam="2">  1       21 0.19487568E-01 0.20025594E+03</pdfrwt>
<totfact> 0.51828257E+04</totfact>
</mgrwt>
</event>
<event>
 4    1  0.4306168E+000  0.3412814E+03  0.7546771E-02  0.1066251E+00
         21   -1    0    0  501  502  0.00000000000E+00  0.00000000000E+00  0.84264045333E+03  0.84264045333E+03  0.00000000000E+00 0.  1.
         21   -1    0    0  502  503 -0.00000000000E+00 -0.00000000000E+00 -0.15087741318E+03  0.15087741318E+03  0.00000000000E+00 0.  1.
          6    1    1    2  501    0  0.26871455699E+03  0.11973498377E+03  0.48974168815E+03  0.59692537271E+03  0.17300000000E+03 0.  1.
         -6    1    1    2    0  503 -0.26871455699E+03 -0.11973498377E+03  0.20202135200E+03  0.39659249380E+03  0.17300000000E+03 0.  1.
<mgrwt>
<rscale>  2 0.34128138E+03</rscale>
<asrwt>0</asrwt>
<pdfrwt beam="1">  1       21 0.12963699E+00 0.34128138E+03</pdfrwt>
<pdfrwt beam="2">  1       21 0.23211910E-01 0.34128138E+03</pdfrwt>
<totfact> 0.69591794E+03</totfact>
</mgrwt>
</event>
<event>
 4    1  0.4306168E+000  0.2600014E+03  0.7546771E-02  0.1107142E+00
         21   -1    0    0  501  502  0.00000000000E+00  0.00000000000E+00  0.57179087001E+03  0.57179087001E+03  0.00000000000E+00 0. -1.
         21   -1    0    0  502  503 -0.00000000000E+00 -0.00000000000E+00 -0.24544144856E+03  0.24544144856E+03  0.00000000000E+00 0.  1.
          6    1    1    2  501    0  0.18997990490E+03 -0.39741142099E+02  0.45735325079E+03  0.52609192985E+03  0.17300000000E+03 0. -1.
         -6    1    1    2    0  503 -0.18997990490E+03  0.39741142099E+02 -0.13100382935E+03  0.29114038872E+03  0.17300000000E+03 0.  1.
<mgrwt>
<rscale>  2 0.26000139E+03</rscale>
<asrwt>0</asrwt>
<pdfrwt beam="1">  1       21 0.87967826E-01 0.26000139E+03</pdfrwt>
<pdfrwt beam="2">  1       21 0.37760223E-01 0.26000139E+03</pdfrwt>
<totfact> 0.71684940E+03</totfact>
</mgrwt>
</event>
<event>
 4    1  0.4306168E+000  0.1792232E+03  0.7546771E-02  0.1168557E+00
         21   -1    0    0  501  502  0.00000000000E+00  0.00000000000E+00  0.72416346135E+03  0.72416346135E+03  0.00000000000E+00 0.  1.
         21   -1    0    0  502  503 -0.00000000000E+00 -0.00000000000E+00 -0.19711815712E+03  0.19711815712E+03  0.00000000000E+00 0.  1.
          6    1    1    2  501    0  0.24873123599E+02  0.39664409551E+02  0.66903781522E+03  0.69262727051E+03  0.17300000000E+03 0.  1.
         -6    1    1    2    0  503 -0.24873123599E+02 -0.39664409551E+02 -0.14199251099E+03  0.22865434796E+03  0.17300000000E+03 0.  1.
<mgrwt>
<rscale>  2 0.17922315E+03</rscale>
<asrwt>0</asrwt>
<pdfrwt beam="1">  1       21 0.11140976E+00 0.17922315E+03</pdfrwt>
<pdfrwt beam="2">  1       21 0.30325871E-01 0.17922315E+03</pdfrwt>
<totfact> 0.66768198E+03</totfact>
</mgrwt>
</event>
<event>
 4    1  0.4306168E+000  0.3871654E+03  0.7546771E-02  0.1048317E+00
         21   -1    0    0  503  502  0.00000000000E+00  0.00000000000E+00  0.53229987898E+03  0.53229987898E+03  0.00000000000E+00 0.  1.
         21   -1    0    0  501  503 -0.00000000000E+00 -0.00000000000E+00 -0.42215623615E+03  0.42215623615E+03  0.00000000000E+00 0.  1.
          6    1    1    2  501    0  0.10845155553E+03  0.32894723763E+03 -0.22029424538E+03  0.44545098450E+03  0.17300000000E+03 0.  1.
         -6    1    1    2    0  502 -0.10845155553E+03 -0.32894723763E+03  0.33043788821E+03  0.50900513063E+03  0.17300000000E+03 0.  1.
<mgrwt>
<rscale>  2 0.38716537E+03</rscale>
<asrwt>0</asrwt>
<pdfrwt beam="1">  1       21 0.81892289E-01 0.38716537E+03</pdfrwt>
<pdfrwt beam="2">  1       21 0.64947113E-01 0.38716537E+03</pdfrwt>
<totfact> 0.25317264E+03</totfact>
</mgrwt>
</event>
<event>
 4    1  0.4306168E+000  0.1909887E+03  0.7546771E-02  0.1157573E+00
         21   -1    0    0  501  502  0.00000000000E+00  0.00000000000E+00  0.21197129891E+03  0.21197129891E+03  0.00000000000E+00 0.  1.
         21   -1    0    0  502  503 -0.00000000000E+00 -0.00000000000E+00 -0.17534659434E+03  0.17534659434E+03  0.00000000000E+00 0.  1.
          6    1    1    2  501    0 -0.80874701147E+02 -0.26390113029E+01 -0.81074309280E+01  0.19116069707E+03  0.17300000000E+03 0. -1.
         -6    1    1    2    0  503  0.80874701147E+02  0.26390113029E+01  0.44732135497E+02  0.19615719618E+03  0.17300000000E+03 0. -1.
<mgrwt>
<rscale>  2 0.19098870E+03</rscale>
<asrwt>0</asrwt>
<pdfrwt beam="1">  1       21 0.32610969E-01 0.19098870E+03</pdfrwt>
<pdfrwt beam="2">  1       21 0.26976399E-01 0.19098870E+03</pdfrwt>
<totfact> 0.11854367E+05</totfact>
</mgrwt>
</event>
<event>
 4    1  0.4306168E+000  0.1890363E+03  0.7546771E-02  0.1159333E+00
         21   -1    0    0  503  502  0.00000000000E+00  0.00000000000E+00  0.42565285560E+03  0.42565285560E+03  0.00000000000E+00 0.  1.
         21   -1    0    0  501  503 -0.00000000000E+00 -0.00000000000E+00 -0.99037524560E+02  0.99037524560E+02  0.00000000000E+00 0.  1.
          6    1    1    2  501    0 -0.75960810648E+02 -0.59736691887E+01  0.60921195006E+02  0.19861047676E+03  0.17300000000E+03 0.  1.
         -6    1    1    2    0  502  0.75960810648E+02  0.59736691887E+01  0.26569413603E+03  0.32607990340E+03  0.17300000000E+03 0.  1.
<mgrwt>
<rscale>  2 0.18903632E+03</rscale>
<asrwt>0</asrwt>
<pdfrwt beam="1">  1       21 0.65485054E-01 0.18903632E+03</pdfrwt>
<pdfrwt beam="2">  1       21 0.15236542E-01 0.18903632E+03</pdfrwt>
<totfact> 0.81882816E+04</totfact>
</mgrwt>
</event>
<event>
 4    1  0.4306168E+000  0.1735008E+03  0.7546771E-02  0.1174246E+00
         21   -1    0    0  501  502  0.00000000000E+00  0.00000000000E+00  0.17172457529E+04  0.17172457529E+04  0.00000000000E+00 0.  1.
         21   -1    0    0  502  503 -0.00000000000E+00 -0.00000000000E+00 -0.77934252037E+02  0.77934252037E+02  0.00000000000E+00 0.  1.
          6    1    1    2  501    0 -0.11516171684E+02  0.63943762256E+01  0.16098780251E+04  0.16192003477E+04  0.17300000000E+03 0.  1.
         -6    1    1    2    0  503  0.11516171684E+02 -0.63943762256E+01  0.29433475721E+02  0.17597965721E+03  0.17300000000E+03 0.  1.
<mgrwt>
<rscale>  2 0.17350075E+03</rscale>
<asrwt>0</asrwt>
<pdfrwt beam="1">  1       21 0.26419163E+00 0.17350075E+03</pdfrwt>
<pdfrwt beam="2">  1       21 0.11989886E-01 0.17350075E+03</pdfrwt>
<totfact> 0.33021131E+03</totfact>
</mgrwt>
</event>
<event>
 4    1  0.4306168E+000  0.1791625E+03  0.7546771E-02  0.1168616E+00
         21   -1    0    0  501  502  0.00000000000E+00  0.00000000000E+00  0.58764818851E+02  0.58764818851E+02  0.00000000000E+00 0.  1.
         21   -1    0    0  502  503 -0.00000000000E+00 -0.00000000000E+00 -0.54869254964E+03  0.54869254964E+03  0.00000000000E+00 0.  1.
          6    1    1    2  501    0  0.19685300130E+02 -0.42221763928E+02 -0.26530576985E+03  0.32013487768E+03  0.17300000000E+03 0. -1.
         -6    1    1    2    0  503 -0.19685300130E+02  0.42221763928E+02 -0.22462196093E+03  0.28732249081E+03  0.17300000000E+03 0. -1.
<mgrwt>
<rscale>  2 0.17916246E+03</rscale>
<asrwt>0</asrwt>
<pdfrwt beam="1">  1       21 0.90407417E-02 0.17916246E+03</pdfrwt>
<pdfrwt beam="2">  1       21 0.84414236E-01 0.17916246E+03</pdfrwt>
<totfact> 0.11857529E+05</totfact>
</mgrwt>
</event>
<event>
 4    1  0.4306168E+000  0.1981765E+03  0.7546771E-02  0.1151287E+00
         21   -1    0    0  503  502  0.00000000000E+00  0.00000000000E+00  0.14615659935E+03  0.14615659935E+03  0.00000000000E+00 0. -1.
         21   -1    0    0  501  503 -0.00000000000E+00 -0.00000000000E+00 -0.30805581889E+03  0.30805581889E+03  0.00000000000E+00 0. -1.
          6    1    1    2  501    0  0.96668491563E+02  0.36119499629E+00 -0.16211231205E+03  0.25603579718E+03  0.17300000000E+03 0. -1.
         -6    1    1    2    0  502 -0.96668491563E+02 -0.36119499629E+00  0.21309250665E+00  0.19817662105E+03  0.17300000000E+03 0. -1.
<mgrwt>
<rscale>  2 0.19817651E+03</rscale>
<asrwt>0</asrwt>
<pdfrwt beam="1">  1       21 0.22485631E-01 0.19817651E+03</pdfrwt>
<pdfrwt beam="2">  1       21 0.47393202E-01 0.19817651E+03</pdfrwt>
<totfact> 0.78699340E+04</totfact>
</mgrwt>
</event>
<event>
 4    1  0.4306168E+000  0.1792712E+03  0.7546771E-02  0.1168510E+00
         21   -1    0    0  501  502  0.00000000000E+00  0.00000000000E+00  0.41167838041E+02  0.41167838041E+02  0.00000000000E+00 0.  1.
         21   -1    0    0  502  503 -0.00000000000E+00 -0.00000000000E+00 -0.82579773191E+03  0.82579773191E+03  0.00000000000E+00 0.  1.
          6    1    1    2  501    0 -0.19870812051E+02  0.42594957005E+02 -0.29097194461E+03  0.34176432243E+03  0.17300000000E+03 0. -1.
         -6    1    1    2    0  503  0.19870812051E+02 -0.42594957005E+02 -0.49365794926E+03  0.52520124752E+03  0.17300000000E+03 0. -1.
<mgrwt>
<rscale>  2 0.17927125E+03</rscale>
<asrwt>0</asrwt>
<pdfrwt beam="1">  1       21 0.63335135E-02 0.17927125E+03</pdfrwt>
<pdfrwt beam="2">  1       21 0.12704581E+00 0.17927125E+03</pdfrwt>
<totfact> 0.82823736E+04</totfact>
</mgrwt>
</event>
<event>
 4    1  0.4306168E+000  0.1982120E+03  0.7546771E-02  0.1151256E+00
         21   -1    0    0  501  502  0.00000000000E+00  0.00000000000E+00  0.14809525805E+03  0.14809525805E+03  0.00000000000E+00 0.  1.
         21   -1    0    0  502  503 -0.00000000000E+00 -0.00000000000E+00 -0.35853712999E+03  0.35853712999E+03  0.00000000000E+00 0. -1.
          6    1    1    2  501    0 -0.92564041088E+02  0.28122771406E+02  0.23965450935E+02  0.19965554040E+03  0.17300000000E+03 0.  1.
         -6    1    1    2    0  503  0.92564041088E+02 -0.28122771406E+02 -0.23440732287E+03  0.30697684765E+03  0.17300000000E+03 0. -1.
<mgrwt>
<rscale>  2 0.19821199E+03</rscale>
<asrwt>0</asrwt>
<pdfrwt beam="1">  1       21 0.22783886E-01 0.19821199E+03</pdfrwt>
<pdfrwt beam="2">  1       21 0.55159559E-01 0.19821199E+03</pdfrwt>
<totfact> 0.55866324E+04</totfact>
</mgrwt>
</event>
<event>
 4    1  0.4306168E+000  0.1751845E+03  0.7546771E-02  0.1172547E+00
         21   -1    0    0  503  502  0.00000000000E+00  0.00000000000E+00  0.22982922988E+03  0.22982922988E+03  0.00000000000E+00 0.  1.
         21   -1    0    0  501  503 -0.00000000000E+00 -0.00000000000E+00 -0.14668049643E+03  0.14668049643E+03  0.00000000000E+00 0.  1.
          6    1    1    2  501    0  0.21273466251E+02  0.17551258035E+02 -0.14788678625E+02  0.17580759950E+03  0.17300000000E+03 0.  1.
         -6    1    1    2    0  502 -0.21273466251E+02 -0.17551258035E+02  0.97937412077E+02  0.20070212682E+03  0.17300000000E+03 0.  1.
<mgrwt>
<rscale>  2 0.17518449E+03</rscale>
<asrwt>0</asrwt>
<pdfrwt beam="1">  1       21 0.35358343E-01 0.17518449E+03</pdfrwt>
<pdfrwt beam="2">  1       21 0.22566230E-01 0.17518449E+03</pdfrwt>
<totfact> 0.14271334E+05</totfact>
</mgrwt>
</event>
<event>
 4    1  0.4306168E+000  0.1810016E+03  0.7546771E-02  0.1166837E+00
         21   -1    0    0  503  502  0.00000000000E+00  0.00000000000E+00  0.15393024065E+03  0.15393024065E+03  0.00000000000E+00 0. -1.
         21   -1    0    0  501  503 -0.00000000000E+00 -0.00000000000E+00 -0.41924556585E+03  0.41924556585E+03  0.00000000000E+00 0. -1.
          6    1    1    2  501    0  0.52063092635E+02 -0.11046108623E+02 -0.33374775614E+03  0.37966978660E+03  0.17300000000E+03 0. -1.
         -6    1    1    2    0  502 -0.52063092635E+02  0.11046108623E+02  0.68432430938E+02  0.19350601989E+03  0.17300000000E+03 0. -1.
<mgrwt>
<rscale>  2 0.18100161E+03</rscale>
<asrwt>0</asrwt>
<pdfrwt beam="1">  1       21 0.23681576E-01 0.18100161E+03</pdfrwt>
<pdfrwt beam="2">  1       21 0.64499316E-01 0.18100161E+03</pdfrwt>
<totfact> 0.37443355E+04</totfact>
</mgrwt>
</event>
<event>
 4    1  0.4306168E+000  0.1782979E+03  0.7546771E-02  0.1169461E+00
         21   -1    0    0  503  502  0.00000000000E+00  0.00000000000E+00  0.69656561147E+03  0.69656561147E+03  0.00000000000E+00 0.  1.
         21   -1    0    0  501  503 -0.00000000000E+00 -0.00000000000E+00 -0.82453278113E+02  0.82453278113E+02  0.00000000000E+00 0.  1.
          6    1    1    2  501    0  0.42612663248E+02 -0.67319041619E+01  0.46785296559E+02  0.18433399463E+03  0.17300000000E+03 0.  1.
         -6    1    1    2    0  502 -0.42612663248E+02  0.67319041619E+01  0.56732703680E+03  0.59468489496E+03  0.17300000000E+03 0.  1.
<mgrwt>
<rscale>  2 0.17829795E+03</rscale>
<asrwt>0</asrwt>
<pdfrwt beam="1">  1       21 0.10716394E+00 0.17829795E+03</pdfrwt>
<pdfrwt beam="2">  1       21 0.12685120E-01 0.17829795E+03</pdfrwt>
<totfact> 0.37244309E+04</totfact>
</mgrwt>
</event>
<event>
 4    1  0.4306168E+000  0.2278694E+03  0.7546771E-02  0.1128148E+00
         21   -1    0    0  503  502  0.00000000000E+00  0.00000000000E+00  0.12399058893E+03  0.12399058893E+03  0.00000000000E+00 0.  1.
         21   -1    0    0  501  503 -0.00000000000E+00 -0.00000000000E+00 -0.54689218531E+03  0.54689218531E+03  0.00000000000E+00 0.  1.
          6    1    1    2  501    0  0.65911357580E+02 -0.13285761678E+03 -0.37380571853E+03  0.43778438597E+03  0.17300000000E+03 0.  1.
         -6    1    1    2    0  502 -0.65911357580E+02  0.13285761678E+03 -0.49095877846E+02  0.23309838827E+03  0.17300000000E+03 0.  1.
<mgrwt>
<rscale>  2 0.22786938E+03</rscale>
<asrwt>0</asrwt>
<pdfrwt beam="1">  1       21 0.19075475E-01 0.22786938E+03</pdfrwt>
<pdfrwt beam="2">  1       21 0.84137259E-01 0.22786938E+03</pdfrwt>
<totfact> 0.30344897E+04</totfact>
</mgrwt>
</event>
<event>
 4    1  0.4306168E+000  0.1892603E+03  0.7546771E-02  0.1159130E+00
         21   -1    0    0  503  502  0.00000000000E+00  0.00000000000E+00  0.67855761616E+03  0.67855761616E+03  0.00000000000E+00 0.  1.
         21   -1    0    0  501  503 -0.00000000000E+00 -0.00000000000E+00 -0.52808757043E+02  0.52808757043E+02  0.00000000000E+00 0.  1.
          6    1    1    2  501    0  0.76720905992E+02  0.20891656277E+01  0.30556363702E+03  0.35942815457E+03  0.17300000000E+03 0.  1.
         -6    1    1    2    0  502 -0.76720905992E+02 -0.20891656277E+01  0.32018522210E+03  0.37193821863E+03  0.17300000000E+03 0.  1.
<mgrwt>
<rscale>  2 0.18926030E+03</rscale>
<asrwt>0</asrwt>
<pdfrwt beam="1">  1       21 0.10439347E+00 0.18926030E+03</pdfrwt>
<pdfrwt beam="2">  1       21 0.81244246E-02 0.18926030E+03</pdfrwt>
<totfact> 0.86672795E+04</totfact>
</mgrwt>
</event>
<event>
 4    1  0.4306168E+000  0.1930962E+03  0.7546771E-02  0.1155698E+00
         21   -1    0    0  501  502  0.00000000000E+00  0.00000000000E+00  0.96064022048E+02  0.96064022048E+02  0.00000000000E+00 0. -1.
         21   -1    0    0  502  503 -0.00000000000E+00 -0.00000000000E+00 -0.42606240158E+03  0.42606240158E+03  0.00000000000E+00 0. -1.
          6    1    1    2  501    0  0.21776594589E+02  0.82963360745E+02 -0.87112016631E+02  0.21183635840E+03  0.17300000000E+03 0. -1.
         -6    1    1    2    0  503 -0.21776594589E+02 -0.82963360745E+02 -0.24288636290E+03  0.31029006523E+03  0.17300000000E+03 0. -1.
<mgrwt>
<rscale>  2 0.19309619E+03</rscale>
<asrwt>0</asrwt>
<pdfrwt beam="1">  1       21 0.14779080E-01 0.19309619E+03</pdfrwt>
<pdfrwt beam="2">  1       21 0.65548061E-01 0.19309619E+03</pdfrwt>
<totfact> 0.86236476E+04</totfact>
</mgrwt>
</event>
<event>
 4    1  0.4306168E+000  0.2599452E+03  0.7546771E-02  0.1107176E+00
         21   -1    0    0  503  502  0.00000000000E+00  0.00000000000E+00  0.70031202235E+03  0.70031202235E+03  0.00000000000E+00 0. -1.
         21   -1    0    0  501  503 -0.00000000000E+00 -0.00000000000E+00 -0.25659854214E+03  0.25659854214E+03  0.00000000000E+00 0. -1.
          6    1    1    2  501    0 -0.12622357207E+03 -0.14734354563E+03 -0.15608477923E+03  0.30320614917E+03  0.17300000000E+03 0. -1.
         -6    1    1    2    0  502  0.12622357207E+03  0.14734354563E+03  0.59979825944E+03  0.65370441532E+03  0.17300000000E+03 0. -1.
<mgrwt>
<rscale>  2 0.25994521E+03</rscale>
<asrwt>0</asrwt>
<pdfrwt beam="1">  1       21 0.10774031E+00 0.25994521E+03</pdfrwt>
<pdfrwt beam="2">  1       21 0.39476699E-01 0.25994521E+03</pdfrwt>
<totfact> 0.40453749E+03</totfact>
</mgrwt>
</event>
<event>
 4    1  0.4306168E+000  0.1934184E+03  0.7546771E-02  0.1155414E+00
         21   -1    0    0  503  502  0.00000000000E+00  0.00000000000E+00  0.38921225831E+03  0.38921225831E+03  0.00000000000E+00 0.  1.
         21   -1    0    0  501  503 -0.00000000000E+00 -0.00000000000E+00 -0.16565150845E+03  0.16565150845E+03  0.00000000000E+00 0.  1.
          6    1    1    2  501    0  0.48836643973E+02  0.71390790284E+02 -0.67962988700E+02  0.20501129375E+03  0.17300000000E+03 0.  1.
         -6    1    1    2    0  502 -0.48836643973E+02 -0.71390790284E+02  0.29152373856E+03  0.34985247302E+03  0.17300000000E+03 0.  1.
<mgrwt>
<rscale>  2 0.19341836E+03</rscale>
<asrwt>0</asrwt>
<pdfrwt beam="1">  1       21 0.59878809E-01 0.19341836E+03</pdfrwt>
<pdfrwt beam="2">  1       21 0.25484848E-01 0.19341836E+03</pdfrwt>
<totfact> 0.37985774E+04</totfact>
</mgrwt>
</event>
<event>
 4    1  0.4306168E+000  0.2184004E+03  0.7546771E-02  0.1135081E+00
         21   -1    0    0  501  502  0.00000000000E+00  0.00000000000E+00  0.48031580849E+03  0.48031580849E+03  0.00000000000E+00 0. -1.
         21   -1    0    0  502  503 -0.00000000000E+00 -0.00000000000E+00 -0.10697184796E+03  0.10697184796E+03  0.00000000000E+00 0. -1.
          6    1    1    2  501    0  0.26932937594E+02 -0.13055404362E+03  0.26527455167E+03  0.34361217848E+03  0.17300000000E+03 0. -1.
         -6    1    1    2    0  503 -0.26932937594E+02  0.13055404362E+03  0.10806940886E+03  0.24367547797E+03  0.17300000000E+03 0. -1.
<mgrwt>
<rscale>  2 0.21840042E+03</rscale>
<asrwt>0</asrwt>
<pdfrwt beam="1">  1       21 0.73894739E-01 0.21840042E+03</pdfrwt>
<pdfrwt beam="2">  1       21 0.16457208E-01 0.21840042E+03</pdfrwt>
<totfact> 0.53757457E+04</totfact>
</mgrwt>
</event>
<event>
 4    1  0.4306168E+000  0.1961931E+03  0.7546771E-02  0.1152991E+00
         21   -1    0    0  503  502  0.00000000000E+00  0.00000000000E+00  0.26822694791E+02  0.26822694791E+02  0.00000000000E+00 0. -1.
         21   -1    0    0  501  503 -0.00000000000E+00 -0.00000000000E+00 -0.16154167810E+04  0.16154167810E+04  0.00000000000E+00 0. -1.
          6    1    1    2  501    0  0.50821056049E+02  0.77330195932E+02 -0.51991854840E+03  0.55570409024E+03  0.17300000000E+03 0. -1.
         -6    1    1    2    0  502 -0.50821056049E+02 -0.77330195932E+02 -0.10686755378E+04  0.10865353856E+04  0.17300000000E+03 0. -1.
<mgrwt>
<rscale>  2 0.19619312E+03</rscale>
<asrwt>0</asrwt>
<pdfrwt beam="1">  1       21 0.41265684E-02 0.19619312E+03</pdfrwt>
<pdfrwt beam="2">  1       21 0.24852566E+00 0.19619312E+03</pdfrwt>
<totfact> 0.25152818E+04</totfact>
</mgrwt>
</event>
<event>
 4    1  0.4306168E+000  0.2146280E+03  0.7546771E-02  0.1137953E+00
         21   -1    0    0  503  502  0.00000000000E+00  0.00000000000E+00  0.50832923422E+03  0.50832923422E+03  0.00000000000E+00 0. -1.
         21   -1    0    0  501  503 -0.00000000000E+00 -0.00000000000E+00 -0.12810750459E+03  0.12810750459E+03  0.00000000000E+00 0. -1.
          6    1    1    2  501    0  0.11363512757E+03  0.56773563467E+02  0.17972828497E+02  0.21537920580E+03  0.17300000000E+03 0. -1.
         -6    1    1    2    0  502 -0.11363512757E+03 -0.56773563467E+02  0.36224890113E+03  0.42105753300E+03  0.17300000000E+03 0. -1.
<mgrwt>
<rscale>  2 0.21462800E+03</rscale>
<asrwt>0</asrwt>
<pdfrwt beam="1">  1       21 0.78204496E-01 0.21462800E+03</pdfrwt>
<pdfrwt beam="2">  1       21 0.19708847E-01 0.21462800E+03</pdfrwt>
<totfact> 0.33941368E+04</totfact>
</mgrwt>
</event>
<event>
 4    1  0.4306168E+000  0.2230985E+03  0.7546771E-02  0.1131594E+00
         21   -1    0    0  501  502  0.00000000000E+00  0.00000000000E+00  0.20366403688E+04  0.20366403688E+04  0.00000000000E+00 0.  1.
         21   -1    0    0  502  503 -0.00000000000E+00 -0.00000000000E+00 -0.26057808149E+02  0.26057808149E+02  0.00000000000E+00 0.  1.
          6    1    1    2  501    0  0.29701977483E+02 -0.13770156605E+03  0.12623717168E+04  0.12819341949E+04  0.17300000000E+03 0.  1.
         -6    1    1    2    0  503 -0.29701977483E+02  0.13770156605E+03  0.74821084384E+03  0.78076398201E+03  0.17300000000E+03 0.  1.
<mgrwt>
<rscale>  2 0.22309847E+03</rscale>
<asrwt>0</asrwt>
<pdfrwt beam="1">  1       21 0.31332916E+00 0.22309847E+03</pdfrwt>
<pdfrwt beam="2">  1       21 0.40088952E-02 0.22309847E+03</pdfrwt>
<totfact> 0.10819254E+04</totfact>
</mgrwt>
</event>
<event>
 4    1  0.4306168E+000  0.1801889E+03  0.7546771E-02  0.1167620E+00
         21   -1    0    0  503  502  0.00000000000E+00  0.00000000000E+00  0.35678450332E+03  0.35678450332E+03  0.00000000000E+00 0.  1.
         21   -1    0    0  501  503 -0.00000000000E+00 -0.00000000000E+00 -0.12948673548E+03  0.12948673548E+03  0.00000000000E+00 0.  1.
          6    1    1    2  501    0 -0.45795986634E+02 -0.21018465198E+02 -0.18901524744E+02  0.18117758114E+03  0.17300000000E+03 0.  1.
         -6    1    1    2    0  502  0.45795986634E+02  0.21018465198E+02  0.24619929258E+03  0.30509365765E+03  0.17300000000E+03 0.  1.
<mgrwt>
<rscale>  2 0.18018892E+03</rscale>
<asrwt>0</asrwt>
<pdfrwt beam="1">  1       21 0.54889923E-01 0.18018892E+03</pdfrwt>
<pdfrwt beam="2">  1       21 0.19921036E-01 0.18018892E+03</pdfrwt>
<totfact> 0.73225995E+04</totfact>
</mgrwt>
</event>
<event>
 4    1  0.4306168E+000  0.1834321E+03  0.7546771E-02  0.1164522E+00
         21   -1    0    0  501  502  0.00000000000E+00  0.00000000000E+00  0.50639384271E+02  0.50639384271E+02  0.00000000000E+00 0.  1.
         21   -1    0    0  502  503 -0.00000000000E+00 -0.00000000000E+00 -0.70152382865E+03  0.70152382865E+03  0.00000000000E+00 0.  1.
          6    1    1    2  501    0  0.60666726148E+02 -0.61546618285E+01 -0.23898616026E+03  0.30126685234E+03  0.17300000000E+03 0.  1.
         -6    1    1    2    0  503 -0.60666726148E+02  0.61546618285E+01 -0.41189828412E+03  0.45089636058E+03  0.17300000000E+03 0.  1.
<mgrwt>
<rscale>  2 0.18343209E+03</rscale>
<asrwt>0</asrwt>
<pdfrwt beam="1">  1       21 0.77906749E-02 0.18343209E+03</pdfrwt>
<pdfrwt beam="2">  1       21 0.10792674E+00 0.18343209E+03</pdfrwt>
<totfact> 0.86280777E+04</totfact>
</mgrwt>
</event>
<event>
 4    1  0.4306168E+000  0.2018341E+03  0.7546771E-02  0.1148201E+00
         21   -1    0    0  503  502  0.00000000000E+00  0.00000000000E+00  0.22292776318E+04  0.22292776318E+04  0.00000000000E+00 0. -1.
         21   -1    0    0  501  503 -0.00000000000E+00 -0.00000000000E+00 -0.41542238156E+02  0.41542238156E+02  0.00000000000E+00 0.  1.
          6    1    1    2  501    0  0.73720504424E+02 -0.73302868443E+02  0.24411446018E+03  0.31674736457E+03  0.17300000000E+03 0.  1.
         -6    1    1    2    0  502 -0.73720504424E+02  0.73302868443E+02  0.19436209334E+04  0.19540725053E+04  0.17300000000E+03 0. -1.
<mgrwt>
<rscale>  2 0.20183415E+03</rscale>
<asrwt>0</asrwt>
<pdfrwt beam="1">  1       21 0.34296570E+00 0.20183415E+03</pdfrwt>
<pdfrwt beam="2">  1       21 0.63911153E-02 0.20183415E+03</pdfrwt>
<totfact> 0.33640187E+03</totfact>
</mgrwt>
</event>
<event>
 4    1  0.4306168E+000  0.2732289E+03  0.7546771E-02  0.1099446E+00
         21   -1    0    0  501  502  0.00000000000E+00  0.00000000000E+00  0.22957112091E+03  0.22957112091E+03  0.00000000000E+00 0.  1.
         21   -1    0    0  502  503 -0.00000000000E+00 -0.00000000000E+00 -0.39434101839E+03  0.39434101839E+03  0.00000000000E+00 0.  1.
          6    1    1    2  501    0  0.19208825356E+03 -0.88470958912E+02  0.48250136247E+02  0.27745645311E+03  0.17300000000E+03 0.  1.
         -6    1    1    2    0  503 -0.19208825356E+03  0.88470958912E+02 -0.21302003372E+03  0.34645568619E+03  0.17300000000E+03 0.  1.
<mgrwt>
<rscale>  2 0.27322886E+03</rscale>
<asrwt>0</asrwt>
<pdfrwt beam="1">  1       21 0.35318634E-01 0.27322886E+03</pdfrwt>
<pdfrwt beam="2">  1       21 0.60667849E-01 0.27322886E+03</pdfrwt>
<totfact> 0.18742893E+04</totfact>
</mgrwt>
</event>
<event>
 4    1  0.4306168E+000  0.2258581E+03  0.7546771E-02  0.1129589E+00
         21   -1    0    0  501  502  0.00000000000E+00  0.00000000000E+00  0.62237193313E+03  0.62237193313E+03  0.00000000000E+00 0.  1.
         21   -1    0    0  502  503 -0.00000000000E+00 -0.00000000000E+00 -0.82454202294E+02  0.82454202294E+02  0.00000000000E+00 0.  1.
          6    1    1    2  501    0 -0.11335674817E+02  0.14475636497E+03  0.29714007346E+03  0.37323467950E+03  0.17300000000E+03 0.  1.
         -6    1    1    2    0  503  0.11335674817E+02 -0.14475636497E+03  0.24277765738E+03  0.33159145593E+03  0.17300000000E+03 0.  1.
<mgrwt>
<rscale>  2 0.22585815E+03</rscale>
<asrwt>0</asrwt>
<pdfrwt beam="1">  1       21 0.95749525E-01 0.22585815E+03</pdfrwt>
<pdfrwt beam="2">  1       21 0.12685262E-01 0.22585815E+03</pdfrwt>
<totfact> 0.47523066E+04</totfact>
</mgrwt>
</event>
<event>
 4    1  0.4306168E+000  0.2391322E+03  0.7546771E-02  0.1120372E+00
         21   -1    0    0  503  502  0.00000000000E+00  0.00000000000E+00  0.26686958259E+03  0.26686958259E+03  0.00000000000E+00 0. -1.
         21   -1    0    0  501  503 -0.00000000000E+00 -0.00000000000E+00 -0.23705841805E+03  0.23705841805E+03  0.00000000000E+00 0.  1.
          6    1    1    2  501    0  0.15975900447E+03  0.41620772850E+02 -0.63202057081E+02  0.24734334085E+03  0.17300000000E+03 0. -1.
         -6    1    1    2    0  502 -0.15975900447E+03 -0.41620772850E+02  0.93013221627E+02  0.25658465979E+03  0.17300000000E+03 0. -1.
<mgrwt>
<rscale>  2 0.23913224E+03</rscale>
<asrwt>0</asrwt>
<pdfrwt beam="1">  1       21 0.41056859E-01 0.23913224E+03</pdfrwt>
<pdfrwt beam="2">  1       21 0.36470526E-01 0.23913224E+03</pdfrwt>
<totfact> 0.40518536E+04</totfact>
</mgrwt>
</event>
<event>
 4    1  0.4306168E+000  0.2148169E+03  0.7546771E-02  0.1137807E+00
         21   -1    0    0  503  502  0.00000000000E+00  0.00000000000E+00  0.21748923027E+03  0.21748923027E+03  0.00000000000E+00 0. -1.
         21   -1    0    0  501  503 -0.00000000000E+00 -0.00000000000E+00 -0.21382976014E+03  0.21382976014E+03  0.00000000000E+00 0. -1.
          6    1    1    2  501    0 -0.85134358920E+02  0.94707200803E+02  0.20787130971E+02  0.21582033678E+03  0.17300000000E+03 0. -1.
         -6    1    1    2    0  502  0.85134358920E+02 -0.94707200803E+02 -0.17127660838E+02  0.21549865363E+03  0.17300000000E+03 0. -1.
<mgrwt>
<rscale>  2 0.21481693E+03</rscale>
<asrwt>0</asrwt>
<pdfrwt beam="1">  1       21 0.33459882E-01 0.21481693E+03</pdfrwt>
<pdfrwt beam="2">  1       21 0.32896886E-01 0.21481693E+03</pdfrwt>
<totfact> 0.75798703E+04</totfact>
</mgrwt>
</event>
<event>
 4    1  0.4306168E+000  0.2209930E+03  0.7546771E-02  0.1133145E+00
         21   -1    0    0  503  502  0.00000000000E+00  0.00000000000E+00  0.59929069400E+02  0.59929069400E+02  0.00000000000E+00 0. -1.
         21   -1    0    0  501  503 -0.00000000000E+00 -0.00000000000E+00 -0.11033881937E+04  0.11033881937E+04  0.00000000000E+00 0.  1.
          6    1    1    2  501    0 -0.44208106027E+02  0.13020958249E+03 -0.81913353357E+03  0.84842067268E+03  0.17300000000E+03 0.  1.
         -6    1    1    2    0  502  0.44208106027E+02 -0.13020958249E+03 -0.22432559078E+03  0.31489659047E+03  0.17300000000E+03 0. -1.
<mgrwt>
<rscale>  2 0.22099297E+03</rscale>
<asrwt>0</asrwt>
<pdfrwt beam="1">  1       21 0.92198572E-02 0.22099297E+03</pdfrwt>
<pdfrwt beam="2">  1       21 0.16975202E+00 0.22099297E+03</pdfrwt>
<totfact> 0.19675090E+04</totfact>
</mgrwt>
</event>
<event>
 4    1  0.4306168E+000  0.1895927E+03  0.7546771E-02  0.1158829E+00
         21   -1    0    0  503  502  0.00000000000E+00  0.00000000000E+00  0.45408557710E+02  0.45408557710E+02  0.00000000000E+00 0.  1.
         21   -1    0    0  501  503 -0.00000000000E+00 -0.00000000000E+00 -0.82650483502E+03  0.82650483502E+03  0.00000000000E+00 0. -1.
          6    1    1    2  501    0 -0.76560638624E+02  0.12444154661E+02 -0.48013967795E+03  0.51621652310E+03  0.17300000000E+03 0. -1.
         -6    1    1    2    0  502  0.76560638624E+02 -0.12444154661E+02 -0.30095659936E+03  0.35569686964E+03  0.17300000000E+03 0.  1.
<mgrwt>
<rscale>  2 0.18959269E+03</rscale>
<asrwt>0</asrwt>
<pdfrwt beam="1">  1       21 0.69859324E-02 0.18959269E+03</pdfrwt>
<pdfrwt beam="2">  1       21 0.12715458E+00 0.18959269E+03</pdfrwt>
<totfact> 0.69475705E+04</totfact>
</mgrwt>
</event>
<event>
 4    1  0.4306168E+000  0.1930796E+03  0.7546771E-02  0.1155713E+00
         21   -1    0    0  503  502  0.00000000000E+00  0.00000000000E+00  0.14687862149E+03  0.14687862149E+03  0.00000000000E+00 0.  1.
         21   -1    0    0  501  503 -0.00000000000E+00 -0.00000000000E+00 -0.43073759557E+03  0.43073759557E+03  0.00000000000E+00 0. -1.
          6    1    1    2  501    0  0.80852180009E+02 -0.28524520177E+02 -0.32702544443E+03  0.37977014702E+03  0.17300000000E+03 0. -1.
         -6    1    1    2    0  502 -0.80852180009E+02  0.28524520177E+02  0.43166470352E+02  0.19784607003E+03  0.17300000000E+03 0.  1.
<mgrwt>
<rscale>  2 0.19307958E+03</rscale>
<asrwt>0</asrwt>
<pdfrwt beam="1">  1       21 0.22596711E-01 0.19307958E+03</pdfrwt>
<pdfrwt beam="2">  1       21 0.66267322E-01 0.19307958E+03</pdfrwt>
<totfact> 0.38344398E+04</totfact>
</mgrwt>
</event>
<event>
 4    1  0.4306168E+000  0.2105006E+03  0.7546771E-02  0.1141170E+00
         21   -1    0    0  501  502  0.00000000000E+00  0.00000000000E+00  0.19972771843E+04  0.19972771843E+04  0.00000000000E+00 0. -1.
         21   -1    0    0  502  503 -0.00000000000E+00 -0.00000000000E+00 -0.29958278890E+02  0.29958278890E+02  0.00000000000E+00 0. -1.
          6    1    1    2  501    0  0.17866522234E+02  0.11858456517E+03  0.14999629454E+04  0.15146614636E+04  0.17300000000E+03 0. -1.
         -6    1    1    2    0  503 -0.17866522234E+02 -0.11858456517E+03  0.46735596009E+03  0.51257399967E+03  0.17300000000E+03 0. -1.
<mgrwt>
<rscale>  2 0.21050062E+03</rscale>
<asrwt>0</asrwt>
<pdfrwt beam="1">  1       21 0.30727331E+00 0.21050062E+03</pdfrwt>
<pdfrwt beam="2">  1       21 0.46089675E-02 0.21050062E+03</pdfrwt>
<totfact> 0.93899227E+03</totfact>
</mgrwt>
</event>
<event>
 4    1  0.4306168E+000  0.1844272E+03  0.7546771E-02  0.1163586E+00
         21   -1    0    0  503  502  0.00000000000E+00  0.00000000000E+00  0.50655369472E+03  0.50655369472E+03  0.00000000000E+00 0.  1.
         21   -1    0    0  501  503 -0.00000000000E+00 -0.00000000000E+00 -0.10049238793E+03  0.10049238793E+03  0.00000000000E+00 0. -1.
          6    1    1    2  501    0  0.47893723469E+02 -0.42315120202E+02  0.28188833152E+02  0.18656899115E+03  0.17300000000E+03 0. -1.
         -6    1    1    2    0  502 -0.47893723469E+02  0.42315120202E+02  0.37787247364E+03  0.42047709150E+03  0.17300000000E+03 0.  1.
<mgrwt>
<rscale>  2 0.18442716E+03</rscale>
<asrwt>0</asrwt>
<pdfrwt beam="1">  1       21 0.77931336E-01 0.18442716E+03</pdfrwt>
<pdfrwt beam="2">  1       21 0.15460368E-01 0.18442716E+03</pdfrwt>
<totfact> 0.54375865E+04</totfact>
</mgrwt>
</event>
<event>
 4    1  0.4306168E+000  0.1897729E+03  0.7546771E-02  0.1158666E+00
         21   -1    0    0  501  502  0.00000000000E+00  0.00000000000E+00  0.72937486205E+03  0.72937486205E+03  0.00000000000E+00 0.  1.
         21   -1    0    0  502  503 -0.00000000000E+00 -0.00000000000E+00 -0.55344047300E+02  0.55344047300E+02  0.00000000000E+00 0. -1.
          6    1    1    2  501    0 -0.36732734311E+02  0.68814787550E+02  0.20817353368E+03  0.28169130068E+03  0.17300000000E+03 0.  1.
         -6    1    1    2    0  503  0.36732734311E+02 -0.68814787550E+02  0.46585728108E+03  0.50302760867E+03  0.17300000000E+03 0. -1.
<mgrwt>
<rscale>  2 0.18977294E+03</rscale>
<asrwt>0</asrwt>
<pdfrwt beam="1">  1       21 0.11221151E+00 0.18977294E+03</pdfrwt>
<pdfrwt beam="2">  1       21 0.85144693E-02 0.18977294E+03</pdfrwt>
<totfact> 0.67081943E+04</totfact>
</mgrwt>
</event>
<event>
 4    1  0.4306168E+000  0.1748014E+03  0.7546771E-02  0.1172931E+00
         21   -1    0    0  501  502  0.00000000000E+00  0.00000000000E+00  0.19143782296E+03  0.19143782296E+03  0.00000000000E+00 0.  1.
         21   -1    0    0  502  503 -0.00000000000E+00 -0.00000000000E+00 -0.36383122079E+03  0.36383122079E+03  0.00000000000E+00 0.  1.
          6    1    1    2  501    0  0.62114162482E+01 -0.24247421822E+02  0.12180802898E+03  0.21305566193E+03  0.17300000000E+03 0.  1.
         -6    1    1    2    0  503 -0.62114162482E+01  0.24247421822E+02 -0.29420142681E+03  0.34221338182E+03  0.17300000000E+03 0.  1.
<mgrwt>
<rscale>  2 0.17480137E+03</rscale>
<asrwt>0</asrwt>
<pdfrwt beam="1">  1       21 0.29451973E-01 0.17480137E+03</pdfrwt>
<pdfrwt beam="2">  1       21 0.55974033E-01 0.17480137E+03</pdfrwt>
<totfact> 0.33512777E+04</totfact>
</mgrwt>
</event>
<event>
 4    1  0.4306168E+000  0.1764836E+03  0.7546771E-02  0.1171250E+00
         21   -1    0    0  501  502  0.00000000000E+00  0.00000000000E+00  0.57428907921E+03  0.57428907921E+03  0.00000000000E+00 0. -1.
         21   -1    0    0  502  503 -0.00000000000E+00 -0.00000000000E+00 -0.35231676393E+03  0.35231676393E+03  0.00000000000E+00 0. -1.
          6    1    1    2  501    0 -0.34200463823E+02 -0.69137125887E+01  0.53713980676E+03  0.56538981522E+03  0.17300000000E+03 0. -1.
         -6    1    1    2    0  503  0.34200463823E+02  0.69137125887E+01 -0.31516749148E+03  0.36121602793E+03  0.17300000000E+03 0. -1.
<mgrwt>
<rscale>  2 0.17648363E+03</rscale>
<asrwt>0</asrwt>
<pdfrwt beam="1">  1       21 0.88352166E-01 0.17648363E+03</pdfrwt>
<pdfrwt beam="2">  1       21 0.54202579E-01 0.17648363E+03</pdfrwt>
<totfact> 0.35760515E+03</totfact>
</mgrwt>
</event>
<event>
 4    1  0.4306168E+000  0.2194084E+03  0.7546771E-02  0.1134325E+00
         21   -1    0    0  501  502  0.00000000000E+00  0.00000000000E+00  0.96604309946E+02  0.96604309946E+02  0.00000000000E+00 0. -1.
         21   -1    0    0  502  503 -0.00000000000E+00 -0.00000000000E+00 -0.13485341542E+04  0.13485341542E+04  0.00000000000E+00 0.  1.
          6    1    1    2  501    0 -0.13401119614E+03 -0.15875342084E+02 -0.52228775355E+02  0.22553907012E+03  0.17300000000E+03 0. -1.
         -6    1    1    2    0  503  0.13401119614E+03  0.15875342084E+02 -0.11997010689E+04  0.12195993940E+04  0.17300000000E+03 0.  1.
<mgrwt>
<rscale>  2 0.21940836E+03</rscale>
<asrwt>0</asrwt>
<pdfrwt beam="1">  1       21 0.14862202E-01 0.21940836E+03</pdfrwt>
<pdfrwt beam="2">  1       21 0.20746679E+00 0.21940836E+03</pdfrwt>
<totfact> 0.46864308E+03</totfact>
</mgrwt>
</event>
<event>
 4    1  0.4306168E+000  0.1873850E+03  0.7546771E-02  0.1160841E+00
         21   -1    0    0  501  502  0.00000000000E+00  0.00000000000E+00  0.46566085827E+02  0.46566085827E+02  0.00000000000E+00 0. -1.
         21   -1    0    0  502  503 -0.00000000000E+00 -0.00000000000E+00 -0.76687765888E+03  0.76687765888E+03  0.00000000000E+00 0. -1.
          6    1    1    2  501    0  0.59403597054E+02  0.40685955783E+02 -0.30755206985E+03  0.36014081970E+03  0.17300000000E+03 0. -1.
         -6    1    1    2    0  503 -0.59403597054E+02 -0.40685955783E+02 -0.41275950320E+03  0.45330292501E+03  0.17300000000E+03 0. -1.
<mgrwt>
<rscale>  2 0.18738499E+03</rscale>
<asrwt>0</asrwt>
<pdfrwt beam="1">  1       21 0.71640133E-02 0.18738499E+03</pdfrwt>
<pdfrwt beam="2">  1       21 0.11798118E+00 0.18738499E+03</pdfrwt>
<totfact> 0.80228299E+04</totfact>
</mgrwt>
</event>
<event>
 4    1  0.4306168E+000  0.2397695E+03  0.7546771E-02  0.1119946E+00
         21   -1    0    0  501  502  0.00000000000E+00  0.00000000000E+00  0.64640922481E+02  0.64640922481E+02  0.00000000000E+00 0. -1.
         21   -1    0    0  502  503 -0.00000000000E+00 -0.00000000000E+00 -0.21624140900E+04  0.21624140900E+04  0.00000000000E+00 0. -1.
          6    1    1    2  501    0 -0.15815774056E+03 -0.50463454769E+02 -0.19450093910E+03  0.30873944755E+03  0.17300000000E+03 0. -1.
         -6    1    1    2    0  503  0.15815774056E+03  0.50463454769E+02 -0.19032722284E+04  0.19183155649E+04  0.17300000000E+03 0. -1.
<mgrwt>
<rscale>  2 0.23976954E+03</rscale>
<asrwt>0</asrwt>
<pdfrwt beam="1">  1       21 0.99447569E-02 0.23976954E+03</pdfrwt>
<pdfrwt beam="2">  1       21 0.33267910E+00 0.23976954E+03</pdfrwt>
<totfact> 0.17086775E+03</totfact>
</mgrwt>
</event>
<event>
 4    1  0.4306168E+000  0.2680095E+03  0.7546771E-02  0.1102424E+00
         21   -1    0    0  503  502  0.00000000000E+00  0.00000000000E+00  0.30201943080E+03  0.30201943080E+03  0.00000000000E+00 0. -1.
         21   -1    0    0  501  503 -0.00000000000E+00 -0.00000000000E+00 -0.52498934906E+03  0.52498934906E+03  0.00000000000E+00 0. -1.
          6    1    1    2  501    0  0.18046455574E+03  0.96605547418E+02 -0.41730563445E+03  0.49595673220E+03  0.17300000000E+03 0. -1.
         -6    1    1    2    0  502 -0.18046455574E+03 -0.96605547418E+02  0.19433571619E+03  0.33105204766E+03  0.17300000000E+03 0. -1.
<mgrwt>
<rscale>  2 0.26800949E+03</rscale>
<asrwt>0</asrwt>
<pdfrwt beam="1">  1       21 0.46464529E-01 0.26800949E+03</pdfrwt>
<pdfrwt beam="2">  1       21 0.80767590E-01 0.26800949E+03</pdfrwt>
<totfact> 0.56796458E+03</totfact>
</mgrwt>
</event>
<event>
 4    1  0.4306168E+000  0.1753084E+03  0.7546771E-02  0.1172422E+00
         21   -1    0    0  503  502  0.00000000000E+00  0.00000000000E+00  0.60247480843E+03  0.60247480843E+03  0.00000000000E+00 0. -1.
         21   -1    0    0  501  503 -0.00000000000E+00 -0.00000000000E+00 -0.52695613021E+02  0.52695613021E+02  0.00000000000E+00 0. -1.
          6    1    1    2  501    0 -0.68101025816E+01  0.27525422643E+02  0.21632329931E+03  0.27843993287E+03  0.17300000000E+03 0. -1.
         -6    1    1    2    0  502  0.68101025816E+01 -0.27525422643E+02  0.33345589610E+03  0.37673048859E+03  0.17300000000E+03 0. -1.
<mgrwt>
<rscale>  2 0.17530838E+03</rscale>
<asrwt>0</asrwt>
<pdfrwt beam="1">  1       21 0.92688427E-01 0.17530838E+03</pdfrwt>
<pdfrwt beam="2">  1       21 0.81070178E-02 0.17530838E+03</pdfrwt>
<totfact> 0.11583082E+05</totfact>
</mgrwt>
</event>
<event>
 4    1  0.4306168E+000  0.1763007E+03  0.7546771E-02  0.1171432E+00
         21   -1    0    0  501  502  0.00000000000E+00  0.00000000000E+00  0.92358851168E+02  0.92358851168E+02  0.00000000000E+00 0. -1.
         21   -1    0    0  502  503 -0.00000000000E+00 -0.00000000000E+00 -0.40427777284E+03  0.40427777284E+03  0.00000000000E+00 0.  1.
          6    1    1    2  501    0  0.26078044628E+02 -0.21745898874E+02 -0.54310814513E+02  0.18447659229E+03  0.17300000000E+03 0. -1.
         -6    1    1    2    0  503 -0.26078044628E+02  0.21745898874E+02 -0.25760810716E+03  0.31216003172E+03  0.17300000000E+03 0.  1.
<mgrwt>
<rscale>  2 0.17630073E+03</rscale>
<asrwt>0</asrwt>
<pdfrwt beam="1">  1       21 0.14209054E-01 0.17630073E+03</pdfrwt>
<pdfrwt beam="2">  1       21 0.62196581E-01 0.17630073E+03</pdfrwt>
<totfact> 0.10445294E+05</totfact>
</mgrwt>
</event>
<event>
 4    1  0.4306168E+000  0.1750811E+03  0.7546771E-02  0.1172650E+00
         21   -1    0    0  501  502  0.00000000000E+00  0.00000000000E+00  0.14171226518E+03  0.14171226518E+03  0.00000000000E+00 0. -1.
         21   -1    0    0  502  503 -0.00000000000E+00 -0.00000000000E+00 -0.33917547865E+03  0.33917547865E+03  0.00000000000E+00 0. -1.
          6    1    1    2  501    0  0.16718113499E+02 -0.21092275311E+02  0.45986017775E+02  0.18101959349E+03  0.17300000000E+03 0. -1.
         -6    1    1    2    0  503 -0.16718113499E+02  0.21092275311E+02 -0.24344923124E+03  0.29986815034E+03  0.17300000000E+03 0. -1.
<mgrwt>
<rscale>  2 0.17508107E+03</rscale>
<asrwt>0</asrwt>
<pdfrwt beam="1">  1       21 0.21801887E-01 0.17508107E+03</pdfrwt>
<pdfrwt beam="2">  1       21 0.52180842E-01 0.17508107E+03</pdfrwt>
<totfact> 0.68948576E+04</totfact>
</mgrwt>
</event>
<event>
 4    1  0.4306168E+000  0.1805654E+03  0.7546771E-02  0.1167257E+00
         21   -1    0    0  503  502  0.00000000000E+00  0.00000000000E+00  0.62160129238E+03  0.62160129238E+03  0.00000000000E+00 0.  1.
         21   -1    0    0  501  503 -0.00000000000E+00 -0.00000000000E+00 -0.99838631934E+02  0.99838631934E+02  0.00000000000E+00 0.  1.
          6    1    1    2  501    0 -0.51114081558E+02  0.78876597767E+01  0.12366970332E+02  0.18098841528E+03  0.17300000000E+03 0.  1.
         -6    1    1    2    0  502  0.51114081558E+02 -0.78876597767E+01  0.50939569011E+03  0.54045150903E+03  0.17300000000E+03 0.  1.
<mgrwt>
<rscale>  2 0.18056540E+03</rscale>
<asrwt>0</asrwt>
<pdfrwt beam="1">  1       21 0.95630966E-01 0.18056540E+03</pdfrwt>
<pdfrwt beam="2">  1       21 0.15359790E-01 0.18056540E+03</pdfrwt>
<totfact> 0.34492810E+04</totfact>
</mgrwt>
</event>
<event>
 4    1  0.4306168E+000  0.1893803E+03  0.7546771E-02  0.1159021E+00
         21   -1    0    0  503  502  0.00000000000E+00  0.00000000000E+00  0.15393065524E+04  0.15393065524E+04  0.00000000000E+00 0.  1.
         21   -1    0    0  501  503 -0.00000000000E+00 -0.00000000000E+00 -0.26974152235E+02  0.26974152235E+02  0.00000000000E+00 0.  1.
          6    1    1    2  501    0  0.61304968669E+02 -0.46664592024E+02  0.46711078886E+03  0.50404104238E+03  0.17300000000E+03 0.  1.
         -6    1    1    2    0  502 -0.61304968669E+02  0.46664592024E+02  0.10452216113E+04  0.10622396622E+04  0.17300000000E+03 0.  1.
<mgrwt>
<rscale>  2 0.18938026E+03</rscale>
<asrwt>0</asrwt>
<pdfrwt beam="1">  1       21 0.23681632E+00 0.18938026E+03</pdfrwt>
<pdfrwt beam="2">  1       21 0.41498708E-02 0.18938026E+03</pdfrwt>
<totfact> 0.29397700E+04</totfact>
</mgrwt>
</event>
<event>
 4    1  0.4306168E+000  0.1876275E+03  0.7546771E-02  0.1160619E+00
         21   -1    0    0  503  502  0.00000000000E+00  0.00000000000E+00  0.15154058523E+03  0.15154058523E+03  0.00000000000E+00 0. -1.
         21   -1    0    0  501  503 -0.00000000000E+00 -0.00000000000E+00 -0.28112073976E+03  0.28112073976E+03  0.00000000000E+00 0. -1.
          6    1    1    2  501    0 -0.72257842799E+02  0.73406350336E+01 -0.15493442654E+03  0.24332849668E+03  0.17300000000E+03 0. -1.
         -6    1    1    2    0  502  0.72257842799E+02 -0.73406350336E+01  0.25354272014E+02  0.18933282832E+03  0.17300000000E+03 0. -1.
<mgrwt>
<rscale>  2 0.18762751E+03</rscale>
<asrwt>0</asrwt>
<pdfrwt beam="1">  1       21 0.23313936E-01 0.18762751E+03</pdfrwt>
<pdfrwt beam="2">  1       21 0.43249344E-01 0.18762751E+03</pdfrwt>
<totfact> 0.89085996E+04</totfact>
</mgrwt>
</event>
<event>
 4    1  0.4306168E+000  0.1915262E+03  0.7546771E-02  0.1157092E+00
         21   -1    0    0  503  502  0.00000000000E+00  0.00000000000E+00  0.59920832317E+03  0.59920832317E+03  0.00000000000E+00 0.  1.
         21   -1    0    0  501  503 -0.00000000000E+00 -0.00000000000E+00 -0.73724967680E+02  0.73724967680E+02  0.00000000000E+00 0.  1.
          6    1    1    2  501    0  0.36487834169E+02 -0.73633816343E+02  0.12415811348E+03  0.22824885124E+03  0.17300000000E+03 0.  1.
         -6    1    1    2    0  502 -0.36487834169E+02  0.73633816343E+02  0.40132524201E+03  0.44468443960E+03  0.17300000000E+03 0.  1.
<mgrwt>
<rscale>  2 0.19152624E+03</rscale>
<asrwt>0</asrwt>
<pdfrwt beam="1">  1       21 0.92185893E-01 0.19152624E+03</pdfrwt>
<pdfrwt beam="2">  1       21 0.11342303E-01 0.19152624E+03</pdfrwt>
<totfact> 0.64521221E+04</totfact>
</mgrwt>
</event>
<event>
 4    1  0.4306168E+000  0.1864372E+03  0.7546771E-02  0.1161715E+00
         21   -1    0    0  501  502  0.00000000000E+00  0.00000000000E+00  0.13823002435E+04  0.13823002435E+04  0.00000000000E+00 0.  1.
         21   -1    0    0  502  503 -0.00000000000E+00 -0.00000000000E+00 -0.40200457114E+02  0.40200457114E+02  0.00000000000E+00 0.  1.
          6    1    1    2  501    0  0.77255675540E+01  0.69066118580E+02  0.11063059829E+04  0.11219054064E+04  0.17300000000E+03 0.  1.
         -6    1    1    2    0  503 -0.77255675540E+01 -0.69066118580E+02  0.23579380344E+03  0.30059529416E+03  0.17300000000E+03 0.  1.
<mgrwt>
<rscale>  2 0.18643716E+03</rscale>
<asrwt>0</asrwt>
<pdfrwt beam="1">  1       21 0.21266154E+00 0.18643716E+03</pdfrwt>
<pdfrwt beam="2">  1       21 0.61846868E-02 0.18643716E+03</pdfrwt>
<totfact> 0.21008625E+04</totfact>
</mgrwt>
</event>
<event>
 4    1  0.4306168E+000  0.1837194E+03  0.7546771E-02  0.1164251E+00
         21   -1    0    0  501  502  0.00000000000E+00  0.00000000000E+00  0.53470205689E+02  0.53470205689E+02  0.00000000000E+00 0.  1.
         21   -1    0    0  502  503 -0.00000000000E+00 -0.00000000000E+00 -0.63239575661E+03  0.63239575661E+03  0.00000000000E+00 0.  1.
          6    1    1    2  501    0 -0.59514845100E+02  0.16787337765E+02 -0.27483779463E+03  0.33058833139E+03  0.17300000000E+03 0.  1.
         -6    1    1    2    0  503  0.59514845100E+02 -0.16787337765E+02 -0.30408775629E+03  0.35527763091E+03  0.17300000000E+03 0.  1.
<mgrwt>
<rscale>  2 0.18371944E+03</rscale>
<asrwt>0</asrwt>
<pdfrwt beam="1">  1       21 0.82261854E-02 0.18371944E+03</pdfrwt>
<pdfrwt beam="2">  1       21 0.97291656E-01 0.18371944E+03</pdfrwt>
<totfact> 0.10049504E+05</totfact>
</mgrwt>
</event>
<event>
 4    1  0.4306168E+000  0.2669089E+03  0.7546771E-02  0.1103062E+00
         21   -1    0    0  503  502  0.00000000000E+00  0.00000000000E+00  0.34716499091E+02  0.34716499091E+02  0.00000000000E+00 0. -1.
         21   -1    0    0  501  503 -0.00000000000E+00 -0.00000000000E+00 -0.20725369080E+04  0.20725369080E+04  0.00000000000E+00 0.  1.
          6    1    1    2  501    0 -0.49495014042E+02  0.19713351070E+03 -0.11236365896E+04  0.11549024041E+04  0.17300000000E+03 0. -1.
         -6    1    1    2    0  502  0.49495014042E+02 -0.19713351070E+03 -0.91418381937E+03  0.95235100308E+03  0.17300000000E+03 0. -1.
<mgrwt>
<rscale>  2 0.26690893E+03</rscale>
<asrwt>0</asrwt>
<pdfrwt beam="1">  1       21 0.53409988E-02 0.26690893E+03</pdfrwt>
<pdfrwt beam="2">  1       21 0.31885190E+00 0.26690893E+03</pdfrwt>
<totfact> 0.59316248E+03</totfact>
</mgrwt>
</event>
<event>
 4    1  0.4306168E+000  0.1800337E+03  0.7546771E-02  0.1167770E+00
         21   -1    0    0  501  502  0.00000000000E+00  0.00000000000E+00  0.22546964812E+03  0.22546964812E+03  0.00000000000E+00 0. -1.
         21   -1    0    0  502  503 -0.00000000000E+00 -0.00000000000E+00 -0.31884882867E+03  0.31884882867E+03  0.00000000000E+00 0. -1.
          6    1    1    2  501    0  0.48210107156E+02 -0.12605993365E+02  0.15499259503E+03  0.23756016084E+03  0.17300000000E+03 0. -1.
         -6    1    1    2    0  503 -0.48210107156E+02  0.12605993365E+02 -0.24837177558E+03  0.30675831595E+03  0.17300000000E+03 0. -1.
<mgrwt>
<rscale>  2 0.18003368E+03</rscale>
<asrwt>0</asrwt>
<pdfrwt beam="1">  1       21 0.34687638E-01 0.18003368E+03</pdfrwt>
<pdfrwt beam="2">  1       21 0.49053666E-01 0.18003368E+03</pdfrwt>
<totfact> 0.31976476E+04</totfact>
</mgrwt>
</event>
<event>
 4    1  0.4306168E+000  0.2495064E+03  0.7546771E-02  0.1113617E+00
         21   -1    0    0  503  502  0.00000000000E+00  0.00000000000E+00  0.13327796454E+04  0.13327796454E+04  0.00000000000E+00 0. -1.
         21   -1    0    0  501  503 -0.00000000000E+00 -0.00000000000E+00 -0.46786240722E+02  0.46786240722E+02  0.00000000000E+00 0. -1.
          6    1    1    2  501    0  0.17840736629E+03 -0.22254242340E+02  0.67093709709E+03  0.71582821116E+03  0.17300000000E+03 0. -1.
         -6    1    1    2    0  502 -0.17840736629E+03  0.22254242340E+02  0.61505630756E+03  0.66373767493E+03  0.17300000000E+03 0. -1.
<mgrwt>
<rscale>  2 0.24950639E+03</rscale>
<asrwt>0</asrwt>
<pdfrwt beam="1">  1       21 0.20504299E+00 0.24950639E+03</pdfrwt>
<pdfrwt beam="2">  1       21 0.71978842E-02 0.24950639E+03</pdfrwt>
<totfact> 0.17262012E+04</totfact>
</mgrwt>
</event>
<event>
 4    1  0.4306168E+000  0.2238537E+03  0.7546771E-02  0.1131042E+00
         21   -1    0    0  503  502  0.00000000000E+00  0.00000000000E+00  0.43131915041E+02  0.43131915041E+02  0.00000000000E+00 0.  1.
         21   -1    0    0  501  503 -0.00000000000E+00 -0.00000000000E+00 -0.14247674252E+04  0.14247674252E+04  0.00000000000E+00 0.  1.
          6    1    1    2  501    0  0.85506590266E+02 -0.11344645646E+03 -0.10061357671E+04  0.10307374338E+04  0.17300000000E+03 0.  1.
         -6    1    1    2    0  502 -0.85506590266E+02  0.11344645646E+03 -0.37549974303E+03  0.43716190648E+03  0.17300000000E+03 0.  1.
<mgrwt>
<rscale>  2 0.22385369E+03</rscale>
<asrwt>0</asrwt>
<pdfrwt beam="1">  1       21 0.66356782E-02 0.22385369E+03</pdfrwt>
<pdfrwt beam="2">  1       21 0.21919502E+00 0.22385369E+03</pdfrwt>
<totfact> 0.16468452E+04</totfact>
</mgrwt>
</event>
<event>
 4    1  0.4306168E+000  0.1760975E+03  0.7546771E-02  0.1171634E+00
         21   -1    0    0  501  502  0.00000000000E+00  0.00000000000E+00  0.75787347970E+03  0.75787347970E+03  0.00000000000E+00 0. -1.
         21   -1    0    0  502  503 -0.00000000000E+00 -0.00000000000E+00 -0.65345550396E+02  0.65345550396E+02  0.00000000000E+00 0. -1.
          6    1    1    2  501    0 -0.53003180739E+01 -0.32453862655E+02  0.59792797524E+03  0.62332031104E+03  0.17300000000E+03 0. -1.
         -6    1    1    2    0  503  0.53003180739E+01  0.32453862655E+02  0.94599954060E+02  0.19989871906E+03  0.17300000000E+03 0. -1.
<mgrwt>
<rscale>  2 0.17609755E+03</rscale>
<asrwt>0</asrwt>
<pdfrwt beam="1">  1       21 0.11659591E+00 0.17609755E+03</pdfrwt>
<pdfrwt beam="2">  1       21 0.10053162E-01 0.17609755E+03</pdfrwt>
<totfact> 0.45971672E+04</totfact>
</mgrwt>
</event>
<event>
 4    1  0.4306168E+000  0.1751969E+03  0.7546771E-02  0.1172534E+00
         21   -1    0    0  501  502  0.00000000000E+00  0.00000000000E+00  0.27927354606E+03  0.27927354606E+03  0.00000000000E+00 0.  1.
         21   -1    0    0  502  503 -0.00000000000E+00 -0.00000000000E+00 -0.11228402542E+03  0.11228402542E+03  0.00000000000E+00 0.  1.
          6    1    1    2  501    0  0.85036795175E+01  0.26318337654E+02  0.11198346290E+03  0.20792850556E+03  0.17300000000E+03 0.  1.
         -6    1    1    2    0  503 -0.85036795175E+01 -0.26318337654E+02  0.55006057748E+02  0.18362906592E+03  0.17300000000E+03 0.  1.
<mgrwt>
<rscale>  2 0.17519694E+03</rscale>
<asrwt>0</asrwt>
<pdfrwt beam="1">  1       21 0.42965161E-01 0.17519694E+03</pdfrwt>
<pdfrwt beam="2">  1       21 0.17274466E-01 0.17519694E+03</pdfrwt>
<totfact> 0.15867658E+05</totfact>
</mgrwt>
</event>
<event>
 4    1  0.4306168E+000  0.1805825E+03  0.7546771E-02  0.1167241E+00
         21   -1    0    0  501  502  0.00000000000E+00  0.00000000000E+00  0.18895353340E+04  0.18895353340E+04  0.00000000000E+00 0. -1.
         21   -1    0    0  502  503 -0.00000000000E+00 -0.00000000000E+00 -0.50842664707E+02  0.50842664707E+02  0.00000000000E+00 0. -1.
          6    1    1    2  501    0 -0.11499204499E+02 -0.50485626577E+02  0.17078636471E+04  0.17173841350E+04  0.17300000000E+03 0. -1.
         -6    1    1    2    0  503  0.11499204499E+02  0.50485626577E+02  0.13082902224E+03  0.22299386372E+03  0.17300000000E+03 0. -1.
<mgrwt>
<rscale>  2 0.18058247E+03</rscale>
<asrwt>0</asrwt>
<pdfrwt beam="1">  1       21 0.29069769E+00 0.18058247E+03</pdfrwt>
<pdfrwt beam="2">  1       21 0.78219499E-02 0.18058247E+03</pdfrwt>
<totfact> 0.48876402E+03</totfact>
</mgrwt>
</event>
<event>
 4    1  0.4306168E+000  0.2146460E+03  0.7546771E-02  0.1137939E+00
         21   -1    0    0  503  502  0.00000000000E+00  0.00000000000E+00  0.44634927730E+03  0.44634927730E+03  0.00000000000E+00 0.  1.
         21   -1    0    0  501  503 -0.00000000000E+00 -0.00000000000E+00 -0.10938681309E+03  0.10938681309E+03  0.00000000000E+00 0.  1.
          6    1    1    2  501    0  0.11501815224E+03  0.53988333158E+02  0.23444840715E+03  0.31786627861E+03  0.17300000000E+03 0.  1.
         -6    1    1    2    0  502 -0.11501815224E+03 -0.53988333158E+02  0.10251405707E+03  0.23786981179E+03  0.17300000000E+03 0.  1.
<mgrwt>
<rscale>  2 0.21464602E+03</rscale>
<asrwt>0</asrwt>
<pdfrwt beam="1">  1       21 0.68669118E-01 0.21464602E+03</pdfrwt>
<pdfrwt beam="2">  1       21 0.16828741E-01 0.21464602E+03</pdfrwt>
<totfact> 0.60811285E+04</totfact>
</mgrwt>
</event>
<event>
 4    1  0.4306168E+000  0.2079294E+03  0.7546771E-02  0.1143216E+00
         21   -1    0    0  501  502  0.00000000000E+00  0.00000000000E+00  0.98760284366E+02  0.98760284366E+02  0.00000000000E+00 0.  1.
         21   -1    0    0  502  503 -0.00000000000E+00 -0.00000000000E+00 -0.45786457359E+03  0.45786457359E+03  0.00000000000E+00 0.  1.
          6    1    1    2  501    0 -0.10581763011E+03  0.45915874988E+02 -0.12125257927E+03  0.24070069879E+03  0.17300000000E+03 0.  1.
         -6    1    1    2    0  503  0.10581763011E+03 -0.45915874988E+02 -0.23785170995E+03  0.31592415917E+03  0.17300000000E+03 0.  1.
<mgrwt>
<rscale>  2 0.20792941E+03</rscale>
<asrwt>0</asrwt>
<pdfrwt beam="1">  1       21 0.15193890E-01 0.20792941E+03</pdfrwt>
<pdfrwt beam="2">  1       21 0.70440704E-01 0.20792941E+03</pdfrwt>
<totfact> 0.69545816E+04</totfact>
</mgrwt>
</event>
<event>
 4    1  0.4306168E+000  0.1794481E+03  0.7546771E-02  0.1168338E+00
         21   -1    0    0  503  502  0.00000000000E+00  0.00000000000E+00  0.22277994794E+02  0.22277994794E+02  0.00000000000E+00 0. -1.
         21   -1    0    0  501  503 -0.00000000000E+00 -0.00000000000E+00 -0.16993633476E+04  0.16993633476E+04  0.00000000000E+00 0.  1.
          6    1    1    2  501    0  0.45773938340E+02 -0.13318130388E+02 -0.11712912692E+04  0.11849577475E+04  0.17300000000E+03 0.  1.
         -6    1    1    2    0  502 -0.45773938340E+02  0.13318130388E+02 -0.50579408358E+03  0.53668359488E+03  0.17300000000E+03 0. -1.
<mgrwt>
<rscale>  2 0.17944812E+03</rscale>
<asrwt>0</asrwt>
<pdfrwt beam="1">  1       21 0.34273828E-02 0.17944812E+03</pdfrwt>
<pdfrwt beam="2">  1       21 0.26144059E+00 0.17944812E+03</pdfrwt>
<totfact> 0.29249374E+04</totfact>
</mgrwt>
</event>
<event>
 4    1  0.4306168E+000  0.2528078E+03  0.7546771E-02  0.1111543E+00
         21   -1    0    0  501  502  0.00000000000E+00  0.00000000000E+00  0.41936829875E+02  0.41936829875E+02  0.00000000000E+00 0.  1.
         21   -1    0    0  502  503 -0.00000000000E+00 -0.00000000000E+00 -0.15361835159E+04  0.15361835159E+04  0.00000000000E+00 0.  1.
          6    1    1    2  501    0 -0.17033343939E+03 -0.70493168800E+02 -0.67685520504E+03  0.72252663343E+03  0.17300000000E+03 0.  1.
         -6    1    1    2    0  503  0.17033343939E+03  0.70493168800E+02 -0.81739148101E+03  0.85559371237E+03  0.17300000000E+03 0.  1.
<mgrwt>
<rscale>  2 0.25280777E+03</rscale>
<asrwt>0</asrwt>
<pdfrwt beam="1">  1       21 0.64518199E-02 0.25280777E+03</pdfrwt>
<pdfrwt beam="2">  1       21 0.23633593E+00 0.25280777E+03</pdfrwt>
<totfact> 0.13300204E+04</totfact>
</mgrwt>
</event>
<event>
 4    1  0.4306168E+000  0.1754913E+03  0.7546771E-02  0.1172239E+00
         21   -1    0    0  503  502  0.00000000000E+00  0.00000000000E+00  0.51061903507E+02  0.51061903507E+02  0.00000000000E+00 0. -1.
         21   -1    0    0  501  503 -0.00000000000E+00 -0.00000000000E+00 -0.96174743489E+03  0.96174743489E+03  0.00000000000E+00 0. -1.
          6    1    1    2  501    0  0.16996255496E+02 -0.24069503145E+02 -0.76457157214E+03  0.78445325074E+03  0.17300000000E+03 0. -1.
         -6    1    1    2    0  502 -0.16996255496E+02  0.24069503145E+02 -0.14611395925E+03  0.22835608766E+03  0.17300000000E+03 0. -1.
<mgrwt>
<rscale>  2 0.17549135E+03</rscale>
<asrwt>0</asrwt>
<pdfrwt beam="1">  1       21 0.78556779E-02 0.17549135E+03</pdfrwt>
<pdfrwt beam="2">  1       21 0.14796114E+00 0.17549135E+03</pdfrwt>
<totfact> 0.38773205E+04</totfact>
</mgrwt>
</event>
<event>
 4    1  0.4306168E+000  0.1765049E+03  0.7546771E-02  0.1171229E+00
         21   -1    0    0  503  502  0.00000000000E+00  0.00000000000E+00  0.23780134113E+04  0.23780134113E+04  0.00000000000E+00 0. -1.
         21   -1    0    0  501  503 -0.00000000000E+00 -0.00000000000E+00 -0.21640539211E+02  0.21640539211E+02  0.00000000000E+00 0. -1.
          6    1    1    2  501    0  0.11390793776E+02  0.33094187331E+02  0.42447371302E+03  0.45970850379E+03  0.17300000000E+03 0. -1.
         -6    1    1    2    0  502 -0.11390793776E+02 -0.33094187331E+02  0.19318991591E+04  0.19399454468E+04  0.17300000000E+03 0. -1.
<mgrwt>
<rscale>  2 0.17650489E+03</rscale>
<asrwt>0</asrwt>
<pdfrwt beam="1">  1       21 0.36584801E+00 0.17650489E+03</pdfrwt>
<pdfrwt beam="2">  1       21 0.33293156E-02 0.17650489E+03</pdfrwt>
<totfact> 0.76546318E+03</totfact>
</mgrwt>
</event>
<event>
 4    1  0.4306168E+000  0.2211619E+03  0.7546771E-02  0.1133020E+00
         21   -1    0    0  501  502  0.00000000000E+00  0.00000000000E+00  0.27512286651E+03  0.27512286651E+03  0.00000000000E+00 0.  1.
         21   -1    0    0  502  503 -0.00000000000E+00 -0.00000000000E+00 -0.21747865889E+03  0.21747865889E+03  0.00000000000E+00 0.  1.
          6    1    1    2  501    0 -0.96717320442E+02  0.98129213506E+02  0.13404753366E+03  0.25861423762E+03  0.17300000000E+03 0.  1.
         -6    1    1    2    0  503  0.96717320442E+02 -0.98129213506E+02 -0.76403326035E+02  0.23398728779E+03  0.17300000000E+03 0.  1.
<mgrwt>
<rscale>  2 0.22116189E+03</rscale>
<asrwt>0</asrwt>
<pdfrwt beam="1">  1       21 0.42326595E-01 0.22116189E+03</pdfrwt>
<pdfrwt beam="2">  1       21 0.33458255E-01 0.22116189E+03</pdfrwt>
<totfact> 0.45575837E+04</totfact>
</mgrwt>
</event>
<event>
 4    1  0.4306168E+000  0.2314280E+03  0.7546771E-02  0.1125639E+00
         21   -1    0    0  501  502  0.00000000000E+00  0.00000000000E+00  0.51760020942E+03  0.51760020942E+03  0.00000000000E+00 0. -1.
         21   -1    0    0  502  503 -0.00000000000E+00 -0.00000000000E+00 -0.12482602998E+03  0.12482602998E+03  0.00000000000E+00 0.  1.
          6    1    1    2  501    0 -0.13561428465E+03 -0.72378841815E+02  0.32923208981E+03  0.40243347264E+03  0.17300000000E+03 0. -1.
         -6    1    1    2    0  503  0.13561428465E+03  0.72378841815E+02  0.63542089628E+02  0.23999276676E+03  0.17300000000E+03 0.  1.
<mgrwt>
<rscale>  2 0.23142803E+03</rscale>
<asrwt>0</asrwt>
<pdfrwt beam="1">  1       21 0.79630800E-01 0.23142803E+03</pdfrwt>
<pdfrwt beam="2">  1       21 0.19204005E-01 0.23142803E+03</pdfrwt>
<totfact> 0.33917606E+04</totfact>
</mgrwt>
</event>
<event>
 4    1  0.4306168E+000  0.2012322E+03  0.7546771E-02  0.1148704E+00
         21   -1    0    0  503  502  0.00000000000E+00  0.00000000000E+00  0.41535235288E+03  0.41535235288E+03  0.00000000000E+00 0.  1.
         21   -1    0    0  501  503 -0.00000000000E+00 -0.00000000000E+00 -0.98203120912E+02  0.98203120912E+02  0.00000000000E+00 0.  1.
          6    1    1    2  501    0 -0.20392209800E+02 -0.10074508379E+03  0.13675653004E+03  0.24330384838E+03  0.17300000000E+03 0.  1.
         -6    1    1    2    0  502  0.20392209800E+02  0.10074508379E+03  0.18039270192E+03  0.27025162541E+03  0.17300000000E+03 0.  1.
<mgrwt>
<rscale>  2 0.20123224E+03</rscale>
<asrwt>0</asrwt>
<pdfrwt beam="1">  1       21 0.63900361E-01 0.20123224E+03</pdfrwt>
<pdfrwt beam="2">  1       21 0.15108173E-01 0.20123224E+03</pdfrwt>
<totfact> 0.87253931E+04</totfact>
</mgrwt>
</event>
<event>
 4    1  0.4306168E+000  0.2645698E+03  0.7546771E-02  0.1104428E+00
         21   -1    0    0  501  502  0.00000000000E+00  0.00000000000E+00  0.42805320784E+03  0.42805320784E+03  0.00000000000E+00 0.  1.
         21   -1    0    0  502  503 -0.00000000000E+00 -0.00000000000E+00 -0.18370762779E+03  0.18370762779E+03  0.00000000000E+00 0.  1.
          6    1    1    2  501    0  0.19723988176E+03 -0.34126314956E+02  0.22355986129E+03  0.34637579002E+03  0.17300000000E+03 0.  1.
         -6    1    1    2    0  503 -0.19723988176E+03  0.34126314956E+02  0.20785718760E+02  0.26538504561E+03  0.17300000000E+03 0.  1.
<mgrwt>
<rscale>  2 0.26456979E+03</rscale>
<asrwt>0</asrwt>
<pdfrwt beam="1">  1       21 0.65854340E-01 0.26456979E+03</pdfrwt>
<pdfrwt beam="2">  1       21 0.28262712E-01 0.26456979E+03</pdfrwt>
<totfact> 0.24433802E+04</totfact>
</mgrwt>
</event>
<event>
 4    1  0.4306168E+000  0.1924423E+03  0.7546771E-02  0.1156277E+00
         21   -1    0    0  501  502  0.00000000000E+00  0.00000000000E+00  0.94469052898E+03  0.94469052898E+03  0.00000000000E+00 0.  1.
         21   -1    0    0  502  503 -0.00000000000E+00 -0.00000000000E+00 -0.76312728414E+02  0.76312728414E+02  0.00000000000E+00 0. -1.
          6    1    1    2  501    0 -0.53141991516E+02 -0.65428964365E+02  0.79018624176E+03  0.81328243391E+03  0.17300000000E+03 0.  1.
         -6    1    1    2    0  503  0.53141991516E+02  0.65428964365E+02  0.78191558804E+02  0.20772082348E+03  0.17300000000E+03 0. -1.
<mgrwt>
<rscale>  2 0.19244225E+03</rscale>
<asrwt>0</asrwt>
<pdfrwt beam="1">  1       21 0.14533700E+00 0.19244225E+03</pdfrwt>
<pdfrwt beam="2">  1       21 0.11740420E-01 0.19244225E+03</pdfrwt>
<totfact> 0.19817005E+04</totfact>
</mgrwt>
</event>
<event>
 4    1  0.4306168E+000  0.2113012E+03  0.7546771E-02  0.1140540E+00
         21   -1    0    0  503  502  0.00000000000E+00  0.00000000000E+00  0.30048701551E+03  0.30048701551E+03  0.00000000000E+00 0.  1.
         21   -1    0    0  501  503 -0.00000000000E+00 -0.00000000000E+00 -0.16140949177E+03  0.16140949177E+03  0.00000000000E+00 0.  1.
          6    1    1    2  501    0  0.10863042959E+03 -0.54024154347E+02  0.13463447753E+03  0.25054864203E+03  0.17300000000E+03 0. -1.
         -6    1    1    2    0  502 -0.10863042959E+03  0.54024154347E+02  0.44430462059E+01  0.21134786525E+03  0.17300000000E+03 0. -1.
<mgrwt>
<rscale>  2 0.21130116E+03</rscale>
<asrwt>0</asrwt>
<pdfrwt beam="1">  1       21 0.46228772E-01 0.21130116E+03</pdfrwt>
<pdfrwt beam="2">  1       21 0.24832230E-01 0.21130116E+03</pdfrwt>
<totfact> 0.68214426E+04</totfact>
</mgrwt>
</event>
<event>
 4    1  0.4306168E+000  0.1828999E+03  0.7546771E-02  0.1165026E+00
         21   -1    0    0  501  502  0.00000000000E+00  0.00000000000E+00  0.82791477570E+03  0.82791477570E+03  0.00000000000E+00 0. -1.
         21   -1    0    0  502  503 -0.00000000000E+00 -0.00000000000E+00 -0.42891278351E+02  0.42891278351E+02  0.00000000000E+00 0. -1.
          6    1    1    2  501    0  0.23505793896E+02  0.54505657040E+02  0.49732829937E+03  0.52989416523E+03  0.17300000000E+03 0. -1.
         -6    1    1    2    0  503 -0.23505793896E+02 -0.54505657040E+02  0.28769519798E+03  0.34091188882E+03  0.17300000000E+03 0. -1.
<mgrwt>
<rscale>  2 0.18289994E+03</rscale>
<asrwt>0</asrwt>
<pdfrwt beam="1">  1       21 0.12737149E+00 0.18289994E+03</pdfrwt>
<pdfrwt beam="2">  1       21 0.65986588E-02 0.18289994E+03</pdfrwt>
<totfact> 0.76565866E+04</totfact>
</mgrwt>
</event>
<event>
 4    1  0.4306168E+000  0.2279222E+03  0.7546771E-02  0.1128111E+00
         21   -1    0    0  501  502  0.00000000000E+00  0.00000000000E+00  0.17906537608E+03  0.17906537608E+03  0.00000000000E+00 0. -1.
         21   -1    0    0  502  503 -0.00000000000E+00 -0.00000000000E+00 -0.29588918879E+03  0.29588918879E+03  0.00000000000E+00 0.  1.
          6    1    1    2  501    0 -0.10440838535E+03 -0.10544399576E+03 -0.91602410644E+02  0.24564109756E+03  0.17300000000E+03 0. -1.
         -6    1    1    2    0  503  0.10440838535E+03  0.10544399576E+03 -0.25221402065E+02  0.22931346732E+03  0.17300000000E+03 0. -1.
<mgrwt>
<rscale>  2 0.22792224E+03</rscale>
<asrwt>0</asrwt>
<pdfrwt beam="1">  1       21 0.27548519E-01 0.22792224E+03</pdfrwt>
<pdfrwt beam="2">  1       21 0.45521414E-01 0.22792224E+03</pdfrwt>
<totfact> 0.57264772E+04</totfact>
</mgrwt>
</event>
<event>
 4    1  0.4306168E+000  0.2026582E+03  0.7546771E-02  0.1147516E+00
         21   -1    0    0  501  502  0.00000000000E+00  0.00000000000E+00  0.40928663736E+02  0.40928663736E+02  0.00000000000E+00 0.  1.
         21   -1    0    0  502  503 -0.00000000000E+00 -0.00000000000E+00 -0.10128829226E+04  0.10128829226E+04  0.00000000000E+00 0.  1.
          6    1    1    2  501    0  0.10463385133E+03  0.13895614234E+02 -0.43515934335E+03  0.48003539978E+03  0.17300000000E+03 0.  1.
         -6    1    1    2    0  503 -0.10463385133E+03 -0.13895614234E+02 -0.53679491556E+03  0.57377618660E+03  0.17300000000E+03 0.  1.
<mgrwt>
<rscale>  2 0.20265816E+03</rscale>
<asrwt>0</asrwt>
<pdfrwt beam="1">  1       21 0.62967181E-02 0.20265816E+03</pdfrwt>
<pdfrwt beam="2">  1       21 0.15582813E+00 0.20265816E+03</pdfrwt>
<totfact> 0.48763599E+04</totfact>
</mgrwt>
</event>
<event>
 4    1  0.4306168E+000  0.2327962E+03  0.7546771E-02  0.1124687E+00
         21   -1    0    0  503  502  0.00000000000E+00  0.00000000000E+00  0.40393590818E+03  0.40393590818E+03  0.00000000000E+00 0.  1.
         21   -1    0    0  501  503 -0.00000000000E+00 -0.00000000000E+00 -0.46284714296E+03  0.46284714296E+03  0.00000000000E+00 0.  1.
          6    1    1    2  501    0 -0.14438060139E+03  0.58474758519E+02 -0.39467152486E+03  0.45821356154E+03  0.17300000000E+03 0.  1.
         -6    1    1    2    0  502  0.14438060139E+03 -0.58474758519E+02  0.33576029008E+03  0.40856948961E+03  0.17300000000E+03 0.  1.
<mgrwt>
<rscale>  2 0.23279617E+03</rscale>
<asrwt>0</asrwt>
<pdfrwt beam="1">  1       21 0.62143986E-01 0.23279617E+03</pdfrwt>
<pdfrwt beam="2">  1       21 0.71207252E-01 0.23279617E+03</pdfrwt>
<totfact> 0.41587770E+03</totfact>
</mgrwt>
</event>
<event>
 4    1  0.4306168E+000  0.2025631E+03  0.7546771E-02  0.1147594E+00
         21   -1    0    0  503  502  0.00000000000E+00  0.00000000000E+00  0.14466676801E+03  0.14466676801E+03  0.00000000000E+00 0. -1.
         21   -1    0    0  501  503 -0.00000000000E+00 -0.00000000000E+00 -0.33744975132E+03  0.33744975132E+03  0.00000000000E+00 0. -1.
          6    1    1    2  501    0 -0.90913299309E+02 -0.53269135863E+02 -0.19266094098E+03  0.27955333482E+03  0.17300000000E+03 0. -1.
         -6    1    1    2    0  502  0.90913299309E+02  0.53269135863E+02 -0.12204233042E+00  0.20256318452E+03  0.17300000000E+03 0. -1.
<mgrwt>
<rscale>  2 0.20256315E+03</rscale>
<asrwt>0</asrwt>
<pdfrwt beam="1">  1       21 0.22256426E-01 0.20256315E+03</pdfrwt>
<pdfrwt beam="2">  1       21 0.51915346E-01 0.20256315E+03</pdfrwt>
<totfact> 0.66223437E+04</totfact>
</mgrwt>
</event>
<event>
 4    1  0.4306168E+000  0.1734556E+03  0.7546771E-02  0.1174291E+00
         21   -1    0    0  503  502  0.00000000000E+00  0.00000000000E+00  0.32901905047E+02  0.32901905047E+02  0.00000000000E+00 0. -1.
         21   -1    0    0  501  503 -0.00000000000E+00 -0.00000000000E+00 -0.10105273394E+04  0.10105273394E+04  0.00000000000E+00 0. -1.
          6    1    1    2  501    0 -0.85555163343E+01 -0.92004650539E+01 -0.64968831720E+03  0.67244461105E+03  0.17300000000E+03 0.  1.
         -6    1    1    2    0  502  0.85555163343E+01  0.92004650539E+01 -0.32793711719E+03  0.37098463344E+03  0.17300000000E+03 0.  1.
<mgrwt>
<rscale>  2 0.17345560E+03</rscale>
<asrwt>0</asrwt>
<pdfrwt beam="1">  1       21 0.50618314E-02 0.17345560E+03</pdfrwt>
<pdfrwt beam="2">  1       21 0.15546575E+00 0.17345560E+03</pdfrwt>
<totfact> 0.72363231E+04</totfact>
</mgrwt>
</event>
<event>
 4    1  0.4306168E+000  0.2262226E+03  0.7546771E-02  0.1129327E+00
         21   -1    0    0  503  502  0.00000000000E+00  0.00000000000E+00  0.19194706128E+03  0.19194706128E+03  0.00000000000E+00 0.  1.
         21   -1    0    0  501  503 -0.00000000000E+00 -0.00000000000E+00 -0.31253998344E+03  0.31253998344E+03  0.00000000000E+00 0.  1.
          6    1    1    2  501    0 -0.12808627991E+03  0.69581274495E+02 -0.15698497960E+03  0.27535601080E+03  0.17300000000E+03 0.  1.
         -6    1    1    2    0  502  0.12808627991E+03 -0.69581274495E+02  0.36392057445E+02  0.22913103392E+03  0.17300000000E+03 0.  1.
<mgrwt>
<rscale>  2 0.22622256E+03</rscale>
<asrwt>0</asrwt>
<pdfrwt beam="1">  1       21 0.29530317E-01 0.22622256E+03</pdfrwt>
<pdfrwt beam="2">  1       21 0.48083074E-01 0.22622256E+03</pdfrwt>
<totfact> 0.44689774E+04</totfact>
</mgrwt>
</event>
<event>
 4    1  0.4306168E+000  0.3536353E+03  0.7546771E-02  0.1061133E+00
         21   -1    0    0  501  502  0.00000000000E+00  0.00000000000E+00  0.43134267306E+03  0.43134267306E+03  0.00000000000E+00 0. -1.
         21   -1    0    0  502  503 -0.00000000000E+00 -0.00000000000E+00 -0.36712790011E+03  0.36712790011E+03  0.00000000000E+00 0. -1.
          6    1    1    2  501    0  0.28800607687E+03 -0.11036936087E+03  0.21518335824E+03  0.41395866194E+03  0.17300000000E+03 0. -1.
         -6    1    1    2    0  503 -0.28800607687E+03  0.11036936087E+03 -0.15096858529E+03  0.38451191123E+03  0.17300000000E+03 0. -1.
<mgrwt>
<rscale>  2 0.35363526E+03</rscale>
<asrwt>0</asrwt>
<pdfrwt beam="1">  1       21 0.66360412E-01 0.35363526E+03</pdfrwt>
<pdfrwt beam="2">  1       21 0.56481215E-01 0.35363526E+03</pdfrwt>
<totfact> 0.56090734E+03</totfact>
</mgrwt>
</event>
<event>
 4    1  0.4306168E+000  0.1962968E+03  0.7546771E-02  0.1152902E+00
         21   -1    0    0  501  502  0.00000000000E+00  0.00000000000E+00  0.13884921422E+04  0.13884921422E+04  0.00000000000E+00 0.  1.
         21   -1    0    0  502  503 -0.00000000000E+00 -0.00000000000E+00 -0.39702009399E+02  0.39702009399E+02  0.00000000000E+00 0.  1.
          6    1    1    2  501    0  0.92304501439E+02  0.91285375636E+01  0.10661802384E+04  0.10840999732E+04  0.17300000000E+03 0.  1.
         -6    1    1    2    0  503 -0.92304501439E+02 -0.91285375636E+01  0.28260989444E+03  0.34409417841E+03  0.17300000000E+03 0.  1.
<mgrwt>
<rscale>  2 0.19629684E+03</rscale>
<asrwt>0</asrwt>
<pdfrwt beam="1">  1       21 0.21361414E+00 0.19629684E+03</pdfrwt>
<pdfrwt beam="2">  1       21 0.61080025E-02 0.19629684E+03</pdfrwt>
<totfact> 0.21008430E+04</totfact>
</mgrwt>
</event>
<event>
 4    1  0.4306168E+000  0.2982873E+03  0.7546771E-02  0.1086100E+00
         21   -1    0    0  503  502  0.00000000000E+00  0.00000000000E+00  0.13525117568E+04  0.13525117568E+04  0.00000000000E+00 0.  1.
         21   -1    0    0  501  503 -0.00000000000E+00 -0.00000000000E+00 -0.13288663477E+03  0.13288663477E+03  0.00000000000E+00 0.  1.
          6    1    1    2  501    0  0.12200713018E+03  0.21014423948E+03  0.82050700281E+02  0.30936654412E+03  0.17300000000E+03 0.  1.
         -6    1    1    2    0  502 -0.12200713018E+03 -0.21014423948E+03  0.11375744218E+04  0.11760318475E+04  0.17300000000E+03 0.  1.
<mgrwt>
<rscale>  2 0.29828735E+03</rscale>
<asrwt>0</asrwt>
<pdfrwt beam="1">  1       21 0.20807872E+00 0.29828735E+03</pdfrwt>
<pdfrwt beam="2">  1       21 0.20444099E-01 0.29828735E+03</pdfrwt>
<totfact> 0.24212055E+03</totfact>
</mgrwt>
</event>
<event>
 4    1  0.4306168E+000  0.1845056E+03  0.7546771E-02  0.1163512E+00
         21   -1    0    0  503  502  0.00000000000E+00  0.00000000000E+00  0.31477659552E+04  0.31477659552E+04  0.00000000000E+00 0. -1.
         21   -1    0    0  501  503 -0.00000000000E+00 -0.00000000000E+00 -0.13608353205E+02  0.13608353205E+02  0.00000000000E+00 0. -1.
          6    1    1    2  501    0 -0.63238314832E+02  0.10687649951E+02  0.85089368894E+03  0.87066777832E+03  0.17300000000E+03 0. -1.
         -6    1    1    2    0  502  0.63238314832E+02 -0.10687649951E+02  0.22832639130E+04  0.22907065301E+04  0.17300000000E+03 0. -1.
<mgrwt>
<rscale>  2 0.18450558E+03</rscale>
<asrwt>0</asrwt>
<pdfrwt beam="1">  1       21 0.48427111E+00 0.18450558E+03</pdfrwt>
<pdfrwt beam="2">  1       21 0.20935953E-02 0.18450558E+03</pdfrwt>
<totfact> 0.28208815E+03</totfact>
</mgrwt>
</event>
<event>
 4    1  0.4306168E+000  0.1885528E+03  0.7546771E-02  0.1159773E+00
         21   -1    0    0  503  502  0.00000000000E+00  0.00000000000E+00  0.88113209617E+02  0.88113209617E+02  0.00000000000E+00 0. -1.
         21   -1    0    0  501  503 -0.00000000000E+00 -0.00000000000E+00 -0.59732622618E+03  0.59732622618E+03  0.00000000000E+00 0. -1.
          6    1    1    2  501    0 -0.74668720811E+02 -0.69085170434E+01 -0.44984213954E+03  0.48776028537E+03  0.17300000000E+03 0. -1.
         -6    1    1    2    0  502  0.74668720811E+02  0.69085170434E+01 -0.59370877019E+02  0.19767915043E+03  0.17300000000E+03 0. -1.
<mgrwt>
<rscale>  2 0.18855277E+03</rscale>
<asrwt>0</asrwt>
<pdfrwt beam="1">  1       21 0.13555878E-01 0.18855277E+03</pdfrwt>
<pdfrwt beam="2">  1       21 0.91896343E-01 0.18855277E+03</pdfrwt>
<totfact> 0.47276593E+04</totfact>
</mgrwt>
</event>
<event>
 4    1  0.4306168E+000  0.2749463E+03  0.7546771E-02  0.1098482E+00
         21   -1    0    0  503  502  0.00000000000E+00  0.00000000000E+00  0.47789896583E+03  0.47789896583E+03  0.00000000000E+00 0. -1.
         21   -1    0    0  501  503 -0.00000000000E+00 -0.00000000000E+00 -0.18473183997E+03  0.18473183997E+03  0.00000000000E+00 0. -1.
          6    1    1    2  501    0  0.19303894168E+03 -0.91664861500E+02  0.27218474704E+03  0.38688501697E+03  0.17300000000E+03 0. -1.
         -6    1    1    2    0  502 -0.19303894168E+03  0.91664861500E+02  0.20982378827E+02  0.27574578883E+03  0.17300000000E+03 0. -1.
<mgrwt>
<rscale>  2 0.27494632E+03</rscale>
<asrwt>0</asrwt>
<pdfrwt beam="1">  1       21 0.73522917E-01 0.27494632E+03</pdfrwt>
<pdfrwt beam="2">  1       21 0.28420283E-01 0.27494632E+03</pdfrwt>
<totfact> 0.18835844E+04</totfact>
</mgrwt>
</event>
<event>
 4    1  0.4306168E+000  0.1910411E+03  0.7546771E-02  0.1157526E+00
         21   -1    0    0  503  502  0.00000000000E+00  0.00000000000E+00  0.20252641631E+03  0.20252641631E+03  0.00000000000E+00 0.  1.
         21   -1    0    0  501  503 -0.00000000000E+00 -0.00000000000E+00 -0.19393727490E+03  0.19393727490E+03  0.00000000000E+00 0.  1.
          6    1    1    2  501    0  0.79151134443E+02  0.17401175836E+02  0.57039466187E+02  0.19937453124E+03  0.17300000000E+03 0.  1.
         -6    1    1    2    0  502 -0.79151134443E+02 -0.17401175836E+02 -0.48450324779E+02  0.19708915996E+03  0.17300000000E+03 0.  1.
<mgrwt>
<rscale>  2 0.19104110E+03</rscale>
<asrwt>0</asrwt>
<pdfrwt beam="1">  1       21 0.31157910E-01 0.19104110E+03</pdfrwt>
<pdfrwt beam="2">  1       21 0.29836504E-01 0.19104110E+03</pdfrwt>
<totfact> 0.10665412E+05</totfact>
</mgrwt>
</event>
<event>
 4    1  0.4306168E+000  0.1832632E+03  0.7546771E-02  0.1164682E+00
         21   -1    0    0  503  502  0.00000000000E+00  0.00000000000E+00  0.90386933653E+03  0.90386933653E+03  0.00000000000E+00 0.  1.
         21   -1    0    0  501  503 -0.00000000000E+00 -0.00000000000E+00 -0.51078906607E+02  0.51078906607E+02  0.00000000000E+00 0. -1.
          6    1    1    2  501    0 -0.58863517073E+02 -0.13837462276E+02  0.17712353187E+03  0.25486885754E+03  0.17300000000E+03 0. -1.
         -6    1    1    2    0  502  0.58863517073E+02  0.13837462276E+02  0.67566689806E+03  0.70007938560E+03  0.17300000000E+03 0.  1.
<mgrwt>
<rscale>  2 0.18326317E+03</rscale>
<asrwt>0</asrwt>
<pdfrwt beam="1">  1       21 0.13905681E+00 0.18326317E+03</pdfrwt>
<pdfrwt beam="2">  1       21 0.78582940E-02 0.18326317E+03</pdfrwt>
<totfact> 0.45311806E+04</totfact>
</mgrwt>
</event>
<event>
 4    1  0.4306168E+000  0.1984768E+03  0.7546771E-02  0.1151031E+00
         21   -1    0    0  501  502  0.00000000000E+00  0.00000000000E+00  0.15499885861E+03  0.15499885861E+03  0.00000000000E+00 0. -1.
         21   -1    0    0  502  503 -0.00000000000E+00 -0.00000000000E+00 -0.28335069300E+03  0.28335069300E+03  0.00000000000E+00 0.  1.
          6    1    1    2  501    0 -0.27275416525E+02  0.93381423385E+02  0.61833385024E+01  0.19857309046E+03  0.17300000000E+03 0. -1.
         -6    1    1    2    0  503  0.27275416525E+02 -0.93381423385E+02 -0.13453517289E+03  0.23977646116E+03  0.17300000000E+03 0.  1.
<mgrwt>
<rscale>  2 0.19847680E+03</rscale>
<asrwt>0</asrwt>
<pdfrwt beam="1">  1       21 0.23845978E-01 0.19847680E+03</pdfrwt>
<pdfrwt beam="2">  1       21 0.43592414E-01 0.19847680E+03</pdfrwt>
<totfact> 0.83612838E+04</totfact>
</mgrwt>
</event>
<event>
 4    1  0.4306168E+000  0.2689224E+03  0.7546771E-02  0.1101898E+00
         21   -1    0    0  503  502  0.00000000000E+00  0.00000000000E+00  0.13477348281E+04  0.13477348281E+04  0.00000000000E+00 0. -1.
         21   -1    0    0  501  503 -0.00000000000E+00 -0.00000000000E+00 -0.55829873945E+02  0.55829873945E+02  0.00000000000E+00 0.  1.
          6    1    1    2  501    0  0.19007816354E+03 -0.79123480222E+02  0.50759503629E+03  0.57443185344E+03  0.17300000000E+03 0.  1.
         -6    1    1    2    0  502 -0.19007816354E+03  0.79123480222E+02  0.78430991786E+03  0.82913284860E+03  0.17300000000E+03 0. -1.
<mgrwt>
<rscale>  2 0.26892236E+03</rscale>
<asrwt>0</asrwt>
<pdfrwt beam="1">  1       21 0.20734379E+00 0.26892236E+03</pdfrwt>
<pdfrwt beam="2">  1       21 0.85892124E-02 0.26892236E+03</pdfrwt>
<totfact> 0.12099510E+04</totfact>
</mgrwt>
</event>
<event>
 4    1  0.4306168E+000  0.2732525E+03  0.7546771E-02  0.1099432E+00
         21   -1    0    0  503  502  0.00000000000E+00  0.00000000000E+00  0.14970812172E+04  0.14970812172E+04  0.00000000000E+00 0. -1.
         21   -1    0    0  501  503 -0.00000000000E+00 -0.00000000000E+00 -0.55239126483E+02  0.55239126483E+02  0.00000000000E+00 0.  1.
          6    1    1    2  501    0  0.47217931000E+01 -0.21146073832E+03  0.47905378089E+03  0.55150654045E+03  0.17300000000E+03 0.  1.
         -6    1    1    2    0  502 -0.47217931000E+01  0.21146073832E+03  0.96278830979E+03  0.10008138032E+04  0.17300000000E+03 0. -1.
<mgrwt>
<rscale>  2 0.27325252E+03</rscale>
<asrwt>0</asrwt>
<pdfrwt beam="1">  1       21 0.23032016E+00 0.27325252E+03</pdfrwt>
<pdfrwt beam="2">  1       21 0.84983283E-02 0.27325252E+03</pdfrwt>
<totfact> 0.88261768E+03</totfact>
</mgrwt>
</event>
<event>
 4    1  0.4306168E+000  0.1819801E+03  0.7546771E-02  0.1165900E+00
         21   -1    0    0  503  502  0.00000000000E+00  0.00000000000E+00  0.18304146732E+03  0.18304146732E+03  0.00000000000E+00 0.  1.
         21   -1    0    0  501  503 -0.00000000000E+00 -0.00000000000E+00 -0.84132082330E+03  0.84132082330E+03  0.00000000000E+00 0.  1.
          6    1    1    2  501    0 -0.61749447223E+01 -0.56121556442E+02 -0.78291926960E+03  0.80379060815E+03  0.17300000000E+03 0.  1.
         -6    1    1    2    0  502  0.61749447223E+01  0.56121556442E+02  0.12463991362E+03  0.22057168247E+03  0.17300000000E+03 0.  1.
<mgrwt>
<rscale>  2 0.18198011E+03</rscale>
<asrwt>0</asrwt>
<pdfrwt beam="1">  1       21 0.28160225E-01 0.18198011E+03</pdfrwt>
<pdfrwt beam="2">  1       21 0.12943397E+00 0.18198011E+03</pdfrwt>
<totfact> 0.53125541E+03</totfact>
</mgrwt>
</event>
<event>
 4    1  0.4306168E+000  0.1850057E+03  0.7546771E-02  0.1163045E+00
         21   -1    0    0  501  502  0.00000000000E+00  0.00000000000E+00  0.65779839650E+02  0.65779839650E+02  0.00000000000E+00 0.  1.
         21   -1    0    0  502  503 -0.00000000000E+00 -0.00000000000E+00 -0.58534391009E+03  0.58534391009E+03  0.00000000000E+00 0.  1.
          6    1    1    2  501    0  0.52435888929E+02  0.39351896403E+02 -0.15128004091E+03  0.23898272945E+03  0.17300000000E+03 0.  1.
         -6    1    1    2    0  503 -0.52435888929E+02 -0.39351896403E+02 -0.36828402953E+03  0.41214102029E+03  0.17300000000E+03 0.  1.
<mgrwt>
<rscale>  2 0.18500566E+03</rscale>
<asrwt>0</asrwt>
<pdfrwt beam="1">  1       21 0.10119976E-01 0.18500566E+03</pdfrwt>
<pdfrwt beam="2">  1       21 0.90052907E-01 0.18500566E+03</pdfrwt>
<totfact> 0.83627963E+04</totfact>
</mgrwt>
</event>
<event>
 4    1  0.4306168E+000  0.1896810E+03  0.7546771E-02  0.1158749E+00
         21   -1    0    0  503  502  0.00000000000E+00  0.00000000000E+00  0.22023116327E+03  0.22023116327E+03  0.00000000000E+00 0. -1.
         21   -1    0    0  501  503 -0.00000000000E+00 -0.00000000000E+00 -0.21536099268E+03  0.21536099268E+03  0.00000000000E+00 0. -1.
          6    1    1    2  501    0 -0.71789408295E+02 -0.29935858816E+02 -0.10457780498E+03  0.21659961237E+03  0.17300000000E+03 0. -1.
         -6    1    1    2    0  502  0.71789408295E+02  0.29935858816E+02  0.10944797557E+03  0.21899254358E+03  0.17300000000E+03 0. -1.
<mgrwt>
<rscale>  2 0.18968098E+03</rscale>
<asrwt>0</asrwt>
<pdfrwt beam="1">  1       21 0.33881717E-01 0.18968098E+03</pdfrwt>
<pdfrwt beam="2">  1       21 0.33132461E-01 0.18968098E+03</pdfrwt>
<totfact> 0.73701317E+04</totfact>
</mgrwt>
</event>
<event>
 4    1  0.4306168E+000  0.1780458E+03  0.7546771E-02  0.1169708E+00
         21   -1    0    0  503  502  0.00000000000E+00  0.00000000000E+00  0.25205034147E+03  0.25205034147E+03  0.00000000000E+00 0. -1.
         21   -1    0    0  501  503 -0.00000000000E+00 -0.00000000000E+00 -0.16921971423E+03  0.16921971423E+03  0.00000000000E+00 0. -1.
          6    1    1    2  501    0  0.37349437922E+02 -0.19398730355E+02 -0.65318043134E+02  0.18964898632E+03  0.17300000000E+03 0. -1.
         -6    1    1    2    0  502 -0.37349437922E+02  0.19398730355E+02  0.14814867037E+03  0.23162106939E+03  0.17300000000E+03 0. -1.
<mgrwt>
<rscale>  2 0.17804576E+03</rscale>
<asrwt>0</asrwt>
<pdfrwt beam="1">  1       21 0.38776976E-01 0.17804576E+03</pdfrwt>
<pdfrwt beam="2">  1       21 0.26033802E-01 0.17804576E+03</pdfrwt>
<totfact> 0.90399335E+04</totfact>
</mgrwt>
</event>
<event>
 4    1  0.4306168E+000  0.1860792E+03  0.7546771E-02  0.1162046E+00
         21   -1    0    0  503  502  0.00000000000E+00  0.00000000000E+00  0.19108523698E+04  0.19108523698E+04  0.00000000000E+00 0.  1.
         21   -1    0    0  501  503 -0.00000000000E+00 -0.00000000000E+00 -0.25464111853E+02  0.25464111853E+02  0.00000000000E+00 0.  1.
          6    1    1    2  501    0 -0.65862029166E+02  0.18938746181E+02  0.42277146022E+03  0.46191037071E+03  0.17300000000E+03 0.  1.
         -6    1    1    2    0  502  0.65862029166E+02 -0.18938746181E+02  0.14626167977E+04  0.14744061109E+04  0.17300000000E+03 0.  1.
<mgrwt>
<rscale>  2 0.18607924E+03</rscale>
<asrwt>0</asrwt>
<pdfrwt beam="1">  1       21 0.29397718E+00 0.18607924E+03</pdfrwt>
<pdfrwt beam="2">  1       21 0.39175572E-02 0.18607924E+03</pdfrwt>
<totfact> 0.15104072E+04</totfact>
</mgrwt>
</event>
<event>
 4    1  0.4306168E+000  0.1946771E+03  0.7546771E-02  0.1154309E+00
         21   -1    0    0  503  502  0.00000000000E+00  0.00000000000E+00  0.43533080448E+03  0.43533080448E+03  0.00000000000E+00 0. -1.
         21   -1    0    0  501  503 -0.00000000000E+00 -0.00000000000E+00 -0.11658237739E+03  0.11658237739E+03  0.00000000000E+00 0.  1.
          6    1    1    2  501    0 -0.89238661619E+02 -0.25749442273E+01  0.20502968850E+02  0.19575377595E+03  0.17300000000E+03 0.  1.
         -6    1    1    2    0  502  0.89238661619E+02  0.25749442273E+01  0.29824545824E+03  0.35615940592E+03  0.17300000000E+03 0. -1.
<mgrwt>
<rscale>  2 0.19467709E+03</rscale>
<asrwt>0</asrwt>
<pdfrwt beam="1">  1       21 0.66973969E-01 0.19467709E+03</pdfrwt>
<pdfrwt beam="2">  1       21 0.17935751E-01 0.19467709E+03</pdfrwt>
<totfact> 0.57651212E+04</totfact>
</mgrwt>
</event>
<event>
 4    1  0.4306168E+000  0.3807211E+03  0.7546771E-02  0.1050668E+00
         21   -1    0    0  503  502  0.00000000000E+00  0.00000000000E+00  0.21360111287E+03  0.21360111287E+03  0.00000000000E+00 0.  1.
         21   -1    0    0  501  503 -0.00000000000E+00 -0.00000000000E+00 -0.97645076639E+03  0.97645076639E+03  0.00000000000E+00 0. -1.
          6    1    1    2  501    0  0.21349908183E+03  0.26351038727E+03 -0.71005993062E+03  0.80568833132E+03  0.17300000000E+03 0. -1.
         -6    1    1    2    0  502 -0.21349908183E+03 -0.26351038727E+03 -0.52789722898E+02  0.38436354795E+03  0.17300000000E+03 0.  1.
<mgrwt>
<rscale>  2 0.38072113E+03</rscale>
<asrwt>0</asrwt>
<pdfrwt beam="1">  1       21 0.32861710E-01 0.38072113E+03</pdfrwt>
<pdfrwt beam="2">  1       21 0.15022319E+00 0.38072113E+03</pdfrwt>
<totfact> 0.23460930E+03</totfact>
</mgrwt>
</event>
<event>
 4    1  0.4306168E+000  0.2019264E+03  0.7546771E-02  0.1148124E+00
         21   -1    0    0  503  502  0.00000000000E+00  0.00000000000E+00  0.16565628296E+03  0.16565628296E+03  0.00000000000E+00 0.  1.
         21   -1    0    0  501  503 -0.00000000000E+00 -0.00000000000E+00 -0.24803013545E+03  0.24803013545E+03  0.00000000000E+00 0. -1.
          6    1    1    2  501    0  0.15947830953E+01  0.10412832749E+03 -0.59254620695E+02  0.21044087529E+03  0.17300000000E+03 0. -1.
         -6    1    1    2    0  502 -0.15947830953E+01 -0.10412832749E+03 -0.23119231798E+02  0.20324554312E+03  0.17300000000E+03 0.  1.
<mgrwt>
<rscale>  2 0.20192635E+03</rscale>
<asrwt>0</asrwt>
<pdfrwt beam="1">  1       21 0.25485582E-01 0.20192635E+03</pdfrwt>
<pdfrwt beam="2">  1       21 0.38158482E-01 0.20192635E+03</pdfrwt>
<totfact> 0.96332296E+04</totfact>
</mgrwt>
</event>
<event>
 4    1  0.4306168E+000  0.1858438E+03  0.7546771E-02  0.1162264E+00
         21   -1    0    0  503  502  0.00000000000E+00  0.00000000000E+00  0.23007789601E+03  0.23007789601E+03  0.00000000000E+00 0.  1.
         21   -1    0    0  501  503 -0.00000000000E+00 -0.00000000000E+00 -0.32903987125E+03  0.32903987125E+03  0.00000000000E+00 0. -1.
          6    1    1    2  501    0 -0.10460817496E+02  0.67078306677E+02 -0.25563202629E+03  0.31604692815E+03  0.17300000000E+03 0. -1.
         -6    1    1    2    0  502  0.10460817496E+02 -0.67078306677E+02  0.15667005105E+03  0.24307083911E+03  0.17300000000E+03 0.  1.
<mgrwt>
<rscale>  2 0.18584383E+03</rscale>
<asrwt>0</asrwt>
<pdfrwt beam="1">  1       21 0.35396600E-01 0.18584383E+03</pdfrwt>
<pdfrwt beam="2">  1       21 0.50621518E-01 0.18584383E+03</pdfrwt>
<totfact> 0.28681512E+04</totfact>
</mgrwt>
</event>
<event>
 4    1  0.4306168E+000  0.2027839E+03  0.7546771E-02  0.1147411E+00
         21   -1    0    0  503  502  0.00000000000E+00  0.00000000000E+00  0.15704811783E+04  0.15704811783E+04  0.00000000000E+00 0.  1.
         21   -1    0    0  501  503 -0.00000000000E+00 -0.00000000000E+00 -0.26226647193E+02  0.26226647193E+02  0.00000000000E+00 0. -1.
          6    1    1    2  501    0 -0.48858002696E+02  0.93836130798E+02  0.73989638134E+03  0.76718184219E+03  0.17300000000E+03 0. -1.
         -6    1    1    2    0  502  0.48858002696E+02 -0.93836130798E+02  0.80435814972E+03  0.82952598325E+03  0.17300000000E+03 0.  1.
<mgrwt>
<rscale>  2 0.20278393E+03</rscale>
<asrwt>0</asrwt>
<pdfrwt beam="1">  1       21 0.24161242E+00 0.20278393E+03</pdfrwt>
<pdfrwt beam="2">  1       21 0.40348700E-02 0.20278393E+03</pdfrwt>
<totfact> 0.28547540E+04</totfact>
</mgrwt>
</event>
<event>
 4    1  0.4306168E+000  0.1879895E+03  0.7546771E-02  0.1160287E+00
         21   -1    0    0  501  502  0.00000000000E+00  0.00000000000E+00  0.96162300296E+02  0.96162300296E+02  0.00000000000E+00 0. -1.
         21   -1    0    0  502  503 -0.00000000000E+00 -0.00000000000E+00 -0.36819038820E+03  0.36819038820E+03  0.00000000000E+00 0.  1.
          6    1    1    2  501    0  0.14591514568E+02  0.72098056848E+02 -0.12599037142E+03  0.22630425491E+03  0.17300000000E+03 0. -1.
         -6    1    1    2    0  503 -0.14591514568E+02 -0.72098056848E+02 -0.14603771648E+03  0.23804843359E+03  0.17300000000E+03 0.  1.
<mgrwt>
<rscale>  2 0.18798947E+03</rscale>
<asrwt>0</asrwt>
<pdfrwt beam="1">  1       21 0.14794200E-01 0.18798947E+03</pdfrwt>
<pdfrwt beam="2">  1       21 0.56644676E-01 0.18798947E+03</pdfrwt>
<totfact> 0.11807389E+05</totfact>
</mgrwt>
</event>
<event>
 4    1  0.4306168E+000  0.1853255E+03  0.7546771E-02  0.1162746E+00
         21   -1    0    0  501  502  0.00000000000E+00  0.00000000000E+00  0.70474605048E+03  0.70474605048E+03  0.00000000000E+00 0.  1.
         21   -1    0    0  502  503 -0.00000000000E+00 -0.00000000000E+00 -0.75794447658E+02  0.75794447658E+02  0.00000000000E+00 0.  1.
          6    1    1    2  501    0  0.59227708339E+02 -0.30143168736E+02  0.54766544040E+03  0.57817209088E+03  0.17300000000E+03 0.  1.
         -6    1    1    2    0  503 -0.59227708339E+02  0.30143168736E+02  0.81286162419E+02  0.20236840726E+03  0.17300000000E+03 0.  1.
<mgrwt>
<rscale>  2 0.18532548E+03</rscale>
<asrwt>0</asrwt>
<pdfrwt beam="1">  1       21 0.10842247E+00 0.18532548E+03</pdfrwt>
<pdfrwt beam="2">  1       21 0.11660685E-01 0.18532548E+03</pdfrwt>
<totfact> 0.41936357E+04</totfact>
</mgrwt>
</event>
<event>
 4    1  0.4306168E+000  0.2719853E+03  0.7546771E-02  0.1100149E+00
         21   -1    0    0  503  502  0.00000000000E+00  0.00000000000E+00  0.16740594317E+03  0.16740594317E+03  0.00000000000E+00 0.  1.
         21   -1    0    0  501  503 -0.00000000000E+00 -0.00000000000E+00 -0.44549372010E+03  0.44549372010E+03  0.00000000000E+00 0. -1.
          6    1    1    2  501    0 -0.14154439257E+03 -0.15495865452E+03 -0.11150423931E+03  0.29395440984E+03  0.17300000000E+03 0.  1.
         -6    1    1    2    0  502  0.14154439257E+03  0.15495865452E+03 -0.16658353762E+03  0.31894525343E+03  0.17300000000E+03 0. -1.
<mgrwt>
<rscale>  2 0.27198529E+03</rscale>
<asrwt>0</asrwt>
<pdfrwt beam="1">  1       21 0.25754761E-01 0.27198529E+03</pdfrwt>
<pdfrwt beam="2">  1       21 0.68537494E-01 0.27198529E+03</pdfrwt>
<totfact> 0.26706867E+04</totfact>
</mgrwt>
</event>
<event>
 4    1  0.4306168E+000  0.2167564E+03  0.7546771E-02  0.1136325E+00
         21   -1    0    0  503  502  0.00000000000E+00  0.00000000000E+00  0.39394302545E+03  0.39394302545E+03  0.00000000000E+00 0. -1.
         21   -1    0    0  501  503 -0.00000000000E+00 -0.00000000000E+00 -0.16001128176E+03  0.16001128176E+03  0.00000000000E+00 0. -1.
          6    1    1    2  501    0  0.12069753695E+03  0.49864233384E+02 -0.22804910148E+02  0.21795274975E+03  0.17300000000E+03 0. -1.
         -6    1    1    2    0  502 -0.12069753695E+03 -0.49864233384E+02  0.25673665383E+03  0.33600155746E+03  0.17300000000E+03 0. -1.
<mgrwt>
<rscale>  2 0.21675640E+03</rscale>
<asrwt>0</asrwt>
<pdfrwt beam="1">  1       21 0.60606619E-01 0.21675640E+03</pdfrwt>
<pdfrwt beam="2">  1       21 0.24617120E-01 0.21675640E+03</pdfrwt>
<totfact> 0.39074152E+04</totfact>
</mgrwt>
</event>
<event>
 4    1  0.4306168E+000  0.1741319E+03  0.7546771E-02  0.1173606E+00
         21   -1    0    0  503  502  0.00000000000E+00  0.00000000000E+00  0.26386138484E+03  0.26386138484E+03  0.00000000000E+00 0.  1.
         21   -1    0    0  501  503 -0.00000000000E+00 -0.00000000000E+00 -0.18049334702E+03  0.18049334702E+03  0.00000000000E+00 0.  1.
          6    1    1    2  501    0  0.17451481548E+02 -0.94004290440E+01 -0.92236089537E+02  0.19705181676E+03  0.17300000000E+03 0.  1.
         -6    1    1    2    0  502 -0.17451481548E+02  0.94004290440E+01  0.17560412735E+03  0.24730291510E+03  0.17300000000E+03 0.  1.
<mgrwt>
<rscale>  2 0.17413191E+03</rscale>
<asrwt>0</asrwt>
<pdfrwt beam="1">  1       21 0.40594059E-01 0.17413191E+03</pdfrwt>
<pdfrwt beam="2">  1       21 0.27768207E-01 0.17413191E+03</pdfrwt>
<totfact> 0.72955847E+04</totfact>
</mgrwt>
</event>
<event>
 4    1  0.4306168E+000  0.1965321E+03  0.7546771E-02  0.1152698E+00
         21   -1    0    0  501  502  0.00000000000E+00  0.00000000000E+00  0.13975362973E+03  0.13975362973E+03  0.00000000000E+00 0. -1.
         21   -1    0    0  502  503 -0.00000000000E+00 -0.00000000000E+00 -0.27641172472E+03  0.27641172472E+03  0.00000000000E+00 0. -1.
          6    1    1    2  501    0 -0.10627766803E+02  0.92643932981E+02 -0.66035268460E+02  0.20732945865E+03  0.17300000000E+03 0.  1.
         -6    1    1    2    0  503  0.10627766803E+02 -0.92643932981E+02 -0.70622826537E+02  0.20883589580E+03  0.17300000000E+03 0.  1.
<mgrwt>
<rscale>  2 0.19653205E+03</rscale>
<asrwt>0</asrwt>
<pdfrwt beam="1">  1       21 0.21500559E-01 0.19653205E+03</pdfrwt>
<pdfrwt beam="2">  1       21 0.42524881E-01 0.19653205E+03</pdfrwt>
<totfact> 0.10706908E+05</totfact>
</mgrwt>
</event>
<event>
 4    1  0.4306168E+000  0.3202017E+03  0.7546771E-02  0.1075557E+00
         21   -1    0    0  501  502  0.00000000000E+00  0.00000000000E+00  0.10368529116E+04  0.10368529116E+04  0.00000000000E+00 0.  1.
         21   -1    0    0  502  503 -0.00000000000E+00 -0.00000000000E+00 -0.12507809606E+03  0.12507809606E+03  0.00000000000E+00 0. -1.
          6    1    1    2  501    0 -0.18226867956E+03 -0.19843949016E+03  0.72174796541E+03  0.78958801180E+03  0.17300000000E+03 0.  1.
         -6    1    1    2    0  503  0.18226867956E+03  0.19843949016E+03  0.19002685013E+03  0.37234299587E+03  0.17300000000E+03 0. -1.
<mgrwt>
<rscale>  2 0.32020166E+03</rscale>
<asrwt>0</asrwt>
<pdfrwt beam="1">  1       21 0.15951583E+00 0.32020166E+03</pdfrwt>
<pdfrwt beam="2">  1       21 0.19242785E-01 0.32020166E+03</pdfrwt>
<totfact> 0.57907599E+03</totfact>
</mgrwt>
</event>
<event>
 4    1  0.4306168E+000  0.2314977E+03  0.7546771E-02  0.1125590E+00
         21   -1    0    0  503  502  0.00000000000E+00  0.00000000000E+00  0.40875777806E+03  0.40875777806E+03  0.00000000000E+00 0. -1.
         21   -1    0    0  501  503 -0.00000000000E+00 -0.00000000000E+00 -0.27081684240E+03  0.27081684240E+03  0.00000000000E+00 0.  1.
          6    1    1    2  501    0 -0.87018401524E+02 -0.12684638480E+03 -0.17508135490E+03  0.29024935551E+03  0.17300000000E+03 0.  1.
         -6    1    1    2    0  502  0.87018401524E+02  0.12684638480E+03  0.31302229056E+03  0.38932526495E+03  0.17300000000E+03 0. -1.
<mgrwt>
<rscale>  2 0.23149775E+03</rscale>
<asrwt>0</asrwt>
<pdfrwt beam="1">  1       21 0.62885812E-01 0.23149775E+03</pdfrwt>
<pdfrwt beam="2">  1       21 0.41664130E-01 0.23149775E+03</pdfrwt>
<totfact> 0.12676311E+04</totfact>
</mgrwt>
</event>
<event>
 4    1  0.4306168E+000  0.2209148E+03  0.7546771E-02  0.1133203E+00
         21   -1    0    0  501  502  0.00000000000E+00  0.00000000000E+00  0.35132923828E+03  0.35132923828E+03  0.00000000000E+00 0. -1.
         21   -1    0    0  502  503 -0.00000000000E+00 -0.00000000000E+00 -0.16383350293E+03  0.16383350293E+03  0.00000000000E+00 0. -1.
          6    1    1    2  501    0 -0.96166926652E+02 -0.98113577188E+02  0.19421233606E+03  0.29414585377E+03  0.17300000000E+03 0. -1.
         -6    1    1    2    0  503  0.96166926652E+02  0.98113577188E+02 -0.67166007073E+01  0.22101688744E+03  0.17300000000E+03 0. -1.
<mgrwt>
<rscale>  2 0.22091481E+03</rscale>
<asrwt>0</asrwt>
<pdfrwt beam="1">  1       21 0.54050652E-01 0.22091481E+03</pdfrwt>
<pdfrwt beam="2">  1       21 0.25205154E-01 0.22091481E+03</pdfrwt>
<totfact> 0.47606263E+04</totfact>
</mgrwt>
</event>
<event>
 4    1  0.4306168E+000  0.1784848E+03  0.7546771E-02  0.1169278E+00
         21   -1    0    0  501  502  0.00000000000E+00  0.00000000000E+00  0.45599440270E+03  0.45599440270E+03  0.00000000000E+00 0.  1.
         21   -1    0    0  502  503 -0.00000000000E+00 -0.00000000000E+00 -0.13517539236E+03  0.13517539236E+03  0.00000000000E+00 0.  1.
          6    1    1    2  501    0  0.16009735873E+02  0.40884199641E+02  0.36587242688E+03  0.40708655366E+03  0.17300000000E+03 0.  1.
         -6    1    1    2    0  503 -0.16009735873E+02 -0.40884199641E+02 -0.45053416538E+02  0.18408324140E+03  0.17300000000E+03 0.  1.
<mgrwt>
<rscale>  2 0.17848482E+03</rscale>
<asrwt>0</asrwt>
<pdfrwt beam="1">  1       21 0.70152984E-01 0.17848482E+03</pdfrwt>
<pdfrwt beam="2">  1       21 0.20796214E-01 0.17848482E+03</pdfrwt>
<totfact> 0.39853816E+04</totfact>
</mgrwt>
</event>
<event>
 4    1  0.4306168E+000  0.1991174E+03  0.7546771E-02  0.1150486E+00
         21   -1    0    0  503  502  0.00000000000E+00  0.00000000000E+00  0.61458917118E+03  0.61458917118E+03  0.00000000000E+00 0.  1.
         21   -1    0    0  501  503 -0.00000000000E+00 -0.00000000000E+00 -0.99960618715E+02  0.99960618715E+02  0.00000000000E+00 0. -1.
          6    1    1    2  501    0 -0.79475904630E+01 -0.98262812718E+02  0.44552312204E+02  0.20404081229E+03  0.17300000000E+03 0. -1.
         -6    1    1    2    0  502  0.79475904630E+01  0.98262812718E+02  0.47007624026E+03  0.51050897760E+03  0.17300000000E+03 0.  1.
<mgrwt>
<rscale>  2 0.19911741E+03</rscale>
<asrwt>0</asrwt>
<pdfrwt beam="1">  1       21 0.94552177E-01 0.19911741E+03</pdfrwt>
<pdfrwt beam="2">  1       21 0.15378557E-01 0.19911741E+03</pdfrwt>
<totfact> 0.34986166E+04</totfact>
</mgrwt>
</event>
<event>
 4    1  0.4306168E+000  0.2288363E+03  0.7546771E-02  0.1127462E+00
         21   -1    0    0  503  502  0.00000000000E+00  0.00000000000E+00  0.27660684655E+03  0.27660684655E+03  0.00000000000E+00 0. -1.
         21   -1    0    0  501  503 -0.00000000000E+00 -0.00000000000E+00 -0.46373320599E+03  0.46373320599E+03  0.00000000000E+00 0. -1.
          6    1    1    2  501    0 -0.14072381548E+03  0.51321077008E+02 -0.37831924494E+03  0.44214420304E+03  0.17300000000E+03 0. -1.
         -6    1    1    2    0  502  0.14072381548E+03 -0.51321077008E+02  0.19119288550E+03  0.29819584949E+03  0.17300000000E+03 0. -1.
<mgrwt>
<rscale>  2 0.22883628E+03</rscale>
<asrwt>0</asrwt>
<pdfrwt beam="1">  1       21 0.42554900E-01 0.22883628E+03</pdfrwt>
<pdfrwt beam="2">  1       21 0.71343570E-01 0.22883628E+03</pdfrwt>
<totfact> 0.92138769E+03</totfact>
</mgrwt>
</event>
<event>
 4    1  0.4306168E+000  0.1931861E+03  0.7546771E-02  0.1155619E+00
         21   -1    0    0  501  502  0.00000000000E+00  0.00000000000E+00  0.17341142766E+04  0.17341142766E+04  0.00000000000E+00 0.  1.
         21   -1    0    0  502  503 -0.00000000000E+00 -0.00000000000E+00 -0.34210869614E+02  0.34210869614E+02  0.00000000000E+00 0.  1.
          6    1    1    2  501    0 -0.25276289205E+02  0.82176495027E+02  0.13884307934E+04  0.14018063116E+04  0.17300000000E+03 0.  1.
         -6    1    1    2    0  503  0.25276289205E+02 -0.82176495027E+02  0.31147261364E+03  0.36651883469E+03  0.17300000000E+03 0.  1.
<mgrwt>
<rscale>  2 0.19318609E+03</rscale>
<asrwt>0</asrwt>
<pdfrwt beam="1">  1       21 0.26678674E+00 0.19318609E+03</pdfrwt>
<pdfrwt beam="2">  1       21 0.52632120E-02 0.19318609E+03</pdfrwt>
<totfact> 0.13075962E+04</totfact>
</mgrwt>
</event>
<event>
 4    1  0.4306168E+000  0.2160407E+03  0.7546771E-02  0.1136870E+00
         21   -1    0    0  503  502  0.00000000000E+00  0.00000000000E+00  0.38667047507E+03  0.38667047507E+03  0.00000000000E+00 0.  1.
         21   -1    0    0  501  503 -0.00000000000E+00 -0.00000000000E+00 -0.12941459330E+03  0.12941459330E+03  0.00000000000E+00 0. -1.
          6    1    1    2  501    0 -0.35139070631E+02  0.12453850173E+03  0.61691249742E+02  0.22467621813E+03  0.17300000000E+03 0. -1.
         -6    1    1    2    0  502  0.35139070631E+02 -0.12453850173E+03  0.19556463203E+03  0.29140885024E+03  0.17300000000E+03 0.  1.
<mgrwt>
<rscale>  2 0.21604072E+03</rscale>
<asrwt>0</asrwt>
<pdfrwt beam="1">  1       21 0.59487765E-01 0.21604072E+03</pdfrwt>
<pdfrwt beam="2">  1       21 0.19909938E-01 0.21604072E+03</pdfrwt>
<totfact> 0.60784573E+04</totfact>
</mgrwt>
</event>
<event>
 4    1  0.4306168E+000  0.1832564E+03  0.7546771E-02  0.1164688E+00
         21   -1    0    0  503  502  0.00000000000E+00  0.00000000000E+00  0.78177939000E+02  0.78177939000E+02  0.00000000000E+00 0.  1.
         21   -1    0    0  501  503 -0.00000000000E+00 -0.00000000000E+00 -0.49857654357E+03  0.49857654357E+03  0.00000000000E+00 0.  1.
          6    1    1    2  501    0  0.59253613458E+02  0.11954484892E+02 -0.31748456570E+03  0.36657789059E+03  0.17300000000E+03 0.  1.
         -6    1    1    2    0  502 -0.59253613458E+02 -0.11954484892E+02 -0.10291403887E+03  0.21017659197E+03  0.17300000000E+03 0.  1.
<mgrwt>
<rscale>  2 0.18325638E+03</rscale>
<asrwt>0</asrwt>
<pdfrwt beam="1">  1       21 0.12027375E-01 0.18325638E+03</pdfrwt>
<pdfrwt beam="2">  1       21 0.76704085E-01 0.18325638E+03</pdfrwt>
<totfact> 0.88702325E+04</totfact>
</mgrwt>
</event>
<event>
 4    1  0.4306168E+000  0.1773143E+03  0.7546771E-02  0.1170428E+00
         21   -1    0    0  503  502  0.00000000000E+00  0.00000000000E+00  0.15645152915E+03  0.15645152915E+03  0.00000000000E+00 0.  1.
         21   -1    0    0  501  503 -0.00000000000E+00 -0.00000000000E+00 -0.22634527001E+03  0.22634527001E+03  0.00000000000E+00 0.  1.
          6    1    1    2  501    0 -0.38455769917E+02  0.57008269609E+01 -0.99045963323E+02  0.20310206429E+03  0.17300000000E+03 0.  1.
         -6    1    1    2    0  502  0.38455769917E+02 -0.57008269609E+01  0.29152222459E+02  0.17969473488E+03  0.17300000000E+03 0.  1.
<mgrwt>
<rscale>  2 0.17731426E+03</rscale>
<asrwt>0</asrwt>
<pdfrwt beam="1">  1       21 0.24069466E-01 0.17731426E+03</pdfrwt>
<pdfrwt beam="2">  1       21 0.34822349E-01 0.17731426E+03</pdfrwt>
<totfact> 0.13011022E+05</totfact>
</mgrwt>
</event>
<event>
 4    1  0.4306168E+000  0.4268521E+03  0.7546771E-02  0.1034859E+00
         21   -1    0    0  501  502  0.00000000000E+00  0.00000000000E+00  0.15101118957E+04  0.15101118957E+04  0.00000000000E+00 0.  1.
         21   -1    0    0  502  503 -0.00000000000E+00 -0.00000000000E+00 -0.16119090983E+03  0.16119090983E+03  0.00000000000E+00 0. -1.
          6    1    1    2  501    0  0.35094825583E+03 -0.17061366657E+03  0.10935186524E+04  0.11738763753E+04  0.17300000000E+03 0.  1.
         -6    1    1    2    0  503 -0.35094825583E+03  0.17061366657E+03  0.25540233350E+03  0.49742643019E+03  0.17300000000E+03 0. -1.
<mgrwt>
<rscale>  2 0.42685208E+03</rscale>
<asrwt>0</asrwt>
<pdfrwt beam="1">  1       21 0.23232490E+00 0.42685208E+03</pdfrwt>
<pdfrwt beam="2">  1       21 0.24798602E-01 0.42685208E+03</pdfrwt>
<totfact> 0.10900629E+03</totfact>
</mgrwt>
</event>
<event>
 4    1  0.4306168E+000  0.2057931E+03  0.7546771E-02  0.1144941E+00
         21   -1    0    0  503  502  0.00000000000E+00  0.00000000000E+00  0.16702694430E+03  0.16702694430E+03  0.00000000000E+00 0.  1.
         21   -1    0    0  501  503 -0.00000000000E+00 -0.00000000000E+00 -0.26657067142E+03  0.26657067142E+03  0.00000000000E+00 0.  1.
          6    1    1    2  501    0  0.13129689787E+02  0.11067705363E+03 -0.18696242056E+01  0.20580159000E+03  0.17300000000E+03 0.  1.
         -6    1    1    2    0  502 -0.13129689787E+02 -0.11067705363E+03 -0.97674102915E+02  0.22779602572E+03  0.17300000000E+03 0.  1.
<mgrwt>
<rscale>  2 0.20579310E+03</rscale>
<asrwt>0</asrwt>
<pdfrwt beam="1">  1       21 0.25696453E-01 0.20579310E+03</pdfrwt>
<pdfrwt beam="2">  1       21 0.41010873E-01 0.20579310E+03</pdfrwt>
<totfact> 0.81843367E+04</totfact>
</mgrwt>
</event>
<event>
 4    1  0.4306168E+000  0.1907562E+03  0.7546771E-02  0.1157781E+00
         21   -1    0    0  503  502  0.00000000000E+00  0.00000000000E+00  0.99028802451E+03  0.99028802451E+03  0.00000000000E+00 0. -1.
         21   -1    0    0  501  503 -0.00000000000E+00 -0.00000000000E+00 -0.56601175369E+02  0.56601175369E+02  0.00000000000E+00 0. -1.
          6    1    1    2  501    0 -0.48543869764E+02  0.64050132889E+02  0.15681031166E+03  0.24693602544E+03  0.17300000000E+03 0. -1.
         -6    1    1    2    0  502  0.48543869764E+02 -0.64050132889E+02  0.77687653748E+03  0.79995317444E+03  0.17300000000E+03 0. -1.
<mgrwt>
<rscale>  2 0.19075620E+03</rscale>
<asrwt>0</asrwt>
<pdfrwt beam="1">  1       21 0.15235199E+00 0.19075620E+03</pdfrwt>
<pdfrwt beam="2">  1       21 0.87078739E-02 0.19075620E+03</pdfrwt>
<totfact> 0.29727070E+04</totfact>
</mgrwt>
</event>
<event>
 4    1  0.4306168E+000  0.1765225E+03  0.7546771E-02  0.1171212E+00
         21   -1    0    0  503  502  0.00000000000E+00  0.00000000000E+00  0.14204826643E+03  0.14204826643E+03  0.00000000000E+00 0. -1.
         21   -1    0    0  501  503 -0.00000000000E+00 -0.00000000000E+00 -0.54247426772E+03  0.54247426772E+03  0.00000000000E+00 0. -1.
          6    1    1    2  501    0 -0.29187958354E+02  0.19474591239E+02 -0.46435893918E+03  0.49677904648E+03  0.17300000000E+03 0. -1.
         -6    1    1    2    0  502  0.29187958354E+02 -0.19474591239E+02  0.63932937893E+02  0.18774348768E+03  0.17300000000E+03 0. -1.
<mgrwt>
<rscale>  2 0.17652251E+03</rscale>
<asrwt>0</asrwt>
<pdfrwt beam="1">  1       21 0.21853580E-01 0.17652251E+03</pdfrwt>
<pdfrwt beam="2">  1       21 0.83457579E-01 0.17652251E+03</pdfrwt>
<totfact> 0.24654283E+04</totfact>
</mgrwt>
</event>
<event>
 4    1  0.4306168E+000  0.1769424E+03  0.7546771E-02  0.1170795E+00
         21   -1    0    0  501  502  0.00000000000E+00  0.00000000000E+00  0.59623457341E+03  0.59623457341E+03  0.00000000000E+00 0.  1.
         21   -1    0    0  502  503 -0.00000000000E+00 -0.00000000000E+00 -0.77873187540E+02  0.77873187540E+02  0.00000000000E+00 0.  1.
          6    1    1    2  501    0 -0.33978248925E+02 -0.15002470553E+02  0.45153534971E+03  0.48496676954E+03  0.17300000000E+03 0.  1.
         -6    1    1    2    0  503  0.33978248925E+02  0.15002470553E+02  0.66826036164E+02  0.18914099141E+03  0.17300000000E+03 0.  1.
<mgrwt>
<rscale>  2 0.17694235E+03</rscale>
<asrwt>0</asrwt>
<pdfrwt beam="1">  1       21 0.91728393E-01 0.17694235E+03</pdfrwt>
<pdfrwt beam="2">  1       21 0.11980491E-01 0.17694235E+03</pdfrwt>
<totfact> 0.59602627E+04</totfact>
</mgrwt>
</event>
<event>
 4    1  0.4306168E+000  0.2804489E+03  0.7546771E-02  0.1095444E+00
         21   -1    0    0  501  502  0.00000000000E+00  0.00000000000E+00  0.68588344960E+03  0.68588344960E+03  0.00000000000E+00 0.  1.
         21   -1    0    0  502  503 -0.00000000000E+00 -0.00000000000E+00 -0.13171078367E+03  0.13171078367E+03  0.00000000000E+00 0. -1.
          6    1    1    2  501    0  0.65961811021E+02  0.21064568683E+03  0.42412026981E+03  0.50845803088E+03  0.17300000000E+03 0.  1.
         -6    1    1    2    0  503 -0.65961811021E+02 -0.21064568683E+03  0.13005239612E+03  0.30913620239E+03  0.17300000000E+03 0. -1.
<mgrwt>
<rscale>  2 0.28044887E+03</rscale>
<asrwt>0</asrwt>
<pdfrwt beam="1">  1       21 0.10552053E+00 0.28044887E+03</pdfrwt>
<pdfrwt beam="2">  1       21 0.20263198E-01 0.28044887E+03</pdfrwt>
<totfact> 0.15484218E+04</totfact>
</mgrwt>
</event>
<event>
 4    1  0.4306168E+000  0.2774900E+03  0.7546771E-02  0.1097068E+00
         21   -1    0    0  501  502  0.00000000000E+00  0.00000000000E+00  0.14427862924E+04  0.14427862924E+04  0.00000000000E+00 0. -1.
         21   -1    0    0  502  503 -0.00000000000E+00 -0.00000000000E+00 -0.62652809825E+02  0.62652809825E+02  0.00000000000E+00 0.  1.
          6    1    1    2  501    0  0.53494372291E+02  0.21026189313E+03  0.97981144173E+03  0.10183472752E+04  0.17300000000E+03 0. -1.
         -6    1    1    2    0  503 -0.53494372291E+02 -0.21026189313E+03  0.40032204086E+03  0.48709182704E+03  0.17300000000E+03 0.  1.
<mgrwt>
<rscale>  2 0.27749002E+03</rscale>
<asrwt>0</asrwt>
<pdfrwt beam="1">  1       21 0.22196710E+00 0.27749002E+03</pdfrwt>
<pdfrwt beam="2">  1       21 0.96388949E-02 0.27749002E+03</pdfrwt>
<totfact> 0.79331579E+03</totfact>
</mgrwt>
</event>
<event>
 4    1  0.4306168E+000  0.2565691E+03  0.7546771E-02  0.1109222E+00
         21   -1    0    0  503  502  0.00000000000E+00  0.00000000000E+00  0.30080844462E+03  0.30080844462E+03  0.00000000000E+00 0.  1.
         21   -1    0    0  501  503 -0.00000000000E+00 -0.00000000000E+00 -0.30838554635E+03  0.30838554635E+03  0.00000000000E+00 0.  1.
          6    1    1    2  501    0 -0.86624798785E+02  0.16850769499E+03 -0.16792704541E+03  0.30663853576E+03  0.17300000000E+03 0.  1.
         -6    1    1    2    0  502  0.86624798785E+02 -0.16850769499E+03  0.16034994368E+03  0.30255545520E+03  0.17300000000E+03 0.  1.
<mgrwt>
<rscale>  2 0.25656909E+03</rscale>
<asrwt>0</asrwt>
<pdfrwt beam="1">  1       21 0.46278222E-01 0.25656909E+03</pdfrwt>
<pdfrwt beam="2">  1       21 0.47443930E-01 0.25656909E+03</pdfrwt>
<totfact> 0.18355355E+04</totfact>
</mgrwt>
</event>
<event>
 4    1  0.4306168E+000  0.1866646E+03  0.7546771E-02  0.1161505E+00
         21   -1    0    0  503  502  0.00000000000E+00  0.00000000000E+00  0.17318455178E+03  0.17318455178E+03  0.00000000000E+00 0.  1.
         21   -1    0    0  501  503 -0.00000000000E+00 -0.00000000000E+00 -0.21816128016E+03  0.21816128016E+03  0.00000000000E+00 0.  1.
          6    1    1    2  501    0  0.69978792881E+02 -0.41982727905E+01 -0.77057947640E+02  0.20194450783E+03  0.17300000000E+03 0. -1.
         -6    1    1    2    0  502 -0.69978792881E+02  0.41982727905E+01  0.32081219263E+02  0.18940132412E+03  0.17300000000E+03 0. -1.
<mgrwt>
<rscale>  2 0.18666456E+03</rscale>
<asrwt>0</asrwt>
<pdfrwt beam="1">  1       21 0.26643777E-01 0.18666456E+03</pdfrwt>
<pdfrwt beam="2">  1       21 0.33563274E-01 0.18666456E+03</pdfrwt>
<totfact> 0.11488191E+05</totfact>
</mgrwt>
</event>
<event>
 4    1  0.4306168E+000  0.2207599E+03  0.7546771E-02  0.1133318E+00
         21   -1    0    0  501  502  0.00000000000E+00  0.00000000000E+00  0.14598923044E+03  0.14598923044E+03  0.00000000000E+00 0.  1.
         21   -1    0    0  502  503 -0.00000000000E+00 -0.00000000000E+00 -0.33557714279E+03  0.33557714279E+03  0.00000000000E+00 0. -1.
          6    1    1    2  501    0  0.33887498825E+02  0.13288182241E+03 -0.77398279880E+02  0.23393468112E+03  0.17300000000E+03 0. -1.
         -6    1    1    2    0  503 -0.33887498825E+02 -0.13288182241E+03 -0.11218963247E+03  0.24763169211E+03  0.17300000000E+03 0.  1.
<mgrwt>
<rscale>  2 0.22075992E+03</rscale>
<asrwt>0</asrwt>
<pdfrwt beam="1">  1       21 0.22459882E-01 0.22075992E+03</pdfrwt>
<pdfrwt beam="2">  1       21 0.51627252E-01 0.22075992E+03</pdfrwt>
<totfact> 0.65338233E+04</totfact>
</mgrwt>
</event>
<event>
 4    1  0.4306168E+000  0.1830685E+03  0.7546771E-02  0.1164866E+00
         21   -1    0    0  501  502  0.00000000000E+00  0.00000000000E+00  0.26176602231E+02  0.26176602231E+02  0.00000000000E+00 0.  1.
         21   -1    0    0  502  503 -0.00000000000E+00 -0.00000000000E+00 -0.15213407517E+04  0.15213407517E+04  0.00000000000E+00 0.  1.
          6    1    1    2  501    0  0.55971938002E+02  0.21265819148E+02 -0.43959604852E+03  0.47619195582E+03  0.17300000000E+03 0.  1.
         -6    1    1    2    0  503 -0.55971938002E+02 -0.21265819148E+02 -0.10555681009E+04  0.10713253981E+04  0.17300000000E+03 0.  1.
<mgrwt>
<rscale>  2 0.18306855E+03</rscale>
<asrwt>0</asrwt>
<pdfrwt beam="1">  1       21 0.40271687E-02 0.18306855E+03</pdfrwt>
<pdfrwt beam="2">  1       21 0.23405247E+00 0.18306855E+03</pdfrwt>
<totfact> 0.32276276E+04</totfact>
</mgrwt>
</event>
<event>
 4    1  0.4306168E+000  0.1916886E+03  0.7546771E-02  0.1156947E+00
         21   -1    0    0  501  502  0.00000000000E+00  0.00000000000E+00  0.44833240664E+03  0.44833240664E+03  0.00000000000E+00 0. -1.
         21   -1    0    0  502  503 -0.00000000000E+00 -0.00000000000E+00 -0.10220321545E+03  0.10220321545E+03  0.00000000000E+00 0.  1.
          6    1    1    2  501    0  0.24478893488E+02 -0.78843650292E+02  0.29557746694E+03  0.35229331015E+03  0.17300000000E+03 0. -1.
         -6    1    1    2    0  503 -0.24478893488E+02  0.78843650292E+02  0.50551724256E+02  0.19824231194E+03  0.17300000000E+03 0.  1.
<mgrwt>
<rscale>  2 0.19168865E+03</rscale>
<asrwt>0</asrwt>
<pdfrwt beam="1">  1       21 0.68974215E-01 0.19168865E+03</pdfrwt>
<pdfrwt beam="2">  1       21 0.15723572E-01 0.19168865E+03</pdfrwt>
<totfact> 0.68936132E+04</totfact>
</mgrwt>
</event>
<event>
 4    1  0.4306168E+000  0.1953191E+03  0.7546771E-02  0.1153749E+00
         21   -1    0    0  501  502  0.00000000000E+00  0.00000000000E+00  0.10554848005E+03  0.10554848005E+03  0.00000000000E+00 0.  1.
         21   -1    0    0  502  503 -0.00000000000E+00 -0.00000000000E+00 -0.53649764996E+03  0.53649764996E+03  0.00000000000E+00 0.  1.
          6    1    1    2  501    0 -0.70524629617E+02  0.56980932414E+02 -0.32098958885E+02  0.19793911489E+03  0.17300000000E+03 0.  1.
         -6    1    1    2    0  503  0.70524629617E+02 -0.56980932414E+02 -0.39885021102E+03  0.44410701512E+03  0.17300000000E+03 0.  1.
<mgrwt>
<rscale>  2 0.19531910E+03</rscale>
<asrwt>0</asrwt>
<pdfrwt beam="1">  1       21 0.16238228E-01 0.19531910E+03</pdfrwt>
<pdfrwt beam="2">  1       21 0.82538099E-01 0.19531910E+03</pdfrwt>
<totfact> 0.43426231E+04</totfact>
</mgrwt>
</event>
<event>
 4    1  0.4306168E+000  0.1940690E+03  0.7546771E-02  0.1154842E+00
         21   -1    0    0  501  502  0.00000000000E+00  0.00000000000E+00  0.15369320138E+03  0.15369320138E+03  0.00000000000E+00 0. -1.
         21   -1    0    0  502  503 -0.00000000000E+00 -0.00000000000E+00 -0.25488242682E+03  0.25488242682E+03  0.00000000000E+00 0.  1.
          6    1    1    2  501    0 -0.52362811577E+02 -0.70653497428E+02 -0.90715013502E+02  0.21422416859E+03  0.17300000000E+03 0.  1.
         -6    1    1    2    0  503  0.52362811577E+02  0.70653497428E+02 -0.10474211931E+02  0.19435145961E+03  0.17300000000E+03 0. -1.
<mgrwt>
<rscale>  2 0.19406901E+03</rscale>
<asrwt>0</asrwt>
<pdfrwt beam="1">  1       21 0.23645108E-01 0.19406901E+03</pdfrwt>
<pdfrwt beam="2">  1       21 0.39212681E-01 0.19406901E+03</pdfrwt>
<totfact> 0.10554557E+05</totfact>
</mgrwt>
</event>
<event>
 4    1  0.4306168E+000  0.2405436E+03  0.7546771E-02  0.1119431E+00
         21   -1    0    0  501  502  0.00000000000E+00  0.00000000000E+00  0.79804991210E+03  0.79804991210E+03  0.00000000000E+00 0.  1.
         21   -1    0    0  502  503 -0.00000000000E+00 -0.00000000000E+00 -0.79449247267E+02  0.79449247267E+02  0.00000000000E+00 0.  1.
          6    1    1    2  501    0  0.16164036991E+03 -0.42480538827E+02  0.48903002691E+03  0.54498768113E+03  0.17300000000E+03 0.  1.
         -6    1    1    2    0  503 -0.16164036991E+03  0.42480538827E+02  0.22957063792E+03  0.33251147823E+03  0.17300000000E+03 0.  1.
<mgrwt>
<rscale>  2 0.24054356E+03</rscale>
<asrwt>0</asrwt>
<pdfrwt beam="1">  1       21 0.12277690E+00 0.24054356E+03</pdfrwt>
<pdfrwt beam="2">  1       21 0.12222962E-01 0.24054356E+03</pdfrwt>
<totfact> 0.27577455E+04</totfact>
</mgrwt>
</event>
<event>
 4    1  0.4306168E+000  0.1781254E+03  0.7546771E-02  0.1169630E+00
         21   -1    0    0  503  502  0.00000000000E+00  0.00000000000E+00  0.83450301909E+02  0.83450301909E+02  0.00000000000E+00 0.  1.
         21   -1    0    0  501  503 -0.00000000000E+00 -0.00000000000E+00 -0.46288740464E+03  0.46288740464E+03  0.00000000000E+00 0.  1.
          6    1    1    2  501    0  0.41831404621E+02  0.70559550732E+01 -0.30516657070E+03  0.35334867877E+03  0.17300000000E+03 0.  1.
         -6    1    1    2    0  502 -0.41831404621E+02 -0.70559550732E+01 -0.74270532028E+02  0.19298902778E+03  0.17300000000E+03 0.  1.
<mgrwt>
<rscale>  2 0.17812539E+03</rscale>
<asrwt>0</asrwt>
<pdfrwt beam="1">  1       21 0.12838508E-01 0.17812539E+03</pdfrwt>
<pdfrwt beam="2">  1       21 0.71213446E-01 0.17812539E+03</pdfrwt>
<totfact> 0.93279381E+04</totfact>
</mgrwt>
</event>
<event>
 4    1  0.4306168E+000  0.2267144E+03  0.7546771E-02  0.1128974E+00
         21   -1    0    0  503  502  0.00000000000E+00  0.00000000000E+00  0.45920328480E+03  0.45920328480E+03  0.00000000000E+00 0. -1.
         21   -1    0    0  501  503 -0.00000000000E+00 -0.00000000000E+00 -0.28727823379E+03  0.28727823379E+03  0.00000000000E+00 0.  1.
          6    1    1    2  501    0 -0.14475024678E+03  0.22755267411E+02 -0.20563659518E+03  0.30608143592E+03  0.17300000000E+03 0.  1.
         -6    1    1    2    0  502  0.14475024678E+03 -0.22755267411E+02  0.37756164619E+03  0.44040008267E+03  0.17300000000E+03 0. -1.
<mgrwt>
<rscale>  2 0.22671444E+03</rscale>
<asrwt>0</asrwt>
<pdfrwt beam="1">  1       21 0.70646659E-01 0.22671444E+03</pdfrwt>
<pdfrwt beam="2">  1       21 0.44196651E-01 0.22671444E+03</pdfrwt>
<totfact> 0.87247905E+03</totfact>
</mgrwt>
</event>
<event>
 4    1  0.4306168E+000  0.2208598E+03  0.7546771E-02  0.1133244E+00
         21   -1    0    0  501  502  0.00000000000E+00  0.00000000000E+00  0.16453584392E+03  0.16453584392E+03  0.00000000000E+00 0.  1.
         21   -1    0    0  502  503 -0.00000000000E+00 -0.00000000000E+00 -0.15123058847E+04  0.15123058847E+04  0.00000000000E+00 0.  1.
          6    1    1    2  501    0  0.38189993256E+02 -0.13187705460E+03  0.77877588532E+02  0.23418785603E+03  0.17300000000E+03 0.  1.
         -6    1    1    2    0  503 -0.38189993256E+02  0.13187705460E+03 -0.14256476293E+04  0.14426538726E+04  0.17300000000E+03 0.  1.
<mgrwt>
<rscale>  2 0.22085976E+03</rscale>
<asrwt>0</asrwt>
<pdfrwt beam="1">  1       21 0.25313207E-01 0.22085976E+03</pdfrwt>
<pdfrwt beam="2">  1       21 0.23266244E+00 0.22085976E+03</pdfrwt>
<totfact> 0.12081707E+03</totfact>
</mgrwt>
</event>
<event>
 4    1  0.4306168E+000  0.2211806E+03  0.7546771E-02  0.1133006E+00
         21   -1    0    0  501  502  0.00000000000E+00  0.00000000000E+00  0.17198643797E+03  0.17198643797E+03  0.00000000000E+00 0.  1.
         21   -1    0    0  502  503 -0.00000000000E+00 -0.00000000000E+00 -0.28484394120E+03  0.28484394120E+03  0.00000000000E+00 0.  1.
          6    1    1    2  501    0 -0.72069086955E+02  0.11746456388E+03 -0.64964838258E+02  0.23052398416E+03  0.17300000000E+03 0.  1.
         -6    1    1    2    0  503  0.72069086955E+02 -0.11746456388E+03 -0.47892664970E+02  0.22630639501E+03  0.17300000000E+03 0.  1.
<mgrwt>
<rscale>  2 0.22118064E+03</rscale>
<asrwt>0</asrwt>
<pdfrwt beam="1">  1       21 0.26459452E-01 0.22118064E+03</pdfrwt>
<pdfrwt beam="2">  1       21 0.43822145E-01 0.22118064E+03</pdfrwt>
<totfact> 0.67139458E+04</totfact>
</mgrwt>
</event>
<event>
 4    1  0.4306168E+000  0.1980136E+03  0.7546771E-02  0.1151426E+00
         21   -1    0    0  503  502  0.00000000000E+00  0.00000000000E+00  0.47623792814E+02  0.47623792814E+02  0.00000000000E+00 0.  1.
         21   -1    0    0  501  503 -0.00000000000E+00 -0.00000000000E+00 -0.83712877539E+03  0.83712877539E+03  0.00000000000E+00 0. -1.
          6    1    1    2  501    0  0.82207182368E+02 -0.50223272975E+02 -0.33792650990E+03  0.39166787470E+03  0.17300000000E+03 0.  1.
         -6    1    1    2    0  502 -0.82207182368E+02  0.50223272975E+02 -0.45157847267E+03  0.49308469350E+03  0.17300000000E+03 0.  1.
<mgrwt>
<rscale>  2 0.19801363E+03</rscale>
<asrwt>0</asrwt>
<pdfrwt beam="1">  1       21 0.73267376E-02 0.19801363E+03</pdfrwt>
<pdfrwt beam="2">  1       21 0.12878904E+00 0.19801363E+03</pdfrwt>
<totfact> 0.61695940E+04</totfact>
</mgrwt>
</event>
<event>
 4    1  0.4306168E+000  0.1868283E+03  0.7546771E-02  0.1161353E+00
         21   -1    0    0  501  502  0.00000000000E+00  0.00000000000E+00  0.12593837159E+04  0.12593837159E+04  0.00000000000E+00 0.  1.
         21   -1    0    0  502  503 -0.00000000000E+00 -0.00000000000E+00 -0.63454175910E+02  0.63454175910E+02  0.00000000000E+00 0.  1.
          6    1    1    2  501    0 -0.29237272094E+02 -0.64195107630E+02  0.10943443644E+04  0.11101776515E+04  0.17300000000E+03 0.  1.
         -6    1    1    2    0  503  0.29237272094E+02  0.64195107630E+02  0.10158517559E+03  0.21266024034E+03  0.17300000000E+03 0.  1.
<mgrwt>
<rscale>  2 0.18682834E+03</rscale>
<asrwt>0</asrwt>
<pdfrwt beam="1">  1       21 0.19375132E+00 0.18682834E+03</pdfrwt>
<pdfrwt beam="2">  1       21 0.97621818E-02 0.18682834E+03</pdfrwt>
<totfact> 0.12536963E+04</totfact>
</mgrwt>
</event>
<event>
 4    1  0.4306168E+000  0.1923851E+03  0.7546771E-02  0.1156328E+00
         21   -1    0    0  501  502  0.00000000000E+00  0.00000000000E+00  0.11654589475E+03  0.11654589475E+03  0.00000000000E+00 0. -1.
         21   -1    0    0  502  503 -0.00000000000E+00 -0.00000000000E+00 -0.34817689609E+03  0.34817689609E+03  0.00000000000E+00 0.  1.
          6    1    1    2  501    0  0.97977723777E+01 -0.83588440563E+02 -0.46927983723E+02  0.19802590587E+03  0.17300000000E+03 0.  1.
         -6    1    1    2    0  503 -0.97977723777E+01  0.83588440563E+02 -0.18470301761E+03  0.26669688497E+03  0.17300000000E+03 0.  1.
<mgrwt>
<rscale>  2 0.19238509E+03</rscale>
<asrwt>0</asrwt>
<pdfrwt beam="1">  1       21 0.17930138E-01 0.19238509E+03</pdfrwt>
<pdfrwt beam="2">  1       21 0.53565676E-01 0.19238509E+03</pdfrwt>
<totfact> 0.93280904E+04</totfact>
</mgrwt>
</event>
<event>
 4    1  0.4306168E+000  0.2339798E+03  0.7546771E-02  0.1123870E+00
         21   -1    0    0  503  502  0.00000000000E+00  0.00000000000E+00  0.52533856767E+03  0.52533856767E+03  0.00000000000E+00 0. -1.
         21   -1    0    0  501  503 -0.00000000000E+00 -0.00000000000E+00 -0.11032442318E+03  0.11032442318E+03  0.00000000000E+00 0. -1.
          6    1    1    2  501    0 -0.43207726274E+02  0.15149469767E+03  0.13269529797E+03  0.26898809106E+03  0.17300000000E+03 0. -1.
         -6    1    1    2    0  502  0.43207726274E+02 -0.15149469767E+03  0.28231884652E+03  0.36667489979E+03  0.17300000000E+03 0. -1.
<mgrwt>
<rscale>  2 0.23397981E+03</rscale>
<asrwt>0</asrwt>
<pdfrwt beam="1">  1       21 0.80821317E-01 0.23397981E+03</pdfrwt>
<pdfrwt beam="2">  1       21 0.16972988E-01 0.23397981E+03</pdfrwt>
<totfact> 0.41201158E+04</totfact>
</mgrwt>
</event>
<event>
 4    1  0.4306168E+000  0.1792443E+03  0.7546771E-02  0.1168536E+00
         21   -1    0    0  503  502  0.00000000000E+00  0.00000000000E+00  0.10440270990E+03  0.10440270990E+03  0.00000000000E+00 0. -1.
         21   -1    0    0  501  503 -0.00000000000E+00 -0.00000000000E+00 -0.30789299857E+03  0.30789299857E+03  0.00000000000E+00 0.  1.
          6    1    1    2  501    0 -0.24665793328E+02 -0.39888911508E+02 -0.10639250477E+03  0.20844157861E+03  0.17300000000E+03 0.  1.
         -6    1    1    2    0  502  0.24665793328E+02  0.39888911508E+02 -0.97097783908E+02  0.20385412986E+03  0.17300000000E+03 0.  1.
<mgrwt>
<rscale>  2 0.17924432E+03</rscale>
<asrwt>0</asrwt>
<pdfrwt beam="1">  1       21 0.16061956E-01 0.17924432E+03</pdfrwt>
<pdfrwt beam="2">  1       21 0.47368153E-01 0.17924432E+03</pdfrwt>
<totfact> 0.14825291E+05</totfact>
</mgrwt>
</event>
<event>
 4    1  0.4306168E+000  0.1949133E+03  0.7546771E-02  0.1154103E+00
         21   -1    0    0  503  502  0.00000000000E+00  0.00000000000E+00  0.19836804368E+03  0.19836804368E+03  0.00000000000E+00 0. -1.
         21   -1    0    0  501  503 -0.00000000000E+00 -0.00000000000E+00 -0.20486420917E+03  0.20486420917E+03  0.00000000000E+00 0. -1.
          6    1    1    2  501    0 -0.86471836131E+02  0.24183089563E+02 -0.54706798127E+02  0.20244513831E+03  0.17300000000E+03 0. -1.
         -6    1    1    2    0  502  0.86471836131E+02 -0.24183089563E+02  0.48210632641E+02  0.20078711454E+03  0.17300000000E+03 0. -1.
<mgrwt>
<rscale>  2 0.19491331E+03</rscale>
<asrwt>0</asrwt>
<pdfrwt beam="1">  1       21 0.30518161E-01 0.19491331E+03</pdfrwt>
<pdfrwt beam="2">  1       21 0.31517571E-01 0.19491331E+03</pdfrwt>
<totfact> 0.99640182E+04</totfact>
</mgrwt>
</event>
<event>
 4    1  0.4306168E+000  0.3790440E+03  0.7546771E-02  0.1051288E+00
         21   -1    0    0  501  502  0.00000000000E+00  0.00000000000E+00  0.18352387093E+03  0.18352387093E+03  0.00000000000E+00 0. -1.
         21   -1    0    0  502  503 -0.00000000000E+00 -0.00000000000E+00 -0.10855888020E+04  0.10855888020E+04  0.00000000000E+00 0.  1.
          6    1    1    2  501    0 -0.22734288562E+03  0.24911958129E+03 -0.11594280014E+03  0.39637997720E+03  0.17300000000E+03 0. -1.
         -6    1    1    2    0  503  0.22734288562E+03 -0.24911958129E+03 -0.78612213092E+03  0.87273269570E+03  0.17300000000E+03 0.  1.
<mgrwt>
<rscale>  2 0.37904400E+03</rscale>
<asrwt>0</asrwt>
<pdfrwt beam="1">  1       21 0.28234442E-01 0.37904400E+03</pdfrwt>
<pdfrwt beam="2">  1       21 0.16701366E+00 0.37904400E+03</pdfrwt>
<totfact> 0.23690293E+03</totfact>
</mgrwt>
</event>
<event>
 4    1  0.4306168E+000  0.1759397E+03  0.7546771E-02  0.1171791E+00
         21   -1    0    0  503  502  0.00000000000E+00  0.00000000000E+00  0.11311197801E+03  0.11311197801E+03  0.00000000000E+00 0. -1.
         21   -1    0    0  501  503 -0.00000000000E+00 -0.00000000000E+00 -0.27391269097E+03  0.27391269097E+03  0.00000000000E+00 0. -1.
          6    1    1    2  501    0 -0.13060672980E+02  0.29244030377E+02 -0.86218959021E+02  0.19592984302E+03  0.17300000000E+03 0. -1.
         -6    1    1    2    0  502  0.13060672980E+02 -0.29244030377E+02 -0.74581753937E+02  0.19109482597E+03  0.17300000000E+03 0. -1.
<mgrwt>
<rscale>  2 0.17593975E+03</rscale>
<asrwt>0</asrwt>
<pdfrwt beam="1">  1       21 0.17401843E-01 0.17593975E+03</pdfrwt>
<pdfrwt beam="2">  1       21 0.42140414E-01 0.17593975E+03</pdfrwt>
<totfact> 0.16279923E+05</totfact>
</mgrwt>
</event>
<event>
 4    1  0.4306168E+000  0.2096221E+03  0.7546771E-02  0.1141866E+00
         21   -1    0    0  501  502  0.00000000000E+00  0.00000000000E+00  0.61509006234E+03  0.61509006234E+03  0.00000000000E+00 0.  1.
         21   -1    0    0  502  503 -0.00000000000E+00 -0.00000000000E+00 -0.11855606450E+03  0.11855606450E+03  0.00000000000E+00 0.  1.
          6    1    1    2  501    0  0.11768521230E+03 -0.12752726748E+02  0.47951803752E+03  0.52333449107E+03  0.17300000000E+03 0.  1.
         -6    1    1    2    0  503 -0.11768521230E+03  0.12752726748E+02  0.17015960317E+02  0.21031163577E+03  0.17300000000E+03 0.  1.
<mgrwt>
<rscale>  2 0.20962214E+03</rscale>
<asrwt>0</asrwt>
<pdfrwt beam="1">  1       21 0.94629239E-01 0.20962214E+03</pdfrwt>
<pdfrwt beam="2">  1       21 0.18239395E-01 0.20962214E+03</pdfrwt>
<totfact> 0.25360915E+04</totfact>
</mgrwt>
</event>
<event>
 4    1  0.4306168E+000  0.1823571E+03  0.7546771E-02  0.1165541E+00
         21   -1    0    0  503  502  0.00000000000E+00  0.00000000000E+00  0.63777499150E+03  0.63777499150E+03  0.00000000000E+00 0. -1.
         21   -1    0    0  501  503 -0.00000000000E+00 -0.00000000000E+00 -0.86749256861E+02  0.86749256861E+02  0.00000000000E+00 0.  1.
          6    1    1    2  501    0 -0.20245813547E+02 -0.53992865677E+02  0.46699745223E+02  0.18824183572E+03  0.17300000000E+03 0.  1.
         -6    1    1    2    0  502  0.20245813547E+02  0.53992865677E+02  0.50432598942E+03  0.53628241265E+03  0.17300000000E+03 0. -1.
<mgrwt>
<rscale>  2 0.18235713E+03</rscale>
<asrwt>0</asrwt>
<pdfrwt beam="1">  1       21 0.98119227E-01 0.18235713E+03</pdfrwt>
<pdfrwt beam="2">  1       21 0.13346040E-01 0.18235713E+03</pdfrwt>
<totfact> 0.41849907E+04</totfact>
</mgrwt>
</event>
<event>
 4    1  0.4306168E+000  0.2568771E+03  0.7546771E-02  0.1109034E+00
         21   -1    0    0  503  502  0.00000000000E+00  0.00000000000E+00  0.14476872997E+04  0.14476872997E+04  0.00000000000E+00 0.  1.
         21   -1    0    0  501  503 -0.00000000000E+00 -0.00000000000E+00 -0.16085343520E+03  0.16085343520E+03  0.00000000000E+00 0.  1.
          6    1    1    2  501    0  0.18987182891E+03  0.23569834155E+01 -0.37432612831E+02  0.25959019105E+03  0.17300000000E+03 0.  1.
         -6    1    1    2    0  502 -0.18987182891E+03 -0.23569834155E+01  0.13242664773E+04  0.13489505439E+04  0.17300000000E+03 0.  1.
<mgrwt>
<rscale>  2 0.25687714E+03</rscale>
<asrwt>0</asrwt>
<pdfrwt beam="1">  1       21 0.22272111E+00 0.25687714E+03</pdfrwt>
<pdfrwt beam="2">  1       21 0.24746683E-01 0.25687714E+03</pdfrwt>
<totfact> 0.14033050E+03</totfact>
</mgrwt>
</event>
<event>
 4    1  0.4306168E+000  0.1972976E+03  0.7546771E-02  0.1152039E+00
         21   -1    0    0  501  502  0.00000000000E+00  0.00000000000E+00  0.29102745100E+02  0.29102745100E+02  0.00000000000E+00 0.  1.
         21   -1    0    0  502  503 -0.00000000000E+00 -0.00000000000E+00 -0.20403564104E+04  0.20403564104E+04  0.00000000000E+00 0.  1.
          6    1    1    2  501    0  0.81231423024E+02  0.48977549256E+02 -0.39834254454E+03  0.44452573290E+03  0.17300000000E+03 0.  1.
         -6    1    1    2    0  503 -0.81231423024E+02 -0.48977549256E+02 -0.16129111207E+04  0.16249334226E+04  0.17300000000E+03 0.  1.
<mgrwt>
<rscale>  2 0.19729760E+03</rscale>
<asrwt>0</asrwt>
<pdfrwt beam="1">  1       21 0.44773458E-02 0.19729760E+03</pdfrwt>
<pdfrwt beam="2">  1       21 0.31390096E+00 0.19729760E+03</pdfrwt>
<totfact> 0.91549152E+03</totfact>
</mgrwt>
</event>
<event>
 4    1  0.4306168E+000  0.1765003E+03  0.7546771E-02  0.1171234E+00
         21   -1    0    0  503  502  0.00000000000E+00  0.00000000000E+00  0.41112269242E+03  0.41112269242E+03  0.00000000000E+00 0.  1.
         21   -1    0    0  501  503 -0.00000000000E+00 -0.00000000000E+00 -0.81586716435E+02  0.81586716435E+02  0.00000000000E+00 0.  1.
          6    1    1    2  501    0 -0.37422614543E+01  0.34775664333E+02  0.99010364117E+02  0.20237441428E+03  0.17300000000E+03 0. -1.
         -6    1    1    2    0  502  0.37422614543E+01 -0.34775664333E+02  0.23052561187E+03  0.29033499458E+03  0.17300000000E+03 0. -1.
<mgrwt>
<rscale>  2 0.17650029E+03</rscale>
<asrwt>0</asrwt>
<pdfrwt beam="1">  1       21 0.63249644E-01 0.17650029E+03</pdfrwt>
<pdfrwt beam="2">  1       21 0.12551803E-01 0.17650029E+03</pdfrwt>
<totfact> 0.12592619E+05</totfact>
</mgrwt>
</event>
<event>
 4    1  0.4306168E+000  0.2856880E+03  0.7546771E-02  0.1092622E+00
         21   -1    0    0  501  502  0.00000000000E+00  0.00000000000E+00  0.21703765037E+03  0.21703765037E+03  0.00000000000E+00 0. -1.
         21   -1    0    0  502  503 -0.00000000000E+00 -0.00000000000E+00 -0.38042973797E+03  0.38042973797E+03  0.00000000000E+00 0. -1.
          6    1    1    2  501    0 -0.19781853060E+03  0.11205551089E+03 -0.49652989591E+02  0.28997073636E+03  0.17300000000E+03 0. -1.
         -6    1    1    2    0  503  0.19781853060E+03 -0.11205551089E+03 -0.11373909801E+03  0.30749665199E+03  0.17300000000E+03 0. -1.
<mgrwt>
<rscale>  2 0.28568796E+03</rscale>
<asrwt>0</asrwt>
<pdfrwt beam="1">  1       21 0.33390408E-01 0.28568796E+03</pdfrwt>
<pdfrwt beam="2">  1       21 0.58527651E-01 0.28568796E+03</pdfrwt>
<totfact> 0.22542741E+04</totfact>
</mgrwt>
</event>
<event>
 4    1  0.4306168E+000  0.2497174E+03  0.7546771E-02  0.1113484E+00
         21   -1    0    0  501  502  0.00000000000E+00  0.00000000000E+00  0.19094478558E+03  0.19094478558E+03  0.00000000000E+00 0.  1.
         21   -1    0    0  502  503 -0.00000000000E+00 -0.00000000000E+00 -0.35691262152E+03  0.35691262152E+03  0.00000000000E+00 0.  1.
          6    1    1    2  501    0  0.23447731148E+02  0.17854965229E+03 -0.16284047355E+03  0.29812043582E+03  0.17300000000E+03 0.  1.
         -6    1    1    2    0  503 -0.23447731148E+02 -0.17854965229E+03 -0.31273623959E+01  0.24973697128E+03  0.17300000000E+03 0.  1.
<mgrwt>
<rscale>  2 0.24971739E+03</rscale>
<asrwt>0</asrwt>
<pdfrwt beam="1">  1       21 0.29376121E-01 0.24971739E+03</pdfrwt>
<pdfrwt beam="2">  1       21 0.54909633E-01 0.24971739E+03</pdfrwt>
<totfact> 0.33792015E+04</totfact>
</mgrwt>
</event>
<event>
 4    1  0.4306168E+000  0.1967827E+03  0.7546771E-02  0.1152482E+00
         21   -1    0    0  501  502  0.00000000000E+00  0.00000000000E+00  0.17430472230E+03  0.17430472230E+03  0.00000000000E+00 0. -1.
         21   -1    0    0  502  503 -0.00000000000E+00 -0.00000000000E+00 -0.46117465338E+03  0.46117465338E+03  0.00000000000E+00 0. -1.
          6    1    1    2  501    0 -0.85279733955E+02 -0.39010188886E+02  0.85310020082E+02  0.21447896724E+03  0.17300000000E+03 0. -1.
         -6    1    1    2    0  503  0.85279733955E+02  0.39010188886E+02 -0.37217995116E+03  0.42100040844E+03  0.17300000000E+03 0. -1.
<mgrwt>
<rscale>  2 0.19678269E+03</rscale>
<asrwt>0</asrwt>
<pdfrwt beam="1">  1       21 0.26816112E-01 0.19678269E+03</pdfrwt>
<pdfrwt beam="2">  1       21 0.70949944E-01 0.19678269E+03</pdfrwt>
<totfact> 0.23760225E+04</totfact>
</mgrwt>
</event>
<event>
 4    1  0.4306168E+000  0.1894394E+03  0.7546771E-02  0.1158968E+00
         21   -1    0    0  503  502  0.00000000000E+00  0.00000000000E+00  0.35841351265E+03  0.35841351265E+03  0.00000000000E+00 0. -1.
         21   -1    0    0  501  503 -0.00000000000E+00 -0.00000000000E+00 -0.22329181246E+03  0.22329181246E+03  0.00000000000E+00 0. -1.
          6    1    1    2  501    0 -0.12382438231E+02  0.76190178444E+02 -0.14845121564E+03  0.24067619636E+03  0.17300000000E+03 0. -1.
         -6    1    1    2    0  502  0.12382438231E+02 -0.76190178444E+02  0.28357291583E+03  0.34102912875E+03  0.17300000000E+03 0. -1.
<mgrwt>
<rscale>  2 0.18943935E+03</rscale>
<asrwt>0</asrwt>
<pdfrwt beam="1">  1       21 0.55140541E-01 0.18943935E+03</pdfrwt>
<pdfrwt beam="2">  1       21 0.34352586E-01 0.18943935E+03</pdfrwt>
<totfact> 0.25380574E+04</totfact>
</mgrwt>
</event>
<event>
 4    1  0.4306168E+000  0.1803221E+03  0.7546771E-02  0.1167492E+00
         21   -1    0    0  503  502  0.00000000000E+00  0.00000000000E+00  0.26091717931E+03  0.26091717931E+03  0.00000000000E+00 0. -1.
         21   -1    0    0  501  503 -0.00000000000E+00 -0.00000000000E+00 -0.13469875827E+03  0.13469875827E+03  0.00000000000E+00 0. -1.
          6    1    1    2  501    0  0.18744311359E+02  0.47283360772E+02  0.90065382923E+01  0.18054690013E+03  0.17300000000E+03 0. -1.
         -6    1    1    2    0  502 -0.18744311359E+02 -0.47283360772E+02  0.11721188274E+03  0.21506903745E+03  0.17300000000E+03 0. -1.
<mgrwt>
<rscale>  2 0.18032212E+03</rscale>
<asrwt>0</asrwt>
<pdfrwt beam="1">  1       21 0.40141104E-01 0.18032212E+03</pdfrwt>
<pdfrwt beam="2">  1       21 0.20722886E-01 0.18032212E+03</pdfrwt>
<totfact> 0.12972678E+05</totfact>
</mgrwt>
</event>
<event>
 4    1  0.4306168E+000  0.1837459E+03  0.7546771E-02  0.1164226E+00
         21   -1    0    0  503  502  0.00000000000E+00  0.00000000000E+00  0.12183201033E+03  0.12183201033E+03  0.00000000000E+00 0. -1.
         21   -1    0    0  501  503 -0.00000000000E+00 -0.00000000000E+00 -0.28218505386E+03  0.28218505386E+03  0.00000000000E+00 0. -1.
          6    1    1    2  501    0 -0.16592854684E+02  0.59650987482E+02 -0.10723024399E+03  0.21274606544E+03  0.17300000000E+03 0. -1.
         -6    1    1    2    0  502  0.16592854684E+02 -0.59650987482E+02 -0.53122799539E+02  0.19127099876E+03  0.17300000000E+03 0. -1.
<mgrwt>
<rscale>  2 0.18374592E+03</rscale>
<asrwt>0</asrwt>
<pdfrwt beam="1">  1       21 0.18743386E-01 0.18374592E+03</pdfrwt>
<pdfrwt beam="2">  1       21 0.43413085E-01 0.18374592E+03</pdfrwt>
<totfact> 0.13325291E+05</totfact>
</mgrwt>
</event>
<event>
 4    1  0.4306168E+000  0.2247212E+03  0.7546771E-02  0.1130411E+00
         21   -1    0    0  501  502  0.00000000000E+00  0.00000000000E+00  0.20512330073E+03  0.20512330073E+03  0.00000000000E+00 0.  1.
         21   -1    0    0  502  503 -0.00000000000E+00 -0.00000000000E+00 -0.44673424472E+03  0.44673424472E+03  0.00000000000E+00 0. -1.
          6    1    1    2  501    0  0.11714431819E+03  0.82751554498E+02  0.97568848659E+02  0.24498834928E+03  0.17300000000E+03 0.  1.
         -6    1    1    2    0  503 -0.11714431819E+03 -0.82751554498E+02 -0.33917979265E+03  0.40686919617E+03  0.17300000000E+03 0. -1.
<mgrwt>
<rscale>  2 0.22472119E+03</rscale>
<asrwt>0</asrwt>
<pdfrwt beam="1">  1       21 0.31557431E-01 0.22472119E+03</pdfrwt>
<pdfrwt beam="2">  1       21 0.68728344E-01 0.22472119E+03</pdfrwt>
<totfact> 0.18272183E+04</totfact>
</mgrwt>
</event>
<event>
 4    1  0.4306168E+000  0.3112835E+03  0.7546771E-02  0.1079732E+00
         21   -1    0    0  503  502  0.00000000000E+00  0.00000000000E+00  0.20714384356E+03  0.20714384356E+03  0.00000000000E+00 0.  1.
         21   -1    0    0  501  503 -0.00000000000E+00 -0.00000000000E+00 -0.47050002108E+03  0.47050002108E+03  0.00000000000E+00 0. -1.
          6    1    1    2  501    0 -0.25480243783E+03  0.45211860938E+02 -0.10590813641E+03  0.32880682483E+03  0.17300000000E+03 0. -1.
         -6    1    1    2    0  502  0.25480243783E+03 -0.45211860938E+02 -0.15744804111E+03  0.34883703981E+03  0.17300000000E+03 0.  1.
<mgrwt>
<rscale>  2 0.31128346E+03</rscale>
<asrwt>0</asrwt>
<pdfrwt beam="1">  1       21 0.31868284E-01 0.31128346E+03</pdfrwt>
<pdfrwt beam="2">  1       21 0.72384618E-01 0.31128346E+03</pdfrwt>
<totfact> 0.15332016E+04</totfact>
</mgrwt>
</event>
<event>
 4    1  0.4306168E+000  0.2413445E+03  0.7546771E-02  0.1118900E+00
         21   -1    0    0  501  502  0.00000000000E+00  0.00000000000E+00  0.22671526008E+03  0.22671526008E+03  0.00000000000E+00 0. -1.
         21   -1    0    0  502  503 -0.00000000000E+00 -0.00000000000E+00 -0.34201953774E+03  0.34201953774E+03  0.00000000000E+00 0. -1.
          6    1    1    2  501    0  0.23576752900E+02 -0.16662028298E+03  0.84195988097E+02  0.25560936287E+03  0.17300000000E+03 0. -1.
         -6    1    1    2    0  503 -0.23576752900E+02  0.16662028298E+03 -0.19950026575E+03  0.31312543495E+03  0.17300000000E+03 0. -1.
<mgrwt>
<rscale>  2 0.24134453E+03</rscale>
<asrwt>0</asrwt>
<pdfrwt beam="1">  1       21 0.34879271E-01 0.24134453E+03</pdfrwt>
<pdfrwt beam="2">  1       21 0.52618390E-01 0.24134453E+03</pdfrwt>
<totfact> 0.26448667E+04</totfact>
</mgrwt>
</event>
<event>
 4    1  0.4306168E+000  0.1840494E+03  0.7546771E-02  0.1163941E+00
         21   -1    0    0  501  502  0.00000000000E+00  0.00000000000E+00  0.49250643333E+03  0.49250643333E+03  0.00000000000E+00 0.  1.
         21   -1    0    0  502  503 -0.00000000000E+00 -0.00000000000E+00 -0.91937726697E+02  0.91937726697E+02  0.00000000000E+00 0. -1.
          6    1    1    2  501    0 -0.50143993023E+02  0.37825554488E+02  0.34694774444E+03  0.39274282932E+03  0.17300000000E+03 0.  1.
         -6    1    1    2    0  503  0.50143993023E+02 -0.37825554488E+02  0.53620962191E+02  0.19170133071E+03  0.17300000000E+03 0. -1.
<mgrwt>
<rscale>  2 0.18404943E+03</rscale>
<asrwt>0</asrwt>
<pdfrwt beam="1">  1       21 0.75770219E-01 0.18404943E+03</pdfrwt>
<pdfrwt beam="2">  1       21 0.14144266E-01 0.18404943E+03</pdfrwt>
<totfact> 0.68083598E+04</totfact>
</mgrwt>
</event>
<event>
 4    1  0.4306168E+000  0.1780365E+03  0.7546771E-02  0.1169717E+00
         21   -1    0    0  503  502  0.00000000000E+00  0.00000000000E+00  0.12281913037E+03  0.12281913037E+03  0.00000000000E+00 0. -1.
         21   -1    0    0  501  503 -0.00000000000E+00 -0.00000000000E+00 -0.30567728656E+03  0.30567728656E+03  0.00000000000E+00 0. -1.
          6    1    1    2  501    0 -0.12442096093E+00  0.42047290531E+02 -0.17597313137E+03  0.25032685251E+03  0.17300000000E+03 0. -1.
         -6    1    1    2    0  502  0.12442096093E+00 -0.42047290531E+02 -0.68850248221E+01  0.17816956443E+03  0.17300000000E+03 0. -1.
<mgrwt>
<rscale>  2 0.17803649E+03</rscale>
<asrwt>0</asrwt>
<pdfrwt beam="1">  1       21 0.18895251E-01 0.17803649E+03</pdfrwt>
<pdfrwt beam="2">  1       21 0.47027274E-01 0.17803649E+03</pdfrwt>
<totfact> 0.11163816E+05</totfact>
</mgrwt>
</event>
<event>
 4    1  0.4306168E+000  0.1893126E+03  0.7546771E-02  0.1159083E+00
         21   -1    0    0  501  502  0.00000000000E+00  0.00000000000E+00  0.41863646283E+03  0.41863646283E+03  0.00000000000E+00 0.  1.
         21   -1    0    0  502  503 -0.00000000000E+00 -0.00000000000E+00 -0.14587836185E+03  0.14587836185E+03  0.00000000000E+00 0.  1.
          6    1    1    2  501    0 -0.56894261192E+02 -0.51704163228E+02  0.31780368079E+03  0.36991682440E+03  0.17300000000E+03 0.  1.
         -6    1    1    2    0  503  0.56894261192E+02  0.51704163228E+02 -0.45045579810E+02  0.19459800028E+03  0.17300000000E+03 0.  1.
<mgrwt>
<rscale>  2 0.18931264E+03</rscale>
<asrwt>0</asrwt>
<pdfrwt beam="1">  1       21 0.64405609E-01 0.18931264E+03</pdfrwt>
<pdfrwt beam="2">  1       21 0.22442825E-01 0.18931264E+03</pdfrwt>
<totfact> 0.41405693E+04</totfact>
</mgrwt>
</event>
<event>
 4    1  0.4306168E+000  0.1760409E+03  0.7546771E-02  0.1171691E+00
         21   -1    0    0  503  502  0.00000000000E+00  0.00000000000E+00  0.68347885910E+03  0.68347885910E+03  0.00000000000E+00 0.  1.
         21   -1    0    0  501  503 -0.00000000000E+00 -0.00000000000E+00 -0.14706839910E+03  0.14706839910E+03  0.00000000000E+00 0.  1.
          6    1    1    2  501    0 -0.19195608724E+02 -0.26323374934E+02 -0.77170022947E+02  0.19221239269E+03  0.17300000000E+03 0.  1.
         -6    1    1    2    0  502  0.19195608724E+02  0.26323374934E+02  0.61358048295E+03  0.63833486550E+03  0.17300000000E+03 0.  1.
<mgrwt>
<rscale>  2 0.17604088E+03</rscale>
<asrwt>0</asrwt>
<pdfrwt beam="1">  1       21 0.10515059E+00 0.17604088E+03</pdfrwt>
<pdfrwt beam="2">  1       21 0.22625908E-01 0.17604088E+03</pdfrwt>
<totfact> 0.13481733E+04</totfact>
</mgrwt>
</event>
<event>
 4    1  0.4306168E+000  0.1841103E+03  0.7546771E-02  0.1163883E+00
         21   -1    0    0  501  502  0.00000000000E+00  0.00000000000E+00  0.11228155474E+03  0.11228155474E+03  0.00000000000E+00 0. -1.
         21   -1    0    0  502  503 -0.00000000000E+00 -0.00000000000E+00 -0.81226440339E+03  0.81226440339E+03  0.00000000000E+00 0. -1.
          6    1    1    2  501    0 -0.33816316350E+02 -0.53141729179E+02  0.16441584843E+02  0.18484293966E+03  0.17300000000E+03 0. -1.
         -6    1    1    2    0  503  0.33816316350E+02  0.53141729179E+02 -0.71642443349E+03  0.73970301847E+03  0.17300000000E+03 0. -1.
<mgrwt>
<rscale>  2 0.18411026E+03</rscale>
<asrwt>0</asrwt>
<pdfrwt beam="1">  1       21 0.17274085E-01 0.18411026E+03</pdfrwt>
<pdfrwt beam="2">  1       21 0.12496376E+00 0.18411026E+03</pdfrwt>
<totfact> 0.14544729E+04</totfact>
</mgrwt>
</event>
<event>
 4    1  0.4306168E+000  0.2066426E+03  0.7546771E-02  0.1144253E+00
         21   -1    0    0  501  502  0.00000000000E+00  0.00000000000E+00  0.44893313063E+03  0.44893313063E+03  0.00000000000E+00 0.  1.
         21   -1    0    0  502  503 -0.00000000000E+00 -0.00000000000E+00 -0.20147992656E+03  0.20147992656E+03  0.00000000000E+00 0.  1.
          6    1    1    2  501    0 -0.47006367814E+01  0.11291628891E+03  0.36001285190E+03  0.41510292437E+03  0.17300000000E+03 0.  1.
         -6    1    1    2    0  503  0.47006367814E+01 -0.11291628891E+03 -0.11255964783E+03  0.23531013282E+03  0.17300000000E+03 0.  1.
<mgrwt>
<rscale>  2 0.20664265E+03</rscale>
<asrwt>0</asrwt>
<pdfrwt beam="1">  1       21 0.69066635E-01 0.20664265E+03</pdfrwt>
<pdfrwt beam="2">  1       21 0.30996912E-01 0.20664265E+03</pdfrwt>
<totfact> 0.18917997E+04</totfact>
</mgrwt>
</event>
<event>
 4    1  0.4306168E+000  0.2285445E+03  0.7546771E-02  0.1127668E+00
         21   -1    0    0  503  502  0.00000000000E+00  0.00000000000E+00  0.91057931296E+03  0.91057931296E+03  0.00000000000E+00 0. -1.
         21   -1    0    0  501  503 -0.00000000000E+00 -0.00000000000E+00 -0.78877595171E+02  0.78877595171E+02  0.00000000000E+00 0.  1.
          6    1    1    2  501    0  0.12571143983E+03 -0.80623991453E+02  0.15746581820E+03  0.27753932695E+03  0.17300000000E+03 0.  1.
         -6    1    1    2    0  502 -0.12571143983E+03  0.80623991453E+02  0.67423589959E+03  0.71191758118E+03  0.17300000000E+03 0. -1.
<mgrwt>
<rscale>  2 0.22854451E+03</rscale>
<asrwt>0</asrwt>
<pdfrwt beam="1">  1       21 0.14008912E+00 0.22854451E+03</pdfrwt>
<pdfrwt beam="2">  1       21 0.12135015E-01 0.22854451E+03</pdfrwt>
<totfact> 0.20089351E+04</totfact>
</mgrwt>
</event>
<event>
 4    1  0.4306168E+000  0.2762385E+03  0.7546771E-02  0.1097761E+00
         21   -1    0    0  501  502  0.00000000000E+00  0.00000000000E+00  0.13864514999E+04  0.13864514999E+04  0.00000000000E+00 0.  1.
         21   -1    0    0  502  503 -0.00000000000E+00 -0.00000000000E+00 -0.75600179456E+02  0.75600179456E+02  0.00000000000E+00 0. -1.
          6    1    1    2  501    0 -0.17156866569E+03  0.13016490436E+03  0.10366708978E+04  0.10728440053E+04  0.17300000000E+03 0.  1.
         -6    1    1    2    0  503  0.17156866569E+03 -0.13016490436E+03  0.27418042261E+03  0.38920767402E+03  0.17300000000E+03 0. -1.
<mgrwt>
<rscale>  2 0.27623850E+03</rscale>
<asrwt>0</asrwt>
<pdfrwt beam="1">  1       21 0.21330021E+00 0.27623850E+03</pdfrwt>
<pdfrwt beam="2">  1       21 0.11630798E-01 0.27623850E+03</pdfrwt>
<totfact> 0.64325082E+03</totfact>
</mgrwt>
</event>
<event>
 4    1  0.4306168E+000  0.1951075E+03  0.7546771E-02  0.1153934E+00
         21   -1    0    0  501  502  0.00000000000E+00  0.00000000000E+00  0.19944561640E+03  0.19944561640E+03  0.00000000000E+00 0.  1.
         21   -1    0    0  502  503 -0.00000000000E+00 -0.00000000000E+00 -0.21422718286E+03  0.21422718286E+03  0.00000000000E+00 0.  1.
          6    1    1    2  501    0 -0.75173341272E+02 -0.49868708171E+02  0.60915222921E+02  0.20439565474E+03  0.17300000000E+03 0.  1.
         -6    1    1    2    0  503  0.75173341272E+02  0.49868708171E+02 -0.75696789380E+02  0.20927714451E+03  0.17300000000E+03 0.  1.
<mgrwt>
<rscale>  2 0.19510746E+03</rscale>
<asrwt>0</asrwt>
<pdfrwt beam="1">  1       21 0.30683941E-01 0.19510746E+03</pdfrwt>
<pdfrwt beam="2">  1       21 0.32958028E-01 0.19510746E+03</pdfrwt>
<totfact> 0.90291527E+04</totfact>
</mgrwt>
</event>
<event>
 4    1  0.4306168E+000  0.2276254E+03  0.7546771E-02  0.1128322E+00
         21   -1    0    0  503  502  0.00000000000E+00  0.00000000000E+00  0.11900136556E+04  0.11900136556E+04  0.00000000000E+00 0.  1.
         21   -1    0    0  501  503 -0.00000000000E+00 -0.00000000000E+00 -0.11709034219E+03  0.11709034219E+03  0.00000000000E+00 0. -1.
          6    1    1    2  501    0 -0.28718178908E+02  0.14511921700E+03  0.18483262476E+02  0.22837458688E+03  0.17300000000E+03 0. -1.
         -6    1    1    2    0  502  0.28718178908E+02 -0.14511921700E+03  0.10544400509E+04  0.10787294109E+04  0.17300000000E+03 0.  1.
<mgrwt>
<rscale>  2 0.22762540E+03</rscale>
<asrwt>0</asrwt>
<pdfrwt beam="1">  1       21 0.18307902E+00 0.22762540E+03</pdfrwt>
<pdfrwt beam="2">  1       21 0.18013900E-01 0.22762540E+03</pdfrwt>
<totfact> 0.47195870E+03</totfact>
</mgrwt>
</event>
<event>
 4    1  0.4306168E+000  0.1879188E+03  0.7546771E-02  0.1160352E+00
         21   -1    0    0  503  502  0.00000000000E+00  0.00000000000E+00  0.25566707042E+03  0.25566707042E+03  0.00000000000E+00 0. -1.
         21   -1    0    0  501  503 -0.00000000000E+00 -0.00000000000E+00 -0.27142663178E+03  0.27142663178E+03  0.00000000000E+00 0.  1.
          6    1    1    2  501    0  0.45466189271E+02  0.57596025557E+02 -0.19257376952E+03  0.26906901203E+03  0.17300000000E+03 0.  1.
         -6    1    1    2    0  502 -0.45466189271E+02 -0.57596025557E+02  0.17681420816E+03  0.25802469017E+03  0.17300000000E+03 0. -1.
<mgrwt>
<rscale>  2 0.18791880E+03</rscale>
<asrwt>0</asrwt>
<pdfrwt beam="1">  1       21 0.39333395E-01 0.18791880E+03</pdfrwt>
<pdfrwt beam="2">  1       21 0.41757943E-01 0.18791880E+03</pdfrwt>
<totfact> 0.34485962E+04</totfact>
</mgrwt>
</event>
<event>
 4    1  0.4306168E+000  0.2669653E+03  0.7546771E-02  0.1103029E+00
         21   -1    0    0  501  502  0.00000000000E+00  0.00000000000E+00  0.81700176198E+03  0.81700176198E+03  0.00000000000E+00 0. -1.
         21   -1    0    0  502  503 -0.00000000000E+00 -0.00000000000E+00 -0.91964933556E+02  0.91964933556E+02  0.00000000000E+00 0.  1.
          6    1    1    2  501    0  0.15341994820E+00 -0.20332593033E+03  0.46559812767E+03  0.53670482947E+03  0.17300000000E+03 0. -1.
         -6    1    1    2    0  503 -0.15341994820E+00  0.20332593033E+03  0.25943870075E+03  0.37226186607E+03  0.17300000000E+03 0.  1.
<mgrwt>
<rscale>  2 0.26696527E+03</rscale>
<asrwt>0</asrwt>
<pdfrwt beam="1">  1       21 0.12569257E+00 0.26696527E+03</pdfrwt>
<pdfrwt beam="2">  1       21 0.14148452E-01 0.26696527E+03</pdfrwt>
<totfact> 0.19678114E+04</totfact>
</mgrwt>
</event>
<event>
 4    1  0.4306168E+000  0.2300378E+03  0.7546771E-02  0.1126613E+00
         21   -1    0    0  501  502  0.00000000000E+00  0.00000000000E+00  0.27016142738E+02  0.27016142738E+02  0.00000000000E+00 0. -1.
         21   -1    0    0  502  503 -0.00000000000E+00 -0.00000000000E+00 -0.21630270663E+04  0.21630270663E+04  0.00000000000E+00 0. -1.
          6    1    1    2  501    0 -0.50427968291E+02 -0.14298744195E+03 -0.73147805124E+03  0.76679692747E+03  0.17300000000E+03 0. -1.
         -6    1    1    2    0  503  0.50427968291E+02  0.14298744195E+03 -0.14045328723E+04  0.14232462815E+04  0.17300000000E+03 0. -1.
<mgrwt>
<rscale>  2 0.23003780E+03</rscale>
<asrwt>0</asrwt>
<pdfrwt beam="1">  1       21 0.41563295E-02 0.23003780E+03</pdfrwt>
<pdfrwt beam="2">  1       21 0.33277341E+00 0.23003780E+03</pdfrwt>
<totfact> 0.77811303E+03</totfact>
</mgrwt>
</event>
<event>
 4    1  0.4306168E+000  0.2639694E+03  0.7546771E-02  0.1104782E+00
         21   -1    0    0  503  502  0.00000000000E+00  0.00000000000E+00  0.78293093556E+03  0.78293093556E+03  0.00000000000E+00 0. -1.
         21   -1    0    0  501  503 -0.00000000000E+00 -0.00000000000E+00 -0.97673628010E+02  0.97673628010E+02  0.00000000000E+00 0.  1.
          6    1    1    2  501    0 -0.18868029792E+03  0.64425073348E+02  0.21141020055E+03  0.33819242717E+03  0.17300000000E+03 0.  1.
         -6    1    1    2    0  502  0.18868029792E+03 -0.64425073348E+02  0.47384710700E+03  0.54241213640E+03  0.17300000000E+03 0. -1.
<mgrwt>
<rscale>  2 0.26396940E+03</rscale>
<asrwt>0</asrwt>
<pdfrwt beam="1">  1       21 0.12045091E+00 0.26396940E+03</pdfrwt>
<pdfrwt beam="2">  1       21 0.15026713E-01 0.26396940E+03</pdfrwt>
<totfact> 0.19650830E+04</totfact>
</mgrwt>
</event>
<event>
 4    1  0.4306168E+000  0.1750810E+03  0.7546771E-02  0.1172650E+00
         21   -1    0    0  503  502  0.00000000000E+00  0.00000000000E+00  0.58176465557E+03  0.58176465557E+03  0.00000000000E+00 0.  1.
         21   -1    0    0  501  503 -0.00000000000E+00 -0.00000000000E+00 -0.56618739806E+02  0.56618739806E+02  0.00000000000E+00 0.  1.
          6    1    1    2  501    0 -0.17664638446E+00  0.26913334568E+02  0.17849520297E+03  0.25002779099E+03  0.17300000000E+03 0.  1.
         -6    1    1    2    0  502  0.17664638446E+00 -0.26913334568E+02  0.34665071279E+03  0.38835560439E+03  0.17300000000E+03 0.  1.
<mgrwt>
<rscale>  2 0.17508101E+03</rscale>
<asrwt>0</asrwt>
<pdfrwt beam="1">  1       21 0.89502251E-01 0.17508101E+03</pdfrwt>
<pdfrwt beam="2">  1       21 0.87105758E-02 0.17508101E+03</pdfrwt>
<totfact> 0.11083655E+05</totfact>
</mgrwt>
</event>
<event>
 4    1  0.4306168E+000  0.2698229E+03  0.7546771E-02  0.1101381E+00
         21   -1    0    0  503  502  0.00000000000E+00  0.00000000000E+00  0.10525525579E+04  0.10525525579E+04  0.00000000000E+00 0. -1.
         21   -1    0    0  501  503 -0.00000000000E+00 -0.00000000000E+00 -0.12148450339E+03  0.12148450339E+03  0.00000000000E+00 0.  1.
          6    1    1    2  501    0  0.36001337756E+02  0.20390998211E+03  0.80317317208E+02  0.28152308709E+03  0.17300000000E+03 0.  1.
         -6    1    1    2    0  502 -0.36001337756E+02 -0.20390998211E+03  0.85075073732E+03  0.89251397422E+03  0.17300000000E+03 0. -1.
<mgrwt>
<rscale>  2 0.26982286E+03</rscale>
<asrwt>0</asrwt>
<pdfrwt beam="1">  1       21 0.16193116E+00 0.26982286E+03</pdfrwt>
<pdfrwt beam="2">  1       21 0.18689924E-01 0.26982286E+03</pdfrwt>
<totfact> 0.60354849E+03</totfact>
</mgrwt>
</event>
<event>
 4    1  0.4306168E+000  0.2495729E+03  0.7546771E-02  0.1113575E+00
         21   -1    0    0  503  502  0.00000000000E+00  0.00000000000E+00  0.89950943510E+02  0.89950943510E+02  0.00000000000E+00 0.  1.
         21   -1    0    0  501  503 -0.00000000000E+00 -0.00000000000E+00 -0.70725450385E+03  0.70725450385E+03  0.00000000000E+00 0. -1.
          6    1    1    2  501    0  0.10667121060E+03 -0.14484098140E+03 -0.25098459608E+03  0.35394904228E+03  0.17300000000E+03 0.  1.
         -6    1    1    2    0  502 -0.10667121060E+03  0.14484098140E+03 -0.36631896427E+03  0.44325640508E+03  0.17300000000E+03 0. -1.
<mgrwt>
<rscale>  2 0.24957295E+03</rscale>
<asrwt>0</asrwt>
<pdfrwt beam="1">  1       21 0.13838606E-01 0.24957295E+03</pdfrwt>
<pdfrwt beam="2">  1       21 0.10880839E+00 0.24957295E+03</pdfrwt>
<totfact> 0.29542683E+04</totfact>
</mgrwt>
</event>
<event>
 4    1  0.4306168E+000  0.3987625E+03  0.7546771E-02  0.1044209E+00
         21   -1    0    0  503  502  0.00000000000E+00  0.00000000000E+00  0.18616134670E+03  0.18616134670E+03  0.00000000000E+00 0.  1.
         21   -1    0    0  501  503 -0.00000000000E+00 -0.00000000000E+00 -0.10946987111E+04  0.10946987111E+04  0.00000000000E+00 0. -1.
          6    1    1    2  501    0  0.25456414200E+03 -0.25353422881E+03 -0.75447318702E+03  0.85337055111E+03  0.17300000000E+03 0. -1.
         -6    1    1    2    0  502 -0.25456414200E+03  0.25353422881E+03 -0.15406417738E+03  0.42748950668E+03  0.17300000000E+03 0.  1.
<mgrwt>
<rscale>  2 0.39876247E+03</rscale>
<asrwt>0</asrwt>
<pdfrwt beam="1">  1       21 0.28640207E-01 0.39876247E+03</pdfrwt>
<pdfrwt beam="2">  1       21 0.16841519E+00 0.39876247E+03</pdfrwt>
<totfact> 0.22289488E+03</totfact>
</mgrwt>
</event>
<event>
 4    1  0.4306168E+000  0.2084130E+03  0.7546771E-02  0.1142829E+00
         21   -1    0    0  501  502  0.00000000000E+00  0.00000000000E+00  0.47840274016E+03  0.47840274016E+03  0.00000000000E+00 0. -1.
         21   -1    0    0  502  503 -0.00000000000E+00 -0.00000000000E+00 -0.91572845870E+02  0.91572845870E+02  0.00000000000E+00 0. -1.
          6    1    1    2  501    0 -0.49558731743E+02  0.10512329244E+03  0.21970193654E+03  0.30282819457E+03  0.17300000000E+03 0. -1.
         -6    1    1    2    0  503  0.49558731743E+02 -0.10512329244E+03  0.16712795775E+03  0.26714739147E+03  0.17300000000E+03 0. -1.
<mgrwt>
<rscale>  2 0.20841299E+03</rscale>
<asrwt>0</asrwt>
<pdfrwt beam="1">  1       21 0.73600420E-01 0.20841299E+03</pdfrwt>
<pdfrwt beam="2">  1       21 0.14088130E-01 0.20841299E+03</pdfrwt>
<totfact> 0.72377539E+04</totfact>
</mgrwt>
</event>
<event>
 4    1  0.4306168E+000  0.2478778E+03  0.7546771E-02  0.1114653E+00
         21   -1    0    0  501  502  0.00000000000E+00  0.00000000000E+00  0.19436786746E+03  0.19436786746E+03  0.00000000000E+00 0. -1.
         21   -1    0    0  502  503 -0.00000000000E+00 -0.00000000000E+00 -0.32562960390E+03  0.32562960390E+03  0.00000000000E+00 0. -1.
          6    1    1    2  501    0 -0.14012706391E+03 -0.10898986068E+03 -0.11006456200E+03  0.27121502830E+03  0.17300000000E+03 0. -1.
         -6    1    1    2    0  503  0.14012706391E+03  0.10898986068E+03 -0.21197174440E+02  0.24878244306E+03  0.17300000000E+03 0. -1.
<mgrwt>
<rscale>  2 0.24787776E+03</rscale>
<asrwt>0</asrwt>
<pdfrwt beam="1">  1       21 0.29902749E-01 0.24787776E+03</pdfrwt>
<pdfrwt beam="2">  1       21 0.50096862E-01 0.24787776E+03</pdfrwt>
<totfact> 0.39650216E+04</totfact>
</mgrwt>
</event>
<event>
 4    1  0.4306168E+000  0.1783370E+03  0.7546771E-02  0.1169422E+00
         21   -1    0    0  501  502  0.00000000000E+00  0.00000000000E+00  0.32309956321E+02  0.32309956321E+02  0.00000000000E+00 0.  1.
         21   -1    0    0  502  503 -0.00000000000E+00 -0.00000000000E+00 -0.14476750517E+04  0.14476750517E+04  0.00000000000E+00 0.  1.
          6    1    1    2  501    0  0.30340940581E+02  0.30895013197E+02 -0.28904515454E+03  0.33963388506E+03  0.17300000000E+03 0.  1.
         -6    1    1    2    0  503 -0.30340940581E+02 -0.30895013197E+02 -0.11263199408E+04  0.11403511230E+04  0.17300000000E+03 0.  1.
<mgrwt>
<rscale>  2 0.17833697E+03</rscale>
<asrwt>0</asrwt>
<pdfrwt beam="1">  1       21 0.49707625E-02 0.17833697E+03</pdfrwt>
<pdfrwt beam="2">  1       21 0.22271924E+00 0.17833697E+03</pdfrwt>
<totfact> 0.26602787E+04</totfact>
</mgrwt>
</event>
<event>
 4    1  0.4306168E+000  0.3115002E+03  0.7546771E-02  0.1079629E+00
         21   -1    0    0  501  502  0.00000000000E+00  0.00000000000E+00  0.62429101595E+02  0.62429101595E+02  0.00000000000E+00 0. -1.
         21   -1    0    0  502  503 -0.00000000000E+00 -0.00000000000E+00 -0.22294167330E+04  0.22294167330E+04  0.00000000000E+00 0.  1.
          6    1    1    2  501    0 -0.82204983671E+02  0.24565359307E+03 -0.45289169985E+03  0.54967557606E+03  0.17300000000E+03 0. -1.
         -6    1    1    2    0  503  0.82204983671E+02 -0.24565359307E+03 -0.17140959315E+04  0.17421702585E+04  0.17300000000E+03 0.  1.
<mgrwt>
<rscale>  2 0.31150016E+03</rscale>
<asrwt>0</asrwt>
<pdfrwt beam="1">  1       21 0.96044769E-02 0.31150016E+03</pdfrwt>
<pdfrwt beam="2">  1       21 0.34298720E+00 0.31150016E+03</pdfrwt>
<totfact> 0.14742596E+03</totfact>
</mgrwt>
</event>
<event>
 4    1  0.4306168E+000  0.2803801E+03  0.7546771E-02  0.1095482E+00
         21   -1    0    0  501  502  0.00000000000E+00  0.00000000000E+00  0.11948362954E+03  0.11948362954E+03  0.00000000000E+00 0. -1.
         21   -1    0    0  502  503 -0.00000000000E+00 -0.00000000000E+00 -0.71812992501E+03  0.71812992501E+03  0.00000000000E+00 0. -1.
          6    1    1    2  501    0 -0.20584185540E+03  0.79455163754E+02 -0.42057157244E+03  0.50546358922E+03  0.17300000000E+03 0. -1.
         -6    1    1    2    0  503  0.20584185540E+03 -0.79455163754E+02 -0.17807472303E+03  0.33214996533E+03  0.17300000000E+03 0. -1.
<mgrwt>
<rscale>  2 0.28038009E+03</rscale>
<asrwt>0</asrwt>
<pdfrwt beam="1">  1       21 0.18382097E-01 0.28038009E+03</pdfrwt>
<pdfrwt beam="2">  1       21 0.11048153E+00 0.28038009E+03</pdfrwt>
<totfact> 0.16621435E+04</totfact>
</mgrwt>
</event>
<event>
 4    1  0.4306168E+000  0.2146392E+03  0.7546771E-02  0.1137944E+00
         21   -1    0    0  503  502  0.00000000000E+00  0.00000000000E+00  0.39198794211E+03  0.39198794211E+03  0.00000000000E+00 0.  1.
         21   -1    0    0  501  503 -0.00000000000E+00 -0.00000000000E+00 -0.13308792950E+03  0.13308792950E+03  0.00000000000E+00 0.  1.
          6    1    1    2  501    0  0.88297437105E+02 -0.91348553145E+02  0.39684187558E+02  0.21827695779E+03  0.17300000000E+03 0.  1.
         -6    1    1    2    0  502 -0.88297437105E+02  0.91348553145E+02  0.21921582505E+03  0.30679891381E+03  0.17300000000E+03 0.  1.
<mgrwt>
<rscale>  2 0.21463922E+03</rscale>
<asrwt>0</asrwt>
<pdfrwt beam="1">  1       21 0.60305837E-01 0.21463922E+03</pdfrwt>
<pdfrwt beam="2">  1       21 0.20475066E-01 0.21463922E+03</pdfrwt>
<totfact> 0.56041362E+04</totfact>
</mgrwt>
</event>
<event>
 4    1  0.4306168E+000  0.2128389E+03  0.7546771E-02  0.1139337E+00
         21   -1    0    0  501  502  0.00000000000E+00  0.00000000000E+00  0.11618054383E+03  0.11618054383E+03  0.00000000000E+00 0. -1.
         21   -1    0    0  502  503 -0.00000000000E+00 -0.00000000000E+00 -0.65430399691E+03  0.65430399691E+03  0.00000000000E+00 0.  1.
          6    1    1    2  501    0  0.11773301387E+03 -0.38863149334E+02 -0.24174150045E+02  0.21420736790E+03  0.17300000000E+03 0. -1.
         -6    1    1    2    0  503 -0.11773301387E+03  0.38863149334E+02 -0.51394930304E+03  0.55627717284E+03  0.17300000000E+03 0.  1.
<mgrwt>
<rscale>  2 0.21283892E+03</rscale>
<asrwt>0</asrwt>
<pdfrwt beam="1">  1       21 0.17873930E-01 0.21283892E+03</pdfrwt>
<pdfrwt beam="2">  1       21 0.10066215E+00 0.21283892E+03</pdfrwt>
<totfact> 0.22711594E+04</totfact>
</mgrwt>
</event>
<event>
 4    1  0.4306168E+000  0.2154702E+03  0.7546771E-02  0.1137306E+00
         21   -1    0    0  503  502  0.00000000000E+00  0.00000000000E+00  0.75721404917E+02  0.75721404917E+02  0.00000000000E+00 0. -1.
         21   -1    0    0  501  503 -0.00000000000E+00 -0.00000000000E+00 -0.75567520600E+03  0.75567520600E+03  0.00000000000E+00 0. -1.
          6    1    1    2  501    0  0.77987095260E+02 -0.10206090198E+03 -0.52051960319E+03  0.56335430419E+03  0.17300000000E+03 0. -1.
         -6    1    1    2    0  502 -0.77987095260E+02  0.10206090198E+03 -0.15943419789E+03  0.26804230673E+03  0.17300000000E+03 0. -1.
<mgrwt>
<rscale>  2 0.21547022E+03</rscale>
<asrwt>0</asrwt>
<pdfrwt beam="1">  1       21 0.11649448E-01 0.21547022E+03</pdfrwt>
<pdfrwt beam="2">  1       21 0.11625772E+00 0.21547022E+03</pdfrwt>
<totfact> 0.34878073E+04</totfact>
</mgrwt>
</event>
<event>
 4    1  0.4306168E+000  0.2704375E+03  0.7546771E-02  0.1101029E+00
         21   -1    0    0  503  502  0.00000000000E+00  0.00000000000E+00  0.28573481105E+03  0.28573481105E+03  0.00000000000E+00 0. -1.
         21   -1    0    0  501  503 -0.00000000000E+00 -0.00000000000E+00 -0.29411767390E+03  0.29411767390E+03  0.00000000000E+00 0. -1.
          6    1    1    2  501    0 -0.13737728508E+02  0.20740958003E+03 -0.10862072888E+03  0.29143596520E+03  0.17300000000E+03 0. -1.
         -6    1    1    2    0  502  0.13737728508E+02 -0.20740958003E+03  0.10023786603E+03  0.28841651974E+03  0.17300000000E+03 0. -1.
<mgrwt>
<rscale>  2 0.27043753E+03</rscale>
<asrwt>0</asrwt>
<pdfrwt beam="1">  1       21 0.43959201E-01 0.27043753E+03</pdfrwt>
<pdfrwt beam="2">  1       21 0.45248873E-01 0.27043753E+03</pdfrwt>
<totfact> 0.22386943E+04</totfact>
</mgrwt>
</event>
<event>
 4    1  0.4306168E+000  0.1864532E+03  0.7546771E-02  0.1161700E+00
         21   -1    0    0  501  502  0.00000000000E+00  0.00000000000E+00  0.99371837897E+02  0.99371837897E+02  0.00000000000E+00 0. -1.
         21   -1    0    0  502  503 -0.00000000000E+00 -0.00000000000E+00 -0.35243823798E+03  0.35243823798E+03  0.00000000000E+00 0. -1.
          6    1    1    2  501    0 -0.56681279392E+02 -0.40286928839E+02 -0.14590866477E+03  0.23675756065E+03  0.17300000000E+03 0. -1.
         -6    1    1    2    0  503  0.56681279392E+02  0.40286928839E+02 -0.10715773531E+03  0.21505251523E+03  0.17300000000E+03 0. -1.
<mgrwt>
<rscale>  2 0.18645322E+03</rscale>
<asrwt>0</asrwt>
<pdfrwt beam="1">  1       21 0.15287975E-01 0.18645322E+03</pdfrwt>
<pdfrwt beam="2">  1       21 0.54221268E-01 0.18645322E+03</pdfrwt>
<totfact> 0.12207570E+05</totfact>
</mgrwt>
</event>
<event>
 4    1  0.4306168E+000  0.2034899E+03  0.7546771E-02  0.1146828E+00
         21   -1    0    0  503  502  0.00000000000E+00  0.00000000000E+00  0.15745689675E+03  0.15745689675E+03  0.00000000000E+00 0.  1.
         21   -1    0    0  501  503 -0.00000000000E+00 -0.00000000000E+00 -0.43962926685E+03  0.43962926685E+03  0.00000000000E+00 0.  1.
          6    1    1    2  501    0 -0.47018644467E+02 -0.96272514557E+02 -0.33032864160E+03  0.38797572276E+03  0.17300000000E+03 0.  1.
         -6    1    1    2    0  502  0.47018644467E+02  0.96272514557E+02  0.48156271500E+02  0.20911044085E+03  0.17300000000E+03 0.  1.
<mgrwt>
<rscale>  2 0.20348993E+03</rscale>
<asrwt>0</asrwt>
<pdfrwt beam="1">  1       21 0.24224138E-01 0.20348993E+03</pdfrwt>
<pdfrwt beam="2">  1       21 0.67635272E-01 0.20348993E+03</pdfrwt>
<totfact> 0.31952182E+04</totfact>
</mgrwt>
</event>
<event>
 4    1  0.4306168E+000  0.2645561E+03  0.7546771E-02  0.1104436E+00
         21   -1    0    0  501  502  0.00000000000E+00  0.00000000000E+00  0.52641187568E+02  0.52641187568E+02  0.00000000000E+00 0.  1.
         21   -1    0    0  502  503 -0.00000000000E+00 -0.00000000000E+00 -0.20258312306E+04  0.20258312306E+04  0.00000000000E+00 0.  1.
          6    1    1    2  501    0  0.13179182578E+03  0.15063804775E+03 -0.37733855173E+03  0.46084085040E+03  0.17300000000E+03 0.  1.
         -6    1    1    2    0  503 -0.13179182578E+03 -0.15063804775E+03 -0.15958514913E+04  0.16176315678E+04  0.17300000000E+03 0.  1.
<mgrwt>
<rscale>  2 0.26455606E+03</rscale>
<asrwt>0</asrwt>
<pdfrwt beam="1">  1       21 0.80986439E-02 0.26455606E+03</pdfrwt>
<pdfrwt beam="2">  1       21 0.31166636E+00 0.26455606E+03</pdfrwt>
<totfact> 0.31836840E+03</totfact>
</mgrwt>
</event>
<event>
 4    1  0.4306168E+000  0.1773050E+03  0.7546771E-02  0.1170437E+00
         21   -1    0    0  503  502  0.00000000000E+00  0.00000000000E+00  0.48139639654E+02  0.48139639654E+02  0.00000000000E+00 0. -1.
         21   -1    0    0  501  503 -0.00000000000E+00 -0.00000000000E+00 -0.92129980961E+03  0.92129980961E+03  0.00000000000E+00 0. -1.
          6    1    1    2  501    0  0.23329555976E+02 -0.31044983932E+02 -0.69813860228E+03  0.72030171956E+03  0.17300000000E+03 0. -1.
         -6    1    1    2    0  502 -0.23329555976E+02  0.31044983932E+02 -0.17502156767E+03  0.24913772970E+03  0.17300000000E+03 0. -1.
<mgrwt>
<rscale>  2 0.17730499E+03</rscale>
<asrwt>0</asrwt>
<pdfrwt beam="1">  1       21 0.74060987E-02 0.17730499E+03</pdfrwt>
<pdfrwt beam="2">  1       21 0.14173843E+00 0.17730499E+03</pdfrwt>
<totfact> 0.47960990E+04</totfact>
</mgrwt>
</event>
<event>
 4    1  0.4306168E+000  0.1903693E+03  0.7546771E-02  0.1158129E+00
         21   -1    0    0  503  502  0.00000000000E+00  0.00000000000E+00  0.10047748097E+03  0.10047748097E+03  0.00000000000E+00 0. -1.
         21   -1    0    0  501  503 -0.00000000000E+00 -0.00000000000E+00 -0.70337674701E+03  0.70337674701E+03  0.00000000000E+00 0.  1.
          6    1    1    2  501    0 -0.96812624130E+01  0.78852591765E+02 -0.58199737478E+03  0.61234092001E+03  0.17300000000E+03 0.  1.
         -6    1    1    2    0  502  0.96812624130E+01 -0.78852591765E+02 -0.20901891259E+02  0.19151330797E+03  0.17300000000E+03 0. -1.
<mgrwt>
<rscale>  2 0.19036927E+03</rscale>
<asrwt>0</asrwt>
<pdfrwt beam="1">  1       21 0.15458074E-01 0.19036927E+03</pdfrwt>
<pdfrwt beam="2">  1       21 0.10821181E+00 0.19036927E+03</pdfrwt>
<totfact> 0.25267619E+04</totfact>
</mgrwt>
</event>
<event>
 4    1  0.4306168E+000  0.1835347E+03  0.7546771E-02  0.1164425E+00
         21   -1    0    0  503  502  0.00000000000E+00  0.00000000000E+00  0.36577294516E+03  0.36577294516E+03  0.00000000000E+00 0. -1.
         21   -1    0    0  501  503 -0.00000000000E+00 -0.00000000000E+00 -0.52282891883E+03  0.52282891883E+03  0.00000000000E+00 0. -1.
          6    1    1    2  501    0 -0.41553146430E+02 -0.45047947365E+02 -0.48180472305E+03  0.51557809563E+03  0.17300000000E+03 0. -1.
         -6    1    1    2    0  502  0.41553146430E+02  0.45047947365E+02  0.32474874938E+03  0.37302376836E+03  0.17300000000E+03 0. -1.
<mgrwt>
<rscale>  2 0.18353469E+03</rscale>
<asrwt>0</asrwt>
<pdfrwt beam="1">  1       21 0.56272761E-01 0.18353469E+03</pdfrwt>
<pdfrwt beam="2">  1       21 0.80435218E-01 0.18353469E+03</pdfrwt>
<totfact> 0.40673584E+03</totfact>
</mgrwt>
</event>
<event>
 4    1  0.4306168E+000  0.1738249E+03  0.7546771E-02  0.1173917E+00
         21   -1    0    0  503  502  0.00000000000E+00  0.00000000000E+00  0.40326738375E+02  0.40326738375E+02  0.00000000000E+00 0. -1.
         21   -1    0    0  501  503 -0.00000000000E+00 -0.00000000000E+00 -0.75195828537E+03  0.75195828537E+03  0.00000000000E+00 0. -1.
          6    1    1    2  501    0  0.18680090978E+01 -0.16811382173E+02 -0.33207483312E+03  0.37481836510E+03  0.17300000000E+03 0. -1.
         -6    1    1    2    0  502 -0.18680090978E+01  0.16811382173E+02 -0.37955671388E+03  0.41746665865E+03  0.17300000000E+03 0. -1.
<mgrwt>
<rscale>  2 0.17382495E+03</rscale>
<asrwt>0</asrwt>
<pdfrwt beam="1">  1       21 0.62041130E-02 0.17382495E+03</pdfrwt>
<pdfrwt beam="2">  1       21 0.11568590E+00 0.17382495E+03</pdfrwt>
<totfact> 0.10844632E+05</totfact>
</mgrwt>
</event>
<event>
 4    1  0.4306168E+000  0.1772539E+03  0.7546771E-02  0.1170487E+00
         21   -1    0    0  503  502  0.00000000000E+00  0.00000000000E+00  0.32469908772E+03  0.32469908772E+03  0.00000000000E+00 0. -1.
         21   -1    0    0  501  503 -0.00000000000E+00 -0.00000000000E+00 -0.28993653051E+03  0.28993653051E+03  0.00000000000E+00 0. -1.
          6    1    1    2  501    0 -0.51323322953E+01  0.38257151250E+02 -0.23346620429E+03  0.29313037885E+03  0.17300000000E+03 0. -1.
         -6    1    1    2    0  502  0.51323322953E+01 -0.38257151250E+02  0.26822876150E+03  0.32150523938E+03  0.17300000000E+03 0. -1.
<mgrwt>
<rscale>  2 0.17725392E+03</rscale>
<asrwt>0</asrwt>
<pdfrwt beam="1">  1       21 0.49953706E-01 0.17725392E+03</pdfrwt>
<pdfrwt beam="2">  1       21 0.44605620E-01 0.17725392E+03</pdfrwt>
<totfact> 0.18594818E+04</totfact>
</mgrwt>
</event>
<event>
 4    1  0.4306168E+000  0.2168795E+03  0.7546771E-02  0.1136231E+00
         21   -1    0    0  503  502  0.00000000000E+00  0.00000000000E+00  0.16130937641E+03  0.16130937641E+03  0.00000000000E+00 0.  1.
         21   -1    0    0  501  503 -0.00000000000E+00 -0.00000000000E+00 -0.33217891630E+03  0.33217891630E+03  0.00000000000E+00 0.  1.
          6    1    1    2  501    0  0.95342229307E+02 -0.89541041949E+02 -0.17168230997E+03  0.27660722051E+03  0.17300000000E+03 0.  1.
         -6    1    1    2    0  502 -0.95342229307E+02  0.89541041949E+02  0.81277008400E+00  0.21688107220E+03  0.17300000000E+03 0.  1.
<mgrwt>
<rscale>  2 0.21687955E+03</rscale>
<asrwt>0</asrwt>
<pdfrwt beam="1">  1       21 0.24816827E-01 0.21687955E+03</pdfrwt>
<pdfrwt beam="2">  1       21 0.51104449E-01 0.21687955E+03</pdfrwt>
<totfact> 0.55292646E+04</totfact>
</mgrwt>
</event>
<event>
 4    1  0.4306168E+000  0.1817395E+03  0.7546771E-02  0.1166130E+00
         21   -1    0    0  501  502  0.00000000000E+00  0.00000000000E+00  0.73154626310E+03  0.73154626310E+03  0.00000000000E+00 0.  1.
         21   -1    0    0  502  503 -0.00000000000E+00 -0.00000000000E+00 -0.96481073556E+02  0.96481073556E+02  0.00000000000E+00 0.  1.
          6    1    1    2  501    0  0.51542907756E+02  0.21061445045E+02  0.61951672768E+03  0.64562390885E+03  0.17300000000E+03 0.  1.
         -6    1    1    2    0  503 -0.51542907756E+02 -0.21061445045E+02  0.15548461861E+02  0.18240342780E+03  0.17300000000E+03 0.  1.
<mgrwt>
<rscale>  2 0.18173953E+03</rscale>
<asrwt>0</asrwt>
<pdfrwt beam="1">  1       21 0.11254558E+00 0.18173953E+03</pdfrwt>
<pdfrwt beam="2">  1       21 0.14843243E-01 0.18173953E+03</pdfrwt>
<totfact> 0.24867977E+04</totfact>
</mgrwt>
</event>
<event>
 4    1  0.4306168E+000  0.2352168E+03  0.7546771E-02  0.1123021E+00
         21   -1    0    0  501  502  0.00000000000E+00  0.00000000000E+00  0.10172761015E+03  0.10172761015E+03  0.00000000000E+00 0.  1.
         21   -1    0    0  502  503 -0.00000000000E+00 -0.00000000000E+00 -0.55628606848E+03  0.55628606848E+03  0.00000000000E+00 0. -1.
          6    1    1    2  501    0  0.15016406415E+03 -0.53373154510E+02 -0.27642528354E+03  0.36295712855E+03  0.17300000000E+03 0. -1.
         -6    1    1    2    0  503 -0.15016406415E+03  0.53373154510E+02 -0.17813317479E+03  0.29505655008E+03  0.17300000000E+03 0.  1.
<mgrwt>
<rscale>  2 0.23521679E+03</rscale>
<asrwt>0</asrwt>
<pdfrwt beam="1">  1       21 0.15650402E-01 0.23521679E+03</pdfrwt>
<pdfrwt beam="2">  1       21 0.85582472E-01 0.23521679E+03</pdfrwt>
<totfact> 0.41940136E+04</totfact>
</mgrwt>
</event>
<event>
 4    1  0.4306168E+000  0.1871774E+03  0.7546771E-02  0.1161032E+00
         21   -1    0    0  501  502  0.00000000000E+00  0.00000000000E+00  0.10164826763E+04  0.10164826763E+04  0.00000000000E+00 0. -1.
         21   -1    0    0  502  503 -0.00000000000E+00 -0.00000000000E+00 -0.37160662273E+02  0.37160662273E+02  0.00000000000E+00 0. -1.
          6    1    1    2  501    0  0.36370790443E+02 -0.61510622190E+02  0.34783004028E+03  0.39499509865E+03  0.17300000000E+03 0. -1.
         -6    1    1    2    0  503 -0.36370790443E+02  0.61510622190E+02  0.63149197373E+03  0.65864823990E+03  0.17300000000E+03 0. -1.
<mgrwt>
<rscale>  2 0.18717743E+03</rscale>
<asrwt>0</asrwt>
<pdfrwt beam="1">  1       21 0.15638193E+00 0.18717743E+03</pdfrwt>
<pdfrwt beam="2">  1       21 0.57170257E-02 0.18717743E+03</pdfrwt>
<totfact> 0.57491457E+04</totfact>
</mgrwt>
</event>
<event>
 4    1  0.4306168E+000  0.2157499E+03  0.7546771E-02  0.1137092E+00
         21   -1    0    0  501  502  0.00000000000E+00  0.00000000000E+00  0.37991273948E+03  0.37991273948E+03  0.00000000000E+00 0.  1.
         21   -1    0    0  502  503 -0.00000000000E+00 -0.00000000000E+00 -0.12421907865E+03  0.12421907865E+03  0.00000000000E+00 0. -1.
          6    1    1    2  501    0  0.11332161173E+03  0.61459211561E+02  0.15730133938E+03  0.26700511932E+03  0.17300000000E+03 0.  1.
         -6    1    1    2    0  503 -0.11332161173E+03 -0.61459211561E+02  0.98392321448E+02  0.23712669881E+03  0.17300000000E+03 0.  1.
<mgrwt>
<rscale>  2 0.21574991E+03</rscale>
<asrwt>0</asrwt>
<pdfrwt beam="1">  1       21 0.58448113E-01 0.21574991E+03</pdfrwt>
<pdfrwt beam="2">  1       21 0.19110628E-01 0.21574991E+03</pdfrwt>
<totfact> 0.68162003E+04</totfact>
</mgrwt>
</event>
<event>
 4    1  0.4306168E+000  0.2026311E+03  0.7546771E-02  0.1147538E+00
         21   -1    0    0  501  502  0.00000000000E+00  0.00000000000E+00  0.76698774645E+02  0.76698774645E+02  0.00000000000E+00 0. -1.
         21   -1    0    0  502  503 -0.00000000000E+00 -0.00000000000E+00 -0.76995228019E+03  0.76995228019E+03  0.00000000000E+00 0.  1.
          6    1    1    2  501    0  0.22515565415E+02 -0.10306997646E+03 -0.11294512127E+03  0.23198269581E+03  0.17300000000E+03 0. -1.
         -6    1    1    2    0  503 -0.22515565415E+02  0.10306997646E+03 -0.58030838428E+03  0.61466835903E+03  0.17300000000E+03 0.  1.
<mgrwt>
<rscale>  2 0.20263112E+03</rscale>
<asrwt>0</asrwt>
<pdfrwt beam="1">  1       21 0.11799812E-01 0.20263112E+03</pdfrwt>
<pdfrwt beam="2">  1       21 0.11845419E+00 0.20263112E+03</pdfrwt>
<totfact> 0.32788450E+04</totfact>
</mgrwt>
</event>
<event>
 4    1  0.4306168E+000  0.4022865E+03  0.7546771E-02  0.1042991E+00
         21   -1    0    0  501  502  0.00000000000E+00  0.00000000000E+00  0.66479035926E+03  0.66479035926E+03  0.00000000000E+00 0.  1.
         21   -1    0    0  502  503 -0.00000000000E+00 -0.00000000000E+00 -0.27118225543E+03  0.27118225543E+03  0.00000000000E+00 0. -1.
          6    1    1    2  501    0 -0.30506551895E+03  0.19707973495E+03  0.34649618267E+03  0.53093690528E+03  0.17300000000E+03 0. -1.
         -6    1    1    2    0  503  0.30506551895E+03 -0.19707973495E+03  0.47111921169E+02  0.40503570941E+03  0.17300000000E+03 0.  1.
<mgrwt>
<rscale>  2 0.40228646E+03</rscale>
<asrwt>0</asrwt>
<pdfrwt beam="1">  1       21 0.10227544E+00 0.40228646E+03</pdfrwt>
<pdfrwt beam="2">  1       21 0.41720347E-01 0.40228646E+03</pdfrwt>
<totfact> 0.38239621E+03</totfact>
</mgrwt>
</event>
<event>
 4    1  0.4306168E+000  0.1997634E+03  0.7546771E-02  0.1149939E+00
         21   -1    0    0  501  502  0.00000000000E+00  0.00000000000E+00  0.20039366543E+03  0.20039366543E+03  0.00000000000E+00 0.  1.
         21   -1    0    0  502  503 -0.00000000000E+00 -0.00000000000E+00 -0.26274598890E+03  0.26274598890E+03  0.00000000000E+00 0.  1.
          6    1    1    2  501    0  0.99586118534E+02  0.76826644868E+01  0.82764715472E+02  0.21623000824E+03  0.17300000000E+03 0.  1.
         -6    1    1    2    0  503 -0.99586118534E+02 -0.76826644868E+01 -0.14511703895E+03  0.24690964609E+03  0.17300000000E+03 0.  1.
<mgrwt>
<rscale>  2 0.19976341E+03</rscale>
<asrwt>0</asrwt>
<pdfrwt beam="1">  1       21 0.30829795E-01 0.19976341E+03</pdfrwt>
<pdfrwt beam="2">  1       21 0.40422460E-01 0.19976341E+03</pdfrwt>
<totfact> 0.59382201E+04</totfact>
</mgrwt>
</event>
<event>
 4    1  0.4306168E+000  0.2592816E+03  0.7546771E-02  0.1107576E+00
         21   -1    0    0  501  502  0.00000000000E+00  0.00000000000E+00  0.13279837220E+04  0.13279837220E+04  0.00000000000E+00 0. -1.
         21   -1    0    0  502  503 -0.00000000000E+00 -0.00000000000E+00 -0.68469468761E+02  0.68469468761E+02  0.00000000000E+00 0.  1.
          6    1    1    2  501    0 -0.21812023892E+02 -0.19189103362E+03  0.98622489714E+03  0.10197384375E+04  0.17300000000E+03 0. -1.
         -6    1    1    2    0  503  0.21812023892E+02  0.19189103362E+03  0.27328935611E+03  0.37671475328E+03  0.17300000000E+03 0.  1.
<mgrwt>
<rscale>  2 0.25928157E+03</rscale>
<asrwt>0</asrwt>
<pdfrwt beam="1">  1       21 0.20430517E+00 0.25928157E+03</pdfrwt>
<pdfrwt beam="2">  1       21 0.10533765E-01 0.25928157E+03</pdfrwt>
<totfact> 0.88671146E+03</totfact>
</mgrwt>
</event>
<event>
 4    1  0.4306168E+000  0.2522099E+03  0.7546771E-02  0.1111916E+00
         21   -1    0    0  503  502  0.00000000000E+00  0.00000000000E+00  0.77874028404E+03  0.77874028404E+03  0.00000000000E+00 0. -1.
         21   -1    0    0  501  503 -0.00000000000E+00 -0.00000000000E+00 -0.20509371482E+03  0.20509371482E+03  0.00000000000E+00 0.  1.
          6    1    1    2  501    0 -0.89048051991E+02 -0.16047211953E+03 -0.94762385753E+02  0.26942488093E+03  0.17300000000E+03 0.  1.
         -6    1    1    2    0  502  0.89048051991E+02  0.16047211953E+03  0.66840895497E+03  0.71440911794E+03  0.17300000000E+03 0. -1.
<mgrwt>
<rscale>  2 0.25220995E+03</rscale>
<asrwt>0</asrwt>
<pdfrwt beam="1">  1       21 0.11980620E+00 0.25220995E+03</pdfrwt>
<pdfrwt beam="2">  1       21 0.31552880E-01 0.25220995E+03</pdfrwt>
<totfact> 0.49029348E+03</totfact>
</mgrwt>
</event>
<event>
 4    1  0.4306168E+000  0.1922175E+03  0.7546771E-02  0.1156476E+00
         21   -1    0    0  501  502  0.00000000000E+00  0.00000000000E+00  0.63476446396E+03  0.63476446396E+03  0.00000000000E+00 0. -1.
         21   -1    0    0  502  503 -0.00000000000E+00 -0.00000000000E+00 -0.58207800715E+02  0.58207800715E+02  0.00000000000E+00 0. -1.
          6    1    1    2  501    0 -0.40166271216E+02  0.73520416984E+02  0.28681130924E+03  0.34526556180E+03  0.17300000000E+03 0. -1.
         -6    1    1    2    0  503  0.40166271216E+02 -0.73520416984E+02  0.28974535401E+03  0.34770670288E+03  0.17300000000E+03 0. -1.
<mgrwt>
<rscale>  2 0.19221754E+03</rscale>
<asrwt>0</asrwt>
<pdfrwt beam="1">  1       21 0.97656067E-01 0.19221754E+03</pdfrwt>
<pdfrwt beam="2">  1       21 0.89550467E-02 0.19221754E+03</pdfrwt>
<totfact> 0.85582827E+04</totfact>
</mgrwt>
</event>
<event>
 4    1  0.4306168E+000  0.1822770E+03  0.7546771E-02  0.1165617E+00
         21   -1    0    0  503  502  0.00000000000E+00  0.00000000000E+00  0.93390729142E+02  0.93390729142E+02  0.00000000000E+00 0. -1.
         21   -1    0    0  501  503 -0.00000000000E+00 -0.00000000000E+00 -0.36152269107E+03  0.36152269107E+03  0.00000000000E+00 0.  1.
          6    1    1    2  501    0 -0.19435437663E+02  0.54020045034E+02 -0.10535443405E+03  0.21053374617E+03  0.17300000000E+03 0.  1.
         -6    1    1    2    0  502  0.19435437663E+02 -0.54020045034E+02 -0.16277752788E+03  0.24437967404E+03  0.17300000000E+03 0. -1.
<mgrwt>
<rscale>  2 0.18227699E+03</rscale>
<asrwt>0</asrwt>
<pdfrwt beam="1">  1       21 0.14367805E-01 0.18227699E+03</pdfrwt>
<pdfrwt beam="2">  1       21 0.55618875E-01 0.18227699E+03</pdfrwt>
<totfact> 0.12968877E+05</totfact>
</mgrwt>
</event>
<event>
 4    1  0.4306168E+000  0.1826798E+03  0.7546771E-02  0.1165234E+00
         21   -1    0    0  503  502  0.00000000000E+00  0.00000000000E+00  0.76891749239E+03  0.76891749239E+03  0.00000000000E+00 0. -1.
         21   -1    0    0  501  503 -0.00000000000E+00 -0.00000000000E+00 -0.95454678412E+02  0.95454678412E+02  0.00000000000E+00 0. -1.
          6    1    1    2  501    0  0.48870989915E+02 -0.32473820615E+02  0.17579713671E+02  0.18352375599E+03  0.17300000000E+03 0. -1.
         -6    1    1    2    0  502 -0.48870989915E+02  0.32473820615E+02  0.65588310031E+03  0.68084841481E+03  0.17300000000E+03 0. -1.
<mgrwt>
<rscale>  2 0.18267984E+03</rscale>
<asrwt>0</asrwt>
<pdfrwt beam="1">  1       21 0.11829499E+00 0.18267984E+03</pdfrwt>
<pdfrwt beam="2">  1       21 0.14685336E-01 0.18267984E+03</pdfrwt>
<totfact> 0.22445465E+04</totfact>
</mgrwt>
</event>
<event>
 4    1  0.4306168E+000  0.1896269E+03  0.7546771E-02  0.1158798E+00
         21   -1    0    0  503  502  0.00000000000E+00  0.00000000000E+00  0.34866476241E+03  0.34866476241E+03  0.00000000000E+00 0.  1.
         21   -1    0    0  501  503 -0.00000000000E+00 -0.00000000000E+00 -0.17431288380E+03  0.17431288380E+03  0.00000000000E+00 0.  1.
          6    1    1    2  501    0 -0.28729244921E+02  0.72138755887E+02 -0.79922027372E+02  0.20578119466E+03  0.17300000000E+03 0.  1.
         -6    1    1    2    0  502  0.28729244921E+02 -0.72138755887E+02  0.25427390598E+03  0.31719645155E+03  0.17300000000E+03 0.  1.
<mgrwt>
<rscale>  2 0.18962692E+03</rscale>
<asrwt>0</asrwt>
<pdfrwt beam="1">  1       21 0.53640732E-01 0.18962692E+03</pdfrwt>
<pdfrwt beam="2">  1       21 0.26817367E-01 0.18962692E+03</pdfrwt>
<totfact> 0.43607439E+04</totfact>
</mgrwt>
</event>
<event>
 4    1  0.4306168E+000  0.1952829E+03  0.7546771E-02  0.1153781E+00
         21   -1    0    0  501  502  0.00000000000E+00  0.00000000000E+00  0.13800597975E+03  0.13800597975E+03  0.00000000000E+00 0. -1.
         21   -1    0    0  502  503 -0.00000000000E+00 -0.00000000000E+00 -0.28399125310E+03  0.28399125310E+03  0.00000000000E+00 0. -1.
          6    1    1    2  501    0 -0.17698057274E+02 -0.88843688641E+02 -0.38340516078E+02  0.19901109873E+03  0.17300000000E+03 0. -1.
         -6    1    1    2    0  503  0.17698057274E+02  0.88843688641E+02 -0.10764475728E+03  0.22298613413E+03  0.17300000000E+03 0. -1.
<mgrwt>
<rscale>  2 0.19528293E+03</rscale>
<asrwt>0</asrwt>
<pdfrwt beam="1">  1       21 0.21231689E-01 0.19528293E+03</pdfrwt>
<pdfrwt beam="2">  1       21 0.43690962E-01 0.19528293E+03</pdfrwt>
<totfact> 0.10379359E+05</totfact>
</mgrwt>
</event>
<event>
 4    1  0.4306168E+000  0.2243268E+03  0.7546771E-02  0.1130698E+00
         21   -1    0    0  503  502  0.00000000000E+00  0.00000000000E+00  0.79765619547E+02  0.79765619547E+02  0.00000000000E+00 0.  1.
         21   -1    0    0  501  503 -0.00000000000E+00 -0.00000000000E+00 -0.68205604262E+03  0.68205604262E+03  0.00000000000E+00 0. -1.
          6    1    1    2  501    0  0.63318326399E+02 -0.12800126220E+03 -0.19680621238E+03  0.29842121039E+03  0.17300000000E+03 0. -1.
         -6    1    1    2    0  502 -0.63318326399E+02  0.12800126220E+03 -0.40548421069E+03  0.46340045177E+03  0.17300000000E+03 0. -1.
<mgrwt>
<rscale>  2 0.22432685E+03</rscale>
<asrwt>0</asrwt>
<pdfrwt beam="1">  1       21 0.12271633E-01 0.22432685E+03</pdfrwt>
<pdfrwt beam="2">  1       21 0.10493170E+00 0.22432685E+03</pdfrwt>
<totfact> 0.40578080E+04</totfact>
</mgrwt>
</event>
<event>
 4    1  0.4306168E+000  0.2345823E+03  0.7546771E-02  0.1123455E+00
         21   -1    0    0  503  502  0.00000000000E+00  0.00000000000E+00  0.61870188252E+03  0.61870188252E+03  0.00000000000E+00 0. -1.
         21   -1    0    0  501  503 -0.00000000000E+00 -0.00000000000E+00 -0.95211241217E+02  0.95211241217E+02  0.00000000000E+00 0. -1.
          6    1    1    2  501    0  0.12590380402E+03  0.96166895185E+02  0.17015188031E+03  0.28979389567E+03  0.17300000000E+03 0. -1.
         -6    1    1    2    0  502 -0.12590380402E+03 -0.96166895185E+02  0.35333876099E+03  0.42411922807E+03  0.17300000000E+03 0. -1.
<mgrwt>
<rscale>  2 0.23458227E+03</rscale>
<asrwt>0</asrwt>
<pdfrwt beam="1">  1       21 0.95184903E-01 0.23458227E+03</pdfrwt>
<pdfrwt beam="2">  1       21 0.14647884E-01 0.23458227E+03</pdfrwt>
<totfact> 0.36967152E+04</totfact>
</mgrwt>
</event>
<event>
 4    1  0.4306168E+000  0.1743948E+03  0.7546771E-02  0.1173341E+00
         21   -1    0    0  501  502  0.00000000000E+00  0.00000000000E+00  0.26645840955E+03  0.26645840955E+03  0.00000000000E+00 0.  1.
         21   -1    0    0  502  503 -0.00000000000E+00 -0.00000000000E+00 -0.34680859512E+03  0.34680859512E+03  0.00000000000E+00 0.  1.
          6    1    1    2  501    0 -0.16182838085E+02  0.14921467255E+02  0.21098096679E+03  0.27372705891E+03  0.17300000000E+03 0.  1.
         -6    1    1    2    0  503  0.16182838085E+02 -0.14921467255E+02 -0.29133115235E+03  0.33953994576E+03  0.17300000000E+03 0.  1.
<mgrwt>
<rscale>  2 0.17439477E+03</rscale>
<asrwt>0</asrwt>
<pdfrwt beam="1">  1       21 0.40993601E-01 0.17439477E+03</pdfrwt>
<pdfrwt beam="2">  1       21 0.53355169E-01 0.17439477E+03</pdfrwt>
<totfact> 0.19274617E+04</totfact>
</mgrwt>
</event>
<event>
 4    1  0.4306168E+000  0.1858902E+03  0.7546771E-02  0.1162221E+00
         21   -1    0    0  501  502  0.00000000000E+00  0.00000000000E+00  0.59932648522E+03  0.59932648522E+03  0.00000000000E+00 0. -1.
         21   -1    0    0  502  503 -0.00000000000E+00 -0.00000000000E+00 -0.57933960694E+02  0.57933960694E+02  0.00000000000E+00 0.  1.
          6    1    1    2  501    0 -0.52809643625E+02 -0.42863996290E+02  0.24796132140E+03  0.30990320674E+03  0.17300000000E+03 0. -1.
         -6    1    1    2    0  503  0.52809643625E+02  0.42863996290E+02  0.29343120313E+03  0.34735723918E+03  0.17300000000E+03 0. -1.
<mgrwt>
<rscale>  2 0.18589024E+03</rscale>
<asrwt>0</asrwt>
<pdfrwt beam="1">  1       21 0.92204070E-01 0.18589024E+03</pdfrwt>
<pdfrwt beam="2">  1       21 0.89129175E-02 0.18589024E+03</pdfrwt>
<totfact> 0.98959366E+04</totfact>
</mgrwt>
</event>
<event>
 4    1  0.4306168E+000  0.2619091E+03  0.7546771E-02  0.1106002E+00
         21   -1    0    0  503  502  0.00000000000E+00  0.00000000000E+00  0.61230054145E+02  0.61230054145E+02  0.00000000000E+00 0.  1.
         21   -1    0    0  501  503 -0.00000000000E+00 -0.00000000000E+00 -0.11820600033E+04  0.11820600033E+04  0.00000000000E+00 0.  1.
          6    1    1    2  501    0  0.19282746858E+03  0.38535284629E+02 -0.70250220402E+03  0.74973711890E+03  0.17300000000E+03 0.  1.
         -6    1    1    2    0  502 -0.19282746858E+03 -0.38535284629E+02 -0.41832774515E+03  0.49355293856E+03  0.17300000000E+03 0.  1.
<mgrwt>
<rscale>  2 0.26190915E+03</rscale>
<asrwt>0</asrwt>
<pdfrwt beam="1">  1       21 0.94200080E-02 0.26190915E+03</pdfrwt>
<pdfrwt beam="2">  1       21 0.18185539E+00 0.26190915E+03</pdfrwt>
<totfact> 0.15217583E+04</totfact>
</mgrwt>
</event>
<event>
 4    1  0.4306168E+000  0.1758707E+03  0.7546771E-02  0.1171860E+00
         21   -1    0    0  503  502  0.00000000000E+00  0.00000000000E+00  0.16645657242E+03  0.16645657242E+03  0.00000000000E+00 0.  1.
         21   -1    0    0  501  503 -0.00000000000E+00 -0.00000000000E+00 -0.41781158268E+03  0.41781158268E+03  0.00000000000E+00 0.  1.
          6    1    1    2  501    0  0.24126547124E+02  0.20479745877E+02 -0.34336356928E+03  0.38578368417E+03  0.17300000000E+03 0.  1.
         -6    1    1    2    0  502 -0.24126547124E+02 -0.20479745877E+02  0.92008559012E+02  0.19848447093E+03  0.17300000000E+03 0.  1.
<mgrwt>
<rscale>  2 0.17587072E+03</rscale>
<asrwt>0</asrwt>
<pdfrwt beam="1">  1       21 0.25608703E-01 0.17587072E+03</pdfrwt>
<pdfrwt beam="2">  1       21 0.64278706E-01 0.17587072E+03</pdfrwt>
<totfact> 0.32595812E+04</totfact>
</mgrwt>
</event>
<event>
 4    1  0.4306168E+000  0.1798651E+03  0.7546771E-02  0.1167934E+00
         21   -1    0    0  503  502  0.00000000000E+00  0.00000000000E+00  0.60830857705E+02  0.60830857705E+02  0.00000000000E+00 0. -1.
         21   -1    0    0  501  503 -0.00000000000E+00 -0.00000000000E+00 -0.85832455840E+03  0.85832455840E+03  0.00000000000E+00 0. -1.
          6    1    1    2  501    0  0.24744283450E+02  0.42546125715E+02 -0.68219497885E+03  0.70550793160E+03  0.17300000000E+03 0. -1.
         -6    1    1    2    0  502 -0.24744283450E+02 -0.42546125715E+02 -0.11529872184E+03  0.21364748450E+03  0.17300000000E+03 0. -1.
<mgrwt>
<rscale>  2 0.17986509E+03</rscale>
<asrwt>0</asrwt>
<pdfrwt beam="1">  1       21 0.93585948E-02 0.17986509E+03</pdfrwt>
<pdfrwt beam="2">  1       21 0.13204991E+00 0.17986509E+03</pdfrwt>
<totfact> 0.38171322E+04</totfact>
</mgrwt>
</event>
<event>
 4    1  0.4306168E+000  0.1917679E+03  0.7546771E-02  0.1156876E+00
         21   -1    0    0  503  502  0.00000000000E+00  0.00000000000E+00  0.61063069406E+02  0.61063069406E+02  0.00000000000E+00 0. -1.
         21   -1    0    0  501  503 -0.00000000000E+00 -0.00000000000E+00 -0.74152443318E+03  0.74152443318E+03  0.00000000000E+00 0. -1.
          6    1    1    2  501    0  0.82173959502E+02  0.96629658182E+01 -0.51414808824E+03  0.54874692634E+03  0.17300000000E+03 0. -1.
         -6    1    1    2    0  502 -0.82173959502E+02 -0.96629658182E+01 -0.16631327553E+03  0.25384057624E+03  0.17300000000E+03 0. -1.
<mgrwt>
<rscale>  2 0.19176791E+03</rscale>
<asrwt>0</asrwt>
<pdfrwt beam="1">  1       21 0.93943185E-02 0.19176791E+03</pdfrwt>
<pdfrwt beam="2">  1       21 0.11408068E+00 0.19176791E+03</pdfrwt>
<totfact> 0.54186567E+04</totfact>
</mgrwt>
</event>
<event>
 4    1  0.4306168E+000  0.1922313E+03  0.7546771E-02  0.1156464E+00
         21   -1    0    0  503  502  0.00000000000E+00  0.00000000000E+00  0.46942392863E+02  0.46942392863E+02  0.00000000000E+00 0.  1.
         21   -1    0    0  501  503 -0.00000000000E+00 -0.00000000000E+00 -0.10778110915E+04  0.10778110915E+04  0.00000000000E+00 0.  1.
          6    1    1    2  501    0  0.80661005731E+02  0.22752557200E+02 -0.80745590149E+03  0.83002283677E+03  0.17300000000E+03 0.  1.
         -6    1    1    2    0  502 -0.80661005731E+02 -0.22752557200E+02 -0.22341279716E+03  0.29473064761E+03  0.17300000000E+03 0.  1.
<mgrwt>
<rscale>  2 0.19223131E+03</rscale>
<asrwt>0</asrwt>
<pdfrwt beam="1">  1       21 0.72219067E-02 0.19223131E+03</pdfrwt>
<pdfrwt beam="2">  1       21 0.16581709E+00 0.19223131E+03</pdfrwt>
<totfact> 0.32752262E+04</totfact>
</mgrwt>
</event>
<event>
 4    1  0.4306168E+000  0.2269216E+03  0.7546771E-02  0.1128825E+00
         21   -1    0    0  501  502  0.00000000000E+00  0.00000000000E+00  0.87424215165E+03  0.87424215165E+03  0.00000000000E+00 0. -1.
         21   -1    0    0  502  503 -0.00000000000E+00 -0.00000000000E+00 -0.59999036510E+02  0.59999036510E+02  0.00000000000E+00 0. -1.
          6    1    1    2  501    0 -0.10506092040E+03  0.10259931690E+03  0.47032455496E+03  0.52220551876E+03  0.17300000000E+03 0. -1.
         -6    1    1    2    0  503  0.10506092040E+03 -0.10259931690E+03  0.34391856018E+03  0.41203566940E+03  0.17300000000E+03 0. -1.
<mgrwt>
<rscale>  2 0.22692161E+03</rscale>
<asrwt>0</asrwt>
<pdfrwt beam="1">  1       21 0.13449878E+00 0.22692161E+03</pdfrwt>
<pdfrwt beam="2">  1       21 0.92306216E-02 0.22692161E+03</pdfrwt>
<totfact> 0.36350996E+04</totfact>
</mgrwt>
</event>
<event>
 4    1  0.4306168E+000  0.2788658E+03  0.7546771E-02  0.1096310E+00
         21   -1    0    0  503  502  0.00000000000E+00  0.00000000000E+00  0.30139579101E+03  0.30139579101E+03  0.00000000000E+00 0. -1.
         21   -1    0    0  501  503 -0.00000000000E+00 -0.00000000000E+00 -0.61055544061E+03  0.61055544061E+03  0.00000000000E+00 0.  1.
          6    1    1    2  501    0 -0.14375858323E+03  0.16483510811E+03 -0.50106164735E+03  0.57343606231E+03  0.17300000000E+03 0.  1.
         -6    1    1    2    0  502  0.14375858323E+03 -0.16483510811E+03  0.19190199774E+03  0.33851516931E+03  0.17300000000E+03 0. -1.
<mgrwt>
<rscale>  2 0.27886582E+03</rscale>
<asrwt>0</asrwt>
<pdfrwt beam="1">  1       21 0.46368584E-01 0.27886582E+03</pdfrwt>
<pdfrwt beam="2">  1       21 0.93931605E-01 0.27886582E+03</pdfrwt>
<totfact> 0.39923604E+03</totfact>
</mgrwt>
</event>
<event>
 4    1  0.4306168E+000  0.5013812E+03  0.7546771E-02  0.1013419E+00
         21   -1    0    0  503  502  0.00000000000E+00  0.00000000000E+00  0.68599524170E+03  0.68599524170E+03  0.00000000000E+00 0.  1.
         21   -1    0    0  501  503 -0.00000000000E+00 -0.00000000000E+00 -0.65908913472E+03  0.65908913472E+03  0.00000000000E+00 0.  1.
          6    1    1    2  501    0  0.28475498187E+02  0.46972678764E+03 -0.43468672309E+03  0.66357792026E+03  0.17300000000E+03 0.  1.
         -6    1    1    2    0  502 -0.28475498187E+02 -0.46972678764E+03  0.46159283007E+03  0.68150645617E+03  0.17300000000E+03 0.  1.
<mgrwt>
<rscale>  2 0.50138120E+03</rscale>
<asrwt>0</asrwt>
<pdfrwt beam="1">  1       21 0.10553773E+00 0.50138120E+03</pdfrwt>
<pdfrwt beam="2">  1       21 0.10139833E+00 0.50138120E+03</pdfrwt>
<totfact> 0.46864146E+02</totfact>
</mgrwt>
</event>
<event>
 4    1  0.4306168E+000  0.2046098E+03  0.7546771E-02  0.1145907E+00
         21   -1    0    0  503  502  0.00000000000E+00  0.00000000000E+00  0.85388881483E+03  0.85388881483E+03  0.00000000000E+00 0. -1.
         21   -1    0    0  501  503 -0.00000000000E+00 -0.00000000000E+00 -0.49119284026E+02  0.49119284026E+02  0.00000000000E+00 0. -1.
          6    1    1    2  501    0 -0.97795203349E+02  0.48706101947E+02  0.42175803159E+03  0.46876969119E+03  0.17300000000E+03 0. -1.
         -6    1    1    2    0  502  0.97795203349E+02 -0.48706101947E+02  0.38301149921E+03  0.43423840767E+03  0.17300000000E+03 0. -1.
<mgrwt>
<rscale>  2 0.20460984E+03</rscale>
<asrwt>0</asrwt>
<pdfrwt beam="1">  1       21 0.13136750E+00 0.20460984E+03</pdfrwt>
<pdfrwt beam="2">  1       21 0.75568136E-02 0.20460984E+03</pdfrwt>
<totfact> 0.55424372E+04</totfact>
</mgrwt>
</event>
<event>
 4    1  0.4306168E+000  0.2061595E+03  0.7546771E-02  0.1144644E+00
         21   -1    0    0  503  502  0.00000000000E+00  0.00000000000E+00  0.74421434466E+02  0.74421434466E+02  0.00000000000E+00 0. -1.
         21   -1    0    0  501  503 -0.00000000000E+00 -0.00000000000E+00 -0.57115729275E+03  0.57115729275E+03  0.00000000000E+00 0.  1.
          6    1    1    2  501    0  0.58321032882E+02  0.95767325577E+02 -0.25173369711E+03  0.32537912930E+03  0.17300000000E+03 0.  1.
         -6    1    1    2    0  502 -0.58321032882E+02 -0.95767325577E+02 -0.24500216118E+03  0.32019959792E+03  0.17300000000E+03 0.  1.
<mgrwt>
<rscale>  2 0.20615946E+03</rscale>
<asrwt>0</asrwt>
<pdfrwt beam="1">  1       21 0.11449452E-01 0.20615946E+03</pdfrwt>
<pdfrwt beam="2">  1       21 0.87870349E-01 0.20615946E+03</pdfrwt>
<totfact> 0.70414312E+04</totfact>
</mgrwt>
</event>
<event>
 4    1  0.4306168E+000  0.2738971E+03  0.7546771E-02  0.1099070E+00
         21   -1    0    0  503  502  0.00000000000E+00  0.00000000000E+00  0.18088124613E+04  0.18088124613E+04  0.00000000000E+00 0. -1.
         21   -1    0    0  501  503 -0.00000000000E+00 -0.00000000000E+00 -0.11257272548E+03  0.11257272548E+03  0.00000000000E+00 0.  1.
          6    1    1    2  501    0  0.52744797982E+02  0.20569054802E+03  0.84640695293E+02  0.28667693064E+03  0.17300000000E+03 0.  1.
         -6    1    1    2    0  502 -0.52744797982E+02 -0.20569054802E+03  0.16115990406E+04  0.16347082562E+04  0.17300000000E+03 0. -1.
<mgrwt>
<rscale>  2 0.27389709E+03</rscale>
<asrwt>0</asrwt>
<pdfrwt beam="1">  1       21 0.27827882E+00 0.27389709E+03</pdfrwt>
<pdfrwt beam="2">  1       21 0.17318882E-01 0.27389709E+03</pdfrwt>
<totfact> 0.12588096E+03</totfact>
</mgrwt>
</event>
<event>
 4    1  0.4306168E+000  0.2238934E+03  0.7546771E-02  0.1131013E+00
         21   -1    0    0  503  502  0.00000000000E+00  0.00000000000E+00  0.47754983112E+03  0.47754983112E+03  0.00000000000E+00 0. -1.
         21   -1    0    0  501  503 -0.00000000000E+00 -0.00000000000E+00 -0.22249793578E+03  0.22249793578E+03  0.00000000000E+00 0. -1.
          6    1    1    2  501    0  0.11150487524E+03  0.88124325810E+02 -0.12686749032E+03  0.25733945306E+03  0.17300000000E+03 0.  1.
         -6    1    1    2    0  502 -0.11150487524E+03 -0.88124325810E+02  0.38191938566E+03  0.44270831384E+03  0.17300000000E+03 0.  1.
<mgrwt>
<rscale>  2 0.22389335E+03</rscale>
<asrwt>0</asrwt>
<pdfrwt beam="1">  1       21 0.73469205E-01 0.22389335E+03</pdfrwt>
<pdfrwt beam="2">  1       21 0.34230452E-01 0.22389335E+03</pdfrwt>
<totfact> 0.13423802E+04</totfact>
</mgrwt>
</event>
<event>
 4    1  0.4306168E+000  0.2746807E+03  0.7546771E-02  0.1098630E+00
         21   -1    0    0  503  502  0.00000000000E+00  0.00000000000E+00  0.15777481833E+04  0.15777481833E+04  0.00000000000E+00 0. -1.
         21   -1    0    0  501  503 -0.00000000000E+00 -0.00000000000E+00 -0.55063075399E+02  0.55063075399E+02  0.00000000000E+00 0.  1.
          6    1    1    2  501    0  0.86504999731E+02  0.19503178064E+03  0.46526396466E+03  0.54029627728E+03  0.17300000000E+03 0.  1.
         -6    1    1    2    0  502 -0.86504999731E+02 -0.19503178064E+03  0.10574211433E+04  0.10925149814E+04  0.17300000000E+03 0. -1.
<mgrwt>
<rscale>  2 0.27468074E+03</rscale>
<asrwt>0</asrwt>
<pdfrwt beam="1">  1       21 0.24273046E+00 0.27468074E+03</pdfrwt>
<pdfrwt beam="2">  1       21 0.84712436E-02 0.27468074E+03</pdfrwt>
<totfact> 0.74509638E+03</totfact>
</mgrwt>
</event>
<event>
 4    1  0.4306168E+000  0.2103378E+03  0.7546771E-02  0.1141299E+00
         21   -1    0    0  501  502  0.00000000000E+00  0.00000000000E+00  0.13934730771E+03  0.13934730771E+03  0.00000000000E+00 0. -1.
         21   -1    0    0  502  503 -0.00000000000E+00 -0.00000000000E+00 -0.46563567269E+03  0.46563567269E+03  0.00000000000E+00 0.  1.
          6    1    1    2  501    0 -0.11341675941E+03 -0.38073968374E+02 -0.33376345675E+03  0.39451239961E+03  0.17300000000E+03 0.  1.
         -6    1    1    2    0  503  0.11341675941E+03  0.38073968374E+02  0.74750917721E+01  0.21047058079E+03  0.17300000000E+03 0. -1.
<mgrwt>
<rscale>  2 0.21033780E+03</rscale>
<asrwt>0</asrwt>
<pdfrwt beam="1">  1       21 0.21438048E-01 0.21033780E+03</pdfrwt>
<pdfrwt beam="2">  1       21 0.71636257E-01 0.21033780E+03</pdfrwt>
<totfact> 0.35349694E+04</totfact>
</mgrwt>
</event>
<event>
 4    1  0.4306168E+000  0.1862086E+03  0.7546771E-02  0.1161926E+00
         21   -1    0    0  501  502  0.00000000000E+00  0.00000000000E+00  0.58600523475E+02  0.58600523475E+02  0.00000000000E+00 0.  1.
         21   -1    0    0  502  503 -0.00000000000E+00 -0.00000000000E+00 -0.62127371680E+03  0.62127371680E+03  0.00000000000E+00 0. -1.
          6    1    1    2  501    0  0.38512934133E+02  0.57108612276E+02 -0.35550969061E+03  0.40132378425E+03  0.17300000000E+03 0. -1.
         -6    1    1    2    0  503 -0.38512934133E+02 -0.57108612276E+02 -0.20716350272E+03  0.27855045602E+03  0.17300000000E+03 0.  1.
<mgrwt>
<rscale>  2 0.18620859E+03</rscale>
<asrwt>0</asrwt>
<pdfrwt beam="1">  1       21 0.90154644E-02 0.18620859E+03</pdfrwt>
<pdfrwt beam="2">  1       21 0.95580580E-01 0.18620859E+03</pdfrwt>
<totfact> 0.89177937E+04</totfact>
</mgrwt>
</event>
<event>
 4    1  0.4306168E+000  0.3109646E+03  0.7546771E-02  0.1079884E+00
         21   -1    0    0  501  502  0.00000000000E+00  0.00000000000E+00  0.53645435954E+03  0.53645435954E+03  0.00000000000E+00 0.  1.
         21   -1    0    0  502  503 -0.00000000000E+00 -0.00000000000E+00 -0.21297406160E+03  0.21297406160E+03  0.00000000000E+00 0. -1.
          6    1    1    2  501    0 -0.21043476816E+03 -0.14995732102E+03  0.30860983418E+03  0.43810845636E+03  0.17300000000E+03 0.  1.
         -6    1    1    2    0  503  0.21043476816E+03  0.14995732102E+03  0.14870463755E+02  0.31131996478E+03  0.17300000000E+03 0. -1.
<mgrwt>
<rscale>  2 0.31096461E+03</rscale>
<asrwt>0</asrwt>
<pdfrwt beam="1">  1       21 0.82531440E-01 0.31096461E+03</pdfrwt>
<pdfrwt beam="2">  1       21 0.32765240E-01 0.31096461E+03</pdfrwt>
<totfact> 0.10767864E+04</totfact>
</mgrwt>
</event>
<event>
 4    1  0.4306168E+000  0.2410366E+03  0.7546771E-02  0.1119104E+00
         21   -1    0    0  503  502  0.00000000000E+00  0.00000000000E+00  0.80079036835E+02  0.80079036835E+02  0.00000000000E+00 0. -1.
         21   -1    0    0  501  503 -0.00000000000E+00 -0.00000000000E+00 -0.75952082399E+03  0.75952082399E+03  0.00000000000E+00 0.  1.
          6    1    1    2  501    0  0.16699029410E+03 -0.16848842951E+02 -0.42854712617E+03  0.49168209362E+03  0.17300000000E+03 0.  1.
         -6    1    1    2    0  502 -0.16699029410E+03  0.16848842951E+02 -0.25089466099E+03  0.34791776721E+03  0.17300000000E+03 0.  1.
<mgrwt>
<rscale>  2 0.24103660E+03</rscale>
<asrwt>0</asrwt>
<pdfrwt beam="1">  1       21 0.12319852E-01 0.24103660E+03</pdfrwt>
<pdfrwt beam="2">  1       21 0.11684935E+00 0.24103660E+03</pdfrwt>
<totfact> 0.30748775E+04</totfact>
</mgrwt>
</event>
<event>
 4    1  0.4306168E+000  0.2677289E+03  0.7546771E-02  0.1102586E+00
         21   -1    0    0  501  502  0.00000000000E+00  0.00000000000E+00  0.16909448766E+04  0.16909448766E+04  0.00000000000E+00 0. -1.
         21   -1    0    0  502  503 -0.00000000000E+00 -0.00000000000E+00 -0.47843159169E+02  0.47843159169E+02  0.00000000000E+00 0. -1.
          6    1    1    2  501    0  0.15183690381E+03 -0.13673090831E+03  0.11150720388E+04  0.11467625902E+04  0.17300000000E+03 0. -1.
         -6    1    1    2    0  503 -0.15183690381E+03  0.13673090831E+03  0.52802967864E+03  0.59202544554E+03  0.17300000000E+03 0. -1.
<mgrwt>
<rscale>  2 0.26772894E+03</rscale>
<asrwt>0</asrwt>
<pdfrwt beam="1">  1       21 0.26014532E+00 0.26772894E+03</pdfrwt>
<pdfrwt beam="2">  1       21 0.73604873E-02 0.26772894E+03</pdfrwt>
<totfact> 0.75363746E+03</totfact>
</mgrwt>
</event>
<event>
 4    1  0.4306168E+000  0.2102066E+03  0.7546771E-02  0.1141403E+00
         21   -1    0    0  503  502  0.00000000000E+00  0.00000000000E+00  0.75904370919E+02  0.75904370919E+02  0.00000000000E+00 0. -1.
         21   -1    0    0  501  503 -0.00000000000E+00 -0.00000000000E+00 -0.79964000434E+03  0.79964000434E+03  0.00000000000E+00 0.  1.
          6    1    1    2  501    0  0.10001057802E+03  0.65235576488E+02 -0.59018197200E+03  0.62649944631E+03  0.17300000000E+03 0.  1.
         -6    1    1    2    0  502 -0.10001057802E+03 -0.65235576488E+02 -0.13355366142E+03  0.24904492895E+03  0.17300000000E+03 0. -1.
<mgrwt>
<rscale>  2 0.21020656E+03</rscale>
<asrwt>0</asrwt>
<pdfrwt beam="1">  1       21 0.11677595E-01 0.21020656E+03</pdfrwt>
<pdfrwt beam="2">  1       21 0.12302154E+00 0.21020656E+03</pdfrwt>
<totfact> 0.30271182E+04</totfact>
</mgrwt>
</event>
<event>
 4    1  0.4306168E+000  0.1814937E+03  0.7546771E-02  0.1166365E+00
         21   -1    0    0  503  502  0.00000000000E+00  0.00000000000E+00  0.73511753236E+03  0.73511753236E+03  0.00000000000E+00 0.  1.
         21   -1    0    0  501  503 -0.00000000000E+00 -0.00000000000E+00 -0.47229491150E+02  0.47229491150E+02  0.00000000000E+00 0.  1.
          6    1    1    2  501    0  0.50326155738E+02 -0.21868710712E+02  0.25539073577E+03  0.31331196973E+03  0.17300000000E+03 0.  1.
         -6    1    1    2    0  502 -0.50326155738E+02  0.21868710712E+02  0.43249730545E+03  0.46903505378E+03  0.17300000000E+03 0.  1.
<mgrwt>
<rscale>  2 0.18149370E+03</rscale>
<asrwt>0</asrwt>
<pdfrwt beam="1">  1       21 0.11309500E+00 0.18149370E+03</pdfrwt>
<pdfrwt beam="2">  1       21 0.72660761E-02 0.18149370E+03</pdfrwt>
<totfact> 0.87020140E+04</totfact>
</mgrwt>
</event>
<event>
 4    1  0.4306168E+000  0.2021683E+03  0.7546771E-02  0.1147922E+00
         21   -1    0    0  501  502  0.00000000000E+00  0.00000000000E+00  0.56406282539E+03  0.56406282539E+03  0.00000000000E+00 0.  1.
         21   -1    0    0  502  503 -0.00000000000E+00 -0.00000000000E+00 -0.75004354523E+02  0.75004354523E+02  0.00000000000E+00 0.  1.
          6    1    1    2  501    0  0.43932938034E+02  0.94936451468E+02  0.18567794920E+03  0.27449650942E+03  0.17300000000E+03 0.  1.
         -6    1    1    2    0  503 -0.43932938034E+02 -0.94936451468E+02  0.30338052167E+03  0.36457067050E+03  0.17300000000E+03 0.  1.
<mgrwt>
<rscale>  2 0.20216833E+03</rscale>
<asrwt>0</asrwt>
<pdfrwt beam="1">  1       21 0.86778894E-01 0.20216833E+03</pdfrwt>
<pdfrwt beam="2">  1       21 0.11539132E-01 0.20216833E+03</pdfrwt>
<totfact> 0.71599355E+04</totfact>
</mgrwt>
</event>
<event>
 4    1  0.4306168E+000  0.1855316E+03  0.7546771E-02  0.1162554E+00
         21   -1    0    0  501  502  0.00000000000E+00  0.00000000000E+00  0.12161247155E+03  0.12161247155E+03  0.00000000000E+00 0. -1.
         21   -1    0    0  502  503 -0.00000000000E+00 -0.00000000000E+00 -0.15235022696E+04  0.15235022696E+04  0.00000000000E+00 0. -1.
          6    1    1    2  501    0  0.46906278111E+02  0.47883075737E+02  0.41279594841E+02  0.19006838985E+03  0.17300000000E+03 0. -1.
         -6    1    1    2    0  503 -0.46906278111E+02 -0.47883075737E+02 -0.14431693929E+04  0.14550463513E+04  0.17300000000E+03 0. -1.
<mgrwt>
<rscale>  2 0.18553164E+03</rscale>
<asrwt>0</asrwt>
<pdfrwt beam="1">  1       21 0.18709611E-01 0.18553164E+03</pdfrwt>
<pdfrwt beam="2">  1       21 0.23438496E+00 0.18553164E+03</pdfrwt>
<totfact> 0.21682707E+03</totfact>
</mgrwt>
</event>
<event>
 4    1  0.4306168E+000  0.4681616E+03  0.7546771E-02  0.1022440E+00
         21   -1    0    0  501  502  0.00000000000E+00  0.00000000000E+00  0.22515886137E+03  0.22515886137E+03  0.00000000000E+00 0.  1.
         21   -1    0    0  502  503 -0.00000000000E+00 -0.00000000000E+00 -0.14563923199E+04  0.14563923199E+04  0.00000000000E+00 0. -1.
          6    1    1    2  501    0  0.10174253139E+03  0.42295953424E+03 -0.13144471161E+03  0.48626435455E+03  0.17300000000E+03 0.  1.
         -6    1    1    2    0  503 -0.10174253139E+03 -0.42295953424E+03 -0.10997887470E+04  0.11952868268E+04  0.17300000000E+03 0. -1.
<mgrwt>
<rscale>  2 0.46816163E+03</rscale>
<asrwt>0</asrwt>
<pdfrwt beam="1">  1       21 0.34639824E-01 0.46816163E+03</pdfrwt>
<pdfrwt beam="2">  1       21 0.22406036E+00 0.46816163E+03</pdfrwt>
<totfact> 0.62105172E+02</totfact>
</mgrwt>
</event>
<event>
 4    1  0.4306168E+000  0.2074405E+03  0.7546771E-02  0.1143609E+00
         21   -1    0    0  503  502  0.00000000000E+00  0.00000000000E+00  0.10395532467E+03  0.10395532467E+03  0.00000000000E+00 0. -1.
         21   -1    0    0  501  503 -0.00000000000E+00 -0.00000000000E+00 -0.62507814164E+03  0.62507814164E+03  0.00000000000E+00 0.  1.
          6    1    1    2  501    0 -0.10911554687E+03  0.34588432523E+02 -0.47241251694E+03  0.51595072284E+03  0.17300000000E+03 0.  1.
         -6    1    1    2    0  502  0.10911554687E+03 -0.34588432523E+02 -0.48710300024E+02  0.21308274346E+03  0.17300000000E+03 0. -1.
<mgrwt>
<rscale>  2 0.20744050E+03</rscale>
<asrwt>0</asrwt>
<pdfrwt beam="1">  1       21 0.15993127E-01 0.20744050E+03</pdfrwt>
<pdfrwt beam="2">  1       21 0.96165868E-01 0.20744050E+03</pdfrwt>
<totfact> 0.31153973E+04</totfact>
</mgrwt>
</event>
<event>
 4    1  0.4306168E+000  0.1897441E+03  0.7546771E-02  0.1158692E+00
         21   -1    0    0  501  502  0.00000000000E+00  0.00000000000E+00  0.21277370792E+03  0.21277370792E+03  0.00000000000E+00 0. -1.
         21   -1    0    0  502  503 -0.00000000000E+00 -0.00000000000E+00 -0.18525821765E+03  0.18525821765E+03  0.00000000000E+00 0. -1.
          6    1    1    2  501    0 -0.24046895923E+02  0.74132037967E+02  0.72338158847E+02  0.20306555957E+03  0.17300000000E+03 0.  1.
         -6    1    1    2    0  503  0.24046895923E+02 -0.74132037967E+02 -0.44822668579E+02  0.19496636601E+03  0.17300000000E+03 0.  1.
<mgrwt>
<rscale>  2 0.18974407E+03</rscale>
<asrwt>0</asrwt>
<pdfrwt beam="1">  1       21 0.32734417E-01 0.18974407E+03</pdfrwt>
<pdfrwt beam="2">  1       21 0.28501264E-01 0.18974407E+03</pdfrwt>
<totfact> 0.10585800E+05</totfact>
</mgrwt>
</event>
<event>
 4    1  0.4306168E+000  0.1852702E+03  0.7546771E-02  0.1162798E+00
         21   -1    0    0  501  502  0.00000000000E+00  0.00000000000E+00  0.53635047273E+02  0.53635047273E+02  0.00000000000E+00 0. -1.
         21   -1    0    0  502  503 -0.00000000000E+00 -0.00000000000E+00 -0.87966347127E+03  0.87966347127E+03  0.00000000000E+00 0.  1.
          6    1    1    2  501    0 -0.10225163876E+02  0.65509479797E+02 -0.16942580870E+03  0.25105806216E+03  0.17300000000E+03 0. -1.
         -6    1    1    2    0  503  0.10225163876E+02 -0.65509479797E+02 -0.65660261529E+03  0.68224045638E+03  0.17300000000E+03 0.  1.
<mgrwt>
<rscale>  2 0.18527020E+03</rscale>
<asrwt>0</asrwt>
<pdfrwt beam="1">  1       21 0.82515457E-02 0.18527020E+03</pdfrwt>
<pdfrwt beam="2">  1       21 0.13533284E+00 0.18527020E+03</pdfrwt>
<totfact> 0.44567214E+04</totfact>
</mgrwt>
</event>
<event>
 4    1  0.4306168E+000  0.3662393E+03  0.7546771E-02  0.1056140E+00
         21   -1    0    0  501  502  0.00000000000E+00  0.00000000000E+00  0.31623768365E+03  0.31623768365E+03  0.00000000000E+00 0. -1.
         21   -1    0    0  502  503 -0.00000000000E+00 -0.00000000000E+00 -0.47557416579E+03  0.47557416579E+03  0.00000000000E+00 0. -1.
          6    1    1    2  501    0 -0.25522034814E+03 -0.19764817851E+03  0.50522366183E+02  0.36970763862E+03  0.17300000000E+03 0. -1.
         -6    1    1    2    0  503  0.25522034814E+03  0.19764817851E+03 -0.20985884832E+03  0.42210421082E+03  0.17300000000E+03 0. -1.
<mgrwt>
<rscale>  2 0.36623931E+03</rscale>
<asrwt>0</asrwt>
<pdfrwt beam="1">  1       21 0.48651951E-01 0.36623931E+03</pdfrwt>
<pdfrwt beam="2">  1       21 0.73165256E-01 0.36623931E+03</pdfrwt>
<totfact> 0.61651838E+03</totfact>
</mgrwt>
</event>
<event>
 4    1  0.4306168E+000  0.2508721E+03  0.7546771E-02  0.1112755E+00
         21   -1    0    0  501  502  0.00000000000E+00  0.00000000000E+00  0.15985633085E+04  0.15985633085E+04  0.00000000000E+00 0. -1.
         21   -1    0    0  502  503 -0.00000000000E+00 -0.00000000000E+00 -0.17335968944E+03  0.17335968944E+03  0.00000000000E+00 0.  1.
          6    1    1    2  501    0 -0.14434035278E+03 -0.11033439208E+03  0.14914899340E+04  0.15124414166E+04  0.17300000000E+03 0. -1.
         -6    1    1    2    0  503  0.14434035278E+03  0.11033439208E+03 -0.66286314893E+02  0.25948158135E+03  0.17300000000E+03 0.  1.
<mgrwt>
<rscale>  2 0.25087211E+03</rscale>
<asrwt>0</asrwt>
<pdfrwt beam="1">  1       21 0.24593281E+00 0.25087211E+03</pdfrwt>
<pdfrwt beam="2">  1       21 0.26670722E-01 0.25087211E+03</pdfrwt>
<totfact> 0.88225370E+02</totfact>
</mgrwt>
</event>
<event>
 4    1  0.4306168E+000  0.1968386E+03  0.7546771E-02  0.1152434E+00
         21   -1    0    0  501  502  0.00000000000E+00  0.00000000000E+00  0.15586371476E+03  0.15586371476E+03  0.00000000000E+00 0.  1.
         21   -1    0    0  502  503 -0.00000000000E+00 -0.00000000000E+00 -0.28467956190E+03  0.28467956190E+03  0.00000000000E+00 0. -1.
          6    1    1    2  501    0 -0.41073171081E+02  0.84435830214E+02  0.14025295681E+02  0.19733758822E+03  0.17300000000E+03 0.  1.
         -6    1    1    2    0  503  0.41073171081E+02 -0.84435830214E+02 -0.14284114281E+03  0.24320568844E+03  0.17300000000E+03 0.  1.
<mgrwt>
<rscale>  2 0.19683855E+03</rscale>
<asrwt>0</asrwt>
<pdfrwt beam="1">  1       21 0.23979033E-01 0.19683855E+03</pdfrwt>
<pdfrwt beam="2">  1       21 0.43796856E-01 0.19683855E+03</pdfrwt>
<totfact> 0.82002930E+04</totfact>
</mgrwt>
</event>
<event>
 4    1  0.4306168E+000  0.1778155E+03  0.7546771E-02  0.1169934E+00
         21   -1    0    0  503  502  0.00000000000E+00  0.00000000000E+00  0.33361008800E+03  0.33361008800E+03  0.00000000000E+00 0. -1.
         21   -1    0    0  501  503 -0.00000000000E+00 -0.00000000000E+00 -0.11924511907E+03  0.11924511907E+03  0.00000000000E+00 0.  1.
          6    1    1    2  501    0 -0.40027557237E+02  0.93354668442E+01  0.20975118758E+03  0.27497984830E+03  0.17300000000E+03 0. -1.
         -6    1    1    2    0  502  0.40027557237E+02 -0.93354668442E+01  0.46137813453E+01  0.17787535877E+03  0.17300000000E+03 0.  1.
<mgrwt>
<rscale>  2 0.17781551E+03</rscale>
<asrwt>0</asrwt>
<pdfrwt beam="1">  1       21 0.51324628E-01 0.17781551E+03</pdfrwt>
<pdfrwt beam="2">  1       21 0.18345403E-01 0.17781551E+03</pdfrwt>
<totfact> 0.98349607E+04</totfact>
</mgrwt>
</event>
<event>
 4    1  0.4306168E+000  0.2117352E+03  0.7546771E-02  0.1140199E+00
         21   -1    0    0  501  502  0.00000000000E+00  0.00000000000E+00  0.64469778139E+03  0.64469778139E+03  0.00000000000E+00 0.  1.
         21   -1    0    0  502  503 -0.00000000000E+00 -0.00000000000E+00 -0.15439557030E+03  0.15439557030E+03  0.00000000000E+00 0.  1.
          6    1    1    2  501    0 -0.10937639848E+03  0.54218165417E+02  0.54135596439E+03  0.58129001900E+03  0.17300000000E+03 0.  1.
         -6    1    1    2    0  503  0.10937639848E+03 -0.54218165417E+02 -0.51053753296E+02  0.21780333269E+03  0.17300000000E+03 0.  1.
<mgrwt>
<rscale>  2 0.21173523E+03</rscale>
<asrwt>0</asrwt>
<pdfrwt beam="1">  1       21 0.99184272E-01 0.21173523E+03</pdfrwt>
<pdfrwt beam="2">  1       21 0.23753165E-01 0.21173523E+03</pdfrwt>
<totfact> 0.13801869E+04</totfact>
</mgrwt>
</event>
<event>
 4    1  0.4306168E+000  0.2023901E+03  0.7546771E-02  0.1147738E+00
         21   -1    0    0  501  502  0.00000000000E+00  0.00000000000E+00  0.51531968156E+03  0.51531968156E+03  0.00000000000E+00 0. -1.
         21   -1    0    0  502  503 -0.00000000000E+00 -0.00000000000E+00 -0.13786823267E+03  0.13786823267E+03  0.00000000000E+00 0.  1.
          6    1    1    2  501    0  0.59271300226E+02  0.86716000587E+02  0.40125012518E+03  0.44940339868E+03  0.17300000000E+03 0. -1.
         -6    1    1    2    0  503 -0.59271300226E+02 -0.86716000587E+02 -0.23798676287E+02  0.20378451556E+03  0.17300000000E+03 0.  1.
<mgrwt>
<rscale>  2 0.20239010E+03</rscale>
<asrwt>0</asrwt>
<pdfrwt beam="1">  1       21 0.79279950E-01 0.20239010E+03</pdfrwt>
<pdfrwt beam="2">  1       21 0.21210497E-01 0.20239010E+03</pdfrwt>
<totfact> 0.28865763E+04</totfact>
</mgrwt>
</event>
<event>
 4    1  0.4306168E+000  0.1988255E+03  0.7546771E-02  0.1150734E+00
         21   -1    0    0  503  502  0.00000000000E+00  0.00000000000E+00  0.91219662581E+02  0.91219662581E+02  0.00000000000E+00 0. -1.
         21   -1    0    0  501  503 -0.00000000000E+00 -0.00000000000E+00 -0.74512068600E+03  0.74512068600E+03  0.00000000000E+00 0. -1.
          6    1    1    2  501    0  0.87377043055E+02  0.44360046704E+02 -0.59743712244E+03  0.62965282232E+03  0.17300000000E+03 0. -1.
         -6    1    1    2    0  502 -0.87377043055E+02 -0.44360046704E+02 -0.56463900985E+02  0.20668752626E+03  0.17300000000E+03 0. -1.
<mgrwt>
<rscale>  2 0.19882545E+03</rscale>
<asrwt>0</asrwt>
<pdfrwt beam="1">  1       21 0.14033794E-01 0.19882545E+03</pdfrwt>
<pdfrwt beam="2">  1       21 0.11463396E+00 0.19882545E+03</pdfrwt>
<totfact> 0.26059217E+04</totfact>
</mgrwt>
</event>
<event>
 4    1  0.4306168E+000  0.1905702E+03  0.7546771E-02  0.1157948E+00
         21   -1    0    0  503  502  0.00000000000E+00  0.00000000000E+00  0.38219205188E+03  0.38219205188E+03  0.00000000000E+00 0. -1.
         21   -1    0    0  501  503 -0.00000000000E+00 -0.00000000000E+00 -0.98185912910E+02  0.98185912910E+02  0.00000000000E+00 0. -1.
          6    1    1    2  501    0  0.46488890860E+02 -0.65013792069E+02  0.98893207052E+02  0.21470183170E+03  0.17300000000E+03 0.  1.
         -6    1    1    2    0  502 -0.46488890860E+02  0.65013792069E+02  0.18511293191E+03  0.26567613309E+03  0.17300000000E+03 0.  1.
<mgrwt>
<rscale>  2 0.19057022E+03</rscale>
<asrwt>0</asrwt>
<pdfrwt beam="1">  1       21 0.58798776E-01 0.19057022E+03</pdfrwt>
<pdfrwt beam="2">  1       21 0.15105525E-01 0.19057022E+03</pdfrwt>
<totfact> 0.10489054E+05</totfact>
</mgrwt>
</event>
<event>
 4    1  0.4306168E+000  0.1950184E+03  0.7546771E-02  0.1154011E+00
         21   -1    0    0  501  502  0.00000000000E+00  0.00000000000E+00  0.94527993096E+03  0.94527993096E+03  0.00000000000E+00 0.  1.
         21   -1    0    0  502  503 -0.00000000000E+00 -0.00000000000E+00 -0.41399758754E+02  0.41399758754E+02  0.00000000000E+00 0.  1.
          6    1    1    2  501    0 -0.76203363118E+02 -0.47918862947E+02  0.53473344896E+03  0.56918541040E+03  0.17300000000E+03 0.  1.
         -6    1    1    2    0  503  0.76203363118E+02  0.47918862947E+02  0.36914672325E+03  0.41749427932E+03  0.17300000000E+03 0.  1.
<mgrwt>
<rscale>  2 0.19501838E+03</rscale>
<asrwt>0</asrwt>
<pdfrwt beam="1">  1       21 0.14542767E+00 0.19501838E+03</pdfrwt>
<pdfrwt beam="2">  1       21 0.63691944E-02 0.19501838E+03</pdfrwt>
<totfact> 0.57624472E+04</totfact>
</mgrwt>
</event>
<event>
 4    1  0.4306168E+000  0.1982008E+03  0.7546771E-02  0.1151266E+00
         21   -1    0    0  503  502  0.00000000000E+00  0.00000000000E+00  0.55179629880E+03  0.55179629880E+03  0.00000000000E+00 0. -1.
         21   -1    0    0  501  503 -0.00000000000E+00 -0.00000000000E+00 -0.79512846627E+02  0.79512846627E+02  0.00000000000E+00 0. -1.
          6    1    1    2  501    0  0.51269172610E+02  0.82012257560E+02  0.13403025621E+03  0.23926480734E+03  0.17300000000E+03 0.  1.
         -6    1    1    2    0  502 -0.51269172610E+02 -0.82012257560E+02  0.33825319596E+03  0.39204433809E+03  0.17300000000E+03 0.  1.
<mgrwt>
<rscale>  2 0.19820075E+03</rscale>
<asrwt>0</asrwt>
<pdfrwt beam="1">  1       21 0.84891736E-01 0.19820075E+03</pdfrwt>
<pdfrwt beam="2">  1       21 0.12232746E-01 0.19820075E+03</pdfrwt>
<totfact> 0.67961536E+04</totfact>
</mgrwt>
</event>
<event>
 4    1  0.4306168E+000  0.1879480E+03  0.7546771E-02  0.1160325E+00
         21   -1    0    0  501  502  0.00000000000E+00  0.00000000000E+00  0.15711065714E+03  0.15711065714E+03  0.00000000000E+00 0. -1.
         21   -1    0    0  502  503 -0.00000000000E+00 -0.00000000000E+00 -0.24577468539E+03  0.24577468539E+03  0.00000000000E+00 0. -1.
          6    1    1    2  501    0  0.13294700691E+02 -0.72240512325E+02  0.14462554324E+02  0.18850359722E+03  0.17300000000E+03 0. -1.
         -6    1    1    2    0  503 -0.13294700691E+02  0.72240512325E+02 -0.10312658257E+03  0.21438174530E+03  0.17300000000E+03 0. -1.
<mgrwt>
<rscale>  2 0.18794797E+03</rscale>
<asrwt>0</asrwt>
<pdfrwt beam="1">  1       21 0.24170871E-01 0.18794797E+03</pdfrwt>
<pdfrwt beam="2">  1       21 0.37811490E-01 0.18794797E+03</pdfrwt>
<totfact> 0.10914323E+05</totfact>
</mgrwt>
</event>
<event>
 4    1  0.4306168E+000  0.1850026E+03  0.7546771E-02  0.1163047E+00
         21   -1    0    0  501  502  0.00000000000E+00  0.00000000000E+00  0.33831473406E+02  0.33831473406E+02  0.00000000000E+00 0. -1.
         21   -1    0    0  502  503 -0.00000000000E+00 -0.00000000000E+00 -0.10236668064E+04  0.10236668064E+04  0.00000000000E+00 0. -1.
          6    1    1    2  501    0  0.53681240975E+02  0.37620365028E+02 -0.43765469238E+03  0.47515007867E+03  0.17300000000E+03 0.  1.
         -6    1    1    2    0  503 -0.53681240975E+02 -0.37620365028E+02 -0.55218064060E+03  0.58234820112E+03  0.17300000000E+03 0.  1.
<mgrwt>
<rscale>  2 0.18500261E+03</rscale>
<asrwt>0</asrwt>
<pdfrwt beam="1">  1       21 0.52048414E-02 0.18500261E+03</pdfrwt>
<pdfrwt beam="2">  1       21 0.15748722E+00 0.18500261E+03</pdfrwt>
<totfact> 0.66266445E+04</totfact>
</mgrwt>
</event>
<event>
 4    1  0.4306168E+000  0.2174466E+03  0.7546771E-02  0.1135801E+00
         21   -1    0    0  501  502  0.00000000000E+00  0.00000000000E+00  0.38597509466E+03  0.38597509466E+03  0.00000000000E+00 0. -1.
         21   -1    0    0  502  503 -0.00000000000E+00 -0.00000000000E+00 -0.12254767370E+03  0.12254767370E+03  0.00000000000E+00 0. -1.
          6    1    1    2  501    0  0.10036780834E+03  0.85324934679E+02  0.13657753950E+03  0.25678096838E+03  0.17300000000E+03 0. -1.
         -6    1    1    2    0  503 -0.10036780834E+03 -0.85324934679E+02  0.12684988146E+03  0.25174179998E+03  0.17300000000E+03 0. -1.
<mgrwt>
<rscale>  2 0.21744664E+03</rscale>
<asrwt>0</asrwt>
<pdfrwt beam="1">  1       21 0.59380783E-01 0.21744664E+03</pdfrwt>
<pdfrwt beam="2">  1       21 0.18853488E-01 0.21744664E+03</pdfrwt>
<totfact> 0.67520143E+04</totfact>
</mgrwt>
</event>
<event>
 4    1  0.4306168E+000  0.1825249E+03  0.7546771E-02  0.1165382E+00
         21   -1    0    0  501  502  0.00000000000E+00  0.00000000000E+00  0.40247595075E+03  0.40247595075E+03  0.00000000000E+00 0.  1.
         21   -1    0    0  502  503 -0.00000000000E+00 -0.00000000000E+00 -0.14096580804E+03  0.14096580804E+03  0.00000000000E+00 0.  1.
          6    1    1    2  501    0 -0.54892070055E+02  0.19318832044E+02  0.30533307111E+03  0.35572973019E+03  0.17300000000E+03 0.  1.
         -6    1    1    2    0  503  0.54892070055E+02 -0.19318832044E+02 -0.43822928407E+02  0.18771202860E+03  0.17300000000E+03 0.  1.
<mgrwt>
<rscale>  2 0.18252495E+03</rscale>
<asrwt>0</asrwt>
<pdfrwt beam="1">  1       21 0.61919376E-01 0.18252495E+03</pdfrwt>
<pdfrwt beam="2">  1       21 0.21687048E-01 0.18252495E+03</pdfrwt>
<totfact> 0.48251314E+04</totfact>
</mgrwt>
</event>
<event>
 4    1  0.4306168E+000  0.1983224E+03  0.7546771E-02  0.1151162E+00
         21   -1    0    0  501  502  0.00000000000E+00  0.00000000000E+00  0.19008532340E+03  0.19008532340E+03  0.00000000000E+00 0.  1.
         21   -1    0    0  502  503 -0.00000000000E+00 -0.00000000000E+00 -0.31959979459E+03  0.31959979459E+03  0.00000000000E+00 0.  1.
          6    1    1    2  501    0  0.86402116105E+02  0.44016294884E+02  0.86563618263E+02  0.21639089604E+03  0.17300000000E+03 0.  1.
         -6    1    1    2    0  503 -0.86402116105E+02 -0.44016294884E+02 -0.21607808945E+03  0.29329422194E+03  0.17300000000E+03 0.  1.
<mgrwt>
<rscale>  2 0.19832236E+03</rscale>
<asrwt>0</asrwt>
<pdfrwt beam="1">  1       21 0.29243896E-01 0.19832236E+03</pdfrwt>
<pdfrwt beam="2">  1       21 0.49169199E-01 0.19832236E+03</pdfrwt>
<totfact> 0.44062269E+04</totfact>
</mgrwt>
</event>
<event>
 4    1  0.4306168E+000  0.3326474E+03  0.7546771E-02  0.1069971E+00
         21   -1    0    0  501  502  0.00000000000E+00  0.00000000000E+00  0.34833968184E+03  0.34833968184E+03  0.00000000000E+00 0.  1.
         21   -1    0    0  502  503 -0.00000000000E+00 -0.00000000000E+00 -0.32271786738E+03  0.32271786738E+03  0.00000000000E+00 0. -1.
          6    1    1    2  501    0 -0.37161712873E+02  0.28168115564E+03  0.54807860677E+02  0.33713227069E+03  0.17300000000E+03 0.  1.
         -6    1    1    2    0  503  0.37161712873E+02 -0.28168115564E+03 -0.29186046224E+02  0.33392527853E+03  0.17300000000E+03 0. -1.
<mgrwt>
<rscale>  2 0.33264736E+03</rscale>
<asrwt>0</asrwt>
<pdfrwt beam="1">  1       21 0.53590720E-01 0.33264736E+03</pdfrwt>
<pdfrwt beam="2">  1       21 0.49648903E-01 0.33264736E+03</pdfrwt>
<totfact> 0.11857059E+04</totfact>
</mgrwt>
</event>
<event>
 4    1  0.4306168E+000  0.2158253E+03  0.7546771E-02  0.1137034E+00
         21   -1    0    0  501  502  0.00000000000E+00  0.00000000000E+00  0.11314173308E+04  0.11314173308E+04  0.00000000000E+00 0.  1.
         21   -1    0    0  502  503 -0.00000000000E+00 -0.00000000000E+00 -0.66982647928E+02  0.66982647928E+02  0.00000000000E+00 0.  1.
          6    1    1    2  501    0  0.61818498811E+02  0.11326971223E+03  0.90418583357E+03  0.92958731495E+03  0.17300000000E+03 0.  1.
         -6    1    1    2    0  503 -0.61818498811E+02 -0.11326971223E+03  0.16024884932E+03  0.26881266379E+03  0.17300000000E+03 0.  1.
<mgrwt>
<rscale>  2 0.21582529E+03</rscale>
<asrwt>0</asrwt>
<pdfrwt beam="1">  1       21 0.17406419E+00 0.21582529E+03</pdfrwt>
<pdfrwt beam="2">  1       21 0.10305024E-01 0.21582529E+03</pdfrwt>
<totfact> 0.15124383E+04</totfact>
</mgrwt>
</event>
<event>
 4    1  0.4306168E+000  0.3690813E+03  0.7546771E-02  0.1055045E+00
         21   -1    0    0  503  502  0.00000000000E+00  0.00000000000E+00  0.21096408672E+04  0.21096408672E+04  0.00000000000E+00 0.  1.
         21   -1    0    0  501  503 -0.00000000000E+00 -0.00000000000E+00 -0.65545081255E+02  0.65545081255E+02  0.00000000000E+00 0. -1.
          6    1    1    2  501    0  0.32143971205E+03  0.54484209568E+02  0.11546521993E+04  0.12122057247E+04  0.17300000000E+03 0.  1.
         -6    1    1    2    0  502 -0.32143971205E+03 -0.54484209568E+02  0.88944358665E+03  0.96298022379E+03  0.17300000000E+03 0. -1.
<mgrwt>
<rscale>  2 0.36908132E+03</rscale>
<asrwt>0</asrwt>
<pdfrwt beam="1">  1       21 0.32456008E+00 0.36908132E+03</pdfrwt>
<pdfrwt beam="2">  1       21 0.10083860E-01 0.36908132E+03</pdfrwt>
<totfact> 0.16697234E+03</totfact>
</mgrwt>
</event>
<event>
 4    1  0.4306168E+000  0.2118246E+03  0.7546771E-02  0.1140129E+00
         21   -1    0    0  503  502  0.00000000000E+00  0.00000000000E+00  0.92007069358E+03  0.92007069358E+03  0.00000000000E+00 0.  1.
         21   -1    0    0  501  503 -0.00000000000E+00 -0.00000000000E+00 -0.10139454286E+03  0.10139454286E+03  0.00000000000E+00 0.  1.
          6    1    1    2  501    0 -0.94448604328E+02  0.77589340534E+02  0.41386765885E+02  0.21582981493E+03  0.17300000000E+03 0.  1.
         -6    1    1    2    0  502  0.94448604328E+02 -0.77589340534E+02  0.77728938483E+03  0.80563542151E+03  0.17300000000E+03 0.  1.
<mgrwt>
<rscale>  2 0.21182456E+03</rscale>
<asrwt>0</asrwt>
<pdfrwt beam="1">  1       21 0.14154933E+00 0.21182456E+03</pdfrwt>
<pdfrwt beam="2">  1       21 0.15599161E-01 0.21182456E+03</pdfrwt>
<totfact> 0.12531459E+04</totfact>
</mgrwt>
</event>
<event>
 4    1  0.4306168E+000  0.1819995E+03  0.7546771E-02  0.1165882E+00
         21   -1    0    0  501  502  0.00000000000E+00  0.00000000000E+00  0.77948043040E+03  0.77948043040E+03  0.00000000000E+00 0. -1.
         21   -1    0    0  502  503 -0.00000000000E+00 -0.00000000000E+00 -0.43347440660E+02  0.43347440660E+02  0.00000000000E+00 0. -1.
          6    1    1    2  501    0  0.46278279419E+02  0.32451861193E+02  0.42576980460E+03  0.46303750275E+03  0.17300000000E+03 0. -1.
         -6    1    1    2    0  503 -0.46278279419E+02 -0.32451861193E+02  0.31036318514E+03  0.35979036831E+03  0.17300000000E+03 0. -1.
<mgrwt>
<rscale>  2 0.18199946E+03</rscale>
<asrwt>0</asrwt>
<pdfrwt beam="1">  1       21 0.11992006E+00 0.18199946E+03</pdfrwt>
<pdfrwt beam="2">  1       21 0.66688376E-02 0.18199946E+03</pdfrwt>
<totfact> 0.87408161E+04</totfact>
</mgrwt>
</event>
<event>
 4    1  0.4306168E+000  0.2758414E+03  0.7546771E-02  0.1097982E+00
         21   -1    0    0  501  502  0.00000000000E+00  0.00000000000E+00  0.19588872028E+03  0.19588872028E+03  0.00000000000E+00 0.  1.
         21   -1    0    0  502  503 -0.00000000000E+00 -0.00000000000E+00 -0.43011254907E+03  0.43011254907E+03  0.00000000000E+00 0. -1.
          6    1    1    2  501    0  0.97218256865E+02 -0.19159354958E+03 -0.19669807683E+02  0.27654182151E+03  0.17300000000E+03 0. -1.
         -6    1    1    2    0  503 -0.97218256865E+02  0.19159354958E+03 -0.21455402111E+03  0.34945944784E+03  0.17300000000E+03 0.  1.
<mgrwt>
<rscale>  2 0.27584140E+03</rscale>
<asrwt>0</asrwt>
<pdfrwt beam="1">  1       21 0.30136726E-01 0.27584140E+03</pdfrwt>
<pdfrwt beam="2">  1       21 0.66171161E-01 0.27584140E+03</pdfrwt>
<totfact> 0.21215638E+04</totfact>
</mgrwt>
</event>
<event>
 4    1  0.4306168E+000  0.1736802E+03  0.7546771E-02  0.1174063E+00
         21   -1    0    0  503  502  0.00000000000E+00  0.00000000000E+00  0.57619060971E+02  0.57619060971E+02  0.00000000000E+00 0.  1.
         21   -1    0    0  501  503 -0.00000000000E+00 -0.00000000000E+00 -0.54002821174E+03  0.54002821174E+03  0.00000000000E+00 0.  1.
          6    1    1    2  501    0 -0.15355263671E+02  0.16802835980E+00 -0.29344877956E+03  0.34099413276E+03  0.17300000000E+03 0.  1.
         -6    1    1    2    0  502  0.15355263671E+02 -0.16802835980E+00 -0.18896037121E+03  0.25665313995E+03  0.17300000000E+03 0.  1.
<mgrwt>
<rscale>  2 0.17368020E+03</rscale>
<asrwt>0</asrwt>
<pdfrwt beam="1">  1       21 0.88644715E-02 0.17368020E+03</pdfrwt>
<pdfrwt beam="2">  1       21 0.83081258E-01 0.17368020E+03</pdfrwt>
<totfact> 0.12752637E+05</totfact>
</mgrwt>
</event>
<event>
 4    1  0.4306168E+000  0.2398976E+03  0.7546771E-02  0.1119861E+00
         21   -1    0    0  503  502  0.00000000000E+00  0.00000000000E+00  0.95464057528E+02  0.95464057528E+02  0.00000000000E+00 0. -1.
         21   -1    0    0  501  503 -0.00000000000E+00 -0.00000000000E+00 -0.10918119169E+04  0.10918119169E+04  0.00000000000E+00 0. -1.
          6    1    1    2  501    0  0.59742761983E+01  0.16609077990E+03 -0.89544207388E+03  0.92702068306E+03  0.17300000000E+03 0. -1.
         -6    1    1    2    0  502 -0.59742761983E+01 -0.16609077990E+03 -0.10090578551E+03  0.26025529138E+03  0.17300000000E+03 0. -1.
<mgrwt>
<rscale>  2 0.23989756E+03</rscale>
<asrwt>0</asrwt>
<pdfrwt beam="1">  1       21 0.14686778E-01 0.23989756E+03</pdfrwt>
<pdfrwt beam="2">  1       21 0.16797107E+00 0.23989756E+03</pdfrwt>
<totfact> 0.86811970E+03</totfact>
</mgrwt>
</event>
<event>
 4    1  0.4306168E+000  0.2104361E+03  0.7546771E-02  0.1141221E+00
         21   -1    0    0  501  502  0.00000000000E+00  0.00000000000E+00  0.29217029577E+02  0.29217029577E+02  0.00000000000E+00 0.  1.
         21   -1    0    0  502  503 -0.00000000000E+00 -0.00000000000E+00 -0.19974264473E+04  0.19974264473E+04  0.00000000000E+00 0.  1.
          6    1    1    2  501    0  0.11643398753E+03  0.28239565865E+02 -0.48645222983E+03  0.53001803596E+03  0.17300000000E+03 0.  1.
         -6    1    1    2    0  503 -0.11643398753E+03 -0.28239565865E+02 -0.14817571879E+04  0.14966254409E+04  0.17300000000E+03 0.  1.
<mgrwt>
<rscale>  2 0.21043609E+03</rscale>
<asrwt>0</asrwt>
<pdfrwt beam="1">  1       21 0.44949268E-02 0.21043609E+03</pdfrwt>
<pdfrwt beam="2">  1       21 0.30729643E+00 0.21043609E+03</pdfrwt>
<totfact> 0.97938761E+03</totfact>
</mgrwt>
</event>
<event>
 4    1  0.4306168E+000  0.2642838E+03  0.7546771E-02  0.1104596E+00
         21   -1    0    0  503  502  0.00000000000E+00  0.00000000000E+00  0.40183215436E+03  0.40183215436E+03  0.00000000000E+00 0. -1.
         21   -1    0    0  501  503 -0.00000000000E+00 -0.00000000000E+00 -0.19386356454E+03  0.19386356454E+03  0.00000000000E+00 0.  1.
          6    1    1    2  501    0  0.17383569875E+03  0.98478707856E+02  0.82100058928E+01  0.26441125214E+03  0.17300000000E+03 0.  1.
         -6    1    1    2    0  502 -0.17383569875E+03 -0.98478707856E+02  0.19975858393E+03  0.33128446676E+03  0.17300000000E+03 0.  1.
<mgrwt>
<rscale>  2 0.26428376E+03</rscale>
<asrwt>0</asrwt>
<pdfrwt beam="1">  1       21 0.61820331E-01 0.26428376E+03</pdfrwt>
<pdfrwt beam="2">  1       21 0.29825164E-01 0.26428376E+03</pdfrwt>
<totfact> 0.25256313E+04</totfact>
</mgrwt>
</event>
<event>
 4    1  0.4306168E+000  0.1880587E+03  0.7546771E-02  0.1160224E+00
         21   -1    0    0  503  502  0.00000000000E+00  0.00000000000E+00  0.86360659927E+02  0.86360659927E+02  0.00000000000E+00 0. -1.
         21   -1    0    0  501  503 -0.00000000000E+00 -0.00000000000E+00 -0.52157700558E+03  0.52157700558E+03  0.00000000000E+00 0.  1.
          6    1    1    2  501    0  0.76540791302E+01 -0.73338115714E+02 -0.35850372117E+03  0.40483451216E+03  0.17300000000E+03 0.  1.
         -6    1    1    2    0  502 -0.76540791302E+01  0.73338115714E+02 -0.76712624480E+02  0.20310315334E+03  0.17300000000E+03 0. -1.
<mgrwt>
<rscale>  2 0.18805867E+03</rscale>
<asrwt>0</asrwt>
<pdfrwt beam="1">  1       21 0.13286255E-01 0.18805867E+03</pdfrwt>
<pdfrwt beam="2">  1       21 0.80242617E-01 0.18805867E+03</pdfrwt>
<totfact> 0.66897753E+04</totfact>
</mgrwt>
</event>
<event>
 4    1  0.4306168E+000  0.2024957E+03  0.7546771E-02  0.1147650E+00
         21   -1    0    0  503  502  0.00000000000E+00  0.00000000000E+00  0.71242419851E+02  0.71242419851E+02  0.00000000000E+00 0.  1.
         21   -1    0    0  501  503 -0.00000000000E+00 -0.00000000000E+00 -0.82850484935E+03  0.82850484935E+03  0.00000000000E+00 0. -1.
          6    1    1    2  501    0 -0.29374806852E+02 -0.10105756086E+03 -0.62720381228E+03  0.65908203740E+03  0.17300000000E+03 0. -1.
         -6    1    1    2    0  502  0.29374806852E+02  0.10105756086E+03 -0.13005861722E+03  0.24066523180E+03  0.17300000000E+03 0.  1.
<mgrwt>
<rscale>  2 0.20249570E+03</rscale>
<asrwt>0</asrwt>
<pdfrwt beam="1">  1       21 0.10960373E-01 0.20249570E+03</pdfrwt>
<pdfrwt beam="2">  1       21 0.12746228E+00 0.20249570E+03</pdfrwt>
<totfact> 0.31148853E+04</totfact>
</mgrwt>
</event>
<event>
 4    1  0.4306168E+000  0.3420816E+03  0.7546771E-02  0.1065913E+00
         21   -1    0    0  501  502  0.00000000000E+00  0.00000000000E+00  0.31030208061E+03  0.31030208061E+03  0.00000000000E+00 0.  1.
         21   -1    0    0  502  503 -0.00000000000E+00 -0.00000000000E+00 -0.44965288342E+03  0.44965288342E+03  0.00000000000E+00 0. -1.
          6    1    1    2  501    0 -0.90614975906E+02 -0.28085540394E+03  0.82940250050E+02  0.35199277956E+03  0.17300000000E+03 0.  1.
         -6    1    1    2    0  503  0.90614975906E+02  0.28085540394E+03 -0.22229105285E+03  0.40796218447E+03  0.17300000000E+03 0. -1.
<mgrwt>
<rscale>  2 0.34208162E+03</rscale>
<asrwt>0</asrwt>
<pdfrwt beam="1">  1       21 0.47738782E-01 0.34208162E+03</pdfrwt>
<pdfrwt beam="2">  1       21 0.69177366E-01 0.34208162E+03</pdfrwt>
<totfact> 0.73477789E+03</totfact>
</mgrwt>
</event>
<event>
 4    1  0.4306168E+000  0.2290749E+03  0.7546771E-02  0.1127293E+00
         21   -1    0    0  501  502  0.00000000000E+00  0.00000000000E+00  0.31582377416E+03  0.31582377416E+03  0.00000000000E+00 0. -1.
         21   -1    0    0  502  503 -0.00000000000E+00 -0.00000000000E+00 -0.20843484522E+03  0.20843484522E+03  0.00000000000E+00 0.  1.
          6    1    1    2  501    0 -0.14898085897E+03 -0.18735906697E+02  0.17175455480E+03  0.28631269206E+03  0.17300000000E+03 0. -1.
         -6    1    1    2    0  503  0.14898085897E+03  0.18735906697E+02 -0.64365625854E+02  0.23794592732E+03  0.17300000000E+03 0.  1.
<mgrwt>
<rscale>  2 0.22907495E+03</rscale>
<asrwt>0</asrwt>
<pdfrwt beam="1">  1       21 0.48588273E-01 0.22907495E+03</pdfrwt>
<pdfrwt beam="2">  1       21 0.32066899E-01 0.22907495E+03</pdfrwt>
<totfact> 0.37148876E+04</totfact>
</mgrwt>
</event>
<event>
 4    1  0.4306168E+000  0.2501010E+03  0.7546771E-02  0.1113241E+00
         21   -1    0    0  501  502  0.00000000000E+00  0.00000000000E+00  0.20306196956E+03  0.20306196956E+03  0.00000000000E+00 0. -1.
         21   -1    0    0  502  503 -0.00000000000E+00 -0.00000000000E+00 -0.44536892020E+03  0.44536892020E+03  0.00000000000E+00 0. -1.
          6    1    1    2  501    0 -0.17177875620E+03  0.55799561932E+02  0.58882800215E+02  0.25693912967E+03  0.17300000000E+03 0. -1.
         -6    1    1    2    0  503  0.17177875620E+03 -0.55799561932E+02 -0.30118975085E+03  0.39149176008E+03  0.17300000000E+03 0. -1.
<mgrwt>
<rscale>  2 0.25010104E+03</rscale>
<asrwt>0</asrwt>
<pdfrwt beam="1">  1       21 0.31240303E-01 0.25010104E+03</pdfrwt>
<pdfrwt beam="2">  1       21 0.68518296E-01 0.25010104E+03</pdfrwt>
<totfact> 0.18520203E+04</totfact>
</mgrwt>
</event>
<event>
 4    1  0.4306168E+000  0.1945127E+03  0.7546771E-02  0.1154453E+00
         21   -1    0    0  503  502  0.00000000000E+00  0.00000000000E+00  0.88774636092E+02  0.88774636092E+02  0.00000000000E+00 0.  1.
         21   -1    0    0  501  503 -0.00000000000E+00 -0.00000000000E+00 -0.69788802371E+03  0.69788802371E+03  0.00000000000E+00 0. -1.
          6    1    1    2  501    0 -0.26853739725E+02 -0.84764866575E+02 -0.54997435464E+03  0.58335837759E+03  0.17300000000E+03 0. -1.
         -6    1    1    2    0  502  0.26853739725E+02  0.84764866575E+02 -0.59139032972E+02  0.20330428221E+03  0.17300000000E+03 0.  1.
<mgrwt>
<rscale>  2 0.19451274E+03</rscale>
<asrwt>0</asrwt>
<pdfrwt beam="1">  1       21 0.13657636E-01 0.19451274E+03</pdfrwt>
<pdfrwt beam="2">  1       21 0.10736739E+00 0.19451274E+03</pdfrwt>
<totfact> 0.32167115E+04</totfact>
</mgrwt>
</event>
<event>
 4    1  0.4306168E+000  0.1860640E+03  0.7546771E-02  0.1162060E+00
         21   -1    0    0  501  502  0.00000000000E+00  0.00000000000E+00  0.55404913749E+03  0.55404913749E+03  0.00000000000E+00 0. -1.
         21   -1    0    0  502  503 -0.00000000000E+00 -0.00000000000E+00 -0.64316044990E+02  0.64316044990E+02  0.00000000000E+00 0. -1.
          6    1    1    2  501    0  0.65957224337E+02 -0.18451549407E+02  0.29703322086E+03  0.35049757404E+03  0.17300000000E+03 0. -1.
         -6    1    1    2    0  503 -0.65957224337E+02  0.18451549407E+02  0.19269987164E+03  0.26786760844E+03  0.17300000000E+03 0. -1.
<mgrwt>
<rscale>  2 0.18606401E+03</rscale>
<asrwt>0</asrwt>
<pdfrwt beam="1">  1       21 0.85238326E-01 0.18606401E+03</pdfrwt>
<pdfrwt beam="2">  1       21 0.98947765E-02 0.18606401E+03</pdfrwt>
<totfact> 0.98691574E+04</totfact>
</mgrwt>
</event>
<event>
 4    1  0.4306168E+000  0.2556408E+03  0.7546771E-02  0.1109791E+00
         21   -1    0    0  501  502  0.00000000000E+00  0.00000000000E+00  0.11990579495E+04  0.11990579495E+04  0.00000000000E+00 0.  1.
         21   -1    0    0  502  503 -0.00000000000E+00 -0.00000000000E+00 -0.54561067252E+02  0.54561067252E+02  0.00000000000E+00 0.  1.
          6    1    1    2  501    0  0.13326773717E+03  0.13290189145E+03  0.59270462913E+03  0.64548507335E+03  0.17300000000E+03 0.  1.
         -6    1    1    2    0  503 -0.13326773717E+03 -0.13290189145E+03  0.55179225313E+03  0.60813394342E+03  0.17300000000E+03 0.  1.
<mgrwt>
<rscale>  2 0.25564077E+03</rscale>
<asrwt>0</asrwt>
<pdfrwt beam="1">  1       21 0.18447043E+00 0.25564077E+03</pdfrwt>
<pdfrwt beam="2">  1       21 0.83940112E-02 0.25564077E+03</pdfrwt>
<totfact> 0.17965397E+04</totfact>
</mgrwt>
</event>
<event>
 4    1  0.4306168E+000  0.2022751E+03  0.7546771E-02  0.1147834E+00
         21   -1    0    0  503  502  0.00000000000E+00  0.00000000000E+00  0.37077019629E+03  0.37077019629E+03  0.00000000000E+00 0. -1.
         21   -1    0    0  501  503 -0.00000000000E+00 -0.00000000000E+00 -0.11450507718E+03  0.11450507718E+03  0.00000000000E+00 0.  1.
          6    1    1    2  501    0 -0.65308678198E+02  0.81981721051E+02  0.17434210926E+03  0.26704006646E+03  0.17300000000E+03 0.  1.
         -6    1    1    2    0  502  0.65308678198E+02 -0.81981721051E+02  0.81923009846E+02  0.21823520701E+03  0.17300000000E+03 0.  1.
<mgrwt>
<rscale>  2 0.20227512E+03</rscale>
<asrwt>0</asrwt>
<pdfrwt beam="1">  1       21 0.57041568E-01 0.20227512E+03</pdfrwt>
<pdfrwt beam="2">  1       21 0.17616166E-01 0.20227512E+03</pdfrwt>
<totfact> 0.84001640E+04</totfact>
</mgrwt>
</event>
<event>
 4    1  0.4306168E+000  0.1973010E+03  0.7546771E-02  0.1152036E+00
         21   -1    0    0  503  502  0.00000000000E+00  0.00000000000E+00  0.80805774550E+03  0.80805774550E+03  0.00000000000E+00 0.  1.
         21   -1    0    0  501  503 -0.00000000000E+00 -0.00000000000E+00 -0.40524277947E+03  0.40524277947E+03  0.00000000000E+00 0.  1.
          6    1    1    2  501    0 -0.31668386582E+02  0.89419133614E+02 -0.36804365492E+03  0.41759286404E+03  0.17300000000E+03 0.  1.
         -6    1    1    2    0  502  0.31668386582E+02 -0.89419133614E+02  0.77085862096E+03  0.79570766093E+03  0.17300000000E+03 0.  1.
<mgrwt>
<rscale>  2 0.19730096E+03</rscale>
<asrwt>0</asrwt>
<pdfrwt beam="1">  1       21 0.12431658E+00 0.19730096E+03</pdfrwt>
<pdfrwt beam="2">  1       21 0.62345043E-01 0.19730096E+03</pdfrwt>
<totfact> 0.11484578E+03</totfact>
</mgrwt>
</event>
<event>
 4    1  0.4306168E+000  0.2040057E+03  0.7546771E-02  0.1146403E+00
         21   -1    0    0  501  502  0.00000000000E+00  0.00000000000E+00  0.12929343496E+03  0.12929343496E+03  0.00000000000E+00 0. -1.
         21   -1    0    0  502  503 -0.00000000000E+00 -0.00000000000E+00 -0.32304099805E+03  0.32304099805E+03  0.00000000000E+00 0.  1.
          6    1    1    2  501    0 -0.50369831639E+02 -0.95667255420E+02 -0.11037029148E+03  0.23194815140E+03  0.17300000000E+03 0.  1.
         -6    1    1    2    0  503  0.50369831639E+02  0.95667255420E+02 -0.83377271609E+02  0.22038628161E+03  0.17300000000E+03 0.  1.
<mgrwt>
<rscale>  2 0.20400574E+03</rscale>
<asrwt>0</asrwt>
<pdfrwt beam="1">  1       21 0.19891298E-01 0.20400574E+03</pdfrwt>
<pdfrwt beam="2">  1       21 0.49698615E-01 0.20400574E+03</pdfrwt>
<totfact> 0.89556401E+04</totfact>
</mgrwt>
</event>
<event>
 4    1  0.4306168E+000  0.2136466E+03  0.7546771E-02  0.1138710E+00
         21   -1    0    0  501  502  0.00000000000E+00  0.00000000000E+00  0.28279649238E+02  0.28279649238E+02  0.00000000000E+00 0.  1.
         21   -1    0    0  502  503 -0.00000000000E+00 -0.00000000000E+00 -0.16514758124E+04  0.16514758124E+04  0.00000000000E+00 0.  1.
          6    1    1    2  501    0  0.65799584035E+02  0.10670652076E+03 -0.68516949939E+03  0.71770614441E+03  0.17300000000E+03 0.  1.
         -6    1    1    2    0  503 -0.65799584035E+02 -0.10670652076E+03 -0.93802666381E+03  0.96204931727E+03  0.17300000000E+03 0.  1.
<mgrwt>
<rscale>  2 0.21364659E+03</rscale>
<asrwt>0</asrwt>
<pdfrwt beam="1">  1       21 0.43507137E-02 0.21364659E+03</pdfrwt>
<pdfrwt beam="2">  1       21 0.25407330E+00 0.21364659E+03</pdfrwt>
<totfact> 0.21033872E+04</totfact>
</mgrwt>
</event>
<event>
 4    1  0.4306168E+000  0.2626062E+03  0.7546771E-02  0.1105587E+00
         21   -1    0    0  501  502  0.00000000000E+00  0.00000000000E+00  0.85326797472E+03  0.85326797472E+03  0.00000000000E+00 0.  1.
         21   -1    0    0  502  503 -0.00000000000E+00 -0.00000000000E+00 -0.82752944011E+02  0.82752944011E+02  0.00000000000E+00 0. -1.
          6    1    1    2  501    0  0.88809032403E+02 -0.17648227780E+03  0.31374991702E+03  0.40914673290E+03  0.17300000000E+03 0. -1.
         -6    1    1    2    0  503 -0.88809032403E+02  0.17648227780E+03  0.45676511368E+03  0.52687418583E+03  0.17300000000E+03 0.  1.
<mgrwt>
<rscale>  2 0.26260624E+03</rscale>
<asrwt>0</asrwt>
<pdfrwt beam="1">  1       21 0.13127199E+00 0.26260624E+03</pdfrwt>
<pdfrwt beam="2">  1       21 0.12731223E-01 0.26260624E+03</pdfrwt>
<totfact> 0.21392362E+04</totfact>
</mgrwt>
</event>
<event>
 4    1  0.4306168E+000  0.3074308E+03  0.7546771E-02  0.1081584E+00
         21   -1    0    0  503  502  0.00000000000E+00  0.00000000000E+00  0.13455510665E+03  0.13455510665E+03  0.00000000000E+00 0. -1.
         21   -1    0    0  501  503 -0.00000000000E+00 -0.00000000000E+00 -0.96984212361E+03  0.96984212361E+03  0.00000000000E+00 0. -1.
          6    1    1    2  501    0 -0.24158312167E+03  0.78881551993E+02 -0.70760908268E+03  0.77150782096E+03  0.17300000000E+03 0. -1.
         -6    1    1    2    0  502  0.24158312167E+03 -0.78881551993E+02 -0.12767793429E+03  0.33288940930E+03  0.17300000000E+03 0. -1.
<mgrwt>
<rscale>  2 0.30743081E+03</rscale>
<asrwt>0</asrwt>
<pdfrwt beam="1">  1       21 0.20700786E-01 0.30743081E+03</pdfrwt>
<pdfrwt beam="2">  1       21 0.14920648E+00 0.30743081E+03</pdfrwt>
<totfact> 0.60856704E+03</totfact>
</mgrwt>
</event>
<event>
 4    1  0.4306168E+000  0.1735308E+03  0.7546771E-02  0.1174215E+00
         21   -1    0    0  501  502  0.00000000000E+00  0.00000000000E+00  0.80100068931E+03  0.80100068931E+03  0.00000000000E+00 0.  1.
         21   -1    0    0  502  503 -0.00000000000E+00 -0.00000000000E+00 -0.60919210099E+02  0.60919210099E+02  0.00000000000E+00 0.  1.
          6    1    1    2  501    0 -0.76547673893E+01 -0.11195677960E+02  0.63670891049E+03  0.65993270518E+03  0.17300000000E+03 0.  1.
         -6    1    1    2    0  503  0.76547673893E+01  0.11195677960E+02  0.10337256872E+03  0.20198719423E+03  0.17300000000E+03 0.  1.
<mgrwt>
<rscale>  2 0.17353080E+03</rscale>
<asrwt>0</asrwt>
<pdfrwt beam="1">  1       21 0.12323087E+00 0.17353080E+03</pdfrwt>
<pdfrwt beam="2">  1       21 0.93721867E-02 0.17353080E+03</pdfrwt>
<totfact> 0.45438478E+04</totfact>
</mgrwt>
</event>
<event>
 4    1  0.4306168E+000  0.1923587E+03  0.7546771E-02  0.1156351E+00
         21   -1    0    0  503  502  0.00000000000E+00  0.00000000000E+00  0.39331862780E+02  0.39331862780E+02  0.00000000000E+00 0.  1.
         21   -1    0    0  501  503 -0.00000000000E+00 -0.00000000000E+00 -0.28946888000E+04  0.28946888000E+04  0.00000000000E+00 0.  1.
          6    1    1    2  501    0  0.59440776679E+02 -0.59495115177E+02 -0.26329544728E+04  0.26399718049E+04  0.17300000000E+03 0.  1.
         -6    1    1    2    0  502 -0.59440776679E+02  0.59495115177E+02 -0.22240246444E+03  0.29404885793E+03  0.17300000000E+03 0.  1.
<mgrwt>
<rscale>  2 0.19235871E+03</rscale>
<asrwt>0</asrwt>
<pdfrwt beam="1">  1       21 0.60510532E-02 0.19235871E+03</pdfrwt>
<pdfrwt beam="2">  1       21 0.44533693E+00 0.19235871E+03</pdfrwt>
<totfact> 0.86834586E+02</totfact>
</mgrwt>
</event>
<event>
 4    1  0.4306168E+000  0.1963879E+03  0.7546771E-02  0.1152823E+00
         21   -1    0    0  503  502  0.00000000000E+00  0.00000000000E+00  0.10459782381E+04  0.10459782381E+04  0.00000000000E+00 0. -1.
         21   -1    0    0  501  503 -0.00000000000E+00 -0.00000000000E+00 -0.15573103264E+03  0.15573103264E+03  0.00000000000E+00 0. -1.
          6    1    1    2  501    0  0.33437848166E+02 -0.86724436175E+02 -0.79800293986E+02  0.21198184932E+03  0.17300000000E+03 0. -1.
         -6    1    1    2    0  502 -0.33437848166E+02  0.86724436175E+02  0.97004749950E+03  0.98972742147E+03  0.17300000000E+03 0. -1.
<mgrwt>
<rscale>  2 0.19638793E+03</rscale>
<asrwt>0</asrwt>
<pdfrwt beam="1">  1       21 0.16091972E+00 0.19638793E+03</pdfrwt>
<pdfrwt beam="2">  1       21 0.23958621E-01 0.19638793E+03</pdfrwt>
<totfact> 0.40573667E+03</totfact>
</mgrwt>
</event>
<event>
 4    1  0.4306168E+000  0.2042922E+03  0.7546771E-02  0.1146167E+00
         21   -1    0    0  503  502  0.00000000000E+00  0.00000000000E+00  0.16992323863E+03  0.16992323863E+03  0.00000000000E+00 0. -1.
         21   -1    0    0  501  503 -0.00000000000E+00 -0.00000000000E+00 -0.32989324507E+03  0.32989324507E+03  0.00000000000E+00 0.  1.
          6    1    1    2  501    0 -0.50614721004E+02 -0.96147991223E+02 -0.20630084691E+03  0.29033657302E+03  0.17300000000E+03 0.  1.
         -6    1    1    2    0  502  0.50614721004E+02  0.96147991223E+02  0.46330840469E+02  0.20947991068E+03  0.17300000000E+03 0. -1.
<mgrwt>
<rscale>  2 0.20429216E+03</rscale>
<asrwt>0</asrwt>
<pdfrwt beam="1">  1       21 0.26142037E-01 0.20429216E+03</pdfrwt>
<pdfrwt beam="2">  1       21 0.50752806E-01 0.20429216E+03</pdfrwt>
<totfact> 0.51070157E+04</totfact>
</mgrwt>
</event>
<event>
 4    1  0.4306168E+000  0.1880908E+03  0.7546771E-02  0.1160195E+00
         21   -1    0    0  503  502  0.00000000000E+00  0.00000000000E+00  0.90874396698E+02  0.90874396698E+02  0.00000000000E+00 0. -1.
         21   -1    0    0  501  503 -0.00000000000E+00 -0.00000000000E+00 -0.40419364326E+03  0.40419364326E+03  0.00000000000E+00 0.  1.
          6    1    1    2  501    0  0.73725225171E+02 -0.37063220020E+01 -0.20416266149E+03  0.27759779897E+03  0.17300000000E+03 0.  1.
         -6    1    1    2    0  502 -0.73725225171E+02  0.37063220020E+01 -0.10915658508E+03  0.21747024099E+03  0.17300000000E+03 0. -1.
<mgrwt>
<rscale>  2 0.18809079E+03</rscale>
<asrwt>0</asrwt>
<pdfrwt beam="1">  1       21 0.13980677E-01 0.18809079E+03</pdfrwt>
<pdfrwt beam="2">  1       21 0.62183636E-01 0.18809079E+03</pdfrwt>
<totfact> 0.10712881E+05</totfact>
</mgrwt>
</event>
<event>
 4    1  0.4306168E+000  0.2472613E+03  0.7546771E-02  0.1115048E+00
         21   -1    0    0  501  502  0.00000000000E+00  0.00000000000E+00  0.13410711085E+03  0.13410711085E+03  0.00000000000E+00 0. -1.
         21   -1    0    0  502  503 -0.00000000000E+00 -0.00000000000E+00 -0.45799490759E+03  0.45799490759E+03  0.00000000000E+00 0. -1.
          6    1    1    2  501    0 -0.16860080976E+03  0.52753402428E+02 -0.18201187985E+03  0.30702846598E+03  0.17300000000E+03 0. -1.
         -6    1    1    2    0  503  0.16860080976E+03 -0.52753402428E+02 -0.14187591689E+03  0.28507355246E+03  0.17300000000E+03 0. -1.
<mgrwt>
<rscale>  2 0.24726131E+03</rscale>
<asrwt>0</asrwt>
<pdfrwt beam="1">  1       21 0.20631863E-01 0.24726131E+03</pdfrwt>
<pdfrwt beam="2">  1       21 0.70460754E-01 0.24726131E+03</pdfrwt>
<totfact> 0.38742506E+04</totfact>
</mgrwt>
</event>
<event>
 4    1  0.4306168E+000  0.1757891E+03  0.7546771E-02  0.1171942E+00
         21   -1    0    0  503  502  0.00000000000E+00  0.00000000000E+00  0.51045439952E+03  0.51045439952E+03  0.00000000000E+00 0. -1.
         21   -1    0    0  501  503 -0.00000000000E+00 -0.00000000000E+00 -0.65166638390E+02  0.65166638390E+02  0.00000000000E+00 0. -1.
          6    1    1    2  501    0 -0.12470295589E+02 -0.28588475836E+02  0.14593813243E+03  0.22847264107E+03  0.17300000000E+03 0. -1.
         -6    1    1    2    0  502  0.12470295589E+02  0.28588475836E+02  0.29934962870E+03  0.34714839684E+03  0.17300000000E+03 0. -1.
<mgrwt>
<rscale>  2 0.17578910E+03</rscale>
<asrwt>0</asrwt>
<pdfrwt beam="1">  1       21 0.78531443E-01 0.17578910E+03</pdfrwt>
<pdfrwt beam="2">  1       21 0.10025637E-01 0.17578910E+03</pdfrwt>
<totfact> 0.11657980E+05</totfact>
</mgrwt>
</event>
<event>
 4    1  0.4306168E+000  0.2313918E+03  0.7546771E-02  0.1125664E+00
         21   -1    0    0  503  502  0.00000000000E+00  0.00000000000E+00  0.19868138187E+03  0.19868138187E+03  0.00000000000E+00 0. -1.
         21   -1    0    0  501  503 -0.00000000000E+00 -0.00000000000E+00 -0.57894392263E+03  0.57894392263E+03  0.00000000000E+00 0.  1.
          6    1    1    2  501    0  0.10167883183E+03  0.11521537362E+03 -0.47439524552E+03  0.52781911308E+03  0.17300000000E+03 0.  1.
         -6    1    1    2    0  502 -0.10167883183E+03 -0.11521537362E+03  0.94132704760E+02  0.24980619141E+03  0.17300000000E+03 0. -1.
<mgrwt>
<rscale>  2 0.23139180E+03</rscale>
<asrwt>0</asrwt>
<pdfrwt beam="1">  1       21 0.30566367E-01 0.23139180E+03</pdfrwt>
<pdfrwt beam="2">  1       21 0.89068295E-01 0.23139180E+03</pdfrwt>
<totfact> 0.10781424E+04</totfact>
</mgrwt>
</event>
<event>
 4    1  0.4306168E+000  0.2317719E+03  0.7546771E-02  0.1125399E+00
         21   -1    0    0  501  502  0.00000000000E+00  0.00000000000E+00  0.15040338734E+04  0.15040338734E+04  0.00000000000E+00 0.  1.
         21   -1    0    0  502  503 -0.00000000000E+00 -0.00000000000E+00 -0.38532499437E+02  0.38532499437E+02  0.00000000000E+00 0. -1.
          6    1    1    2  501    0 -0.14476786241E+03 -0.53211763171E+02  0.94127049726E+03  0.96938556557E+03  0.17300000000E+03 0. -1.
         -6    1    1    2    0  503  0.14476786241E+03  0.53211763171E+02  0.52423087666E+03  0.57318080722E+03  0.17300000000E+03 0.  1.
<mgrwt>
<rscale>  2 0.23177193E+03</rscale>
<asrwt>0</asrwt>
<pdfrwt beam="1">  1       21 0.23138978E+00 0.23177193E+03</pdfrwt>
<pdfrwt beam="2">  1       21 0.59280780E-02 0.23177193E+03</pdfrwt>
<totfact> 0.16736586E+04</totfact>
</mgrwt>
</event>
<event>
 4    1  0.4306168E+000  0.2003157E+03  0.7546771E-02  0.1149473E+00
         21   -1    0    0  501  502  0.00000000000E+00  0.00000000000E+00  0.35696321866E+02  0.35696321866E+02  0.00000000000E+00 0. -1.
         21   -1    0    0  502  503 -0.00000000000E+00 -0.00000000000E+00 -0.11609783707E+04  0.11609783707E+04  0.00000000000E+00 0. -1.
          6    1    1    2  501    0  0.11077186959E+02  0.10037273040E+03 -0.45600730447E+03  0.49806530778E+03  0.17300000000E+03 0. -1.
         -6    1    1    2    0  503 -0.11077186959E+02 -0.10037273040E+03 -0.66927474440E+03  0.69860938483E+03  0.17300000000E+03 0. -1.
<mgrwt>
<rscale>  2 0.20031572E+03</rscale>
<asrwt>0</asrwt>
<pdfrwt beam="1">  1       21 0.54917427E-02 0.20031572E+03</pdfrwt>
<pdfrwt beam="2">  1       21 0.17861203E+00 0.20031572E+03</pdfrwt>
<totfact> 0.42445576E+04</totfact>
</mgrwt>
</event>
<event>
 4    1  0.4306168E+000  0.1804724E+03  0.7546771E-02  0.1167347E+00
         21   -1    0    0  503  502  0.00000000000E+00  0.00000000000E+00  0.18249808270E+03  0.18249808270E+03  0.00000000000E+00 0.  1.
         21   -1    0    0  501  503 -0.00000000000E+00 -0.00000000000E+00 -0.41947133652E+03  0.41947133652E+03  0.00000000000E+00 0.  1.
          6    1    1    2  501    0 -0.30831858030E+02  0.41117806872E+02 -0.34662785806E+03  0.39079553413E+03  0.17300000000E+03 0.  1.
         -6    1    1    2    0  502  0.30831858030E+02 -0.41117806872E+02  0.10965460424E+03  0.21117388509E+03  0.17300000000E+03 0.  1.
<mgrwt>
<rscale>  2 0.18047237E+03</rscale>
<asrwt>0</asrwt>
<pdfrwt beam="1">  1       21 0.28076628E-01 0.18047237E+03</pdfrwt>
<pdfrwt beam="2">  1       21 0.64534051E-01 0.18047237E+03</pdfrwt>
<totfact> 0.27013419E+04</totfact>
</mgrwt>
</event>
<event>
 4    1  0.4306168E+000  0.2301517E+03  0.7546771E-02  0.1126533E+00
         21   -1    0    0  501  502  0.00000000000E+00  0.00000000000E+00  0.55264674701E+03  0.55264674701E+03  0.00000000000E+00 0. -1.
         21   -1    0    0  502  503 -0.00000000000E+00 -0.00000000000E+00 -0.48660967192E+03  0.48660967192E+03  0.00000000000E+00 0. -1.
          6    1    1    2  501    0 -0.50266495002E+02  0.14322734654E+03  0.49866748412E+03  0.54921676325E+03  0.17300000000E+03 0. -1.
         -6    1    1    2    0  503  0.50266495002E+02 -0.14322734654E+03 -0.43263040903E+03  0.49003965568E+03  0.17300000000E+03 0. -1.
<mgrwt>
<rscale>  2 0.23015167E+03</rscale>
<asrwt>0</asrwt>
<pdfrwt beam="1">  1       21 0.85022577E-01 0.23015167E+03</pdfrwt>
<pdfrwt beam="2">  1       21 0.74863026E-01 0.23015167E+03</pdfrwt>
<totfact> 0.18510252E+03</totfact>
</mgrwt>
</event>
<event>
 4    1  0.4306168E+000  0.5307857E+03  0.7546771E-02  0.1006042E+00
         21   -1    0    0  503  502  0.00000000000E+00  0.00000000000E+00  0.43633435811E+03  0.43633435811E+03  0.00000000000E+00 0. -1.
         21   -1    0    0  501  503 -0.00000000000E+00 -0.00000000000E+00 -0.65094218579E+03  0.65094218579E+03  0.00000000000E+00 0.  1.
          6    1    1    2  501    0 -0.49557811764E+03  0.78783414391E+02 -0.15617085209E+03  0.55328368141E+03  0.17300000000E+03 0.  1.
         -6    1    1    2    0  502  0.49557811764E+03 -0.78783414391E+02 -0.58436975585E+02  0.53399286248E+03  0.17300000000E+03 0. -1.
<mgrwt>
<rscale>  2 0.53078574E+03</rscale>
<asrwt>0</asrwt>
<pdfrwt beam="1">  1       21 0.67128363E-01 0.53078574E+03</pdfrwt>
<pdfrwt beam="2">  1       21 0.10014495E+00 0.53078574E+03</pdfrwt>
<totfact> 0.13826080E+03</totfact>
</mgrwt>
</event>
<event>
 4    1  0.4306168E+000  0.1979058E+03  0.7546771E-02  0.1151518E+00
         21   -1    0    0  503  502  0.00000000000E+00  0.00000000000E+00  0.28741778903E+03  0.28741778903E+03  0.00000000000E+00 0. -1.
         21   -1    0    0  501  503 -0.00000000000E+00 -0.00000000000E+00 -0.14906405455E+03  0.14906405455E+03  0.00000000000E+00 0. -1.
          6    1    1    2  501    0 -0.96036403673E+02 -0.38345687075E+01  0.52420068447E+01  0.19797518376E+03  0.17300000000E+03 0. -1.
         -6    1    1    2    0  502  0.96036403673E+02  0.38345687075E+01  0.13311172764E+03  0.23850665983E+03  0.17300000000E+03 0. -1.
<mgrwt>
<rscale>  2 0.19790577E+03</rscale>
<asrwt>0</asrwt>
<pdfrwt beam="1">  1       21 0.44218121E-01 0.19790577E+03</pdfrwt>
<pdfrwt beam="2">  1       21 0.22932932E-01 0.19790577E+03</pdfrwt>
<totfact> 0.87473730E+04</totfact>
</mgrwt>
</event>
<event>
 4    1  0.4306168E+000  0.1823002E+03  0.7546771E-02  0.1165595E+00
         21   -1    0    0  503  502  0.00000000000E+00  0.00000000000E+00  0.36392913370E+03  0.36392913370E+03  0.00000000000E+00 0. -1.
         21   -1    0    0  501  503 -0.00000000000E+00 -0.00000000000E+00 -0.91631284323E+02  0.91631284323E+02  0.00000000000E+00 0. -1.
          6    1    1    2  501    0 -0.12016232046E+02  0.56213509722E+02  0.12283414096E+03  0.21982168841E+03  0.17300000000E+03 0. -1.
         -6    1    1    2    0  502  0.12016232046E+02 -0.56213509722E+02  0.14946370841E+03  0.23573872961E+03  0.17300000000E+03 0. -1.
<mgrwt>
<rscale>  2 0.18230016E+03</rscale>
<asrwt>0</asrwt>
<pdfrwt beam="1">  1       21 0.55989097E-01 0.18230016E+03</pdfrwt>
<pdfrwt beam="2">  1       21 0.14097121E-01 0.18230016E+03</pdfrwt>
<totfact> 0.13235977E+05</totfact>
</mgrwt>
</event>
<event>
 4    1  0.4306168E+000  0.2330848E+03  0.7546771E-02  0.1124487E+00
         21   -1    0    0  501  502  0.00000000000E+00  0.00000000000E+00  0.49051399893E+02  0.49051399893E+02  0.00000000000E+00 0.  1.
         21   -1    0    0  502  503 -0.00000000000E+00 -0.00000000000E+00 -0.11169933848E+04  0.11169933848E+04  0.00000000000E+00 0. -1.
          6    1    1    2  501    0  0.14784666539E+03 -0.50407071295E+02 -0.48045819286E+03  0.53401178301E+03  0.17300000000E+03 0.  1.
         -6    1    1    2    0  503 -0.14784666539E+03  0.50407071295E+02 -0.58748379204E+03  0.63203300168E+03  0.17300000000E+03 0.  1.
<mgrwt>
<rscale>  2 0.23308477E+03</rscale>
<asrwt>0</asrwt>
<pdfrwt beam="1">  1       21 0.75463694E-02 0.23308477E+03</pdfrwt>
<pdfrwt beam="2">  1       21 0.17184513E+00 0.23308477E+03</pdfrwt>
<totfact> 0.26809892E+04</totfact>
</mgrwt>
</event>
<event>
 4    1  0.4306168E+000  0.1815448E+03  0.7546771E-02  0.1166316E+00
         21   -1    0    0  503  502  0.00000000000E+00  0.00000000000E+00  0.13743805566E+03  0.13743805566E+03  0.00000000000E+00 0.  1.
         21   -1    0    0  501  503 -0.00000000000E+00 -0.00000000000E+00 -0.24357491870E+03  0.24357491870E+03  0.00000000000E+00 0.  1.
          6    1    1    2  501    0  0.55038054418E+02 -0.55931409220E+00 -0.29371651366E+02  0.18390539462E+03  0.17300000000E+03 0.  1.
         -6    1    1    2    0  502 -0.55038054418E+02  0.55931409220E+00 -0.76765211676E+02  0.19710757974E+03  0.17300000000E+03 0.  1.
<mgrwt>
<rscale>  2 0.18154476E+03</rscale>
<asrwt>0</asrwt>
<pdfrwt beam="1">  1       21 0.21144316E-01 0.18154476E+03</pdfrwt>
<pdfrwt beam="2">  1       21 0.37473064E-01 0.18154476E+03</pdfrwt>
<totfact> 0.14336865E+05</totfact>
</mgrwt>
</event>
<event>
 4    1  0.4306168E+000  0.2980037E+03  0.7546771E-02  0.1086243E+00
         21   -1    0    0  503  502  0.00000000000E+00  0.00000000000E+00  0.41290696459E+03  0.41290696459E+03  0.00000000000E+00 0. -1.
         21   -1    0    0  501  503 -0.00000000000E+00 -0.00000000000E+00 -0.51345614467E+03  0.51345614467E+03  0.00000000000E+00 0. -1.
          6    1    1    2  501    0  0.21260531972E+03 -0.11694530617E+03 -0.40336409236E+03  0.50150654793E+03  0.17300000000E+03 0. -1.
         -6    1    1    2    0  502 -0.21260531972E+03  0.11694530617E+03  0.30281491228E+03  0.42485656134E+03  0.17300000000E+03 0. -1.
<mgrwt>
<rscale>  2 0.29800374E+03</rscale>
<asrwt>0</asrwt>
<pdfrwt beam="1">  1       21 0.63524148E-01 0.29800374E+03</pdfrwt>
<pdfrwt beam="2">  1       21 0.78993253E-01 0.29800374E+03</pdfrwt>
<totfact> 0.30152924E+03</totfact>
</mgrwt>
</event>
<event>
 4    1  0.4306168E+000  0.2452896E+03  0.7546771E-02  0.1116318E+00
         21   -1    0    0  503  502  0.00000000000E+00  0.00000000000E+00  0.31953925728E+02  0.31953925728E+02  0.00000000000E+00 0. -1.
         21   -1    0    0  501  503 -0.00000000000E+00 -0.00000000000E+00 -0.18921490388E+04  0.18921490388E+04  0.00000000000E+00 0.  1.
          6    1    1    2  501    0 -0.12081141856E+03  0.12507040247E+03 -0.86294475164E+03  0.89712911490E+03  0.17300000000E+03 0.  1.
         -6    1    1    2    0  502  0.12081141856E+03 -0.12507040247E+03 -0.99725036139E+03  0.10269738496E+04  0.17300000000E+03 0. -1.
<mgrwt>
<rscale>  2 0.24528963E+03</rscale>
<asrwt>0</asrwt>
<pdfrwt beam="1">  1       21 0.49159866E-02 0.24528963E+03</pdfrwt>
<pdfrwt beam="2">  1       21 0.29109997E+00 0.24528963E+03</pdfrwt>
<totfact> 0.10116679E+04</totfact>
</mgrwt>
</event>
<event>
 4    1  0.4306168E+000  0.1922894E+03  0.7546771E-02  0.1156412E+00
         21   -1    0    0  501  502  0.00000000000E+00  0.00000000000E+00  0.21917576978E+03  0.21917576978E+03  0.00000000000E+00 0. -1.
         21   -1    0    0  502  503 -0.00000000000E+00 -0.00000000000E+00 -0.19585646366E+03  0.19585646366E+03  0.00000000000E+00 0. -1.
          6    1    1    2  501    0 -0.30652796708E+02 -0.78144913244E+02  0.88929431865E+02  0.21185765330E+03  0.17300000000E+03 0. -1.
         -6    1    1    2    0  503  0.30652796708E+02  0.78144913244E+02 -0.65610125743E+02  0.20317458013E+03  0.17300000000E+03 0. -1.
<mgrwt>
<rscale>  2 0.19228942E+03</rscale>
<asrwt>0</asrwt>
<pdfrwt beam="1">  1       21 0.33719349E-01 0.19228942E+03</pdfrwt>
<pdfrwt beam="2">  1       21 0.30131764E-01 0.19228942E+03</pdfrwt>
<totfact> 0.89532322E+04</totfact>
</mgrwt>
</event>
<event>
 4    1  0.4306168E+000  0.1920433E+03  0.7546771E-02  0.1156631E+00
         21   -1    0    0  501  502  0.00000000000E+00  0.00000000000E+00  0.36448914485E+02  0.36448914485E+02  0.00000000000E+00 0.  1.
         21   -1    0    0  502  503 -0.00000000000E+00 -0.00000000000E+00 -0.18034703595E+04  0.18034703595E+04  0.00000000000E+00 0.  1.
          6    1    1    2  501    0  0.73417483003E+02  0.39515844634E+02 -0.27400990620E+03  0.33460731834E+03  0.17300000000E+03 0.  1.
         -6    1    1    2    0  503 -0.73417483003E+02 -0.39515844634E+02 -0.14930115388E+04  0.15053119556E+04  0.17300000000E+03 0.  1.
<mgrwt>
<rscale>  2 0.19204330E+03</rscale>
<asrwt>0</asrwt>
<pdfrwt beam="1">  1       21 0.56075233E-02 0.19204330E+03</pdfrwt>
<pdfrwt beam="2">  1       21 0.27745708E+00 0.19204330E+03</pdfrwt>
<totfact> 0.10194424E+04</totfact>
</mgrwt>
</event>
<event>
 4    1  0.4306168E+000  0.1928656E+03  0.7546771E-02  0.1155902E+00
         21   -1    0    0  501  502  0.00000000000E+00  0.00000000000E+00  0.12813196715E+03  0.12813196715E+03  0.00000000000E+00 0. -1.
         21   -1    0    0  502  503 -0.00000000000E+00 -0.00000000000E+00 -0.30017674784E+03  0.30017674784E+03  0.00000000000E+00 0. -1.
          6    1    1    2  501    0 -0.33594903044E+02  0.78355187109E+02 -0.12486151057E+03  0.22975541273E+03  0.17300000000E+03 0. -1.
         -6    1    1    2    0  503  0.33594903044E+02 -0.78355187109E+02 -0.47183270123E+02  0.19855330226E+03  0.17300000000E+03 0. -1.
<mgrwt>
<rscale>  2 0.19286563E+03</rscale>
<asrwt>0</asrwt>
<pdfrwt beam="1">  1       21 0.19712610E-01 0.19286563E+03</pdfrwt>
<pdfrwt beam="2">  1       21 0.46181038E-01 0.19286563E+03</pdfrwt>
<totfact> 0.10654398E+05</totfact>
</mgrwt>
</event>
<event>
 4    1  0.4306168E+000  0.2051334E+03  0.7546771E-02  0.1145479E+00
         21   -1    0    0  503  502  0.00000000000E+00  0.00000000000E+00  0.18643171176E+03  0.18643171176E+03  0.00000000000E+00 0.  1.
         21   -1    0    0  501  503 -0.00000000000E+00 -0.00000000000E+00 -0.29209922063E+03  0.29209922063E+03  0.00000000000E+00 0.  1.
          6    1    1    2  501    0 -0.94005475382E+02 -0.57564438058E+02 -0.16690081051E+03  0.26445335029E+03  0.17300000000E+03 0.  1.
         -6    1    1    2    0  502  0.94005475382E+02  0.57564438058E+02  0.61233301641E+02  0.21407758211E+03  0.17300000000E+03 0.  1.
<mgrwt>
<rscale>  2 0.20513336E+03</rscale>
<asrwt>0</asrwt>
<pdfrwt beam="1">  1       21 0.28681802E-01 0.20513336E+03</pdfrwt>
<pdfrwt beam="2">  1       21 0.44938341E-01 0.20513336E+03</pdfrwt>
<totfact> 0.54933835E+04</totfact>
</mgrwt>
</event>
<event>
 4    1  0.4306168E+000  0.1985612E+03  0.7546771E-02  0.1150959E+00
         21   -1    0    0  503  502  0.00000000000E+00  0.00000000000E+00  0.55107073052E+03  0.55107073052E+03  0.00000000000E+00 0. -1.
         21   -1    0    0  501  503 -0.00000000000E+00 -0.00000000000E+00 -0.71812289956E+02  0.71812289956E+02  0.00000000000E+00 0. -1.
          6    1    1    2  501    0  0.23469856929E+02  0.94587060620E+02  0.22064088225E+03  0.29683150969E+03  0.17300000000E+03 0. -1.
         -6    1    1    2    0  502 -0.23469856929E+02 -0.94587060620E+02  0.25861755831E+03  0.32605151079E+03  0.17300000000E+03 0. -1.
<mgrwt>
<rscale>  2 0.19856119E+03</rscale>
<asrwt>0</asrwt>
<pdfrwt beam="1">  1       21 0.84780110E-01 0.19856119E+03</pdfrwt>
<pdfrwt beam="2">  1       21 0.11048045E-01 0.19856119E+03</pdfrwt>
<totfact> 0.81755778E+04</totfact>
</mgrwt>
</event>
<event>
 4    1  0.4306168E+000  0.2133509E+03  0.7546771E-02  0.1138940E+00
         21   -1    0    0  501  502  0.00000000000E+00  0.00000000000E+00  0.19800369789E+04  0.19800369789E+04  0.00000000000E+00 0. -1.
         21   -1    0    0  502  503 -0.00000000000E+00 -0.00000000000E+00 -0.63896329466E+02  0.63896329466E+02  0.00000000000E+00 0. -1.
          6    1    1    2  501    0 -0.11932778479E+03 -0.36749023384E+02  0.17757826903E+04  0.17885532629E+04  0.17300000000E+03 0. -1.
         -6    1    1    2    0  503  0.11932778479E+03  0.36749023384E+02  0.14035795912E+03  0.25538004548E+03  0.17300000000E+03 0. -1.
<mgrwt>
<rscale>  2 0.21335091E+03</rscale>
<asrwt>0</asrwt>
<pdfrwt beam="1">  1       21 0.30462103E+00 0.21335091E+03</pdfrwt>
<pdfrwt beam="2">  1       21 0.98302060E-02 0.21335091E+03</pdfrwt>
<totfact> 0.26199023E+03</totfact>
</mgrwt>
</event>
<event>
 4    1  0.4306168E+000  0.3438187E+03  0.7546771E-02  0.1065181E+00
         21   -1    0    0  503  502  0.00000000000E+00  0.00000000000E+00  0.83955838906E+02  0.83955838906E+02  0.00000000000E+00 0. -1.
         21   -1    0    0  501  503 -0.00000000000E+00 -0.00000000000E+00 -0.22722436447E+04  0.22722436447E+04  0.00000000000E+00 0.  1.
          6    1    1    2  501    0 -0.28565586139E+02 -0.29574706665E+03 -0.18206984471E+04  0.18528772639E+04  0.17300000000E+03 0.  1.
         -6    1    1    2    0  502  0.28565586139E+02  0.29574706665E+03 -0.36758935875E+03  0.50332221967E+03  0.17300000000E+03 0. -1.
<mgrwt>
<rscale>  2 0.34381873E+03</rscale>
<asrwt>0</asrwt>
<pdfrwt beam="1">  1       21 0.12916282E-01 0.34381873E+03</pdfrwt>
<pdfrwt beam="2">  1       21 0.34957598E+00 0.34381873E+03</pdfrwt>
<totfact> 0.76822002E+02</totfact>
</mgrwt>
</event>
<event>
 4    1  0.4306168E+000  0.2166550E+03  0.7546771E-02  0.1136402E+00
         21   -1    0    0  501  502  0.00000000000E+00  0.00000000000E+00  0.51770254620E+02  0.51770254620E+02  0.00000000000E+00 0. -1.
         21   -1    0    0  502  503 -0.00000000000E+00 -0.00000000000E+00 -0.90680748119E+03  0.90680748119E+03  0.00000000000E+00 0. -1.
          6    1    1    2  501    0  0.11081197912E+03  0.68782990691E+02 -0.42198415336E+03  0.47435221114E+03  0.17300000000E+03 0. -1.
         -6    1    1    2    0  503 -0.11081197912E+03 -0.68782990691E+02 -0.43305307321E+03  0.48422552467E+03  0.17300000000E+03 0. -1.
<mgrwt>
<rscale>  2 0.21665501E+03</rscale>
<asrwt>0</asrwt>
<pdfrwt beam="1">  1       21 0.79646547E-02 0.21665501E+03</pdfrwt>
<pdfrwt beam="2">  1       21 0.13950884E+00 0.21665501E+03</pdfrwt>
<totfact> 0.43086260E+04</totfact>
</mgrwt>
</event>
<event>
 4    1  0.4306168E+000  0.2399113E+03  0.7546771E-02  0.1119852E+00
         21   -1    0    0  501  502  0.00000000000E+00  0.00000000000E+00  0.11684034655E+03  0.11684034655E+03  0.00000000000E+00 0. -1.
         21   -1    0    0  502  503 -0.00000000000E+00 -0.00000000000E+00 -0.60708042403E+03  0.60708042403E+03  0.00000000000E+00 0.  1.
          6    1    1    2  501    0 -0.15314617870E+03 -0.64611944073E+02 -0.87948941765E+02  0.25552391615E+03  0.17300000000E+03 0. -1.
         -6    1    1    2    0  503  0.15314617870E+03  0.64611944073E+02 -0.40229113572E+03  0.46839685443E+03  0.17300000000E+03 0.  1.
<mgrwt>
<rscale>  2 0.23991135E+03</rscale>
<asrwt>0</asrwt>
<pdfrwt beam="1">  1       21 0.17975437E-01 0.23991135E+03</pdfrwt>
<pdfrwt beam="2">  1       21 0.93396991E-01 0.23991135E+03</pdfrwt>
<totfact> 0.26445258E+04</totfact>
</mgrwt>
</event>
<event>
 4    1  0.4306168E+000  0.1906598E+03  0.7546771E-02  0.1157868E+00
         21   -1    0    0  501  502  0.00000000000E+00  0.00000000000E+00  0.35029704246E+02  0.35029704246E+02  0.00000000000E+00 0. -1.
         21   -1    0    0  502  503 -0.00000000000E+00 -0.00000000000E+00 -0.13298123198E+04  0.13298123198E+04  0.00000000000E+00 0. -1.
          6    1    1    2  501    0 -0.19890065448E+02  0.77630722895E+02 -0.32756458003E+03  0.37901147467E+03  0.17300000000E+03 0. -1.
         -6    1    1    2    0  503  0.19890065448E+02 -0.77630722895E+02 -0.96721803548E+03  0.98583054934E+03  0.17300000000E+03 0. -1.
<mgrwt>
<rscale>  2 0.19065976E+03</rscale>
<asrwt>0</asrwt>
<pdfrwt beam="1">  1       21 0.53891850E-02 0.19065976E+03</pdfrwt>
<pdfrwt beam="2">  1       21 0.20458652E+00 0.19065976E+03</pdfrwt>
<totfact> 0.29770256E+04</totfact>
</mgrwt>
</event>
<event>
 4    1  0.4306168E+000  0.2156146E+03  0.7546771E-02  0.1137195E+00
         21   -1    0    0  503  502  0.00000000000E+00  0.00000000000E+00  0.12959340605E+03  0.12959340605E+03  0.00000000000E+00 0. -1.
         21   -1    0    0  501  503 -0.00000000000E+00 -0.00000000000E+00 -0.37301815065E+03  0.37301815065E+03  0.00000000000E+00 0. -1.
          6    1    1    2  501    0  0.64224257281E+02 -0.11151634750E+03 -0.17088847858E+03  0.27512274187E+03  0.17300000000E+03 0. -1.
         -6    1    1    2    0  502 -0.64224257281E+02  0.11151634750E+03 -0.72536266022E+02  0.22748881483E+03  0.17300000000E+03 0. -1.
<mgrwt>
<rscale>  2 0.21561459E+03</rscale>
<asrwt>0</asrwt>
<pdfrwt beam="1">  1       21 0.19937447E-01 0.21561459E+03</pdfrwt>
<pdfrwt beam="2">  1       21 0.57387408E-01 0.21561459E+03</pdfrwt>
<totfact> 0.65497194E+04</totfact>
</mgrwt>
</event>
<event>
 4    1  0.4306168E+000  0.1954312E+03  0.7546771E-02  0.1153652E+00
         21   -1    0    0  503  502  0.00000000000E+00  0.00000000000E+00  0.29286440047E+03  0.29286440047E+03  0.00000000000E+00 0. -1.
         21   -1    0    0  501  503 -0.00000000000E+00 -0.00000000000E+00 -0.13219398296E+03  0.13219398296E+03  0.00000000000E+00 0.  1.
          6    1    1    2  501    0 -0.79336370808E+02  0.44385672766E+02  0.55667250136E+02  0.20320479920E+03  0.17300000000E+03 0.  1.
         -6    1    1    2    0  502  0.79336370808E+02 -0.44385672766E+02  0.10500316737E+03  0.22185358423E+03  0.17300000000E+03 0. -1.
<mgrwt>
<rscale>  2 0.19543118E+03</rscale>
<asrwt>0</asrwt>
<pdfrwt beam="1">  1       21 0.45056061E-01 0.19543118E+03</pdfrwt>
<pdfrwt beam="2">  1       21 0.20337536E-01 0.19543118E+03</pdfrwt>
<totfact> 0.10563073E+05</totfact>
</mgrwt>
</event>
<event>
 4    1  0.4306168E+000  0.1772973E+03  0.7546771E-02  0.1170445E+00
         21   -1    0    0  503  502  0.00000000000E+00  0.00000000000E+00  0.31219527688E+03  0.31219527688E+03  0.00000000000E+00 0. -1.
         21   -1    0    0  501  503 -0.00000000000E+00 -0.00000000000E+00 -0.24066852221E+03  0.24066852221E+03  0.00000000000E+00 0.  1.
          6    1    1    2  501    0 -0.34809136618E+02  0.17136703445E+02 -0.17505681010E+03  0.24915703755E+03  0.17300000000E+03 0.  1.
         -6    1    1    2    0  502  0.34809136618E+02 -0.17136703445E+02  0.24658356477E+03  0.30370676155E+03  0.17300000000E+03 0. -1.
<mgrwt>
<rscale>  2 0.17729733E+03</rscale>
<asrwt>0</asrwt>
<pdfrwt beam="1">  1       21 0.48030043E-01 0.17729733E+03</pdfrwt>
<pdfrwt beam="2">  1       21 0.37025926E-01 0.17729733E+03</pdfrwt>
<totfact> 0.29388223E+04</totfact>
</mgrwt>
</event>
<event>
 4    1  0.4306168E+000  0.2097839E+03  0.7546771E-02  0.1141737E+00
         21   -1    0    0  501  502  0.00000000000E+00  0.00000000000E+00  0.92075717384E+02  0.92075717384E+02  0.00000000000E+00 0.  1.
         21   -1    0    0  502  503 -0.00000000000E+00 -0.00000000000E+00 -0.53369896985E+03  0.53369896985E+03  0.00000000000E+00 0.  1.
          6    1    1    2  501    0 -0.28647132568E+01 -0.11862582908E+03 -0.11970348936E+03  0.24153306041E+03  0.17300000000E+03 0.  1.
         -6    1    1    2    0  503  0.28647132568E+01  0.11862582908E+03 -0.32191976311E+03  0.38424162683E+03  0.17300000000E+03 0.  1.
<mgrwt>
<rscale>  2 0.20978392E+03</rscale>
<asrwt>0</asrwt>
<pdfrwt beam="1">  1       21 0.14165495E-01 0.20978392E+03</pdfrwt>
<pdfrwt beam="2">  1       21 0.82107536E-01 0.20978392E+03</pdfrwt>
<totfact> 0.55975152E+04</totfact>
</mgrwt>
</event>
<event>
 4    1  0.4306168E+000  0.2059448E+03  0.7546771E-02  0.1144818E+00
         21   -1    0    0  501  502  0.00000000000E+00  0.00000000000E+00  0.24631837934E+03  0.24631837934E+03  0.00000000000E+00 0. -1.
         21   -1    0    0  502  503 -0.00000000000E+00 -0.00000000000E+00 -0.17821928307E+03  0.17821928307E+03  0.00000000000E+00 0. -1.
          6    1    1    2  501    0 -0.85679082502E+02 -0.71717313407E+02  0.73096143325E+02  0.21853220447E+03  0.17300000000E+03 0. -1.
         -6    1    1    2    0  503  0.85679082502E+02  0.71717313407E+02 -0.49970470555E+01  0.20600545794E+03  0.17300000000E+03 0. -1.
<mgrwt>
<rscale>  2 0.20594484E+03</rscale>
<asrwt>0</asrwt>
<pdfrwt beam="1">  1       21 0.37895135E-01 0.20594484E+03</pdfrwt>
<pdfrwt beam="2">  1       21 0.27418351E-01 0.20594484E+03</pdfrwt>
<totfact> 0.84730564E+04</totfact>
</mgrwt>
</event>
<event>
 4    1  0.4306168E+000  0.2023554E+03  0.7546771E-02  0.1147767E+00
         21   -1    0    0  503  502  0.00000000000E+00  0.00000000000E+00  0.42909029697E+02  0.42909029697E+02  0.00000000000E+00 0.  1.
         21   -1    0    0  501  503 -0.00000000000E+00 -0.00000000000E+00 -0.98481498250E+03  0.98481498250E+03  0.00000000000E+00 0.  1.
          6    1    1    2  501    0  0.52397065095E+02 -0.90957484611E+02 -0.38048659908E+03  0.43094984455E+03  0.17300000000E+03 0.  1.
         -6    1    1    2    0  502 -0.52397065095E+02  0.90957484611E+02 -0.56141935373E+03  0.59677416766E+03  0.17300000000E+03 0.  1.
<mgrwt>
<rscale>  2 0.20235542E+03</rscale>
<asrwt>0</asrwt>
<pdfrwt beam="1">  1       21 0.66013897E-02 0.20235542E+03</pdfrwt>
<pdfrwt beam="2">  1       21 0.15150999E+00 0.20235542E+03</pdfrwt>
<totfact> 0.48449279E+04</totfact>
</mgrwt>
</event>
<event>
 4    1  0.4306168E+000  0.1848908E+03  0.7546771E-02  0.1163152E+00
         21   -1    0    0  503  502  0.00000000000E+00  0.00000000000E+00  0.80508202109E+02  0.80508202109E+02  0.00000000000E+00 0.  1.
         21   -1    0    0  501  503 -0.00000000000E+00 -0.00000000000E+00 -0.58667357239E+03  0.58667357239E+03  0.00000000000E+00 0.  1.
          6    1    1    2  501    0 -0.61454846610E+02 -0.21883644246E+02 -0.42841361950E+03  0.46660778115E+03  0.17300000000E+03 0.  1.
         -6    1    1    2    0  502  0.61454846610E+02  0.21883644246E+02 -0.77751750777E+02  0.20057399334E+03  0.17300000000E+03 0.  1.
<mgrwt>
<rscale>  2 0.18489076E+03</rscale>
<asrwt>0</asrwt>
<pdfrwt beam="1">  1       21 0.12385878E-01 0.18489076E+03</pdfrwt>
<pdfrwt beam="2">  1       21 0.90257471E-01 0.18489076E+03</pdfrwt>
<totfact> 0.58079705E+04</totfact>
</mgrwt>
</event>
<event>
 4    1  0.4306168E+000  0.1753866E+03  0.7546771E-02  0.1172344E+00
         21   -1    0    0  501  502  0.00000000000E+00  0.00000000000E+00  0.13273437169E+03  0.13273437169E+03  0.00000000000E+00 0.  1.
         21   -1    0    0  502  503 -0.00000000000E+00 -0.00000000000E+00 -0.23271688468E+03  0.23271688468E+03  0.00000000000E+00 0. -1.
          6    1    1    2  501    0  0.19531298657E+02  0.21212955968E+02 -0.61802719184E+02  0.18595708437E+03  0.17300000000E+03 0. -1.
         -6    1    1    2    0  503 -0.19531298657E+02 -0.21212955968E+02 -0.38179793811E+02  0.17949417200E+03  0.17300000000E+03 0. -1.
<mgrwt>
<rscale>  2 0.17538660E+03</rscale>
<asrwt>0</asrwt>
<pdfrwt beam="1">  1       21 0.20420673E-01 0.17538660E+03</pdfrwt>
<pdfrwt beam="2">  1       21 0.35802597E-01 0.17538660E+03</pdfrwt>
<totfact> 0.16791022E+05</totfact>
</mgrwt>
</event>
<event>
 4    1  0.4306168E+000  0.2003468E+03  0.7546771E-02  0.1149447E+00
         21   -1    0    0  503  502  0.00000000000E+00  0.00000000000E+00  0.71520979181E+03  0.71520979181E+03  0.00000000000E+00 0.  1.
         21   -1    0    0  501  503 -0.00000000000E+00 -0.00000000000E+00 -0.78174501606E+02  0.78174501606E+02  0.00000000000E+00 0.  1.
          6    1    1    2  501    0 -0.10098930426E+03 -0.33139094693E+01  0.10782349180E+03  0.22751862991E+03  0.17300000000E+03 0.  1.
         -6    1    1    2    0  502  0.10098930426E+03  0.33139094693E+01  0.52921179840E+03  0.56586566351E+03  0.17300000000E+03 0.  1.
<mgrwt>
<rscale>  2 0.20034675E+03</rscale>
<asrwt>0</asrwt>
<pdfrwt beam="1">  1       21 0.11003227E+00 0.20034675E+03</pdfrwt>
<pdfrwt beam="2">  1       21 0.12026847E-01 0.20034675E+03</pdfrwt>
<totfact> 0.37982900E+04</totfact>
</mgrwt>
</event>
<event>
 4    1  0.4306168E+000  0.2709863E+03  0.7546771E-02  0.1100716E+00
         21   -1    0    0  501  502  0.00000000000E+00  0.00000000000E+00  0.79444390848E+02  0.79444390848E+02  0.00000000000E+00 0.  1.
         21   -1    0    0  502  503 -0.00000000000E+00 -0.00000000000E+00 -0.93571840873E+03  0.93571840873E+03  0.00000000000E+00 0.  1.
          6    1    1    2  501    0 -0.14315645925E+03 -0.15169315817E+03 -0.37216330976E+03  0.46036845590E+03  0.17300000000E+03 0.  1.
         -6    1    1    2    0  503  0.14315645925E+03  0.15169315817E+03 -0.48411070812E+03  0.55479434368E+03  0.17300000000E+03 0.  1.
<mgrwt>
<rscale>  2 0.27098632E+03</rscale>
<asrwt>0</asrwt>
<pdfrwt beam="1">  1       21 0.12222215E-01 0.27098632E+03</pdfrwt>
<pdfrwt beam="2">  1       21 0.14395667E+00 0.27098632E+03</pdfrwt>
<totfact> 0.18050891E+04</totfact>
</mgrwt>
</event>
<event>
 4    1  0.4306168E+000  0.4819590E+03  0.7546771E-02  0.1018598E+00
         21   -1    0    0  501  502  0.00000000000E+00  0.00000000000E+00  0.39747471441E+04  0.39747471441E+04  0.00000000000E+00 0.  1.
         21   -1    0    0  502  503 -0.00000000000E+00 -0.00000000000E+00 -0.60512034119E+02  0.60512034119E+02  0.00000000000E+00 0. -1.
          6    1    1    2  501    0 -0.44303113549E+03  0.77967330714E+02  0.15837711858E+04  0.16554804923E+04  0.17300000000E+03 0. -1.
         -6    1    1    2    0  503  0.44303113549E+03 -0.77967330714E+02  0.23304639242E+04  0.23797786859E+04  0.17300000000E+03 0.  1.
<mgrwt>
<rscale>  2 0.48195901E+03</rscale>
<asrwt>0</asrwt>
<pdfrwt beam="1">  1       21 0.61149936E+00 0.48195901E+03</pdfrwt>
<pdfrwt beam="2">  1       21 0.93095468E-02 0.48195901E+03</pdfrwt>
<totfact> 0.18561215E+01</totfact>
</mgrwt>
</event>
<event>
 4    1  0.4306168E+000  0.2094169E+03  0.7546771E-02  0.1142029E+00
         21   -1    0    0  501  502  0.00000000000E+00  0.00000000000E+00  0.11505201012E+03  0.11505201012E+03  0.00000000000E+00 0.  1.
         21   -1    0    0  502  503 -0.00000000000E+00 -0.00000000000E+00 -0.38203741428E+03  0.38203741428E+03  0.00000000000E+00 0. -1.
          6    1    1    2  501    0 -0.20239286508E+02 -0.11626179508E+03 -0.14527278279E+03  0.25487176213E+03  0.17300000000E+03 0. -1.
         -6    1    1    2    0  503  0.20239286508E+02  0.11626179508E+03 -0.12171262138E+03  0.24221766227E+03  0.17300000000E+03 0.  1.
<mgrwt>
<rscale>  2 0.20941689E+03</rscale>
<asrwt>0</asrwt>
<pdfrwt beam="1">  1       21 0.17700309E-01 0.20941689E+03</pdfrwt>
<pdfrwt beam="2">  1       21 0.58774987E-01 0.20941689E+03</pdfrwt>
<totfact> 0.77865357E+04</totfact>
</mgrwt>
</event>
<event>
 4    1  0.4306168E+000  0.4111725E+03  0.7546771E-02  0.1039978E+00
         21   -1    0    0  503  502  0.00000000000E+00  0.00000000000E+00  0.61886832268E+03  0.61886832268E+03  0.00000000000E+00 0. -1.
         21   -1    0    0  501  503 -0.00000000000E+00 -0.00000000000E+00 -0.35814230129E+03  0.35814230129E+03  0.00000000000E+00 0.  1.
          6    1    1    2  501    0  0.77406989509E+02 -0.36488621346E+03 -0.10756917828E+03  0.42501049271E+03  0.17300000000E+03 0.  1.
         -6    1    1    2    0  502 -0.77406989509E+02  0.36488621346E+03  0.36829519968E+03  0.55200013126E+03  0.17300000000E+03 0. -1.
<mgrwt>
<rscale>  2 0.41117246E+03</rscale>
<asrwt>0</asrwt>
<pdfrwt beam="1">  1       21 0.95210511E-01 0.41117246E+03</pdfrwt>
<pdfrwt beam="2">  1       21 0.55098816E-01 0.41117246E+03</pdfrwt>
<totfact> 0.25185930E+03</totfact>
</mgrwt>
</event>
<event>
 4    1  0.4306168E+000  0.2042084E+03  0.7546771E-02  0.1146236E+00
         21   -1    0    0  503  502  0.00000000000E+00  0.00000000000E+00  0.98772962016E+03  0.98772962016E+03  0.00000000000E+00 0.  1.
         21   -1    0    0  501  503 -0.00000000000E+00 -0.00000000000E+00 -0.45418200016E+02  0.45418200016E+02  0.00000000000E+00 0.  1.
          6    1    1    2  501    0  0.43731895208E+02 -0.99295446708E+02  0.33405780651E+03  0.39152992540E+03  0.17300000000E+03 0.  1.
         -6    1    1    2    0  502 -0.43731895208E+02  0.99295446708E+02  0.60825361363E+03  0.64161789477E+03  0.17300000000E+03 0.  1.
<mgrwt>
<rscale>  2 0.20420838E+03</rscale>
<asrwt>0</asrwt>
<pdfrwt beam="1">  1       21 0.15195839E+00 0.20420838E+03</pdfrwt>
<pdfrwt beam="2">  1       21 0.69874161E-02 0.20420838E+03</pdfrwt>
<totfact> 0.43533473E+04</totfact>
</mgrwt>
</event>
<event>
 4    1  0.4306168E+000  0.2001073E+03  0.7546771E-02  0.1149649E+00
         21   -1    0    0  501  502  0.00000000000E+00  0.00000000000E+00  0.97886214521E+02  0.97886214521E+02  0.00000000000E+00 0. -1.
         21   -1    0    0  502  503 -0.00000000000E+00 -0.00000000000E+00 -0.68026520244E+03  0.68026520244E+03  0.00000000000E+00 0.  1.
          6    1    1    2  501    0 -0.75737637479E+02 -0.66164537312E+02 -0.45531499207E+02  0.20522196069E+03  0.17300000000E+03 0. -1.
         -6    1    1    2    0  503  0.75737637479E+02  0.66164537312E+02 -0.53684748872E+03  0.57292945628E+03  0.17300000000E+03 0.  1.
<mgrwt>
<rscale>  2 0.20010731E+03</rscale>
<asrwt>0</asrwt>
<pdfrwt beam="1">  1       21 0.15059418E-01 0.20010731E+03</pdfrwt>
<pdfrwt beam="2">  1       21 0.10465618E+00 0.20010731E+03</pdfrwt>
<totfact> 0.28555358E+04</totfact>
</mgrwt>
</event>
<event>
 4    1  0.4306168E+000  0.2273148E+03  0.7546771E-02  0.1128544E+00
         21   -1    0    0  503  502  0.00000000000E+00  0.00000000000E+00  0.31009091259E+03  0.31009091259E+03  0.00000000000E+00 0. -1.
         21   -1    0    0  501  503 -0.00000000000E+00 -0.00000000000E+00 -0.16670523446E+03  0.16670523446E+03  0.00000000000E+00 0. -1.
          6    1    1    2  501    0  0.11610881733E+03  0.90894222215E+02  0.76584146390E+02  0.23986902379E+03  0.17300000000E+03 0. -1.
         -6    1    1    2    0  502 -0.11610881733E+03 -0.90894222215E+02  0.66801531747E+02  0.23692712326E+03  0.17300000000E+03 0. -1.
<mgrwt>
<rscale>  2 0.22731480E+03</rscale>
<asrwt>0</asrwt>
<pdfrwt beam="1">  1       21 0.47706294E-01 0.22731480E+03</pdfrwt>
<pdfrwt beam="2">  1       21 0.25646959E-01 0.22731480E+03</pdfrwt>
<totfact> 0.59667313E+04</totfact>
</mgrwt>
</event>
<event>
 4    1  0.4306168E+000  0.2341944E+03  0.7546771E-02  0.1123722E+00
         21   -1    0    0  503  502  0.00000000000E+00  0.00000000000E+00  0.10184030100E+04  0.10184030100E+04  0.00000000000E+00 0.  1.
         21   -1    0    0  501  503 -0.00000000000E+00 -0.00000000000E+00 -0.13786432518E+03  0.13786432518E+03  0.00000000000E+00 0. -1.
          6    1    1    2  501    0  0.83831545317E+02 -0.13375449985E+03 -0.11029038089E+02  0.23445390571E+03  0.17300000000E+03 0. -1.
         -6    1    1    2    0  502 -0.83831545317E+02  0.13375449985E+03  0.89156772292E+03  0.92181342948E+03  0.17300000000E+03 0.  1.
<mgrwt>
<rscale>  2 0.23419435E+03</rscale>
<asrwt>0</asrwt>
<pdfrwt beam="1">  1       21 0.15667738E+00 0.23419435E+03</pdfrwt>
<pdfrwt beam="2">  1       21 0.21209897E-01 0.23419435E+03</pdfrwt>
<totfact> 0.53292738E+03</totfact>
</mgrwt>
</event>
<event>
 4    1  0.4306168E+000  0.3096919E+03  0.7546771E-02  0.1080494E+00
         21   -1    0    0  503  502  0.00000000000E+00  0.00000000000E+00  0.30596790035E+03  0.30596790035E+03  0.00000000000E+00 0.  1.
         21   -1    0    0  501  503 -0.00000000000E+00 -0.00000000000E+00 -0.33288565581E+03  0.33288565581E+03  0.00000000000E+00 0. -1.
          6    1    1    2  501    0  0.24927728787E+03  0.61975129770E+02 -0.90619826991E+02  0.32267791372E+03  0.17300000000E+03 0. -1.
         -6    1    1    2    0  502 -0.24927728787E+03 -0.61975129770E+02  0.63702071535E+02  0.31617564245E+03  0.17300000000E+03 0.  1.
<mgrwt>
<rscale>  2 0.30969192E+03</rscale>
<asrwt>0</asrwt>
<pdfrwt beam="1">  1       21 0.47071985E-01 0.30969192E+03</pdfrwt>
<pdfrwt beam="2">  1       21 0.51213178E-01 0.30969192E+03</pdfrwt>
<totfact> 0.14740155E+04</totfact>
</mgrwt>
</event>
<event>
 4    1  0.4306168E+000  0.2047551E+03  0.7546771E-02  0.1145788E+00
         21   -1    0    0  501  502  0.00000000000E+00  0.00000000000E+00  0.26306545919E+03  0.26306545919E+03  0.00000000000E+00 0.  1.
         21   -1    0    0  502  503 -0.00000000000E+00 -0.00000000000E+00 -0.16048261652E+03  0.16048261652E+03  0.00000000000E+00 0. -1.
          6    1    1    2  501    0 -0.86617321515E+02  0.67030664190E+02  0.68926800795E+02  0.21604530589E+03  0.17300000000E+03 0.  1.
         -6    1    1    2    0  503  0.86617321515E+02 -0.67030664190E+02  0.33656041874E+02  0.20750276982E+03  0.17300000000E+03 0. -1.
<mgrwt>
<rscale>  2 0.20475515E+03</rscale>
<asrwt>0</asrwt>
<pdfrwt beam="1">  1       21 0.40471609E-01 0.20475515E+03</pdfrwt>
<pdfrwt beam="2">  1       21 0.24689633E-01 0.20475515E+03</pdfrwt>
<totfact> 0.90792300E+04</totfact>
</mgrwt>
</event>
<event>
 4    1  0.4306168E+000  0.1925227E+03  0.7546771E-02  0.1156206E+00
         21   -1    0    0  503  502  0.00000000000E+00  0.00000000000E+00  0.13248905373E+04  0.13248905373E+04  0.00000000000E+00 0. -1.
         21   -1    0    0  501  503 -0.00000000000E+00 -0.00000000000E+00 -0.28687228134E+02  0.28687228134E+02  0.00000000000E+00 0. -1.
          6    1    1    2  501    0 -0.72840713362E+02  0.42781043214E+02  0.54152844067E+03  0.57473301561E+03  0.17300000000E+03 0. -1.
         -6    1    1    2    0  502  0.72840713362E+02 -0.42781043214E+02  0.75467486845E+03  0.77884474977E+03  0.17300000000E+03 0. -1.
<mgrwt>
<rscale>  2 0.19252269E+03</rscale>
<asrwt>0</asrwt>
<pdfrwt beam="1">  1       21 0.20382927E+00 0.19252269E+03</pdfrwt>
<pdfrwt beam="2">  1       21 0.44134207E-02 0.19252269E+03</pdfrwt>
<totfact> 0.42160157E+04</totfact>
</mgrwt>
</event>
<event>
 4    1  0.4306168E+000  0.1735947E+03  0.7546771E-02  0.1174150E+00
         21   -1    0    0  503  502  0.00000000000E+00  0.00000000000E+00  0.49234894615E+02  0.49234894615E+02  0.00000000000E+00 0. -1.
         21   -1    0    0  501  503 -0.00000000000E+00 -0.00000000000E+00 -0.65380929626E+03  0.65380929626E+03  0.00000000000E+00 0. -1.
          6    1    1    2  501    0 -0.72067022952E+00 -0.14338322491E+02 -0.21346742116E+03  0.27514259350E+03  0.17300000000E+03 0. -1.
         -6    1    1    2    0  502  0.72067022952E+00  0.14338322491E+02 -0.39110698048E+03  0.42790159738E+03  0.17300000000E+03 0. -1.
<mgrwt>
<rscale>  2 0.17359466E+03</rscale>
<asrwt>0</asrwt>
<pdfrwt beam="1">  1       21 0.75745996E-02 0.17359466E+03</pdfrwt>
<pdfrwt beam="2">  1       21 0.10058604E+00 0.17359466E+03</pdfrwt>
<totfact> 0.10766962E+05</totfact>
</mgrwt>
</event>
<event>
 4    1  0.4306168E+000  0.2277778E+03  0.7546771E-02  0.1128214E+00
         21   -1    0    0  501  502  0.00000000000E+00  0.00000000000E+00  0.68515022664E+03  0.68515022664E+03  0.00000000000E+00 0.  1.
         21   -1    0    0  502  503 -0.00000000000E+00 -0.00000000000E+00 -0.11382283825E+03  0.11382283825E+03  0.00000000000E+00 0.  1.
          6    1    1    2  501    0 -0.91770180632E+02 -0.11632691497E+03  0.51678499038E+03  0.56475609202E+03  0.17300000000E+03 0.  1.
         -6    1    1    2    0  503  0.91770180632E+02  0.11632691497E+03  0.54542398019E+02  0.23421697287E+03  0.17300000000E+03 0.  1.
<mgrwt>
<rscale>  2 0.22777778E+03</rscale>
<asrwt>0</asrwt>
<pdfrwt beam="1">  1       21 0.10540772E+00 0.22777778E+03</pdfrwt>
<pdfrwt beam="2">  1       21 0.17511206E-01 0.22777778E+03</pdfrwt>
<totfact> 0.20942476E+04</totfact>
</mgrwt>
</event>
<event>
 4    1  0.4306168E+000  0.2205189E+03  0.7546771E-02  0.1133497E+00
         21   -1    0    0  501  502  0.00000000000E+00  0.00000000000E+00  0.76980488273E+02  0.76980488273E+02  0.00000000000E+00 0.  1.
         21   -1    0    0  502  503 -0.00000000000E+00 -0.00000000000E+00 -0.89598475377E+03  0.89598475377E+03  0.00000000000E+00 0. -1.
          6    1    1    2  501    0 -0.13610764218E+03  0.13202657527E+02 -0.14528997486E+03  0.26407911167E+03  0.17300000000E+03 0.  1.
         -6    1    1    2    0  503  0.13610764218E+03 -0.13202657527E+02 -0.67371429064E+03  0.70888613037E+03  0.17300000000E+03 0. -1.
<mgrwt>
<rscale>  2 0.22051893E+03</rscale>
<asrwt>0</asrwt>
<pdfrwt beam="1">  1       21 0.11843152E-01 0.22051893E+03</pdfrwt>
<pdfrwt beam="2">  1       21 0.13784381E+00 0.22051893E+03</pdfrwt>
<totfact> 0.21988990E+04</totfact>
</mgrwt>
</event>
<event>
 4    1  0.4306168E+000  0.2503613E+03  0.7546771E-02  0.1113077E+00
         21   -1    0    0  501  502  0.00000000000E+00  0.00000000000E+00  0.12482766090E+03  0.12482766090E+03  0.00000000000E+00 0. -1.
         21   -1    0    0  502  503 -0.00000000000E+00 -0.00000000000E+00 -0.53547357304E+03  0.53547357304E+03  0.00000000000E+00 0.  1.
          6    1    1    2  501    0  0.17669199943E+03  0.39136854762E+02 -0.12294808372E+03  0.27892111314E+03  0.17300000000E+03 0. -1.
         -6    1    1    2    0  503 -0.17669199943E+03 -0.39136854762E+02 -0.28769782843E+03  0.38138012080E+03  0.17300000000E+03 0. -1.
<mgrwt>
<rscale>  2 0.25036125E+03</rscale>
<asrwt>0</asrwt>
<pdfrwt beam="1">  1       21 0.19204256E-01 0.25036125E+03</pdfrwt>
<pdfrwt beam="2">  1       21 0.82380549E-01 0.25036125E+03</pdfrwt>
<totfact> 0.31119692E+04</totfact>
</mgrwt>
</event>
<event>
 4    1  0.4306168E+000  0.1964873E+03  0.7546771E-02  0.1152737E+00
         21   -1    0    0  501  502  0.00000000000E+00  0.00000000000E+00  0.13280022361E+03  0.13280022361E+03  0.00000000000E+00 0. -1.
         21   -1    0    0  502  503 -0.00000000000E+00 -0.00000000000E+00 -0.35664120095E+03  0.35664120095E+03  0.00000000000E+00 0.  1.
          6    1    1    2  501    0 -0.34814354869E+02  0.86407345862E+02 -0.67054660472E+01  0.19660170904E+03  0.17300000000E+03 0. -1.
         -6    1    1    2    0  503  0.34814354869E+02 -0.86407345862E+02 -0.21713551129E+03  0.29283971553E+03  0.17300000000E+03 0.  1.
<mgrwt>
<rscale>  2 0.19648732E+03</rscale>
<asrwt>0</asrwt>
<pdfrwt beam="1">  1       21 0.20430804E-01 0.19648732E+03</pdfrwt>
<pdfrwt beam="2">  1       21 0.54867877E-01 0.19648732E+03</pdfrwt>
<totfact> 0.69422416E+04</totfact>
</mgrwt>
</event>
<event>
 4    1  0.4306168E+000  0.1829132E+03  0.7546771E-02  0.1165013E+00
         21   -1    0    0  501  502  0.00000000000E+00  0.00000000000E+00  0.25767868210E+02  0.25767868210E+02  0.00000000000E+00 0. -1.
         21   -1    0    0  502  503 -0.00000000000E+00 -0.00000000000E+00 -0.19808514840E+04  0.19808514840E+04  0.00000000000E+00 0.  1.
          6    1    1    2  501    0 -0.57305423863E+02 -0.15631002937E+02 -0.38864123941E+03  0.42953376215E+03  0.17300000000E+03 0. -1.
         -6    1    1    2    0  503  0.57305423863E+02  0.15631002937E+02 -0.15664423764E+04  0.15770855901E+04  0.17300000000E+03 0.  1.
<mgrwt>
<rscale>  2 0.18291320E+03</rscale>
<asrwt>0</asrwt>
<pdfrwt beam="1">  1       21 0.39642870E-02 0.18291320E+03</pdfrwt>
<pdfrwt beam="2">  1       21 0.30474642E+00 0.18291320E+03</pdfrwt>
<totfact> 0.12886466E+04</totfact>
</mgrwt>
</event>
<event>
 4    1  0.4306168E+000  0.1823342E+03  0.7546771E-02  0.1165563E+00
         21   -1    0    0  503  502  0.00000000000E+00  0.00000000000E+00  0.52113614799E+03  0.52113614799E+03  0.00000000000E+00 0. -1.
         21   -1    0    0  501  503 -0.00000000000E+00 -0.00000000000E+00 -0.67335377847E+02  0.67335377847E+02  0.00000000000E+00 0.  1.
          6    1    1    2  501    0 -0.42752870084E+02  0.38586778300E+02  0.15942982878E+03  0.24220573417E+03  0.17300000000E+03 0.  1.
         -6    1    1    2    0  502  0.42752870084E+02 -0.38586778300E+02  0.29437094136E+03  0.34626579166E+03  0.17300000000E+03 0.  1.
<mgrwt>
<rscale>  2 0.18233416E+03</rscale>
<asrwt>0</asrwt>
<pdfrwt beam="1">  1       21 0.80174789E-01 0.18233416E+03</pdfrwt>
<pdfrwt beam="2">  1       21 0.10359289E-01 0.18233416E+03</pdfrwt>
<totfact> 0.10475019E+05</totfact>
</mgrwt>
</event>
<event>
 4    1  0.4306168E+000  0.2611709E+03  0.7546771E-02  0.1106442E+00
         21   -1    0    0  501  502  0.00000000000E+00  0.00000000000E+00  0.38657752981E+03  0.38657752981E+03  0.00000000000E+00 0.  1.
         21   -1    0    0  502  503 -0.00000000000E+00 -0.00000000000E+00 -0.43721479981E+03  0.43721479981E+03  0.00000000000E+00 0.  1.
          6    1    1    2  501    0 -0.19147571172E+03  0.40228098001E+02  0.29278433758E+03  0.39234285565E+03  0.17300000000E+03 0.  1.
         -6    1    1    2    0  503  0.19147571172E+03 -0.40228098001E+02 -0.34342160757E+03  0.43144947398E+03  0.17300000000E+03 0.  1.
<mgrwt>
<rscale>  2 0.26117092E+03</rscale>
<asrwt>0</asrwt>
<pdfrwt beam="1">  1       21 0.59473466E-01 0.26117092E+03</pdfrwt>
<pdfrwt beam="2">  1       21 0.67263815E-01 0.26117092E+03</pdfrwt>
<totfact> 0.50967680E+03</totfact>
</mgrwt>
</event>
<event>
 4    1  0.4306168E+000  0.2018193E+03  0.7546771E-02  0.1148213E+00
         21   -1    0    0  501  502  0.00000000000E+00  0.00000000000E+00  0.15075267884E+03  0.15075267884E+03  0.00000000000E+00 0. -1.
         21   -1    0    0  502  503 -0.00000000000E+00 -0.00000000000E+00 -0.29921158774E+03  0.29921158774E+03  0.00000000000E+00 0. -1.
          6    1    1    2  501    0 -0.93328463357E+02  0.45736596091E+02 -0.41548746032E+01  0.20186208479E+03  0.17300000000E+03 0. -1.
         -6    1    1    2    0  503  0.93328463357E+02 -0.45736596091E+02 -0.14430403429E+03  0.24810218179E+03  0.17300000000E+03 0. -1.
<mgrwt>
<rscale>  2 0.20181932E+03</rscale>
<asrwt>0</asrwt>
<pdfrwt beam="1">  1       21 0.23192720E-01 0.20181932E+03</pdfrwt>
<pdfrwt beam="2">  1       21 0.46032551E-01 0.20181932E+03</pdfrwt>
<totfact> 0.78697445E+04</totfact>
</mgrwt>
</event>
<event>
 4    1  0.4306168E+000  0.2244979E+03  0.7546771E-02  0.1130573E+00
         21   -1    0    0  501  502  0.00000000000E+00  0.00000000000E+00  0.25690950366E+03  0.25690950366E+03  0.00000000000E+00 0.  1.
         21   -1    0    0  502  503 -0.00000000000E+00 -0.00000000000E+00 -0.26950767758E+03  0.26950767758E+03  0.00000000000E+00 0. -1.
          6    1    1    2  501    0  0.13329549671E+03  0.51986721573E+02  0.13099829623E+03  0.25992280061E+03  0.17300000000E+03 0.  1.
         -6    1    1    2    0  503 -0.13329549671E+03 -0.51986721573E+02 -0.14359647015E+03  0.26649438062E+03  0.17300000000E+03 0.  1.
<mgrwt>
<rscale>  2 0.22449790E+03</rscale>
<asrwt>0</asrwt>
<pdfrwt beam="1">  1       21 0.39524539E-01 0.22449790E+03</pdfrwt>
<pdfrwt beam="2">  1       21 0.41462719E-01 0.22449790E+03</pdfrwt>
<totfact> 0.34000664E+04</totfact>
</mgrwt>
</event>
<event>
 4    1  0.4306168E+000  0.1904497E+03  0.7546771E-02  0.1158056E+00
         21   -1    0    0  503  502  0.00000000000E+00  0.00000000000E+00  0.18789481371E+03  0.18789481371E+03  0.00000000000E+00 0. -1.
         21   -1    0    0  501  503 -0.00000000000E+00 -0.00000000000E+00 -0.13988992937E+04  0.13988992937E+04  0.00000000000E+00 0.  1.
          6    1    1    2  501    0  0.77692601479E+02 -0.17491540788E+02 -0.13421261151E+04  0.13555713198E+04  0.17300000000E+03 0.  1.
         -6    1    1    2    0  502 -0.77692601479E+02  0.17491540788E+02  0.13112163508E+03  0.23122278761E+03  0.17300000000E+03 0. -1.
<mgrwt>
<rscale>  2 0.19044972E+03</rscale>
<asrwt>0</asrwt>
<pdfrwt beam="1">  1       21 0.28906894E-01 0.19044972E+03</pdfrwt>
<pdfrwt beam="2">  1       21 0.21521528E+00 0.19044972E+03</pdfrwt>
<totfact> 0.12363813E+03</totfact>
</mgrwt>
</event>
<event>
 4    1  0.4306168E+000  0.2399097E+03  0.7546771E-02  0.1119853E+00
         21   -1    0    0  501  502  0.00000000000E+00  0.00000000000E+00  0.10266653362E+04  0.10266653362E+04  0.00000000000E+00 0.  1.
         21   -1    0    0  502  503 -0.00000000000E+00 -0.00000000000E+00 -0.75699596156E+02  0.75699596156E+02  0.00000000000E+00 0. -1.
          6    1    1    2  501    0  0.16298243259E+03 -0.32625114761E+02  0.75621709800E+03  0.79336055533E+03  0.17300000000E+03 0.  1.
         -6    1    1    2    0  503 -0.16298243259E+03  0.32625114761E+02  0.19474864205E+03  0.30900437703E+03  0.17300000000E+03 0.  1.
<mgrwt>
<rscale>  2 0.23990972E+03</rscale>
<asrwt>0</asrwt>
<pdfrwt beam="1">  1       21 0.15794850E+00 0.23990972E+03</pdfrwt>
<pdfrwt beam="2">  1       21 0.11646092E-01 0.23990972E+03</pdfrwt>
<totfact> 0.15635392E+04</totfact>
</mgrwt>
</event>
<event>
 4    1  0.4306168E+000  0.2426739E+03  0.7546771E-02  0.1118024E+00
         21   -1    0    0  503  502  0.00000000000E+00  0.00000000000E+00  0.11654769130E+04  0.11654769130E+04  0.00000000000E+00 0.  1.
         21   -1    0    0  501  503 -0.00000000000E+00 -0.00000000000E+00 -0.13854991281E+03  0.13854991281E+03  0.00000000000E+00 0.  1.
          6    1    1    2  501    0 -0.16193053671E+03 -0.52346158978E+02 -0.62282656351E+01  0.24275380609E+03  0.17300000000E+03 0.  1.
         -6    1    1    2    0  502  0.16193053671E+03  0.52346158978E+02  0.10331552658E+04  0.10612730197E+04  0.17300000000E+03 0.  1.
<mgrwt>
<rscale>  2 0.24267389E+03</rscale>
<asrwt>0</asrwt>
<pdfrwt beam="1">  1       21 0.17930413E+00 0.24267389E+03</pdfrwt>
<pdfrwt beam="2">  1       21 0.21315372E-01 0.24267389E+03</pdfrwt>
<totfact> 0.36126533E+03</totfact>
</mgrwt>
</event>
<event>
 4    1  0.4306168E+000  0.2837590E+03  0.7546771E-02  0.1093653E+00
         21   -1    0    0  501  502  0.00000000000E+00  0.00000000000E+00  0.25734977758E+04  0.25734977758E+04  0.00000000000E+00 0. -1.
         21   -1    0    0  502  503 -0.00000000000E+00 -0.00000000000E+00 -0.10754036214E+03  0.10754036214E+03  0.00000000000E+00 0. -1.
          6    1    1    2  501    0 -0.17912023628E+03 -0.13603717377E+03  0.23617718743E+04  0.23787571456E+04  0.17300000000E+03 0. -1.
         -6    1    1    2    0  503  0.17912023628E+03  0.13603717377E+03  0.10418553937E+03  0.30228099230E+03  0.17300000000E+03 0. -1.
<mgrwt>
<rscale>  2 0.28375900E+03</rscale>
<asrwt>0</asrwt>
<pdfrwt beam="1">  1       21 0.39592269E+00 0.28375900E+03</pdfrwt>
<pdfrwt beam="2">  1       21 0.16544673E-01 0.28375900E+03</pdfrwt>
<totfact> 0.26709815E+02</totfact>
</mgrwt>
</event>
<event>
 4    1  0.4306168E+000  0.1818083E+03  0.7546771E-02  0.1166064E+00
         21   -1    0    0  501  502  0.00000000000E+00  0.00000000000E+00  0.17252057132E+03  0.17252057132E+03  0.00000000000E+00 0.  1.
         21   -1    0    0  502  503 -0.00000000000E+00 -0.00000000000E+00 -0.19162326071E+03  0.19162326071E+03  0.00000000000E+00 0.  1.
          6    1    1    2  501    0 -0.72882063376E+01  0.55426890169E+02 -0.11721429823E+02  0.18218575691E+03  0.17300000000E+03 0.  1.
         -6    1    1    2    0  503  0.72882063376E+01 -0.55426890169E+02 -0.73812595625E+01  0.18195807511E+03  0.17300000000E+03 0.  1.
<mgrwt>
<rscale>  2 0.18180830E+03</rscale>
<asrwt>0</asrwt>
<pdfrwt beam="1">  1       21 0.26541626E-01 0.18180830E+03</pdfrwt>
<pdfrwt beam="2">  1       21 0.29480502E-01 0.18180830E+03</pdfrwt>
<totfact> 0.14942811E+05</totfact>
</mgrwt>
</event>
<event>
 4    1  0.4306168E+000  0.2069794E+03  0.7546771E-02  0.1143981E+00
         21   -1    0    0  501  502  0.00000000000E+00  0.00000000000E+00  0.94345480380E+03  0.94345480380E+03  0.00000000000E+00 0.  1.
         21   -1    0    0  502  503 -0.00000000000E+00 -0.00000000000E+00 -0.91118059459E+02  0.91118059459E+02  0.00000000000E+00 0. -1.
          6    1    1    2  501    0 -0.56662406838E+02  0.98492862702E+02  0.79255056985E+03  0.81913178312E+03  0.17300000000E+03 0.  1.
         -6    1    1    2    0  503  0.56662406838E+02 -0.98492862702E+02  0.59786174499E+02  0.21544108014E+03  0.17300000000E+03 0. -1.
<mgrwt>
<rscale>  2 0.20697940E+03</rscale>
<asrwt>0</asrwt>
<pdfrwt beam="1">  1       21 0.14514689E+00 0.20697940E+03</pdfrwt>
<pdfrwt beam="2">  1       21 0.14018164E-01 0.20697940E+03</pdfrwt>
<totfact> 0.14308083E+04</totfact>
</mgrwt>
</event>
<event>
 4    1  0.4306168E+000  0.2123271E+03  0.7546771E-02  0.1139736E+00
         21   -1    0    0  501  502  0.00000000000E+00  0.00000000000E+00  0.54870933995E+03  0.54870933995E+03  0.00000000000E+00 0.  1.
         21   -1    0    0  502  503 -0.00000000000E+00 -0.00000000000E+00 -0.91166298471E+02  0.91166298471E+02  0.00000000000E+00 0.  1.
          6    1    1    2  501    0  0.83715482243E+02 -0.90252479100E+02  0.32932219793E+03  0.39183657563E+03  0.17300000000E+03 0.  1.
         -6    1    1    2    0  503 -0.83715482243E+02  0.90252479100E+02  0.12822084355E+03  0.24803906279E+03  0.17300000000E+03 0.  1.
<mgrwt>
<rscale>  2 0.21232709E+03</rscale>
<asrwt>0</asrwt>
<pdfrwt beam="1">  1       21 0.84416820E-01 0.21232709E+03</pdfrwt>
<pdfrwt beam="2">  1       21 0.14025585E-01 0.21232709E+03</pdfrwt>
<totfact> 0.53430887E+04</totfact>
</mgrwt>
</event>
<event>
 4    1  0.4306168E+000  0.1733511E+03  0.7546771E-02  0.1174398E+00
         21   -1    0    0  501  502  0.00000000000E+00  0.00000000000E+00  0.79215243832E+02  0.79215243832E+02  0.00000000000E+00 0. -1.
         21   -1    0    0  502  503 -0.00000000000E+00 -0.00000000000E+00 -0.55768634796E+03  0.55768634796E+03  0.00000000000E+00 0. -1.
          6    1    1    2  501    0 -0.22065543610E+01  0.10804017579E+02 -0.59156679196E+02  0.18316688667E+03  0.17300000000E+03 0. -1.
         -6    1    1    2    0  503  0.22065543610E+01 -0.10804017579E+02 -0.41931442493E+03  0.45373470512E+03  0.17300000000E+03 0. -1.
<mgrwt>
<rscale>  2 0.17335108E+03</rscale>
<asrwt>0</asrwt>
<pdfrwt beam="1">  1       21 0.12186961E-01 0.17335108E+03</pdfrwt>
<pdfrwt beam="2">  1       21 0.85797897E-01 0.17335108E+03</pdfrwt>
<totfact> 0.67539727E+04</totfact>
</mgrwt>
</event>
<event>
 4    1  0.4306168E+000  0.1809438E+03  0.7546771E-02  0.1166893E+00
         21   -1    0    0  501  502  0.00000000000E+00  0.00000000000E+00  0.34344550923E+03  0.34344550923E+03  0.00000000000E+00 0.  1.
         21   -1    0    0  502  503 -0.00000000000E+00 -0.00000000000E+00 -0.31443685055E+03  0.31443685055E+03  0.00000000000E+00 0.  1.
          6    1    1    2  501    0  0.52807612647E+02 -0.47977703729E+01  0.28909103013E+03  0.34104880333E+03  0.17300000000E+03 0.  1.
         -6    1    1    2    0  503 -0.52807612647E+02  0.47977703729E+01 -0.26008237144E+03  0.31683355644E+03  0.17300000000E+03 0.  1.
<mgrwt>
<rscale>  2 0.18094381E+03</rscale>
<asrwt>0</asrwt>
<pdfrwt beam="1">  1       21 0.52837771E-01 0.18094381E+03</pdfrwt>
<pdfrwt beam="2">  1       21 0.48374900E-01 0.18094381E+03</pdfrwt>
<totfact> 0.13959786E+04</totfact>
</mgrwt>
</event>
<event>
 4    1  0.4306168E+000  0.2224406E+03  0.7546771E-02  0.1132076E+00
         21   -1    0    0  501  502  0.00000000000E+00  0.00000000000E+00  0.49162483055E+03  0.49162483055E+03  0.00000000000E+00 0.  1.
         21   -1    0    0  502  503 -0.00000000000E+00 -0.00000000000E+00 -0.17147653547E+03  0.17147653547E+03  0.00000000000E+00 0.  1.
          6    1    1    2  501    0 -0.84834567084E+02  0.11114810328E+03  0.37316240151E+03  0.43443064180E+03  0.17300000000E+03 0.  1.
         -6    1    1    2    0  503  0.84834567084E+02 -0.11114810328E+03 -0.53014106436E+02  0.22867072422E+03  0.17300000000E+03 0.  1.
<mgrwt>
<rscale>  2 0.22244056E+03</rscale>
<asrwt>0</asrwt>
<pdfrwt beam="1">  1       21 0.75634589E-01 0.22244056E+03</pdfrwt>
<pdfrwt beam="2">  1       21 0.26381006E-01 0.22244056E+03</pdfrwt>
<totfact> 0.20955981E+04</totfact>
</mgrwt>
</event>
<event>
 4    1  0.4306168E+000  0.1987416E+03  0.7546771E-02  0.1150805E+00
         21   -1    0    0  503  502  0.00000000000E+00  0.00000000000E+00  0.13358616415E+03  0.13358616415E+03  0.00000000000E+00 0.  1.
         21   -1    0    0  501  503 -0.00000000000E+00 -0.00000000000E+00 -0.29625917187E+03  0.29625917187E+03  0.00000000000E+00 0. -1.
          6    1    1    2  501    0 -0.84381181809E+02  0.49487633306E+02 -0.71800184718E+02  0.21131369151E+03  0.17300000000E+03 0. -1.
         -6    1    1    2    0  502  0.84381181809E+02 -0.49487633306E+02 -0.90872823002E+02  0.21853164451E+03  0.17300000000E+03 0. -1.
<mgrwt>
<rscale>  2 0.19874157E+03</rscale>
<asrwt>0</asrwt>
<pdfrwt beam="1">  1       21 0.20551718E-01 0.19874157E+03</pdfrwt>
<pdfrwt beam="2">  1       21 0.45578333E-01 0.19874157E+03</pdfrwt>
<totfact> 0.10101458E+05</totfact>
</mgrwt>
</event>
<event>
 4    1  0.4306168E+000  0.2092169E+03  0.7546771E-02  0.1142188E+00
         21   -1    0    0  501  502  0.00000000000E+00  0.00000000000E+00  0.16945734696E+03  0.16945734696E+03  0.00000000000E+00 0. -1.
         21   -1    0    0  502  503 -0.00000000000E+00 -0.00000000000E+00 -0.37803787518E+03  0.37803787518E+03  0.00000000000E+00 0. -1.
          6    1    1    2  501    0  0.79764165650E+02  0.86489226370E+02  0.49769448357E+02  0.21505512407E+03  0.17300000000E+03 0. -1.
         -6    1    1    2    0  503 -0.79764165650E+02 -0.86489226370E+02 -0.25834997658E+03  0.33244009806E+03  0.17300000000E+03 0. -1.
<mgrwt>
<rscale>  2 0.20921689E+03</rscale>
<asrwt>0</asrwt>
<pdfrwt beam="1">  1       21 0.26070361E-01 0.20921689E+03</pdfrwt>
<pdfrwt beam="2">  1       21 0.58159672E-01 0.20921689E+03</pdfrwt>
<totfact> 0.38391576E+04</totfact>
</mgrwt>
</event>
<event>
 4    1  0.4306168E+000  0.2347089E+03  0.7546771E-02  0.1123369E+00
         21   -1    0    0  501  502  0.00000000000E+00  0.00000000000E+00  0.17779691948E+04  0.17779691948E+04  0.00000000000E+00 0. -1.
         21   -1    0    0  502  503 -0.00000000000E+00 -0.00000000000E+00 -0.32114809258E+02  0.32114809258E+02  0.00000000000E+00 0. -1.
          6    1    1    2  501    0 -0.14748813634E+03 -0.58365513558E+02  0.10427690185E+04  0.10688571043E+04  0.17300000000E+03 0. -1.
         -6    1    1    2    0  503  0.14748813634E+03  0.58365513558E+02  0.70308536709E+03  0.74122689978E+03  0.17300000000E+03 0. -1.
<mgrwt>
<rscale>  2 0.23470893E+03</rscale>
<asrwt>0</asrwt>
<pdfrwt beam="1">  1       21 0.27353365E+00 0.23470893E+03</pdfrwt>
<pdfrwt beam="2">  1       21 0.49407413E-02 0.23470893E+03</pdfrwt>
<totfact> 0.12811174E+04</totfact>
</mgrwt>
</event>
<event>
 4    1  0.4306168E+000  0.2366995E+03  0.7546771E-02  0.1122011E+00
         21   -1    0    0  501  502  0.00000000000E+00  0.00000000000E+00  0.43756075871E+03  0.43756075871E+03  0.00000000000E+00 0.  1.
         21   -1    0    0  502  503 -0.00000000000E+00 -0.00000000000E+00 -0.48924314996E+03  0.48924314996E+03  0.00000000000E+00 0.  1.
          6    1    1    2  501    0  0.14843764724E+03  0.63748844306E+02  0.37232956560E+03  0.44119831786E+03  0.17300000000E+03 0.  1.
         -6    1    1    2    0  503 -0.14843764724E+03 -0.63748844306E+02 -0.42401195685E+03  0.48560559080E+03  0.17300000000E+03 0.  1.
<mgrwt>
<rscale>  2 0.23669949E+03</rscale>
<asrwt>0</asrwt>
<pdfrwt beam="1">  1       21 0.67317040E-01 0.23669949E+03</pdfrwt>
<pdfrwt beam="2">  1       21 0.75268177E-01 0.23669949E+03</pdfrwt>
<totfact> 0.30765832E+03</totfact>
</mgrwt>
</event>
<event>
 4    1  0.4306168E+000  0.2436348E+03  0.7546771E-02  0.1117395E+00
         21   -1    0    0  503  502  0.00000000000E+00  0.00000000000E+00  0.38160943539E+03  0.38160943539E+03  0.00000000000E+00 0. -1.
         21   -1    0    0  501  503 -0.00000000000E+00 -0.00000000000E+00 -0.16315880368E+03  0.16315880368E+03  0.00000000000E+00 0. -1.
          6    1    1    2  501    0  0.14331876665E+03 -0.94279672914E+02  0.50389599984E+02  0.24879115214E+03  0.17300000000E+03 0. -1.
         -6    1    1    2    0  502 -0.14331876665E+03  0.94279672914E+02  0.16806103173E+03  0.29597708692E+03  0.17300000000E+03 0. -1.
<mgrwt>
<rscale>  2 0.24363482E+03</rscale>
<asrwt>0</asrwt>
<pdfrwt beam="1">  1       21 0.58709144E-01 0.24363482E+03</pdfrwt>
<pdfrwt beam="2">  1       21 0.25101355E-01 0.24363482E+03</pdfrwt>
<totfact> 0.39822680E+04</totfact>
</mgrwt>
</event>
<event>
 4    1  0.4306168E+000  0.1827939E+03  0.7546771E-02  0.1165126E+00
         21   -1    0    0  501  502  0.00000000000E+00  0.00000000000E+00  0.19795510686E+03  0.19795510686E+03  0.00000000000E+00 0.  1.
         21   -1    0    0  502  503 -0.00000000000E+00 -0.00000000000E+00 -0.36655612352E+03  0.36655612352E+03  0.00000000000E+00 0. -1.
          6    1    1    2  501    0 -0.48607257707E+02  0.33495169553E+02  0.12302089732E+03  0.22033550114E+03  0.17300000000E+03 0.  1.
         -6    1    1    2    0  503  0.48607257707E+02 -0.33495169553E+02 -0.29162191398E+03  0.34417572924E+03  0.17300000000E+03 0. -1.
<mgrwt>
<rscale>  2 0.18279385E+03</rscale>
<asrwt>0</asrwt>
<pdfrwt beam="1">  1       21 0.30454632E-01 0.18279385E+03</pdfrwt>
<pdfrwt beam="2">  1       21 0.56393250E-01 0.18279385E+03</pdfrwt>
<totfact> 0.30772631E+04</totfact>
</mgrwt>
</event>
<event>
 4    1  0.4306168E+000  0.2359671E+03  0.7546771E-02  0.1122509E+00
         21   -1    0    0  501  502  0.00000000000E+00  0.00000000000E+00  0.75697642650E+03  0.75697642650E+03  0.00000000000E+00 0. -1.
         21   -1    0    0  502  503 -0.00000000000E+00 -0.00000000000E+00 -0.13870493211E+03  0.13870493211E+03  0.00000000000E+00 0. -1.
          6    1    1    2  501    0 -0.13237006503E+03 -0.90717416176E+02  0.61605900863E+03  0.65970386222E+03  0.17300000000E+03 0. -1.
         -6    1    1    2    0  503  0.13237006503E+03  0.90717416176E+02  0.22124857621E+01  0.23597749640E+03  0.17300000000E+03 0. -1.
<mgrwt>
<rscale>  2 0.23596712E+03</rscale>
<asrwt>0</asrwt>
<pdfrwt beam="1">  1       21 0.11645791E+00 0.23596712E+03</pdfrwt>
<pdfrwt beam="2">  1       21 0.21339221E-01 0.23596712E+03</pdfrwt>
<totfact> 0.11295757E+04</totfact>
</mgrwt>
</event>
<event>
 4    1  0.4306168E+000  0.1895761E+03  0.7546771E-02  0.1158844E+00
         21   -1    0    0  503  502  0.00000000000E+00  0.00000000000E+00  0.41850562506E+03  0.41850562506E+03  0.00000000000E+00 0. -1.
         21   -1    0    0  501  503 -0.00000000000E+00 -0.00000000000E+00 -0.27986192379E+03  0.27986192379E+03  0.00000000000E+00 0. -1.
          6    1    1    2  501    0  0.76308513863E+02  0.13678536599E+02 -0.22139391648E+03  0.29146930868E+03  0.17300000000E+03 0. -1.
         -6    1    1    2    0  502 -0.76308513863E+02 -0.13678536599E+02  0.36003761775E+03  0.40689824017E+03  0.17300000000E+03 0. -1.
<mgrwt>
<rscale>  2 0.18957608E+03</rscale>
<asrwt>0</asrwt>
<pdfrwt beam="1">  1       21 0.64385481E-01 0.18957608E+03</pdfrwt>
<pdfrwt beam="2">  1       21 0.43055681E-01 0.18957608E+03</pdfrwt>
<totfact> 0.11565184E+04</totfact>
</mgrwt>
</event>
<event>
 4    1  0.4306168E+000  0.2138608E+03  0.7546771E-02  0.1138545E+00
         21   -1    0    0  503  502  0.00000000000E+00  0.00000000000E+00  0.22987896200E+03  0.22987896200E+03  0.00000000000E+00 0. -1.
         21   -1    0    0  501  503 -0.00000000000E+00 -0.00000000000E+00 -0.19902010516E+03  0.19902010516E+03  0.00000000000E+00 0. -1.
          6    1    1    2  501    0 -0.84175544910E+02  0.93391238449E+02  0.19192768305E+02  0.21472030210E+03  0.17300000000E+03 0. -1.
         -6    1    1    2    0  502  0.84175544910E+02 -0.93391238449E+02  0.11666088538E+02  0.21417876506E+03  0.17300000000E+03 0. -1.
<mgrwt>
<rscale>  2 0.21386081E+03</rscale>
<asrwt>0</asrwt>
<pdfrwt beam="1">  1       21 0.35365994E-01 0.21386081E+03</pdfrwt>
<pdfrwt beam="2">  1       21 0.30618478E-01 0.21386081E+03</pdfrwt>
<totfact> 0.78227268E+04</totfact>
</mgrwt>
</event>
<event>
 4    1  0.4306168E+000  0.1869296E+03  0.7546771E-02  0.1161260E+00
         21   -1    0    0  503  502  0.00000000000E+00  0.00000000000E+00  0.61254705978E+03  0.61254705978E+03  0.00000000000E+00 0.  1.
         21   -1    0    0  501  503 -0.00000000000E+00 -0.00000000000E+00 -0.10078935286E+03  0.10078935286E+03  0.00000000000E+00 0.  1.
          6    1    1    2  501    0 -0.23983075331E+02  0.66622004058E+02  0.20905499476E+02  0.18809497398E+03  0.17300000000E+03 0.  1.
         -6    1    1    2    0  502  0.23983075331E+02 -0.66622004058E+02  0.49085220745E+03  0.52524143866E+03  0.17300000000E+03 0.  1.
<mgrwt>
<rscale>  2 0.18692961E+03</rscale>
<asrwt>0</asrwt>
<pdfrwt beam="1">  1       21 0.94238007E-01 0.18692961E+03</pdfrwt>
<pdfrwt beam="2">  1       21 0.15506055E-01 0.18692961E+03</pdfrwt>
<totfact> 0.34963563E+04</totfact>
</mgrwt>
</event>
<event>
 4    1  0.4306168E+000  0.1989949E+03  0.7546771E-02  0.1150590E+00
         21   -1    0    0  503  502  0.00000000000E+00  0.00000000000E+00  0.18826009394E+04  0.18826009394E+04  0.00000000000E+00 0. -1.
         21   -1    0    0  501  503 -0.00000000000E+00 -0.00000000000E+00 -0.27339091776E+02  0.27339091776E+02  0.00000000000E+00 0. -1.
          6    1    1    2  501    0 -0.11587615251E+02  0.97650851636E+02  0.46902749281E+03  0.50949558454E+03  0.17300000000E+03 0. -1.
         -6    1    1    2    0  502  0.11587615251E+02 -0.97650851636E+02  0.13862343548E+04  0.14004444466E+04  0.17300000000E+03 0. -1.
<mgrwt>
<rscale>  2 0.19899488E+03</rscale>
<asrwt>0</asrwt>
<pdfrwt beam="1">  1       21 0.28963081E+00 0.19899488E+03</pdfrwt>
<pdfrwt beam="2">  1       21 0.42060156E-02 0.19899488E+03</pdfrwt>
<totfact> 0.14016445E+04</totfact>
</mgrwt>
</event>
<event>
 4    1  0.4306168E+000  0.2577782E+03  0.7546771E-02  0.1108486E+00
         21   -1    0    0  501  502  0.00000000000E+00  0.00000000000E+00  0.49686245229E+03  0.49686245229E+03  0.00000000000E+00 0. -1.
         21   -1    0    0  502  503 -0.00000000000E+00 -0.00000000000E+00 -0.55807663219E+03  0.55807663219E+03  0.00000000000E+00 0.  1.
          6    1    1    2  501    0  0.18476348178E+03 -0.48816414623E+02  0.42933859882E+03  0.50078060963E+03  0.17300000000E+03 0. -1.
         -6    1    1    2    0  503 -0.18476348178E+03  0.48816414623E+02 -0.49055277873E+03  0.55415847486E+03  0.17300000000E+03 0.  1.
<mgrwt>
<rscale>  2 0.25777817E+03</rscale>
<asrwt>0</asrwt>
<pdfrwt beam="1">  1       21 0.76440377E-01 0.25777817E+03</pdfrwt>
<pdfrwt beam="2">  1       21 0.85857943E-01 0.25777817E+03</pdfrwt>
<totfact> 0.16918236E+03</totfact>
</mgrwt>
</event>
<event>
 4    1  0.4306168E+000  0.2349768E+03  0.7546771E-02  0.1123185E+00
         21   -1    0    0  501  502  0.00000000000E+00  0.00000000000E+00  0.16335644053E+04  0.16335644053E+04  0.00000000000E+00 0. -1.
         21   -1    0    0  502  503 -0.00000000000E+00 -0.00000000000E+00 -0.36701539987E+02  0.36701539987E+02  0.00000000000E+00 0. -1.
          6    1    1    2  501    0 -0.14674199571E+03 -0.61252718423E+02  0.56360627142E+03  0.61062765906E+03  0.17300000000E+03 0.  1.
         -6    1    1    2    0  503  0.14674199571E+03  0.61252718423E+02  0.10332565938E+04  0.10596382862E+04  0.17300000000E+03 0.  1.
<mgrwt>
<rscale>  2 0.23497683E+03</rscale>
<asrwt>0</asrwt>
<pdfrwt beam="1">  1       21 0.25131754E+00 0.23497683E+03</pdfrwt>
<pdfrwt beam="2">  1       21 0.56463920E-02 0.23497683E+03</pdfrwt>
<totfact> 0.13780817E+04</totfact>
</mgrwt>
</event>
<event>
 4    1  0.4306168E+000  0.2052725E+03  0.7546771E-02  0.1145365E+00
         21   -1    0    0  501  502  0.00000000000E+00  0.00000000000E+00  0.10477840773E+04  0.10477840773E+04  0.00000000000E+00 0.  1.
         21   -1    0    0  502  503 -0.00000000000E+00 -0.00000000000E+00 -0.41550378091E+02  0.41550378091E+02  0.00000000000E+00 0. -1.
          6    1    1    2  501    0  0.88533945772E+02 -0.66102561991E+02  0.60075493333E+03  0.63485691158E+03  0.17300000000E+03 0. -1.
         -6    1    1    2    0  503 -0.88533945772E+02  0.66102561991E+02  0.40547876591E+03  0.45447754384E+03  0.17300000000E+03 0.  1.
<mgrwt>
<rscale>  2 0.20527252E+03</rscale>
<asrwt>0</asrwt>
<pdfrwt beam="1">  1       21 0.16119753E+00 0.20527252E+03</pdfrwt>
<pdfrwt beam="2">  1       21 0.63923666E-02 0.20527252E+03</pdfrwt>
<totfact> 0.43303381E+04</totfact>
</mgrwt>
</event>
<event>
 4    1  0.4306168E+000  0.1810977E+03  0.7546771E-02  0.1166745E+00
         21   -1    0    0  501  502  0.00000000000E+00  0.00000000000E+00  0.24968753511E+03  0.24968753511E+03  0.00000000000E+00 0.  1.
         21   -1    0    0  502  503 -0.00000000000E+00 -0.00000000000E+00 -0.13957757144E+03  0.13957757144E+03  0.00000000000E+00 0.  1.
          6    1    1    2  501    0 -0.29054559765E+02  0.44980038701E+02  0.10231051047E+03  0.20799954778E+03  0.17300000000E+03 0. -1.
         -6    1    1    2    0  503  0.29054559765E+02 -0.44980038701E+02  0.77994532024E+01  0.18126555877E+03  0.17300000000E+03 0. -1.
<mgrwt>
<rscale>  2 0.18109768E+03</rscale>
<asrwt>0</asrwt>
<pdfrwt beam="1">  1       21 0.38413467E-01 0.18109768E+03</pdfrwt>
<pdfrwt beam="2">  1       21 0.21473473E-01 0.18109768E+03</pdfrwt>
<totfact> 0.13255069E+05</totfact>
</mgrwt>
</event>
<event>
 4    1  0.4306168E+000  0.2464006E+03  0.7546771E-02  0.1115601E+00
         21   -1    0    0  503  502  0.00000000000E+00  0.00000000000E+00  0.38650335355E+03  0.38650335355E+03  0.00000000000E+00 0.  1.
         21   -1    0    0  501  503 -0.00000000000E+00 -0.00000000000E+00 -0.25289216971E+03  0.25289216971E+03  0.00000000000E+00 0.  1.
          6    1    1    2  501    0  0.17541320576E+03 -0.38023477019E+01 -0.12997152639E+03  0.27857826239E+03  0.17300000000E+03 0.  1.
         -6    1    1    2    0  502 -0.17541320576E+03  0.38023477019E+01  0.26358271024E+03  0.36081726087E+03  0.17300000000E+03 0.  1.
<mgrwt>
<rscale>  2 0.24640059E+03</rscale>
<asrwt>0</asrwt>
<pdfrwt beam="1">  1       21 0.59462054E-01 0.24640059E+03</pdfrwt>
<pdfrwt beam="2">  1       21 0.38906488E-01 0.24640059E+03</pdfrwt>
<totfact> 0.16317050E+04</totfact>
</mgrwt>
</event>
<event>
 4    1  0.4306168E+000  0.1814979E+03  0.7546771E-02  0.1166361E+00
         21   -1    0    0  501  502  0.00000000000E+00  0.00000000000E+00  0.10955977713E+03  0.10955977713E+03  0.00000000000E+00 0. -1.
         21   -1    0    0  502  503 -0.00000000000E+00 -0.00000000000E+00 -0.40696022213E+03  0.40696022213E+03  0.00000000000E+00 0. -1.
          6    1    1    2  501    0  0.13842758477E+02 -0.53111872581E+02 -0.16715113232E+02  0.18226598142E+03  0.17300000000E+03 0. -1.
         -6    1    1    2    0  503 -0.13842758477E+02  0.53111872581E+02 -0.28068533177E+03  0.33425401784E+03  0.17300000000E+03 0. -1.
<mgrwt>
<rscale>  2 0.18149791E+03</rscale>
<asrwt>0</asrwt>
<pdfrwt beam="1">  1       21 0.16855351E-01 0.18149791E+03</pdfrwt>
<pdfrwt beam="2">  1       21 0.62609264E-01 0.18149791E+03</pdfrwt>
<totfact> 0.75272600E+04</totfact>
</mgrwt>
</event>
<event>
 4    1  0.4306168E+000  0.2325501E+03  0.7546771E-02  0.1124858E+00
         21   -1    0    0  503  502  0.00000000000E+00  0.00000000000E+00  0.51148628999E+02  0.51148628999E+02  0.00000000000E+00 0.  1.
         21   -1    0    0  501  503 -0.00000000000E+00 -0.00000000000E+00 -0.17483757222E+04  0.17483757222E+04  0.00000000000E+00 0.  1.
          6    1    1    2  501    0 -0.15517123412E+03 -0.85120437456E+01 -0.14142956268E+04  0.14332870218E+04  0.17300000000E+03 0.  1.
         -6    1    1    2    0  502  0.15517123412E+03  0.85120437456E+01 -0.28293146638E+03  0.36623732941E+03  0.17300000000E+03 0.  1.
<mgrwt>
<rscale>  2 0.23255014E+03</rscale>
<asrwt>0</asrwt>
<pdfrwt beam="1">  1       21 0.78690201E-02 0.23255014E+03</pdfrwt>
<pdfrwt beam="2">  1       21 0.26898087E+00 0.23255014E+03</pdfrwt>
<totfact> 0.61190757E+03</totfact>
</mgrwt>
</event>
<event>
 4    1  0.4306168E+000  0.2396667E+03  0.7546771E-02  0.1120015E+00
         21   -1    0    0  501  502  0.00000000000E+00  0.00000000000E+00  0.20103695311E+03  0.20103695311E+03  0.00000000000E+00 0.  1.
         21   -1    0    0  502  503 -0.00000000000E+00 -0.00000000000E+00 -0.28763694240E+03  0.28763694240E+03  0.00000000000E+00 0.  1.
          6    1    1    2  501    0 -0.28436487303E+02  0.16340891769E+03 -0.23348880971E+02  0.24080132564E+03  0.17300000000E+03 0.  1.
         -6    1    1    2    0  503  0.28436487303E+02 -0.16340891769E+03 -0.63251108323E+02  0.24787256987E+03  0.17300000000E+03 0.  1.
<mgrwt>
<rscale>  2 0.23966666E+03</rscale>
<asrwt>0</asrwt>
<pdfrwt beam="1">  1       21 0.30928762E-01 0.23966666E+03</pdfrwt>
<pdfrwt beam="2">  1       21 0.44251837E-01 0.23966666E+03</pdfrwt>
<totfact> 0.48193269E+04</totfact>
</mgrwt>
</event>
<event>
 4    1  0.4306168E+000  0.2178733E+03  0.7546771E-02  0.1135479E+00
         21   -1    0    0  501  502  0.00000000000E+00  0.00000000000E+00  0.13712725824E+03  0.13712725824E+03  0.00000000000E+00 0. -1.
         21   -1    0    0  502  503 -0.00000000000E+00 -0.00000000000E+00 -0.63878729222E+03  0.63878729222E+03  0.00000000000E+00 0.  1.
          6    1    1    2  501    0 -0.11551409862E+03 -0.64778614253E+02  0.11748281189E+02  0.21818982093E+03  0.17300000000E+03 0. -1.
         -6    1    1    2    0  503  0.11551409862E+03  0.64778614253E+02 -0.51340831518E+03  0.55772472954E+03  0.17300000000E+03 0.  1.
<mgrwt>
<rscale>  2 0.21787330E+03</rscale>
<asrwt>0</asrwt>
<pdfrwt beam="1">  1       21 0.21096501E-01 0.21787330E+03</pdfrwt>
<pdfrwt beam="2">  1       21 0.98274967E-01 0.21787330E+03</pdfrwt>
<totfact> 0.17591293E+04</totfact>
</mgrwt>
</event>
<event>
 4    1  0.4306168E+000  0.1780344E+03  0.7546771E-02  0.1169719E+00
         21   -1    0    0  501  502  0.00000000000E+00  0.00000000000E+00  0.22851177128E+03  0.22851177128E+03  0.00000000000E+00 0. -1.
         21   -1    0    0  502  503 -0.00000000000E+00 -0.00000000000E+00 -0.32627023855E+03  0.32627023855E+03  0.00000000000E+00 0. -1.
          6    1    1    2  501    0  0.40230810698E+02  0.12194788760E+02  0.16143916100E+03  0.24033067575E+03  0.17300000000E+03 0. -1.
         -6    1    1    2    0  503 -0.40230810698E+02 -0.12194788760E+02 -0.25919762827E+03  0.31445133408E+03  0.17300000000E+03 0. -1.
<mgrwt>
<rscale>  2 0.17803435E+03</rscale>
<asrwt>0</asrwt>
<pdfrwt beam="1">  1       21 0.35155657E-01 0.17803435E+03</pdfrwt>
<pdfrwt beam="2">  1       21 0.50195421E-01 0.17803435E+03</pdfrwt>
<totfact> 0.29717263E+04</totfact>
</mgrwt>
</event>
<event>
 4    1  0.4306168E+000  0.3105273E+03  0.7546771E-02  0.1080093E+00
         21   -1    0    0  501  502  0.00000000000E+00  0.00000000000E+00  0.11302075756E+04  0.11302075756E+04  0.00000000000E+00 0.  1.
         21   -1    0    0  502  503 -0.00000000000E+00 -0.00000000000E+00 -0.90034404557E+02  0.90034404557E+02  0.00000000000E+00 0.  1.
          6    1    1    2  501    0 -0.12261344710E+03  0.22685708283E+03  0.65972708613E+03  0.72915500520E+03  0.17300000000E+03 0.  1.
         -6    1    1    2    0  503  0.12261344710E+03 -0.22685708283E+03  0.38044608490E+03  0.49108697494E+03  0.17300000000E+03 0.  1.
<mgrwt>
<rscale>  2 0.31052728E+03</rscale>
<asrwt>0</asrwt>
<pdfrwt beam="1">  1       21 0.17387808E+00 0.31052728E+03</pdfrwt>
<pdfrwt beam="2">  1       21 0.13851448E-01 0.31052728E+03</pdfrwt>
<totfact> 0.84191865E+03</totfact>
</mgrwt>
</event>
<event>
 4    1  0.4306168E+000  0.1774537E+03  0.7546771E-02  0.1170290E+00
         21   -1    0    0  501  502  0.00000000000E+00  0.00000000000E+00  0.15261599274E+03  0.15261599274E+03  0.00000000000E+00 0.  1.
         21   -1    0    0  502  503 -0.00000000000E+00 -0.00000000000E+00 -0.55388303909E+03  0.55388303909E+03  0.00000000000E+00 0.  1.
          6    1    1    2  501    0  0.34461300339E+02 -0.19318982939E+02  0.79187828353E+02  0.19432065377E+03  0.17300000000E+03 0.  1.
         -6    1    1    2    0  503 -0.34461300339E+02  0.19318982939E+02 -0.48045487470E+03  0.51217837806E+03  0.17300000000E+03 0.  1.
<mgrwt>
<rscale>  2 0.17745367E+03</rscale>
<asrwt>0</asrwt>
<pdfrwt beam="1">  1       21 0.23479384E-01 0.17745367E+03</pdfrwt>
<pdfrwt beam="2">  1       21 0.85212774E-01 0.17745367E+03</pdfrwt>
<totfact> 0.20524078E+04</totfact>
</mgrwt>
</event>
<event>
 4    1  0.4306168E+000  0.1993944E+03  0.7546771E-02  0.1150251E+00
         21   -1    0    0  501  502  0.00000000000E+00  0.00000000000E+00  0.32322667982E+02  0.32322667982E+02  0.00000000000E+00 0.  1.
         21   -1    0    0  502  503 -0.00000000000E+00 -0.00000000000E+00 -0.12488008809E+04  0.12488008809E+04  0.00000000000E+00 0.  1.
          6    1    1    2  501    0  0.35078046314E+01 -0.99079881988E+02 -0.68675503973E+03  0.71511580342E+03  0.17300000000E+03 0.  1.
         -6    1    1    2    0  503 -0.35078046314E+01  0.99079881988E+02 -0.52972317318E+03  0.56600774545E+03  0.17300000000E+03 0.  1.
<mgrwt>
<rscale>  2 0.19939440E+03</rscale>
<asrwt>0</asrwt>
<pdfrwt beam="1">  1       21 0.49727188E-02 0.19939440E+03</pdfrwt>
<pdfrwt beam="2">  1       21 0.19212319E+00 0.19939440E+03</pdfrwt>
<totfact> 0.40823841E+04</totfact>
</mgrwt>
</event>
<event>
 4    1  0.4306168E+000  0.2551815E+03  0.7546771E-02  0.1110073E+00
         21   -1    0    0  503  502  0.00000000000E+00  0.00000000000E+00  0.73832438263E+03  0.73832438263E+03  0.00000000000E+00 0. -1.
         21   -1    0    0  501  503 -0.00000000000E+00 -0.00000000000E+00 -0.92374821399E+02  0.92374821399E+02  0.00000000000E+00 0. -1.
          6    1    1    2  501    0  0.16806867603E+03  0.83315760468E+02  0.23463830486E+03  0.34665938601E+03  0.17300000000E+03 0. -1.
         -6    1    1    2    0  502 -0.16806867603E+03 -0.83315760468E+02  0.41131125638E+03  0.48403981802E+03  0.17300000000E+03 0. -1.
<mgrwt>
<rscale>  2 0.25518150E+03</rscale>
<asrwt>0</asrwt>
<pdfrwt beam="1">  1       21 0.11358836E+00 0.25518150E+03</pdfrwt>
<pdfrwt beam="2">  1       21 0.14211511E-01 0.25518150E+03</pdfrwt>
<totfact> 0.25270325E+04</totfact>
</mgrwt>
</event>
<event>
 4    1  0.4306168E+000  0.1754212E+03  0.7546771E-02  0.1172309E+00
         21   -1    0    0  503  502  0.00000000000E+00  0.00000000000E+00  0.82832944512E+02  0.82832944512E+02  0.00000000000E+00 0. -1.
         21   -1    0    0  501  503 -0.00000000000E+00 -0.00000000000E+00 -0.43583754748E+03  0.43583754748E+03  0.00000000000E+00 0. -1.
          6    1    1    2  501    0  0.13286940538E+02 -0.25827454182E+02 -0.27614027889E+03  0.32714836665E+03  0.17300000000E+03 0. -1.
         -6    1    1    2    0  502 -0.13286940538E+02  0.25827454182E+02 -0.76864324077E+02  0.19152212534E+03  0.17300000000E+03 0. -1.
<mgrwt>
<rscale>  2 0.17542121E+03</rscale>
<asrwt>0</asrwt>
<pdfrwt beam="1">  1       21 0.12743530E-01 0.17542121E+03</pdfrwt>
<pdfrwt beam="2">  1       21 0.67051929E-01 0.17542121E+03</pdfrwt>
<totfact> 0.10800234E+05</totfact>
</mgrwt>
</event>
<event>
 4    1  0.4306168E+000  0.2042107E+03  0.7546771E-02  0.1146234E+00
         21   -1    0    0  503  502  0.00000000000E+00  0.00000000000E+00  0.14210833506E+03  0.14210833506E+03  0.00000000000E+00 0.  1.
         21   -1    0    0  501  503 -0.00000000000E+00 -0.00000000000E+00 -0.65993255855E+03  0.65993255855E+03  0.00000000000E+00 0.  1.
          6    1    1    2  501    0 -0.12510372004E+02 -0.10777981228E+03 -0.55775444367E+03  0.59396297593E+03  0.17300000000E+03 0.  1.
         -6    1    1    2    0  502  0.12510372004E+02  0.10777981228E+03  0.39930220184E+02  0.20807791768E+03  0.17300000000E+03 0.  1.
<mgrwt>
<rscale>  2 0.20421067E+03</rscale>
<asrwt>0</asrwt>
<pdfrwt beam="1">  1       21 0.21862821E-01 0.20421067E+03</pdfrwt>
<pdfrwt beam="2">  1       21 0.10152808E+00 0.20421067E+03</pdfrwt>
<totfact> 0.15349941E+04</totfact>
</mgrwt>
</event>
<event>
 4    1  0.4306168E+000  0.1744604E+03  0.7546771E-02  0.1173275E+00
         21   -1    0    0  501  502  0.00000000000E+00  0.00000000000E+00  0.28912354217E+03  0.28912354217E+03  0.00000000000E+00 0.  1.
         21   -1    0    0  502  503 -0.00000000000E+00 -0.00000000000E+00 -0.15550879176E+03  0.15550879176E+03  0.00000000000E+00 0.  1.
          6    1    1    2  501    0 -0.20175043080E+02 -0.10019211635E+02  0.19316674739E+03  0.26028793530E+03  0.17300000000E+03 0.  1.
         -6    1    1    2    0  503  0.20175043080E+02  0.10019211635E+02 -0.59551996972E+02  0.18434439864E+03  0.17300000000E+03 0.  1.
<mgrwt>
<rscale>  2 0.17446036E+03</rscale>
<asrwt>0</asrwt>
<pdfrwt beam="1">  1       21 0.44480545E-01 0.17446036E+03</pdfrwt>
<pdfrwt beam="2">  1       21 0.23924430E-01 0.17446036E+03</pdfrwt>
<totfact> 0.80527897E+04</totfact>
</mgrwt>
</event>
<event>
 4    1  0.4306168E+000  0.1796833E+03  0.7546771E-02  0.1168110E+00
         21   -1    0    0  503  502  0.00000000000E+00  0.00000000000E+00  0.27226228766E+02  0.27226228766E+02  0.00000000000E+00 0.  1.
         21   -1    0    0  501  503 -0.00000000000E+00 -0.00000000000E+00 -0.15341497027E+04  0.15341497027E+04  0.00000000000E+00 0.  1.
          6    1    1    2  501    0 -0.43355471713E+02 -0.21849164540E+02 -0.11254449857E+04  0.11396984245E+04  0.17300000000E+03 0.  1.
         -6    1    1    2    0  502  0.43355471713E+02  0.21849164540E+02 -0.38147848829E+03  0.42167750704E+03  0.17300000000E+03 0.  1.
<mgrwt>
<rscale>  2 0.17968329E+03</rscale>
<asrwt>0</asrwt>
<pdfrwt beam="1">  1       21 0.41886496E-02 0.17968329E+03</pdfrwt>
<pdfrwt beam="2">  1       21 0.23602309E+00 0.17968329E+03</pdfrwt>
<totfact> 0.29492020E+04</totfact>
</mgrwt>
</event>
<event>
 4    1  0.4306168E+000  0.2532110E+03  0.7546771E-02  0.1111292E+00
         21   -1    0    0  501  502  0.00000000000E+00  0.00000000000E+00  0.36057836395E+03  0.36057836395E+03  0.00000000000E+00 0. -1.
         21   -1    0    0  502  503 -0.00000000000E+00 -0.00000000000E+00 -0.49065615788E+03  0.49065615788E+03  0.00000000000E+00 0.  1.
          6    1    1    2  501    0  0.93441460363E+02  0.15954783589E+03  0.27481586757E+03  0.37368379617E+03  0.17300000000E+03 0. -1.
         -6    1    1    2    0  503 -0.93441460363E+02 -0.15954783589E+03 -0.40489366150E+03  0.47755072565E+03  0.17300000000E+03 0.  1.
<mgrwt>
<rscale>  2 0.25321102E+03</rscale>
<asrwt>0</asrwt>
<pdfrwt beam="1">  1       21 0.55473594E-01 0.25321102E+03</pdfrwt>
<pdfrwt beam="2">  1       21 0.75485563E-01 0.25321102E+03</pdfrwt>
<totfact> 0.45989986E+03</totfact>
</mgrwt>
</event>
<event>
 4    1  0.4306168E+000  0.3732812E+03  0.7546771E-02  0.1053445E+00
         21   -1    0    0  501  502  0.00000000000E+00  0.00000000000E+00  0.29374042124E+03  0.29374042124E+03  0.00000000000E+00 0.  1.
         21   -1    0    0  502  503 -0.00000000000E+00 -0.00000000000E+00 -0.48045655281E+03  0.48045655281E+03  0.00000000000E+00 0. -1.
          6    1    1    2  501    0 -0.25788086354E+03 -0.20714089363E+03 -0.49755268944E+02  0.37658262889E+03  0.17300000000E+03 0. -1.
         -6    1    1    2    0  503  0.25788086354E+03  0.20714089363E+03 -0.13696086262E+03  0.39761434517E+03  0.17300000000E+03 0.  1.
<mgrwt>
<rscale>  2 0.37328125E+03</rscale>
<asrwt>0</asrwt>
<pdfrwt beam="1">  1       21 0.45190834E-01 0.37328125E+03</pdfrwt>
<pdfrwt beam="2">  1       21 0.73916392E-01 0.37328125E+03</pdfrwt>
<totfact> 0.70140373E+03</totfact>
</mgrwt>
</event>
<event>
 4    1  0.4306168E+000  0.2242599E+03  0.7546771E-02  0.1130746E+00
         21   -1    0    0  503  502  0.00000000000E+00  0.00000000000E+00  0.35490173623E+03  0.35490173623E+03  0.00000000000E+00 0. -1.
         21   -1    0    0  501  503 -0.00000000000E+00 -0.00000000000E+00 -0.23905813180E+03  0.23905813180E+03  0.00000000000E+00 0.  1.
          6    1    1    2  501    0  0.32138182294E+02  0.13903468839E+03  0.24743656180E+03  0.33394214986E+03  0.17300000000E+03 0. -1.
         -6    1    1    2    0  502 -0.32138182294E+02 -0.13903468839E+03 -0.13159295737E+03  0.26001771817E+03  0.17300000000E+03 0.  1.
<mgrwt>
<rscale>  2 0.22425991E+03</rscale>
<asrwt>0</asrwt>
<pdfrwt beam="1">  1       21 0.54600267E-01 0.22425991E+03</pdfrwt>
<pdfrwt beam="2">  1       21 0.36778174E-01 0.22425991E+03</pdfrwt>
<totfact> 0.22185463E+04</totfact>
</mgrwt>
</event>
<event>
 4    1  0.4306168E+000  0.1961167E+03  0.7546771E-02  0.1153057E+00
         21   -1    0    0  503  502  0.00000000000E+00  0.00000000000E+00  0.16110616898E+03  0.16110616898E+03  0.00000000000E+00 0. -1.
         21   -1    0    0  501  503 -0.00000000000E+00 -0.00000000000E+00 -0.34981063427E+03  0.34981063427E+03  0.00000000000E+00 0. -1.
          6    1    1    2  501    0 -0.12088687935E+02  0.91578575021E+02 -0.23830233864E+03  0.30862562495E+03  0.17300000000E+03 0. -1.
         -6    1    1    2    0  502  0.12088687935E+02 -0.91578575021E+02  0.49597873346E+02  0.20229117830E+03  0.17300000000E+03 0. -1.
<mgrwt>
<rscale>  2 0.19611673E+03</rscale>
<asrwt>0</asrwt>
<pdfrwt beam="1">  1       21 0.24785565E-01 0.19611673E+03</pdfrwt>
<pdfrwt beam="2">  1       21 0.53817020E-01 0.19611673E+03</pdfrwt>
<totfact> 0.50201902E+04</totfact>
</mgrwt>
</event>
<event>
 4    1  0.4306168E+000  0.2037735E+03  0.7546771E-02  0.1146594E+00
         21   -1    0    0  503  502  0.00000000000E+00  0.00000000000E+00  0.58846090820E+03  0.58846090820E+03  0.00000000000E+00 0.  1.
         21   -1    0    0  501  503 -0.00000000000E+00 -0.00000000000E+00 -0.26993776684E+03  0.26993776684E+03  0.00000000000E+00 0.  1.
          6    1    1    2  501    0  0.54445146448E+02 -0.92899707671E+02 -0.20959896957E+03  0.29232748366E+03  0.17300000000E+03 0.  1.
         -6    1    1    2    0  502 -0.54445146448E+02  0.92899707671E+02  0.52812211093E+03  0.56607119138E+03  0.17300000000E+03 0.  1.
<mgrwt>
<rscale>  2 0.20377348E+03</rscale>
<asrwt>0</asrwt>
<pdfrwt beam="1">  1       21 0.90532447E-01 0.20377348E+03</pdfrwt>
<pdfrwt beam="2">  1       21 0.41528887E-01 0.20377348E+03</pdfrwt>
<totfact> 0.57364894E+03</totfact>
</mgrwt>
</event>
<event>
 4    1  0.4306168E+000  0.2156450E+03  0.7546771E-02  0.1137172E+00
         21   -1    0    0  501  502  0.00000000000E+00  0.00000000000E+00  0.18999505011E+03  0.18999505011E+03  0.00000000000E+00 0. -1.
         21   -1    0    0  502  503 -0.00000000000E+00 -0.00000000000E+00 -0.29288300056E+03  0.29288300056E+03  0.00000000000E+00 0.  1.
          6    1    1    2  501    0  0.12856488573E+03  0.66960719123E+01  0.46425382924E+02  0.22058577335E+03  0.17300000000E+03 0. -1.
         -6    1    1    2    0  503 -0.12856488573E+03 -0.66960719123E+01 -0.14931333337E+03  0.26229227732E+03  0.17300000000E+03 0.  1.
<mgrwt>
<rscale>  2 0.21564500E+03</rscale>
<asrwt>0</asrwt>
<pdfrwt beam="1">  1       21 0.29230008E-01 0.21564500E+03</pdfrwt>
<pdfrwt beam="2">  1       21 0.45058923E-01 0.21564500E+03</pdfrwt>
<totfact> 0.52402215E+04</totfact>
</mgrwt>
</event>
<event>
 4    1  0.4306168E+000  0.3867286E+03  0.7546771E-02  0.1048474E+00
         21   -1    0    0  503  502  0.00000000000E+00  0.00000000000E+00  0.94532131641E+03  0.94532131641E+03  0.00000000000E+00 0.  1.
         21   -1    0    0  501  503 -0.00000000000E+00 -0.00000000000E+00 -0.18547211110E+03  0.18547211110E+03  0.00000000000E+00 0. -1.
          6    1    1    2  501    0  0.27149008005E+03 -0.21429687732E+03  0.16315619307E+03  0.41973677291E+03  0.17300000000E+03 0.  1.
         -6    1    1    2    0  502 -0.27149008005E+03  0.21429687732E+03  0.59669301224E+03  0.71105665460E+03  0.17300000000E+03 0. -1.
<mgrwt>
<rscale>  2 0.38672861E+03</rscale>
<asrwt>0</asrwt>
<pdfrwt beam="1">  1       21 0.14543405E+00 0.38672861E+03</pdfrwt>
<pdfrwt beam="2">  1       21 0.28534171E-01 0.38672861E+03</pdfrwt>
<totfact> 0.33785283E+03</totfact>
</mgrwt>
</event>
<event>
 4    1  0.4306168E+000  0.1851363E+03  0.7546771E-02  0.1162923E+00
         21   -1    0    0  503  502  0.00000000000E+00  0.00000000000E+00  0.91213046425E+02  0.91213046425E+02  0.00000000000E+00 0. -1.
         21   -1    0    0  501  503 -0.00000000000E+00 -0.00000000000E+00 -0.74992651678E+03  0.74992651678E+03  0.00000000000E+00 0. -1.
          6    1    1    2  501    0 -0.64738336592E+02 -0.12465730770E+02 -0.62642299569E+03  0.65320840181E+03  0.17300000000E+03 0. -1.
         -6    1    1    2    0  502  0.64738336592E+02  0.12465730770E+02 -0.32290474665E+02  0.18793116139E+03  0.17300000000E+03 0. -1.
<mgrwt>
<rscale>  2 0.18513629E+03</rscale>
<asrwt>0</asrwt>
<pdfrwt beam="1">  1       21 0.14032777E-01 0.18513629E+03</pdfrwt>
<pdfrwt beam="2">  1       21 0.11537330E+00 0.18513629E+03</pdfrwt>
<totfact> 0.25868461E+04</totfact>
</mgrwt>
</event>
<event>
 4    1  0.4306168E+000  0.1778697E+03  0.7546771E-02  0.1169881E+00
         21   -1    0    0  503  502  0.00000000000E+00  0.00000000000E+00  0.29052224891E+03  0.29052224891E+03  0.00000000000E+00 0. -1.
         21   -1    0    0  501  503 -0.00000000000E+00 -0.00000000000E+00 -0.11107023249E+03  0.11107023249E+03  0.00000000000E+00 0.  1.
          6    1    1    2  501    0 -0.75751933858E+01 -0.40635571533E+02  0.61652777309E+02  0.18825168838E+03  0.17300000000E+03 0.  1.
         -6    1    1    2    0  502  0.75751933858E+01  0.40635571533E+02  0.11779923911E+03  0.21334079301E+03  0.17300000000E+03 0. -1.
<mgrwt>
<rscale>  2 0.17786971E+03</rscale>
<asrwt>0</asrwt>
<pdfrwt beam="1">  1       21 0.44695730E-01 0.17786971E+03</pdfrwt>
<pdfrwt beam="2">  1       21 0.17087728E-01 0.17786971E+03</pdfrwt>
<totfact> 0.14920800E+05</totfact>
</mgrwt>
</event>
<event>
 4    1  0.4306168E+000  0.1903025E+03  0.7546771E-02  0.1158189E+00
         21   -1    0    0  501  502  0.00000000000E+00  0.00000000000E+00  0.47285571119E+02  0.47285571119E+02  0.00000000000E+00 0. -1.
         21   -1    0    0  502  503 -0.00000000000E+00 -0.00000000000E+00 -0.84278853475E+03  0.84278853475E+03  0.00000000000E+00 0. -1.
          6    1    1    2  501    0 -0.34590771712E+02  0.71340853053E+02 -0.26331219973E+03  0.32488206064E+03  0.17300000000E+03 0. -1.
         -6    1    1    2    0  503  0.34590771712E+02 -0.71340853053E+02 -0.53219076390E+03  0.56519204522E+03  0.17300000000E+03 0. -1.
<mgrwt>
<rscale>  2 0.19030249E+03</rscale>
<asrwt>0</asrwt>
<pdfrwt beam="1">  1       21 0.72747039E-02 0.19030249E+03</pdfrwt>
<pdfrwt beam="2">  1       21 0.12965976E+00 0.19030249E+03</pdfrwt>
<totfact> 0.61654606E+04</totfact>
</mgrwt>
</event>
<event>
 4    1  0.4306168E+000  0.1780887E+03  0.7546771E-02  0.1169666E+00
         21   -1    0    0  501  502  0.00000000000E+00  0.00000000000E+00  0.13590743579E+03  0.13590743579E+03  0.00000000000E+00 0.  1.
         21   -1    0    0  502  503 -0.00000000000E+00 -0.00000000000E+00 -0.42677409919E+03  0.42677409919E+03  0.00000000000E+00 0.  1.
          6    1    1    2  501    0  0.35574758960E+02 -0.22826045579E+02  0.43964840637E+02  0.18343527208E+03  0.17300000000E+03 0.  1.
         -6    1    1    2    0  503 -0.35574758960E+02  0.22826045579E+02 -0.33483150403E+03  0.37924626290E+03  0.17300000000E+03 0.  1.
<mgrwt>
<rscale>  2 0.17808872E+03</rscale>
<asrwt>0</asrwt>
<pdfrwt beam="1">  1       21 0.20908836E-01 0.17808872E+03</pdfrwt>
<pdfrwt beam="2">  1       21 0.65657554E-01 0.17808872E+03</pdfrwt>
<totfact> 0.45614719E+04</totfact>
</mgrwt>
</event>
<event>
 4    1  0.4306168E+000  0.2522377E+03  0.7546771E-02  0.1111899E+00
         21   -1    0    0  503  502  0.00000000000E+00  0.00000000000E+00  0.94353125300E+03  0.94353125300E+03  0.00000000000E+00 0. -1.
         21   -1    0    0  501  503 -0.00000000000E+00 -0.00000000000E+00 -0.94961802589E+02  0.94961802589E+02  0.00000000000E+00 0.  1.
          6    1    1    2  501    0  0.14998093191E+03 -0.10583277947E+03  0.14470637596E+03  0.29079854262E+03  0.17300000000E+03 0.  1.
         -6    1    1    2    0  502 -0.14998093191E+03  0.10583277947E+03  0.70386307445E+03  0.74769451296E+03  0.17300000000E+03 0.  1.
<mgrwt>
<rscale>  2 0.25223770E+03</rscale>
<asrwt>0</asrwt>
<pdfrwt beam="1">  1       21 0.14515865E+00 0.25223770E+03</pdfrwt>
<pdfrwt beam="2">  1       21 0.14609509E-01 0.25223770E+03</pdfrwt>
<totfact> 0.12898561E+04</totfact>
</mgrwt>
</event>
<event>
 4    1  0.4306168E+000  0.2040831E+03  0.7546771E-02  0.1146339E+00
         21   -1    0    0  501  502  0.00000000000E+00  0.00000000000E+00  0.35154450674E+02  0.35154450674E+02  0.00000000000E+00 0.  1.
         21   -1    0    0  502  503 -0.00000000000E+00 -0.00000000000E+00 -0.12338497341E+04  0.12338497341E+04  0.00000000000E+00 0.  1.
          6    1    1    2  501    0  0.80987358253E+02  0.71846885409E+02 -0.47279988349E+03  0.51496568523E+03  0.17300000000E+03 0.  1.
         -6    1    1    2    0  503 -0.80987358253E+02 -0.71846885409E+02 -0.72589539991E+03  0.75403849952E+03  0.17300000000E+03 0.  1.
<mgrwt>
<rscale>  2 0.20408314E+03</rscale>
<asrwt>0</asrwt>
<pdfrwt beam="1">  1       21 0.54083770E-02 0.20408314E+03</pdfrwt>
<pdfrwt beam="2">  1       21 0.18982304E+00 0.20408314E+03</pdfrwt>
<totfact> 0.36534341E+04</totfact>
</mgrwt>
</event>
<event>
 4    1  0.4306168E+000  0.1795570E+03  0.7546771E-02  0.1168233E+00
         21   -1    0    0  503  502  0.00000000000E+00  0.00000000000E+00  0.16800506289E+03  0.16800506289E+03  0.00000000000E+00 0.  1.
         21   -1    0    0  501  503 -0.00000000000E+00 -0.00000000000E+00 -0.12125464520E+04  0.12125464520E+04  0.00000000000E+00 0.  1.
          6    1    1    2  501    0  0.67676312736E+01  0.47601517496E+02 -0.11555720504E+04  0.11694389547E+04  0.17300000000E+03 0.  1.
         -6    1    1    2    0  502 -0.67676312736E+01 -0.47601517496E+02  0.11103066128E+03  0.21111256013E+03  0.17300000000E+03 0.  1.
<mgrwt>
<rscale>  2 0.17955697E+03</rscale>
<asrwt>0</asrwt>
<pdfrwt beam="1">  1       21 0.25846933E-01 0.17955697E+03</pdfrwt>
<pdfrwt beam="2">  1       21 0.18654561E+00 0.17955697E+03</pdfrwt>
<totfact> 0.23680148E+03</totfact>
</mgrwt>
</event>
<event>
 4    1  0.4306168E+000  0.1758209E+03  0.7546771E-02  0.1171910E+00
         21   -1    0    0  503  502  0.00000000000E+00  0.00000000000E+00  0.32736767853E+03  0.32736767853E+03  0.00000000000E+00 0. -1.
         21   -1    0    0  501  503 -0.00000000000E+00 -0.00000000000E+00 -0.12336819781E+03  0.12336819781E+03  0.00000000000E+00 0. -1.
          6    1    1    2  501    0 -0.10140504425E+02 -0.29684460597E+02 -0.71528109056E+01  0.17596635967E+03  0.17300000000E+03 0. -1.
         -6    1    1    2    0  502  0.10140504425E+02  0.29684460597E+02  0.21115229163E+03  0.27476951667E+03  0.17300000000E+03 0. -1.
<mgrwt>
<rscale>  2 0.17582092E+03</rscale>
<asrwt>0</asrwt>
<pdfrwt beam="1">  1       21 0.50364258E-01 0.17582092E+03</pdfrwt>
<pdfrwt beam="2">  1       21 0.18979723E-01 0.17582092E+03</pdfrwt>
<totfact> 0.96137984E+04</totfact>
</mgrwt>
</event>
<event>
 4    1  0.4306168E+000  0.1965052E+03  0.7546771E-02  0.1152721E+00
         21   -1    0    0  503  502  0.00000000000E+00  0.00000000000E+00  0.29857835495E+03  0.29857835495E+03  0.00000000000E+00 0. -1.
         21   -1    0    0  501  503 -0.00000000000E+00 -0.00000000000E+00 -0.14155582242E+03  0.14155582242E+03  0.00000000000E+00 0. -1.
          6    1    1    2  501    0  0.91925846140E+02  0.15328064521E+02  0.13829850994E+02  0.19699130826E+03  0.17300000000E+03 0. -1.
         -6    1    1    2    0  502 -0.91925846140E+02 -0.15328064521E+02  0.14319268154E+03  0.24314286911E+03  0.17300000000E+03 0. -1.
<mgrwt>
<rscale>  2 0.19650524E+03</rscale>
<asrwt>0</asrwt>
<pdfrwt beam="1">  1       21 0.45935132E-01 0.19650524E+03</pdfrwt>
<pdfrwt beam="2">  1       21 0.21777819E-01 0.19650524E+03</pdfrwt>
<totfact> 0.89233958E+04</totfact>
</mgrwt>
</event>
<event>
 4    1  0.4306168E+000  0.1875648E+03  0.7546771E-02  0.1160676E+00
         21   -1    0    0  501  502  0.00000000000E+00  0.00000000000E+00  0.14044690249E+03  0.14044690249E+03  0.00000000000E+00 0. -1.
         21   -1    0    0  502  503 -0.00000000000E+00 -0.00000000000E+00 -0.30510381529E+03  0.30510381529E+03  0.00000000000E+00 0. -1.
          6    1    1    2  501    0  0.66990172177E+02 -0.27638107035E+02  0.11924393678E+02  0.18794344706E+03  0.17300000000E+03 0. -1.
         -6    1    1    2    0  503 -0.66990172177E+02  0.27638107035E+02 -0.17658130648E+03  0.25760727072E+03  0.17300000000E+03 0. -1.
<mgrwt>
<rscale>  2 0.18756478E+03</rscale>
<asrwt>0</asrwt>
<pdfrwt beam="1">  1       21 0.21607216E-01 0.18756478E+03</pdfrwt>
<pdfrwt beam="2">  1       21 0.46939048E-01 0.18756478E+03</pdfrwt>
<totfact> 0.86926711E+04</totfact>
</mgrwt>
</event>
<event>
 4    1  0.4306168E+000  0.1813571E+03  0.7546771E-02  0.1166496E+00
         21   -1    0    0  501  502  0.00000000000E+00  0.00000000000E+00  0.32787348637E+03  0.32787348637E+03  0.00000000000E+00 0. -1.
         21   -1    0    0  502  503 -0.00000000000E+00 -0.00000000000E+00 -0.11863974791E+03  0.11863974791E+03  0.00000000000E+00 0.  1.
          6    1    1    2  501    0 -0.31793784986E+02  0.44165118149E+02  0.19236066495E+03  0.26437289544E+03  0.17300000000E+03 0. -1.
         -6    1    1    2    0  503  0.31793784986E+02 -0.44165118149E+02  0.16873073513E+02  0.18214033884E+03  0.17300000000E+03 0.  1.
<mgrwt>
<rscale>  2 0.18135711E+03</rscale>
<asrwt>0</asrwt>
<pdfrwt beam="1">  1       21 0.50442075E-01 0.18135711E+03</pdfrwt>
<pdfrwt beam="2">  1       21 0.18252269E-01 0.18135711E+03</pdfrwt>
<totfact> 0.10279756E+05</totfact>
</mgrwt>
</event>
<event>
 4    1  0.4306168E+000  0.1900495E+03  0.7546771E-02  0.1158417E+00
         21   -1    0    0  503  502  0.00000000000E+00  0.00000000000E+00  0.43378238104E+02  0.43378238104E+02  0.00000000000E+00 0.  1.
         21   -1    0    0  501  503 -0.00000000000E+00 -0.00000000000E+00 -0.10259628293E+04  0.10259628293E+04  0.00000000000E+00 0.  1.
          6    1    1    2  501    0 -0.16126534536E+02 -0.77004959421E+02 -0.72338011973E+03  0.74792889135E+03  0.17300000000E+03 0.  1.
         -6    1    1    2    0  502  0.16126534536E+02  0.77004959421E+02 -0.25920447148E+03  0.32141217607E+03  0.17300000000E+03 0.  1.
<mgrwt>
<rscale>  2 0.19004954E+03</rscale>
<asrwt>0</asrwt>
<pdfrwt beam="1">  1       21 0.66735756E-02 0.19004954E+03</pdfrwt>
<pdfrwt beam="2">  1       21 0.15784042E+00 0.19004954E+03</pdfrwt>
<totfact> 0.42947942E+04</totfact>
</mgrwt>
</event>
<event>
 4    1  0.4306168E+000  0.1786177E+03  0.7546771E-02  0.1169148E+00
         21   -1    0    0  503  502  0.00000000000E+00  0.00000000000E+00  0.43013772736E+03  0.43013772736E+03  0.00000000000E+00 0. -1.
         21   -1    0    0  501  503 -0.00000000000E+00 -0.00000000000E+00 -0.39221349195E+03  0.39221349195E+03  0.00000000000E+00 0. -1.
          6    1    1    2  501    0 -0.39642999840E+02  0.20092496764E+02 -0.35129874801E+03  0.39410035044E+03  0.17300000000E+03 0. -1.
         -6    1    1    2    0  502  0.39642999840E+02 -0.20092496764E+02  0.38922298343E+03  0.42825086887E+03  0.17300000000E+03 0. -1.
<mgrwt>
<rscale>  2 0.17861768E+03</rscale>
<asrwt>0</asrwt>
<pdfrwt beam="1">  1       21 0.66175035E-01 0.17861768E+03</pdfrwt>
<pdfrwt beam="2">  1       21 0.60340537E-01 0.17861768E+03</pdfrwt>
<totfact> 0.54248833E+03</totfact>
</mgrwt>
</event>
<event>
 4    1  0.4306168E+000  0.1772655E+03  0.7546771E-02  0.1170476E+00
         21   -1    0    0  501  502  0.00000000000E+00  0.00000000000E+00  0.66937579911E+02  0.66937579911E+02  0.00000000000E+00 0. -1.
         21   -1    0    0  502  503 -0.00000000000E+00 -0.00000000000E+00 -0.48269616886E+03  0.48269616886E+03  0.00000000000E+00 0. -1.
          6    1    1    2  501    0 -0.35784113367E+02 -0.14613869042E+02 -0.16233412765E+03  0.24036521574E+03  0.17300000000E+03 0. -1.
         -6    1    1    2    0  503  0.35784113367E+02  0.14613869042E+02 -0.25342446130E+03  0.30926853303E+03  0.17300000000E+03 0. -1.
<mgrwt>
<rscale>  2 0.17726553E+03</rscale>
<asrwt>0</asrwt>
<pdfrwt beam="1">  1       21 0.10298089E-01 0.17726553E+03</pdfrwt>
<pdfrwt beam="2">  1       21 0.74260947E-01 0.17726553E+03</pdfrwt>
<totfact> 0.12592059E+05</totfact>
</mgrwt>
</event>
<event>
 4    1  0.4306168E+000  0.1768985E+03  0.7546771E-02  0.1170839E+00
         21   -1    0    0  501  502  0.00000000000E+00  0.00000000000E+00  0.10419910947E+03  0.10419910947E+03  0.00000000000E+00 0.  1.
         21   -1    0    0  502  503 -0.00000000000E+00 -0.00000000000E+00 -0.30641137039E+03  0.30641137039E+03  0.00000000000E+00 0.  1.
          6    1    1    2  501    0 -0.34606824036E+02  0.12901757601E+02 -0.72159280199E+02  0.19104986087E+03  0.17300000000E+03 0.  1.
         -6    1    1    2    0  503  0.34606824036E+02 -0.12901757601E+02 -0.13005298072E+03  0.21956061899E+03  0.17300000000E+03 0.  1.
<mgrwt>
<rscale>  2 0.17689852E+03</rscale>
<asrwt>0</asrwt>
<pdfrwt beam="1">  1       21 0.16030633E-01 0.17689852E+03</pdfrwt>
<pdfrwt beam="2">  1       21 0.47140210E-01 0.17689852E+03</pdfrwt>
<totfact> 0.15038912E+05</totfact>
</mgrwt>
</event>
<event>
 4    1  0.4306168E+000  0.1785830E+03  0.7546771E-02  0.1169182E+00
         21   -1    0    0  503  502  0.00000000000E+00  0.00000000000E+00  0.13222301520E+04  0.13222301520E+04  0.00000000000E+00 0.  1.
         21   -1    0    0  501  503 -0.00000000000E+00 -0.00000000000E+00 -0.24357984144E+02  0.24357984144E+02  0.00000000000E+00 0. -1.
          6    1    1    2  501    0 -0.40419602423E+01 -0.44119710802E+02  0.71551986609E+03  0.73746902654E+03  0.17300000000E+03 0.  1.
         -6    1    1    2    0  502  0.40419602423E+01  0.44119710802E+02  0.58235230180E+03  0.60911910965E+03  0.17300000000E+03 0. -1.
<mgrwt>
<rscale>  2 0.17858300E+03</rscale>
<asrwt>0</asrwt>
<pdfrwt beam="1">  1       21 0.20341997E+00 0.17858300E+03</pdfrwt>
<pdfrwt beam="2">  1       21 0.37473832E-02 0.17858300E+03</pdfrwt>
<totfact> 0.56321437E+04</totfact>
</mgrwt>
</event>
<event>
 4    1  0.4306168E+000  0.2172266E+03  0.7546771E-02  0.1135968E+00
         21   -1    0    0  501  502  0.00000000000E+00  0.00000000000E+00  0.51428229663E+02  0.51428229663E+02  0.00000000000E+00 0. -1.
         21   -1    0    0  502  503 -0.00000000000E+00 -0.00000000000E+00 -0.13337685777E+04  0.13337685777E+04  0.00000000000E+00 0. -1.
          6    1    1    2  501    0 -0.70129587351E+02  0.11108664216E+03 -0.25426212141E+03  0.33441983714E+03  0.17300000000E+03 0. -1.
         -6    1    1    2    0  503  0.70129587351E+02 -0.11108664216E+03 -0.10280782266E+04  0.10507769702E+04  0.17300000000E+03 0. -1.
<mgrwt>
<rscale>  2 0.21722661E+03</rscale>
<asrwt>0</asrwt>
<pdfrwt beam="1">  1       21 0.79120355E-02 0.21722661E+03</pdfrwt>
<pdfrwt beam="2">  1       21 0.20519516E+00 0.21722661E+03</pdfrwt>
<totfact> 0.14930959E+04</totfact>
</mgrwt>
</event>
<event>
 4    1  0.4306168E+000  0.1975373E+03  0.7546771E-02  0.1151834E+00
         21   -1    0    0  501  502  0.00000000000E+00  0.00000000000E+00  0.29630321754E+03  0.29630321754E+03  0.00000000000E+00 0.  1.
         21   -1    0    0  502  503 -0.00000000000E+00 -0.00000000000E+00 -0.18329514059E+03  0.18329514059E+03  0.00000000000E+00 0.  1.
          6    1    1    2  501    0  0.91839583363E+02  0.25641257237E+02  0.18373920465E+03  0.26977968506E+03  0.17300000000E+03 0. -1.
         -6    1    1    2    0  503 -0.91839583363E+02 -0.25641257237E+02 -0.70731127697E+02  0.20981867307E+03  0.17300000000E+03 0. -1.
<mgrwt>
<rscale>  2 0.19753730E+03</rscale>
<asrwt>0</asrwt>
<pdfrwt beam="1">  1       21 0.45585110E-01 0.19753730E+03</pdfrwt>
<pdfrwt beam="2">  1       21 0.28199253E-01 0.19753730E+03</pdfrwt>
<totfact> 0.55326676E+04</totfact>
</mgrwt>
</event>
<event>
 4    1  0.4306168E+000  0.2130389E+03  0.7546771E-02  0.1139182E+00
         21   -1    0    0  503  502  0.00000000000E+00  0.00000000000E+00  0.52692092435E+03  0.52692092435E+03  0.00000000000E+00 0. -1.
         21   -1    0    0  501  503 -0.00000000000E+00 -0.00000000000E+00 -0.90256280504E+02  0.90256280504E+02  0.00000000000E+00 0.  1.
          6    1    1    2  501    0 -0.10790504169E+03  0.61750021099E+02  0.28428528381E+03  0.35525158088E+03  0.17300000000E+03 0. -1.
         -6    1    1    2    0  502  0.10790504169E+03 -0.61750021099E+02  0.15237936003E+03  0.26192562397E+03  0.17300000000E+03 0.  1.
<mgrwt>
<rscale>  2 0.21303888E+03</rscale>
<asrwt>0</asrwt>
<pdfrwt beam="1">  1       21 0.81064756E-01 0.21303888E+03</pdfrwt>
<pdfrwt beam="2">  1       21 0.13885582E-01 0.21303888E+03</pdfrwt>
<totfact> 0.59662417E+04</totfact>
</mgrwt>
</event>
<event>
 4    1  0.4306168E+000  0.3547543E+03  0.7546771E-02  0.1060680E+00
         21   -1    0    0  503  502  0.00000000000E+00  0.00000000000E+00  0.12617821598E+04  0.12617821598E+04  0.00000000000E+00 0. -1.
         21   -1    0    0  501  503 -0.00000000000E+00 -0.00000000000E+00 -0.17449054531E+03  0.17449054531E+03  0.00000000000E+00 0.  1.
          6    1    1    2  501    0 -0.65050666039E+02  0.30280355010E+03  0.73614092508E+02  0.36231148715E+03  0.17300000000E+03 0.  1.
         -6    1    1    2    0  502  0.65050666039E+02 -0.30280355010E+03  0.10136775220E+04  0.10739612180E+04  0.17300000000E+03 0. -1.
<mgrwt>
<rscale>  2 0.35475425E+03</rscale>
<asrwt>0</asrwt>
<pdfrwt beam="1">  1       21 0.19412033E+00 0.35475425E+03</pdfrwt>
<pdfrwt beam="2">  1       21 0.26844700E-01 0.35475425E+03</pdfrwt>
<totfact> 0.17122755E+03</totfact>
</mgrwt>
</event>
<event>
 4    1  0.4306168E+000  0.2236854E+03  0.7546771E-02  0.1131165E+00
         21   -1    0    0  501  502  0.00000000000E+00  0.00000000000E+00  0.24851172348E+03  0.24851172348E+03  0.00000000000E+00 0.  1.
         21   -1    0    0  502  503 -0.00000000000E+00 -0.00000000000E+00 -0.20990790315E+03  0.20990790315E+03  0.00000000000E+00 0. -1.
          6    1    1    2  501    0  0.11968517082E+03 -0.76037047898E+02  0.65611848413E+02  0.23310960388E+03  0.17300000000E+03 0.  1.
         -6    1    1    2    0  503 -0.11968517082E+03  0.76037047898E+02 -0.27008028084E+02  0.22531002274E+03  0.17300000000E+03 0. -1.
<mgrwt>
<rscale>  2 0.22368543E+03</rscale>
<asrwt>0</asrwt>
<pdfrwt beam="1">  1       21 0.38232573E-01 0.22368543E+03</pdfrwt>
<pdfrwt beam="2">  1       21 0.32293524E-01 0.22368543E+03</pdfrwt>
<totfact> 0.60022052E+04</totfact>
</mgrwt>
</event>
<event>
 4    1  0.4306168E+000  0.1883972E+03  0.7546771E-02  0.1159915E+00
         21   -1    0    0  503  502  0.00000000000E+00  0.00000000000E+00  0.32671706924E+02  0.32671706924E+02  0.00000000000E+00 0.  1.
         21   -1    0    0  501  503 -0.00000000000E+00 -0.00000000000E+00 -0.11072417259E+04  0.11072417259E+04  0.00000000000E+00 0.  1.
          6    1    1    2  501    0  0.40222560066E+02  0.62822263451E+02 -0.61554188138E+03  0.64372765892E+03  0.17300000000E+03 0.  1.
         -6    1    1    2    0  502 -0.40222560066E+02 -0.62822263451E+02 -0.45902813762E+03  0.49618577393E+03  0.17300000000E+03 0.  1.
<mgrwt>
<rscale>  2 0.18839716E+03</rscale>
<asrwt>0</asrwt>
<pdfrwt beam="1">  1       21 0.50264177E-02 0.18839716E+03</pdfrwt>
<pdfrwt beam="2">  1       21 0.17034484E+00 0.18839716E+03</pdfrwt>
<totfact> 0.56709399E+04</totfact>
</mgrwt>
</event>
<event>
 4    1  0.4306168E+000  0.2694177E+03  0.7546771E-02  0.1101613E+00
         21   -1    0    0  503  502  0.00000000000E+00  0.00000000000E+00  0.18942836432E+03  0.18942836432E+03  0.00000000000E+00 0.  1.
         21   -1    0    0  501  503 -0.00000000000E+00 -0.00000000000E+00 -0.73422224801E+03  0.73422224801E+03  0.00000000000E+00 0.  1.
          6    1    1    2  501    0 -0.20473641277E+03  0.27201277775E+02 -0.59172803597E+03  0.65017534311E+03  0.17300000000E+03 0.  1.
         -6    1    1    2    0  502  0.20473641277E+03 -0.27201277775E+02  0.46934152286E+02  0.27347526923E+03  0.17300000000E+03 0.  1.
<mgrwt>
<rscale>  2 0.26941772E+03</rscale>
<asrwt>0</asrwt>
<pdfrwt beam="1">  1       21 0.29142825E-01 0.26941772E+03</pdfrwt>
<pdfrwt beam="2">  1       21 0.11295727E+00 0.26941772E+03</pdfrwt>
<totfact> 0.65612987E+03</totfact>
</mgrwt>
</event>
<event>
 4    1  0.4306168E+000  0.1741087E+03  0.7546771E-02  0.1173630E+00
         21   -1    0    0  503  502  0.00000000000E+00  0.00000000000E+00  0.90967927872E+02  0.90967927872E+02  0.00000000000E+00 0.  1.
         21   -1    0    0  501  503 -0.00000000000E+00 -0.00000000000E+00 -0.15029484672E+04  0.15029484672E+04  0.00000000000E+00 0.  1.
          6    1    1    2  501    0  0.85445196840E+01  0.17658940839E+02 -0.14090673443E+04  0.14197833031E+04  0.17300000000E+03 0.  1.
         -6    1    1    2    0  502 -0.85445196840E+01 -0.17658940839E+02 -0.29131950176E+01  0.17413309195E+03  0.17300000000E+03 0.  1.
<mgrwt>
<rscale>  2 0.17410872E+03</rscale>
<asrwt>0</asrwt>
<pdfrwt beam="1">  1       21 0.13995067E-01 0.17410872E+03</pdfrwt>
<pdfrwt beam="2">  1       21 0.23122282E+00 0.17410872E+03</pdfrwt>
<totfact> 0.39020469E+03</totfact>
</mgrwt>
</event>
<event>
 4    1  0.4306168E+000  0.3658861E+03  0.7546771E-02  0.1056277E+00
         21   -1    0    0  503  502  0.00000000000E+00  0.00000000000E+00  0.55935290930E+03  0.55935290930E+03  0.00000000000E+00 0.  1.
         21   -1    0    0  501  503 -0.00000000000E+00 -0.00000000000E+00 -0.10095848181E+04  0.10095848181E+04  0.00000000000E+00 0. -1.
          6    1    1    2  501    0 -0.30538660678E+03  0.10335708021E+03 -0.91032034804E+03  0.98109928227E+03  0.17300000000E+03 0. -1.
         -6    1    1    2    0  502  0.30538660678E+03 -0.10335708021E+03  0.46008843925E+03  0.58783844512E+03  0.17300000000E+03 0.  1.
<mgrwt>
<rscale>  2 0.36588614E+03</rscale>
<asrwt>0</asrwt>
<pdfrwt beam="1">  1       21 0.86054293E-01 0.36588614E+03</pdfrwt>
<pdfrwt beam="2">  1       21 0.15532074E+00 0.36588614E+03</pdfrwt>
<totfact> 0.27310995E+02</totfact>
</mgrwt>
</event>
<event>
 4    1  0.4306168E+000  0.2158480E+03  0.7546771E-02  0.1137017E+00
         21   -1    0    0  501  502  0.00000000000E+00  0.00000000000E+00  0.10995203611E+04  0.10995203611E+04  0.00000000000E+00 0. -1.
         21   -1    0    0  502  503 -0.00000000000E+00 -0.00000000000E+00 -0.58007564106E+02  0.58007564106E+02  0.00000000000E+00 0.  1.
          6    1    1    2  501    0 -0.66123584038E+02 -0.11085583994E+03  0.82122382017E+03  0.84911654584E+03  0.17300000000E+03 0. -1.
         -6    1    1    2    0  503  0.66123584038E+02  0.11085583994E+03  0.22028897686E+03  0.30841137940E+03  0.17300000000E+03 0.  1.
<mgrwt>
<rscale>  2 0.21584797E+03</rscale>
<asrwt>0</asrwt>
<pdfrwt beam="1">  1       21 0.16915696E+00 0.21584797E+03</pdfrwt>
<pdfrwt beam="2">  1       21 0.89242414E-02 0.21584797E+03</pdfrwt>
<totfact> 0.21110319E+04</totfact>
</mgrwt>
</event>
<event>
 4    1  0.4306168E+000  0.2398859E+03  0.7546771E-02  0.1119869E+00
         21   -1    0    0  503  502  0.00000000000E+00  0.00000000000E+00  0.50635557970E+03  0.50635557970E+03  0.00000000000E+00 0.  1.
         21   -1    0    0  501  503 -0.00000000000E+00 -0.00000000000E+00 -0.19680182176E+03  0.19680182176E+03  0.00000000000E+00 0.  1.
          6    1    1    2  501    0 -0.16524835481E+03  0.17584582825E+02 -0.73759102645E+02  0.25096940360E+03  0.17300000000E+03 0.  1.
         -6    1    1    2    0  502  0.16524835481E+03 -0.17584582825E+02  0.38331286059E+03  0.45218799786E+03  0.17300000000E+03 0.  1.
<mgrwt>
<rscale>  2 0.23988588E+03</rscale>
<asrwt>0</asrwt>
<pdfrwt beam="1">  1       21 0.77900858E-01 0.23988588E+03</pdfrwt>
<pdfrwt beam="2">  1       21 0.30277204E-01 0.23988588E+03</pdfrwt>
<totfact> 0.14859608E+04</totfact>
</mgrwt>
</event>
<event>
 4    1  0.4306168E+000  0.2201008E+03  0.7546771E-02  0.1133808E+00
         21   -1    0    0  503  502  0.00000000000E+00  0.00000000000E+00  0.63218116233E+03  0.63218116233E+03  0.00000000000E+00 0.  1.
         21   -1    0    0  501  503 -0.00000000000E+00 -0.00000000000E+00 -0.99467902238E+02  0.99467902238E+02  0.00000000000E+00 0.  1.
          6    1    1    2  501    0  0.97970157075E+02 -0.94430956709E+02  0.91067608538E+02  0.23819669726E+03  0.17300000000E+03 0.  1.
         -6    1    1    2    0  502 -0.97970157075E+02  0.94430956709E+02  0.44164565156E+03  0.49345236731E+03  0.17300000000E+03 0.  1.
<mgrwt>
<rscale>  2 0.22010079E+03</rscale>
<asrwt>0</asrwt>
<pdfrwt beam="1">  1       21 0.97258638E-01 0.22010079E+03</pdfrwt>
<pdfrwt beam="2">  1       21 0.15302755E-01 0.22010079E+03</pdfrwt>
<totfact> 0.32667660E+04</totfact>
</mgrwt>
</event>
<event>
 4    1  0.4306168E+000  0.2002087E+03  0.7546771E-02  0.1149563E+00
         21   -1    0    0  501  502  0.00000000000E+00  0.00000000000E+00  0.22579103525E+03  0.22579103525E+03  0.00000000000E+00 0.  1.
         21   -1    0    0  502  503 -0.00000000000E+00 -0.00000000000E+00 -0.20789608074E+03  0.20789608074E+03  0.00000000000E+00 0.  1.
          6    1    1    2  501    0 -0.49759068475E+02 -0.87627275882E+02  0.91828490792E+02  0.22026342432E+03  0.17300000000E+03 0.  1.
         -6    1    1    2    0  503  0.49759068475E+02  0.87627275882E+02 -0.73933536283E+02  0.21342369166E+03  0.17300000000E+03 0.  1.
<mgrwt>
<rscale>  2 0.20020865E+03</rscale>
<asrwt>0</asrwt>
<pdfrwt beam="1">  1       21 0.34737082E-01 0.20020865E+03</pdfrwt>
<pdfrwt beam="2">  1       21 0.31984013E-01 0.20020865E+03</pdfrwt>
<totfact> 0.74851138E+04</totfact>
</mgrwt>
</event>
<event>
 4    1  0.4306168E+000  0.2159965E+03  0.7546771E-02  0.1136903E+00
         21   -1    0    0  501  502  0.00000000000E+00  0.00000000000E+00  0.46981600238E+02  0.46981600238E+02  0.00000000000E+00 0.  1.
         21   -1    0    0  502  503 -0.00000000000E+00 -0.00000000000E+00 -0.11941648180E+04  0.11941648180E+04  0.00000000000E+00 0.  1.
          6    1    1    2  501    0 -0.12103832187E+03  0.45554692352E+02 -0.31891087984E+03  0.38517353834E+03  0.17300000000E+03 0.  1.
         -6    1    1    2    0  503  0.12103832187E+03 -0.45554692352E+02 -0.82827233795E+03  0.85597287993E+03  0.17300000000E+03 0.  1.
<mgrwt>
<rscale>  2 0.21599654E+03</rscale>
<asrwt>0</asrwt>
<pdfrwt beam="1">  1       21 0.72279396E-02 0.21599654E+03</pdfrwt>
<pdfrwt beam="2">  1       21 0.18371764E+00 0.21599654E+03</pdfrwt>
<totfact> 0.24184444E+04</totfact>
</mgrwt>
</event>
<event>
 4    1  0.4306168E+000  0.2293839E+03  0.7546771E-02  0.1127074E+00
         21   -1    0    0  501  502  0.00000000000E+00  0.00000000000E+00  0.96926274160E+02  0.96926274160E+02  0.00000000000E+00 0.  1.
         21   -1    0    0  502  503 -0.00000000000E+00 -0.00000000000E+00 -0.10535921031E+04  0.10535921031E+04  0.00000000000E+00 0. -1.
          6    1    1    2  501    0 -0.14371704253E+03 -0.45093083369E+02 -0.77811497660E+02  0.24222221956E+03  0.17300000000E+03 0.  1.
         -6    1    1    2    0  503  0.14371704253E+03  0.45093083369E+02 -0.87885433128E+03  0.90829615770E+03  0.17300000000E+03 0. -1.
<mgrwt>
<rscale>  2 0.22938390E+03</rscale>
<asrwt>0</asrwt>
<pdfrwt beam="1">  1       21 0.14911734E-01 0.22938390E+03</pdfrwt>
<pdfrwt beam="2">  1       21 0.16209109E+00 0.22938390E+03</pdfrwt>
<totfact> 0.93773325E+03</totfact>
</mgrwt>
</event>
<event>
 4    1  0.4306168E+000  0.1999695E+03  0.7546771E-02  0.1149765E+00
         21   -1    0    0  501  502  0.00000000000E+00  0.00000000000E+00  0.23528553987E+04  0.23528553987E+04  0.00000000000E+00 0.  1.
         21   -1    0    0  502  503 -0.00000000000E+00 -0.00000000000E+00 -0.20928589704E+02  0.20928589704E+02  0.00000000000E+00 0.  1.
          6    1    1    2  501    0 -0.96752646813E+02 -0.26414424756E+02  0.16804947512E+04  0.16923505563E+04  0.17300000000E+03 0.  1.
         -6    1    1    2    0  503  0.96752646813E+02  0.26414424756E+02  0.65143205775E+03  0.68143343209E+03  0.17300000000E+03 0.  1.
<mgrwt>
<rscale>  2 0.19996949E+03</rscale>
<asrwt>0</asrwt>
<pdfrwt beam="1">  1       21 0.36197754E+00 0.19996949E+03</pdfrwt>
<pdfrwt beam="2">  1       21 0.32197849E-02 0.19996949E+03</pdfrwt>
<totfact> 0.82814086E+03</totfact>
</mgrwt>
</event>
<event>
 4    1  0.4306168E+000  0.2307475E+03  0.7546771E-02  0.1126115E+00
         21   -1    0    0  501  502  0.00000000000E+00  0.00000000000E+00  0.83866147640E+02  0.83866147640E+02  0.00000000000E+00 0.  1.
         21   -1    0    0  502  503 -0.00000000000E+00 -0.00000000000E+00 -0.93160425061E+03  0.93160425061E+03  0.00000000000E+00 0.  1.
          6    1    1    2  501    0  0.24352349938E+02 -0.15073943119E+03 -0.13731756958E+03  0.26851541479E+03  0.17300000000E+03 0.  1.
         -6    1    1    2    0  503 -0.24352349938E+02  0.15073943119E+03 -0.71042053338E+03  0.74695498346E+03  0.17300000000E+03 0.  1.
<mgrwt>
<rscale>  2 0.23074751E+03</rscale>
<asrwt>0</asrwt>
<pdfrwt beam="1">  1       21 0.12902485E-01 0.23074751E+03</pdfrwt>
<pdfrwt beam="2">  1       21 0.14332373E+00 0.23074751E+03</pdfrwt>
<totfact> 0.16925285E+04</totfact>
</mgrwt>
</event>
<event>
 4    1  0.4306168E+000  0.1800882E+03  0.7546771E-02  0.1167718E+00
         21   -1    0    0  501  502  0.00000000000E+00  0.00000000000E+00  0.80683355353E+03  0.80683355353E+03  0.00000000000E+00 0.  1.
         21   -1    0    0  502  503 -0.00000000000E+00 -0.00000000000E+00 -0.68849609300E+02  0.68849609300E+02  0.00000000000E+00 0.  1.
          6    1    1    2  501    0  0.44154195144E+02 -0.23519577061E+02  0.65144958401E+03  0.67588336565E+03  0.17300000000E+03 0.  1.
         -6    1    1    2    0  503 -0.44154195144E+02  0.23519577061E+02  0.86534360215E+02  0.19979979718E+03  0.17300000000E+03 0.  1.
<mgrwt>
<rscale>  2 0.18008821E+03</rscale>
<asrwt>0</asrwt>
<pdfrwt beam="1">  1       21 0.12412823E+00 0.18008821E+03</pdfrwt>
<pdfrwt beam="2">  1       21 0.10592248E-01 0.18008821E+03</pdfrwt>
<totfact> 0.35831922E+04</totfact>
</mgrwt>
</event>
<event>
 4    1  0.4306168E+000  0.1853776E+03  0.7546771E-02  0.1162698E+00
         21   -1    0    0  501  502  0.00000000000E+00  0.00000000000E+00  0.11328789243E+04  0.11328789243E+04  0.00000000000E+00 0. -1.
         21   -1    0    0  502  503 -0.00000000000E+00 -0.00000000000E+00 -0.36689730779E+02  0.36689730779E+02  0.00000000000E+00 0. -1.
          6    1    1    2  501    0  0.94395164627E+01  0.65929976104E+02  0.79148456960E+03  0.81290386279E+03  0.17300000000E+03 0. -1.
         -6    1    1    2    0  503 -0.94395164627E+01 -0.65929976104E+02  0.30470462390E+03  0.35666479227E+03  0.17300000000E+03 0. -1.
<mgrwt>
<rscale>  2 0.18537763E+03</rscale>
<asrwt>0</asrwt>
<pdfrwt beam="1">  1       21 0.17428904E+00 0.18537763E+03</pdfrwt>
<pdfrwt beam="2">  1       21 0.56445748E-02 0.18537763E+03</pdfrwt>
<totfact> 0.43787814E+04</totfact>
</mgrwt>
</event>
<event>
 4    1  0.4306168E+000  0.1739573E+03  0.7546771E-02  0.1173783E+00
         21   -1    0    0  503  502  0.00000000000E+00  0.00000000000E+00  0.43053488163E+02  0.43053488163E+02  0.00000000000E+00 0. -1.
         21   -1    0    0  501  503 -0.00000000000E+00 -0.00000000000E+00 -0.11866943565E+04  0.11866943565E+04  0.00000000000E+00 0. -1.
          6    1    1    2  501    0 -0.15870004073E+02 -0.89596818892E+01 -0.96442845554E+03  0.97999151975E+03  0.17300000000E+03 0. -1.
         -6    1    1    2    0  502  0.15870004073E+02  0.89596818892E+01 -0.17921241277E+03  0.24975632488E+03  0.17300000000E+03 0. -1.
<mgrwt>
<rscale>  2 0.17395727E+03</rscale>
<asrwt>0</asrwt>
<pdfrwt beam="1">  1       21 0.66236132E-02 0.17395727E+03</pdfrwt>
<pdfrwt beam="2">  1       21 0.18256837E+00 0.17395727E+03</pdfrwt>
<totfact> 0.29468652E+04</totfact>
</mgrwt>
</event>
<event>
 4    1  0.4306168E+000  0.1772777E+03  0.7546771E-02  0.1170464E+00
         21   -1    0    0  503  502  0.00000000000E+00  0.00000000000E+00  0.26752098026E+02  0.26752098026E+02  0.00000000000E+00 0.  1.
         21   -1    0    0  501  503 -0.00000000000E+00 -0.00000000000E+00 -0.11766062641E+04  0.11766062641E+04  0.00000000000E+00 0.  1.
          6    1    1    2  501    0  0.28951841616E+02  0.25694043133E+02 -0.59873731750E+03  0.62443075545E+03  0.17300000000E+03 0.  1.
         -6    1    1    2    0  502 -0.28951841616E+02 -0.25694043133E+02 -0.55111684853E+03  0.57892760663E+03  0.17300000000E+03 0.  1.
<mgrwt>
<rscale>  2 0.17727773E+03</rscale>
<asrwt>0</asrwt>
<pdfrwt beam="1">  1       21 0.41157079E-02 0.17727773E+03</pdfrwt>
<pdfrwt beam="2">  1       21 0.18101633E+00 0.17727773E+03</pdfrwt>
<totfact> 0.67504038E+04</totfact>
</mgrwt>
</event>
<event>
 4    1  0.4306168E+000  0.2073565E+03  0.7546771E-02  0.1143677E+00
         21   -1    0    0  501  502  0.00000000000E+00  0.00000000000E+00  0.89443516406E+03  0.89443516406E+03  0.00000000000E+00 0. -1.
         21   -1    0    0  502  503 -0.00000000000E+00 -0.00000000000E+00 -0.63962829390E+02  0.63962829390E+02  0.00000000000E+00 0. -1.
          6    1    1    2  501    0  0.11399857225E+03  0.84879890188E+01  0.65409098657E+03  0.68617180002E+03  0.17300000000E+03 0. -1.
         -6    1    1    2    0  503 -0.11399857225E+03 -0.84879890188E+01  0.17638134810E+03  0.27222619343E+03  0.17300000000E+03 0. -1.
<mgrwt>
<rscale>  2 0.20735651E+03</rscale>
<asrwt>0</asrwt>
<pdfrwt beam="1">  1       21 0.13760540E+00 0.20735651E+03</pdfrwt>
<pdfrwt beam="2">  1       21 0.98404360E-02 0.20735651E+03</pdfrwt>
<totfact> 0.30955922E+04</totfact>
</mgrwt>
</event>
<event>
 4    1  0.4306168E+000  0.1878910E+03  0.7546771E-02  0.1160377E+00
         21   -1    0    0  503  502  0.00000000000E+00  0.00000000000E+00  0.93204724530E+02  0.93204724530E+02  0.00000000000E+00 0.  1.
         21   -1    0    0  501  503 -0.00000000000E+00 -0.00000000000E+00 -0.43937848314E+03  0.43937848314E+03  0.00000000000E+00 0. -1.
          6    1    1    2  501    0  0.40061325985E+02 -0.61393115003E+02 -0.27198994436E+03  0.33057760699E+03  0.17300000000E+03 0. -1.
         -6    1    1    2    0  502 -0.40061325985E+02  0.61393115003E+02 -0.74183814248E+02  0.20200560068E+03  0.17300000000E+03 0.  1.
<mgrwt>
<rscale>  2 0.18789099E+03</rscale>
<asrwt>0</asrwt>
<pdfrwt beam="1">  1       21 0.14339188E-01 0.18789099E+03</pdfrwt>
<pdfrwt beam="2">  1       21 0.67596689E-01 0.18789099E+03</pdfrwt>
<totfact> 0.85351319E+04</totfact>
</mgrwt>
</event>
<event>
 4    1  0.4306168E+000  0.2448825E+03  0.7546771E-02  0.1116582E+00
         21   -1    0    0  503  502  0.00000000000E+00  0.00000000000E+00  0.83445519105E+03  0.83445519105E+03  0.00000000000E+00 0. -1.
         21   -1    0    0  501  503 -0.00000000000E+00 -0.00000000000E+00 -0.85558667536E+02  0.85558667536E+02  0.00000000000E+00 0. -1.
          6    1    1    2  501    0  0.16458503529E+03  0.54315591218E+02  0.19041104590E+03  0.31019958687E+03  0.17300000000E+03 0. -1.
         -6    1    1    2    0  502 -0.16458503529E+03 -0.54315591218E+02  0.55848547761E+03  0.60981427172E+03  0.17300000000E+03 0. -1.
<mgrwt>
<rscale>  2 0.24488246E+03</rscale>
<asrwt>0</asrwt>
<pdfrwt beam="1">  1       21 0.12837772E+00 0.24488246E+03</pdfrwt>
<pdfrwt beam="2">  1       21 0.13162872E-01 0.24488246E+03</pdfrwt>
<totfact> 0.21506685E+04</totfact>
</mgrwt>
</event>
<event>
 4    1  0.4306168E+000  0.2334362E+03  0.7546771E-02  0.1124244E+00
         21   -1    0    0  501  502  0.00000000000E+00  0.00000000000E+00  0.11152998235E+03  0.11152998235E+03  0.00000000000E+00 0.  1.
         21   -1    0    0  502  503 -0.00000000000E+00 -0.00000000000E+00 -0.50571739004E+03  0.50571739004E+03  0.00000000000E+00 0. -1.
          6    1    1    2  501    0 -0.11203573427E+03 -0.10959669799E+03 -0.25388999902E+03  0.34489501818E+03  0.17300000000E+03 0.  1.
         -6    1    1    2    0  503  0.11203573427E+03  0.10959669799E+03 -0.14029740867E+03  0.27235235421E+03  0.17300000000E+03 0. -1.
<mgrwt>
<rscale>  2 0.23343616E+03</rscale>
<asrwt>0</asrwt>
<pdfrwt beam="1">  1       21 0.17158459E-01 0.23343616E+03</pdfrwt>
<pdfrwt beam="2">  1       21 0.77802676E-01 0.23343616E+03</pdfrwt>
<totfact> 0.44033724E+04</totfact>
</mgrwt>
</event>
<event>
 4    1  0.4306168E+000  0.2290826E+03  0.7546771E-02  0.1127287E+00
         21   -1    0    0  503  502  0.00000000000E+00  0.00000000000E+00  0.15252199021E+03  0.15252199021E+03  0.00000000000E+00 0. -1.
         21   -1    0    0  501  503 -0.00000000000E+00 -0.00000000000E+00 -0.39819882487E+03  0.39819882487E+03  0.00000000000E+00 0.  1.
          6    1    1    2  501    0  0.12867323013E+03  0.77414579422E+02 -0.22435819434E+03  0.32064843150E+03  0.17300000000E+03 0.  1.
         -6    1    1    2    0  502 -0.12867323013E+03 -0.77414579422E+02 -0.21318640330E+02  0.23007238358E+03  0.17300000000E+03 0. -1.
<mgrwt>
<rscale>  2 0.22908256E+03</rscale>
<asrwt>0</asrwt>
<pdfrwt beam="1">  1       21 0.23464922E-01 0.22908256E+03</pdfrwt>
<pdfrwt beam="2">  1       21 0.61261357E-01 0.22908256E+03</pdfrwt>
<totfact> 0.41592589E+04</totfact>
</mgrwt>
</event>
<event>
 4    1  0.4306168E+000  0.3223941E+03  0.7546771E-02  0.1074553E+00
         21   -1    0    0  501  502  0.00000000000E+00  0.00000000000E+00  0.66554457380E+03  0.66554457380E+03  0.00000000000E+00 0. -1.
         21   -1    0    0  502  503 -0.00000000000E+00 -0.00000000000E+00 -0.24906527198E+03  0.24906527198E+03  0.00000000000E+00 0.  1.
          6    1    1    2  501    0  0.24968091572E+03  0.10802049659E+03  0.48752392069E+03  0.58448059044E+03  0.17300000000E+03 0.  1.
         -6    1    1    2    0  503 -0.24968091572E+03 -0.10802049659E+03 -0.71044618869E+02  0.33012925534E+03  0.17300000000E+03 0.  1.
<mgrwt>
<rscale>  2 0.32239415E+03</rscale>
<asrwt>0</asrwt>
<pdfrwt beam="1">  1       21 0.10239147E+00 0.32239415E+03</pdfrwt>
<pdfrwt beam="2">  1       21 0.38317734E-01 0.32239415E+03</pdfrwt>
<totfact> 0.47003665E+03</totfact>
</mgrwt>
</event>
<event>
 4    1  0.4306168E+000  0.1813092E+03  0.7546771E-02  0.1166542E+00
         21   -1    0    0  501  502  0.00000000000E+00  0.00000000000E+00  0.22660241911E+03  0.22660241911E+03  0.00000000000E+00 0. -1.
         21   -1    0    0  502  503 -0.00000000000E+00 -0.00000000000E+00 -0.15653543683E+03  0.15653543683E+03  0.00000000000E+00 0. -1.
          6    1    1    2  501    0 -0.42637766042E+02 -0.33556719413E+02  0.86881145917E+02  0.20105065537E+03  0.17300000000E+03 0.  1.
         -6    1    1    2    0  503  0.42637766042E+02  0.33556719413E+02 -0.16814163645E+02  0.18208720057E+03  0.17300000000E+03 0.  1.
<mgrwt>
<rscale>  2 0.18130922E+03</rscale>
<asrwt>0</asrwt>
<pdfrwt beam="1">  1       21 0.34861911E-01 0.18130922E+03</pdfrwt>
<pdfrwt beam="2">  1       21 0.24082375E-01 0.18130922E+03</pdfrwt>
<totfact> 0.12950581E+05</totfact>
</mgrwt>
</event>
<event>
 4    1  0.4306168E+000  0.1839977E+03  0.7546771E-02  0.1163989E+00
         21   -1    0    0  501  502  0.00000000000E+00  0.00000000000E+00  0.28839491103E+02  0.28839491103E+02  0.00000000000E+00 0. -1.
         21   -1    0    0  502  503 -0.00000000000E+00 -0.00000000000E+00 -0.11751668220E+04  0.11751668220E+04  0.00000000000E+00 0.  1.
          6    1    1    2  501    0 -0.36951077210E+02  0.50604056532E+02 -0.55352685872E+03  0.58330706833E+03  0.17300000000E+03 0.  1.
         -6    1    1    2    0  503  0.36951077210E+02 -0.50604056532E+02 -0.59280047219E+03  0.62069924479E+03  0.17300000000E+03 0. -1.
<mgrwt>
<rscale>  2 0.18399770E+03</rscale>
<asrwt>0</asrwt>
<pdfrwt beam="1">  1       21 0.44368437E-02 0.18399770E+03</pdfrwt>
<pdfrwt beam="2">  1       21 0.18079494E+00 0.18399770E+03</pdfrwt>
<totfact> 0.59465527E+04</totfact>
</mgrwt>
</event>
<event>
 4    1  0.4306168E+000  0.2422430E+03  0.7546771E-02  0.1118308E+00
         21   -1    0    0  503  502  0.00000000000E+00  0.00000000000E+00  0.33288093536E+03  0.33288093536E+03  0.00000000000E+00 0. -1.
         21   -1    0    0  501  503 -0.00000000000E+00 -0.00000000000E+00 -0.21771909985E+03  0.21771909985E+03  0.00000000000E+00 0.  1.
          6    1    1    2  501    0 -0.66410004450E+02 -0.15602042788E+03 -0.62518502972E+02  0.25018038656E+03  0.17300000000E+03 0.  1.
         -6    1    1    2    0  502  0.66410004450E+02  0.15602042788E+03  0.17768033848E+03  0.30041964864E+03  0.17300000000E+03 0. -1.
<mgrwt>
<rscale>  2 0.24224298E+03</rscale>
<asrwt>0</asrwt>
<pdfrwt beam="1">  1       21 0.51212452E-01 0.24224298E+03</pdfrwt>
<pdfrwt beam="2">  1       21 0.33495246E-01 0.24224298E+03</pdfrwt>
<totfact> 0.30340342E+04</totfact>
</mgrwt>
</event>
<event>
 4    1  0.4306168E+000  0.1751647E+03  0.7546771E-02  0.1172566E+00
         21   -1    0    0  501  502  0.00000000000E+00  0.00000000000E+00  0.15024511325E+03  0.15024511325E+03  0.00000000000E+00 0. -1.
         21   -1    0    0  502  503 -0.00000000000E+00 -0.00000000000E+00 -0.32772949307E+03  0.32772949307E+03  0.00000000000E+00 0. -1.
          6    1    1    2  501    0  0.22529026892E+02  0.15688416776E+02  0.57971826436E+02  0.18450858011E+03  0.17300000000E+03 0. -1.
         -6    1    1    2    0  503 -0.22529026892E+02 -0.15688416776E+02 -0.23545620626E+03  0.29346602621E+03  0.17300000000E+03 0. -1.
<mgrwt>
<rscale>  2 0.17516473E+03</rscale>
<asrwt>0</asrwt>
<pdfrwt beam="1">  1       21 0.23114633E-01 0.17516473E+03</pdfrwt>
<pdfrwt beam="2">  1       21 0.50419922E-01 0.17516473E+03</pdfrwt>
<totfact> 0.66342728E+04</totfact>
</mgrwt>
</event>
<event>
 4    1  0.4306168E+000  0.2813713E+03  0.7546771E-02  0.1094942E+00
         21   -1    0    0  501  502  0.00000000000E+00  0.00000000000E+00  0.85691462675E+02  0.85691462675E+02  0.00000000000E+00 0.  1.
         21   -1    0    0  502  503 -0.00000000000E+00 -0.00000000000E+00 -0.97989214668E+03  0.97989214668E+03  0.00000000000E+00 0. -1.
          6    1    1    2  501    0  0.22187868711E+03 -0.32671309689E+01 -0.57446687510E+03  0.63967336706E+03  0.17300000000E+03 0. -1.
         -6    1    1    2    0  503 -0.22187868711E+03  0.32671309689E+01 -0.31973380891E+03  0.42591024230E+03  0.17300000000E+03 0. -1.
<mgrwt>
<rscale>  2 0.28137133E+03</rscale>
<asrwt>0</asrwt>
<pdfrwt beam="1">  1       21 0.13183301E-01 0.28137133E+03</pdfrwt>
<pdfrwt beam="2">  1       21 0.15075265E+00 0.28137133E+03</pdfrwt>
<totfact> 0.13850420E+04</totfact>
</mgrwt>
</event>
<event>
 4    1  0.4306168E+000  0.2551375E+03  0.7546771E-02  0.1110100E+00
         21   -1    0    0  501  502  0.00000000000E+00  0.00000000000E+00  0.12384758867E+03  0.12384758867E+03  0.00000000000E+00 0. -1.
         21   -1    0    0  502  503 -0.00000000000E+00 -0.00000000000E+00 -0.55665929630E+03  0.55665929630E+03  0.00000000000E+00 0.  1.
          6    1    1    2  501    0  0.98633874024E+02  0.15949141112E+03 -0.29676866474E+03  0.39136529189E+03  0.17300000000E+03 0. -1.
         -6    1    1    2    0  503 -0.98633874024E+02 -0.15949141112E+03 -0.13604304289E+03  0.28914159307E+03  0.17300000000E+03 0. -1.
<mgrwt>
<rscale>  2 0.25513751E+03</rscale>
<asrwt>0</asrwt>
<pdfrwt beam="1">  1       21 0.19053475E-01 0.25513751E+03</pdfrwt>
<pdfrwt beam="2">  1       21 0.85639893E-01 0.25513751E+03</pdfrwt>
<totfact> 0.28825052E+04</totfact>
</mgrwt>
</event>
<event>
 4    1  0.4306168E+000  0.1967667E+03  0.7546771E-02  0.1152496E+00
         21   -1    0    0  503  502  0.00000000000E+00  0.00000000000E+00  0.27113767250E+03  0.27113767250E+03  0.00000000000E+00 0. -1.
         21   -1    0    0  501  503 -0.00000000000E+00 -0.00000000000E+00 -0.25599102624E+03  0.25599102624E+03  0.00000000000E+00 0.  1.
          6    1    1    2  501    0 -0.77579591998E+02 -0.52626568452E+02 -0.16768940525E+03  0.25852830683E+03  0.17300000000E+03 0.  1.
         -6    1    1    2    0  502  0.77579591998E+02  0.52626568452E+02  0.18283605151E+03  0.26860039191E+03  0.17300000000E+03 0. -1.
<mgrwt>
<rscale>  2 0.19676674E+03</rscale>
<asrwt>0</asrwt>
<pdfrwt beam="1">  1       21 0.41713488E-01 0.19676674E+03</pdfrwt>
<pdfrwt beam="2">  1       21 0.39383235E-01 0.19676674E+03</pdfrwt>
<totfact> 0.34313391E+04</totfact>
</mgrwt>
</event>
<event>
 4    1  0.4306168E+000  0.2045500E+03  0.7546771E-02  0.1145956E+00
         21   -1    0    0  501  502  0.00000000000E+00  0.00000000000E+00  0.35206537271E+02  0.35206537271E+02  0.00000000000E+00 0.  1.
         21   -1    0    0  502  503 -0.00000000000E+00 -0.00000000000E+00 -0.17645991349E+04  0.17645991349E+04  0.00000000000E+00 0. -1.
          6    1    1    2  501    0  0.10258247196E+03 -0.37263069672E+02 -0.35048040180E+03  0.40580440111E+03  0.17300000000E+03 0.  1.
         -6    1    1    2    0  503 -0.10258247196E+03  0.37263069672E+02 -0.13789121959E+04  0.13940012711E+04  0.17300000000E+03 0. -1.
<mgrwt>
<rscale>  2 0.20454999E+03</rscale>
<asrwt>0</asrwt>
<pdfrwt beam="1">  1       21 0.54163906E-02 0.20454999E+03</pdfrwt>
<pdfrwt beam="2">  1       21 0.27147678E+00 0.20454999E+03</pdfrwt>
<totfact> 0.11569298E+04</totfact>
</mgrwt>
</event>
<event>
 4    1  0.4306168E+000  0.1851957E+03  0.7546771E-02  0.1162867E+00
         21   -1    0    0  501  502  0.00000000000E+00  0.00000000000E+00  0.90803203539E+02  0.90803203539E+02  0.00000000000E+00 0. -1.
         21   -1    0    0  502  503 -0.00000000000E+00 -0.00000000000E+00 -0.37805562402E+03  0.37805562402E+03  0.00000000000E+00 0.  1.
          6    1    1    2  501    0  0.44055795131E+02  0.49270158015E+02 -0.13655876418E+03  0.23009945161E+03  0.17300000000E+03 0.  1.
         -6    1    1    2    0  503 -0.44055795131E+02 -0.49270158015E+02 -0.15069365630E+03  0.23875937595E+03  0.17300000000E+03 0. -1.
<mgrwt>
<rscale>  2 0.18519574E+03</rscale>
<asrwt>0</asrwt>
<pdfrwt beam="1">  1       21 0.13969723E-01 0.18519574E+03</pdfrwt>
<pdfrwt beam="2">  1       21 0.58162405E-01 0.18519574E+03</pdfrwt>
<totfact> 0.12396178E+05</totfact>
</mgrwt>
</event>
<event>
 4    1  0.4306168E+000  0.2641330E+03  0.7546771E-02  0.1104685E+00
         21   -1    0    0  501  502  0.00000000000E+00  0.00000000000E+00  0.64327841833E+03  0.64327841833E+03  0.00000000000E+00 0.  1.
         21   -1    0    0  502  503 -0.00000000000E+00 -0.00000000000E+00 -0.13386959996E+03  0.13386959996E+03  0.00000000000E+00 0. -1.
          6    1    1    2  501    0 -0.52810559027E+02  0.19247935799E+03  0.42401381211E+03  0.49955377214E+03  0.17300000000E+03 0.  1.
         -6    1    1    2    0  503  0.52810559027E+02 -0.19247935799E+03  0.85395006261E+02  0.27759424614E+03  0.17300000000E+03 0. -1.
<mgrwt>
<rscale>  2 0.26413303E+03</rscale>
<asrwt>0</asrwt>
<pdfrwt beam="1">  1       21 0.98965909E-01 0.26413303E+03</pdfrwt>
<pdfrwt beam="2">  1       21 0.20595323E-01 0.26413303E+03</pdfrwt>
<totfact> 0.17664715E+04</totfact>
</mgrwt>
</event>
<event>
 4    1  0.4306168E+000  0.1956893E+03  0.7546771E-02  0.1153428E+00
         21   -1    0    0  503  502  0.00000000000E+00  0.00000000000E+00  0.31678746667E+03  0.31678746667E+03  0.00000000000E+00 0. -1.
         21   -1    0    0  501  503 -0.00000000000E+00 -0.00000000000E+00 -0.40185636527E+03  0.40185636527E+03  0.00000000000E+00 0. -1.
          6    1    1    2  501    0  0.76052953254E+02 -0.50806189343E+02 -0.34299026201E+03  0.39488813657E+03  0.17300000000E+03 0. -1.
         -6    1    1    2    0  502 -0.76052953254E+02  0.50806189343E+02  0.25792136341E+03  0.32375569536E+03  0.17300000000E+03 0. -1.
<mgrwt>
<rscale>  2 0.19568935E+03</rscale>
<asrwt>0</asrwt>
<pdfrwt beam="1">  1       21 0.48736534E-01 0.19568935E+03</pdfrwt>
<pdfrwt beam="2">  1       21 0.61824056E-01 0.19568935E+03</pdfrwt>
<totfact> 0.97433172E+03</totfact>
</mgrwt>
</event>
<event>
 4    1  0.4306168E+000  0.3217291E+03  0.7546771E-02  0.1074856E+00
         21   -1    0    0  501  502  0.00000000000E+00  0.00000000000E+00  0.65858695356E+02  0.65858695356E+02  0.00000000000E+00 0.  1.
         21   -1    0    0  502  503 -0.00000000000E+00 -0.00000000000E+00 -0.17557453045E+04  0.17557453045E+04  0.00000000000E+00 0. -1.
          6    1    1    2  501    0 -0.10205370628E+03  0.25132779763E+03 -0.55005036224E+03  0.63723231386E+03  0.17300000000E+03 0.  1.
         -6    1    1    2    0  503  0.10205370628E+03 -0.25132779763E+03 -0.11398362470E+04  0.11843716860E+04  0.17300000000E+03 0. -1.
<mgrwt>
<rscale>  2 0.32172911E+03</rscale>
<asrwt>0</asrwt>
<pdfrwt beam="1">  1       21 0.10132107E-01 0.32172911E+03</pdfrwt>
<pdfrwt beam="2">  1       21 0.27011467E+00 0.32172911E+03</pdfrwt>
<totfact> 0.36015365E+03</totfact>
</mgrwt>
</event>
<event>
 4    1  0.4306168E+000  0.2169223E+03  0.7546771E-02  0.1136199E+00
         21   -1    0    0  503  502  0.00000000000E+00  0.00000000000E+00  0.25003658026E+03  0.25003658026E+03  0.00000000000E+00 0.  1.
         21   -1    0    0  501  503 -0.00000000000E+00 -0.00000000000E+00 -0.19924116145E+03  0.19924116145E+03  0.00000000000E+00 0. -1.
          6    1    1    2  501    0 -0.12676054379E+03  0.32527782713E+02 -0.27498915664E+02  0.21865836932E+03  0.17300000000E+03 0.  1.
         -6    1    1    2    0  502  0.12676054379E+03 -0.32527782713E+02  0.78294334480E+02  0.23061937239E+03  0.17300000000E+03 0.  1.
<mgrwt>
<rscale>  2 0.21692232E+03</rscale>
<asrwt>0</asrwt>
<pdfrwt beam="1">  1       21 0.38467166E-01 0.21692232E+03</pdfrwt>
<pdfrwt beam="2">  1       21 0.30652486E-01 0.21692232E+03</pdfrwt>
<totfact> 0.65876306E+04</totfact>
</mgrwt>
</event>
<event>
 4    1  0.4306168E+000  0.2449280E+03  0.7546771E-02  0.1116553E+00
         21   -1    0    0  501  502  0.00000000000E+00  0.00000000000E+00  0.77751324644E+03  0.77751324644E+03  0.00000000000E+00 0.  1.
         21   -1    0    0  502  503 -0.00000000000E+00 -0.00000000000E+00 -0.85550670377E+02  0.85550670377E+02  0.00000000000E+00 0. -1.
          6    1    1    2  501    0 -0.16377634857E+03 -0.56903882581E+02  0.48115907639E+03  0.53991091950E+03  0.17300000000E+03 0. -1.
         -6    1    1    2    0  503  0.16377634857E+03  0.56903882581E+02  0.21080349968E+03  0.32315299732E+03  0.17300000000E+03 0.  1.
<mgrwt>
<rscale>  2 0.24492804E+03</rscale>
<asrwt>0</asrwt>
<pdfrwt beam="1">  1       21 0.11961742E+00 0.24492804E+03</pdfrwt>
<pdfrwt beam="2">  1       21 0.13161642E-01 0.24492804E+03</pdfrwt>
<totfact> 0.25699827E+04</totfact>
</mgrwt>
</event>
<event>
 4    1  0.4306168E+000  0.1889659E+03  0.7546771E-02  0.1159397E+00
         21   -1    0    0  501  502  0.00000000000E+00  0.00000000000E+00  0.13216075420E+04  0.13216075420E+04  0.00000000000E+00 0.  1.
         21   -1    0    0  502  503 -0.00000000000E+00 -0.00000000000E+00 -0.27211291971E+02  0.27211291971E+02  0.00000000000E+00 0. -1.
          6    1    1    2  501    0 -0.38806294327E+02  0.65369484762E+02  0.70393754894E+03  0.72885950006E+03  0.17300000000E+03 0.  1.
         -6    1    1    2    0  503  0.38806294327E+02 -0.65369484762E+02  0.59045870112E+03  0.61995933395E+03  0.17300000000E+03 0.  1.
<mgrwt>
<rscale>  2 0.18896586E+03</rscale>
<asrwt>0</asrwt>
<pdfrwt beam="1">  1       21 0.20332419E+00 0.18896586E+03</pdfrwt>
<pdfrwt beam="2">  1       21 0.41863536E-02 0.18896586E+03</pdfrwt>
<totfact> 0.46530285E+04</totfact>
</mgrwt>
</event>
<event>
 4    1  0.4306168E+000  0.2032587E+03  0.7546771E-02  0.1147018E+00
         21   -1    0    0  503  502  0.00000000000E+00  0.00000000000E+00  0.20757296139E+03  0.20757296139E+03  0.00000000000E+00 0. -1.
         21   -1    0    0  501  503 -0.00000000000E+00 -0.00000000000E+00 -0.23009548763E+03  0.23009548763E+03  0.00000000000E+00 0.  1.
          6    1    1    2  501    0  0.45335090474E+02  0.96590953382E+02 -0.91664238463E+02  0.22297178144E+03  0.17300000000E+03 0.  1.
         -6    1    1    2    0  502 -0.45335090474E+02 -0.96590953382E+02  0.69141712218E+02  0.21469666758E+03  0.17300000000E+03 0. -1.
<mgrwt>
<rscale>  2 0.20325866E+03</rscale>
<asrwt>0</asrwt>
<pdfrwt beam="1">  1       21 0.31934302E-01 0.20325866E+03</pdfrwt>
<pdfrwt beam="2">  1       21 0.35399306E-01 0.20325866E+03</pdfrwt>
<totfact> 0.72217382E+04</totfact>
</mgrwt>
</event>
<event>
 4    1  0.4306168E+000  0.2317018E+03  0.7546771E-02  0.1125448E+00
         21   -1    0    0  501  502  0.00000000000E+00  0.00000000000E+00  0.51764309852E+03  0.51764309852E+03  0.00000000000E+00 0.  1.
         21   -1    0    0  502  503 -0.00000000000E+00 -0.00000000000E+00 -0.12041993137E+03  0.12041993137E+03  0.00000000000E+00 0.  1.
          6    1    1    2  501    0  0.15401810728E+03 -0.59296645074E+01  0.31744738930E+03  0.39301219226E+03  0.17300000000E+03 0.  1.
         -6    1    1    2    0  503 -0.15401810728E+03  0.59296645074E+01  0.79775777846E+02  0.24505083763E+03  0.17300000000E+03 0.  1.
<mgrwt>
<rscale>  2 0.23170183E+03</rscale>
<asrwt>0</asrwt>
<pdfrwt beam="1">  1       21 0.79637398E-01 0.23170183E+03</pdfrwt>
<pdfrwt beam="2">  1       21 0.18526144E-01 0.23170183E+03</pdfrwt>
<totfact> 0.36257885E+04</totfact>
</mgrwt>
</event>
<event>
 4    1  0.4306168E+000  0.1850420E+03  0.7546771E-02  0.1163011E+00
         21   -1    0    0  503  502  0.00000000000E+00  0.00000000000E+00  0.38274860182E+03  0.38274860182E+03  0.00000000000E+00 0. -1.
         21   -1    0    0  501  503 -0.00000000000E+00 -0.00000000000E+00 -0.99617529422E+02  0.99617529422E+02  0.00000000000E+00 0. -1.
          6    1    1    2  501    0  0.42645018911E+01 -0.65523566332E+02  0.64549306383E+02  0.19597738817E+03  0.17300000000E+03 0. -1.
         -6    1    1    2    0  502 -0.42645018911E+01  0.65523566332E+02  0.21858176601E+03  0.28638874306E+03  0.17300000000E+03 0. -1.
<mgrwt>
<rscale>  2 0.18504195E+03</rscale>
<asrwt>0</asrwt>
<pdfrwt beam="1">  1       21 0.58884400E-01 0.18504195E+03</pdfrwt>
<pdfrwt beam="2">  1       21 0.15325774E-01 0.18504195E+03</pdfrwt>
<totfact> 0.10205144E+05</totfact>
</mgrwt>
</event>
<event>
 4    1  0.4306168E+000  0.2135390E+03  0.7546771E-02  0.1138794E+00
         21   -1    0    0  501  502  0.00000000000E+00  0.00000000000E+00  0.17872238514E+03  0.17872238514E+03  0.00000000000E+00 0.  1.
         21   -1    0    0  502  503 -0.00000000000E+00 -0.00000000000E+00 -0.67377086489E+03  0.67377086489E+03  0.00000000000E+00 0.  1.
          6    1    1    2  501    0 -0.12418551839E+03  0.15743178334E+02  0.88461964130E+02  0.23113720977E+03  0.17300000000E+03 0.  1.
         -6    1    1    2    0  503  0.12418551839E+03 -0.15743178334E+02 -0.58351044389E+03  0.62135604026E+03  0.17300000000E+03 0.  1.
<mgrwt>
<rscale>  2 0.21353897E+03</rscale>
<asrwt>0</asrwt>
<pdfrwt beam="1">  1       21 0.27495751E-01 0.21353897E+03</pdfrwt>
<pdfrwt beam="2">  1       21 0.10365706E+00 0.21353897E+03</pdfrwt>
<totfact> 0.93701833E+03</totfact>
</mgrwt>
</event>
<event>
 4    1  0.4306168E+000  0.3507661E+03  0.7546771E-02  0.1062301E+00
         21   -1    0    0  503  502  0.00000000000E+00  0.00000000000E+00  0.36364221007E+03  0.36364221007E+03  0.00000000000E+00 0.  1.
         21   -1    0    0  501  503 -0.00000000000E+00 -0.00000000000E+00 -0.41023532252E+03  0.41023532252E+03  0.00000000000E+00 0. -1.
          6    1    1    2  501    0 -0.25706720045E+03  0.16439067635E+03 -0.18527540356E+03  0.39669108282E+03  0.17300000000E+03 0. -1.
         -6    1    1    2    0  502  0.25706720045E+03 -0.16439067635E+03  0.13868229111E+03  0.37718644977E+03  0.17300000000E+03 0.  1.
<mgrwt>
<rscale>  2 0.35076608E+03</rscale>
<asrwt>0</asrwt>
<pdfrwt beam="1">  1       21 0.55944956E-01 0.35076608E+03</pdfrwt>
<pdfrwt beam="2">  1       21 0.63113126E-01 0.35076608E+03</pdfrwt>
<totfact> 0.64038151E+03</totfact>
</mgrwt>
</event>
<event>
 4    1  0.4306168E+000  0.1830072E+03  0.7546771E-02  0.1164924E+00
         21   -1    0    0  503  502  0.00000000000E+00  0.00000000000E+00  0.46326517412E+03  0.46326517412E+03  0.00000000000E+00 0.  1.
         21   -1    0    0  501  503 -0.00000000000E+00 -0.00000000000E+00 -0.77253739673E+02  0.77253739673E+02  0.00000000000E+00 0.  1.
          6    1    1    2  501    0  0.22696351596E+02 -0.55204255851E+02  0.12453288605E+03  0.22135960324E+03  0.17300000000E+03 0. -1.
         -6    1    1    2    0  502 -0.22696351596E+02  0.55204255851E+02  0.26147854840E+03  0.31915931055E+03  0.17300000000E+03 0. -1.
<mgrwt>
<rscale>  2 0.18300720E+03</rscale>
<asrwt>0</asrwt>
<pdfrwt beam="1">  1       21 0.71271563E-01 0.18300720E+03</pdfrwt>
<pdfrwt beam="2">  1       21 0.11885191E-01 0.18300720E+03</pdfrwt>
<totfact> 0.10669575E+05</totfact>
</mgrwt>
</event>
<event>
 4    1  0.4306168E+000  0.2632369E+03  0.7546771E-02  0.1105214E+00
         21   -1    0    0  503  502  0.00000000000E+00  0.00000000000E+00  0.30342528360E+03  0.30342528360E+03  0.00000000000E+00 0. -1.
         21   -1    0    0  501  503 -0.00000000000E+00 -0.00000000000E+00 -0.22999624588E+03  0.22999624588E+03  0.00000000000E+00 0. -1.
          6    1    1    2  501    0  0.19659856823E+03  0.26714997314E+02  0.59131259714E+02  0.26979657890E+03  0.17300000000E+03 0. -1.
         -6    1    1    2    0  502 -0.19659856823E+03 -0.26714997314E+02  0.14297777997E+02  0.26362495058E+03  0.17300000000E+03 0. -1.
<mgrwt>
<rscale>  2 0.26323694E+03</rscale>
<asrwt>0</asrwt>
<pdfrwt beam="1">  1       21 0.46680813E-01 0.26323694E+03</pdfrwt>
<pdfrwt beam="2">  1       21 0.35384038E-01 0.26323694E+03</pdfrwt>
<totfact> 0.32716311E+04</totfact>
</mgrwt>
</event>
<event>
 4    1  0.4306168E+000  0.2022181E+03  0.7546771E-02  0.1147881E+00
         21   -1    0    0  503  502  0.00000000000E+00  0.00000000000E+00  0.21037381204E+03  0.21037381204E+03  0.00000000000E+00 0. -1.
         21   -1    0    0  501  503 -0.00000000000E+00 -0.00000000000E+00 -0.19460843219E+03  0.19460843219E+03  0.00000000000E+00 0.  1.
          6    1    1    2  501    0 -0.23151289832E+02 -0.10211346019E+03  0.14843306756E+02  0.20276208898E+03  0.17300000000E+03 0.  1.
         -6    1    1    2    0  502  0.23151289832E+02  0.10211346019E+03  0.92207309296E+00  0.20222015526E+03  0.17300000000E+03 0.  1.
<mgrwt>
<rscale>  2 0.20221805E+03</rscale>
<asrwt>0</asrwt>
<pdfrwt beam="1">  1       21 0.32365202E-01 0.20221805E+03</pdfrwt>
<pdfrwt beam="2">  1       21 0.29939759E-01 0.20221805E+03</pdfrwt>
<totfact> 0.97883022E+04</totfact>
</mgrwt>
</event>
<event>
 4    1  0.4306168E+000  0.2115808E+03  0.7546771E-02  0.1140320E+00
         21   -1    0    0  503  502  0.00000000000E+00  0.00000000000E+00  0.58786404259E+03  0.58786404259E+03  0.00000000000E+00 0. -1.
         21   -1    0    0  501  503 -0.00000000000E+00 -0.00000000000E+00 -0.76248425939E+02  0.76248425939E+02  0.00000000000E+00 0.  1.
          6    1    1    2  501    0  0.11563115116E+03 -0.38299602308E+02  0.24393703026E+03  0.32291128408E+03  0.17300000000E+03 0. -1.
         -6    1    1    2    0  502 -0.11563115116E+03  0.38299602308E+02  0.26767858639E+03  0.34120118445E+03  0.17300000000E+03 0. -1.
<mgrwt>
<rscale>  2 0.21158077E+03</rscale>
<asrwt>0</asrwt>
<pdfrwt beam="1">  1       21 0.90440619E-01 0.21158077E+03</pdfrwt>
<pdfrwt beam="2">  1       21 0.11730527E-01 0.21158077E+03</pdfrwt>
<totfact> 0.62916477E+04</totfact>
</mgrwt>
</event>
<event>
 4    1  0.4306168E+000  0.1774133E+03  0.7546771E-02  0.1170330E+00
         21   -1    0    0  501  502  0.00000000000E+00  0.00000000000E+00  0.40301445279E+03  0.40301445279E+03  0.00000000000E+00 0. -1.
         21   -1    0    0  502  503 -0.00000000000E+00 -0.00000000000E+00 -0.14124689421E+03  0.14124689421E+03  0.00000000000E+00 0. -1.
          6    1    1    2  501    0  0.39228285598E+02 -0.27597455559E+01  0.31283863489E+03  0.35964355419E+03  0.17300000000E+03 0. -1.
         -6    1    1    2    0  503 -0.39228285598E+02  0.27597455559E+01 -0.51071076319E+02  0.18461779281E+03  0.17300000000E+03 0. -1.
<mgrwt>
<rscale>  2 0.17741329E+03</rscale>
<asrwt>0</asrwt>
<pdfrwt beam="1">  1       21 0.62002223E-01 0.17741329E+03</pdfrwt>
<pdfrwt beam="2">  1       21 0.21730292E-01 0.17741329E+03</pdfrwt>
<totfact> 0.48053085E+04</totfact>
</mgrwt>
</event>
<event>
 4    1  0.4306168E+000  0.2156551E+03  0.7546771E-02  0.1137164E+00
         21   -1    0    0  503  502  0.00000000000E+00  0.00000000000E+00  0.39417338757E+02  0.39417338757E+02  0.00000000000E+00 0. -1.
         21   -1    0    0  501  503 -0.00000000000E+00 -0.00000000000E+00 -0.13246301014E+04  0.13246301014E+04  0.00000000000E+00 0. -1.
          6    1    1    2  501    0  0.96832240284E+02 -0.84862387083E+02 -0.86807457435E+03  0.89446105233E+03  0.17300000000E+03 0. -1.
         -6    1    1    2    0  502 -0.96832240284E+02  0.84862387083E+02 -0.41713818828E+03  0.46958638781E+03  0.17300000000E+03 0. -1.
<mgrwt>
<rscale>  2 0.21565507E+03</rscale>
<asrwt>0</asrwt>
<pdfrwt beam="1">  1       21 0.60642069E-02 0.21565507E+03</pdfrwt>
<pdfrwt beam="2">  1       21 0.20378922E+00 0.21565507E+03</pdfrwt>
<totfact> 0.24180853E+04</totfact>
</mgrwt>
</event>
<event>
 4    1  0.4306168E+000  0.1881854E+03  0.7546771E-02  0.1160108E+00
         21   -1    0    0  503  502  0.00000000000E+00  0.00000000000E+00  0.36256868862E+03  0.36256868862E+03  0.00000000000E+00 0. -1.
         21   -1    0    0  501  503 -0.00000000000E+00 -0.00000000000E+00 -0.25634839043E+03  0.25634839043E+03  0.00000000000E+00 0. -1.
          6    1    1    2  501    0  0.61490634654E+02  0.41275268231E+02 -0.19035667682E+03  0.26767407482E+03  0.17300000000E+03 0. -1.
         -6    1    1    2    0  502 -0.61490634654E+02 -0.41275268231E+02  0.29657697501E+03  0.35124300423E+03  0.17300000000E+03 0. -1.
<mgrwt>
<rscale>  2 0.18818540E+03</rscale>
<asrwt>0</asrwt>
<pdfrwt beam="1">  1       21 0.55779798E-01 0.18818540E+03</pdfrwt>
<pdfrwt beam="2">  1       21 0.39438214E-01 0.18818540E+03</pdfrwt>
<totfact> 0.18815223E+04</totfact>
</mgrwt>
</event>
<event>
 4    1  0.4306168E+000  0.2397851E+03  0.7546771E-02  0.1119936E+00
         21   -1    0    0  501  502  0.00000000000E+00  0.00000000000E+00  0.65712562027E+03  0.65712562027E+03  0.00000000000E+00 0. -1.
         21   -1    0    0  502  503 -0.00000000000E+00 -0.00000000000E+00 -0.32333286807E+03  0.32333286807E+03  0.00000000000E+00 0.  1.
          6    1    1    2  501    0 -0.68433537934E+02  0.15127710683E+03  0.58557295568E+03  0.63276583235E+03  0.17300000000E+03 0. -1.
         -6    1    1    2    0  503  0.68433537934E+02 -0.15127710683E+03 -0.25178020348E+03  0.34769265599E+03  0.17300000000E+03 0.  1.
<mgrwt>
<rscale>  2 0.23978514E+03</rscale>
<asrwt>0</asrwt>
<pdfrwt beam="1">  1       21 0.10109625E+00 0.23978514E+03</pdfrwt>
<pdfrwt beam="2">  1       21 0.49743518E-01 0.23978514E+03</pdfrwt>
<totfact> 0.29682056E+03</totfact>
</mgrwt>
</event>
<event>
 4    1  0.4306168E+000  0.1796828E+03  0.7546771E-02  0.1168110E+00
         21   -1    0    0  501  502  0.00000000000E+00  0.00000000000E+00  0.21780662750E+03  0.21780662750E+03  0.00000000000E+00 0. -1.
         21   -1    0    0  502  503 -0.00000000000E+00 -0.00000000000E+00 -0.19303465079E+03  0.19303465079E+03  0.00000000000E+00 0. -1.
          6    1    1    2  501    0 -0.11060572015E+02 -0.47271326337E+02  0.11135021554E+03  0.21138775993E+03  0.17300000000E+03 0. -1.
         -6    1    1    2    0  503  0.11060572015E+02  0.47271326337E+02 -0.86578238832E+02  0.19945351836E+03  0.17300000000E+03 0. -1.
<mgrwt>
<rscale>  2 0.17968282E+03</rscale>
<asrwt>0</asrwt>
<pdfrwt beam="1">  1       21 0.33508712E-01 0.17968282E+03</pdfrwt>
<pdfrwt beam="2">  1       21 0.29697639E-01 0.17968282E+03</pdfrwt>
<totfact> 0.93694191E+04</totfact>
</mgrwt>
</event>
<event>
 4    1  0.4306168E+000  0.2205379E+03  0.7546771E-02  0.1133483E+00
         21   -1    0    0  501  502  0.00000000000E+00  0.00000000000E+00  0.15166745477E+03  0.15166745477E+03  0.00000000000E+00 0.  1.
         21   -1    0    0  502  503 -0.00000000000E+00 -0.00000000000E+00 -0.33815462175E+03  0.33815462175E+03  0.00000000000E+00 0.  1.
          6    1    1    2  501    0 -0.10438857766E+03  0.88379784577E+02 -0.14891531809E+03  0.26610662042E+03  0.17300000000E+03 0.  1.
         -6    1    1    2    0  503  0.10438857766E+03 -0.88379784577E+02 -0.37571848890E+02  0.22371545610E+03  0.17300000000E+03 0.  1.
<mgrwt>
<rscale>  2 0.22053789E+03</rscale>
<asrwt>0</asrwt>
<pdfrwt beam="1">  1       21 0.23333455E-01 0.22053789E+03</pdfrwt>
<pdfrwt beam="2">  1       21 0.52023787E-01 0.22053789E+03</pdfrwt>
<totfact> 0.59808039E+04</totfact>
</mgrwt>
</event>
<event>
 4    1  0.4306168E+000  0.1905289E+03  0.7546771E-02  0.1157985E+00
         21   -1    0    0  503  502  0.00000000000E+00  0.00000000000E+00  0.36119212245E+03  0.36119212245E+03  0.00000000000E+00 0.  1.
         21   -1    0    0  501  503 -0.00000000000E+00 -0.00000000000E+00 -0.10476653359E+03  0.10476653359E+03  0.00000000000E+00 0.  1.
          6    1    1    2  501    0  0.52146983616E+02 -0.60439781402E+02  0.81219390405E+02  0.20711799645E+03  0.17300000000E+03 0.  1.
         -6    1    1    2    0  502 -0.52146983616E+02  0.60439781402E+02  0.17520619845E+03  0.25884065958E+03  0.17300000000E+03 0.  1.
<mgrwt>
<rscale>  2 0.19052894E+03</rscale>
<asrwt>0</asrwt>
<pdfrwt beam="1">  1       21 0.55568018E-01 0.19052894E+03</pdfrwt>
<pdfrwt beam="2">  1       21 0.16117928E-01 0.19052894E+03</pdfrwt>
<totfact> 0.10508493E+05</totfact>
</mgrwt>
</event>
<event>
 4    1  0.4306168E+000  0.3409759E+03  0.7546771E-02  0.1066381E+00
         21   -1    0    0  503  502  0.00000000000E+00  0.00000000000E+00  0.13461240953E+04  0.13461240953E+04  0.00000000000E+00 0.  1.
         21   -1    0    0  501  503 -0.00000000000E+00 -0.00000000000E+00 -0.11035454491E+03  0.11035454491E+03  0.00000000000E+00 0. -1.
          6    1    1    2  501    0 -0.68513384257E+02  0.28572968344E+03  0.27837982266E+03  0.44018162329E+03  0.17300000000E+03 0. -1.
         -6    1    1    2    0  502  0.68513384257E+02 -0.28572968344E+03  0.95738972769E+03  0.10162970169E+04  0.17300000000E+03 0.  1.
<mgrwt>
<rscale>  2 0.34097586E+03</rscale>
<asrwt>0</asrwt>
<pdfrwt beam="1">  1       21 0.20709600E+00 0.34097586E+03</pdfrwt>
<pdfrwt beam="2">  1       21 0.16977623E-01 0.34097586E+03</pdfrwt>
<totfact> 0.33925337E+03</totfact>
</mgrwt>
</event>
<event>
 4    1  0.4306168E+000  0.2010284E+03  0.7546771E-02  0.1148874E+00
         21   -1    0    0  501  502  0.00000000000E+00  0.00000000000E+00  0.13188951438E+03  0.13188951438E+03  0.00000000000E+00 0. -1.
         21   -1    0    0  502  503 -0.00000000000E+00 -0.00000000000E+00 -0.41216927266E+03  0.41216927266E+03  0.00000000000E+00 0. -1.
          6    1    1    2  501    0 -0.63919757843E+02  0.79985409000E+02 -0.23443415459E+01  0.20104202803E+03  0.17300000000E+03 0. -1.
         -6    1    1    2    0  503  0.63919757843E+02 -0.79985409000E+02 -0.27793541673E+03  0.34301675902E+03  0.17300000000E+03 0. -1.
<mgrwt>
<rscale>  2 0.20102836E+03</rscale>
<asrwt>0</asrwt>
<pdfrwt beam="1">  1       21 0.20290695E-01 0.20102836E+03</pdfrwt>
<pdfrwt beam="2">  1       21 0.63410657E-01 0.20102836E+03</pdfrwt>
<totfact> 0.51464087E+04</totfact>
</mgrwt>
</event>
<event>
 4    1  0.4306168E+000  0.3147393E+03  0.7546771E-02  0.1078096E+00
         21   -1    0    0  501  502  0.00000000000E+00  0.00000000000E+00  0.23920735761E+04  0.23920735761E+04  0.00000000000E+00 0.  1.
         21   -1    0    0  502  503 -0.00000000000E+00 -0.00000000000E+00 -0.42599376798E+02  0.42599376798E+02  0.00000000000E+00 0. -1.
          6    1    1    2  501    0 -0.25720017950E+03 -0.54588632467E+02  0.97151059861E+03  0.10212216676E+04  0.17300000000E+03 0. -1.
         -6    1    1    2    0  503  0.25720017950E+03  0.54588632467E+02  0.13779636007E+04  0.14134512853E+04  0.17300000000E+03 0.  1.
<mgrwt>
<rscale>  2 0.31473934E+03</rscale>
<asrwt>0</asrwt>
<pdfrwt beam="1">  1       21 0.36801121E+00 0.31473934E+03</pdfrwt>
<pdfrwt beam="2">  1       21 0.65537521E-02 0.31473934E+03</pdfrwt>
<totfact> 0.20298451E+03</totfact>
</mgrwt>
</event>
<event>
 4    1  0.4306168E+000  0.2110855E+03  0.7546771E-02  0.1140709E+00
         21   -1    0    0  503  502  0.00000000000E+00  0.00000000000E+00  0.49768733083E+03  0.49768733083E+03  0.00000000000E+00 0. -1.
         21   -1    0    0  501  503 -0.00000000000E+00 -0.00000000000E+00 -0.10624180737E+03  0.10624180737E+03  0.00000000000E+00 0.  1.
          6    1    1    2  501    0  0.12029756074E+03 -0.12512582275E+02  0.75954176748E+02  0.22433480515E+03  0.17300000000E+03 0.  1.
         -6    1    1    2    0  502 -0.12029756074E+03  0.12512582275E+02  0.31549134672E+03  0.37959433306E+03  0.17300000000E+03 0. -1.
<mgrwt>
<rscale>  2 0.21108545E+03</rscale>
<asrwt>0</asrwt>
<pdfrwt beam="1">  1       21 0.76567280E-01 0.21108545E+03</pdfrwt>
<pdfrwt beam="2">  1       21 0.16344894E-01 0.21108545E+03</pdfrwt>
<totfact> 0.50444284E+04</totfact>
</mgrwt>
</event>
<event>
 4    1  0.4306168E+000  0.1784210E+03  0.7546771E-02  0.1169340E+00
         21   -1    0    0  503  502  0.00000000000E+00  0.00000000000E+00  0.26164776623E+03  0.26164776623E+03  0.00000000000E+00 0.  1.
         21   -1    0    0  501  503 -0.00000000000E+00 -0.00000000000E+00 -0.13519443929E+03  0.13519443929E+03  0.00000000000E+00 0.  1.
          6    1    1    2  501    0 -0.30167109634E+02  0.31543729043E+02  0.12599003530E+03  0.21842058131E+03  0.17300000000E+03 0.  1.
         -6    1    1    2    0  502  0.30167109634E+02 -0.31543729043E+02  0.46329163876E+00  0.17842162421E+03  0.17300000000E+03 0.  1.
<mgrwt>
<rscale>  2 0.17842102E+03</rscale>
<asrwt>0</asrwt>
<pdfrwt beam="1">  1       21 0.40253502E-01 0.17842102E+03</pdfrwt>
<pdfrwt beam="2">  1       21 0.20799145E-01 0.17842102E+03</pdfrwt>
<totfact> 0.12819836E+05</totfact>
</mgrwt>
</event>
<event>
 4    1  0.4306168E+000  0.2580998E+03  0.7546771E-02  0.1108290E+00
         21   -1    0    0  501  502  0.00000000000E+00  0.00000000000E+00  0.60591873378E+03  0.60591873378E+03  0.00000000000E+00 0. -1.
         21   -1    0    0  502  503 -0.00000000000E+00 -0.00000000000E+00 -0.23253864961E+03  0.23253864961E+03  0.00000000000E+00 0. -1.
          6    1    1    2  501    0 -0.17599411288E+03  0.75581656045E+02  0.49108952014E+03  0.55478322910E+03  0.17300000000E+03 0. -1.
         -6    1    1    2    0  503  0.17599411288E+03 -0.75581656045E+02 -0.11770943596E+03  0.28367415429E+03  0.17300000000E+03 0. -1.
<mgrwt>
<rscale>  2 0.25809981E+03</rscale>
<asrwt>0</asrwt>
<pdfrwt beam="1">  1       21 0.93218266E-01 0.25809981E+03</pdfrwt>
<pdfrwt beam="2">  1       21 0.35775177E-01 0.25809981E+03</pdfrwt>
<totfact> 0.69859585E+03</totfact>
</mgrwt>
</event>
<event>
 4    1  0.4306168E+000  0.1743823E+03  0.7546771E-02  0.1173353E+00
         21   -1    0    0  503  502  0.00000000000E+00  0.00000000000E+00  0.69310448214E+03  0.69310448214E+03  0.00000000000E+00 0.  1.
         21   -1    0    0  501  503 -0.00000000000E+00 -0.00000000000E+00 -0.43948569715E+02  0.43948569715E+02  0.00000000000E+00 0.  1.
          6    1    1    2  501    0  0.21896592629E+02 -0.84610651849E+00  0.30938463095E+03  0.35514507815E+03  0.17300000000E+03 0.  1.
         -6    1    1    2    0  502 -0.21896592629E+02  0.84610651849E+00  0.33977128147E+03  0.38190797370E+03  0.17300000000E+03 0.  1.
<mgrwt>
<rscale>  2 0.17438227E+03</rscale>
<asrwt>0</asrwt>
<pdfrwt beam="1">  1       21 0.10663145E+00 0.17438227E+03</pdfrwt>
<pdfrwt beam="2">  1       21 0.67613189E-02 0.17438227E+03</pdfrwt>
<totfact> 0.11390643E+05</totfact>
</mgrwt>
</event>
<event>
 4    1  0.4306168E+000  0.4418162E+03  0.7546771E-02  0.1030191E+00
         21   -1    0    0  503  502  0.00000000000E+00  0.00000000000E+00  0.64229248893E+03  0.64229248893E+03  0.00000000000E+00 0.  1.
         21   -1    0    0  501  503 -0.00000000000E+00 -0.00000000000E+00 -0.10881882539E+04  0.10881882539E+04  0.00000000000E+00 0.  1.
          6    1    1    2  501    0 -0.40631919753E+03  0.13312626695E+02 -0.95749356037E+03  0.10545119414E+04  0.17300000000E+03 0.  1.
         -6    1    1    2    0  502  0.40631919753E+03 -0.13312626695E+02  0.51159779540E+03  0.67596880148E+03  0.17300000000E+03 0.  1.
<mgrwt>
<rscale>  2 0.44181616E+03</rscale>
<asrwt>0</asrwt>
<pdfrwt beam="1">  1       21 0.98814229E-01 0.44181616E+03</pdfrwt>
<pdfrwt beam="2">  1       21 0.16741358E+00 0.44181616E+03</pdfrwt>
<totfact> 0.15270308E+02</totfact>
</mgrwt>
</event>
<event>
 4    1  0.4306168E+000  0.2015010E+03  0.7546771E-02  0.1148479E+00
         21   -1    0    0  503  502  0.00000000000E+00  0.00000000000E+00  0.30198312141E+03  0.30198312141E+03  0.00000000000E+00 0.  1.
         21   -1    0    0  501  503 -0.00000000000E+00 -0.00000000000E+00 -0.17351121131E+03  0.17351121131E+03  0.00000000000E+00 0.  1.
          6    1    1    2  501    0 -0.92789665763E+02 -0.45428341377E+02 -0.48563123289E+02  0.20727043498E+03  0.17300000000E+03 0.  1.
         -6    1    1    2    0  502  0.92789665763E+02  0.45428341377E+02  0.17703503339E+03  0.26822389774E+03  0.17300000000E+03 0.  1.
<mgrwt>
<rscale>  2 0.20150101E+03</rscale>
<asrwt>0</asrwt>
<pdfrwt beam="1">  1       21 0.46458942E-01 0.20150101E+03</pdfrwt>
<pdfrwt beam="2">  1       21 0.26694033E-01 0.20150101E+03</pdfrwt>
<totfact> 0.59034526E+04</totfact>
</mgrwt>
</event>
<event>
 4    1  0.4306168E+000  0.2338811E+03  0.7546771E-02  0.1123937E+00
         21   -1    0    0  501  502  0.00000000000E+00  0.00000000000E+00  0.59095783676E+03  0.59095783676E+03  0.00000000000E+00 0. -1.
         21   -1    0    0  502  503 -0.00000000000E+00 -0.00000000000E+00 -0.10909968330E+03  0.10909968330E+03  0.00000000000E+00 0.  1.
          6    1    1    2  501    0  0.86343887506E+02  0.13159074074E+03  0.37720714606E+03  0.44383062197E+03  0.17300000000E+03 0. -1.
         -6    1    1    2    0  503 -0.86343887506E+02 -0.13159074074E+03  0.10465100740E+03  0.25622689810E+03  0.17300000000E+03 0. -1.
<mgrwt>
<rscale>  2 0.23388114E+03</rscale>
<asrwt>0</asrwt>
<pdfrwt beam="1">  1       21 0.90916588E-01 0.23388114E+03</pdfrwt>
<pdfrwt beam="2">  1       21 0.16784567E-01 0.23388114E+03</pdfrwt>
<totfact> 0.32069909E+04</totfact>
</mgrwt>
</event>
<event>
 4    1  0.4306168E+000  0.1994693E+03  0.7546771E-02  0.1150188E+00
         21   -1    0    0  501  502  0.00000000000E+00  0.00000000000E+00  0.38313527137E+03  0.38313527137E+03  0.00000000000E+00 0.  1.
         21   -1    0    0  502  503 -0.00000000000E+00 -0.00000000000E+00 -0.55627830911E+03  0.55627830911E+03  0.00000000000E+00 0.  1.
          6    1    1    2  501    0  0.34670349571E+01 -0.99231968811E+02  0.33702892396E+03  0.39163311856E+03  0.17300000000E+03 0.  1.
         -6    1    1    2    0  503 -0.34670349571E+01  0.99231968811E+02 -0.51017196170E+03  0.54778046193E+03  0.17300000000E+03 0.  1.
<mgrwt>
<rscale>  2 0.19946931E+03</rscale>
<asrwt>0</asrwt>
<pdfrwt beam="1">  1       21 0.58943888E-01 0.19946931E+03</pdfrwt>
<pdfrwt beam="2">  1       21 0.85581278E-01 0.19946931E+03</pdfrwt>
<totfact> 0.31572802E+03</totfact>
</mgrwt>
</event>
<event>
 4    1  0.4306168E+000  0.1739499E+03  0.7546771E-02  0.1173790E+00
         21   -1    0    0  501  502  0.00000000000E+00  0.00000000000E+00  0.33900811438E+03  0.33900811438E+03  0.00000000000E+00 0. -1.
         21   -1    0    0  502  503 -0.00000000000E+00 -0.00000000000E+00 -0.49008473252E+03  0.49008473252E+03  0.00000000000E+00 0.  1.
          6    1    1    2  501    0  0.63449374065E+01 -0.17009358624E+02  0.29936295053E+03  0.34623222360E+03  0.17300000000E+03 0. -1.
         -6    1    1    2    0  503 -0.63449374065E+01  0.17009358624E+02 -0.45043956867E+03  0.48286062330E+03  0.17300000000E+03 0.  1.
<mgrwt>
<rscale>  2 0.17394993E+03</rscale>
<asrwt>0</asrwt>
<pdfrwt beam="1">  1       21 0.52155095E-01 0.17394993E+03</pdfrwt>
<pdfrwt beam="2">  1       21 0.75397651E-01 0.17394993E+03</pdfrwt>
<totfact> 0.55629341E+03</totfact>
</mgrwt>
</event>
<event>
 4    1  0.4306168E+000  0.1813530E+03  0.7546771E-02  0.1166500E+00
         21   -1    0    0  503  502  0.00000000000E+00  0.00000000000E+00  0.29994544280E+02  0.29994544280E+02  0.00000000000E+00 0.  1.
         21   -1    0    0  501  503 -0.00000000000E+00 -0.00000000000E+00 -0.11293552518E+04  0.11293552518E+04  0.00000000000E+00 0.  1.
          6    1    1    2  501    0 -0.30397692915E+02 -0.45120656110E+02 -0.64855820715E+03  0.67343644199E+03  0.17300000000E+03 0.  1.
         -6    1    1    2    0  502  0.30397692915E+02  0.45120656110E+02 -0.45080250041E+03  0.48591335413E+03  0.17300000000E+03 0.  1.
<mgrwt>
<rscale>  2 0.18135295E+03</rscale>
<asrwt>0</asrwt>
<pdfrwt beam="1">  1       21 0.46145450E-02 0.18135295E+03</pdfrwt>
<pdfrwt beam="2">  1       21 0.17374697E+00 0.18135295E+03</pdfrwt>
<totfact> 0.62303324E+04</totfact>
</mgrwt>
</event>
<event>
 4    1  0.4306168E+000  0.2092132E+03  0.7546771E-02  0.1142191E+00
         21   -1    0    0  503  502  0.00000000000E+00  0.00000000000E+00  0.42861576011E+03  0.42861576011E+03  0.00000000000E+00 0.  1.
         21   -1    0    0  501  503 -0.00000000000E+00 -0.00000000000E+00 -0.10375947796E+03  0.10375947796E+03  0.00000000000E+00 0. -1.
          6    1    1    2  501    0  0.36788027670E+02  0.11174884798E+03  0.19589004722E+03  0.28660613148E+03  0.17300000000E+03 0.  1.
         -6    1    1    2    0  502 -0.36788027670E+02 -0.11174884798E+03  0.12896623493E+03  0.24576910660E+03  0.17300000000E+03 0. -1.
<mgrwt>
<rscale>  2 0.20921320E+03</rscale>
<asrwt>0</asrwt>
<pdfrwt beam="1">  1       21 0.65940885E-01 0.20921320E+03</pdfrwt>
<pdfrwt beam="2">  1       21 0.15962997E-01 0.20921320E+03</pdfrwt>
<totfact> 0.73422516E+04</totfact>
</mgrwt>
</event>
<event>
 4    1  0.4306168E+000  0.1836494E+03  0.7546771E-02  0.1164317E+00
         21   -1    0    0  503  502  0.00000000000E+00  0.00000000000E+00  0.39714620428E+03  0.39714620428E+03  0.00000000000E+00 0.  1.
         21   -1    0    0  501  503 -0.00000000000E+00 -0.00000000000E+00 -0.89287492399E+02  0.89287492399E+02  0.00000000000E+00 0. -1.
          6    1    1    2  501    0  0.60450209477E+02  0.11994381485E+02  0.20769865879E+03  0.27724686811E+03  0.17300000000E+03 0.  1.
         -6    1    1    2    0  502 -0.60450209477E+02 -0.11994381485E+02  0.10016005309E+03  0.20918682857E+03  0.17300000000E+03 0. -1.
<mgrwt>
<rscale>  2 0.18364938E+03</rscale>
<asrwt>0</asrwt>
<pdfrwt beam="1">  1       21 0.61099415E-01 0.18364938E+03</pdfrwt>
<pdfrwt beam="2">  1       21 0.13736538E-01 0.18364938E+03</pdfrwt>
<totfact> 0.11505480E+05</totfact>
</mgrwt>
</event>
<event>
 4    1  0.4306168E+000  0.2103348E+03  0.7546771E-02  0.1141301E+00
         21   -1    0    0  501  502  0.00000000000E+00  0.00000000000E+00  0.14881857233E+03  0.14881857233E+03  0.00000000000E+00 0. -1.
         21   -1    0    0  502  503 -0.00000000000E+00 -0.00000000000E+00 -0.34054423196E+03  0.34054423196E+03  0.00000000000E+00 0.  1.
          6    1    1    2  501    0  0.54365183066E+02  0.10656533279E+03 -0.86500541997E+01  0.21051262841E+03  0.17300000000E+03 0. -1.
         -6    1    1    2    0  503 -0.54365183066E+02 -0.10656533279E+03 -0.18307560543E+03  0.27885017588E+03  0.17300000000E+03 0. -1.
<mgrwt>
<rscale>  2 0.21033484E+03</rscale>
<asrwt>0</asrwt>
<pdfrwt beam="1">  1       21 0.22895165E-01 0.21033484E+03</pdfrwt>
<pdfrwt beam="2">  1       21 0.52391420E-01 0.21033484E+03</pdfrwt>
<totfact> 0.61362250E+04</totfact>
</mgrwt>
</event>
<event>
 4    1  0.4306168E+000  0.2856839E+03  0.7546771E-02  0.1092624E+00
         21   -1    0    0  503  502  0.00000000000E+00  0.00000000000E+00  0.13933310956E+04  0.13933310956E+04  0.00000000000E+00 0.  1.
         21   -1    0    0  501  503 -0.00000000000E+00 -0.00000000000E+00 -0.65646032157E+02  0.65646032157E+02  0.00000000000E+00 0. -1.
          6    1    1    2  501    0 -0.20120639649E+03  0.10584080921E+03  0.42443636533E+03  0.51162634715E+03  0.17300000000E+03 0. -1.
         -6    1    1    2    0  502  0.20120639649E+03 -0.10584080921E+03  0.90324869815E+03  0.94735078064E+03  0.17300000000E+03 0.  1.
<mgrwt>
<rscale>  2 0.28568390E+03</rscale>
<asrwt>0</asrwt>
<pdfrwt beam="1">  1       21 0.21435861E+00 0.28568390E+03</pdfrwt>
<pdfrwt beam="2">  1       21 0.10099391E-01 0.28568390E+03</pdfrwt>
<totfact> 0.81082083E+03</totfact>
</mgrwt>
</event>
<event>
 4    1  0.4306168E+000  0.1964415E+03  0.7546771E-02  0.1152777E+00
         21   -1    0    0  503  502  0.00000000000E+00  0.00000000000E+00  0.67907519067E+02  0.67907519067E+02  0.00000000000E+00 0.  1.
         21   -1    0    0  501  503 -0.00000000000E+00 -0.00000000000E+00 -0.85238810469E+03  0.85238810469E+03  0.00000000000E+00 0.  1.
          6    1    1    2  501    0 -0.66239447543E+02 -0.65365118915E+02 -0.65790522613E+03  0.68660654654E+03  0.17300000000E+03 0.  1.
         -6    1    1    2    0  502  0.66239447543E+02  0.65365118915E+02 -0.12657535950E+03  0.23368907722E+03  0.17300000000E+03 0.  1.
<mgrwt>
<rscale>  2 0.19644150E+03</rscale>
<asrwt>0</asrwt>
<pdfrwt beam="1">  1       21 0.10447311E-01 0.19644150E+03</pdfrwt>
<pdfrwt beam="2">  1       21 0.13113663E+00 0.19644150E+03</pdfrwt>
<totfact> 0.31684814E+04</totfact>
</mgrwt>
</event>
<event>
 4    1  0.4306168E+000  0.2197419E+03  0.7546771E-02  0.1134076E+00
         21   -1    0    0  503  502  0.00000000000E+00  0.00000000000E+00  0.27715039090E+03  0.27715039090E+03  0.00000000000E+00 0. -1.
         21   -1    0    0  501  503 -0.00000000000E+00 -0.00000000000E+00 -0.33908370100E+03  0.33908370100E+03  0.00000000000E+00 0.  1.
          6    1    1    2  501    0  0.52720367944E+02  0.12481204085E+03 -0.24580827309E+03  0.32970925048E+03  0.17300000000E+03 0.  1.
         -6    1    1    2    0  502 -0.52720367944E+02 -0.12481204085E+03  0.18387496298E+03  0.28652484142E+03  0.17300000000E+03 0. -1.
<mgrwt>
<rscale>  2 0.21974185E+03</rscale>
<asrwt>0</asrwt>
<pdfrwt beam="1">  1       21 0.42638522E-01 0.21974185E+03</pdfrwt>
<pdfrwt beam="2">  1       21 0.52166723E-01 0.21974185E+03</pdfrwt>
<totfact> 0.18154876E+04</totfact>
</mgrwt>
</event>
<event>
 4    1  0.4306168E+000  0.1911687E+03  0.7546771E-02  0.1157411E+00
         21   -1    0    0  503  502  0.00000000000E+00  0.00000000000E+00  0.44593093281E+03  0.44593093281E+03  0.00000000000E+00 0.  1.
         21   -1    0    0  501  503 -0.00000000000E+00 -0.00000000000E+00 -0.14211799200E+03  0.14211799200E+03  0.00000000000E+00 0.  1.
          6    1    1    2  501    0 -0.52050777688E+02  0.62507425940E+02 -0.39400231619E+02  0.19518667989E+03  0.17300000000E+03 0.  1.
         -6    1    1    2    0  502  0.52050777688E+02 -0.62507425940E+02  0.34321317242E+03  0.39286224492E+03  0.17300000000E+03 0.  1.
<mgrwt>
<rscale>  2 0.19116867E+03</rscale>
<asrwt>0</asrwt>
<pdfrwt beam="1">  1       21 0.68604758E-01 0.19116867E+03</pdfrwt>
<pdfrwt beam="2">  1       21 0.21864307E-01 0.19116867E+03</pdfrwt>
<totfact> 0.37856116E+04</totfact>
</mgrwt>
</event>
<event>
 4    1  0.4306168E+000  0.2388920E+03  0.7546771E-02  0.1120533E+00
         21   -1    0    0  501  502  0.00000000000E+00  0.00000000000E+00  0.77165723494E+03  0.77165723494E+03  0.00000000000E+00 0. -1.
         21   -1    0    0  502  503 -0.00000000000E+00 -0.00000000000E+00 -0.78540900769E+02  0.78540900769E+02  0.00000000000E+00 0. -1.
          6    1    1    2  501    0 -0.16473998154E+03 -0.10668631792E+01  0.44925644418E+03  0.50882290864E+03  0.17300000000E+03 0. -1.
         -6    1    1    2    0  503  0.16473998154E+03  0.10668631792E+01  0.24385988998E+03  0.34137522707E+03  0.17300000000E+03 0. -1.
<mgrwt>
<rscale>  2 0.23889203E+03</rscale>
<asrwt>0</asrwt>
<pdfrwt beam="1">  1       21 0.11871649E+00 0.23889203E+03</pdfrwt>
<pdfrwt beam="2">  1       21 0.12083216E-01 0.23889203E+03</pdfrwt>
<totfact> 0.30650545E+04</totfact>
</mgrwt>
</event>
<event>
 4    1  0.4306168E+000  0.2073265E+03  0.7546771E-02  0.1143701E+00
         21   -1    0    0  503  502  0.00000000000E+00  0.00000000000E+00  0.20240168821E+03  0.20240168821E+03  0.00000000000E+00 0.  1.
         21   -1    0    0  501  503 -0.00000000000E+00 -0.00000000000E+00 -0.24210971135E+03  0.24210971135E+03  0.00000000000E+00 0.  1.
          6    1    1    2  501    0 -0.89679368096E+02  0.70801871440E+02 -0.97748413433E+02  0.22921397512E+03  0.17300000000E+03 0.  1.
         -6    1    1    2    0  502  0.89679368096E+02 -0.70801871440E+02  0.58040390295E+02  0.21529742443E+03  0.17300000000E+03 0.  1.
<mgrwt>
<rscale>  2 0.20732654E+03</rscale>
<asrwt>0</asrwt>
<pdfrwt beam="1">  1       21 0.31138721E-01 0.20732654E+03</pdfrwt>
<pdfrwt beam="2">  1       21 0.37247648E-01 0.20732654E+03</pdfrwt>
<totfact> 0.68428162E+04</totfact>
</mgrwt>
</event>
<event>
 4    1  0.4306168E+000  0.2769287E+03  0.7546771E-02  0.1097378E+00
         21   -1    0    0  503  502  0.00000000000E+00  0.00000000000E+00  0.33314980997E+03  0.33314980997E+03  0.00000000000E+00 0. -1.
         21   -1    0    0  501  503 -0.00000000000E+00 -0.00000000000E+00 -0.36550521866E+03  0.36550521866E+03  0.00000000000E+00 0.  1.
          6    1    1    2  501    0 -0.15943822347E+03 -0.14608210711E+03  0.19636723906E+03  0.33948434676E+03  0.17300000000E+03 0. -1.
         -6    1    1    2    0  502  0.15943822347E+03  0.14608210711E+03 -0.22872264774E+03  0.35917068187E+03  0.17300000000E+03 0.  1.
<mgrwt>
<rscale>  2 0.27692874E+03</rscale>
<asrwt>0</asrwt>
<pdfrwt beam="1">  1       21 0.51253818E-01 0.27692874E+03</pdfrwt>
<pdfrwt beam="2">  1       21 0.56231571E-01 0.27692874E+03</pdfrwt>
<totfact> 0.10249843E+04</totfact>
</mgrwt>
</event>
<event>
 4    1  0.4306168E+000  0.1974656E+03  0.7546771E-02  0.1151895E+00
         21   -1    0    0  503  502  0.00000000000E+00  0.00000000000E+00  0.20307109345E+03  0.20307109345E+03  0.00000000000E+00 0.  1.
         21   -1    0    0  501  503 -0.00000000000E+00 -0.00000000000E+00 -0.49020478710E+03  0.49020478710E+03  0.00000000000E+00 0. -1.
          6    1    1    2  501    0  0.94847060886E+02 -0.82268388652E+01 -0.41392152181E+03  0.45861058868E+03  0.17300000000E+03 0. -1.
         -6    1    1    2    0  502 -0.94847060886E+02  0.82268388652E+01  0.12678782815E+03  0.23466529186E+03  0.17300000000E+03 0.  1.
<mgrwt>
<rscale>  2 0.19746556E+03</rscale>
<asrwt>0</asrwt>
<pdfrwt beam="1">  1       21 0.31241707E-01 0.19746556E+03</pdfrwt>
<pdfrwt beam="2">  1       21 0.75416121E-01 0.19746556E+03</pdfrwt>
<totfact> 0.15412301E+04</totfact>
</mgrwt>
</event>
<event>
 4    1  0.4306168E+000  0.2356916E+03  0.7546771E-02  0.1122697E+00
         21   -1    0    0  501  502  0.00000000000E+00  0.00000000000E+00  0.26029441685E+03  0.26029441685E+03  0.00000000000E+00 0.  1.
         21   -1    0    0  502  503 -0.00000000000E+00 -0.00000000000E+00 -0.40123223698E+03  0.40123223698E+03  0.00000000000E+00 0.  1.
          6    1    1    2  501    0  0.34165638822E+02  0.15637856472E+03  0.15583288267E+03  0.28254987825E+03  0.17300000000E+03 0.  1.
         -6    1    1    2    0  503 -0.34165638822E+02 -0.15637856472E+03 -0.29677070280E+03  0.37897677557E+03  0.17300000000E+03 0.  1.
<mgrwt>
<rscale>  2 0.23569163E+03</rscale>
<asrwt>0</asrwt>
<pdfrwt beam="1">  1       21 0.40045295E-01 0.23569163E+03</pdfrwt>
<pdfrwt beam="2">  1       21 0.61728037E-01 0.23569163E+03</pdfrwt>
<totfact> 0.14273986E+04</totfact>
</mgrwt>
</event>
<event>
 4    1  0.4306168E+000  0.1928069E+03  0.7546771E-02  0.1155954E+00
         21   -1    0    0  501  502  0.00000000000E+00  0.00000000000E+00  0.33143790374E+03  0.33143790374E+03  0.00000000000E+00 0. -1.
         21   -1    0    0  502  503 -0.00000000000E+00 -0.00000000000E+00 -0.51285382908E+03  0.51285382908E+03  0.00000000000E+00 0. -1.
          6    1    1    2  501    0 -0.65070641654E+02  0.54875348912E+02  0.28243167462E+03  0.34196804405E+03  0.17300000000E+03 0. -1.
         -6    1    1    2    0  503  0.65070641654E+02 -0.54875348912E+02 -0.46384759995E+03  0.50232368877E+03  0.17300000000E+03 0. -1.
<mgrwt>
<rscale>  2 0.19280688E+03</rscale>
<asrwt>0</asrwt>
<pdfrwt beam="1">  1       21 0.50990447E-01 0.19280688E+03</pdfrwt>
<pdfrwt beam="2">  1       21 0.78900589E-01 0.19280688E+03</pdfrwt>
<totfact> 0.51896834E+03</totfact>
</mgrwt>
</event>
<event>
 4    1  0.4306168E+000  0.1741977E+03  0.7546771E-02  0.1173540E+00
         21   -1    0    0  503  502  0.00000000000E+00  0.00000000000E+00  0.60954567727E+02  0.60954567727E+02  0.00000000000E+00 0.  1.
         21   -1    0    0  501  503 -0.00000000000E+00 -0.00000000000E+00 -0.53642381314E+03  0.53642381314E+03  0.00000000000E+00 0.  1.
          6    1    1    2  501    0 -0.12623618723E+02  0.16015117753E+02 -0.31785449849E+03  0.36245871759E+03  0.17300000000E+03 0.  1.
         -6    1    1    2    0  502  0.12623618723E+02 -0.16015117753E+02 -0.15761474692E+03  0.23491966328E+03  0.17300000000E+03 0.  1.
<mgrwt>
<rscale>  2 0.17419770E+03</rscale>
<asrwt>0</asrwt>
<pdfrwt beam="1">  1       21 0.93776259E-02 0.17419770E+03</pdfrwt>
<pdfrwt beam="2">  1       21 0.82526740E-01 0.17419770E+03</pdfrwt>
<totfact> 0.11730102E+05</totfact>
</mgrwt>
</event>
<event>
 4    1  0.4306168E+000  0.1965874E+03  0.7546771E-02  0.1152651E+00
         21   -1    0    0  503  502  0.00000000000E+00  0.00000000000E+00  0.67286303506E+02  0.67286303506E+02  0.00000000000E+00 0. -1.
         21   -1    0    0  501  503 -0.00000000000E+00 -0.00000000000E+00 -0.73309740914E+03  0.73309740914E+03  0.00000000000E+00 0.  1.
          6    1    1    2  501    0 -0.59633439916E+02  0.71843278736E+02 -0.51912549294E+03  0.55510168553E+03  0.17300000000E+03 0.  1.
         -6    1    1    2    0  502  0.59633439916E+02 -0.71843278736E+02 -0.14668561269E+03  0.24528202712E+03  0.17300000000E+03 0. -1.
<mgrwt>
<rscale>  2 0.19658739E+03</rscale>
<asrwt>0</asrwt>
<pdfrwt beam="1">  1       21 0.10351738E-01 0.19658739E+03</pdfrwt>
<pdfrwt beam="2">  1       21 0.11278423E+00 0.19658739E+03</pdfrwt>
<totfact> 0.46823358E+04</totfact>
</mgrwt>
</event>
<event>
 4    1  0.4306168E+000  0.2135133E+03  0.7546771E-02  0.1138814E+00
         21   -1    0    0  501  502  0.00000000000E+00  0.00000000000E+00  0.44064254336E+03  0.44064254336E+03  0.00000000000E+00 0. -1.
         21   -1    0    0  502  503 -0.00000000000E+00 -0.00000000000E+00 -0.11296425785E+03  0.11296425785E+03  0.00000000000E+00 0. -1.
          6    1    1    2  501    0 -0.12426509620E+03  0.14734648105E+02  0.24413801306E+03  0.32433207275E+03  0.17300000000E+03 0. -1.
         -6    1    1    2    0  503  0.12426509620E+03 -0.14734648105E+02  0.83540272450E+02  0.22927472846E+03  0.17300000000E+03 0. -1.
<mgrwt>
<rscale>  2 0.21351329E+03</rscale>
<asrwt>0</asrwt>
<pdfrwt beam="1">  1       21 0.67791160E-01 0.21351329E+03</pdfrwt>
<pdfrwt beam="2">  1       21 0.17379117E-01 0.21351329E+03</pdfrwt>
<totfact> 0.58981214E+04</totfact>
</mgrwt>
</event>
<event>
 4    1  0.4306168E+000  0.2164917E+03  0.7546771E-02  0.1136526E+00
         21   -1    0    0  503  502  0.00000000000E+00  0.00000000000E+00  0.77290619698E+02  0.77290619698E+02  0.00000000000E+00 0. -1.
         21   -1    0    0  501  503 -0.00000000000E+00 -0.00000000000E+00 -0.60796402120E+03  0.60796402120E+03  0.00000000000E+00 0. -1.
          6    1    1    2  501    0  0.12507399746E+03  0.36002285947E+02 -0.24793249161E+03  0.32914919084E+03  0.17300000000E+03 0. -1.
         -6    1    1    2    0  502 -0.12507399746E+03 -0.36002285947E+02 -0.28274090989E+03  0.35610545005E+03  0.17300000000E+03 0. -1.
<mgrwt>
<rscale>  2 0.21649173E+03</rscale>
<asrwt>0</asrwt>
<pdfrwt beam="1">  1       21 0.11890864E-01 0.21649173E+03</pdfrwt>
<pdfrwt beam="2">  1       21 0.93532928E-01 0.21649173E+03</pdfrwt>
<totfact> 0.56646186E+04</totfact>
</mgrwt>
</event>
<event>
 4    1  0.4306168E+000  0.2039320E+03  0.7546771E-02  0.1146463E+00
         21   -1    0    0  501  502  0.00000000000E+00  0.00000000000E+00  0.61772555245E+03  0.61772555245E+03  0.00000000000E+00 0. -1.
         21   -1    0    0  502  503 -0.00000000000E+00 -0.00000000000E+00 -0.75375004001E+02  0.75375004001E+02  0.00000000000E+00 0.  1.
          6    1    1    2  501    0 -0.57814120512E+02 -0.91196497403E+02  0.38442964082E+03  0.43517171600E+03  0.17300000000E+03 0.  1.
         -6    1    1    2    0  503  0.57814120512E+02  0.91196497403E+02  0.15792090763E+03  0.25792884045E+03  0.17300000000E+03 0. -1.
<mgrwt>
<rscale>  2 0.20393203E+03</rscale>
<asrwt>0</asrwt>
<pdfrwt beam="1">  1       21 0.95034697E-01 0.20393203E+03</pdfrwt>
<pdfrwt beam="2">  1       21 0.11596155E-01 0.20393203E+03</pdfrwt>
<totfact> 0.57419296E+04</totfact>
</mgrwt>
</event>
<event>
 4    1  0.4306168E+000  0.2607540E+03  0.7546771E-02  0.1106691E+00
         21   -1    0    0  503  502  0.00000000000E+00  0.00000000000E+00  0.17167189122E+03  0.17167189122E+03  0.00000000000E+00 0.  1.
         21   -1    0    0  501  503 -0.00000000000E+00 -0.00000000000E+00 -0.52604323666E+03  0.52604323666E+03  0.00000000000E+00 0. -1.
          6    1    1    2  501    0  0.19482027640E+03  0.10426528122E+02 -0.35059735019E+03  0.43693381025E+03  0.17300000000E+03 0. -1.
         -6    1    1    2    0  502 -0.19482027640E+03 -0.10426528122E+02 -0.37739952610E+01  0.26078131763E+03  0.17300000000E+03 0.  1.
<mgrwt>
<rscale>  2 0.26075401E+03</rscale>
<asrwt>0</asrwt>
<pdfrwt beam="1">  1       21 0.26411060E-01 0.26075401E+03</pdfrwt>
<pdfrwt beam="2">  1       21 0.80929728E-01 0.26075401E+03</pdfrwt>
<totfact> 0.17593133E+04</totfact>
</mgrwt>
</event>
<event>
 4    1  0.4306168E+000  0.1763864E+03  0.7546771E-02  0.1171347E+00
         21   -1    0    0  503  502  0.00000000000E+00  0.00000000000E+00  0.53287871153E+02  0.53287871153E+02  0.00000000000E+00 0. -1.
         21   -1    0    0  501  503 -0.00000000000E+00 -0.00000000000E+00 -0.64247959589E+03  0.64247959589E+03  0.00000000000E+00 0. -1.
          6    1    1    2  501    0  0.29945155998E+02  0.16924783912E+02 -0.39968560389E+03  0.43687611818E+03  0.17300000000E+03 0. -1.
         -6    1    1    2    0  502 -0.29945155998E+02 -0.16924783912E+02 -0.18950612085E+03  0.25889134887E+03  0.17300000000E+03 0. -1.
<mgrwt>
<rscale>  2 0.17638640E+03</rscale>
<asrwt>0</asrwt>
<pdfrwt beam="1">  1       21 0.81981338E-02 0.17638640E+03</pdfrwt>
<pdfrwt beam="2">  1       21 0.98843017E-01 0.17638640E+03</pdfrwt>
<totfact> 0.97700420E+04</totfact>
</mgrwt>
</event>
<event>
 4    1  0.4306168E+000  0.1758269E+03  0.7546771E-02  0.1171904E+00
         21   -1    0    0  501  502  0.00000000000E+00  0.00000000000E+00  0.12633643371E+03  0.12633643371E+03  0.00000000000E+00 0. -1.
         21   -1    0    0  502  503 -0.00000000000E+00 -0.00000000000E+00 -0.34786803857E+03  0.34786803857E+03  0.00000000000E+00 0. -1.
          6    1    1    2  501    0  0.30051770578E+02  0.91097191077E+01  0.18353587851E+02  0.17678221088E+03  0.17300000000E+03 0. -1.
         -6    1    1    2    0  503 -0.30051770578E+02 -0.91097191077E+01 -0.23988519271E+03  0.29742226140E+03  0.17300000000E+03 0. -1.
<mgrwt>
<rscale>  2 0.17582689E+03</rscale>
<asrwt>0</asrwt>
<pdfrwt beam="1">  1       21 0.19436375E-01 0.17582689E+03</pdfrwt>
<pdfrwt beam="2">  1       21 0.53518158E-01 0.17582689E+03</pdfrwt>
<totfact> 0.81010165E+04</totfact>
</mgrwt>
</event>
<event>
 4    1  0.4306168E+000  0.1869309E+03  0.7546771E-02  0.1161259E+00
         21   -1    0    0  501  502  0.00000000000E+00  0.00000000000E+00  0.10616955064E+03  0.10616955064E+03  0.00000000000E+00 0.  1.
         21   -1    0    0  502  503 -0.00000000000E+00 -0.00000000000E+00 -0.36029638757E+03  0.36029638757E+03  0.00000000000E+00 0.  1.
          6    1    1    2  501    0 -0.26943739912E+02  0.65484263607E+02 -0.58462258827E+02  0.19585961709E+03  0.17300000000E+03 0.  1.
         -6    1    1    2    0  503  0.26943739912E+02 -0.65484263607E+02 -0.19566457811E+03  0.27060632111E+03  0.17300000000E+03 0.  1.
<mgrwt>
<rscale>  2 0.18693088E+03</rscale>
<asrwt>0</asrwt>
<pdfrwt beam="1">  1       21 0.16333777E-01 0.18693088E+03</pdfrwt>
<pdfrwt beam="2">  1       21 0.55430214E-01 0.18693088E+03</pdfrwt>
<totfact> 0.10323166E+05</totfact>
</mgrwt>
</event>
<event>
 4    1  0.4306168E+000  0.2155585E+03  0.7546771E-02  0.1137238E+00
         21   -1    0    0  501  502  0.00000000000E+00  0.00000000000E+00  0.64461229678E+02  0.64461229678E+02  0.00000000000E+00 0. -1.
         21   -1    0    0  502  503 -0.00000000000E+00 -0.00000000000E+00 -0.82873727898E+03  0.82873727898E+03  0.00000000000E+00 0. -1.
          6    1    1    2  501    0  0.12489849416E+03 -0.30607646823E+02 -0.22098484844E+03  0.30870660040E+03  0.17300000000E+03 0. -1.
         -6    1    1    2    0  503 -0.12489849416E+03  0.30607646823E+02 -0.54329120086E+03  0.58449190826E+03  0.17300000000E+03 0. -1.
<mgrwt>
<rscale>  2 0.21555849E+03</rscale>
<asrwt>0</asrwt>
<pdfrwt beam="1">  1       21 0.99171125E-02 0.21555849E+03</pdfrwt>
<pdfrwt beam="2">  1       21 0.12749804E+00 0.21555849E+03</pdfrwt>
<totfact> 0.36901167E+04</totfact>
</mgrwt>
</event>
<event>
 4    1  0.4306168E+000  0.2728663E+03  0.7546771E-02  0.1099650E+00
         21   -1    0    0  503  502  0.00000000000E+00  0.00000000000E+00  0.78472347141E+03  0.78472347141E+03  0.00000000000E+00 0. -1.
         21   -1    0    0  501  503 -0.00000000000E+00 -0.00000000000E+00 -0.10293286086E+03  0.10293286086E+03  0.00000000000E+00 0.  1.
          6    1    1    2  501    0 -0.15464500801E+03 -0.14356850107E+03  0.21676901091E+03  0.34848930700E+03  0.17300000000E+03 0.  1.
         -6    1    1    2    0  502  0.15464500801E+03  0.14356850107E+03  0.46502159964E+03  0.53916702527E+03  0.17300000000E+03 0. -1.
<mgrwt>
<rscale>  2 0.27286625E+03</rscale>
<asrwt>0</asrwt>
<pdfrwt beam="1">  1       21 0.12072668E+00 0.27286625E+03</pdfrwt>
<pdfrwt beam="2">  1       21 0.15835825E-01 0.27286625E+03</pdfrwt>
<totfact> 0.17665713E+04</totfact>
</mgrwt>
</event>
<event>
 4    1  0.4306168E+000  0.2609334E+03  0.7546771E-02  0.1106584E+00
         21   -1    0    0  503  502  0.00000000000E+00  0.00000000000E+00  0.10497722224E+03  0.10497722224E+03  0.00000000000E+00 0.  1.
         21   -1    0    0  501  503 -0.00000000000E+00 -0.00000000000E+00 -0.16516156876E+04  0.16516156876E+04  0.00000000000E+00 0.  1.
          6    1    1    2  501    0 -0.59993268353E+02  0.18589790189E+03 -0.14577738005E+04  0.14809424957E+04  0.17300000000E+03 0.  1.
         -6    1    1    2    0  502  0.59993268353E+02 -0.18589790189E+03 -0.88864664935E+02  0.27565041420E+03  0.17300000000E+03 0.  1.
<mgrwt>
<rscale>  2 0.26093337E+03</rscale>
<asrwt>0</asrwt>
<pdfrwt beam="1">  1       21 0.16150342E-01 0.26093337E+03</pdfrwt>
<pdfrwt beam="2">  1       21 0.25409472E+00 0.26093337E+03</pdfrwt>
<totfact> 0.20141784E+03</totfact>
</mgrwt>
</event>
<event>
 4    1  0.4306168E+000  0.2090852E+03  0.7546771E-02  0.1142292E+00
         21   -1    0    0  503  502  0.00000000000E+00  0.00000000000E+00  0.40003493403E+02  0.40003493403E+02  0.00000000000E+00 0. -1.
         21   -1    0    0  501  503 -0.00000000000E+00 -0.00000000000E+00 -0.12078255400E+04  0.12078255400E+04  0.00000000000E+00 0.  1.
          6    1    1    2  501    0 -0.10369914630E+03  0.55082890655E+02 -0.77643348975E+03  0.80409303055E+03  0.17300000000E+03 0.  1.
         -6    1    1    2    0  502  0.10369914630E+03 -0.55082890655E+02 -0.39138855682E+03  0.44373600281E+03  0.17300000000E+03 0. -1.
<mgrwt>
<rscale>  2 0.20908524E+03</rscale>
<asrwt>0</asrwt>
<pdfrwt beam="1">  1       21 0.61543844E-02 0.20908524E+03</pdfrwt>
<pdfrwt beam="2">  1       21 0.18581929E+00 0.20908524E+03</pdfrwt>
<totfact> 0.31039533E+04</totfact>
</mgrwt>
</event>
<event>
 4    1  0.4306168E+000  0.1735596E+03  0.7546771E-02  0.1174186E+00
         21   -1    0    0  501  502  0.00000000000E+00  0.00000000000E+00  0.32281907608E+03  0.32281907608E+03  0.00000000000E+00 0.  1.
         21   -1    0    0  502  503 -0.00000000000E+00 -0.00000000000E+00 -0.12423484246E+03  0.12423484246E+03  0.00000000000E+00 0.  1.
          6    1    1    2  501    0 -0.70488473484E+01 -0.12009793890E+02  0.21081071543E+03  0.27306423995E+03  0.17300000000E+03 0. -1.
         -6    1    1    2    0  503  0.70488473484E+01  0.12009793890E+02 -0.12226481809E+02  0.17398967859E+03  0.17300000000E+03 0. -1.
<mgrwt>
<rscale>  2 0.17355956E+03</rscale>
<asrwt>0</asrwt>
<pdfrwt beam="1">  1       21 0.49664473E-01 0.17355956E+03</pdfrwt>
<pdfrwt beam="2">  1       21 0.19113053E-01 0.17355956E+03</pdfrwt>
<totfact> 0.97788763E+04</totfact>
</mgrwt>
</event>
<event>
 4    1  0.4306168E+000  0.1764898E+03  0.7546771E-02  0.1171244E+00
         21   -1    0    0  503  502  0.00000000000E+00  0.00000000000E+00  0.43687479762E+02  0.43687479762E+02  0.00000000000E+00 0. -1.
         21   -1    0    0  501  503 -0.00000000000E+00 -0.00000000000E+00 -0.93678594257E+03  0.93678594257E+03  0.00000000000E+00 0. -1.
          6    1    1    2  501    0  0.32925025611E+02 -0.11644035292E+02 -0.68616415823E+03  0.70849833656E+03  0.17300000000E+03 0. -1.
         -6    1    1    2    0  502 -0.32925025611E+02  0.11644035292E+02 -0.20693430458E+03  0.27197508577E+03  0.17300000000E+03 0. -1.
<mgrwt>
<rscale>  2 0.17648978E+03</rscale>
<asrwt>0</asrwt>
<pdfrwt beam="1">  1       21 0.67211514E-02 0.17648978E+03</pdfrwt>
<pdfrwt beam="2">  1       21 0.14412090E+00 0.17648978E+03</pdfrwt>
<totfact> 0.54327694E+04</totfact>
</mgrwt>
</event>
<event>
 4    1  0.4306168E+000  0.2201195E+03  0.7546771E-02  0.1133794E+00
         21   -1    0    0  503  502  0.00000000000E+00  0.00000000000E+00  0.95711125626E+02  0.95711125626E+02  0.00000000000E+00 0. -1.
         21   -1    0    0  501  503 -0.00000000000E+00 -0.00000000000E+00 -0.53035510781E+03  0.53035510781E+03  0.00000000000E+00 0. -1.
          6    1    1    2  501    0 -0.61226968444E+02  0.12155188149E+03 -0.28407490101E+03  0.35937605783E+03  0.17300000000E+03 0. -1.
         -6    1    1    2    0  502  0.61226968444E+02 -0.12155188149E+03 -0.15056908117E+03  0.26669017560E+03  0.17300000000E+03 0. -1.
<mgrwt>
<rscale>  2 0.22011952E+03</rscale>
<asrwt>0</asrwt>
<pdfrwt beam="1">  1       21 0.14724789E-01 0.22011952E+03</pdfrwt>
<pdfrwt beam="2">  1       21 0.81593092E-01 0.22011952E+03</pdfrwt>
<totfact> 0.52665724E+04</totfact>
</mgrwt>
</event>
<event>
 4    1  0.4306168E+000  0.1795737E+03  0.7546771E-02  0.1168216E+00
         21   -1    0    0  501  502  0.00000000000E+00  0.00000000000E+00  0.42326479605E+02  0.42326479605E+02  0.00000000000E+00 0.  1.
         21   -1    0    0  502  503 -0.00000000000E+00 -0.00000000000E+00 -0.19410829195E+04  0.19410829195E+04  0.00000000000E+00 0.  1.
          6    1    1    2  501    0 -0.26582778461E+02  0.40138018119E+02 -0.17641483282E+03  0.25173179745E+03  0.17300000000E+03 0.  1.
         -6    1    1    2    0  503  0.26582778461E+02 -0.40138018119E+02 -0.17223416071E+04  0.17316776017E+04  0.17300000000E+03 0.  1.
<mgrwt>
<rscale>  2 0.17957367E+03</rscale>
<asrwt>0</asrwt>
<pdfrwt beam="1">  1       21 0.65117651E-02 0.17957367E+03</pdfrwt>
<pdfrwt beam="2">  1       21 0.29862819E+00 0.17957367E+03</pdfrwt>
<totfact> 0.60481773E+03</totfact>
</mgrwt>
</event>
<event>
 4    1  0.4306168E+000  0.1802481E+03  0.7546771E-02  0.1167563E+00
         21   -1    0    0  501  502  0.00000000000E+00  0.00000000000E+00  0.99762750241E+02  0.99762750241E+02  0.00000000000E+00 0.  1.
         21   -1    0    0  502  503 -0.00000000000E+00 -0.00000000000E+00 -0.40459183254E+03  0.40459183254E+03  0.00000000000E+00 0.  1.
          6    1    1    2  501    0  0.50591637176E+02  0.92740990226E+00 -0.41034863341E+02  0.18486003854E+03  0.17300000000E+03 0.  1.
         -6    1    1    2    0  503 -0.50591637176E+02 -0.92740990226E+00 -0.26379421895E+03  0.31949454423E+03  0.17300000000E+03 0.  1.
<mgrwt>
<rscale>  2 0.18024809E+03</rscale>
<asrwt>0</asrwt>
<pdfrwt beam="1">  1       21 0.15348115E-01 0.18024809E+03</pdfrwt>
<pdfrwt beam="2">  1       21 0.62244899E-01 0.18024809E+03</pdfrwt>
<totfact> 0.90514752E+04</totfact>
</mgrwt>
</event>
<event>
 4    1  0.4306168E+000  0.1779175E+03  0.7546771E-02  0.1169834E+00
         21   -1    0    0  501  502  0.00000000000E+00  0.00000000000E+00  0.13301370796E+03  0.13301370796E+03  0.00000000000E+00 0.  1.
         21   -1    0    0  502  503 -0.00000000000E+00 -0.00000000000E+00 -0.24024936782E+03  0.24024936782E+03  0.00000000000E+00 0.  1.
          6    1    1    2  501    0  0.37947298964E+02 -0.16901378411E+02 -0.35480680286E+02  0.18142087191E+03  0.17300000000E+03 0. -1.
         -6    1    1    2    0  503 -0.37947298964E+02  0.16901378411E+02 -0.71754979583E+02  0.19184220387E+03  0.17300000000E+03 0. -1.
<mgrwt>
<rscale>  2 0.17791755E+03</rscale>
<asrwt>0</asrwt>
<pdfrwt beam="1">  1       21 0.20463647E-01 0.17791755E+03</pdfrwt>
<pdfrwt beam="2">  1       21 0.36961441E-01 0.17791755E+03</pdfrwt>
<totfact> 0.15685092E+05</totfact>
</mgrwt>
</event>
<event>
 4    1  0.4306168E+000  0.2019515E+03  0.7546771E-02  0.1148103E+00
         21   -1    0    0  501  502  0.00000000000E+00  0.00000000000E+00  0.20752600785E+03  0.20752600785E+03  0.00000000000E+00 0. -1.
         21   -1    0    0  502  503 -0.00000000000E+00 -0.00000000000E+00 -0.21630100744E+03  0.21630100744E+03  0.00000000000E+00 0. -1.
          6    1    1    2  501    0  0.10069281727E+03  0.26764619568E+02  0.59686333532E+02  0.21058691014E+03  0.17300000000E+03 0. -1.
         -6    1    1    2    0  503 -0.10069281727E+03 -0.26764619568E+02 -0.68461333129E+02  0.21324010515E+03  0.17300000000E+03 0. -1.
<mgrwt>
<rscale>  2 0.20195145E+03</rscale>
<asrwt>0</asrwt>
<pdfrwt beam="1">  1       21 0.31927078E-01 0.20195145E+03</pdfrwt>
<pdfrwt beam="2">  1       21 0.33277078E-01 0.20195145E+03</pdfrwt>
<totfact> 0.81716947E+04</totfact>
</mgrwt>
</event>
<event>
 4    1  0.4306168E+000  0.2607420E+03  0.7546771E-02  0.1106698E+00
         21   -1    0    0  501  502  0.00000000000E+00  0.00000000000E+00  0.91018701829E+02  0.91018701829E+02  0.00000000000E+00 0. -1.
         21   -1    0    0  502  503 -0.00000000000E+00 -0.00000000000E+00 -0.10824213042E+04  0.10824213042E+04  0.00000000000E+00 0. -1.
          6    1    1    2  501    0 -0.15736669104E+03 -0.11529573881E+03 -0.16906783680E+03  0.31075764878E+03  0.17300000000E+03 0. -1.
         -6    1    1    2    0  503  0.15736669104E+03  0.11529573881E+03 -0.82233476553E+03  0.86268235721E+03  0.17300000000E+03 0. -1.
<mgrwt>
<rscale>  2 0.26074199E+03</rscale>
<asrwt>0</asrwt>
<pdfrwt beam="1">  1       21 0.14002876E-01 0.26074199E+03</pdfrwt>
<pdfrwt beam="2">  1       21 0.16652637E+00 0.26074199E+03</pdfrwt>
<totfact> 0.95738799E+03</totfact>
</mgrwt>
</event>
<event>
 4    1  0.4306168E+000  0.1934781E+03  0.7546771E-02  0.1155361E+00
         21   -1    0    0  503  502  0.00000000000E+00  0.00000000000E+00  0.17061400062E+03  0.17061400062E+03  0.00000000000E+00 0. -1.
         21   -1    0    0  501  503 -0.00000000000E+00 -0.00000000000E+00 -0.22106538244E+03  0.22106538244E+03  0.00000000000E+00 0.  1.
          6    1    1    2  501    0  0.11965852270E+02  0.85799808818E+02 -0.42191424133E+02  0.19802501126E+03  0.17300000000E+03 0.  1.
         -6    1    1    2    0  502 -0.11965852270E+02 -0.85799808818E+02 -0.82599576850E+01  0.19365437179E+03  0.17300000000E+03 0. -1.
<mgrwt>
<rscale>  2 0.19347814E+03</rscale>
<asrwt>0</asrwt>
<pdfrwt beam="1">  1       21 0.26248308E-01 0.19347814E+03</pdfrwt>
<pdfrwt beam="2">  1       21 0.34010059E-01 0.19347814E+03</pdfrwt>
<totfact> 0.11490604E+05</totfact>
</mgrwt>
</event>
<event>
 4    1  0.4306168E+000  0.1736780E+03  0.7546771E-02  0.1174066E+00
         21   -1    0    0  501  502  0.00000000000E+00  0.00000000000E+00  0.71577000374E+03  0.71577000374E+03  0.00000000000E+00 0.  1.
         21   -1    0    0  502  503 -0.00000000000E+00 -0.00000000000E+00 -0.65734482260E+02  0.65734482260E+02  0.00000000000E+00 0.  1.
          6    1    1    2  501    0  0.64861218897E+01 -0.13891356814E+02  0.55911209485E+03  0.58546594622E+03  0.17300000000E+03 0.  1.
         -6    1    1    2    0  503 -0.64861218897E+01  0.13891356814E+02  0.90923426633E+02  0.19603853979E+03  0.17300000000E+03 0.  1.
<mgrwt>
<rscale>  2 0.17367798E+03</rscale>
<asrwt>0</asrwt>
<pdfrwt beam="1">  1       21 0.11011846E+00 0.17367798E+03</pdfrwt>
<pdfrwt beam="2">  1       21 0.10112998E-01 0.17367798E+03</pdfrwt>
<totfact> 0.52323256E+04</totfact>
</mgrwt>
</event>
<event>
 4    1  0.4306168E+000  0.2467253E+03  0.7546771E-02  0.1115392E+00
         21   -1    0    0  501  502  0.00000000000E+00  0.00000000000E+00  0.47388026666E+02  0.47388026666E+02  0.00000000000E+00 0. -1.
         21   -1    0    0  502  503 -0.00000000000E+00 -0.00000000000E+00 -0.14117691676E+04  0.14117691676E+04  0.00000000000E+00 0. -1.
          6    1    1    2  501    0  0.20998354247E+02 -0.17465237372E+03 -0.90118201364E+03  0.93434597673E+03  0.17300000000E+03 0. -1.
         -6    1    1    2    0  503 -0.20998354247E+02  0.17465237372E+03 -0.46319912730E+03  0.52481121755E+03  0.17300000000E+03 0. -1.
<mgrwt>
<rscale>  2 0.24672532E+03</rscale>
<asrwt>0</asrwt>
<pdfrwt beam="1">  1       21 0.72904665E-02 0.24672532E+03</pdfrwt>
<pdfrwt beam="2">  1       21 0.21719523E+00 0.24672532E+03</pdfrwt>
<totfact> 0.14166783E+04</totfact>
</mgrwt>
</event>
<event>
 4    1  0.4306168E+000  0.2341573E+03  0.7546771E-02  0.1123747E+00
         21   -1    0    0  501  502  0.00000000000E+00  0.00000000000E+00  0.13004820273E+03  0.13004820273E+03  0.00000000000E+00 0. -1.
         21   -1    0    0  502  503 -0.00000000000E+00 -0.00000000000E+00 -0.42381050826E+03  0.42381050826E+03  0.00000000000E+00 0.  1.
          6    1    1    2  501    0 -0.74354124611E+02  0.13918363469E+03 -0.12692638322E+03  0.26634550263E+03  0.17300000000E+03 0.  1.
         -6    1    1    2    0  503  0.74354124611E+02 -0.13918363469E+03 -0.16683592231E+03  0.28751320837E+03  0.17300000000E+03 0.  1.
<mgrwt>
<rscale>  2 0.23415725E+03</rscale>
<asrwt>0</asrwt>
<pdfrwt beam="1">  1       21 0.20007415E-01 0.23415725E+03</pdfrwt>
<pdfrwt beam="2">  1       21 0.65201618E-01 0.23415725E+03</pdfrwt>
<totfact> 0.48977945E+04</totfact>
</mgrwt>
</event>
<event>
 4    1  0.4306168E+000  0.2207010E+03  0.7546771E-02  0.1133362E+00
         21   -1    0    0  501  502  0.00000000000E+00  0.00000000000E+00  0.23203103780E+03  0.23203103780E+03  0.00000000000E+00 0. -1.
         21   -1    0    0  502  503 -0.00000000000E+00 -0.00000000000E+00 -0.25022594812E+03  0.25022594812E+03  0.00000000000E+00 0.  1.
          6    1    1    2  501    0 -0.11735807112E+03  0.70760287423E+02 -0.10586822205E+03  0.24477952441E+03  0.17300000000E+03 0.  1.
         -6    1    1    2    0  503  0.11735807112E+03 -0.70760287423E+02  0.87673311732E+02  0.23747746151E+03  0.17300000000E+03 0. -1.
<mgrwt>
<rscale>  2 0.22070101E+03</rscale>
<asrwt>0</asrwt>
<pdfrwt beam="1">  1       21 0.35697083E-01 0.22070101E+03</pdfrwt>
<pdfrwt beam="2">  1       21 0.38496300E-01 0.22070101E+03</pdfrwt>
<totfact> 0.48584824E+04</totfact>
</mgrwt>
</event>
<event>
 4    1  0.4306168E+000  0.1878189E+03  0.7546771E-02  0.1160443E+00
         21   -1    0    0  503  502  0.00000000000E+00  0.00000000000E+00  0.48276535019E+02  0.48276535019E+02  0.00000000000E+00 0. -1.
         21   -1    0    0  501  503 -0.00000000000E+00 -0.00000000000E+00 -0.73305815360E+03  0.73305815360E+03  0.00000000000E+00 0.  1.
          6    1    1    2  501    0 -0.72812772458E+02 -0.67262073531E+01 -0.36452144410E+03  0.41006319623E+03  0.17300000000E+03 0. -1.
         -6    1    1    2    0  502  0.72812772458E+02  0.67262073531E+01 -0.32026017449E+03  0.37127149239E+03  0.17300000000E+03 0.  1.
<mgrwt>
<rscale>  2 0.18781891E+03</rscale>
<asrwt>0</asrwt>
<pdfrwt beam="1">  1       21 0.74271601E-02 0.18781891E+03</pdfrwt>
<pdfrwt beam="2">  1       21 0.11277816E+00 0.18781891E+03</pdfrwt>
<totfact> 0.84116666E+04</totfact>
</mgrwt>
</event>
<event>
 4    1  0.4306168E+000  0.1980355E+03  0.7546771E-02  0.1151407E+00
         21   -1    0    0  501  502  0.00000000000E+00  0.00000000000E+00  0.19371543155E+03  0.19371543155E+03  0.00000000000E+00 0.  1.
         21   -1    0    0  502  503 -0.00000000000E+00 -0.00000000000E+00 -0.20759993247E+03  0.20759993247E+03  0.00000000000E+00 0. -1.
          6    1    1    2  501    0 -0.54095386127E+02  0.79766865865E+02  0.24655881405E+02  0.19956446622E+03  0.17300000000E+03 0. -1.
         -6    1    1    2    0  503  0.54095386127E+02 -0.79766865865E+02 -0.38540382325E+02  0.20175089779E+03  0.17300000000E+03 0. -1.
<mgrwt>
<rscale>  2 0.19803551E+03</rscale>
<asrwt>0</asrwt>
<pdfrwt beam="1">  1       21 0.29802374E-01 0.19803551E+03</pdfrwt>
<pdfrwt beam="2">  1       21 0.31938451E-01 0.19803551E+03</pdfrwt>
<totfact> 0.10154949E+05</totfact>
</mgrwt>
</event>
<event>
 4    1  0.4306168E+000  0.1745942E+03  0.7546771E-02  0.1173140E+00
         21   -1    0    0  501  502  0.00000000000E+00  0.00000000000E+00  0.72596504306E+03  0.72596504306E+03  0.00000000000E+00 0. -1.
         21   -1    0    0  502  503 -0.00000000000E+00 -0.00000000000E+00 -0.10219898856E+03  0.10219898856E+03  0.00000000000E+00 0. -1.
          6    1    1    2  501    0 -0.12615996944E+02 -0.19873903877E+02  0.62971268122E+03  0.65346858863E+03  0.17300000000E+03 0. -1.
         -6    1    1    2    0  503  0.12615996944E+02  0.19873903877E+02 -0.59466267217E+01  0.17469544300E+03  0.17300000000E+03 0. -1.
<mgrwt>
<rscale>  2 0.17459420E+03</rscale>
<asrwt>0</asrwt>
<pdfrwt beam="1">  1       21 0.11168693E+00 0.17459420E+03</pdfrwt>
<pdfrwt beam="2">  1       21 0.15722922E-01 0.17459420E+03</pdfrwt>
<totfact> 0.22915544E+04</totfact>
</mgrwt>
</event>
<event>
 4    1  0.4306168E+000  0.2086888E+03  0.7546771E-02  0.1142609E+00
         21   -1    0    0  503  502  0.00000000000E+00  0.00000000000E+00  0.93863226259E+02  0.93863226259E+02  0.00000000000E+00 0. -1.
         21   -1    0    0  501  503 -0.00000000000E+00 -0.00000000000E+00 -0.48243610146E+03  0.48243610146E+03  0.00000000000E+00 0. -1.
          6    1    1    2  501    0  0.37794961122E+02 -0.11042438380E+03 -0.13793239318E+03  0.25015265082E+03  0.17300000000E+03 0. -1.
         -6    1    1    2    0  502 -0.37794961122E+02  0.11042438380E+03 -0.25064048202E+03  0.32614667690E+03  0.17300000000E+03 0. -1.
<mgrwt>
<rscale>  2 0.20868877E+03</rscale>
<asrwt>0</asrwt>
<pdfrwt beam="1">  1       21 0.14440496E-01 0.20868877E+03</pdfrwt>
<pdfrwt beam="2">  1       21 0.74220938E-01 0.20868877E+03</pdfrwt>
<totfact> 0.67908001E+04</totfact>
</mgrwt>
</event>
<event>
 4    1  0.4306168E+000  0.1822603E+03  0.7546771E-02  0.1165633E+00
         21   -1    0    0  503  502  0.00000000000E+00  0.00000000000E+00  0.12021020500E+03  0.12021020500E+03  0.00000000000E+00 0. -1.
         21   -1    0    0  501  503 -0.00000000000E+00 -0.00000000000E+00 -0.34308155455E+03  0.34308155455E+03  0.00000000000E+00 0. -1.
          6    1    1    2  501    0 -0.56740978727E+02 -0.83827498646E+01 -0.21360633257E+03  0.28079614398E+03  0.17300000000E+03 0. -1.
         -6    1    1    2    0  502  0.56740978727E+02  0.83827498646E+01 -0.92650169780E+01  0.18249561557E+03  0.17300000000E+03 0. -1.
<mgrwt>
<rscale>  2 0.18226028E+03</rscale>
<asrwt>0</asrwt>
<pdfrwt beam="1">  1       21 0.18493878E-01 0.18226028E+03</pdfrwt>
<pdfrwt beam="2">  1       21 0.52781777E-01 0.18226028E+03</pdfrwt>
<totfact> 0.91217348E+04</totfact>
</mgrwt>
</event>
<event>
 4    1  0.4306168E+000  0.1909451E+03  0.7546771E-02  0.1157612E+00
         21   -1    0    0  503  502  0.00000000000E+00  0.00000000000E+00  0.12879277359E+03  0.12879277359E+03  0.00000000000E+00 0.  1.
         21   -1    0    0  501  503 -0.00000000000E+00 -0.00000000000E+00 -0.34121360896E+03  0.34121360896E+03  0.00000000000E+00 0.  1.
          6    1    1    2  501    0 -0.52453836335E+02  0.61478709213E+02 -0.20320204655E+03  0.27883885732E+03  0.17300000000E+03 0.  1.
         -6    1    1    2    0  502  0.52453836335E+02 -0.61478709213E+02 -0.92187888183E+01  0.19116752522E+03  0.17300000000E+03 0.  1.
<mgrwt>
<rscale>  2 0.19094511E+03</rscale>
<asrwt>0</asrwt>
<pdfrwt beam="1">  1       21 0.19814273E-01 0.19094511E+03</pdfrwt>
<pdfrwt beam="2">  1       21 0.52494402E-01 0.19094511E+03</pdfrwt>
<totfact> 0.80891514E+04</totfact>
</mgrwt>
</event>
<event>
 4    1  0.4306168E+000  0.1742460E+03  0.7546771E-02  0.1173491E+00
         21   -1    0    0  503  502  0.00000000000E+00  0.00000000000E+00  0.39874106446E+02  0.39874106446E+02  0.00000000000E+00 0. -1.
         21   -1    0    0  501  503 -0.00000000000E+00 -0.00000000000E+00 -0.12500205011E+04  0.12500205011E+04  0.00000000000E+00 0. -1.
          6    1    1    2  501    0  0.14225464988E+01 -0.20752170340E+02 -0.10082861136E+04  0.10232314318E+04  0.17300000000E+03 0. -1.
         -6    1    1    2    0  502 -0.14225464988E+01  0.20752170340E+02 -0.20186028104E+03  0.26666317570E+03  0.17300000000E+03 0. -1.
<mgrwt>
<rscale>  2 0.17424602E+03</rscale>
<asrwt>0</asrwt>
<pdfrwt beam="1">  1       21 0.61344784E-02 0.17424602E+03</pdfrwt>
<pdfrwt beam="2">  1       21 0.19231083E+00 0.17424602E+03</pdfrwt>
<totfact> 0.28971986E+04</totfact>
</mgrwt>
</event>
<event>
 4    1  0.4306168E+000  0.2283301E+03  0.7546771E-02  0.1127821E+00
         21   -1    0    0  503  502  0.00000000000E+00  0.00000000000E+00  0.58713018408E+03  0.58713018408E+03  0.00000000000E+00 0.  1.
         21   -1    0    0  501  503 -0.00000000000E+00 -0.00000000000E+00 -0.12312912221E+03  0.12312912221E+03  0.00000000000E+00 0. -1.
          6    1    1    2  501    0 -0.13414071139E+03  0.64899009897E+02  0.44472864894E+02  0.23262082377E+03  0.17300000000E+03 0. -1.
         -6    1    1    2    0  502  0.13414071139E+03 -0.64899009897E+02  0.41952819698E+03  0.47763848253E+03  0.17300000000E+03 0.  1.
<mgrwt>
<rscale>  2 0.22833005E+03</rscale>
<asrwt>0</asrwt>
<pdfrwt beam="1">  1       21 0.90327719E-01 0.22833005E+03</pdfrwt>
<pdfrwt beam="2">  1       21 0.18942942E-01 0.22833005E+03</pdfrwt>
<totfact> 0.26085369E+04</totfact>
</mgrwt>
</event>
<event>
 4    1  0.4306168E+000  0.2516322E+03  0.7546771E-02  0.1112278E+00
         21   -1    0    0  503  502  0.00000000000E+00  0.00000000000E+00  0.75662649669E+02  0.75662649669E+02  0.00000000000E+00 0.  1.
         21   -1    0    0  501  503 -0.00000000000E+00 -0.00000000000E+00 -0.92526955262E+03  0.92526955262E+03  0.00000000000E+00 0. -1.
          6    1    1    2  501    0 -0.13580179991E+03  0.12226043424E+03 -0.57950688117E+03  0.63178079107E+03  0.17300000000E+03 0. -1.
         -6    1    1    2    0  502  0.13580179991E+03 -0.12226043424E+03 -0.27010002178E+03  0.36915141122E+03  0.17300000000E+03 0.  1.
<mgrwt>
<rscale>  2 0.25163216E+03</rscale>
<asrwt>0</asrwt>
<pdfrwt beam="1">  1       21 0.11640407E-01 0.25163216E+03</pdfrwt>
<pdfrwt beam="2">  1       21 0.14234916E+00 0.25163216E+03</pdfrwt>
<totfact> 0.20501031E+04</totfact>
</mgrwt>
</event>
<event>
 4    1  0.4306168E+000  0.1877818E+03  0.7546771E-02  0.1160477E+00
         21   -1    0    0  503  502  0.00000000000E+00  0.00000000000E+00  0.75474214499E+03  0.75474214499E+03  0.00000000000E+00 0. -1.
         21   -1    0    0  501  503 -0.00000000000E+00 -0.00000000000E+00 -0.10349764067E+03  0.10349764067E+03  0.00000000000E+00 0. -1.
          6    1    1    2  501    0 -0.62531241211E+02  0.37720556948E+02  0.77886234391E+01  0.18794323398E+03  0.17300000000E+03 0. -1.
         -6    1    1    2    0  502  0.62531241211E+02 -0.37720556948E+02  0.64345588088E+03  0.67029655168E+03  0.17300000000E+03 0. -1.
<mgrwt>
<rscale>  2 0.18778178E+03</rscale>
<asrwt>0</asrwt>
<pdfrwt beam="1">  1       21 0.11611417E+00 0.18778178E+03</pdfrwt>
<pdfrwt beam="2">  1       21 0.15922714E-01 0.18778178E+03</pdfrwt>
<totfact> 0.20205856E+04</totfact>
</mgrwt>
</event>
<event>
 4    1  0.4306168E+000  0.2042108E+03  0.7546771E-02  0.1146234E+00
         21   -1    0    0  503  502  0.00000000000E+00  0.00000000000E+00  0.31562318490E+03  0.31562318490E+03  0.00000000000E+00 0. -1.
         21   -1    0    0  501  503 -0.00000000000E+00 -0.00000000000E+00 -0.32179575779E+03  0.32179575779E+03  0.00000000000E+00 0.  1.
          6    1    1    2  501    0 -0.98060391534E+02 -0.46445609157E+02 -0.24776930832E+03  0.32107890797E+03  0.17300000000E+03 0.  1.
         -6    1    1    2    0  502  0.98060391534E+02  0.46445609157E+02  0.24159673543E+03  0.31634003473E+03  0.17300000000E+03 0. -1.
<mgrwt>
<rscale>  2 0.20421076E+03</rscale>
<asrwt>0</asrwt>
<pdfrwt beam="1">  1       21 0.48557413E-01 0.20421076E+03</pdfrwt>
<pdfrwt beam="2">  1       21 0.49507040E-01 0.20421076E+03</pdfrwt>
<totfact> 0.15638655E+04</totfact>
</mgrwt>
</event>
<event>
 4    1  0.4306168E+000  0.1860773E+03  0.7546771E-02  0.1162048E+00
         21   -1    0    0  501  502  0.00000000000E+00  0.00000000000E+00  0.81801136257E+02  0.81801136257E+02  0.00000000000E+00 0. -1.
         21   -1    0    0  502  503 -0.00000000000E+00 -0.00000000000E+00 -0.49408732414E+03  0.49408732414E+03  0.00000000000E+00 0.  1.
          6    1    1    2  501    0 -0.59997890668E+02 -0.33106205803E+02 -0.97138133703E+02  0.20990613323E+03  0.17300000000E+03 0. -1.
         -6    1    1    2    0  503  0.59997890668E+02  0.33106205803E+02 -0.31514805418E+03  0.36598232717E+03  0.17300000000E+03 0.  1.
<mgrwt>
<rscale>  2 0.18607732E+03</rscale>
<asrwt>0</asrwt>
<pdfrwt beam="1">  1       21 0.12584790E-01 0.18607732E+03</pdfrwt>
<pdfrwt beam="2">  1       21 0.76013434E-01 0.18607732E+03</pdfrwt>
<totfact> 0.83367146E+04</totfact>
</mgrwt>
</event>
<event>
 4    1  0.4306168E+000  0.2356641E+03  0.7546771E-02  0.1122715E+00
         21   -1    0    0  501  502  0.00000000000E+00  0.00000000000E+00  0.20857304562E+03  0.20857304562E+03  0.00000000000E+00 0.  1.
         21   -1    0    0  502  503 -0.00000000000E+00 -0.00000000000E+00 -0.98415499407E+03  0.98415499407E+03  0.00000000000E+00 0. -1.
          6    1    1    2  501    0 -0.13140164225E+03 -0.91335480085E+02  0.12154685908E+03  0.26516259250E+03  0.17300000000E+03 0.  1.
         -6    1    1    2    0  503  0.13140164225E+03  0.91335480085E+02 -0.89712880754E+03  0.92756544719E+03  0.17300000000E+03 0. -1.
<mgrwt>
<rscale>  2 0.23566409E+03</rscale>
<asrwt>0</asrwt>
<pdfrwt beam="1">  1       21 0.32088162E-01 0.23566409E+03</pdfrwt>
<pdfrwt beam="2">  1       21 0.15140846E+00 0.23566409E+03</pdfrwt>
<totfact> 0.26256264E+03</totfact>
</mgrwt>
</event>
<event>
 4    1  0.4306168E+000  0.1784511E+03  0.7546771E-02  0.1169311E+00
         21   -1    0    0  501  502  0.00000000000E+00  0.00000000000E+00  0.79191582407E+02  0.79191582407E+02  0.00000000000E+00 0. -1.
         21   -1    0    0  502  503 -0.00000000000E+00 -0.00000000000E+00 -0.64609440014E+03  0.64609440014E+03  0.00000000000E+00 0. -1.
          6    1    1    2  501    0  0.40329760419E+02  0.17009186729E+02 -0.60607765723E+02  0.18846247179E+03  0.17300000000E+03 0. -1.
         -6    1    1    2    0  503 -0.40329760419E+02 -0.17009186729E+02 -0.50629505201E+03  0.53682351075E+03  0.17300000000E+03 0. -1.
<mgrwt>
<rscale>  2 0.17845112E+03</rscale>
<asrwt>0</asrwt>
<pdfrwt beam="1">  1       21 0.12183320E-01 0.17845112E+03</pdfrwt>
<pdfrwt beam="2">  1       21 0.99399140E-01 0.17845112E+03</pdfrwt>
<totfact> 0.47902796E+04</totfact>
</mgrwt>
</event>
<event>
 4    1  0.4306168E+000  0.2096268E+03  0.7546771E-02  0.1141862E+00
         21   -1    0    0  501  502  0.00000000000E+00  0.00000000000E+00  0.57763874567E+02  0.57763874567E+02  0.00000000000E+00 0.  1.
         21   -1    0    0  502  503 -0.00000000000E+00 -0.00000000000E+00 -0.98849241394E+03  0.98849241394E+03  0.00000000000E+00 0. -1.
          6    1    1    2  501    0 -0.88721938888E+02 -0.78376202154E+02 -0.21426184687E+03  0.29975248210E+03  0.17300000000E+03 0.  1.
         -6    1    1    2    0  503  0.88721938888E+02  0.78376202154E+02 -0.71646669251E+03  0.74650380640E+03  0.17300000000E+03 0. -1.
<mgrwt>
<rscale>  2 0.20962684E+03</rscale>
<asrwt>0</asrwt>
<pdfrwt beam="1">  1       21 0.88867509E-02 0.20962684E+03</pdfrwt>
<pdfrwt beam="2">  1       21 0.15207574E+00 0.20962684E+03</pdfrwt>
<totfact> 0.28484812E+04</totfact>
</mgrwt>
</event>
<event>
 4    1  0.4306168E+000  0.2028341E+03  0.7546771E-02  0.1147370E+00
         21   -1    0    0  501  502  0.00000000000E+00  0.00000000000E+00  0.21577270903E+03  0.21577270903E+03  0.00000000000E+00 0. -1.
         21   -1    0    0  502  503 -0.00000000000E+00 -0.00000000000E+00 -0.19089032522E+03  0.19089032522E+03  0.00000000000E+00 0. -1.
          6    1    1    2  501    0  0.47715661829E+01 -0.10578229892E+03  0.55536966974E+01  0.20291009378E+03  0.17300000000E+03 0. -1.
         -6    1    1    2    0  503 -0.47715661829E+01  0.10578229892E+03  0.19328687109E+02  0.20375294048E+03  0.17300000000E+03 0. -1.
<mgrwt>
<rscale>  2 0.20283408E+03</rscale>
<asrwt>0</asrwt>
<pdfrwt beam="1">  1       21 0.33195801E-01 0.20283408E+03</pdfrwt>
<pdfrwt beam="2">  1       21 0.29367742E-01 0.20283408E+03</pdfrwt>
<totfact> 0.96655811E+04</totfact>
</mgrwt>
</event>
<event>
 4    1  0.4306168E+000  0.2025526E+03  0.7546771E-02  0.1147603E+00
         21   -1    0    0  501  502  0.00000000000E+00  0.00000000000E+00  0.15899937567E+03  0.15899937567E+03  0.00000000000E+00 0. -1.
         21   -1    0    0  502  503 -0.00000000000E+00 -0.00000000000E+00 -0.26600203476E+03  0.26600203476E+03  0.00000000000E+00 0. -1.
          6    1    1    2  501    0  0.10240528882E+03  0.24733164502E+02 -0.16727629362E+02  0.20324218605E+03  0.17300000000E+03 0. -1.
         -6    1    1    2    0  503 -0.10240528882E+03 -0.24733164502E+02 -0.90275029733E+02  0.22175922438E+03  0.17300000000E+03 0. -1.
<mgrwt>
<rscale>  2 0.20255264E+03</rscale>
<asrwt>0</asrwt>
<pdfrwt beam="1">  1       21 0.24461443E-01 0.20255264E+03</pdfrwt>
<pdfrwt beam="2">  1       21 0.40923390E-01 0.20255264E+03</pdfrwt>
<totfact> 0.90440063E+04</totfact>
</mgrwt>
</event>
<event>
 4    1  0.4306168E+000  0.2178977E+03  0.7546771E-02  0.1135460E+00
         21   -1    0    0  503  502  0.00000000000E+00  0.00000000000E+00  0.11149722689E+03  0.11149722689E+03  0.00000000000E+00 0.  1.
         21   -1    0    0  501  503 -0.00000000000E+00 -0.00000000000E+00 -0.45911222159E+03  0.45911222159E+03  0.00000000000E+00 0.  1.
          6    1    1    2  501    0  0.39524619723E+02 -0.12644449630E+03 -0.96996400463E+02  0.23851144189E+03  0.17300000000E+03 0.  1.
         -6    1    1    2    0  502 -0.39524619723E+02  0.12644449630E+03 -0.25061859424E+03  0.33209800660E+03  0.17300000000E+03 0.  1.
<mgrwt>
<rscale>  2 0.21789770E+03</rscale>
<asrwt>0</asrwt>
<pdfrwt beam="1">  1       21 0.17153420E-01 0.21789770E+03</pdfrwt>
<pdfrwt beam="2">  1       21 0.70632649E-01 0.21789770E+03</pdfrwt>
<totfact> 0.55079548E+04</totfact>
</mgrwt>
</event>
<event>
 4    1  0.4306168E+000  0.1861117E+03  0.7546771E-02  0.1162016E+00
         21   -1    0    0  503  502  0.00000000000E+00  0.00000000000E+00  0.25858343972E+03  0.25858343972E+03  0.00000000000E+00 0. -1.
         21   -1    0    0  501  503 -0.00000000000E+00 -0.00000000000E+00 -0.95898190363E+03  0.95898190363E+03  0.00000000000E+00 0. -1.
          6    1    1    2  501    0  0.24102171314E+02 -0.64246913091E+02 -0.91486584894E+03  0.93360436056E+03  0.17300000000E+03 0. -1.
         -6    1    1    2    0  502 -0.24102171314E+02  0.64246913091E+02  0.21446738503E+03  0.28396098279E+03  0.17300000000E+03 0. -1.
<mgrwt>
<rscale>  2 0.18611174E+03</rscale>
<asrwt>0</asrwt>
<pdfrwt beam="1">  1       21 0.39782068E-01 0.18611174E+03</pdfrwt>
<pdfrwt beam="2">  1       21 0.14753568E+00 0.18611174E+03</pdfrwt>
<totfact> 0.19135301E+03</totfact>
</mgrwt>
</event>
<event>
 4    1  0.4306168E+000  0.1828139E+03  0.7546771E-02  0.1165107E+00
         21   -1    0    0  501  502  0.00000000000E+00  0.00000000000E+00  0.86685111084E+02  0.86685111084E+02  0.00000000000E+00 0. -1.
         21   -1    0    0  502  503 -0.00000000000E+00 -0.00000000000E+00 -0.56664327304E+03  0.56664327304E+03  0.00000000000E+00 0. -1.
          6    1    1    2  501    0 -0.53907476050E+02  0.24205617168E+02 -0.55305415765E+02  0.19099637926E+03  0.17300000000E+03 0. -1.
         -6    1    1    2    0  503  0.53907476050E+02 -0.24205617168E+02 -0.42465274620E+03  0.46233200487E+03  0.17300000000E+03 0. -1.
<mgrwt>
<rscale>  2 0.18281392E+03</rscale>
<asrwt>0</asrwt>
<pdfrwt beam="1">  1       21 0.13336171E-01 0.18281392E+03</pdfrwt>
<pdfrwt beam="2">  1       21 0.87175889E-01 0.18281392E+03</pdfrwt>
<totfact> 0.55149505E+04</totfact>
</mgrwt>
</event>
<event>
 4    1  0.4306168E+000  0.2549386E+03  0.7546771E-02  0.1110223E+00
         21   -1    0    0  501  502  0.00000000000E+00  0.00000000000E+00  0.74389681076E+03  0.74389681076E+03  0.00000000000E+00 0. -1.
         21   -1    0    0  502  503 -0.00000000000E+00 -0.00000000000E+00 -0.12995513506E+03  0.12995513506E+03  0.00000000000E+00 0. -1.
          6    1    1    2  501    0 -0.61838342374E+02 -0.17675044429E+03  0.55708830462E+03  0.61265086247E+03  0.17300000000E+03 0. -1.
         -6    1    1    2    0  503  0.61838342374E+02  0.17675044429E+03  0.56853371088E+02  0.26120108336E+03  0.17300000000E+03 0. -1.
<mgrwt>
<rscale>  2 0.25493862E+03</rscale>
<asrwt>0</asrwt>
<pdfrwt beam="1">  1       21 0.11444566E+00 0.25493862E+03</pdfrwt>
<pdfrwt beam="2">  1       21 0.19993098E-01 0.25493862E+03</pdfrwt>
<totfact> 0.13189436E+04</totfact>
</mgrwt>
</event>
<event>
 4    1  0.4306168E+000  0.1956030E+03  0.7546771E-02  0.1153503E+00
         21   -1    0    0  503  502  0.00000000000E+00  0.00000000000E+00  0.24348701675E+03  0.24348701675E+03  0.00000000000E+00 0. -1.
         21   -1    0    0  501  503 -0.00000000000E+00 -0.00000000000E+00 -0.18321125877E+03  0.18321125877E+03  0.00000000000E+00 0. -1.
          6    1    1    2  501    0  0.46934981160E+02  0.78285689111E+02 -0.50349965881E+02  0.20197935697E+03  0.17300000000E+03 0. -1.
         -6    1    1    2    0  502 -0.46934981160E+02 -0.78285689111E+02  0.11062572386E+03  0.22471891855E+03  0.17300000000E+03 0. -1.
<mgrwt>
<rscale>  2 0.19560302E+03</rscale>
<asrwt>0</asrwt>
<pdfrwt beam="1">  1       21 0.37459541E-01 0.19560302E+03</pdfrwt>
<pdfrwt beam="2">  1       21 0.28186347E-01 0.19560302E+03</pdfrwt>
<totfact> 0.82569947E+04</totfact>
</mgrwt>
</event>
<event>
 4    1  0.4306168E+000  0.2146915E+03  0.7546771E-02  0.1137904E+00
         21   -1    0    0  503  502  0.00000000000E+00  0.00000000000E+00  0.50833904271E+03  0.50833904271E+03  0.00000000000E+00 0.  1.
         21   -1    0    0  501  503 -0.00000000000E+00 -0.00000000000E+00 -0.90678208927E+02  0.90678208927E+02  0.00000000000E+00 0.  1.
          6    1    1    2  501    0  0.65749328765E+02  0.10881388148E+03  0.21118088815E+03  0.30114747642E+03  0.17300000000E+03 0.  1.
         -6    1    1    2    0  502 -0.65749328765E+02 -0.10881388148E+03  0.20647994563E+03  0.29786977521E+03  0.17300000000E+03 0.  1.
<mgrwt>
<rscale>  2 0.21469149E+03</rscale>
<asrwt>0</asrwt>
<pdfrwt beam="1">  1       21 0.78206005E-01 0.21469149E+03</pdfrwt>
<pdfrwt beam="2">  1       21 0.13950494E-01 0.21469149E+03</pdfrwt>
<totfact> 0.64122674E+04</totfact>
</mgrwt>
</event>
<event>
 4    1  0.4306168E+000  0.1962136E+03  0.7546771E-02  0.1152973E+00
         21   -1    0    0  503  502  0.00000000000E+00  0.00000000000E+00  0.97368632601E+03  0.97368632601E+03  0.00000000000E+00 0.  1.
         21   -1    0    0  501  503 -0.00000000000E+00 -0.00000000000E+00 -0.83354513692E+02  0.83354513692E+02  0.00000000000E+00 0.  1.
          6    1    1    2  501    0  0.87640451992E+02  0.29831754548E+02  0.61983939130E+02  0.20577121061E+03  0.17300000000E+03 0.  1.
         -6    1    1    2    0  502 -0.87640451992E+02 -0.29831754548E+02  0.82834787319E+03  0.85126962910E+03  0.17300000000E+03 0.  1.
<mgrwt>
<rscale>  2 0.19621361E+03</rscale>
<asrwt>0</asrwt>
<pdfrwt beam="1">  1       21 0.14979789E+00 0.19621361E+03</pdfrwt>
<pdfrwt beam="2">  1       21 0.12823772E-01 0.19621361E+03</pdfrwt>
<totfact> 0.15587519E+04</totfact>
</mgrwt>
</event>
<event>
 4    1  0.4306168E+000  0.2611589E+03  0.7546771E-02  0.1106449E+00
         21   -1    0    0  501  502  0.00000000000E+00  0.00000000000E+00  0.25467641905E+03  0.25467641905E+03  0.00000000000E+00 0.  1.
         21   -1    0    0  502  503 -0.00000000000E+00 -0.00000000000E+00 -0.32266056980E+03  0.32266056980E+03  0.00000000000E+00 0. -1.
          6    1    1    2  501    0  0.98124629046E+02  0.16925280246E+03  0.85031115320E+02  0.27465295290E+03  0.17300000000E+03 0.  1.
         -6    1    1    2    0  503 -0.98124629046E+02 -0.16925280246E+03 -0.15301526608E+03  0.30268403595E+03  0.17300000000E+03 0. -1.
<mgrwt>
<rscale>  2 0.26115887E+03</rscale>
<asrwt>0</asrwt>
<pdfrwt beam="1">  1       21 0.39180988E-01 0.26115887E+03</pdfrwt>
<pdfrwt beam="2">  1       21 0.49640088E-01 0.26115887E+03</pdfrwt>
<totfact> 0.23451349E+04</totfact>
</mgrwt>
</event>
<event>
 4    1  0.4306168E+000  0.2566410E+03  0.7546771E-02  0.1109178E+00
         21   -1    0    0  503  502  0.00000000000E+00  0.00000000000E+00  0.18586022574E+03  0.18586022574E+03  0.00000000000E+00 0. -1.
         21   -1    0    0  501  503 -0.00000000000E+00 -0.00000000000E+00 -0.36775602030E+03  0.36775602030E+03  0.00000000000E+00 0.  1.
          6    1    1    2  501    0 -0.16518987321E+03  0.92994140776E+02 -0.38150834423E+02  0.25946115431E+03  0.17300000000E+03 0.  1.
         -6    1    1    2    0  502  0.16518987321E+03 -0.92994140776E+02 -0.14374496013E+03  0.29415509173E+03  0.17300000000E+03 0.  1.
<mgrwt>
<rscale>  2 0.25664100E+03</rscale>
<asrwt>0</asrwt>
<pdfrwt beam="1">  1       21 0.28593881E-01 0.25664100E+03</pdfrwt>
<pdfrwt beam="2">  1       21 0.56577849E-01 0.25664100E+03</pdfrwt>
<totfact> 0.33318952E+04</totfact>
</mgrwt>
</event>
<event>
 4    1  0.4306168E+000  0.2531924E+03  0.7546771E-02  0.1111304E+00
         21   -1    0    0  503  502  0.00000000000E+00  0.00000000000E+00  0.15717741490E+03  0.15717741490E+03  0.00000000000E+00 0. -1.
         21   -1    0    0  501  503 -0.00000000000E+00 -0.00000000000E+00 -0.47798569170E+03  0.47798569170E+03  0.00000000000E+00 0.  1.
          6    1    1    2  501    0  0.14387123662E+03  0.11609680135E+03 -0.28204682791E+03  0.37902086110E+03  0.17300000000E+03 0.  1.
         -6    1    1    2    0  502 -0.14387123662E+03 -0.11609680135E+03 -0.38761448892E+02  0.25614224550E+03  0.17300000000E+03 0. -1.
<mgrwt>
<rscale>  2 0.25319242E+03</rscale>
<asrwt>0</asrwt>
<pdfrwt beam="1">  1       21 0.24181141E-01 0.25319242E+03</pdfrwt>
<pdfrwt beam="2">  1       21 0.73536258E-01 0.25319242E+03</pdfrwt>
<totfact> 0.25984138E+04</totfact>
</mgrwt>
</event>
<event>
 4    1  0.4306168E+000  0.2217381E+03  0.7546771E-02  0.1132594E+00
         21   -1    0    0  503  502  0.00000000000E+00  0.00000000000E+00  0.45712810964E+02  0.45712810964E+02  0.00000000000E+00 0. -1.
         21   -1    0    0  501  503 -0.00000000000E+00 -0.00000000000E+00 -0.11187578133E+04  0.11187578133E+04  0.00000000000E+00 0. -1.
          6    1    1    2  501    0 -0.93353164527E+02  0.10258650376E+03 -0.65090478079E+03  0.68763714104E+03  0.17300000000E+03 0. -1.
         -6    1    1    2    0  502  0.93353164527E+02 -0.10258650376E+03 -0.42214022156E+03  0.47683348324E+03  0.17300000000E+03 0. -1.
<mgrwt>
<rscale>  2 0.22173814E+03</rscale>
<asrwt>0</asrwt>
<pdfrwt beam="1">  1       21 0.70327405E-02 0.22173814E+03</pdfrwt>
<pdfrwt beam="2">  1       21 0.17211658E+00 0.22173814E+03</pdfrwt>
<totfact> 0.30375664E+04</totfact>
</mgrwt>
</event>
<event>
 4    1  0.4306168E+000  0.1800370E+03  0.7546771E-02  0.1167767E+00
         21   -1    0    0  503  502  0.00000000000E+00  0.00000000000E+00  0.35484733853E+03  0.35484733853E+03  0.00000000000E+00 0. -1.
         21   -1    0    0  501  503 -0.00000000000E+00 -0.00000000000E+00 -0.91452717338E+02  0.91452717338E+02  0.00000000000E+00 0. -1.
          6    1    1    2  501    0  0.49434663894E+02 -0.63668147556E+01  0.12401805998E+03  0.21861793505E+03  0.17300000000E+03 0. -1.
         -6    1    1    2    0  502 -0.49434663894E+02  0.63668147556E+01  0.13937656121E+03  0.22768212082E+03  0.17300000000E+03 0. -1.
<mgrwt>
<rscale>  2 0.18003700E+03</rscale>
<asrwt>0</asrwt>
<pdfrwt beam="1">  1       21 0.54591898E-01 0.18003700E+03</pdfrwt>
<pdfrwt beam="2">  1       21 0.14069649E-01 0.18003700E+03</pdfrwt>
<totfact> 0.14022573E+05</totfact>
</mgrwt>
</event>
<event>
 4    1  0.4306168E+000  0.2093812E+03  0.7546771E-02  0.1142057E+00
         21   -1    0    0  501  502  0.00000000000E+00  0.00000000000E+00  0.26811926821E+03  0.26811926821E+03  0.00000000000E+00 0. -1.
         21   -1    0    0  502  503 -0.00000000000E+00 -0.00000000000E+00 -0.39916389155E+03  0.39916389155E+03  0.00000000000E+00 0.  1.
          6    1    1    2  501    0 -0.10988409846E+03  0.42859698417E+02  0.19083214128E+03  0.28329732612E+03  0.17300000000E+03 0. -1.
         -6    1    1    2    0  503  0.10988409846E+03 -0.42859698417E+02 -0.32187676462E+03  0.38398583365E+03  0.17300000000E+03 0.  1.
<mgrwt>
<rscale>  2 0.20938116E+03</rscale>
<asrwt>0</asrwt>
<pdfrwt beam="1">  1       21 0.41249118E-01 0.20938116E+03</pdfrwt>
<pdfrwt beam="2">  1       21 0.61409830E-01 0.20938116E+03</pdfrwt>
<totfact> 0.13802185E+04</totfact>
</mgrwt>
</event>
<event>
 4    1  0.4306168E+000  0.1844528E+03  0.7546771E-02  0.1163562E+00
         21   -1    0    0  503  502  0.00000000000E+00  0.00000000000E+00  0.87928079242E+02  0.87928079242E+02  0.00000000000E+00 0.  1.
         21   -1    0    0  501  503 -0.00000000000E+00 -0.00000000000E+00 -0.41603976576E+03  0.41603976576E+03  0.00000000000E+00 0. -1.
          6    1    1    2  501    0  0.63982510417E+02 -0.29925575840E+00 -0.23069868899E+03  0.29537219960E+03  0.17300000000E+03 0. -1.
         -6    1    1    2    0  502 -0.63982510417E+02  0.29925575840E+00 -0.97412997524E+02  0.20859564540E+03  0.17300000000E+03 0.  1.
<mgrwt>
<rscale>  2 0.18445284E+03</rscale>
<asrwt>0</asrwt>
<pdfrwt beam="1">  1       21 0.13527397E-01 0.18445284E+03</pdfrwt>
<pdfrwt beam="2">  1       21 0.64006118E-01 0.18445284E+03</pdfrwt>
<totfact> 0.10695856E+05</totfact>
</mgrwt>
</event>
<event>
 4    1  0.4306168E+000  0.1805291E+03  0.7546771E-02  0.1167292E+00
         21   -1    0    0  501  502  0.00000000000E+00  0.00000000000E+00  0.26326406011E+03  0.26326406011E+03  0.00000000000E+00 0. -1.
         21   -1    0    0  502  503 -0.00000000000E+00 -0.00000000000E+00 -0.17783384559E+03  0.17783384559E+03  0.00000000000E+00 0. -1.
          6    1    1    2  501    0 -0.15132807263E+02  0.49322876810E+02  0.16429205130E+03  0.24409552670E+03  0.17300000000E+03 0. -1.
         -6    1    1    2    0  503  0.15132807263E+02 -0.49322876810E+02 -0.78861836778E+02  0.19700237900E+03  0.17300000000E+03 0. -1.
<mgrwt>
<rscale>  2 0.18052908E+03</rscale>
<asrwt>0</asrwt>
<pdfrwt beam="1">  1       21 0.40502163E-01 0.18052908E+03</pdfrwt>
<pdfrwt beam="2">  1       21 0.27359053E-01 0.18052908E+03</pdfrwt>
<totfact> 0.75208977E+04</totfact>
</mgrwt>
</event>
<event>
 4    1  0.4306168E+000  0.1763710E+03  0.7546771E-02  0.1171362E+00
         21   -1    0    0  501  502  0.00000000000E+00  0.00000000000E+00  0.10248529175E+03  0.10248529175E+03  0.00000000000E+00 0.  1.
         21   -1    0    0  502  503 -0.00000000000E+00 -0.00000000000E+00 -0.31339964748E+03  0.31339964748E+03  0.00000000000E+00 0.  1.
          6    1    1    2  501    0 -0.31004561792E+02  0.14712442529E+02 -0.68544274062E+02  0.18922224056E+03  0.17300000000E+03 0.  1.
         -6    1    1    2    0  503  0.31004561792E+02 -0.14712442529E+02 -0.14237008167E+03  0.22666269868E+03  0.17300000000E+03 0.  1.
<mgrwt>
<rscale>  2 0.17637103E+03</rscale>
<asrwt>0</asrwt>
<pdfrwt beam="1">  1       21 0.15766968E-01 0.17637103E+03</pdfrwt>
<pdfrwt beam="2">  1       21 0.48215329E-01 0.17637103E+03</pdfrwt>
<totfact> 0.14798217E+05</totfact>
</mgrwt>
</event>
<event>
 4    1  0.4306168E+000  0.2551639E+03  0.7546771E-02  0.1110084E+00
         21   -1    0    0  501  502  0.00000000000E+00  0.00000000000E+00  0.49875388868E+03  0.49875388868E+03  0.00000000000E+00 0.  1.
         21   -1    0    0  502  503 -0.00000000000E+00 -0.00000000000E+00 -0.13361804566E+03  0.13361804566E+03  0.00000000000E+00 0. -1.
          6    1    1    2  501    0  0.18730700229E+03 -0.97825089494E+01  0.13459825222E+03  0.28848795484E+03  0.17300000000E+03 0. -1.
         -6    1    1    2    0  503 -0.18730700229E+03  0.97825089494E+01  0.23053759080E+03  0.34388397951E+03  0.17300000000E+03 0. -1.
<mgrwt>
<rscale>  2 0.25516389E+03</rscale>
<asrwt>0</asrwt>
<pdfrwt beam="1">  1       21 0.76731366E-01 0.25516389E+03</pdfrwt>
<pdfrwt beam="2">  1       21 0.20556623E-01 0.25516389E+03</pdfrwt>
<totfact> 0.32118426E+04</totfact>
</mgrwt>
</event>
<event>
 4    1  0.4306168E+000  0.2872515E+03  0.7546771E-02  0.1091793E+00
         21   -1    0    0  501  502  0.00000000000E+00  0.00000000000E+00  0.61604524830E+02  0.61604524830E+02  0.00000000000E+00 0.  1.
         21   -1    0    0  502  503 -0.00000000000E+00 -0.00000000000E+00 -0.13397968302E+04  0.13397968302E+04  0.00000000000E+00 0. -1.
          6    1    1    2  501    0  0.16600779500E+02  0.22871131487E+03 -0.65106841364E+03  0.71162035571E+03  0.17300000000E+03 0. -1.
         -6    1    1    2    0  503 -0.16600779500E+02 -0.22871131487E+03 -0.62712389169E+03  0.68978099927E+03  0.17300000000E+03 0.  1.
<mgrwt>
<rscale>  2 0.28725155E+03</rscale>
<asrwt>0</asrwt>
<pdfrwt beam="1">  1       21 0.94776192E-02 0.28725155E+03</pdfrwt>
<pdfrwt beam="2">  1       21 0.20612259E+00 0.28725155E+03</pdfrwt>
<totfact> 0.10238552E+04</totfact>
</mgrwt>
</event>
<event>
 4    1  0.4306168E+000  0.1768559E+03  0.7546771E-02  0.1170881E+00
         21   -1    0    0  501  502  0.00000000000E+00  0.00000000000E+00  0.85120627697E+03  0.85120627697E+03  0.00000000000E+00 0.  1.
         21   -1    0    0  502  503 -0.00000000000E+00 -0.00000000000E+00 -0.36771183306E+02  0.36771183306E+02  0.00000000000E+00 0.  1.
          6    1    1    2  501    0 -0.33446585751E+02  0.15177237398E+02  0.41894547157E+03  0.45474534718E+03  0.17300000000E+03 0. -1.
         -6    1    1    2    0  503  0.33446585751E+02 -0.15177237398E+02  0.39548962210E+03  0.43323211310E+03  0.17300000000E+03 0. -1.
<mgrwt>
<rscale>  2 0.17685594E+03</rscale>
<asrwt>0</asrwt>
<pdfrwt beam="1">  1       21 0.13095480E+00 0.17685594E+03</pdfrwt>
<pdfrwt beam="2">  1       21 0.56571058E-02 0.17685594E+03</pdfrwt>
<totfact> 0.93195317E+04</totfact>
</mgrwt>
</event>
<event>
 4    1  0.4306168E+000  0.2047304E+03  0.7546771E-02  0.1145808E+00
         21   -1    0    0  501  502  0.00000000000E+00  0.00000000000E+00  0.14225925865E+04  0.14225925865E+04  0.00000000000E+00 0.  1.
         21   -1    0    0  502  503 -0.00000000000E+00 -0.00000000000E+00 -0.56773455466E+02  0.56773455466E+02  0.00000000000E+00 0.  1.
          6    1    1    2  501    0 -0.91381686624E+02  0.60290351137E+02  0.11959287194E+04  0.12133260242E+04  0.17300000000E+03 0.  1.
         -6    1    1    2    0  503  0.91381686624E+02 -0.60290351137E+02  0.16989041162E+03  0.26604001776E+03  0.17300000000E+03 0.  1.
<mgrwt>
<rscale>  2 0.20473041E+03</rscale>
<asrwt>0</asrwt>
<pdfrwt beam="1">  1       21 0.21886037E+00 0.20473041E+03</pdfrwt>
<pdfrwt beam="2">  1       21 0.87343788E-02 0.20473041E+03</pdfrwt>
<totfact> 0.10415020E+04</totfact>
</mgrwt>
</event>
<event>
 4    1  0.4306168E+000  0.2247515E+03  0.7546771E-02  0.1130389E+00
         21   -1    0    0  501  502  0.00000000000E+00  0.00000000000E+00  0.97359324568E+02  0.97359324568E+02  0.00000000000E+00 0.  1.
         21   -1    0    0  502  503 -0.00000000000E+00 -0.00000000000E+00 -0.51954655168E+03  0.51954655168E+03  0.00000000000E+00 0. -1.
          6    1    1    2  501    0 -0.11412780853E+03  0.86943006740E+02 -0.22252370823E+03  0.31627526591E+03  0.17300000000E+03 0. -1.
         -6    1    1    2    0  503  0.11412780853E+03 -0.86943006740E+02 -0.19966351889E+03  0.30063061034E+03  0.17300000000E+03 0.  1.
<mgrwt>
<rscale>  2 0.22475151E+03</rscale>
<asrwt>0</asrwt>
<pdfrwt beam="1">  1       21 0.14978358E-01 0.22475151E+03</pdfrwt>
<pdfrwt beam="2">  1       21 0.79930239E-01 0.22475151E+03</pdfrwt>
<totfact> 0.53384457E+04</totfact>
</mgrwt>
</event>
<event>
 4    1  0.4306168E+000  0.2102799E+03  0.7546771E-02  0.1141345E+00
         21   -1    0    0  503  502  0.00000000000E+00  0.00000000000E+00  0.45926639701E+03  0.45926639701E+03  0.00000000000E+00 0. -1.
         21   -1    0    0  501  503 -0.00000000000E+00 -0.00000000000E+00 -0.11754852957E+03  0.11754852957E+03  0.00000000000E+00 0.  1.
          6    1    1    2  501    0  0.56617522102E+02  0.10527622872E+03  0.48177556234E+02  0.21572831309E+03  0.17300000000E+03 0.  1.
         -6    1    1    2    0  502 -0.56617522102E+02 -0.10527622872E+03  0.29354031120E+03  0.36108661349E+03  0.17300000000E+03 0. -1.
<mgrwt>
<rscale>  2 0.21027988E+03</rscale>
<asrwt>0</asrwt>
<pdfrwt beam="1">  1       21 0.70656368E-01 0.21027988E+03</pdfrwt>
<pdfrwt beam="2">  1       21 0.18084389E-01 0.21027988E+03</pdfrwt>
<totfact> 0.50087997E+04</totfact>
</mgrwt>
</event>
<event>
 4    1  0.4306168E+000  0.1765268E+03  0.7546771E-02  0.1171207E+00
         21   -1    0    0  501  502  0.00000000000E+00  0.00000000000E+00  0.13240454669E+03  0.13240454669E+03  0.00000000000E+00 0. -1.
         21   -1    0    0  502  503 -0.00000000000E+00 -0.00000000000E+00 -0.31175684517E+03  0.31175684517E+03  0.00000000000E+00 0. -1.
          6    1    1    2  501    0  0.24813150787E+02  0.24840110622E+02  0.20265491993E+02  0.17768627891E+03  0.17300000000E+03 0.  1.
         -6    1    1    2    0  503 -0.24813150787E+02 -0.24840110622E+02 -0.19961779047E+03  0.26647511295E+03  0.17300000000E+03 0.  1.
<mgrwt>
<rscale>  2 0.17652684E+03</rscale>
<asrwt>0</asrwt>
<pdfrwt beam="1">  1       21 0.20369930E-01 0.17652684E+03</pdfrwt>
<pdfrwt beam="2">  1       21 0.47962591E-01 0.17652684E+03</pdfrwt>
<totfact> 0.93255900E+04</totfact>
</mgrwt>
</event>
<event>
 4    1  0.4306168E+000  0.3312319E+03  0.7546771E-02  0.1070593E+00
         21   -1    0    0  501  502  0.00000000000E+00  0.00000000000E+00  0.14546841770E+03  0.14546841770E+03  0.00000000000E+00 0.  1.
         21   -1    0    0  502  503 -0.00000000000E+00 -0.00000000000E+00 -0.83724682439E+03  0.83724682439E+03  0.00000000000E+00 0.  1.
          6    1    1    2  501    0  0.18377072343E+03 -0.21450852234E+03 -0.50062508494E+03  0.60028331696E+03  0.17300000000E+03 0.  1.
         -6    1    1    2    0  503 -0.18377072343E+03  0.21450852234E+03 -0.19115332175E+03  0.38243192513E+03  0.17300000000E+03 0.  1.
<mgrwt>
<rscale>  2 0.33123192E+03</rscale>
<asrwt>0</asrwt>
<pdfrwt beam="1">  1       21 0.22379757E-01 0.33123192E+03</pdfrwt>
<pdfrwt beam="2">  1       21 0.12880720E+00 0.33123192E+03</pdfrwt>
<totfact> 0.76217311E+03</totfact>
</mgrwt>
</event>
<event>
 4    1  0.4306168E+000  0.2008295E+03  0.7546771E-02  0.1149041E+00
         21   -1    0    0  501  502  0.00000000000E+00  0.00000000000E+00  0.68698180195E+02  0.68698180195E+02  0.00000000000E+00 0. -1.
         21   -1    0    0  502  503 -0.00000000000E+00 -0.00000000000E+00 -0.71928605999E+03  0.71928605999E+03  0.00000000000E+00 0. -1.
          6    1    1    2  501    0 -0.60425225681E+02 -0.82172154095E+02 -0.15639183508E+03  0.25454052111E+03  0.17300000000E+03 0. -1.
         -6    1    1    2    0  503  0.60425225681E+02  0.82172154095E+02 -0.49419604472E+03  0.53344371908E+03  0.17300000000E+03 0. -1.
<mgrwt>
<rscale>  2 0.20082946E+03</rscale>
<asrwt>0</asrwt>
<pdfrwt beam="1">  1       21 0.10568951E-01 0.20082946E+03</pdfrwt>
<pdfrwt beam="2">  1       21 0.11065940E+00 0.20082946E+03</pdfrwt>
<totfact> 0.47156667E+04</totfact>
</mgrwt>
</event>
<event>
 4    1  0.4306168E+000  0.1828753E+03  0.7546771E-02  0.1165049E+00
         21   -1    0    0  501  502  0.00000000000E+00  0.00000000000E+00  0.24533484944E+03  0.24533484944E+03  0.00000000000E+00 0. -1.
         21   -1    0    0  502  503 -0.00000000000E+00 -0.00000000000E+00 -0.13635916217E+03  0.13635916217E+03  0.00000000000E+00 0. -1.
          6    1    1    2  501    0 -0.23438427588E+02  0.54452008654E+02  0.57832260296E+02  0.19180185470E+03  0.17300000000E+03 0. -1.
         -6    1    1    2    0  503  0.23438427588E+02 -0.54452008654E+02  0.51143426970E+02  0.18989215691E+03  0.17300000000E+03 0. -1.
<mgrwt>
<rscale>  2 0.18287532E+03</rscale>
<asrwt>0</asrwt>
<pdfrwt beam="1">  1       21 0.37743823E-01 0.18287532E+03</pdfrwt>
<pdfrwt beam="2">  1       21 0.20978333E-01 0.18287532E+03</pdfrwt>
<totfact> 0.14335936E+05</totfact>
</mgrwt>
</event>
<event>
 4    1  0.4306168E+000  0.1800763E+03  0.7546771E-02  0.1167729E+00
         21   -1    0    0  501  502  0.00000000000E+00  0.00000000000E+00  0.18737132800E+02  0.18737132800E+02  0.00000000000E+00 0.  1.
         21   -1    0    0  502  503 -0.00000000000E+00 -0.00000000000E+00 -0.20012284986E+04  0.20012284986E+04  0.00000000000E+00 0.  1.
          6    1    1    2  501    0 -0.49777929602E+02  0.45425975151E+01 -0.61987315229E+03  0.64549996313E+03  0.17300000000E+03 0.  1.
         -6    1    1    2    0  503  0.49777929602E+02 -0.45425975151E+01 -0.13626182135E+04  0.13744656682E+04  0.17300000000E+03 0.  1.
<mgrwt>
<rscale>  2 0.18007631E+03</rscale>
<asrwt>0</asrwt>
<pdfrwt beam="1">  1       21 0.28826375E-02 0.18007631E+03</pdfrwt>
<pdfrwt beam="2">  1       21 0.30788113E+00 0.18007631E+03</pdfrwt>
<totfact> 0.21057601E+04</totfact>
</mgrwt>
</event>
<event>
 4    1  0.4306168E+000  0.2888146E+03  0.7546771E-02  0.1090970E+00
         21   -1    0    0  503  502  0.00000000000E+00  0.00000000000E+00  0.82941176604E+02  0.82941176604E+02  0.00000000000E+00 0. -1.
         21   -1    0    0  501  503 -0.00000000000E+00 -0.00000000000E+00 -0.10914741398E+04  0.10914741398E+04  0.00000000000E+00 0. -1.
          6    1    1    2  501    0 -0.15606480713E+03 -0.17067120792E+03 -0.66887976697E+03  0.72856985108E+03  0.17300000000E+03 0. -1.
         -6    1    1    2    0  502  0.15606480713E+03  0.17067120792E+03 -0.33965319618E+03  0.44584546528E+03  0.17300000000E+03 0. -1.
<mgrwt>
<rscale>  2 0.28881462E+03</rscale>
<asrwt>0</asrwt>
<pdfrwt beam="1">  1       21 0.12760180E-01 0.28881462E+03</pdfrwt>
<pdfrwt beam="2">  1       21 0.16791911E+00 0.28881462E+03</pdfrwt>
<totfact> 0.10904311E+04</totfact>
</mgrwt>
</event>
<event>
 4    1  0.4306168E+000  0.1796511E+03  0.7546771E-02  0.1168141E+00
         21   -1    0    0  503  502  0.00000000000E+00  0.00000000000E+00  0.10428578430E+03  0.10428578430E+03  0.00000000000E+00 0.  1.
         21   -1    0    0  501  503 -0.00000000000E+00 -0.00000000000E+00 -0.43890952892E+03  0.43890952892E+03  0.00000000000E+00 0.  1.
          6    1    1    2  501    0  0.38966551774E+02  0.28759571453E+02 -0.31479859906E+03  0.36245367025E+03  0.17300000000E+03 0. -1.
         -6    1    1    2    0  502 -0.38966551774E+02 -0.28759571453E+02 -0.19825145560E+02  0.18074164297E+03  0.17300000000E+03 0. -1.
<mgrwt>
<rscale>  2 0.17965106E+03</rscale>
<asrwt>0</asrwt>
<pdfrwt beam="1">  1       21 0.16043967E-01 0.17965106E+03</pdfrwt>
<pdfrwt beam="2">  1       21 0.67524543E-01 0.17965106E+03</pdfrwt>
<totfact> 0.69970526E+04</totfact>
</mgrwt>
</event>
<event>
 4    1  0.4306168E+000  0.2845353E+03  0.7546771E-02  0.1093237E+00
         21   -1    0    0  501  502  0.00000000000E+00  0.00000000000E+00  0.29552801842E+03  0.29552801842E+03  0.00000000000E+00 0.  1.
         21   -1    0    0  502  503 -0.00000000000E+00 -0.00000000000E+00 -0.39561223526E+03  0.39561223526E+03  0.00000000000E+00 0. -1.
          6    1    1    2  501    0  0.21236391203E+03  0.77025470755E+02  0.14159362405E+03  0.31781930188E+03  0.17300000000E+03 0.  1.
         -6    1    1    2    0  503 -0.21236391203E+03 -0.77025470755E+02 -0.24167784088E+03  0.37332095180E+03  0.17300000000E+03 0. -1.
<mgrwt>
<rscale>  2 0.28453533E+03</rscale>
<asrwt>0</asrwt>
<pdfrwt beam="1">  1       21 0.45465849E-01 0.28453533E+03</pdfrwt>
<pdfrwt beam="2">  1       21 0.60863421E-01 0.28453533E+03</pdfrwt>
<totfact> 0.11063629E+04</totfact>
</mgrwt>
</event>
<event>
 4    1  0.4306168E+000  0.1985607E+03  0.7546771E-02  0.1150959E+00
         21   -1    0    0  503  502  0.00000000000E+00  0.00000000000E+00  0.13308418118E+03  0.13308418118E+03  0.00000000000E+00 0.  1.
         21   -1    0    0  501  503 -0.00000000000E+00 -0.00000000000E+00 -0.70870794832E+03  0.70870794832E+03  0.00000000000E+00 0.  1.
          6    1    1    2  501    0  0.41202285229E+02  0.88316129031E+02 -0.60890452054E+03  0.64046161641E+03  0.17300000000E+03 0.  1.
         -6    1    1    2    0  502 -0.41202285229E+02 -0.88316129031E+02  0.33280753406E+02  0.20133051309E+03  0.17300000000E+03 0.  1.
<mgrwt>
<rscale>  2 0.19856074E+03</rscale>
<asrwt>0</asrwt>
<pdfrwt beam="1">  1       21 0.20474490E-01 0.19856074E+03</pdfrwt>
<pdfrwt beam="2">  1       21 0.10903199E+00 0.19856074E+03</pdfrwt>
<totfact> 0.14682709E+04</totfact>
</mgrwt>
</event>
<event>
 4    1  0.4306168E+000  0.2092337E+03  0.7546771E-02  0.1142174E+00
         21   -1    0    0  503  502  0.00000000000E+00  0.00000000000E+00  0.87177256330E+02  0.87177256330E+02  0.00000000000E+00 0. -1.
         21   -1    0    0  501  503 -0.00000000000E+00 -0.00000000000E+00 -0.61129622965E+03  0.61129622965E+03  0.00000000000E+00 0. -1.
          6    1    1    2  501    0  0.11643265872E+03  0.17122938964E+02 -0.40960867269E+03  0.45995437143E+03  0.17300000000E+03 0. -1.
         -6    1    1    2    0  502 -0.11643265872E+03 -0.17122938964E+02 -0.11451030063E+03  0.23851911455E+03  0.17300000000E+03 0. -1.
<mgrwt>
<rscale>  2 0.20923374E+03</rscale>
<asrwt>0</asrwt>
<pdfrwt beam="1">  1       21 0.13411885E-01 0.20923374E+03</pdfrwt>
<pdfrwt beam="2">  1       21 0.94045580E-01 0.20923374E+03</pdfrwt>
<totfact> 0.45187650E+04</totfact>
</mgrwt>
</event>
<event>
 4    1  0.4306168E+000  0.1999711E+03  0.7546771E-02  0.1149763E+00
         21   -1    0    0  503  502  0.00000000000E+00  0.00000000000E+00  0.18678816920E+03  0.18678816920E+03  0.00000000000E+00 0. -1.
         21   -1    0    0  501  503 -0.00000000000E+00 -0.00000000000E+00 -0.30782175989E+03  0.30782175989E+03  0.00000000000E+00 0. -1.
          6    1    1    2  501    0 -0.90488443554E+02  0.43258132539E+02 -0.19698756559E+03  0.28070006314E+03  0.17300000000E+03 0. -1.
         -6    1    1    2    0  502  0.90488443554E+02 -0.43258132539E+02  0.75953974900E+02  0.21390986595E+03  0.17300000000E+03 0. -1.
<mgrwt>
<rscale>  2 0.19997106E+03</rscale>
<asrwt>0</asrwt>
<pdfrwt beam="1">  1       21 0.28736642E-01 0.19997106E+03</pdfrwt>
<pdfrwt beam="2">  1       21 0.47357193E-01 0.19997106E+03</pdfrwt>
<totfact> 0.49240842E+04</totfact>
</mgrwt>
</event>
<event>
 4    1  0.4306168E+000  0.1811882E+03  0.7546771E-02  0.1166658E+00
         21   -1    0    0  501  502  0.00000000000E+00  0.00000000000E+00  0.64529313304E+03  0.64529313304E+03  0.00000000000E+00 0.  1.
         21   -1    0    0  502  503 -0.00000000000E+00 -0.00000000000E+00 -0.90198399936E+02  0.90198399936E+02  0.00000000000E+00 0.  1.
          6    1    1    2  501    0  0.50596312822E+02  0.18444272565E+02  0.52036193339E+03  0.55100428291E+03  0.17300000000E+03 0.  1.
         -6    1    1    2    0  503 -0.50596312822E+02 -0.18444272565E+02  0.34732799714E+02  0.18448725007E+03  0.17300000000E+03 0.  1.
<mgrwt>
<rscale>  2 0.18118824E+03</rscale>
<asrwt>0</asrwt>
<pdfrwt beam="1">  1       21 0.99275864E-01 0.18118824E+03</pdfrwt>
<pdfrwt beam="2">  1       21 0.13876677E-01 0.18118824E+03</pdfrwt>
<totfact> 0.37967967E+04</totfact>
</mgrwt>
</event>
<event>
 4    1  0.4306168E+000  0.1924613E+03  0.7546771E-02  0.1156260E+00
         21   -1    0    0  501  502  0.00000000000E+00  0.00000000000E+00  0.53614200614E+02  0.53614200614E+02  0.00000000000E+00 0.  1.
         21   -1    0    0  502  503 -0.00000000000E+00 -0.00000000000E+00 -0.94847425978E+03  0.94847425978E+03  0.00000000000E+00 0.  1.
          6    1    1    2  501    0 -0.60824081795E+02  0.58418986144E+02 -0.18631877236E+03  0.26787316365E+03  0.17300000000E+03 0.  1.
         -6    1    1    2    0  503  0.60824081795E+02 -0.58418986144E+02 -0.70854128681E+03  0.73421529675E+03  0.17300000000E+03 0.  1.
<mgrwt>
<rscale>  2 0.19246129E+03</rscale>
<asrwt>0</asrwt>
<pdfrwt beam="1">  1       21 0.82483383E-02 0.19246129E+03</pdfrwt>
<pdfrwt beam="2">  1       21 0.14591912E+00 0.19246129E+03</pdfrwt>
<totfact> 0.36564987E+04</totfact>
</mgrwt>
</event>
<event>
 4    1  0.4306168E+000  0.1993583E+03  0.7546771E-02  0.1150282E+00
         21   -1    0    0  503  502  0.00000000000E+00  0.00000000000E+00  0.26384990367E+03  0.26384990367E+03  0.00000000000E+00 0. -1.
         21   -1    0    0  501  503 -0.00000000000E+00 -0.00000000000E+00 -0.24440422232E+03  0.24440422232E+03  0.00000000000E+00 0. -1.
          6    1    1    2  501    0 -0.86763969566E+02  0.47819891732E+02 -0.14768927182E+03  0.24810451320E+03  0.17300000000E+03 0. -1.
         -6    1    1    2    0  502  0.86763969566E+02 -0.47819891732E+02  0.16713495318E+03  0.26014961279E+03  0.17300000000E+03 0. -1.
<mgrwt>
<rscale>  2 0.19935829E+03</rscale>
<asrwt>0</asrwt>
<pdfrwt beam="1">  1       21 0.40592293E-01 0.19935829E+03</pdfrwt>
<pdfrwt beam="2">  1       21 0.37600650E-01 0.19935829E+03</pdfrwt>
<totfact> 0.39748249E+04</totfact>
</mgrwt>
</event>
<event>
 4    1  0.4306168E+000  0.2109299E+03  0.7546771E-02  0.1140832E+00
         21   -1    0    0  503  502  0.00000000000E+00  0.00000000000E+00  0.14652843443E+03  0.14652843443E+03  0.00000000000E+00 0.  1.
         21   -1    0    0  501  503 -0.00000000000E+00 -0.00000000000E+00 -0.31168221665E+03  0.31168221665E+03  0.00000000000E+00 0.  1.
          6    1    1    2  501    0 -0.35947202124E+02 -0.11519644730E+03 -0.11938587545E+03  0.24237246145E+03  0.17300000000E+03 0.  1.
         -6    1    1    2    0  502  0.35947202124E+02  0.11519644730E+03 -0.45767906769E+02  0.21583818963E+03  0.17300000000E+03 0.  1.
<mgrwt>
<rscale>  2 0.21092990E+03</rscale>
<asrwt>0</asrwt>
<pdfrwt beam="1">  1       21 0.22542836E-01 0.21092990E+03</pdfrwt>
<pdfrwt beam="2">  1       21 0.47951110E-01 0.21092990E+03</pdfrwt>
<totfact> 0.76025453E+04</totfact>
</mgrwt>
</event>
<event>
 4    1  0.4306168E+000  0.1816502E+03  0.7546771E-02  0.1166215E+00
         21   -1    0    0  501  502  0.00000000000E+00  0.00000000000E+00  0.28233146930E+03  0.28233146930E+03  0.00000000000E+00 0. -1.
         21   -1    0    0  502  503 -0.00000000000E+00 -0.00000000000E+00 -0.12544611865E+03  0.12544611865E+03  0.00000000000E+00 0. -1.
          6    1    1    2  501    0 -0.51684182642E+02 -0.19913611729E+02  0.13174484020E+03  0.22439587694E+03  0.17300000000E+03 0. -1.
         -6    1    1    2    0  503  0.51684182642E+02  0.19913611729E+02  0.25140510454E+02  0.18338171101E+03  0.17300000000E+03 0. -1.
<mgrwt>
<rscale>  2 0.18165023E+03</rscale>
<asrwt>0</asrwt>
<pdfrwt beam="1">  1       21 0.43435611E-01 0.18165023E+03</pdfrwt>
<pdfrwt beam="2">  1       21 0.19299403E-01 0.18165023E+03</pdfrwt>
<totfact> 0.12616995E+05</totfact>
</mgrwt>
</event>
<event>
 4    1  0.4306168E+000  0.1914991E+03  0.7546771E-02  0.1157116E+00
         21   -1    0    0  501  502  0.00000000000E+00  0.00000000000E+00  0.16493554731E+04  0.16493554731E+04  0.00000000000E+00 0.  1.
         21   -1    0    0  502  503 -0.00000000000E+00 -0.00000000000E+00 -0.36884856330E+02  0.36884856330E+02  0.00000000000E+00 0. -1.
          6    1    1    2  501    0 -0.53568146668E+02 -0.62236345907E+02  0.13376036542E+04  0.13512421859E+04  0.17300000000E+03 0.  1.
         -6    1    1    2    0  503  0.53568146668E+02  0.62236345907E+02  0.27486696256E+03  0.33499814358E+03  0.17300000000E+03 0. -1.
<mgrwt>
<rscale>  2 0.19149911E+03</rscale>
<asrwt>0</asrwt>
<pdfrwt beam="1">  1       21 0.25374694E+00 0.19149911E+03</pdfrwt>
<pdfrwt beam="2">  1       21 0.56745946E-02 0.19149911E+03</pdfrwt>
<totfact> 0.13724323E+04</totfact>
</mgrwt>
</event>
<event>
 4    1  0.4306168E+000  0.1916304E+03  0.7546771E-02  0.1156999E+00
         21   -1    0    0  501  502  0.00000000000E+00  0.00000000000E+00  0.18220083389E+04  0.18220083389E+04  0.00000000000E+00 0.  1.
         21   -1    0    0  502  503 -0.00000000000E+00 -0.00000000000E+00 -0.32090047509E+02  0.32090047509E+02  0.00000000000E+00 0.  1.
          6    1    1    2  501    0 -0.55377940719E+02  0.61045118979E+02  0.14603297488E+04  0.14728493467E+04  0.17300000000E+03 0.  1.
         -6    1    1    2    0  503  0.55377940719E+02 -0.61045118979E+02  0.32958854263E+03  0.38124903974E+03  0.17300000000E+03 0.  1.
<mgrwt>
<rscale>  2 0.19163043E+03</rscale>
<asrwt>0</asrwt>
<pdfrwt beam="1">  1       21 0.28030890E+00 0.19163043E+03</pdfrwt>
<pdfrwt beam="2">  1       21 0.49369318E-02 0.19163043E+03</pdfrwt>
<totfact> 0.12193120E+04</totfact>
</mgrwt>
</event>
<event>
 4    1  0.4306168E+000  0.1799659E+03  0.7546771E-02  0.1167836E+00
         21   -1    0    0  501  502  0.00000000000E+00  0.00000000000E+00  0.42058576517E+02  0.42058576517E+02  0.00000000000E+00 0. -1.
         21   -1    0    0  502  503 -0.00000000000E+00 -0.00000000000E+00 -0.14749450276E+04  0.14749450276E+04  0.00000000000E+00 0. -1.
          6    1    1    2  501    0  0.27995045213E+02 -0.40926683271E+02 -0.19208607546E+03  0.26322001510E+03  0.17300000000E+03 0. -1.
         -6    1    1    2    0  503 -0.27995045213E+02  0.40926683271E+02 -0.12408003756E+04  0.12537835890E+04  0.17300000000E+03 0. -1.
<mgrwt>
<rscale>  2 0.17996587E+03</rscale>
<asrwt>0</asrwt>
<pdfrwt beam="1">  1       21 0.64705513E-02 0.17996587E+03</pdfrwt>
<pdfrwt beam="2">  1       21 0.22691458E+00 0.17996587E+03</pdfrwt>
<totfact> 0.15988113E+04</totfact>
</mgrwt>
</event>
<event>
 4    1  0.4306168E+000  0.2016619E+03  0.7546771E-02  0.1148344E+00
         21   -1    0    0  501  502  0.00000000000E+00  0.00000000000E+00  0.15466150665E+04  0.15466150665E+04  0.00000000000E+00 0.  1.
         21   -1    0    0  502  503 -0.00000000000E+00 -0.00000000000E+00 -0.30376621361E+02  0.30376621361E+02  0.00000000000E+00 0.  1.
          6    1    1    2  501    0  0.41498060829E+02  0.94954898937E+02  0.10471678035E+04  0.10664088946E+04  0.17300000000E+03 0.  1.
         -6    1    1    2    0  503 -0.41498060829E+02 -0.94954898937E+02  0.46907064166E+03  0.51058279324E+03  0.17300000000E+03 0.  1.
<mgrwt>
<rscale>  2 0.20166190E+03</rscale>
<asrwt>0</asrwt>
<pdfrwt beam="1">  1       21 0.23794072E+00 0.20166190E+03</pdfrwt>
<pdfrwt beam="2">  1       21 0.46733276E-02 0.20166190E+03</pdfrwt>
<totfact> 0.23460586E+04</totfact>
</mgrwt>
</event>
<event>
 4    1  0.4306168E+000  0.1797352E+03  0.7546771E-02  0.1168060E+00
         21   -1    0    0  503  502  0.00000000000E+00  0.00000000000E+00  0.67940866574E+03  0.67940866574E+03  0.00000000000E+00 0. -1.
         21   -1    0    0  501  503 -0.00000000000E+00 -0.00000000000E+00 -0.63964366631E+02  0.63964366631E+02  0.00000000000E+00 0. -1.
          6    1    1    2  501    0 -0.97964540999E+01 -0.47747002061E+02  0.11942578952E+03  0.21579449928E+03  0.17300000000E+03 0. -1.
         -6    1    1    2    0  502  0.97964540999E+01  0.47747002061E+02  0.49601850959E+03  0.52757853309E+03  0.17300000000E+03 0. -1.
<mgrwt>
<rscale>  2 0.17973521E+03</rscale>
<asrwt>0</asrwt>
<pdfrwt beam="1">  1       21 0.10452441E+00 0.17973521E+03</pdfrwt>
<pdfrwt beam="2">  1       21 0.98406722E-02 0.17973521E+03</pdfrwt>
<totfact> 0.62039712E+04</totfact>
</mgrwt>
</event>
<event>
 4    1  0.4306168E+000  0.1799983E+03  0.7546771E-02  0.1167805E+00
         21   -1    0    0  503  502  0.00000000000E+00  0.00000000000E+00  0.21605934614E+03  0.21605934614E+03  0.00000000000E+00 0.  1.
         21   -1    0    0  501  503 -0.00000000000E+00 -0.00000000000E+00 -0.15215414772E+03  0.15215414772E+03  0.00000000000E+00 0.  1.
          6    1    1    2  501    0  0.24420322947E+02  0.43290336838E+02  0.54081080761E+02  0.18794724987E+03  0.17300000000E+03 0.  1.
         -6    1    1    2    0  502 -0.24420322947E+02 -0.43290336838E+02  0.98241176554E+01  0.18026624399E+03  0.17300000000E+03 0.  1.
<mgrwt>
<rscale>  2 0.17999835E+03</rscale>
<asrwt>0</asrwt>
<pdfrwt beam="1">  1       21 0.33239899E-01 0.17999835E+03</pdfrwt>
<pdfrwt beam="2">  1       21 0.23408330E-01 0.17999835E+03</pdfrwt>
<totfact> 0.15021783E+05</totfact>
</mgrwt>
</event>
<event>
 4    1  0.4306168E+000  0.3080801E+03  0.7546771E-02  0.1081270E+00
         21   -1    0    0  503  502  0.00000000000E+00  0.00000000000E+00  0.11606747126E+03  0.11606747126E+03  0.00000000000E+00 0. -1.
         21   -1    0    0  501  503 -0.00000000000E+00 -0.00000000000E+00 -0.81813126441E+03  0.81813126441E+03  0.00000000000E+00 0. -1.
          6    1    1    2  501    0 -0.24514716974E+03 -0.69908605326E+02 -0.34085465482E+03  0.45945102420E+03  0.17300000000E+03 0. -1.
         -6    1    1    2    0  502  0.24514716974E+03  0.69908605326E+02 -0.36120913834E+03  0.47474771147E+03  0.17300000000E+03 0. -1.
<mgrwt>
<rscale>  2 0.30808010E+03</rscale>
<asrwt>0</asrwt>
<pdfrwt beam="1">  1       21 0.17856534E-01 0.30808010E+03</pdfrwt>
<pdfrwt beam="2">  1       21 0.12586635E+00 0.30808010E+03</pdfrwt>
<totfact> 0.12517225E+04</totfact>
</mgrwt>
</event>
<event>
 4    1  0.4306168E+000  0.2216601E+03  0.7546771E-02  0.1132651E+00
         21   -1    0    0  503  502  0.00000000000E+00  0.00000000000E+00  0.76424770100E+03  0.76424770100E+03  0.00000000000E+00 0.  1.
         21   -1    0    0  501  503 -0.00000000000E+00 -0.00000000000E+00 -0.12066725593E+03  0.12066725593E+03  0.00000000000E+00 0.  1.
          6    1    1    2  501    0 -0.13358711615E+03  0.36860578768E+02  0.19356564039E+02  0.22250369983E+03  0.17300000000E+03 0.  1.
         -6    1    1    2    0  502  0.13358711615E+03 -0.36860578768E+02  0.62422388103E+03  0.66241125709E+03  0.17300000000E+03 0.  1.
<mgrwt>
<rscale>  2 0.22166014E+03</rscale>
<asrwt>0</asrwt>
<pdfrwt beam="1">  1       21 0.11757657E+00 0.22166014E+03</pdfrwt>
<pdfrwt beam="2">  1       21 0.18564194E-01 0.22166014E+03</pdfrwt>
<totfact> 0.14450852E+04</totfact>
</mgrwt>
</event>
<event>
 4    1  0.4306168E+000  0.1950615E+03  0.7546771E-02  0.1153974E+00
         21   -1    0    0  501  502  0.00000000000E+00  0.00000000000E+00  0.18298687534E+03  0.18298687534E+03  0.00000000000E+00 0.  1.
         21   -1    0    0  502  503 -0.00000000000E+00 -0.00000000000E+00 -0.25566761577E+03  0.25566761577E+03  0.00000000000E+00 0. -1.
          6    1    1    2  501    0  0.68700425340E+02 -0.58311514485E+02  0.58429907876E+02  0.20362474137E+03  0.17300000000E+03 0.  1.
         -6    1    1    2    0  503 -0.68700425340E+02  0.58311514485E+02 -0.13111064831E+03  0.23502974974E+03  0.17300000000E+03 0. -1.
<mgrwt>
<rscale>  2 0.19506148E+03</rscale>
<asrwt>0</asrwt>
<pdfrwt beam="1">  1       21 0.28151827E-01 0.19506148E+03</pdfrwt>
<pdfrwt beam="2">  1       21 0.39333479E-01 0.19506148E+03</pdfrwt>
<totfact> 0.75053466E+04</totfact>
</mgrwt>
</event>
<event>
 4    1  0.4306168E+000  0.2045897E+03  0.7546771E-02  0.1145923E+00
         21   -1    0    0  503  502  0.00000000000E+00  0.00000000000E+00  0.88499522883E+03  0.88499522883E+03  0.00000000000E+00 0. -1.
         21   -1    0    0  501  503 -0.00000000000E+00 -0.00000000000E+00 -0.96632547523E+02  0.96632547523E+02  0.00000000000E+00 0. -1.
          6    1    1    2  501    0  0.86894706377E+02 -0.66160943018E+02  0.43479228052E+02  0.20915880008E+03  0.17300000000E+03 0. -1.
         -6    1    1    2    0  502 -0.86894706377E+02  0.66160943018E+02  0.74488345325E+03  0.77246897628E+03  0.17300000000E+03 0. -1.
<mgrwt>
<rscale>  2 0.20458974E+03</rscale>
<asrwt>0</asrwt>
<pdfrwt beam="1">  1       21 0.13615311E+00 0.20458974E+03</pdfrwt>
<pdfrwt beam="2">  1       21 0.14866546E-01 0.20458974E+03</pdfrwt>
<totfact> 0.15202318E+04</totfact>
</mgrwt>
</event>
<event>
 4    1  0.4306168E+000  0.2146635E+03  0.7546771E-02  0.1137925E+00
         21   -1    0    0  503  502  0.00000000000E+00  0.00000000000E+00  0.66225944850E+03  0.66225944850E+03  0.00000000000E+00 0.  1.
         21   -1    0    0  501  503 -0.00000000000E+00 -0.00000000000E+00 -0.12723285136E+03  0.12723285136E+03  0.00000000000E+00 0. -1.
          6    1    1    2  501    0 -0.32512122340E+02  0.12285921892E+03  0.17920296783E+01  0.21467099744E+03  0.17300000000E+03 0. -1.
         -6    1    1    2    0  502  0.32512122340E+02 -0.12285921892E+03  0.53323456746E+03  0.57482130242E+03  0.17300000000E+03 0.  1.
<mgrwt>
<rscale>  2 0.21466352E+03</rscale>
<asrwt>0</asrwt>
<pdfrwt beam="1">  1       21 0.10188607E+00 0.21466352E+03</pdfrwt>
<pdfrwt beam="2">  1       21 0.19574285E-01 0.21466352E+03</pdfrwt>
<totfact> 0.18612643E+04</totfact>
</mgrwt>
</event>
<event>
 4    1  0.4306168E+000  0.2663373E+03  0.7546771E-02  0.1103394E+00
         21   -1    0    0  503  502  0.00000000000E+00  0.00000000000E+00  0.48755551217E+03  0.48755551217E+03  0.00000000000E+00 0. -1.
         21   -1    0    0  501  503 -0.00000000000E+00 -0.00000000000E+00 -0.15677613204E+03  0.15677613204E+03  0.00000000000E+00 0.  1.
          6    1    1    2  501    0 -0.20249358790E+03 -0.16994168242E+01  0.78958787220E+02  0.27779494459E+03  0.17300000000E+03 0. -1.
         -6    1    1    2    0  502  0.20249358790E+03  0.16994168242E+01  0.25182059291E+03  0.36653669962E+03  0.17300000000E+03 0. -1.
<mgrwt>
<rscale>  2 0.26633727E+03</rscale>
<asrwt>0</asrwt>
<pdfrwt beam="1">  1       21 0.75008540E-01 0.26633727E+03</pdfrwt>
<pdfrwt beam="2">  1       21 0.24119405E-01 0.26633727E+03</pdfrwt>
<totfact> 0.24828523E+04</totfact>
</mgrwt>
</event>
<event>
 4    1  0.4306168E+000  0.1771972E+03  0.7546771E-02  0.1170543E+00
         21   -1    0    0  501  502  0.00000000000E+00  0.00000000000E+00  0.30233484934E+03  0.30233484934E+03  0.00000000000E+00 0.  1.
         21   -1    0    0  502  503 -0.00000000000E+00 -0.00000000000E+00 -0.13812430555E+03  0.13812430555E+03  0.00000000000E+00 0.  1.
          6    1    1    2  501    0  0.19767568476E+02 -0.32849749126E+02 -0.27591998585E+02  0.17933259929E+03  0.17300000000E+03 0.  1.
         -6    1    1    2    0  503 -0.19767568476E+02  0.32849749126E+02  0.19180254237E+03  0.26112655560E+03  0.17300000000E+03 0.  1.
<mgrwt>
<rscale>  2 0.17719724E+03</rscale>
<asrwt>0</asrwt>
<pdfrwt beam="1">  1       21 0.46513054E-01 0.17719724E+03</pdfrwt>
<pdfrwt beam="2">  1       21 0.21249893E-01 0.17719724E+03</pdfrwt>
<totfact> 0.91768796E+04</totfact>
</mgrwt>
</event>
<event>
 4    1  0.4306168E+000  0.1791374E+03  0.7546771E-02  0.1168641E+00
         21   -1    0    0  503  502  0.00000000000E+00  0.00000000000E+00  0.83466716636E+03  0.83466716636E+03  0.00000000000E+00 0.  1.
         21   -1    0    0  501  503 -0.00000000000E+00 -0.00000000000E+00 -0.38507008924E+02  0.38507008924E+02  0.00000000000E+00 0.  1.
          6    1    1    2  501    0  0.45695614313E+02  0.85504365813E+01  0.38080231540E+03  0.42083322415E+03  0.17300000000E+03 0. -1.
         -6    1    1    2    0  502 -0.45695614313E+02 -0.85504365813E+01  0.41535784204E+03  0.45234095114E+03  0.17300000000E+03 0. -1.
<mgrwt>
<rscale>  2 0.17913738E+03</rscale>
<asrwt>0</asrwt>
<pdfrwt beam="1">  1       21 0.12841032E+00 0.17913738E+03</pdfrwt>
<pdfrwt beam="2">  1       21 0.59241558E-02 0.17913738E+03</pdfrwt>
<totfact> 0.90406407E+04</totfact>
</mgrwt>
</event>
<event>
 4    1  0.4306168E+000  0.1826244E+03  0.7546771E-02  0.1165287E+00
         21   -1    0    0  501  502  0.00000000000E+00  0.00000000000E+00  0.18755564016E+03  0.18755564016E+03  0.00000000000E+00 0. -1.
         21   -1    0    0  502  503 -0.00000000000E+00 -0.00000000000E+00 -0.18039941566E+03  0.18039941566E+03  0.00000000000E+00 0. -1.
          6    1    1    2  501    0 -0.12919046508E+02  0.57059502872E+02  0.25564974509E+02  0.18440514242E+03  0.17300000000E+03 0.  1.
         -6    1    1    2    0  503  0.12919046508E+02 -0.57059502872E+02 -0.18408750009E+02  0.18354991340E+03  0.17300000000E+03 0.  1.
<mgrwt>
<rscale>  2 0.18262445E+03</rscale>
<asrwt>0</asrwt>
<pdfrwt beam="1">  1       21 0.28854714E-01 0.18262445E+03</pdfrwt>
<pdfrwt beam="2">  1       21 0.27753756E-01 0.18262445E+03</pdfrwt>
<totfact> 0.14291687E+05</totfact>
</mgrwt>
</event>
<event>
 4    1  0.4306168E+000  0.2187279E+03  0.7546771E-02  0.1134835E+00
         21   -1    0    0  503  502  0.00000000000E+00  0.00000000000E+00  0.48917169917E+03  0.48917169917E+03  0.00000000000E+00 0. -1.
         21   -1    0    0  501  503 -0.00000000000E+00 -0.00000000000E+00 -0.63978086950E+03  0.63978086950E+03  0.00000000000E+00 0. -1.
          6    1    1    2  501    0 -0.85325299934E+02 -0.10311387416E+03 -0.59484738294E+03  0.63378646786E+03  0.17300000000E+03 0. -1.
         -6    1    1    2    0  502  0.85325299934E+02  0.10311387416E+03  0.44423821261E+03  0.49516610082E+03  0.17300000000E+03 0. -1.
<mgrwt>
<rscale>  2 0.21872786E+03</rscale>
<asrwt>0</asrwt>
<pdfrwt beam="1">  1       21 0.75257185E-01 0.21872786E+03</pdfrwt>
<pdfrwt beam="2">  1       21 0.98427826E-01 0.21872786E+03</pdfrwt>
<totfact> 0.13125548E+03</totfact>
</mgrwt>
</event>
<event>
 4    1  0.4306168E+000  0.2152916E+03  0.7546771E-02  0.1137443E+00
         21   -1    0    0  503  502  0.00000000000E+00  0.00000000000E+00  0.52713740951E+02  0.52713740951E+02  0.00000000000E+00 0. -1.
         21   -1    0    0  501  503 -0.00000000000E+00 -0.00000000000E+00 -0.18862896773E+04  0.18862896773E+04  0.00000000000E+00 0. -1.
          6    1    1    2  501    0 -0.49792927766E+01 -0.12804959449E+03 -0.16251573146E+04  0.16393556018E+04  0.17300000000E+03 0. -1.
         -6    1    1    2    0  502  0.49792927766E+01  0.12804959449E+03 -0.20841862176E+03  0.29964781644E+03  0.17300000000E+03 0. -1.
<mgrwt>
<rscale>  2 0.21529164E+03</rscale>
<asrwt>0</asrwt>
<pdfrwt beam="1">  1       21 0.81098064E-02 0.21529164E+03</pdfrwt>
<pdfrwt beam="2">  1       21 0.29019841E+00 0.21529164E+03</pdfrwt>
<totfact> 0.44433297E+03</totfact>
</mgrwt>
</event>
<event>
 4    1  0.4306168E+000  0.2323880E+03  0.7546771E-02  0.1124970E+00
         21   -1    0    0  503  502  0.00000000000E+00  0.00000000000E+00  0.99168618213E+02  0.99168618213E+02  0.00000000000E+00 0. -1.
         21   -1    0    0  501  503 -0.00000000000E+00 -0.00000000000E+00 -0.86863857296E+03  0.86863857296E+03  0.00000000000E+00 0. -1.
          6    1    1    2  501    0  0.68136121800E+01  0.15501210245E+03 -0.68030356320E+03  0.71889993415E+03  0.17300000000E+03 0. -1.
         -6    1    1    2    0  502 -0.68136121800E+01 -0.15501210245E+03 -0.89166391545E+02  0.24890725702E+03  0.17300000000E+03 0. -1.
<mgrwt>
<rscale>  2 0.23238799E+03</rscale>
<asrwt>0</asrwt>
<pdfrwt beam="1">  1       21 0.15256710E-01 0.23238799E+03</pdfrwt>
<pdfrwt beam="2">  1       21 0.13363671E+00 0.23238799E+03</pdfrwt>
<totfact> 0.14941013E+04</totfact>
</mgrwt>
</event>
<event>
 4    1  0.4306168E+000  0.1825761E+03  0.7546771E-02  0.1165333E+00
         21   -1    0    0  501  502  0.00000000000E+00  0.00000000000E+00  0.33562570882E+02  0.33562570882E+02  0.00000000000E+00 0. -1.
         21   -1    0    0  502  503 -0.00000000000E+00 -0.00000000000E+00 -0.10400853093E+04  0.10400853093E+04  0.00000000000E+00 0. -1.
          6    1    1    2  501    0 -0.13340659423E+02  0.56807288539E+02 -0.38927373046E+03  0.42996288032E+03  0.17300000000E+03 0. -1.
         -6    1    1    2    0  503  0.13340659423E+02 -0.56807288539E+02 -0.61724900795E+03  0.64368499986E+03  0.17300000000E+03 0. -1.
<mgrwt>
<rscale>  2 0.18257612E+03</rscale>
<asrwt>0</asrwt>
<pdfrwt beam="1">  1       21 0.51634731E-02 0.18257612E+03</pdfrwt>
<pdfrwt beam="2">  1       21 0.16001311E+00 0.18257612E+03</pdfrwt>
<totfact> 0.64445855E+04</totfact>
</mgrwt>
</event>
<event>
 4    1  0.4306168E+000  0.4244854E+03  0.7546771E-02  0.1035616E+00
         21   -1    0    0  503  502  0.00000000000E+00  0.00000000000E+00  0.78193152944E+03  0.78193152944E+03  0.00000000000E+00 0. -1.
         21   -1    0    0  501  503 -0.00000000000E+00 -0.00000000000E+00 -0.47424562695E+03  0.47424562695E+03  0.00000000000E+00 0.  1.
          6    1    1    2  501    0 -0.21503431489E+03  0.32251985585E+03 -0.29649821295E+03  0.51778277712E+03  0.17300000000E+03 0.  1.
         -6    1    1    2    0  502  0.21503431489E+03 -0.32251985585E+03  0.60418411544E+03  0.73839437928E+03  0.17300000000E+03 0. -1.
<mgrwt>
<rscale>  2 0.42448535E+03</rscale>
<asrwt>0</asrwt>
<pdfrwt beam="1">  1       21 0.12029716E+00 0.42448535E+03</pdfrwt>
<pdfrwt beam="2">  1       21 0.72960866E-01 0.42448535E+03</pdfrwt>
<totfact> 0.75705975E+02</totfact>
</mgrwt>
</event>
<event>
 4    1  0.4306168E+000  0.1915136E+03  0.7546771E-02  0.1157103E+00
         21   -1    0    0  503  502  0.00000000000E+00  0.00000000000E+00  0.12229605264E+03  0.12229605264E+03  0.00000000000E+00 0. -1.
         21   -1    0    0  501  503 -0.00000000000E+00 -0.00000000000E+00 -0.29991793566E+03  0.29991793566E+03  0.00000000000E+00 0. -1.
          6    1    1    2  501    0 -0.41672463804E+02  0.70794397611E+02 -0.90086300927E+02  0.21164352716E+03  0.17300000000E+03 0. -1.
         -6    1    1    2    0  502  0.41672463804E+02 -0.70794397611E+02 -0.87535582097E+02  0.21057046114E+03  0.17300000000E+03 0. -1.
<mgrwt>
<rscale>  2 0.19151355E+03</rscale>
<asrwt>0</asrwt>
<pdfrwt beam="1">  1       21 0.18814778E-01 0.19151355E+03</pdfrwt>
<pdfrwt beam="2">  1       21 0.46141220E-01 0.19151355E+03</pdfrwt>
<totfact> 0.11646255E+05</totfact>
</mgrwt>
</event>
<event>
 4    1  0.4306168E+000  0.2060120E+03  0.7546771E-02  0.1144764E+00
         21   -1    0    0  501  502  0.00000000000E+00  0.00000000000E+00  0.10802115650E+04  0.10802115650E+04  0.00000000000E+00 0. -1.
         21   -1    0    0  502  503 -0.00000000000E+00 -0.00000000000E+00 -0.11655038948E+03  0.11655038948E+03  0.00000000000E+00 0.  1.
          6    1    1    2  501    0  0.30663445319E+02  0.10757187295E+03  0.96902333191E+03  0.99068015651E+03  0.17300000000E+03 0. -1.
         -6    1    1    2    0  503 -0.30663445319E+02 -0.10757187295E+03 -0.53621563888E+01  0.20608179796E+03  0.17300000000E+03 0.  1.
<mgrwt>
<rscale>  2 0.20601203E+03</rscale>
<asrwt>0</asrwt>
<pdfrwt beam="1">  1       21 0.16618639E+00 0.20601203E+03</pdfrwt>
<pdfrwt beam="2">  1       21 0.17930830E-01 0.20601203E+03</pdfrwt>
<totfact> 0.63501118E+03</totfact>
</mgrwt>
</event>
<event>
 4    1  0.4306168E+000  0.2089729E+03  0.7546771E-02  0.1142382E+00
         21   -1    0    0  501  502  0.00000000000E+00  0.00000000000E+00  0.11277665075E+04  0.11277665075E+04  0.00000000000E+00 0.  1.
         21   -1    0    0  502  503 -0.00000000000E+00 -0.00000000000E+00 -0.38769817777E+02  0.38769817777E+02  0.00000000000E+00 0.  1.
          6    1    1    2  501    0  0.11370737027E+03 -0.28483491732E+02  0.56492522646E+03  0.60233727001E+03  0.17300000000E+03 0.  1.
         -6    1    1    2    0  503 -0.11370737027E+03  0.28483491732E+02  0.52407146327E+03  0.56419905528E+03  0.17300000000E+03 0.  1.
<mgrwt>
<rscale>  2 0.20897291E+03</rscale>
<asrwt>0</asrwt>
<pdfrwt beam="1">  1       21 0.17350251E+00 0.20897291E+03</pdfrwt>
<pdfrwt beam="2">  1       21 0.59645882E-02 0.20897291E+03</pdfrwt>
<totfact> 0.39767212E+04</totfact>
</mgrwt>
</event>
<event>
 4    1  0.4306168E+000  0.1758919E+03  0.7546771E-02  0.1171839E+00
         21   -1    0    0  501  502  0.00000000000E+00  0.00000000000E+00  0.85520670612E+02  0.85520670612E+02  0.00000000000E+00 0.  1.
         21   -1    0    0  502  503 -0.00000000000E+00 -0.00000000000E+00 -0.71343100077E+03  0.71343100077E+03  0.00000000000E+00 0.  1.
          6    1    1    2  501    0 -0.16827972384E+02 -0.26939985979E+02 -0.33487429940E+02  0.17905125373E+03  0.17300000000E+03 0.  1.
         -6    1    1    2    0  503  0.16827972384E+02  0.26939985979E+02 -0.59442290022E+03  0.61990041765E+03  0.17300000000E+03 0.  1.
<mgrwt>
<rscale>  2 0.17589185E+03</rscale>
<asrwt>0</asrwt>
<pdfrwt beam="1">  1       21 0.13157027E-01 0.17589185E+03</pdfrwt>
<pdfrwt beam="2">  1       21 0.10975861E+00 0.17589185E+03</pdfrwt>
<totfact> 0.32972918E+04</totfact>
</mgrwt>
</event>
<event>
 4    1  0.4306168E+000  0.2272552E+03  0.7546771E-02  0.1128587E+00
         21   -1    0    0  503  502  0.00000000000E+00  0.00000000000E+00  0.11640886086E+03  0.11640886086E+03  0.00000000000E+00 0. -1.
         21   -1    0    0  501  503 -0.00000000000E+00 -0.00000000000E+00 -0.46636647146E+03  0.46636647146E+03  0.00000000000E+00 0.  1.
          6    1    1    2  501    0  0.19560777527E+02  0.14605925226E+03 -0.23928704233E+03  0.33000487544E+03  0.17300000000E+03 0. -1.
         -6    1    1    2    0  502 -0.19560777527E+02 -0.14605925226E+03 -0.11067056827E+03  0.25277045688E+03  0.17300000000E+03 0. -1.
<mgrwt>
<rscale>  2 0.22725521E+03</rscale>
<asrwt>0</asrwt>
<pdfrwt beam="1">  1       21 0.17909056E-01 0.22725521E+03</pdfrwt>
<pdfrwt beam="2">  1       21 0.71748687E-01 0.22725521E+03</pdfrwt>
<totfact> 0.48911177E+04</totfact>
</mgrwt>
</event>
<event>
 4    1  0.4306168E+000  0.2147630E+03  0.7546771E-02  0.1137849E+00
         21   -1    0    0  503  502  0.00000000000E+00  0.00000000000E+00  0.16734810655E+03  0.16734810655E+03  0.00000000000E+00 0. -1.
         21   -1    0    0  501  503 -0.00000000000E+00 -0.00000000000E+00 -0.78456049246E+03  0.78456049246E+03  0.00000000000E+00 0.  1.
          6    1    1    2  501    0 -0.92381790818E+02 -0.87519880722E+02 -0.69195049112E+03  0.72451266860E+03  0.17300000000E+03 0.  1.
         -6    1    1    2    0  502  0.92381790818E+02  0.87519880722E+02  0.74738105220E+02  0.22739593041E+03  0.17300000000E+03 0. -1.
<mgrwt>
<rscale>  2 0.21476295E+03</rscale>
<asrwt>0</asrwt>
<pdfrwt beam="1">  1       21 0.25745863E-01 0.21476295E+03</pdfrwt>
<pdfrwt beam="2">  1       21 0.12070161E+00 0.21476295E+03</pdfrwt>
<totfact> 0.73318011E+03</totfact>
</mgrwt>
</event>
<event>
 4    1  0.4306168E+000  0.2448028E+03  0.7546771E-02  0.1116634E+00
         21   -1    0    0  501  502  0.00000000000E+00  0.00000000000E+00  0.88967346059E+03  0.88967346059E+03  0.00000000000E+00 0.  1.
         21   -1    0    0  502  503 -0.00000000000E+00 -0.00000000000E+00 -0.79890911741E+02  0.79890911741E+02  0.00000000000E+00 0. -1.
          6    1    1    2  501    0  0.13174348717E+03  0.11244132867E+03  0.21289650076E+03  0.32442767890E+03  0.17300000000E+03 0. -1.
         -6    1    1    2    0  503 -0.13174348717E+03 -0.11244132867E+03  0.59688604809E+03  0.64513669343E+03  0.17300000000E+03 0.  1.
<mgrwt>
<rscale>  2 0.24480278E+03</rscale>
<asrwt>0</asrwt>
<pdfrwt beam="1">  1       21 0.13687283E+00 0.24480278E+03</pdfrwt>
<pdfrwt beam="2">  1       21 0.12290910E-01 0.24480278E+03</pdfrwt>
<totfact> 0.20666274E+04</totfact>
</mgrwt>
</event>
<event>
 4    1  0.4306168E+000  0.1980355E+03  0.7546771E-02  0.1151407E+00
         21   -1    0    0  501  502  0.00000000000E+00  0.00000000000E+00  0.55309401425E+03  0.55309401425E+03  0.00000000000E+00 0.  1.
         21   -1    0    0  502  503 -0.00000000000E+00 -0.00000000000E+00 -0.95372272366E+02  0.95372272366E+02  0.00000000000E+00 0. -1.
          6    1    1    2  501    0 -0.57215981666E+02  0.77558892917E+02  0.39308023547E+03  0.44014784101E+03  0.17300000000E+03 0.  1.
         -6    1    1    2    0  503  0.57215981666E+02 -0.77558892917E+02  0.64641506414E+02  0.20831844561E+03  0.17300000000E+03 0. -1.
<mgrwt>
<rscale>  2 0.19803548E+03</rscale>
<asrwt>0</asrwt>
<pdfrwt beam="1">  1       21 0.85091385E-01 0.19803548E+03</pdfrwt>
<pdfrwt beam="2">  1       21 0.14672658E-01 0.19803548E+03</pdfrwt>
<totfact> 0.48678165E+04</totfact>
</mgrwt>
</event>
<event>
 4    1  0.4306168E+000  0.2200720E+03  0.7546771E-02  0.1133829E+00
         21   -1    0    0  501  502  0.00000000000E+00  0.00000000000E+00  0.84823517717E+03  0.84823517717E+03  0.00000000000E+00 0.  1.
         21   -1    0    0  502  503 -0.00000000000E+00 -0.00000000000E+00 -0.78768574986E+02  0.78768574986E+02  0.00000000000E+00 0.  1.
          6    1    1    2  501    0  0.87516580039E+02  0.10413221137E+03  0.62785314762E+03  0.66530537666E+03  0.17300000000E+03 0.  1.
         -6    1    1    2    0  503 -0.87516580039E+02 -0.10413221137E+03  0.14161345456E+03  0.26169837550E+03  0.17300000000E+03 0.  1.
<mgrwt>
<rscale>  2 0.22007196E+03</rscale>
<asrwt>0</asrwt>
<pdfrwt beam="1">  1       21 0.13049771E+00 0.22007196E+03</pdfrwt>
<pdfrwt beam="2">  1       21 0.12118243E-01 0.22007196E+03</pdfrwt>
<totfact> 0.24277173E+04</totfact>
</mgrwt>
</event>
<event>
 4    1  0.4306168E+000  0.1946973E+03  0.7546771E-02  0.1154292E+00
         21   -1    0    0  501  502  0.00000000000E+00  0.00000000000E+00  0.30448917449E+03  0.30448917449E+03  0.00000000000E+00 0. -1.
         21   -1    0    0  502  503 -0.00000000000E+00 -0.00000000000E+00 -0.17124705865E+03  0.17124705865E+03  0.00000000000E+00 0.  1.
          6    1    1    2  501    0  0.81772111920E+02 -0.35935761731E+02  0.19090927631E+03  0.27267821519E+03  0.17300000000E+03 0. -1.
         -6    1    1    2    0  503 -0.81772111920E+02  0.35935761731E+02 -0.57667160468E+02  0.20305801795E+03  0.17300000000E+03 0.  1.
<mgrwt>
<rscale>  2 0.19469735E+03</rscale>
<asrwt>0</asrwt>
<pdfrwt beam="1">  1       21 0.46844488E-01 0.19469735E+03</pdfrwt>
<pdfrwt beam="2">  1       21 0.26345701E-01 0.19469735E+03</pdfrwt>
<totfact> 0.59712244E+04</totfact>
</mgrwt>
</event>
<event>
 4    1  0.4306168E+000  0.2133092E+03  0.7546771E-02  0.1138972E+00
         21   -1    0    0  503  502  0.00000000000E+00  0.00000000000E+00  0.34885449005E+03  0.34885449005E+03  0.00000000000E+00 0.  1.
         21   -1    0    0  501  503 -0.00000000000E+00 -0.00000000000E+00 -0.14592928076E+03  0.14592928076E+03  0.00000000000E+00 0. -1.
          6    1    1    2  501    0  0.12342001168E+03  0.18420466555E+02  0.20835479059E+02  0.21432435713E+03  0.17300000000E+03 0. -1.
         -6    1    1    2    0  502 -0.12342001168E+03 -0.18420466555E+02  0.18208973023E+03  0.28045941369E+03  0.17300000000E+03 0.  1.
<mgrwt>
<rscale>  2 0.21330920E+03</rscale>
<asrwt>0</asrwt>
<pdfrwt beam="1">  1       21 0.53669921E-01 0.21330920E+03</pdfrwt>
<pdfrwt beam="2">  1       21 0.22450659E-01 0.21330920E+03</pdfrwt>
<totfact> 0.60447819E+04</totfact>
</mgrwt>
</event>
<event>
 4    1  0.4306168E+000  0.2471793E+03  0.7546771E-02  0.1115101E+00
         21   -1    0    0  503  502  0.00000000000E+00  0.00000000000E+00  0.30812494389E+04  0.30812494389E+04  0.00000000000E+00 0.  1.
         21   -1    0    0  501  503 -0.00000000000E+00 -0.00000000000E+00 -0.65282942993E+02  0.65282942993E+02  0.00000000000E+00 0.  1.
          6    1    1    2  501    0  0.17163507880E+03 -0.41352128870E+02  0.19521247673E+03  0.31496906182E+03  0.17300000000E+03 0.  1.
         -6    1    1    2    0  502 -0.17163507880E+03  0.41352128870E+02  0.28207540192E+04  0.28315633200E+04  0.17300000000E+03 0.  1.
<mgrwt>
<rscale>  2 0.24717928E+03</rscale>
<asrwt>0</asrwt>
<pdfrwt beam="1">  1       21 0.47403826E+00 0.24717928E+03</pdfrwt>
<pdfrwt beam="2">  1       21 0.10043532E-01 0.24717928E+03</pdfrwt>
<totfact> 0.21200881E+02</totfact>
</mgrwt>
</event>
<event>
 4    1  0.4306168E+000  0.1841929E+03  0.7546771E-02  0.1163806E+00
         21   -1    0    0  503  502  0.00000000000E+00  0.00000000000E+00  0.15853873771E+04  0.15853873771E+04  0.00000000000E+00 0. -1.
         21   -1    0    0  501  503 -0.00000000000E+00 -0.00000000000E+00 -0.23568493438E+02  0.23568493438E+02  0.00000000000E+00 0.  1.
          6    1    1    2  501    0 -0.43736264094E+02  0.45663624195E+02  0.53687908128E+03  0.56759684221E+03  0.17300000000E+03 0.  1.
         -6    1    1    2    0  502  0.43736264094E+02 -0.45663624195E+02  0.10249398024E+04  0.10413590283E+04  0.17300000000E+03 0. -1.
<mgrwt>
<rscale>  2 0.18419291E+03</rscale>
<asrwt>0</asrwt>
<pdfrwt beam="1">  1       21 0.24390567E+00 0.18419291E+03</pdfrwt>
<pdfrwt beam="2">  1       21 0.36259233E-02 0.18419291E+03</pdfrwt>
<totfact> 0.33585239E+04</totfact>
</mgrwt>
</event>
<event>
 4    1  0.4306168E+000  0.2301091E+03  0.7546771E-02  0.1126563E+00
         21   -1    0    0  503  502  0.00000000000E+00  0.00000000000E+00  0.51917890703E+03  0.51917890703E+03  0.00000000000E+00 0. -1.
         21   -1    0    0  501  503 -0.00000000000E+00 -0.00000000000E+00 -0.10292551707E+03  0.10292551707E+03  0.00000000000E+00 0.  1.
          6    1    1    2  501    0  0.15089908177E+03  0.15831923362E+02  0.17844504463E+03  0.29119206141E+03  0.17300000000E+03 0. -1.
         -6    1    1    2    0  502 -0.15089908177E+03 -0.15831923362E+02  0.23780834533E+03  0.33091236269E+03  0.17300000000E+03 0. -1.
<mgrwt>
<rscale>  2 0.23010907E+03</rscale>
<asrwt>0</asrwt>
<pdfrwt beam="1">  1       21 0.79873677E-01 0.23010907E+03</pdfrwt>
<pdfrwt beam="2">  1       21 0.15834695E-01 0.23010907E+03</pdfrwt>
<totfact> 0.48177869E+04</totfact>
</mgrwt>
</event>
<event>
 4    1  0.4306168E+000  0.1949367E+03  0.7546771E-02  0.1154083E+00
         21   -1    0    0  503  502  0.00000000000E+00  0.00000000000E+00  0.30460835090E+03  0.30460835090E+03  0.00000000000E+00 0.  1.
         21   -1    0    0  501  503 -0.00000000000E+00 -0.00000000000E+00 -0.18018569850E+03  0.18018569850E+03  0.00000000000E+00 0.  1.
          6    1    1    2  501    0  0.45892732126E+02 -0.77234468048E+02 -0.72237359856E+02  0.20789069742E+03  0.17300000000E+03 0. -1.
         -6    1    1    2    0  502 -0.45892732126E+02  0.77234468048E+02  0.19666001225E+03  0.27690335197E+03  0.17300000000E+03 0. -1.
<mgrwt>
<rscale>  2 0.19493667E+03</rscale>
<asrwt>0</asrwt>
<pdfrwt beam="1">  1       21 0.46862823E-01 0.19493667E+03</pdfrwt>
<pdfrwt beam="2">  1       21 0.27720877E-01 0.19493667E+03</pdfrwt>
<totfact> 0.54088177E+04</totfact>
</mgrwt>
</event>
<event>
 4    1  0.4306168E+000  0.3045660E+03  0.7546771E-02  0.1082980E+00
         21   -1    0    0  501  502  0.00000000000E+00  0.00000000000E+00  0.76514924382E+03  0.76514924382E+03  0.00000000000E+00 0. -1.
         21   -1    0    0  502  503 -0.00000000000E+00 -0.00000000000E+00 -0.12763202775E+03  0.12763202775E+03  0.00000000000E+00 0. -1.
          6    1    1    2  501    0  0.15311772821E+03  0.19846010919E+03  0.21879740641E+03  0.37501034477E+03  0.17300000000E+03 0. -1.
         -6    1    1    2    0  503 -0.15311772821E+03 -0.19846010919E+03  0.41871980967E+03  0.51777092680E+03  0.17300000000E+03 0. -1.
<mgrwt>
<rscale>  2 0.30456601E+03</rscale>
<asrwt>0</asrwt>
<pdfrwt beam="1">  1       21 0.11771527E+00 0.30456601E+03</pdfrwt>
<pdfrwt beam="2">  1       21 0.19635697E-01 0.30456601E+03</pdfrwt>
<totfact> 0.12422537E+04</totfact>
</mgrwt>
</event>
<event>
 4    1  0.4306168E+000  0.2195239E+03  0.7546771E-02  0.1134239E+00
         21   -1    0    0  501  502  0.00000000000E+00  0.00000000000E+00  0.50053329048E+03  0.50053329048E+03  0.00000000000E+00 0.  1.
         21   -1    0    0  502  503 -0.00000000000E+00 -0.00000000000E+00 -0.10873025913E+03  0.10873025913E+03  0.00000000000E+00 0.  1.
          6    1    1    2  501    0  0.56075780713E+02  0.12295217858E+03  0.92812932283E+02  0.23833793613E+03  0.17300000000E+03 0.  1.
         -6    1    1    2    0  503 -0.56075780713E+02 -0.12295217858E+03  0.29899009906E+03  0.37092561348E+03  0.17300000000E+03 0.  1.
<mgrwt>
<rscale>  2 0.21952387E+03</rscale>
<asrwt>0</asrwt>
<pdfrwt beam="1">  1       21 0.77005121E-01 0.21952387E+03</pdfrwt>
<pdfrwt beam="2">  1       21 0.16727732E-01 0.21952387E+03</pdfrwt>
<totfact> 0.47535226E+04</totfact>
</mgrwt>
</event>
<event>
 4    1  0.4306168E+000  0.2179603E+03  0.7546771E-02  0.1135413E+00
         21   -1    0    0  503  502  0.00000000000E+00  0.00000000000E+00  0.22662937901E+03  0.22662937901E+03  0.00000000000E+00 0. -1.
         21   -1    0    0  501  503 -0.00000000000E+00 -0.00000000000E+00 -0.24948711283E+03  0.24948711283E+03  0.00000000000E+00 0.  1.
          6    1    1    2  501    0  0.53830960501E+01 -0.13247154197E+03 -0.10658817153E+03  0.24262672043E+03  0.17300000000E+03 0.  1.
         -6    1    1    2    0  502 -0.53830960501E+01  0.13247154197E+03  0.83730437704E+02  0.23348977141E+03  0.17300000000E+03 0. -1.
<mgrwt>
<rscale>  2 0.21796029E+03</rscale>
<asrwt>0</asrwt>
<pdfrwt beam="1">  1       21 0.34866059E-01 0.21796029E+03</pdfrwt>
<pdfrwt beam="2">  1       21 0.38382632E-01 0.21796029E+03</pdfrwt>
<totfact> 0.51287507E+04</totfact>
</mgrwt>
</event>
<event>
 4    1  0.4306168E+000  0.1957063E+03  0.7546771E-02  0.1153413E+00
         21   -1    0    0  503  502  0.00000000000E+00  0.00000000000E+00  0.11677233775E+03  0.11677233775E+03  0.00000000000E+00 0. -1.
         21   -1    0    0  501  503 -0.00000000000E+00 -0.00000000000E+00 -0.37522449027E+03  0.37522449027E+03  0.00000000000E+00 0. -1.
          6    1    1    2  501    0  0.52659590001E+02  0.74825912019E+02 -0.21650014296E+03  0.29184458438E+03  0.17300000000E+03 0. -1.
         -6    1    1    2    0  502 -0.52659590001E+02 -0.74825912019E+02 -0.41952009563E+02  0.20015224364E+03  0.17300000000E+03 0. -1.
<mgrwt>
<rscale>  2 0.19570628E+03</rscale>
<asrwt>0</asrwt>
<pdfrwt beam="1">  1       21 0.17964975E-01 0.19570628E+03</pdfrwt>
<pdfrwt beam="2">  1       21 0.57726845E-01 0.19570628E+03</pdfrwt>
<totfact> 0.79202107E+04</totfact>
</mgrwt>
</event>
<event>
 4    1  0.4306168E+000  0.1761152E+03  0.7546771E-02  0.1171617E+00
         21   -1    0    0  501  502  0.00000000000E+00  0.00000000000E+00  0.24271387541E+04  0.24271387541E+04  0.00000000000E+00 0.  1.
         21   -1    0    0  502  503 -0.00000000000E+00 -0.00000000000E+00 -0.24975751909E+02  0.24975751909E+02  0.00000000000E+00 0. -1.
          6    1    1    2  501    0 -0.25574504108E+02 -0.20821083239E+02  0.20578674542E+04  0.20653898014E+04  0.17300000000E+03 0.  1.
         -6    1    1    2    0  503  0.25574504108E+02  0.20821083239E+02  0.34429554795E+03  0.38672470455E+03  0.17300000000E+03 0. -1.
<mgrwt>
<rscale>  2 0.17611523E+03</rscale>
<asrwt>0</asrwt>
<pdfrwt beam="1">  1       21 0.37340578E+00 0.17611523E+03</pdfrwt>
<pdfrwt beam="2">  1       21 0.38424253E-02 0.17611523E+03</pdfrwt>
<totfact> 0.54361863E+03</totfact>
</mgrwt>
</event>
<event>
 4    1  0.4306168E+000  0.2750782E+03  0.7546771E-02  0.1098408E+00
         21   -1    0    0  501  502  0.00000000000E+00  0.00000000000E+00  0.44876583827E+03  0.44876583827E+03  0.00000000000E+00 0. -1.
         21   -1    0    0  502  503 -0.00000000000E+00 -0.00000000000E+00 -0.29989655624E+03  0.29989655624E+03  0.00000000000E+00 0. -1.
          6    1    1    2  501    0  0.21386656823E+03  0.30502557985E+00  0.32210528706E+03  0.42357976580E+03  0.17300000000E+03 0. -1.
         -6    1    1    2    0  503 -0.21386656823E+03 -0.30502557985E+00 -0.17323600503E+03  0.32508262870E+03  0.17300000000E+03 0. -1.
<mgrwt>
<rscale>  2 0.27507817E+03</rscale>
<asrwt>0</asrwt>
<pdfrwt beam="1">  1       21 0.69040898E-01 0.27507817E+03</pdfrwt>
<pdfrwt beam="2">  1       21 0.46137932E-01 0.27507817E+03</pdfrwt>
<totfact> 0.81738340E+03</totfact>
</mgrwt>
</event>
<event>
 4    1  0.4306168E+000  0.1813053E+03  0.7546771E-02  0.1166546E+00
         21   -1    0    0  503  502  0.00000000000E+00  0.00000000000E+00  0.29058061004E+03  0.29058061004E+03  0.00000000000E+00 0. -1.
         21   -1    0    0  501  503 -0.00000000000E+00 -0.00000000000E+00 -0.12111699381E+03  0.12111699381E+03  0.00000000000E+00 0. -1.
          6    1    1    2  501    0  0.43949379084E+02  0.31797147705E+02  0.31850309126E+02  0.18408163601E+03  0.17300000000E+03 0.  1.
         -6    1    1    2    0  502 -0.43949379084E+02 -0.31797147705E+02  0.13761330710E+03  0.22761596784E+03  0.17300000000E+03 0.  1.
<mgrwt>
<rscale>  2 0.18130529E+03</rscale>
<asrwt>0</asrwt>
<pdfrwt beam="1">  1       21 0.44704709E-01 0.18130529E+03</pdfrwt>
<pdfrwt beam="2">  1       21 0.18633384E-01 0.18130529E+03</pdfrwt>
<totfact> 0.12698225E+05</totfact>
</mgrwt>
</event>
<event>
 4    1  0.4306168E+000  0.2458226E+03  0.7546771E-02  0.1115974E+00
         21   -1    0    0  503  502  0.00000000000E+00  0.00000000000E+00  0.20465462212E+03  0.20465462212E+03  0.00000000000E+00 0.  1.
         21   -1    0    0  501  503 -0.00000000000E+00 -0.00000000000E+00 -0.56048680829E+03  0.56048680829E+03  0.00000000000E+00 0. -1.
          6    1    1    2  501    0  0.12895585051E+03  0.11777146649E+03 -0.44108108106E+03  0.50495668108E+03  0.17300000000E+03 0. -1.
         -6    1    1    2    0  502 -0.12895585051E+03 -0.11777146649E+03  0.85248894890E+02  0.26018474932E+03  0.17300000000E+03 0.  1.
<mgrwt>
<rscale>  2 0.24582256E+03</rscale>
<asrwt>0</asrwt>
<pdfrwt beam="1">  1       21 0.31485327E-01 0.24582256E+03</pdfrwt>
<pdfrwt beam="2">  1       21 0.86228739E-01 0.24582256E+03</pdfrwt>
<totfact> 0.10873619E+04</totfact>
</mgrwt>
</event>
<event>
 4    1  0.4306168E+000  0.3016154E+03  0.7546771E-02  0.1084436E+00
         21   -1    0    0  503  502  0.00000000000E+00  0.00000000000E+00  0.73848442673E+02  0.73848442673E+02  0.00000000000E+00 0. -1.
         21   -1    0    0  501  503 -0.00000000000E+00 -0.00000000000E+00 -0.17495635523E+04  0.17495635523E+04  0.00000000000E+00 0. -1.
          6    1    1    2  501    0  0.12207679194E+03  0.21480241985E+03 -0.13337934282E+04  0.13674709254E+04  0.17300000000E+03 0. -1.
         -6    1    1    2    0  502 -0.12207679194E+03 -0.21480241985E+03 -0.34192168149E+03  0.45594106964E+03  0.17300000000E+03 0. -1.
<mgrwt>
<rscale>  2 0.30161536E+03</rscale>
<asrwt>0</asrwt>
<pdfrwt beam="1">  1       21 0.11361301E-01 0.30161536E+03</pdfrwt>
<pdfrwt beam="2">  1       21 0.26916358E+00 0.30161536E+03</pdfrwt>
<totfact> 0.30127673E+03</totfact>
</mgrwt>
</event>
<event>
 4    1  0.4306168E+000  0.2491931E+03  0.7546771E-02  0.1113816E+00
         21   -1    0    0  503  502  0.00000000000E+00  0.00000000000E+00  0.28888867211E+03  0.28888867211E+03  0.00000000000E+00 0. -1.
         21   -1    0    0  501  503 -0.00000000000E+00 -0.00000000000E+00 -0.88224504263E+03  0.88224504263E+03  0.00000000000E+00 0. -1.
          6    1    1    2  501    0  0.12417731535E+03 -0.12941483706E+03 -0.80593888707E+03  0.84358443288E+03  0.17300000000E+03 0. -1.
         -6    1    1    2    0  502 -0.12417731535E+03  0.12941483706E+03  0.21258251655E+03  0.32754928185E+03  0.17300000000E+03 0. -1.
<mgrwt>
<rscale>  2 0.24919311E+03</rscale>
<asrwt>0</asrwt>
<pdfrwt beam="1">  1       21 0.44444411E-01 0.24919311E+03</pdfrwt>
<pdfrwt beam="2">  1       21 0.13573001E+00 0.24919311E+03</pdfrwt>
<totfact> 0.17946784E+03</totfact>
</mgrwt>
</event>
<event>
 4    1  0.4306168E+000  0.2532250E+03  0.7546771E-02  0.1111284E+00
         21   -1    0    0  501  502  0.00000000000E+00  0.00000000000E+00  0.38816288507E+03  0.38816288507E+03  0.00000000000E+00 0.  1.
         21   -1    0    0  502  503 -0.00000000000E+00 -0.00000000000E+00 -0.24698407988E+03  0.24698407988E+03  0.00000000000E+00 0.  1.
          6    1    1    2  501    0  0.14679730424E+03 -0.11244746851E+03  0.25333851043E+03  0.35819447591E+03  0.17300000000E+03 0.  1.
         -6    1    1    2    0  503 -0.14679730424E+03  0.11244746851E+03 -0.11215970524E+03  0.27695248904E+03  0.17300000000E+03 0.  1.
<mgrwt>
<rscale>  2 0.25322496E+03</rscale>
<asrwt>0</asrwt>
<pdfrwt beam="1">  1       21 0.59717367E-01 0.25322496E+03</pdfrwt>
<pdfrwt beam="2">  1       21 0.37997551E-01 0.25322496E+03</pdfrwt>
<totfact> 0.16900394E+04</totfact>
</mgrwt>
</event>
<event>
 4    1  0.4306168E+000  0.2628498E+03  0.7546771E-02  0.1105443E+00
         21   -1    0    0  501  502  0.00000000000E+00  0.00000000000E+00  0.13951183282E+04  0.13951183282E+04  0.00000000000E+00 0. -1.
         21   -1    0    0  502  503 -0.00000000000E+00 -0.00000000000E+00 -0.88580435720E+02  0.88580435720E+02  0.00000000000E+00 0.  1.
          6    1    1    2  501    0  0.28484294434E+02 -0.19583073644E+03  0.11458756761E+04  0.11756364648E+04  0.17300000000E+03 0. -1.
         -6    1    1    2    0  503 -0.28484294434E+02  0.19583073644E+03  0.16066221644E+03  0.30806229914E+03  0.17300000000E+03 0.  1.
<mgrwt>
<rscale>  2 0.26284983E+03</rscale>
<asrwt>0</asrwt>
<pdfrwt beam="1">  1       21 0.21463357E+00 0.26284983E+03</pdfrwt>
<pdfrwt beam="2">  1       21 0.13627760E-01 0.26284983E+03</pdfrwt>
<totfact> 0.47801261E+03</totfact>
</mgrwt>
</event>
<event>
 4    1  0.4306168E+000  0.1887227E+03  0.7546771E-02  0.1159618E+00
         21   -1    0    0  503  502  0.00000000000E+00  0.00000000000E+00  0.74101425593E+03  0.74101425593E+03  0.00000000000E+00 0.  1.
         21   -1    0    0  501  503 -0.00000000000E+00 -0.00000000000E+00 -0.54785194415E+02  0.54785194415E+02  0.00000000000E+00 0.  1.
          6    1    1    2  501    0 -0.13673584987E+01 -0.75401498511E+02  0.48248118666E+03  0.51807755319E+03  0.17300000000E+03 0.  1.
         -6    1    1    2    0  502  0.13673584987E+01  0.75401498511E+02  0.20374787486E+03  0.27772189715E+03  0.17300000000E+03 0.  1.
<mgrwt>
<rscale>  2 0.18872270E+03</rscale>
<asrwt>0</asrwt>
<pdfrwt beam="1">  1       21 0.11400219E+00 0.18872270E+03</pdfrwt>
<pdfrwt beam="2">  1       21 0.84284919E-02 0.18872270E+03</pdfrwt>
<totfact> 0.65736656E+04</totfact>
</mgrwt>
</event>
<event>
 4    1  0.4306168E+000  0.5076266E+03  0.7546771E-02  0.1011807E+00
         21   -1    0    0  503  502  0.00000000000E+00  0.00000000000E+00  0.11597913837E+04  0.11597913837E+04  0.00000000000E+00 0. -1.
         21   -1    0    0  501  503 -0.00000000000E+00 -0.00000000000E+00 -0.22538845522E+03  0.22538845522E+03  0.00000000000E+00 0. -1.
          6    1    1    2  501    0 -0.47315925148E+03  0.62257858215E+02  0.38459274231E+03  0.63686442482E+03  0.17300000000E+03 0. -1.
         -6    1    1    2    0  502  0.47315925148E+03 -0.62257858215E+02  0.54981018622E+03  0.74831541414E+03  0.17300000000E+03 0. -1.
<mgrwt>
<rscale>  2 0.50762655E+03</rscale>
<asrwt>0</asrwt>
<pdfrwt beam="1">  1       21 0.17842944E+00 0.50762655E+03</pdfrwt>
<pdfrwt beam="2">  1       21 0.34675148E-01 0.50762655E+03</pdfrwt>
<totfact> 0.12311314E+03</totfact>
</mgrwt>
</event>
<event>
 4    1  0.4306168E+000  0.1824179E+03  0.7546771E-02  0.1165483E+00
         21   -1    0    0  501  502  0.00000000000E+00  0.00000000000E+00  0.27520184401E+02  0.27520184401E+02  0.00000000000E+00 0. -1.
         21   -1    0    0  502  503 -0.00000000000E+00 -0.00000000000E+00 -0.13424215850E+04  0.13424215850E+04  0.00000000000E+00 0. -1.
          6    1    1    2  501    0 -0.43068880578E+02  0.38631264390E+02 -0.44163634973E+03  0.47782734169E+03  0.17300000000E+03 0. -1.
         -6    1    1    2    0  503  0.43068880578E+02 -0.38631264390E+02 -0.87326505087E+03  0.89211442771E+03  0.17300000000E+03 0. -1.
<mgrwt>
<rscale>  2 0.18241794E+03</rscale>
<asrwt>0</asrwt>
<pdfrwt beam="1">  1       21 0.42338746E-02 0.18241794E+03</pdfrwt>
<pdfrwt beam="2">  1       21 0.20652639E+00 0.18241794E+03</pdfrwt>
<totfact> 0.43771741E+04</totfact>
</mgrwt>
</event>
<event>
 4    1  0.4306168E+000  0.3041184E+03  0.7546771E-02  0.1083200E+00
         21   -1    0    0  501  502  0.00000000000E+00  0.00000000000E+00  0.10461111687E+03  0.10461111687E+03  0.00000000000E+00 0.  1.
         21   -1    0    0  502  503 -0.00000000000E+00 -0.00000000000E+00 -0.89098294539E+03  0.89098294539E+03  0.00000000000E+00 0. -1.
          6    1    1    2  501    0  0.15428369190E+03 -0.19686422276E+03 -0.43689935266E+03  0.53232417205E+03  0.17300000000E+03 0. -1.
         -6    1    1    2    0  503 -0.15428369190E+03  0.19686422276E+03 -0.34947247586E+03  0.46326989021E+03  0.17300000000E+03 0.  1.
<mgrwt>
<rscale>  2 0.30411836E+03</rscale>
<asrwt>0</asrwt>
<pdfrwt beam="1">  1       21 0.16094018E-01 0.30411836E+03</pdfrwt>
<pdfrwt beam="2">  1       21 0.13707430E+00 0.30411836E+03</pdfrwt>
<totfact> 0.12217639E+04</totfact>
</mgrwt>
</event>
<event>
 4    1  0.4306168E+000  0.3011897E+03  0.7546771E-02  0.1084647E+00
         21   -1    0    0  501  502  0.00000000000E+00  0.00000000000E+00  0.49928714601E+03  0.49928714601E+03  0.00000000000E+00 0.  1.
         21   -1    0    0  502  503 -0.00000000000E+00 -0.00000000000E+00 -0.24915086843E+03  0.24915086843E+03  0.00000000000E+00 0.  1.
          6    1    1    2  501    0  0.17072362498E+03  0.17787552980E+03  0.31979328130E+03  0.43929830752E+03  0.17300000000E+03 0.  1.
         -6    1    1    2    0  503 -0.17072362498E+03 -0.17787552980E+03 -0.69657003721E+02  0.30913970692E+03  0.17300000000E+03 0.  1.
<mgrwt>
<rscale>  2 0.30118974E+03</rscale>
<asrwt>0</asrwt>
<pdfrwt beam="1">  1       21 0.76813407E-01 0.30118974E+03</pdfrwt>
<pdfrwt beam="2">  1       21 0.38330903E-01 0.30118974E+03</pdfrwt>
<totfact> 0.92972379E+03</totfact>
</mgrwt>
</event>
<event>
 4    1  0.4306168E+000  0.2473518E+03  0.7546771E-02  0.1114990E+00
         21   -1    0    0  501  502  0.00000000000E+00  0.00000000000E+00  0.39408885230E+03  0.39408885230E+03  0.00000000000E+00 0.  1.
         21   -1    0    0  502  503 -0.00000000000E+00 -0.00000000000E+00 -0.15577712465E+03  0.15577712465E+03  0.00000000000E+00 0. -1.
          6    1    1    2  501    0 -0.90800201639E+02 -0.15168803376E+03  0.10318752767E+03  0.26801231701E+03  0.17300000000E+03 0. -1.
         -6    1    1    2    0  503  0.90800201639E+02  0.15168803376E+03  0.13512419998E+03  0.28185365994E+03  0.17300000000E+03 0.  1.
<mgrwt>
<rscale>  2 0.24735185E+03</rscale>
<asrwt>0</asrwt>
<pdfrwt beam="1">  1       21 0.60629054E-01 0.24735185E+03</pdfrwt>
<pdfrwt beam="2">  1       21 0.23965712E-01 0.24735185E+03</pdfrwt>
<totfact> 0.40533452E+04</totfact>
</mgrwt>
</event>
<event>
 4    1  0.4306168E+000  0.2073117E+03  0.7546771E-02  0.1143713E+00
         21   -1    0    0  503  502  0.00000000000E+00  0.00000000000E+00  0.45791040452E+02  0.45791040452E+02  0.00000000000E+00 0.  1.
         21   -1    0    0  501  503 -0.00000000000E+00 -0.00000000000E+00 -0.10380747323E+04  0.10380747323E+04  0.00000000000E+00 0.  1.
          6    1    1    2  501    0 -0.69092548573E+02  0.90968955237E+02 -0.66392618909E+03  0.69554016106E+03  0.17300000000E+03 0.  1.
         -6    1    1    2    0  502  0.69092548573E+02 -0.90968955237E+02 -0.32835750280E+03  0.38832561174E+03  0.17300000000E+03 0.  1.
<mgrwt>
<rscale>  2 0.20731168E+03</rscale>
<asrwt>0</asrwt>
<pdfrwt beam="1">  1       21 0.70447750E-02 0.20731168E+03</pdfrwt>
<pdfrwt beam="2">  1       21 0.15970382E+00 0.20731168E+03</pdfrwt>
<totfact> 0.37506733E+04</totfact>
</mgrwt>
</event>
<event>
 4    1  0.4306168E+000  0.2104183E+03  0.7546771E-02  0.1141235E+00
         21   -1    0    0  503  502  0.00000000000E+00  0.00000000000E+00  0.12474442281E+03  0.12474442281E+03  0.00000000000E+00 0.  1.
         21   -1    0    0  501  503 -0.00000000000E+00 -0.00000000000E+00 -0.36778010564E+03  0.36778010564E+03  0.00000000000E+00 0.  1.
          6    1    1    2  501    0  0.10779382811E+03  0.52223938616E+02 -0.16754508273E+03  0.26897435545E+03  0.17300000000E+03 0.  1.
         -6    1    1    2    0  502 -0.10779382811E+03 -0.52223938616E+02 -0.75490600101E+02  0.22355017300E+03  0.17300000000E+03 0.  1.
<mgrwt>
<rscale>  2 0.21041827E+03</rscale>
<asrwt>0</asrwt>
<pdfrwt beam="1">  1       21 0.19191450E-01 0.21041827E+03</pdfrwt>
<pdfrwt beam="2">  1       21 0.56581553E-01 0.21041827E+03</pdfrwt>
<totfact> 0.72650434E+04</totfact>
</mgrwt>
</event>
<event>
 4    1  0.4306168E+000  0.2955703E+03  0.7546771E-02  0.1087476E+00
         21   -1    0    0  501  502  0.00000000000E+00  0.00000000000E+00  0.19527453532E+03  0.19527453532E+03  0.00000000000E+00 0. -1.
         21   -1    0    0  502  503 -0.00000000000E+00 -0.00000000000E+00 -0.48620423687E+03  0.48620423687E+03  0.00000000000E+00 0.  1.
          6    1    1    2  501    0  0.39979458515E+02  0.23629316219E+03 -0.49177892503E+02  0.29963357741E+03  0.17300000000E+03 0. -1.
         -6    1    1    2    0  503 -0.39979458515E+02 -0.23629316219E+03 -0.24175180905E+03  0.38184519478E+03  0.17300000000E+03 0.  1.
<mgrwt>
<rscale>  2 0.29557032E+03</rscale>
<asrwt>0</asrwt>
<pdfrwt beam="1">  1       21 0.30042237E-01 0.29557032E+03</pdfrwt>
<pdfrwt beam="2">  1       21 0.74800651E-01 0.29557032E+03</pdfrwt>
<totfact> 0.16105898E+04</totfact>
</mgrwt>
</event>
<event>
 4    1  0.4306168E+000  0.1848215E+03  0.7546771E-02  0.1163217E+00
         21   -1    0    0  503  502  0.00000000000E+00  0.00000000000E+00  0.59235064628E+03  0.59235064628E+03  0.00000000000E+00 0. -1.
         21   -1    0    0  501  503 -0.00000000000E+00 -0.00000000000E+00 -0.28484851710E+03  0.28484851710E+03  0.00000000000E+00 0. -1.
          6    1    1    2  501    0 -0.41323670566E+02  0.50222800217E+02 -0.23794382536E+03  0.30129095479E+03  0.17300000000E+03 0. -1.
         -6    1    1    2    0  502  0.41323670566E+02 -0.50222800217E+02  0.54544595453E+03  0.57590820859E+03  0.17300000000E+03 0. -1.
<mgrwt>
<rscale>  2 0.18482147E+03</rscale>
<asrwt>0</asrwt>
<pdfrwt beam="1">  1       21 0.91130868E-01 0.18482147E+03</pdfrwt>
<pdfrwt beam="2">  1       21 0.43822849E-01 0.18482147E+03</pdfrwt>
<totfact> 0.51380873E+03</totfact>
</mgrwt>
</event>
<event>
 4    1  0.4306168E+000  0.1972591E+03  0.7546771E-02  0.1152072E+00
         21   -1    0    0  503  502  0.00000000000E+00  0.00000000000E+00  0.54762409547E+03  0.54762409547E+03  0.00000000000E+00 0. -1.
         21   -1    0    0  501  503 -0.00000000000E+00 -0.00000000000E+00 -0.19943911819E+03  0.19943911819E+03  0.00000000000E+00 0. -1.
          6    1    1    2  501    0  0.94589649305E+02  0.59116384936E+01 -0.12560196260E+03  0.23385252240E+03  0.17300000000E+03 0. -1.
         -6    1    1    2    0  502 -0.94589649305E+02 -0.59116384936E+01  0.47378693988E+03  0.51321069126E+03  0.17300000000E+03 0. -1.
<mgrwt>
<rscale>  2 0.19725909E+03</rscale>
<asrwt>0</asrwt>
<pdfrwt beam="1">  1       21 0.84249860E-01 0.19725909E+03</pdfrwt>
<pdfrwt beam="2">  1       21 0.30682941E-01 0.19725909E+03</pdfrwt>
<totfact> 0.12431846E+04</totfact>
</mgrwt>
</event>
<event>
 4    1  0.4306168E+000  0.1974001E+03  0.7546771E-02  0.1151951E+00
         21   -1    0    0  503  502  0.00000000000E+00  0.00000000000E+00  0.80376786521E+03  0.80376786521E+03  0.00000000000E+00 0.  1.
         21   -1    0    0  501  503 -0.00000000000E+00 -0.00000000000E+00 -0.49617048101E+03  0.49617048101E+03  0.00000000000E+00 0.  1.
          6    1    1    2  501    0 -0.69734753612E+01 -0.94811282673E+02 -0.46360062100E+03  0.50387731093E+03  0.17300000000E+03 0.  1.
         -6    1    1    2    0  502  0.69734753612E+01  0.94811282673E+02  0.77119800520E+03  0.79606103529E+03  0.17300000000E+03 0.  1.
<mgrwt>
<rscale>  2 0.19740012E+03</rscale>
<asrwt>0</asrwt>
<pdfrwt beam="1">  1       21 0.12365659E+00 0.19740012E+03</pdfrwt>
<pdfrwt beam="2">  1       21 0.76333920E-01 0.19740012E+03</pdfrwt>
<totfact> 0.74533007E+02</totfact>
</mgrwt>
</event>
<event>
 4    1  0.4306168E+000  0.1883094E+03  0.7546771E-02  0.1159995E+00
         21   -1    0    0  503  502  0.00000000000E+00  0.00000000000E+00  0.20790730120E+03  0.20790730120E+03  0.00000000000E+00 0.  1.
         21   -1    0    0  501  503 -0.00000000000E+00 -0.00000000000E+00 -0.21803346872E+03  0.21803346872E+03  0.00000000000E+00 0.  1.
          6    1    1    2  501    0 -0.28462175154E+02 -0.68712078227E+02 -0.10444057951E+03  0.21533295093E+03  0.17300000000E+03 0.  1.
         -6    1    1    2    0  502  0.28462175154E+02  0.68712078227E+02  0.94314411994E+02  0.21060781899E+03  0.17300000000E+03 0.  1.
<mgrwt>
<rscale>  2 0.18830944E+03</rscale>
<asrwt>0</asrwt>
<pdfrwt beam="1">  1       21 0.31985739E-01 0.18830944E+03</pdfrwt>
<pdfrwt beam="2">  1       21 0.33543611E-01 0.18830944E+03</pdfrwt>
<totfact> 0.80611935E+04</totfact>
</mgrwt>
</event>
<event>
 4    1  0.4306168E+000  0.1985792E+03  0.7546771E-02  0.1150943E+00
         21   -1    0    0  501  502  0.00000000000E+00  0.00000000000E+00  0.78550118017E+03  0.78550118017E+03  0.00000000000E+00 0. -1.
         21   -1    0    0  502  503 -0.00000000000E+00 -0.00000000000E+00 -0.52395666702E+02  0.52395666702E+02  0.00000000000E+00 0. -1.
          6    1    1    2  501    0 -0.72618190447E+02  0.65048279102E+02  0.45227716650E+03  0.49395173401E+03  0.17300000000E+03 0. -1.
         -6    1    1    2    0  503  0.72618190447E+02 -0.65048279102E+02  0.28082834697E+03  0.34394511286E+03  0.17300000000E+03 0. -1.
<mgrwt>
<rscale>  2 0.19857915E+03</rscale>
<asrwt>0</asrwt>
<pdfrwt beam="1">  1       21 0.12084633E+00 0.19857915E+03</pdfrwt>
<pdfrwt beam="2">  1       21 0.80608724E-02 0.19857915E+03</pdfrwt>
<totfact> 0.61275377E+04</totfact>
</mgrwt>
</event>
<event>
 4    1  0.4306168E+000  0.1784948E+03  0.7546771E-02  0.1169268E+00
         21   -1    0    0  503  502  0.00000000000E+00  0.00000000000E+00  0.43943583960E+02  0.43943583960E+02  0.00000000000E+00 0. -1.
         21   -1    0    0  501  503 -0.00000000000E+00 -0.00000000000E+00 -0.98052861983E+03  0.98052861983E+03  0.00000000000E+00 0. -1.
          6    1    1    2  501    0 -0.39998152623E+02 -0.18208120359E+02 -0.72977035463E+03  0.75128234263E+03  0.17300000000E+03 0. -1.
         -6    1    1    2    0  502  0.39998152623E+02  0.18208120359E+02 -0.20681468124E+03  0.27318986115E+03  0.17300000000E+03 0. -1.
<mgrwt>
<rscale>  2 0.17849478E+03</rscale>
<asrwt>0</asrwt>
<pdfrwt beam="1">  1       21 0.67605508E-02 0.17849478E+03</pdfrwt>
<pdfrwt beam="2">  1       21 0.15085057E+00 0.17849478E+03</pdfrwt>
<totfact> 0.47686388E+04</totfact>
</mgrwt>
</event>
<event>
 4    1  0.4306168E+000  0.1748519E+03  0.7546771E-02  0.1172880E+00
         21   -1    0    0  501  502  0.00000000000E+00  0.00000000000E+00  0.80548915364E+03  0.80548915364E+03  0.00000000000E+00 0.  1.
         21   -1    0    0  502  503 -0.00000000000E+00 -0.00000000000E+00 -0.41502080946E+02  0.41502080946E+02  0.00000000000E+00 0.  1.
          6    1    1    2  501    0 -0.13625788991E+02 -0.21413393588E+02  0.50578325137E+03  0.53515408334E+03  0.17300000000E+03 0.  1.
         -6    1    1    2    0  503  0.13625788991E+02  0.21413393588E+02  0.25820382133E+03  0.31183715125E+03  0.17300000000E+03 0.  1.
<mgrwt>
<rscale>  2 0.17485192E+03</rscale>
<asrwt>0</asrwt>
<pdfrwt beam="1">  1       21 0.12392140E+00 0.17485192E+03</pdfrwt>
<pdfrwt beam="2">  1       21 0.63849361E-02 0.17485192E+03</pdfrwt>
<totfact> 0.87106774E+04</totfact>
</mgrwt>
</event>
<event>
 4    1  0.4306168E+000  0.1917528E+03  0.7546771E-02  0.1156890E+00
         21   -1    0    0  503  502  0.00000000000E+00  0.00000000000E+00  0.23094662989E+03  0.23094662989E+03  0.00000000000E+00 0. -1.
         21   -1    0    0  501  503 -0.00000000000E+00 -0.00000000000E+00 -0.33156998637E+03  0.33156998637E+03  0.00000000000E+00 0. -1.
          6    1    1    2  501    0  0.81759399983E+02 -0.12471501539E+02 -0.25309643143E+03  0.31753258327E+03  0.17300000000E+03 0. -1.
         -6    1    1    2    0  502 -0.81759399983E+02  0.12471501539E+02  0.15247307495E+03  0.24498403299E+03  0.17300000000E+03 0. -1.
<mgrwt>
<rscale>  2 0.19175280E+03</rscale>
<asrwt>0</asrwt>
<pdfrwt beam="1">  1       21 0.35530251E-01 0.19175280E+03</pdfrwt>
<pdfrwt beam="2">  1       21 0.51010767E-01 0.19175280E+03</pdfrwt>
<totfact> 0.27927037E+04</totfact>
</mgrwt>
</event>
<event>
 4    1  0.4306168E+000  0.1872466E+03  0.7546771E-02  0.1160968E+00
         21   -1    0    0  501  502  0.00000000000E+00  0.00000000000E+00  0.30327727716E+03  0.30327727716E+03  0.00000000000E+00 0. -1.
         21   -1    0    0  502  503 -0.00000000000E+00 -0.00000000000E+00 -0.11563276609E+03  0.11563276609E+03  0.00000000000E+00 0. -1.
          6    1    1    2  501    0  0.24441337701E+02 -0.67341609338E+02  0.90755256073E+02  0.20808120492E+03  0.17300000000E+03 0. -1.
         -6    1    1    2    0  503 -0.24441337701E+02  0.67341609338E+02  0.96889254999E+02  0.21082883833E+03  0.17300000000E+03 0. -1.
<mgrwt>
<rscale>  2 0.18724655E+03</rscale>
<asrwt>0</asrwt>
<pdfrwt beam="1">  1       21 0.46658042E-01 0.18724655E+03</pdfrwt>
<pdfrwt beam="2">  1       21 0.17789656E-01 0.18724655E+03</pdfrwt>
<totfact> 0.12643866E+05</totfact>
</mgrwt>
</event>
<event>
 4    1  0.4306168E+000  0.1918277E+03  0.7546771E-02  0.1156823E+00
         21   -1    0    0  501  502  0.00000000000E+00  0.00000000000E+00  0.17595946750E+04  0.17595946750E+04  0.00000000000E+00 0.  1.
         21   -1    0    0  502  503 -0.00000000000E+00 -0.00000000000E+00 -0.12363887518E+03  0.12363887518E+03  0.00000000000E+00 0.  1.
          6    1    1    2  501    0  0.20655121006E+02 -0.80263418916E+02  0.16762742260E+04  0.16872146074E+04  0.17300000000E+03 0.  1.
         -6    1    1    2    0  503 -0.20655121006E+02  0.80263418916E+02 -0.40318426228E+02  0.19601894279E+03  0.17300000000E+03 0.  1.
<mgrwt>
<rscale>  2 0.19182766E+03</rscale>
<asrwt>0</asrwt>
<pdfrwt beam="1">  1       21 0.27070685E+00 0.19182766E+03</pdfrwt>
<pdfrwt beam="2">  1       21 0.19021367E-01 0.19182766E+03</pdfrwt>
<totfact> 0.12776503E+03</totfact>
</mgrwt>
</event>
<event>
 4    1  0.4306168E+000  0.1957553E+03  0.7546771E-02  0.1153370E+00
         21   -1    0    0  501  502  0.00000000000E+00  0.00000000000E+00  0.10280531416E+03  0.10280531416E+03  0.00000000000E+00 0.  1.
         21   -1    0    0  502  503 -0.00000000000E+00 -0.00000000000E+00 -0.49741939878E+03  0.49741939878E+03  0.00000000000E+00 0.  1.
          6    1    1    2  501    0  0.74805837529E+02  0.52869923872E+02 -0.47058046981E+02  0.20133206889E+03  0.17300000000E+03 0.  1.
         -6    1    1    2    0  503 -0.74805837529E+02 -0.52869923872E+02 -0.34755603764E+03  0.39889264405E+03  0.17300000000E+03 0.  1.
<mgrwt>
<rscale>  2 0.19575531E+03</rscale>
<asrwt>0</asrwt>
<pdfrwt beam="1">  1       21 0.15816202E-01 0.19575531E+03</pdfrwt>
<pdfrwt beam="2">  1       21 0.76526061E-01 0.19575531E+03</pdfrwt>
<totfact> 0.54047053E+04</totfact>
</mgrwt>
</event>
<event>
 4    1  0.4306168E+000  0.1820255E+03  0.7546771E-02  0.1165857E+00
         21   -1    0    0  501  502  0.00000000000E+00  0.00000000000E+00  0.75101074358E+02  0.75101074358E+02  0.00000000000E+00 0.  1.
         21   -1    0    0  502  503 -0.00000000000E+00 -0.00000000000E+00 -0.54212696394E+03  0.54212696394E+03  0.00000000000E+00 0. -1.
          6    1    1    2  501    0  0.37556370202E+01 -0.56481803737E+02 -0.36668277580E+03  0.40937703530E+03  0.17300000000E+03 0. -1.
         -6    1    1    2    0  503 -0.37556370202E+01  0.56481803737E+02 -0.10034311378E+03  0.20785100299E+03  0.17300000000E+03 0.  1.
<mgrwt>
<rscale>  2 0.18202554E+03</rscale>
<asrwt>0</asrwt>
<pdfrwt beam="1">  1       21 0.11554011E-01 0.18202554E+03</pdfrwt>
<pdfrwt beam="2">  1       21 0.83404151E-01 0.18202554E+03</pdfrwt>
<totfact> 0.78922450E+04</totfact>
</mgrwt>
</event>
<event>
 4    1  0.4306168E+000  0.1905931E+03  0.7546771E-02  0.1157927E+00
         21   -1    0    0  503  502  0.00000000000E+00  0.00000000000E+00  0.46065169194E+03  0.46065169194E+03  0.00000000000E+00 0.  1.
         21   -1    0    0  501  503 -0.00000000000E+00 -0.00000000000E+00 -0.14686224003E+03  0.14686224003E+03  0.00000000000E+00 0. -1.
          6    1    1    2  501    0 -0.72247380527E+02 -0.34308193792E+02 -0.49805756351E+02  0.19699327278E+03  0.17300000000E+03 0. -1.
         -6    1    1    2    0  502  0.72247380527E+02  0.34308193792E+02  0.36359520826E+03  0.41052065919E+03  0.17300000000E+03 0.  1.
<mgrwt>
<rscale>  2 0.19059312E+03</rscale>
<asrwt>0</asrwt>
<pdfrwt beam="1">  1       21 0.70869490E-01 0.19059312E+03</pdfrwt>
<pdfrwt beam="2">  1       21 0.22594191E-01 0.19059312E+03</pdfrwt>
<totfact> 0.33135329E+04</totfact>
</mgrwt>
</event>
<event>
 4    1  0.4306168E+000  0.3313644E+03  0.7546771E-02  0.1070535E+00
         21   -1    0    0  503  502  0.00000000000E+00  0.00000000000E+00  0.65708425655E+03  0.65708425655E+03  0.00000000000E+00 0. -1.
         21   -1    0    0  501  503 -0.00000000000E+00 -0.00000000000E+00 -0.16786612274E+03  0.16786612274E+03  0.00000000000E+00 0.  1.
          6    1    1    2  501    0  0.24881371920E+03  0.13403391470E+03  0.27237527867E+03  0.42894131252E+03  0.17300000000E+03 0. -1.
         -6    1    1    2    0  502 -0.24881371920E+03 -0.13403391470E+03  0.21684285514E+03  0.39600906678E+03  0.17300000000E+03 0. -1.
<mgrwt>
<rscale>  2 0.33136439E+03</rscale>
<asrwt>0</asrwt>
<pdfrwt beam="1">  1       21 0.10108988E+00 0.33136439E+03</pdfrwt>
<pdfrwt beam="2">  1       21 0.25825558E-01 0.33136439E+03</pdfrwt>
<totfact> 0.10566689E+04</totfact>
</mgrwt>
</event>
<event>
 4    1  0.4306168E+000  0.1768886E+03  0.7546771E-02  0.1170849E+00
         21   -1    0    0  501  502  0.00000000000E+00  0.00000000000E+00  0.46292996241E+03  0.46292996241E+03  0.00000000000E+00 0. -1.
         21   -1    0    0  502  503 -0.00000000000E+00 -0.00000000000E+00 -0.10383758393E+03  0.10383758393E+03  0.00000000000E+00 0. -1.
          6    1    1    2  501    0  0.36674158353E+02 -0.39490617009E+01  0.34697694812E+03  0.38946449326E+03  0.17300000000E+03 0. -1.
         -6    1    1    2    0  503 -0.36674158353E+02  0.39490617009E+01  0.12115430360E+02  0.17730305308E+03  0.17300000000E+03 0. -1.
<mgrwt>
<rscale>  2 0.17688863E+03</rscale>
<asrwt>0</asrwt>
<pdfrwt beam="1">  1       21 0.71219993E-01 0.17688863E+03</pdfrwt>
<pdfrwt beam="2">  1       21 0.15975013E-01 0.17688863E+03</pdfrwt>
<totfact> 0.62812996E+04</totfact>
</mgrwt>
</event>
<event>
 4    1  0.4306168E+000  0.1845351E+03  0.7546771E-02  0.1163485E+00
         21   -1    0    0  501  502  0.00000000000E+00  0.00000000000E+00  0.29022330370E+03  0.29022330370E+03  0.00000000000E+00 0. -1.
         21   -1    0    0  502  503 -0.00000000000E+00 -0.00000000000E+00 -0.22946614102E+03  0.22946614102E+03  0.00000000000E+00 0. -1.
          6    1    1    2  501    0  0.49333499148E+02 -0.41114434702E+02  0.21202163141E+03  0.28108070561E+03  0.17300000000E+03 0. -1.
         -6    1    1    2    0  503 -0.49333499148E+02  0.41114434702E+02 -0.15126446873E+03  0.23860873911E+03  0.17300000000E+03 0. -1.
<mgrwt>
<rscale>  2 0.18453507E+03</rscale>
<asrwt>0</asrwt>
<pdfrwt beam="1">  1       21 0.44649739E-01 0.18453507E+03</pdfrwt>
<pdfrwt beam="2">  1       21 0.35302483E-01 0.18453507E+03</pdfrwt>
<totfact> 0.37404567E+04</totfact>
</mgrwt>
</event>
<event>
 4    1  0.4306168E+000  0.1997725E+03  0.7546771E-02  0.1149931E+00
         21   -1    0    0  501  502  0.00000000000E+00  0.00000000000E+00  0.43642654610E+02  0.43642654610E+02  0.00000000000E+00 0.  1.
         21   -1    0    0  502  503 -0.00000000000E+00 -0.00000000000E+00 -0.10146391414E+04  0.10146391414E+04  0.00000000000E+00 0.  1.
          6    1    1    2  501    0 -0.99471859560E+02  0.92408824178E+01 -0.31922403236E+03  0.37658070528E+03  0.17300000000E+03 0.  1.
         -6    1    1    2    0  503  0.99471859560E+02 -0.92408824178E+01 -0.65177245445E+03  0.68170109075E+03  0.17300000000E+03 0.  1.
<mgrwt>
<rscale>  2 0.19977248E+03</rscale>
<asrwt>0</asrwt>
<pdfrwt beam="1">  1       21 0.67142549E-02 0.19977248E+03</pdfrwt>
<pdfrwt beam="2">  1       21 0.15609832E+00 0.19977248E+03</pdfrwt>
<totfact> 0.43531773E+04</totfact>
</mgrwt>
</event>
<event>
 4    1  0.4306168E+000  0.2348072E+03  0.7546771E-02  0.1123301E+00
         21   -1    0    0  501  502  0.00000000000E+00  0.00000000000E+00  0.55104690973E+03  0.55104690973E+03  0.00000000000E+00 0.  1.
         21   -1    0    0  502  503 -0.00000000000E+00 -0.00000000000E+00 -0.13701034314E+03  0.13701034314E+03  0.00000000000E+00 0. -1.
          6    1    1    2  501    0  0.10171216470E+02  0.15843606209E+03  0.38569274657E+03  0.45154549513E+03  0.17300000000E+03 0.  1.
         -6    1    1    2    0  503 -0.10171216470E+02 -0.15843606209E+03  0.28343820023E+02  0.23651175774E+03  0.17300000000E+03 0. -1.
<mgrwt>
<rscale>  2 0.23480724E+03</rscale>
<asrwt>0</asrwt>
<pdfrwt beam="1">  1       21 0.84776447E-01 0.23480724E+03</pdfrwt>
<pdfrwt beam="2">  1       21 0.21078515E-01 0.23480724E+03</pdfrwt>
<totfact> 0.24640827E+04</totfact>
</mgrwt>
</event>
<event>
 4    1  0.4306168E+000  0.1875760E+03  0.7546771E-02  0.1160666E+00
         21   -1    0    0  501  502  0.00000000000E+00  0.00000000000E+00  0.11020669604E+04  0.11020669604E+04  0.00000000000E+00 0.  1.
         21   -1    0    0  502  503 -0.00000000000E+00 -0.00000000000E+00 -0.32015618085E+02  0.32015618085E+02  0.00000000000E+00 0. -1.
          6    1    1    2  501    0  0.25926417340E+02  0.67702110923E+02  0.50505005416E+03  0.53875812026E+03  0.17300000000E+03 0. -1.
         -6    1    1    2    0  503 -0.25926417340E+02 -0.67702110923E+02  0.56500128811E+03  0.59532445817E+03  0.17300000000E+03 0. -1.
<mgrwt>
<rscale>  2 0.18757600E+03</rscale>
<asrwt>0</asrwt>
<pdfrwt beam="1">  1       21 0.16954873E+00 0.18757600E+03</pdfrwt>
<pdfrwt beam="2">  1       21 0.49254806E-02 0.18757600E+03</pdfrwt>
<totfact> 0.59480495E+04</totfact>
</mgrwt>
</event>
<event>
 4    1  0.4306168E+000  0.2164304E+03  0.7546771E-02  0.1136573E+00
         21   -1    0    0  501  502  0.00000000000E+00  0.00000000000E+00  0.36562466862E+03  0.36562466862E+03  0.00000000000E+00 0.  1.
         21   -1    0    0  502  503 -0.00000000000E+00 -0.00000000000E+00 -0.15233437975E+03  0.15233437975E+03  0.00000000000E+00 0.  1.
          6    1    1    2  501    0  0.26799255639E+02  0.12725929158E+03  0.20990819652E+03  0.30150220292E+03  0.17300000000E+03 0.  1.
         -6    1    1    2    0  503 -0.26799255639E+02 -0.12725929158E+03  0.33820923514E+01  0.21645684546E+03  0.17300000000E+03 0.  1.
<mgrwt>
<rscale>  2 0.21643042E+03</rscale>
<asrwt>0</asrwt>
<pdfrwt beam="1">  1       21 0.56249949E-01 0.21643042E+03</pdfrwt>
<pdfrwt beam="2">  1       21 0.23436058E-01 0.21643042E+03</pdfrwt>
<totfact> 0.50363962E+04</totfact>
</mgrwt>
</event>
<event>
 4    1  0.4306168E+000  0.1886586E+03  0.7546771E-02  0.1159677E+00
         21   -1    0    0  503  502  0.00000000000E+00  0.00000000000E+00  0.44651773158E+02  0.44651773158E+02  0.00000000000E+00 0.  1.
         21   -1    0    0  501  503 -0.00000000000E+00 -0.00000000000E+00 -0.89153381242E+03  0.89153381242E+03  0.00000000000E+00 0.  1.
          6    1    1    2  501    0  0.70046684454E+02 -0.27505032958E+02 -0.57578306391E+03  0.60590279875E+03  0.17300000000E+03 0.  1.
         -6    1    1    2    0  502 -0.70046684454E+02  0.27505032958E+02 -0.27109897535E+03  0.33028278683E+03  0.17300000000E+03 0.  1.
<mgrwt>
<rscale>  2 0.18865859E+03</rscale>
<asrwt>0</asrwt>
<pdfrwt beam="1">  1       21 0.68695036E-02 0.18865859E+03</pdfrwt>
<pdfrwt beam="2">  1       21 0.13715905E+00 0.18865859E+03</pdfrwt>
<totfact> 0.59071027E+04</totfact>
</mgrwt>
</event>
<event>
 4    1  0.4306168E+000  0.1810572E+03  0.7546771E-02  0.1166784E+00
         21   -1    0    0  501  502  0.00000000000E+00  0.00000000000E+00  0.46558597519E+02  0.46558597519E+02  0.00000000000E+00 0. -1.
         21   -1    0    0  502  503 -0.00000000000E+00 -0.00000000000E+00 -0.18029394020E+04  0.18029394020E+04  0.00000000000E+00 0. -1.
          6    1    1    2  501    0 -0.53249419087E+02  0.41480554102E+01 -0.15625012401E+03  0.23915645141E+03  0.17300000000E+03 0. -1.
         -6    1    1    2    0  503  0.53249419087E+02 -0.41480554102E+01 -0.16001306805E+04  0.16103415481E+04  0.17300000000E+03 0. -1.
<mgrwt>
<rscale>  2 0.18105719E+03</rscale>
<asrwt>0</asrwt>
<pdfrwt beam="1">  1       21 0.71628603E-02 0.18105719E+03</pdfrwt>
<pdfrwt beam="2">  1       21 0.27737533E+00 0.18105719E+03</pdfrwt>
<totfact> 0.67845801E+03</totfact>
</mgrwt>
</event>
<event>
 4    1  0.4306168E+000  0.2168603E+03  0.7546771E-02  0.1136246E+00
         21   -1    0    0  503  502  0.00000000000E+00  0.00000000000E+00  0.51825354171E+03  0.51825354171E+03  0.00000000000E+00 0. -1.
         21   -1    0    0  501  503 -0.00000000000E+00 -0.00000000000E+00 -0.23151099617E+03  0.23151099617E+03  0.00000000000E+00 0. -1.
          6    1    1    2  501    0  0.80009209616E+02  0.10343075131E+03 -0.14894939750E+03  0.26308613980E+03  0.17300000000E+03 0. -1.
         -6    1    1    2    0  502 -0.80009209616E+02 -0.10343075131E+03  0.43569194303E+03  0.48667839808E+03  0.17300000000E+03 0. -1.
<mgrwt>
<rscale>  2 0.21686031E+03</rscale>
<asrwt>0</asrwt>
<pdfrwt beam="1">  1       21 0.79731314E-01 0.21686031E+03</pdfrwt>
<pdfrwt beam="2">  1       21 0.35617076E-01 0.21686031E+03</pdfrwt>
<totfact> 0.10363681E+04</totfact>
</mgrwt>
</event>
<event>
 4    1  0.4306168E+000  0.2322767E+03  0.7546771E-02  0.1125048E+00
         21   -1    0    0  501  502  0.00000000000E+00  0.00000000000E+00  0.13285495668E+03  0.13285495668E+03  0.00000000000E+00 0.  1.
         21   -1    0    0  502  503 -0.00000000000E+00 -0.00000000000E+00 -0.65533380118E+03  0.65533380118E+03  0.00000000000E+00 0. -1.
          6    1    1    2  501    0  0.85688591267E+02 -0.12915461991E+03 -0.18202598018E+02  0.23298880894E+03  0.17300000000E+03 0.  1.
         -6    1    1    2    0  503 -0.85688591267E+02  0.12915461991E+03 -0.50427624648E+03  0.55519994892E+03  0.17300000000E+03 0. -1.
<mgrwt>
<rscale>  2 0.23227667E+03</rscale>
<asrwt>0</asrwt>
<pdfrwt beam="1">  1       21 0.20439224E-01 0.23227667E+03</pdfrwt>
<pdfrwt beam="2">  1       21 0.10082059E+00 0.23227667E+03</pdfrwt>
<totfact> 0.17424146E+04</totfact>
</mgrwt>
</event>
<event>
 4    1  0.4306168E+000  0.1790897E+03  0.7546771E-02  0.1168687E+00
         21   -1    0    0  501  502  0.00000000000E+00  0.00000000000E+00  0.32641219295E+03  0.32641219295E+03  0.00000000000E+00 0. -1.
         21   -1    0    0  502  503 -0.00000000000E+00 -0.00000000000E+00 -0.81937308222E+03  0.81937308222E+03  0.00000000000E+00 0. -1.
          6    1    1    2  501    0 -0.33831644775E+02  0.31615532182E+02  0.29096478343E+03  0.34166303174E+03  0.17300000000E+03 0. -1.
         -6    1    1    2    0  503  0.33831644775E+02 -0.31615532182E+02 -0.78392567270E+03  0.80412224343E+03  0.17300000000E+03 0. -1.
<mgrwt>
<rscale>  2 0.17908970E+03</rscale>
<asrwt>0</asrwt>
<pdfrwt beam="1">  1       21 0.50217261E-01 0.17908970E+03</pdfrwt>
<pdfrwt beam="2">  1       21 0.12605740E+00 0.17908970E+03</pdfrwt>
<totfact> 0.17871168E+03</totfact>
</mgrwt>
</event>
<event>
 4    1  0.4306168E+000  0.3313976E+03  0.7546771E-02  0.1070520E+00
         21   -1    0    0  503  502  0.00000000000E+00  0.00000000000E+00  0.61316364331E+03  0.61316364331E+03  0.00000000000E+00 0.  1.
         21   -1    0    0  501  503 -0.00000000000E+00 -0.00000000000E+00 -0.33264059960E+03  0.33264059960E+03  0.00000000000E+00 0.  1.
          6    1    1    2  501    0 -0.77000217511E+02  0.27196752543E+03 -0.18101549512E+03  0.37761220565E+03  0.17300000000E+03 0.  1.
         -6    1    1    2    0  502  0.77000217511E+02 -0.27196752543E+03  0.46153853883E+03  0.56819203726E+03  0.17300000000E+03 0.  1.
<mgrwt>
<rscale>  2 0.33139760E+03</rscale>
<asrwt>0</asrwt>
<pdfrwt beam="1">  1       21 0.94332868E-01 0.33139760E+03</pdfrwt>
<pdfrwt beam="2">  1       21 0.51175477E-01 0.33139760E+03</pdfrwt>
<totfact> 0.31242941E+03</totfact>
</mgrwt>
</event>
<event>
 4    1  0.4306168E+000  0.1807404E+03  0.7546771E-02  0.1167088E+00
         21   -1    0    0  501  502  0.00000000000E+00  0.00000000000E+00  0.16776274037E+03  0.16776274037E+03  0.00000000000E+00 0.  1.
         21   -1    0    0  502  503 -0.00000000000E+00 -0.00000000000E+00 -0.33970038515E+03  0.33970038515E+03  0.00000000000E+00 0.  1.
          6    1    1    2  501    0 -0.51209174893E+02  0.10756291761E+02  0.79790618314E+02  0.19756927944E+03  0.17300000000E+03 0.  1.
         -6    1    1    2    0  503  0.51209174893E+02 -0.10756291761E+02 -0.25172826309E+03  0.30989384609E+03  0.17300000000E+03 0.  1.
<mgrwt>
<rscale>  2 0.18074036E+03</rscale>
<asrwt>0</asrwt>
<pdfrwt beam="1">  1       21 0.25809652E-01 0.18074036E+03</pdfrwt>
<pdfrwt beam="2">  1       21 0.52261598E-01 0.18074036E+03</pdfrwt>
<totfact> 0.49781731E+04</totfact>
</mgrwt>
</event>
<event>
 4    1  0.4306168E+000  0.2816859E+03  0.7546771E-02  0.1094772E+00
         21   -1    0    0  501  502  0.00000000000E+00  0.00000000000E+00  0.27381280246E+04  0.27381280246E+04  0.00000000000E+00 0. -1.
         21   -1    0    0  502  503 -0.00000000000E+00 -0.00000000000E+00 -0.10902864073E+03  0.10902864073E+03  0.00000000000E+00 0. -1.
          6    1    1    2  501    0  0.19155201995E+03  0.11280863622E+03  0.25343591590E+04  0.25499653549E+04  0.17300000000E+03 0. -1.
         -6    1    1    2    0  503 -0.19155201995E+03 -0.11280863622E+03  0.94740224885E+02  0.29719131038E+03  0.17300000000E+03 0. -1.
<mgrwt>
<rscale>  2 0.28168593E+03</rscale>
<asrwt>0</asrwt>
<pdfrwt beam="1">  1       21 0.42125041E+00 0.28168593E+03</pdfrwt>
<pdfrwt beam="2">  1       21 0.16773639E-01 0.28168593E+03</pdfrwt>
<totfact> 0.17991826E+02</totfact>
</mgrwt>
</event>
<event>
 4    1  0.4306168E+000  0.1899538E+03  0.7546771E-02  0.1158503E+00
         21   -1    0    0  503  502  0.00000000000E+00  0.00000000000E+00  0.16576135200E+03  0.16576135200E+03  0.00000000000E+00 0.  1.
         21   -1    0    0  501  503 -0.00000000000E+00 -0.00000000000E+00 -0.29463498258E+03  0.29463498258E+03  0.00000000000E+00 0.  1.
          6    1    1    2  501    0 -0.44333689017E+02 -0.64714556615E+02 -0.18208528198E+03  0.26313019540E+03  0.17300000000E+03 0. -1.
         -6    1    1    2    0  502  0.44333689017E+02  0.64714556615E+02  0.53211651397E+02  0.19726613917E+03  0.17300000000E+03 0. -1.
<mgrwt>
<rscale>  2 0.18995381E+03</rscale>
<asrwt>0</asrwt>
<pdfrwt beam="1">  1       21 0.25501747E-01 0.18995381E+03</pdfrwt>
<pdfrwt beam="2">  1       21 0.45328459E-01 0.18995381E+03</pdfrwt>
<totfact> 0.68155933E+04</totfact>
</mgrwt>
</event>
<event>
 4    1  0.4306168E+000  0.1749081E+03  0.7546771E-02  0.1172824E+00
         21   -1    0    0  503  502  0.00000000000E+00  0.00000000000E+00  0.54398967108E+02  0.54398967108E+02  0.00000000000E+00 0. -1.
         21   -1    0    0  501  503 -0.00000000000E+00 -0.00000000000E+00 -0.56969020427E+03  0.56969020427E+03  0.00000000000E+00 0. -1.
          6    1    1    2  501    0 -0.14123572901E+02 -0.21549229616E+02 -0.29299545670E+03  0.34123185996E+03  0.17300000000E+03 0. -1.
         -6    1    1    2    0  502  0.14123572901E+02  0.21549229616E+02 -0.22229578047E+03  0.28285731142E+03  0.17300000000E+03 0. -1.
<mgrwt>
<rscale>  2 0.17490810E+03</rscale>
<asrwt>0</asrwt>
<pdfrwt beam="1">  1       21 0.83690717E-02 0.17490810E+03</pdfrwt>
<pdfrwt beam="2">  1       21 0.87644648E-01 0.17490810E+03</pdfrwt>
<totfact> 0.12472514E+05</totfact>
</mgrwt>
</event>
<event>
 4    1  0.4306168E+000  0.2342061E+03  0.7546771E-02  0.1123714E+00
         21   -1    0    0  501  502  0.00000000000E+00  0.00000000000E+00  0.96266263881E+03  0.96266263881E+03  0.00000000000E+00 0.  1.
         21   -1    0    0  502  503 -0.00000000000E+00 -0.00000000000E+00 -0.68739641369E+02  0.68739641369E+02  0.00000000000E+00 0.  1.
          6    1    1    2  501    0  0.14701006839E+03  0.57545787468E+02  0.66026218511E+03  0.70057021843E+03  0.17300000000E+03 0.  1.
         -6    1    1    2    0  503 -0.14701006839E+03 -0.57545787468E+02  0.23366081233E+03  0.33083206175E+03  0.17300000000E+03 0.  1.
<mgrwt>
<rscale>  2 0.23420606E+03</rscale>
<asrwt>0</asrwt>
<pdfrwt beam="1">  1       21 0.14810193E+00 0.23420606E+03</pdfrwt>
<pdfrwt beam="2">  1       21 0.10575330E-01 0.23420606E+03</pdfrwt>
<totfact> 0.22136748E+04</totfact>
</mgrwt>
</event>
<event>
 4    1  0.4306168E+000  0.1878018E+03  0.7546771E-02  0.1160459E+00
         21   -1    0    0  503  502  0.00000000000E+00  0.00000000000E+00  0.41358365484E+02  0.41358365484E+02  0.00000000000E+00 0.  1.
         21   -1    0    0  501  503 -0.00000000000E+00 -0.00000000000E+00 -0.25141803145E+04  0.25141803145E+04  0.00000000000E+00 0.  1.
          6    1    1    2  501    0  0.72907849553E+02 -0.49947601828E+01 -0.22751146401E+04  0.22828526294E+04  0.17300000000E+03 0.  1.
         -6    1    1    2    0  502 -0.72907849553E+02  0.49947601828E+01 -0.19770730888E+03  0.27268605051E+03  0.17300000000E+03 0.  1.
<mgrwt>
<rscale>  2 0.18780176E+03</rscale>
<asrwt>0</asrwt>
<pdfrwt beam="1">  1       21 0.63628245E-02 0.18780176E+03</pdfrwt>
<pdfrwt beam="2">  1       21 0.38679703E+00 0.18780176E+03</pdfrwt>
<totfact> 0.18875293E+03</totfact>
</mgrwt>
</event>
<event>
 4    1  0.4306168E+000  0.1987372E+03  0.7546771E-02  0.1150809E+00
         21   -1    0    0  503  502  0.00000000000E+00  0.00000000000E+00  0.92561124200E+02  0.92561124200E+02  0.00000000000E+00 0.  1.
         21   -1    0    0  501  503 -0.00000000000E+00 -0.00000000000E+00 -0.44816318659E+03  0.44816318659E+03  0.00000000000E+00 0. -1.
          6    1    1    2  501    0 -0.85760341319E+02  0.47038509973E+02 -0.23695807877E+03  0.30926621002E+03  0.17300000000E+03 0. -1.
         -6    1    1    2    0  502  0.85760341319E+02 -0.47038509973E+02 -0.11864398362E+03  0.23145810077E+03  0.17300000000E+03 0.  1.
<mgrwt>
<rscale>  2 0.19873716E+03</rscale>
<asrwt>0</asrwt>
<pdfrwt beam="1">  1       21 0.14240173E-01 0.19873716E+03</pdfrwt>
<pdfrwt beam="2">  1       21 0.68948181E-01 0.19873716E+03</pdfrwt>
<totfact> 0.82377283E+04</totfact>
</mgrwt>
</event>
<event>
 4    1  0.4306168E+000  0.1948334E+03  0.7546771E-02  0.1154173E+00
         21   -1    0    0  503  502  0.00000000000E+00  0.00000000000E+00  0.94157730508E+03  0.94157730508E+03  0.00000000000E+00 0.  1.
         21   -1    0    0  501  503 -0.00000000000E+00 -0.00000000000E+00 -0.55366757657E+02  0.55366757657E+02  0.00000000000E+00 0.  1.
          6    1    1    2  501    0  0.53959654824E+02  0.71550168327E+02  0.18320663348E+03  0.26744109910E+03  0.17300000000E+03 0.  1.
         -6    1    1    2    0  502 -0.53959654824E+02 -0.71550168327E+02  0.70300391394E+03  0.72950296364E+03  0.17300000000E+03 0.  1.
<mgrwt>
<rscale>  2 0.19483344E+03</rscale>
<asrwt>0</asrwt>
<pdfrwt beam="1">  1       21 0.14485804E+00 0.19483344E+03</pdfrwt>
<pdfrwt beam="2">  1       21 0.85179634E-02 0.19483344E+03</pdfrwt>
<totfact> 0.35182498E+04</totfact>
</mgrwt>
</event>
<event>
 4    1  0.4306168E+000  0.1797727E+03  0.7546771E-02  0.1168023E+00
         21   -1    0    0  501  502  0.00000000000E+00  0.00000000000E+00  0.12451004643E+03  0.12451004643E+03  0.00000000000E+00 0. -1.
         21   -1    0    0  502  503 -0.00000000000E+00 -0.00000000000E+00 -0.51636556305E+03  0.51636556305E+03  0.00000000000E+00 0. -1.
          6    1    1    2  501    0 -0.41016253503E+02  0.26587716159E+02  0.30049392007E+02  0.18226685289E+03  0.17300000000E+03 0. -1.
         -6    1    1    2    0  503  0.41016253503E+02 -0.26587716159E+02 -0.42190490863E+03  0.45860875659E+03  0.17300000000E+03 0. -1.
<mgrwt>
<rscale>  2 0.17977274E+03</rscale>
<asrwt>0</asrwt>
<pdfrwt beam="1">  1       21 0.19155392E-01 0.17977274E+03</pdfrwt>
<pdfrwt beam="2">  1       21 0.79440855E-01 0.17977274E+03</pdfrwt>
<totfact> 0.35195421E+04</totfact>
</mgrwt>
</event>
<event>
 4    1  0.4306168E+000  0.2222478E+03  0.7546771E-02  0.1132218E+00
         21   -1    0    0  503  502  0.00000000000E+00  0.00000000000E+00  0.57852653769E+02  0.57852653769E+02  0.00000000000E+00 0. -1.
         21   -1    0    0  501  503 -0.00000000000E+00 -0.00000000000E+00 -0.88007858089E+03  0.88007858089E+03  0.00000000000E+00 0.  1.
          6    1    1    2  501    0  0.12515069719E+03 -0.61663509003E+02 -0.49216317029E+03  0.54001728819E+03  0.17300000000E+03 0. -1.
         -6    1    1    2    0  502 -0.12515069719E+03  0.61663509003E+02 -0.33006275683E+03  0.39791394647E+03  0.17300000000E+03 0. -1.
<mgrwt>
<rscale>  2 0.22224780E+03</rscale>
<asrwt>0</asrwt>
<pdfrwt beam="1">  1       21 0.89004089E-02 0.22224780E+03</pdfrwt>
<pdfrwt beam="2">  1       21 0.13539670E+00 0.22224780E+03</pdfrwt>
<totfact> 0.38199783E+04</totfact>
</mgrwt>
</event>
<event>
 4    1  0.4306168E+000  0.2844485E+03  0.7546771E-02  0.1093284E+00
         21   -1    0    0  501  502  0.00000000000E+00  0.00000000000E+00  0.20973751725E+03  0.20973751725E+03  0.00000000000E+00 0.  1.
         21   -1    0    0  502  503 -0.00000000000E+00 -0.00000000000E+00 -0.38586482620E+03  0.38586482620E+03  0.00000000000E+00 0.  1.
          6    1    1    2  501    0  0.22442957058E+03 -0.24765392079E+02 -0.83456012624E+02  0.29643863250E+03  0.17300000000E+03 0.  1.
         -6    1    1    2    0  503 -0.22442957058E+03  0.24765392079E+02 -0.92671296325E+02  0.29916371096E+03  0.17300000000E+03 0.  1.
<mgrwt>
<rscale>  2 0.28444851E+03</rscale>
<asrwt>0</asrwt>
<pdfrwt beam="1">  1       21 0.32267310E-01 0.28444851E+03</pdfrwt>
<pdfrwt beam="2">  1       21 0.59363820E-01 0.28444851E+03</pdfrwt>
<totfact> 0.23412305E+04</totfact>
</mgrwt>
</event>
<event>
 4    1  0.4306168E+000  0.2277188E+03  0.7546771E-02  0.1128256E+00
         21   -1    0    0  503  502  0.00000000000E+00  0.00000000000E+00  0.14271109893E+04  0.14271109893E+04  0.00000000000E+00 0. -1.
         21   -1    0    0  501  503 -0.00000000000E+00 -0.00000000000E+00 -0.38035648032E+02  0.38035648032E+02  0.00000000000E+00 0. -1.
          6    1    1    2  501    0 -0.84519128192E+02  0.12158682651E+03  0.84938554108E+03  0.87938139439E+03  0.17300000000E+03 0. -1.
         -6    1    1    2    0  502  0.84519128192E+02 -0.12158682651E+03  0.53968980022E+03  0.58576524297E+03  0.17300000000E+03 0. -1.
<mgrwt>
<rscale>  2 0.22771877E+03</rscale>
<asrwt>0</asrwt>
<pdfrwt beam="1">  1       21 0.21955550E+00 0.22771877E+03</pdfrwt>
<pdfrwt beam="2">  1       21 0.58516393E-02 0.22771877E+03</pdfrwt>
<totfact> 0.20286887E+04</totfact>
</mgrwt>
</event>
<event>
 4    1  0.4306168E+000  0.1852521E+03  0.7546771E-02  0.1162815E+00
         21   -1    0    0  501  502  0.00000000000E+00  0.00000000000E+00  0.41821888688E+03  0.41821888688E+03  0.00000000000E+00 0.  1.
         21   -1    0    0  502  503 -0.00000000000E+00 -0.00000000000E+00 -0.16882486756E+03  0.16882486756E+03  0.00000000000E+00 0.  1.
          6    1    1    2  501    0 -0.15728173301E+02  0.64358237313E+02  0.33512248310E+03  0.38291701036E+03  0.17300000000E+03 0.  1.
         -6    1    1    2    0  503  0.15728173301E+02 -0.64358237313E+02 -0.85728463774E+02  0.20412674407E+03  0.17300000000E+03 0.  1.
<mgrwt>
<rscale>  2 0.18525215E+03</rscale>
<asrwt>0</asrwt>
<pdfrwt beam="1">  1       21 0.64341367E-01 0.18525215E+03</pdfrwt>
<pdfrwt beam="2">  1       21 0.25973057E-01 0.18525215E+03</pdfrwt>
<totfact> 0.31498283E+04</totfact>
</mgrwt>
</event>
<event>
 4    1  0.4306168E+000  0.2309516E+03  0.7546771E-02  0.1125972E+00
         21   -1    0    0  503  502  0.00000000000E+00  0.00000000000E+00  0.77368020464E+03  0.77368020464E+03  0.00000000000E+00 0.  1.
         21   -1    0    0  501  503 -0.00000000000E+00 -0.00000000000E+00 -0.96971877390E+02  0.96971877390E+02  0.00000000000E+00 0.  1.
          6    1    1    2  501    0 -0.28671652089E+02 -0.15029166456E+03  0.10430533290E+03  0.25341320120E+03  0.17300000000E+03 0.  1.
         -6    1    1    2    0  502  0.28671652089E+02  0.15029166456E+03  0.57240299435E+03  0.61723888084E+03  0.17300000000E+03 0.  1.
<mgrwt>
<rscale>  2 0.23095161E+03</rscale>
<asrwt>0</asrwt>
<pdfrwt beam="1">  1       21 0.11902772E+00 0.23095161E+03</pdfrwt>
<pdfrwt beam="2">  1       21 0.14918751E-01 0.23095161E+03</pdfrwt>
<totfact> 0.20863823E+04</totfact>
</mgrwt>
</event>
<event>
 4    1  0.4306168E+000  0.1850385E+03  0.7546771E-02  0.1163014E+00
         21   -1    0    0  501  502  0.00000000000E+00  0.00000000000E+00  0.28374481849E+03  0.28374481849E+03  0.00000000000E+00 0.  1.
         21   -1    0    0  502  503 -0.00000000000E+00 -0.00000000000E+00 -0.27431382240E+03  0.27431382240E+03  0.00000000000E+00 0.  1.
          6    1    1    2  501    0 -0.55535931492E+02  0.35014173358E+02  0.21354161755E+03  0.28255840892E+03  0.17300000000E+03 0.  1.
         -6    1    1    2    0  503  0.55535931492E+02 -0.35014173358E+02 -0.20411062146E+03  0.27550023197E+03  0.17300000000E+03 0.  1.
<mgrwt>
<rscale>  2 0.18503846E+03</rscale>
<asrwt>0</asrwt>
<pdfrwt beam="1">  1       21 0.43653049E-01 0.18503846E+03</pdfrwt>
<pdfrwt beam="2">  1       21 0.42202126E-01 0.18503846E+03</pdfrwt>
<totfact> 0.27363077E+04</totfact>
</mgrwt>
</event>
<event>
 4    1  0.4306168E+000  0.2099659E+03  0.7546771E-02  0.1141593E+00
         21   -1    0    0  501  502  0.00000000000E+00  0.00000000000E+00  0.30720177678E+03  0.30720177678E+03  0.00000000000E+00 0.  1.
         21   -1    0    0  502  503 -0.00000000000E+00 -0.00000000000E+00 -0.37377820219E+03  0.37377820219E+03  0.00000000000E+00 0.  1.
          6    1    1    2  501    0 -0.56700671647E+02  0.10460272457E+03  0.23396128532E+03  0.31436217836E+03  0.17300000000E+03 0.  1.
         -6    1    1    2    0  503  0.56700671647E+02 -0.10460272457E+03 -0.30053771073E+03  0.36661780061E+03  0.17300000000E+03 0.  1.
<mgrwt>
<rscale>  2 0.20996594E+03</rscale>
<asrwt>0</asrwt>
<pdfrwt beam="1">  1       21 0.47261812E-01 0.20996594E+03</pdfrwt>
<pdfrwt beam="2">  1       21 0.57504338E-01 0.20996594E+03</pdfrwt>
<totfact> 0.12017163E+04</totfact>
</mgrwt>
</event>
<event>
 4    1  0.4306168E+000  0.1835690E+03  0.7546771E-02  0.1164393E+00
         21   -1    0    0  503  502  0.00000000000E+00  0.00000000000E+00  0.64976416082E+03  0.64976416082E+03  0.00000000000E+00 0.  1.
         21   -1    0    0  501  503 -0.00000000000E+00 -0.00000000000E+00 -0.59124444788E+02  0.59124444788E+02  0.00000000000E+00 0.  1.
          6    1    1    2  501    0 -0.48831611980E+02 -0.37202685280E+02  0.17108913306E+03  0.25093636160E+03  0.17300000000E+03 0.  1.
         -6    1    1    2    0  502  0.48831611980E+02  0.37202685280E+02  0.41955058298E+03  0.45795224401E+03  0.17300000000E+03 0.  1.
<mgrwt>
<rscale>  2 0.18356897E+03</rscale>
<asrwt>0</asrwt>
<pdfrwt beam="1">  1       21 0.99963712E-01 0.18356897E+03</pdfrwt>
<pdfrwt beam="2">  1       21 0.90960689E-02 0.18356897E+03</pdfrwt>
<totfact> 0.79096316E+04</totfact>
</mgrwt>
</event>
<event>
 4    1  0.4306168E+000  0.2342732E+03  0.7546771E-02  0.1123668E+00
         21   -1    0    0  501  502  0.00000000000E+00  0.00000000000E+00  0.17254886431E+03  0.17254886431E+03  0.00000000000E+00 0. -1.
         21   -1    0    0  502  503 -0.00000000000E+00 -0.00000000000E+00 -0.44329642904E+03  0.44329642904E+03  0.00000000000E+00 0. -1.
          6    1    1    2  501    0  0.65739733627E+02 -0.14364267137E+03  0.28281234766E+02  0.23597406183E+03  0.17300000000E+03 0. -1.
         -6    1    1    2    0  503 -0.65739733627E+02  0.14364267137E+03 -0.29902879950E+03  0.37987123153E+03  0.17300000000E+03 0. -1.
<mgrwt>
<rscale>  2 0.23427319E+03</rscale>
<asrwt>0</asrwt>
<pdfrwt beam="1">  1       21 0.26545979E-01 0.23427319E+03</pdfrwt>
<pdfrwt beam="2">  1       21 0.68199450E-01 0.23427319E+03</pdfrwt>
<totfact> 0.25907011E+04</totfact>
</mgrwt>
</event>
<event>
 4    1  0.4306168E+000  0.1975786E+03  0.7546771E-02  0.1151798E+00
         21   -1    0    0  503  502  0.00000000000E+00  0.00000000000E+00  0.25885150082E+03  0.25885150082E+03  0.00000000000E+00 0.  1.
         21   -1    0    0  501  503 -0.00000000000E+00 -0.00000000000E+00 -0.25337314068E+03  0.25337314068E+03  0.00000000000E+00 0. -1.
          6    1    1    2  501    0 -0.95077675288E+02 -0.82778254495E+01 -0.16020795308E+03  0.25436956375E+03  0.17300000000E+03 0. -1.
         -6    1    1    2    0  502  0.95077675288E+02  0.82778254495E+01  0.16568631323E+03  0.25785507775E+03  0.17300000000E+03 0.  1.
<mgrwt>
<rscale>  2 0.19757856E+03</rscale>
<asrwt>0</asrwt>
<pdfrwt beam="1">  1       21 0.39823308E-01 0.19757856E+03</pdfrwt>
<pdfrwt beam="2">  1       21 0.38980483E-01 0.19757856E+03</pdfrwt>
<totfact> 0.38467047E+04</totfact>
</mgrwt>
</event>
<event>
 4    1  0.4306168E+000  0.1828125E+03  0.7546771E-02  0.1165109E+00
         21   -1    0    0  501  502  0.00000000000E+00  0.00000000000E+00  0.11724829925E+04  0.11724829925E+04  0.00000000000E+00 0. -1.
         21   -1    0    0  502  503 -0.00000000000E+00 -0.00000000000E+00 -0.36212327017E+02  0.36212327017E+02  0.00000000000E+00 0. -1.
          6    1    1    2  501    0  0.52083262901E+02 -0.27905746869E+02  0.28930495153E+03  0.34222470975E+03  0.17300000000E+03 0. -1.
         -6    1    1    2    0  503 -0.52083262901E+02  0.27905746869E+02  0.84696571399E+03  0.86647060981E+03  0.17300000000E+03 0. -1.
<mgrwt>
<rscale>  2 0.18281246E+03</rscale>
<asrwt>0</asrwt>
<pdfrwt beam="1">  1       21 0.18038197E+00 0.18281246E+03</pdfrwt>
<pdfrwt beam="2">  1       21 0.55711281E-02 0.18281246E+03</pdfrwt>
<totfact> 0.40737085E+04</totfact>
</mgrwt>
</event>
<event>
 4    1  0.4306168E+000  0.2235092E+03  0.7546771E-02  0.1131294E+00
         21   -1    0    0  503  502  0.00000000000E+00  0.00000000000E+00  0.30001261899E+03  0.30001261899E+03  0.00000000000E+00 0. -1.
         21   -1    0    0  501  503 -0.00000000000E+00 -0.00000000000E+00 -0.18820724757E+03  0.18820724757E+03  0.00000000000E+00 0. -1.
          6    1    1    2  501    0 -0.11267395958E+02  0.14106883339E+03 -0.26973026479E+02  0.22513088221E+03  0.17300000000E+03 0. -1.
         -6    1    1    2    0  502  0.11267395958E+02 -0.14106883339E+03  0.13877839790E+03  0.26308898436E+03  0.17300000000E+03 0. -1.
<mgrwt>
<rscale>  2 0.22350922E+03</rscale>
<asrwt>0</asrwt>
<pdfrwt beam="1">  1       21 0.46155787E-01 0.22350922E+03</pdfrwt>
<pdfrwt beam="2">  1       21 0.28954961E-01 0.22350922E+03</pdfrwt>
<totfact> 0.50613393E+04</totfact>
</mgrwt>
</event>
<event>
 4    1  0.4306168E+000  0.3051045E+03  0.7546771E-02  0.1082716E+00
         21   -1    0    0  501  502  0.00000000000E+00  0.00000000000E+00  0.40139537178E+02  0.40139537178E+02  0.00000000000E+00 0.  1.
         21   -1    0    0  502  503 -0.00000000000E+00 -0.00000000000E+00 -0.23508016736E+04  0.23508016736E+04  0.00000000000E+00 0.  1.
          6    1    1    2  501    0 -0.20736231426E+03 -0.14198811347E+03 -0.12940945357E+04  0.13295749024E+04  0.17300000000E+03 0.  1.
         -6    1    1    2    0  503  0.20736231426E+03  0.14198811347E+03 -0.10165676007E+04  0.10613663083E+04  0.17300000000E+03 0.  1.
<mgrwt>
<rscale>  2 0.30510450E+03</rscale>
<asrwt>0</asrwt>
<pdfrwt beam="1">  1       21 0.61753120E-02 0.30510450E+03</pdfrwt>
<pdfrwt beam="2">  1       21 0.36166188E+00 0.30510450E+03</pdfrwt>
<totfact> 0.24810114E+03</totfact>
</mgrwt>
</event>
<event>
 4    1  0.4306168E+000  0.2176760E+03  0.7546771E-02  0.1135628E+00
         21   -1    0    0  503  502  0.00000000000E+00  0.00000000000E+00  0.82997322054E+02  0.82997322054E+02  0.00000000000E+00 0.  1.
         21   -1    0    0  501  503 -0.00000000000E+00 -0.00000000000E+00 -0.70702075842E+03  0.70702075842E+03  0.00000000000E+00 0.  1.
          6    1    1    2  501    0 -0.99957510661E+02  0.86384754446E+02 -0.48533611395E+03  0.53191538165E+03  0.17300000000E+03 0.  1.
         -6    1    1    2    0  502  0.99957510661E+02 -0.86384754446E+02 -0.13868732242E+03  0.25810269882E+03  0.17300000000E+03 0.  1.
<mgrwt>
<rscale>  2 0.21767597E+03</rscale>
<asrwt>0</asrwt>
<pdfrwt beam="1">  1       21 0.12768819E-01 0.21767597E+03</pdfrwt>
<pdfrwt beam="2">  1       21 0.10877242E+00 0.21767597E+03</pdfrwt>
<totfact> 0.34749236E+04</totfact>
</mgrwt>
</event>
<event>
 4    1  0.4306168E+000  0.1767131E+03  0.7546771E-02  0.1171023E+00
         21   -1    0    0  501  502  0.00000000000E+00  0.00000000000E+00  0.38477176203E+02  0.38477176203E+02  0.00000000000E+00 0.  1.
         21   -1    0    0  502  503 -0.00000000000E+00 -0.00000000000E+00 -0.12002672352E+04  0.12002672352E+04  0.00000000000E+00 0.  1.
          6    1    1    2  501    0  0.35324992239E+02  0.71181801346E+01 -0.22843511879E+03  0.28880811461E+03  0.17300000000E+03 0.  1.
         -6    1    1    2    0  503 -0.35324992239E+02 -0.71181801346E+01 -0.93335494016E+03  0.94993629675E+03  0.17300000000E+03 0.  1.
<mgrwt>
<rscale>  2 0.17671311E+03</rscale>
<asrwt>0</asrwt>
<pdfrwt beam="1">  1       21 0.59195665E-02 0.17671311E+03</pdfrwt>
<pdfrwt beam="2">  1       21 0.18465647E+00 0.17671311E+03</pdfrwt>
<totfact> 0.34522931E+04</totfact>
</mgrwt>
</event>
<event>
 4    1  0.4306168E+000  0.2279254E+03  0.7546771E-02  0.1128109E+00
         21   -1    0    0  503  502  0.00000000000E+00  0.00000000000E+00  0.71091528478E+03  0.71091528478E+03  0.00000000000E+00 0. -1.
         21   -1    0    0  501  503 -0.00000000000E+00 -0.00000000000E+00 -0.73357460641E+02  0.73357460641E+02  0.00000000000E+00 0. -1.
          6    1    1    2  501    0  0.14763123015E+03 -0.15033207326E+02  0.29443649711E+03  0.37234772494E+03  0.17300000000E+03 0. -1.
         -6    1    1    2    0  502 -0.14763123015E+03  0.15033207326E+02  0.34312132703E+03  0.41192502049E+03  0.17300000000E+03 0. -1.
<mgrwt>
<rscale>  2 0.22792538E+03</rscale>
<asrwt>0</asrwt>
<pdfrwt beam="1">  1       21 0.10937158E+00 0.22792538E+03</pdfrwt>
<pdfrwt beam="2">  1       21 0.11285764E-01 0.22792538E+03</pdfrwt>
<totfact> 0.42576842E+04</totfact>
</mgrwt>
</event>
<event>
 4    1  0.4306168E+000  0.1731183E+03  0.7546771E-02  0.1174634E+00
         21   -1    0    0  503  502  0.00000000000E+00  0.00000000000E+00  0.47547931491E+03  0.47547931491E+03  0.00000000000E+00 0. -1.
         21   -1    0    0  501  503 -0.00000000000E+00 -0.00000000000E+00 -0.76871802800E+02  0.76871802800E+02  0.00000000000E+00 0. -1.
          6    1    1    2  501    0  0.12362318862E+01 -0.62783113894E+01  0.82116048218E+02  0.19160634342E+03  0.17300000000E+03 0.  1.
         -6    1    1    2    0  502 -0.12362318862E+01  0.62783113894E+01  0.31649146389E+03  0.36074477429E+03  0.17300000000E+03 0.  1.
<mgrwt>
<rscale>  2 0.17311830E+03</rscale>
<asrwt>0</asrwt>
<pdfrwt beam="1">  1       21 0.73150662E-01 0.17311830E+03</pdfrwt>
<pdfrwt beam="2">  1       21 0.11826431E-01 0.17311830E+03</pdfrwt>
<totfact> 0.10201872E+05</totfact>
</mgrwt>
</event>
<event>
 4    1  0.4306168E+000  0.2770050E+03  0.7546771E-02  0.1097336E+00
         21   -1    0    0  501  502  0.00000000000E+00  0.00000000000E+00  0.45520773061E+03  0.45520773061E+03  0.00000000000E+00 0.  1.
         21   -1    0    0  502  503 -0.00000000000E+00 -0.00000000000E+00 -0.45413414568E+03  0.45413414568E+03  0.00000000000E+00 0. -1.
          6    1    1    2  501    0  0.16896427784E+03 -0.13510687788E+03  0.36108326576E+03  0.45509660562E+03  0.17300000000E+03 0.  1.
         -6    1    1    2    0  503 -0.16896427784E+03  0.13510687788E+03 -0.36000968082E+03  0.45424527067E+03  0.17300000000E+03 0. -1.
<mgrwt>
<rscale>  2 0.27700505E+03</rscale>
<asrwt>0</asrwt>
<pdfrwt beam="1">  1       21 0.70031959E-01 0.27700505E+03</pdfrwt>
<pdfrwt beam="2">  1       21 0.69866791E-01 0.27700505E+03</pdfrwt>
<totfact> 0.32438368E+03</totfact>
</mgrwt>
</event>
<event>
 4    1  0.4306168E+000  0.2217542E+03  0.7546771E-02  0.1132582E+00
         21   -1    0    0  503  502  0.00000000000E+00  0.00000000000E+00  0.80933621789E+03  0.80933621789E+03  0.00000000000E+00 0.  1.
         21   -1    0    0  501  503 -0.00000000000E+00 -0.00000000000E+00 -0.61486886618E+02  0.61486886618E+02  0.00000000000E+00 0.  1.
          6    1    1    2  501    0  0.13721642907E+03  0.20434525967E+02  0.42128026191E+03  0.47607980144E+03  0.17300000000E+03 0.  1.
         -6    1    1    2    0  502 -0.13721642907E+03 -0.20434525967E+02  0.32656906936E+03  0.39474330307E+03  0.17300000000E+03 0.  1.
<mgrwt>
<rscale>  2 0.22175418E+03</rscale>
<asrwt>0</asrwt>
<pdfrwt beam="1">  1       21 0.12451326E+00 0.22175418E+03</pdfrwt>
<pdfrwt beam="2">  1       21 0.94595216E-02 0.22175418E+03</pdfrwt>
<totfact> 0.42442864E+04</totfact>
</mgrwt>
</event>
<event>
 4    1  0.4306168E+000  0.1927168E+03  0.7546771E-02  0.1156034E+00
         21   -1    0    0  503  502  0.00000000000E+00  0.00000000000E+00  0.16325389521E+02  0.16325389521E+02  0.00000000000E+00 0.  1.
         21   -1    0    0  501  503 -0.00000000000E+00 -0.00000000000E+00 -0.22945287128E+04  0.22945287128E+04  0.00000000000E+00 0.  1.
          6    1    1    2  501    0  0.38469371907E+01  0.84829045071E+02 -0.12457783971E+04  0.12605965177E+04  0.17300000000E+03 0.  1.
         -6    1    1    2    0  502 -0.38469371907E+01 -0.84829045071E+02 -0.10324249262E+04  0.10502575847E+04  0.17300000000E+03 0.  1.
<mgrwt>
<rscale>  2 0.19271680E+03</rscale>
<asrwt>0</asrwt>
<pdfrwt beam="1">  1       21 0.25115989E-02 0.19271680E+03</pdfrwt>
<pdfrwt beam="2">  1       21 0.35300434E+00 0.19271680E+03</pdfrwt>
<totfact> 0.14234646E+04</totfact>
</mgrwt>
</event>
<event>
 4    1  0.4306168E+000  0.2058896E+03  0.7546771E-02  0.1144863E+00
         21   -1    0    0  501  502  0.00000000000E+00  0.00000000000E+00  0.96090262346E+02  0.96090262346E+02  0.00000000000E+00 0. -1.
         21   -1    0    0  502  503 -0.00000000000E+00 -0.00000000000E+00 -0.54841495918E+03  0.54841495918E+03  0.00000000000E+00 0. -1.
          6    1    1    2  501    0 -0.11163093999E+03  0.21875591032E+00 -0.83646057501E+02  0.22223226038E+03  0.17300000000E+03 0. -1.
         -6    1    1    2    0  503  0.11163093999E+03 -0.21875591032E+00 -0.36867863933E+03  0.42227296115E+03  0.17300000000E+03 0. -1.
<mgrwt>
<rscale>  2 0.20588957E+03</rscale>
<asrwt>0</asrwt>
<pdfrwt beam="1">  1       21 0.14783117E-01 0.20588957E+03</pdfrwt>
<pdfrwt beam="2">  1       21 0.84371533E-01 0.20588957E+03</pdfrwt>
<totfact> 0.48767706E+04</totfact>
</mgrwt>
</event>
<event>
 4    1  0.4306168E+000  0.1783828E+03  0.7546771E-02  0.1169377E+00
         21   -1    0    0  501  502  0.00000000000E+00  0.00000000000E+00  0.17472521787E+03  0.17472521787E+03  0.00000000000E+00 0.  1.
         21   -1    0    0  502  503 -0.00000000000E+00 -0.00000000000E+00 -0.22931675650E+03  0.22931675650E+03  0.00000000000E+00 0.  1.
          6    1    1    2  501    0  0.35622979866E+02  0.24948569007E+02  0.64357634192E+02  0.18963737203E+03  0.17300000000E+03 0.  1.
         -6    1    1    2    0  503 -0.35622979866E+02 -0.24948569007E+02 -0.11894917282E+03  0.21440460234E+03  0.17300000000E+03 0.  1.
<mgrwt>
<rscale>  2 0.17838281E+03</rscale>
<asrwt>0</asrwt>
<pdfrwt beam="1">  1       21 0.26880803E-01 0.17838281E+03</pdfrwt>
<pdfrwt beam="2">  1       21 0.35279501E-01 0.17838281E+03</pdfrwt>
<totfact> 0.10264591E+05</totfact>
</mgrwt>
</event>
<event>
 4    1  0.4306168E+000  0.2323174E+03  0.7546771E-02  0.1125019E+00
         21   -1    0    0  501  502  0.00000000000E+00  0.00000000000E+00  0.99885290228E+03  0.99885290228E+03  0.00000000000E+00 0.  1.
         21   -1    0    0  502  503 -0.00000000000E+00 -0.00000000000E+00 -0.63679373700E+02  0.63679373700E+02  0.00000000000E+00 0.  1.
          6    1    1    2  501    0  0.18660806389E+02 -0.15392909706E+03  0.67435620925E+03  0.71325149111E+03  0.17300000000E+03 0.  1.
         -6    1    1    2    0  503 -0.18660806389E+02  0.15392909706E+03  0.26081731933E+03  0.34928078487E+03  0.17300000000E+03 0.  1.
<mgrwt>
<rscale>  2 0.23231744E+03</rscale>
<asrwt>0</asrwt>
<pdfrwt beam="1">  1       21 0.15366967E+00 0.23231744E+03</pdfrwt>
<pdfrwt beam="2">  1       21 0.97968274E-02 0.23231744E+03</pdfrwt>
<totfact> 0.23014561E+04</totfact>
</mgrwt>
</event>
<event>
 4    1  0.4306168E+000  0.2121748E+03  0.7546771E-02  0.1139855E+00
         21   -1    0    0  501  502  0.00000000000E+00  0.00000000000E+00  0.24586270597E+02  0.24586270597E+02  0.00000000000E+00 0.  1.
         21   -1    0    0  502  503 -0.00000000000E+00 -0.00000000000E+00 -0.22481889612E+04  0.22481889612E+04  0.00000000000E+00 0. -1.
          6    1    1    2  501    0 -0.91430455688E+02  0.82034269110E+02 -0.62229094466E+03  0.65746799872E+03  0.17300000000E+03 0.  1.
         -6    1    1    2    0  503  0.91430455688E+02 -0.82034269110E+02 -0.16013117459E+04  0.16153072331E+04  0.17300000000E+03 0. -1.
<mgrwt>
<rscale>  2 0.21217481E+03</rscale>
<asrwt>0</asrwt>
<pdfrwt beam="1">  1       21 0.37825024E-02 0.21217481E+03</pdfrwt>
<pdfrwt beam="2">  1       21 0.34587529E+00 0.21217481E+03</pdfrwt>
<totfact> 0.77795979E+03</totfact>
</mgrwt>
</event>
<event>
 4    1  0.4306168E+000  0.1844045E+03  0.7546771E-02  0.1163607E+00
         21   -1    0    0  501  502  0.00000000000E+00  0.00000000000E+00  0.12554190972E+04  0.12554190972E+04  0.00000000000E+00 0. -1.
         21   -1    0    0  502  503 -0.00000000000E+00 -0.00000000000E+00 -0.13818918789E+03  0.13818918789E+03  0.00000000000E+00 0. -1.
          6    1    1    2  501    0 -0.44058212136E+02  0.46205062066E+02  0.11834074161E+04  0.11976886683E+04  0.17300000000E+03 0. -1.
         -6    1    1    2    0  503  0.44058212136E+02 -0.46205062066E+02 -0.66177506799E+02  0.19591961674E+03  0.17300000000E+03 0. -1.
<mgrwt>
<rscale>  2 0.18440454E+03</rscale>
<asrwt>0</asrwt>
<pdfrwt beam="1">  1       21 0.19314139E+00 0.18440454E+03</pdfrwt>
<pdfrwt beam="2">  1       21 0.21259876E-01 0.18440454E+03</pdfrwt>
<totfact> 0.30871948E+03</totfact>
</mgrwt>
</event>
<event>
 4    1  0.4306168E+000  0.1888304E+03  0.7546771E-02  0.1159520E+00
         21   -1    0    0  503  502  0.00000000000E+00  0.00000000000E+00  0.23541279724E+03  0.23541279724E+03  0.00000000000E+00 0.  1.
         21   -1    0    0  501  503 -0.00000000000E+00 -0.00000000000E+00 -0.16304316776E+03  0.16304316776E+03  0.00000000000E+00 0.  1.
          6    1    1    2  501    0 -0.50514986608E+02  0.56357552133E+02 -0.16904600474E+02  0.18958560882E+03  0.17300000000E+03 0.  1.
         -6    1    1    2    0  502  0.50514986608E+02 -0.56357552133E+02  0.89274229960E+02  0.20887035618E+03  0.17300000000E+03 0.  1.
<mgrwt>
<rscale>  2 0.18883045E+03</rscale>
<asrwt>0</asrwt>
<pdfrwt beam="1">  1       21 0.36217353E-01 0.18883045E+03</pdfrwt>
<pdfrwt beam="2">  1       21 0.25083564E-01 0.18883045E+03</pdfrwt>
<totfact> 0.11080629E+05</totfact>
</mgrwt>
</event>
<event>
 4    1  0.4306168E+000  0.2249837E+03  0.7546771E-02  0.1130221E+00
         21   -1    0    0  503  502  0.00000000000E+00  0.00000000000E+00  0.11278609845E+03  0.11278609845E+03  0.00000000000E+00 0. -1.
         21   -1    0    0  501  503 -0.00000000000E+00 -0.00000000000E+00 -0.70889400077E+03  0.70889400077E+03  0.00000000000E+00 0. -1.
          6    1    1    2  501    0  0.88134042161E+02 -0.11367074497E+03 -0.54691267308E+03  0.59138068925E+03  0.17300000000E+03 0. -1.
         -6    1    1    2    0  502 -0.88134042161E+02  0.11367074497E+03 -0.49195229237E+02  0.23029940996E+03  0.17300000000E+03 0. -1.
<mgrwt>
<rscale>  2 0.22498366E+03</rscale>
<asrwt>0</asrwt>
<pdfrwt beam="1">  1       21 0.17351708E-01 0.22498366E+03</pdfrwt>
<pdfrwt beam="2">  1       21 0.10906062E+00 0.22498366E+03</pdfrwt>
<totfact> 0.19643976E+04</totfact>
</mgrwt>
</event>
<event>
 4    1  0.4306168E+000  0.2468554E+03  0.7546771E-02  0.1115308E+00
         21   -1    0    0  501  502  0.00000000000E+00  0.00000000000E+00  0.18538708514E+03  0.18538708514E+03  0.00000000000E+00 0. -1.
         21   -1    0    0  502  503 -0.00000000000E+00 -0.00000000000E+00 -0.32881357922E+03  0.32881357922E+03  0.00000000000E+00 0.  1.
          6    1    1    2  501    0  0.13489684535E+03  0.11318769149E+03 -0.67035532071E+02  0.25579557257E+03  0.17300000000E+03 0.  1.
         -6    1    1    2    0  503 -0.13489684535E+03 -0.11318769149E+03 -0.76390962010E+02  0.25840509179E+03  0.17300000000E+03 0. -1.
<mgrwt>
<rscale>  2 0.24685545E+03</rscale>
<asrwt>0</asrwt>
<pdfrwt beam="1">  1       21 0.28521090E-01 0.24685545E+03</pdfrwt>
<pdfrwt beam="2">  1       21 0.50586704E-01 0.24685545E+03</pdfrwt>
<totfact> 0.42629954E+04</totfact>
</mgrwt>
</event>
<event>
 4    1  0.4306168E+000  0.2435588E+03  0.7546771E-02  0.1117444E+00
         21   -1    0    0  501  502  0.00000000000E+00  0.00000000000E+00  0.53078311700E+02  0.53078311700E+02  0.00000000000E+00 0.  1.
         21   -1    0    0  502  503 -0.00000000000E+00 -0.00000000000E+00 -0.17052836233E+04  0.17052836233E+04  0.00000000000E+00 0. -1.
          6    1    1    2  501    0  0.13135757508E+03  0.11016846044E+03 -0.30998618772E+03  0.39422371666E+03  0.17300000000E+03 0.  1.
         -6    1    1    2    0  503 -0.13135757508E+03 -0.11016846044E+03 -0.13422191239E+04  0.13641382184E+04  0.17300000000E+03 0. -1.
<mgrwt>
<rscale>  2 0.24355883E+03</rscale>
<asrwt>0</asrwt>
<pdfrwt beam="1">  1       21 0.81658936E-02 0.24355883E+03</pdfrwt>
<pdfrwt beam="2">  1       21 0.26235134E+00 0.24355883E+03</pdfrwt>
<totfact> 0.62153369E+03</totfact>
</mgrwt>
</event>
<event>
 4    1  0.4306168E+000  0.1867376E+03  0.7546771E-02  0.1161437E+00
         21   -1    0    0  501  502  0.00000000000E+00  0.00000000000E+00  0.56322329887E+03  0.56322329887E+03  0.00000000000E+00 0. -1.
         21   -1    0    0  502  503 -0.00000000000E+00 -0.00000000000E+00 -0.13343912185E+03  0.13343912185E+03  0.00000000000E+00 0. -1.
          6    1    1    2  501    0  0.53926111320E+02  0.45098913064E+02  0.46991701861E+03  0.50566089608E+03  0.17300000000E+03 0.  1.
         -6    1    1    2    0  503 -0.53926111320E+02 -0.45098913064E+02 -0.40132841586E+02  0.19100152464E+03  0.17300000000E+03 0.  1.
<mgrwt>
<rscale>  2 0.18673762E+03</rscale>
<asrwt>0</asrwt>
<pdfrwt beam="1">  1       21 0.86649737E-01 0.18673762E+03</pdfrwt>
<pdfrwt beam="2">  1       21 0.20529096E-01 0.18673762E+03</pdfrwt>
<totfact> 0.25291459E+04</totfact>
</mgrwt>
</event>
<event>
 4    1  0.4306168E+000  0.2025904E+03  0.7546771E-02  0.1147572E+00
         21   -1    0    0  503  502  0.00000000000E+00  0.00000000000E+00  0.70979223504E+02  0.70979223504E+02  0.00000000000E+00 0. -1.
         21   -1    0    0  501  503 -0.00000000000E+00 -0.00000000000E+00 -0.80177201276E+03  0.80177201276E+03  0.00000000000E+00 0.  1.
          6    1    1    2  501    0 -0.38337442298E+02 -0.98204353968E+02 -0.59580953517E+03  0.62931062029E+03  0.17300000000E+03 0.  1.
         -6    1    1    2    0  502  0.38337442298E+02  0.98204353968E+02 -0.13498325409E+03  0.24344061597E+03  0.17300000000E+03 0. -1.
<mgrwt>
<rscale>  2 0.20259036E+03</rscale>
<asrwt>0</asrwt>
<pdfrwt beam="1">  1       21 0.10919881E-01 0.20259036E+03</pdfrwt>
<pdfrwt beam="2">  1       21 0.12334954E+00 0.20259036E+03</pdfrwt>
<totfact> 0.34041610E+04</totfact>
</mgrwt>
</event>
<event>
 4    1  0.4306168E+000  0.2226886E+03  0.7546771E-02  0.1131894E+00
         21   -1    0    0  501  502  0.00000000000E+00  0.00000000000E+00  0.13136117989E+04  0.13136117989E+04  0.00000000000E+00 0. -1.
         21   -1    0    0  502  503 -0.00000000000E+00 -0.00000000000E+00 -0.46158219647E+02  0.46158219647E+02  0.00000000000E+00 0. -1.
          6    1    1    2  501    0  0.37369040856E+02  0.13514716144E+03  0.34356760444E+03  0.40942508384E+03  0.17300000000E+03 0. -1.
         -6    1    1    2    0  503 -0.37369040856E+02 -0.13514716144E+03  0.92388597480E+03  0.95034493469E+03  0.17300000000E+03 0. -1.
<mgrwt>
<rscale>  2 0.22268857E+03</rscale>
<asrwt>0</asrwt>
<pdfrwt beam="1">  1       21 0.20209409E+00 0.22268857E+03</pdfrwt>
<pdfrwt beam="2">  1       21 0.71012656E-02 0.22268857E+03</pdfrwt>
<totfact> 0.18787941E+04</totfact>
</mgrwt>
</event>
<event>
 4    1  0.4306168E+000  0.1801924E+03  0.7546771E-02  0.1167617E+00
         21   -1    0    0  503  502  0.00000000000E+00  0.00000000000E+00  0.38035387524E+02  0.38035387524E+02  0.00000000000E+00 0. -1.
         21   -1    0    0  501  503 -0.00000000000E+00 -0.00000000000E+00 -0.85857003019E+03  0.85857003019E+03  0.00000000000E+00 0. -1.
          6    1    1    2  501    0 -0.66887556874E+01 -0.49955591593E+02 -0.44416828250E+03  0.47932740769E+03  0.17300000000E+03 0. -1.
         -6    1    1    2    0  502  0.66887556874E+01  0.49955591593E+02 -0.37636636016E+03  0.41727801002E+03  0.17300000000E+03 0. -1.
<mgrwt>
<rscale>  2 0.18019240E+03</rscale>
<asrwt>0</asrwt>
<pdfrwt beam="1">  1       21 0.58515984E-02 0.18019240E+03</pdfrwt>
<pdfrwt beam="2">  1       21 0.13208769E+00 0.18019240E+03</pdfrwt>
<totfact> 0.85949708E+04</totfact>
</mgrwt>
</event>
<event>
 4    1  0.4306168E+000  0.2028372E+03  0.7546771E-02  0.1147367E+00
         21   -1    0    0  501  502  0.00000000000E+00  0.00000000000E+00  0.47473007514E+03  0.47473007514E+03  0.00000000000E+00 0. -1.
         21   -1    0    0  502  503 -0.00000000000E+00 -0.00000000000E+00 -0.23074007875E+03  0.23074007875E+03  0.00000000000E+00 0. -1.
          6    1    1    2  501    0  0.74432846452E+02 -0.75323729257E+02  0.40072273978E+03  0.44913430842E+03  0.17300000000E+03 0. -1.
         -6    1    1    2    0  503 -0.74432846452E+02  0.75323729257E+02 -0.15673274340E+03  0.25633584547E+03  0.17300000000E+03 0. -1.
<mgrwt>
<rscale>  2 0.20283716E+03</rscale>
<asrwt>0</asrwt>
<pdfrwt beam="1">  1       21 0.73035396E-01 0.20283716E+03</pdfrwt>
<pdfrwt beam="2">  1       21 0.35498474E-01 0.20283716E+03</pdfrwt>
<totfact> 0.12819415E+04</totfact>
</mgrwt>
</event>
<event>
 4    1  0.4306168E+000  0.1794542E+03  0.7546771E-02  0.1168332E+00
         21   -1    0    0  501  502  0.00000000000E+00  0.00000000000E+00  0.12208281826E+03  0.12208281826E+03  0.00000000000E+00 0.  1.
         21   -1    0    0  502  503 -0.00000000000E+00 -0.00000000000E+00 -0.26596281248E+03  0.26596281248E+03  0.00000000000E+00 0.  1.
          6    1    1    2  501    0  0.47314231286E+02 -0.60159072750E+01 -0.54389886735E+02  0.18751556576E+03  0.17300000000E+03 0.  1.
         -6    1    1    2    0  503 -0.47314231286E+02  0.60159072750E+01 -0.89490107481E+02  0.20053006498E+03  0.17300000000E+03 0.  1.
<mgrwt>
<rscale>  2 0.17945425E+03</rscale>
<asrwt>0</asrwt>
<pdfrwt beam="1">  1       21 0.18781972E-01 0.17945425E+03</pdfrwt>
<pdfrwt beam="2">  1       21 0.40917355E-01 0.17945425E+03</pdfrwt>
<totfact> 0.14993049E+05</totfact>
</mgrwt>
</event>
<event>
 4    1  0.4306168E+000  0.2255481E+03  0.7546771E-02  0.1129813E+00
         21   -1    0    0  503  502  0.00000000000E+00  0.00000000000E+00  0.64783390206E+03  0.64783390206E+03  0.00000000000E+00 0.  1.
         21   -1    0    0  501  503 -0.00000000000E+00 -0.00000000000E+00 -0.89007195547E+02  0.89007195547E+02  0.00000000000E+00 0. -1.
          6    1    1    2  501    0  0.14097340157E+03 -0.32702440469E+02  0.15298861158E+03  0.27253892352E+03  0.17300000000E+03 0. -1.
         -6    1    1    2    0  502 -0.14097340157E+03  0.32702440469E+02  0.40583809493E+03  0.46430217409E+03  0.17300000000E+03 0.  1.
<mgrwt>
<rscale>  2 0.22554811E+03</rscale>
<asrwt>0</asrwt>
<pdfrwt beam="1">  1       21 0.99666751E-01 0.22554811E+03</pdfrwt>
<pdfrwt beam="2">  1       21 0.13693415E-01 0.22554811E+03</pdfrwt>
<totfact> 0.37642579E+04</totfact>
</mgrwt>
</event>
<event>
 4    1  0.4306168E+000  0.1918917E+03  0.7546771E-02  0.1156766E+00
         21   -1    0    0  501  502  0.00000000000E+00  0.00000000000E+00  0.48396703496E+03  0.48396703496E+03  0.00000000000E+00 0.  1.
         21   -1    0    0  502  503 -0.00000000000E+00 -0.00000000000E+00 -0.28410270011E+03  0.28410270011E+03  0.00000000000E+00 0. -1.
          6    1    1    2  501    0 -0.70497187825E+02  0.43858674149E+02  0.42854426094E+03  0.46954512070E+03  0.17300000000E+03 0.  1.
         -6    1    1    2    0  503  0.70497187825E+02 -0.43858674149E+02 -0.22867992609E+03  0.29852461437E+03  0.17300000000E+03 0. -1.
<mgrwt>
<rscale>  2 0.19189173E+03</rscale>
<asrwt>0</asrwt>
<pdfrwt beam="1">  1       21 0.74456467E-01 0.19189173E+03</pdfrwt>
<pdfrwt beam="2">  1       21 0.43708108E-01 0.19189173E+03</pdfrwt>
<totfact> 0.81332476E+03</totfact>
</mgrwt>
</event>
<event>
 4    1  0.4306168E+000  0.1848390E+03  0.7546771E-02  0.1163200E+00
         21   -1    0    0  501  502  0.00000000000E+00  0.00000000000E+00  0.46739619750E+03  0.46739619750E+03  0.00000000000E+00 0.  1.
         21   -1    0    0  502  503 -0.00000000000E+00 -0.00000000000E+00 -0.56711064250E+03  0.56711064250E+03  0.00000000000E+00 0.  1.
          6    1    1    2  501    0 -0.55989795643E+02  0.33190304744E+02  0.43291109515E+03  0.47072016087E+03  0.17300000000E+03 0.  1.
         -6    1    1    2    0  503  0.55989795643E+02 -0.33190304744E+02 -0.53262554015E+03  0.56378667913E+03  0.17300000000E+03 0.  1.
<mgrwt>
<rscale>  2 0.18483899E+03</rscale>
<asrwt>0</asrwt>
<pdfrwt beam="1">  1       21 0.71907107E-01 0.18483899E+03</pdfrwt>
<pdfrwt beam="2">  1       21 0.87247791E-01 0.18483899E+03</pdfrwt>
<totfact> 0.19848672E+03</totfact>
</mgrwt>
</event>
<event>
 4    1  0.4306168E+000  0.1918413E+03  0.7546771E-02  0.1156811E+00
         21   -1    0    0  501  502  0.00000000000E+00  0.00000000000E+00  0.21325683867E+03  0.21325683867E+03  0.00000000000E+00 0. -1.
         21   -1    0    0  502  503 -0.00000000000E+00 -0.00000000000E+00 -0.22775613899E+03  0.22775613899E+03  0.00000000000E+00 0.  1.
          6    1    1    2  501    0 -0.98410183358E+01  0.82324065356E+02  0.10128693440E+03  0.21693810283E+03  0.17300000000E+03 0. -1.
         -6    1    1    2    0  503  0.98410183358E+01 -0.82324065356E+02 -0.11578623472E+03  0.22407487483E+03  0.17300000000E+03 0.  1.
<mgrwt>
<rscale>  2 0.19184133E+03</rscale>
<asrwt>0</asrwt>
<pdfrwt beam="1">  1       21 0.32808744E-01 0.19184133E+03</pdfrwt>
<pdfrwt beam="2">  1       21 0.35039406E-01 0.19184133E+03</pdfrwt>
<totfact> 0.70241984E+04</totfact>
</mgrwt>
</event>
<event>
 4    1  0.4306168E+000  0.2159089E+03  0.7546771E-02  0.1136970E+00
         21   -1    0    0  501  502  0.00000000000E+00  0.00000000000E+00  0.11132425034E+03  0.11132425034E+03  0.00000000000E+00 0.  1.
         21   -1    0    0  502  503 -0.00000000000E+00 -0.00000000000E+00 -0.65471597631E+03  0.65471597631E+03  0.00000000000E+00 0.  1.
          6    1    1    2  501    0 -0.54685965424E+02 -0.11703459107E+03 -0.41751407723E+02  0.21990868643E+03  0.17300000000E+03 0.  1.
         -6    1    1    2    0  503  0.54685965424E+02  0.11703459107E+03 -0.50164031825E+03  0.54613154021E+03  0.17300000000E+03 0.  1.
<mgrwt>
<rscale>  2 0.21590889E+03</rscale>
<asrwt>0</asrwt>
<pdfrwt beam="1">  1       21 0.17126808E-01 0.21590889E+03</pdfrwt>
<pdfrwt beam="2">  1       21 0.10072553E+00 0.21590889E+03</pdfrwt>
<totfact> 0.24497710E+04</totfact>
</mgrwt>
</event>
<event>
 4    1  0.4306168E+000  0.1857350E+03  0.7546771E-02  0.1162365E+00
         21   -1    0    0  501  502  0.00000000000E+00  0.00000000000E+00  0.18461290691E+03  0.18461290691E+03  0.00000000000E+00 0. -1.
         21   -1    0    0  502  503 -0.00000000000E+00 -0.00000000000E+00 -0.20145625523E+03  0.20145625523E+03  0.00000000000E+00 0. -1.
          6    1    1    2  501    0 -0.57731091616E+02 -0.35151139535E+02  0.43531003669E+02  0.19076800002E+03  0.17300000000E+03 0. -1.
         -6    1    1    2    0  503  0.57731091616E+02  0.35151139535E+02 -0.60374351987E+02  0.19530116213E+03  0.17300000000E+03 0. -1.
<mgrwt>
<rscale>  2 0.18573498E+03</rscale>
<asrwt>0</asrwt>
<pdfrwt beam="1">  1       21 0.28401986E-01 0.18573498E+03</pdfrwt>
<pdfrwt beam="2">  1       21 0.30993270E-01 0.18573498E+03</pdfrwt>
<totfact> 0.11880235E+05</totfact>
</mgrwt>
</event>
<event>
 4    1  0.4306168E+000  0.1825497E+03  0.7546771E-02  0.1165358E+00
         21   -1    0    0  501  502  0.00000000000E+00  0.00000000000E+00  0.38391862850E+02  0.38391862850E+02  0.00000000000E+00 0. -1.
         21   -1    0    0  502  503 -0.00000000000E+00 -0.00000000000E+00 -0.88231677930E+03  0.88231677930E+03  0.00000000000E+00 0. -1.
          6    1    1    2  501    0 -0.50879766119E+01  0.58047431441E+02 -0.36333488546E+03  0.40661607297E+03  0.17300000000E+03 0. -1.
         -6    1    1    2    0  503  0.50879766119E+01 -0.58047431441E+02 -0.48059003098E+03  0.51409256917E+03  0.17300000000E+03 0. -1.
<mgrwt>
<rscale>  2 0.18254970E+03</rscale>
<asrwt>0</asrwt>
<pdfrwt beam="1">  1       21 0.59064406E-02 0.18254970E+03</pdfrwt>
<pdfrwt beam="2">  1       21 0.13574104E+00 0.18254970E+03</pdfrwt>
<totfact> 0.78851457E+04</totfact>
</mgrwt>
</event>
<event>
 4    1  0.4306168E+000  0.1782605E+03  0.7546771E-02  0.1169497E+00
         21   -1    0    0  501  502  0.00000000000E+00  0.00000000000E+00  0.94048192824E+03  0.94048192824E+03  0.00000000000E+00 0.  1.
         21   -1    0    0  502  503 -0.00000000000E+00 -0.00000000000E+00 -0.40662588077E+02  0.40662588077E+02  0.00000000000E+00 0.  1.
          6    1    1    2  501    0  0.36122317503E+02 -0.23301886708E+02  0.65162349123E+03  0.67556640982E+03  0.17300000000E+03 0.  1.
         -6    1    1    2    0  503 -0.36122317503E+02  0.23301886708E+02  0.24819584893E+03  0.30557810650E+03  0.17300000000E+03 0.  1.
<mgrwt>
<rscale>  2 0.17826048E+03</rscale>
<asrwt>0</asrwt>
<pdfrwt beam="1">  1       21 0.14468951E+00 0.17826048E+03</pdfrwt>
<pdfrwt beam="2">  1       21 0.62557835E-02 0.17826048E+03</pdfrwt>
<totfact> 0.60763134E+04</totfact>
</mgrwt>
</event>
<event>
 4    1  0.4306168E+000  0.3185307E+03  0.7546771E-02  0.1076328E+00
         21   -1    0    0  501  502  0.00000000000E+00  0.00000000000E+00  0.10711337666E+04  0.10711337666E+04  0.00000000000E+00 0. -1.
         21   -1    0    0  502  503 -0.00000000000E+00 -0.00000000000E+00 -0.98943020237E+02  0.98943020237E+02  0.00000000000E+00 0. -1.
          6    1    1    2  501    0 -0.23445315758E+02 -0.26642656211E+03  0.60690763077E+03  0.68541860795E+03  0.17300000000E+03 0. -1.
         -6    1    1    2    0  503  0.23445315758E+02  0.26642656211E+03  0.36528311560E+03  0.48465817890E+03  0.17300000000E+03 0. -1.
<mgrwt>
<rscale>  2 0.31853068E+03</rscale>
<asrwt>0</asrwt>
<pdfrwt beam="1">  1       21 0.16478980E+00 0.31853068E+03</pdfrwt>
<pdfrwt beam="2">  1       21 0.15222004E-01 0.31853068E+03</pdfrwt>
<totfact> 0.81968790E+03</totfact>
</mgrwt>
</event>
<event>
 4    1  0.4306168E+000  0.1816476E+03  0.7546771E-02  0.1166218E+00
         21   -1    0    0  501  502  0.00000000000E+00  0.00000000000E+00  0.30185485331E+03  0.30185485331E+03  0.00000000000E+00 0. -1.
         21   -1    0    0  502  503 -0.00000000000E+00 -0.00000000000E+00 -0.11516018225E+03  0.11516018225E+03  0.00000000000E+00 0. -1.
          6    1    1    2  501    0 -0.42179752806E+02 -0.35884734257E+02  0.46353167001E+02  0.18746856214E+03  0.17300000000E+03 0. -1.
         -6    1    1    2    0  503  0.42179752806E+02  0.35884734257E+02  0.14034150405E+03  0.22954647342E+03  0.17300000000E+03 0. -1.
<mgrwt>
<rscale>  2 0.18164759E+03</rscale>
<asrwt>0</asrwt>
<pdfrwt beam="1">  1       21 0.46439208E-01 0.18164759E+03</pdfrwt>
<pdfrwt beam="2">  1       21 0.17716951E-01 0.18164759E+03</pdfrwt>
<totfact> 0.12888560E+05</totfact>
</mgrwt>
</event>
<event>
 4    1  0.4306168E+000  0.2079243E+03  0.7546771E-02  0.1143220E+00
         21   -1    0    0  501  502  0.00000000000E+00  0.00000000000E+00  0.85462266511E+02  0.85462266511E+02  0.00000000000E+00 0.  1.
         21   -1    0    0  502  503 -0.00000000000E+00 -0.00000000000E+00 -0.62092318971E+03  0.62092318971E+03  0.00000000000E+00 0. -1.
          6    1    1    2  501    0 -0.11526644484E+03  0.41405101877E+01 -0.11569364693E+03  0.23794435709E+03  0.17300000000E+03 0.  1.
         -6    1    1    2    0  503  0.11526644484E+03 -0.41405101877E+01 -0.41976727627E+03  0.46844109913E+03  0.17300000000E+03 0. -1.
<mgrwt>
<rscale>  2 0.20792426E+03</rscale>
<asrwt>0</asrwt>
<pdfrwt beam="1">  1       21 0.13148041E-01 0.20792426E+03</pdfrwt>
<pdfrwt beam="2">  1       21 0.95526648E-01 0.20792426E+03</pdfrwt>
<totfact> 0.45183693E+04</totfact>
</mgrwt>
</event>
<event>
 4    1  0.4306168E+000  0.1797659E+03  0.7546771E-02  0.1168030E+00
         21   -1    0    0  501  502  0.00000000000E+00  0.00000000000E+00  0.76350097679E+03  0.76350097679E+03  0.00000000000E+00 0. -1.
         21   -1    0    0  502  503 -0.00000000000E+00 -0.00000000000E+00 -0.42338623458E+02  0.42338623458E+02  0.00000000000E+00 0. -1.
          6    1    1    2  501    0 -0.83927351330E+01  0.48128502560E+02  0.36759295257E+03  0.40919478190E+03  0.17300000000E+03 0. -1.
         -6    1    1    2    0  503  0.83927351330E+01 -0.48128502560E+02  0.35356940077E+03  0.39664481835E+03  0.17300000000E+03 0. -1.
<mgrwt>
<rscale>  2 0.17976593E+03</rscale>
<asrwt>0</asrwt>
<pdfrwt beam="1">  1       21 0.11746168E+00 0.17976593E+03</pdfrwt>
<pdfrwt beam="2">  1       21 0.65136349E-02 0.17976593E+03</pdfrwt>
<totfact> 0.95874777E+04</totfact>
</mgrwt>
</event>
<event>
 4    1  0.4306168E+000  0.1787886E+03  0.7546771E-02  0.1168981E+00
         21   -1    0    0  501  502  0.00000000000E+00  0.00000000000E+00  0.12384029441E+03  0.12384029441E+03  0.00000000000E+00 0.  1.
         21   -1    0    0  502  503 -0.00000000000E+00 -0.00000000000E+00 -0.33001591900E+03  0.33001591900E+03  0.00000000000E+00 0.  1.
          6    1    1    2  501    0 -0.28734609271E+02  0.34794804661E+02  0.28327543859E+01  0.17881101951E+03  0.17300000000E+03 0.  1.
         -6    1    1    2    0  503  0.28734609271E+02 -0.34794804661E+02 -0.20900837897E+03  0.27504519389E+03  0.17300000000E+03 0.  1.
<mgrwt>
<rscale>  2 0.17878858E+03</rscale>
<asrwt>0</asrwt>
<pdfrwt beam="1">  1       21 0.19052353E-01 0.17878858E+03</pdfrwt>
<pdfrwt beam="2">  1       21 0.50771680E-01 0.17878858E+03</pdfrwt>
<totfact> 0.93758413E+04</totfact>
</mgrwt>
</event>
<event>
 4    1  0.4306168E+000  0.1915888E+03  0.7546771E-02  0.1157036E+00
         21   -1    0    0  501  502  0.00000000000E+00  0.00000000000E+00  0.11454821015E+03  0.11454821015E+03  0.00000000000E+00 0.  1.
         21   -1    0    0  502  503 -0.00000000000E+00 -0.00000000000E+00 -0.21958899552E+04  0.21958899552E+04  0.00000000000E+00 0.  1.
          6    1    1    2  501    0 -0.16223410111E+02  0.80709846544E+02  0.26935981708E+02  0.19347306137E+03  0.17300000000E+03 0.  1.
         -6    1    1    2    0  503  0.16223410111E+02 -0.80709846544E+02 -0.21082777267E+04  0.21169651039E+04  0.17300000000E+03 0.  1.
<mgrwt>
<rscale>  2 0.19158883E+03</rscale>
<asrwt>0</asrwt>
<pdfrwt beam="1">  1       21 0.17622803E-01 0.19158883E+03</pdfrwt>
<pdfrwt beam="2">  1       21 0.33782919E+00 0.19158883E+03</pdfrwt>
<totfact> 0.60284147E+02</totfact>
</mgrwt>
</event>
<event>
 4    1  0.4306168E+000  0.1943464E+03  0.7546771E-02  0.1154599E+00
         21   -1    0    0  501  502  0.00000000000E+00  0.00000000000E+00  0.10837042369E+03  0.10837042369E+03  0.00000000000E+00 0. -1.
         21   -1    0    0  502  503 -0.00000000000E+00 -0.00000000000E+00 -0.92262637142E+03  0.92262637142E+03  0.00000000000E+00 0.  1.
          6    1    1    2  501    0  0.35151879027E+02  0.81276464939E+02 -0.49164181516E+00  0.19434700940E+03  0.17300000000E+03 0. -1.
         -6    1    1    2    0  503 -0.35151879027E+02 -0.81276464939E+02 -0.81376430591E+03  0.83664978571E+03  0.17300000000E+03 0.  1.
<mgrwt>
<rscale>  2 0.19434639E+03</rscale>
<asrwt>0</asrwt>
<pdfrwt beam="1">  1       21 0.16672373E-01 0.19434639E+03</pdfrwt>
<pdfrwt beam="2">  1       21 0.14194252E+00 0.19434639E+03</pdfrwt>
<totfact> 0.11150781E+04</totfact>
</mgrwt>
</event>
<event>
 4    1  0.4306168E+000  0.3635426E+03  0.7546771E-02  0.1057190E+00
         21   -1    0    0  501  502  0.00000000000E+00  0.00000000000E+00  0.80772681989E+03  0.80772681989E+03  0.00000000000E+00 0.  1.
         21   -1    0    0  502  503 -0.00000000000E+00 -0.00000000000E+00 -0.17736879492E+03  0.17736879492E+03  0.00000000000E+00 0.  1.
          6    1    1    2  501    0  0.30920544201E+03  0.81401524675E+02  0.45229382782E+03  0.58028692926E+03  0.17300000000E+03 0.  1.
         -6    1    1    2    0  503 -0.30920544201E+03 -0.81401524675E+02  0.17806419715E+03  0.40480868555E+03  0.17300000000E+03 0.  1.
<mgrwt>
<rscale>  2 0.36354259E+03</rscale>
<asrwt>0</asrwt>
<pdfrwt beam="1">  1       21 0.12426566E+00 0.36354259E+03</pdfrwt>
<pdfrwt beam="2">  1       21 0.27287507E-01 0.36354259E+03</pdfrwt>
<totfact> 0.56154587E+03</totfact>
</mgrwt>
</event>
<event>
 4    1  0.4306168E+000  0.1842157E+03  0.7546771E-02  0.1163784E+00
         21   -1    0    0  503  502  0.00000000000E+00  0.00000000000E+00  0.53319002311E+03  0.53319002311E+03  0.00000000000E+00 0. -1.
         21   -1    0    0  501  503 -0.00000000000E+00 -0.00000000000E+00 -0.11085589799E+03  0.11085589799E+03  0.00000000000E+00 0. -1.
          6    1    1    2  501    0  0.14245015261E+02  0.61672524718E+02  0.10197243377E+01  0.18421851319E+03  0.17300000000E+03 0. -1.
         -6    1    1    2    0  502 -0.14245015261E+02 -0.61672524718E+02  0.42131440078E+03  0.45982740792E+03  0.17300000000E+03 0. -1.
<mgrwt>
<rscale>  2 0.18421569E+03</rscale>
<asrwt>0</asrwt>
<pdfrwt beam="1">  1       21 0.82029233E-01 0.18421569E+03</pdfrwt>
<pdfrwt beam="2">  1       21 0.17054754E-01 0.18421569E+03</pdfrwt>
<totfact> 0.40474235E+04</totfact>
</mgrwt>
</event>
<event>
 4    1  0.4306168E+000  0.3606750E+03  0.7546771E-02  0.1058317E+00
         21   -1    0    0  501  502  0.00000000000E+00  0.00000000000E+00  0.10062503653E+04  0.10062503653E+04  0.00000000000E+00 0. -1.
         21   -1    0    0  502  503 -0.00000000000E+00 -0.00000000000E+00 -0.13694181690E+03  0.13694181690E+03  0.00000000000E+00 0.  1.
          6    1    1    2  501    0 -0.31646322343E+03 -0.29099465670E+01  0.56987160775E+03  0.67441833374E+03  0.17300000000E+03 0. -1.
         -6    1    1    2    0  503  0.31646322343E+03  0.29099465670E+01  0.29943694066E+03  0.46877384847E+03  0.17300000000E+03 0.  1.
<mgrwt>
<rscale>  2 0.36067498E+03</rscale>
<asrwt>0</asrwt>
<pdfrwt beam="1">  1       21 0.15480774E+00 0.36067498E+03</pdfrwt>
<pdfrwt beam="2">  1       21 0.21067972E-01 0.36067498E+03</pdfrwt>
<totfact> 0.51937005E+03</totfact>
</mgrwt>
</event>
<event>
 4    1  0.4306168E+000  0.1856512E+03  0.7546771E-02  0.1162443E+00
         21   -1    0    0  503  502  0.00000000000E+00  0.00000000000E+00  0.90062034357E+02  0.90062034357E+02  0.00000000000E+00 0. -1.
         21   -1    0    0  501  503 -0.00000000000E+00 -0.00000000000E+00 -0.39899881638E+03  0.39899881638E+03  0.00000000000E+00 0.  1.
          6    1    1    2  501    0 -0.66776173218E+01  0.67028275211E+02 -0.10503977785E+03  0.21330666933E+03  0.17300000000E+03 0. -1.
         -6    1    1    2    0  502  0.66776173218E+01 -0.67028275211E+02 -0.20389700417E+03  0.27575418140E+03  0.17300000000E+03 0.  1.
<mgrwt>
<rscale>  2 0.18565123E+03</rscale>
<asrwt>0</asrwt>
<pdfrwt beam="1">  1       21 0.13855698E-01 0.18565123E+03</pdfrwt>
<pdfrwt beam="2">  1       21 0.61384433E-01 0.18565123E+03</pdfrwt>
<totfact> 0.11206227E+05</totfact>
</mgrwt>
</event>
<event>
 4    1  0.4306168E+000  0.3490244E+03  0.7546771E-02  0.1063016E+00
         21   -1    0    0  501  502  0.00000000000E+00  0.00000000000E+00  0.40655509686E+03  0.40655509686E+03  0.00000000000E+00 0.  1.
         21   -1    0    0  502  503 -0.00000000000E+00 -0.00000000000E+00 -0.75520139628E+03  0.75520139628E+03  0.00000000000E+00 0. -1.
          6    1    1    2  501    0  0.29030774836E+03  0.87237665385E+02  0.27683595148E+03  0.44548416700E+03  0.17300000000E+03 0.  1.
         -6    1    1    2    0  503 -0.29030774836E+03 -0.87237665385E+02 -0.62548225089E+03  0.71627232614E+03  0.17300000000E+03 0. -1.
<mgrwt>
<rscale>  2 0.34902435E+03</rscale>
<asrwt>0</asrwt>
<pdfrwt beam="1">  1       21 0.62546939E-01 0.34902435E+03</pdfrwt>
<pdfrwt beam="2">  1       21 0.11618483E+00 0.34902435E+03</pdfrwt>
<totfact> 0.12092575E+03</totfact>
</mgrwt>
</event>
<event>
 4    1  0.4306168E+000  0.2689955E+03  0.7546771E-02  0.1101856E+00
         21   -1    0    0  501  502  0.00000000000E+00  0.00000000000E+00  0.16947851383E+03  0.16947851383E+03  0.00000000000E+00 0.  1.
         21   -1    0    0  502  503 -0.00000000000E+00 -0.00000000000E+00 -0.46413351732E+03  0.46413351732E+03  0.00000000000E+00 0.  1.
          6    1    1    2  501    0  0.15062862982E+03  0.14050115480E+03 -0.23699958903E+03  0.35850713217E+03  0.17300000000E+03 0.  1.
         -6    1    1    2    0  503 -0.15062862982E+03 -0.14050115480E+03 -0.57655414469E+02  0.27510489897E+03  0.17300000000E+03 0.  1.
<mgrwt>
<rscale>  2 0.26899546E+03</rscale>
<asrwt>0</asrwt>
<pdfrwt beam="1">  1       21 0.26073618E-01 0.26899546E+03</pdfrwt>
<pdfrwt beam="2">  1       21 0.71405155E-01 0.26899546E+03</pdfrwt>
<totfact> 0.23837677E+04</totfact>
</mgrwt>
</event>
<event>
 4    1  0.4306168E+000  0.2120415E+03  0.7546771E-02  0.1139959E+00
         21   -1    0    0  503  502  0.00000000000E+00  0.00000000000E+00  0.52051778960E+03  0.52051778960E+03  0.00000000000E+00 0. -1.
         21   -1    0    0  501  503 -0.00000000000E+00 -0.00000000000E+00 -0.87356058807E+02  0.87356058807E+02  0.00000000000E+00 0. -1.
          6    1    1    2  501    0 -0.11654756531E+03  0.38069281440E+02  0.24873102222E+03  0.32684664077E+03  0.17300000000E+03 0. -1.
         -6    1    1    2    0  502  0.11654756531E+03 -0.38069281440E+02  0.18443070857E+03  0.28102720764E+03  0.17300000000E+03 0. -1.
<mgrwt>
<rscale>  2 0.21204152E+03</rscale>
<asrwt>0</asrwt>
<pdfrwt beam="1">  1       21 0.80079658E-01 0.21204152E+03</pdfrwt>
<pdfrwt beam="2">  1       21 0.13439394E-01 0.21204152E+03</pdfrwt>
<totfact> 0.65109366E+04</totfact>
</mgrwt>
</event>
<event>
 4    1  0.4306168E+000  0.3232703E+03  0.7546771E-02  0.1074154E+00
         21   -1    0    0  501  502  0.00000000000E+00  0.00000000000E+00  0.65549522385E+02  0.65549522385E+02  0.00000000000E+00 0. -1.
         21   -1    0    0  502  503 -0.00000000000E+00 -0.00000000000E+00 -0.18485008844E+04  0.18485008844E+04  0.00000000000E+00 0. -1.
          6    1    1    2  501    0  0.27048894924E+03  0.37555675895E+02 -0.53655862389E+03  0.62641747846E+03  0.17300000000E+03 0. -1.
         -6    1    1    2    0  503 -0.27048894924E+03 -0.37555675895E+02 -0.12463927381E+04  0.12876329283E+04  0.17300000000E+03 0. -1.
<mgrwt>
<rscale>  2 0.32327032E+03</rscale>
<asrwt>0</asrwt>
<pdfrwt beam="1">  1       21 0.10084540E-01 0.32327032E+03</pdfrwt>
<pdfrwt beam="2">  1       21 0.28438480E+00 0.32327032E+03</pdfrwt>
<totfact> 0.29851492E+03</totfact>
</mgrwt>
</event>
<event>
 4    1  0.4306168E+000  0.2169002E+03  0.7546771E-02  0.1136215E+00
         21   -1    0    0  503  502  0.00000000000E+00  0.00000000000E+00  0.14580682012E+02  0.14580682012E+02  0.00000000000E+00 0.  1.
         21   -1    0    0  501  503 -0.00000000000E+00 -0.00000000000E+00 -0.32943335580E+04  0.32943335580E+04  0.00000000000E+00 0. -1.
          6    1    1    2  501    0  0.12735476618E+03 -0.29957746093E+02 -0.18771477572E+04  0.18896373740E+04  0.17300000000E+03 0. -1.
         -6    1    1    2    0  502 -0.12735476618E+03  0.29957746093E+02 -0.14026051188E+04  0.14192768660E+04  0.17300000000E+03 0. -1.
<mgrwt>
<rscale>  2 0.21690021E+03</rscale>
<asrwt>0</asrwt>
<pdfrwt beam="1">  1       21 0.22431806E-02 0.21690021E+03</pdfrwt>
<pdfrwt beam="2">  1       21 0.50682082E+00 0.21690021E+03</pdfrwt>
<totfact> 0.16695647E+03</totfact>
</mgrwt>
</event>
<event>
 4    1  0.4306168E+000  0.2079601E+03  0.7546771E-02  0.1143192E+00
         21   -1    0    0  501  502  0.00000000000E+00  0.00000000000E+00  0.29399262674E+03  0.29399262674E+03  0.00000000000E+00 0. -1.
         21   -1    0    0  502  503 -0.00000000000E+00 -0.00000000000E+00 -0.16249849584E+03  0.16249849584E+03  0.00000000000E+00 0. -1.
          6    1    1    2  501    0 -0.11464618708E+03 -0.13215337512E+02 -0.45059718924E+01  0.20800888717E+03  0.17300000000E+03 0. -1.
         -6    1    1    2    0  503  0.11464618708E+03  0.13215337512E+02  0.13600010279E+03  0.24848223541E+03  0.17300000000E+03 0. -1.
<mgrwt>
<rscale>  2 0.20796008E+03</rscale>
<asrwt>0</asrwt>
<pdfrwt beam="1">  1       21 0.45229635E-01 0.20796008E+03</pdfrwt>
<pdfrwt beam="2">  1       21 0.24999769E-01 0.20796008E+03</pdfrwt>
<totfact> 0.70549113E+04</totfact>
</mgrwt>
</event>
<event>
 4    1  0.4306168E+000  0.2182073E+03  0.7546771E-02  0.1135227E+00
         21   -1    0    0  501  502  0.00000000000E+00  0.00000000000E+00  0.95621098808E+02  0.95621098808E+02  0.00000000000E+00 0.  1.
         21   -1    0    0  502  503 -0.00000000000E+00 -0.00000000000E+00 -0.54761968331E+03  0.54761968331E+03  0.00000000000E+00 0.  1.
          6    1    1    2  501    0  0.10026532764E+03 -0.87362971222E+02 -0.12913707947E+03  0.25355632503E+03  0.17300000000E+03 0.  1.
         -6    1    1    2    0  503 -0.10026532764E+03  0.87362971222E+02 -0.32286150503E+03  0.38968445709E+03  0.17300000000E+03 0.  1.
<mgrwt>
<rscale>  2 0.21820730E+03</rscale>
<asrwt>0</asrwt>
<pdfrwt beam="1">  1       21 0.14710938E-01 0.21820730E+03</pdfrwt>
<pdfrwt beam="2">  1       21 0.84249182E-01 0.21820730E+03</pdfrwt>
<totfact> 0.49076830E+04</totfact>
</mgrwt>
</event>
<event>
 4    1  0.4306168E+000  0.2417631E+03  0.7546771E-02  0.1118624E+00
         21   -1    0    0  501  502  0.00000000000E+00  0.00000000000E+00  0.12306686351E+03  0.12306686351E+03  0.00000000000E+00 0.  1.
         21   -1    0    0  502  503 -0.00000000000E+00 -0.00000000000E+00 -0.11944247853E+04  0.11944247853E+04  0.00000000000E+00 0.  1.
          6    1    1    2  501    0  0.53774593152E+02  0.16008967011E+03 -0.24410270433E+02  0.24299232631E+03  0.17300000000E+03 0.  1.
         -6    1    1    2    0  503 -0.53774593152E+02 -0.16008967011E+03 -0.10469476514E+04  0.10744993225E+04  0.17300000000E+03 0.  1.
<mgrwt>
<rscale>  2 0.24176313E+03</rscale>
<asrwt>0</asrwt>
<pdfrwt beam="1">  1       21 0.18933364E-01 0.24176313E+03</pdfrwt>
<pdfrwt beam="2">  1       21 0.18375766E+00 0.24176313E+03</pdfrwt>
<totfact> 0.42107010E+03</totfact>
</mgrwt>
</event>
<event>
 4    1  0.4306168E+000  0.1863354E+03  0.7546771E-02  0.1161809E+00
         21   -1    0    0  501  502  0.00000000000E+00  0.00000000000E+00  0.79060960022E+03  0.79060960022E+03  0.00000000000E+00 0. -1.
         21   -1    0    0  502  503 -0.00000000000E+00 -0.00000000000E+00 -0.44491946686E+02  0.44491946686E+02  0.00000000000E+00 0. -1.
          6    1    1    2  501    0 -0.14631547303E+02 -0.67659342470E+02  0.32557547128E+03  0.37512698690E+03  0.17300000000E+03 0. -1.
         -6    1    1    2    0  503  0.14631547303E+02  0.67659342470E+02  0.42054218225E+03  0.45997456001E+03  0.17300000000E+03 0. -1.
<mgrwt>
<rscale>  2 0.18633537E+03</rscale>
<asrwt>0</asrwt>
<pdfrwt beam="1">  1       21 0.12163224E+00 0.18633537E+03</pdfrwt>
<pdfrwt beam="2">  1       21 0.68449155E-02 0.18633537E+03</pdfrwt>
<totfact> 0.80525816E+04</totfact>
</mgrwt>
</event>
<event>
 4    1  0.4306168E+000  0.1926753E+03  0.7546771E-02  0.1156070E+00
         21   -1    0    0  503  502  0.00000000000E+00  0.00000000000E+00  0.28435211841E+03  0.28435211841E+03  0.00000000000E+00 0. -1.
         21   -1    0    0  501  503 -0.00000000000E+00 -0.00000000000E+00 -0.13072984437E+03  0.13072984437E+03  0.00000000000E+00 0.  1.
          6    1    1    2  501    0 -0.37082077446E+02 -0.76286779810E+02  0.84388738447E+02  0.21034545970E+03  0.17300000000E+03 0.  1.
         -6    1    1    2    0  502  0.37082077446E+02  0.76286779810E+02  0.69233535591E+02  0.20473650308E+03  0.17300000000E+03 0. -1.
<mgrwt>
<rscale>  2 0.19267525E+03</rscale>
<asrwt>0</asrwt>
<pdfrwt beam="1">  1       21 0.43746480E-01 0.19267525E+03</pdfrwt>
<pdfrwt beam="2">  1       21 0.20112284E-01 0.19267525E+03</pdfrwt>
<totfact> 0.11470357E+05</totfact>
</mgrwt>
</event>
<event>
 4    1  0.4306168E+000  0.1851443E+03  0.7546771E-02  0.1162915E+00
         21   -1    0    0  503  502  0.00000000000E+00  0.00000000000E+00  0.36076878741E+03  0.36076878741E+03  0.00000000000E+00 0. -1.
         21   -1    0    0  501  503 -0.00000000000E+00 -0.00000000000E+00 -0.97619574398E+02  0.97619574398E+02  0.00000000000E+00 0. -1.
          6    1    1    2  501    0  0.65945882946E+02 -0.74328997276E+00  0.16901250479E+03  0.25068633535E+03  0.17300000000E+03 0. -1.
         -6    1    1    2    0  502 -0.65945882946E+02  0.74328997276E+00  0.94136708215E+02  0.20770202645E+03  0.17300000000E+03 0. -1.
<mgrwt>
<rscale>  2 0.18514430E+03</rscale>
<asrwt>0</asrwt>
<pdfrwt beam="1">  1       21 0.55502890E-01 0.18514430E+03</pdfrwt>
<pdfrwt beam="2">  1       21 0.15018396E-01 0.18514430E+03</pdfrwt>
<totfact> 0.12007732E+05</totfact>
</mgrwt>
</event>
<event>
 4    1  0.4306168E+000  0.2071130E+03  0.7546771E-02  0.1143873E+00
         21   -1    0    0  503  502  0.00000000000E+00  0.00000000000E+00  0.28911681355E+03  0.28911681355E+03  0.00000000000E+00 0. -1.
         21   -1    0    0  501  503 -0.00000000000E+00 -0.00000000000E+00 -0.18009291526E+03  0.18009291526E+03  0.00000000000E+00 0.  1.
          6    1    1    2  501    0 -0.38750205419E+02 -0.10707569265E+03 -0.43954117669E+02  0.21172564048E+03  0.17300000000E+03 0.  1.
         -6    1    1    2    0  502  0.38750205419E+02  0.10707569265E+03  0.15297801596E+03  0.25748408833E+03  0.17300000000E+03 0. -1.
<mgrwt>
<rscale>  2 0.20711297E+03</rscale>
<asrwt>0</asrwt>
<pdfrwt beam="1">  1       21 0.44479510E-01 0.20711297E+03</pdfrwt>
<pdfrwt beam="2">  1       21 0.27706602E-01 0.20711297E+03</pdfrwt>
<totfact> 0.59941253E+04</totfact>
</mgrwt>
</event>
<event>
 4    1  0.4306168E+000  0.1992923E+03  0.7546771E-02  0.1150338E+00
         21   -1    0    0  501  502  0.00000000000E+00  0.00000000000E+00  0.22374793891E+04  0.22374793891E+04  0.00000000000E+00 0.  1.
         21   -1    0    0  502  503 -0.00000000000E+00 -0.00000000000E+00 -0.17760699671E+02  0.17760699671E+02  0.00000000000E+00 0.  1.
          6    1    1    2  501    0 -0.97715740934E+02  0.15493084875E+02  0.11362687731E+04  0.11536135083E+04  0.17300000000E+03 0.  1.
         -6    1    1    2    0  503  0.97715740934E+02 -0.15493084875E+02  0.10834499163E+04  0.11016265805E+04  0.17300000000E+03 0.  1.
<mgrwt>
<rscale>  2 0.19929225E+03</rscale>
<asrwt>0</asrwt>
<pdfrwt beam="1">  1       21 0.34422737E+00 0.19929225E+03</pdfrwt>
<pdfrwt beam="2">  1       21 0.27324171E-02 0.19929225E+03</pdfrwt>
<totfact> 0.13857653E+04</totfact>
</mgrwt>
</event>
<event>
 4    1  0.4306168E+000  0.2447670E+03  0.7546771E-02  0.1116657E+00
         21   -1    0    0  503  502  0.00000000000E+00  0.00000000000E+00  0.45443207570E+02  0.45443207570E+02  0.00000000000E+00 0. -1.
         21   -1    0    0  501  503 -0.00000000000E+00 -0.00000000000E+00 -0.17479721686E+04  0.17479721686E+04  0.00000000000E+00 0.  1.
          6    1    1    2  501    0 -0.16328676725E+03  0.57613551779E+02 -0.12958114647E+04  0.13187259919E+04  0.17300000000E+03 0.  1.
         -6    1    1    2    0  502  0.16328676725E+03 -0.57613551779E+02 -0.40671749636E+03  0.47468938428E+03  0.17300000000E+03 0. -1.
<mgrwt>
<rscale>  2 0.24476701E+03</rscale>
<asrwt>0</asrwt>
<pdfrwt beam="1">  1       21 0.69912624E-02 0.24476701E+03</pdfrwt>
<pdfrwt beam="2">  1       21 0.26891881E+00 0.24476701E+03</pdfrwt>
<totfact> 0.74478923E+03</totfact>
</mgrwt>
</event>
<event>
 4    1  0.4306168E+000  0.1924794E+03  0.7546771E-02  0.1156244E+00
         21   -1    0    0  503  502  0.00000000000E+00  0.00000000000E+00  0.20733851676E+03  0.20733851676E+03  0.00000000000E+00 0. -1.
         21   -1    0    0  501  503 -0.00000000000E+00 -0.00000000000E+00 -0.19928582272E+04  0.19928582272E+04  0.00000000000E+00 0. -1.
          6    1    1    2  501    0  0.81202947688E+02  0.22921853068E+02 -0.19423812381E+04  0.19518947728E+04  0.17300000000E+03 0. -1.
         -6    1    1    2    0  502 -0.81202947688E+02 -0.22921853068E+02  0.15686152760E+03  0.24830197120E+03  0.17300000000E+03 0. -1.
<mgrwt>
<rscale>  2 0.19247943E+03</rscale>
<asrwt>0</asrwt>
<pdfrwt beam="1">  1       21 0.31898233E-01 0.19247943E+03</pdfrwt>
<pdfrwt beam="2">  1       21 0.30659358E+00 0.19247943E+03</pdfrwt>
<totfact> 0.29568567E+02</totfact>
</mgrwt>
</event>
<event>
 4    1  0.4306168E+000  0.2171471E+03  0.7546771E-02  0.1136028E+00
         21   -1    0    0  501  502  0.00000000000E+00  0.00000000000E+00  0.18161608755E+03  0.18161608755E+03  0.00000000000E+00 0. -1.
         21   -1    0    0  502  503 -0.00000000000E+00 -0.00000000000E+00 -0.26372114204E+03  0.26372114204E+03  0.00000000000E+00 0.  1.
          6    1    1    2  501    0 -0.12210459857E+03 -0.48107699688E+02 -0.68788176900E+02  0.22778212626E+03  0.17300000000E+03 0.  1.
         -6    1    1    2    0  503  0.12210459857E+03  0.48107699688E+02 -0.13316877590E+02  0.21755510334E+03  0.17300000000E+03 0.  1.
<mgrwt>
<rscale>  2 0.21714715E+03</rscale>
<asrwt>0</asrwt>
<pdfrwt beam="1">  1       21 0.27940937E-01 0.21714715E+03</pdfrwt>
<pdfrwt beam="2">  1       21 0.40572483E-01 0.21714715E+03</pdfrwt>
<totfact> 0.70841702E+04</totfact>
</mgrwt>
</event>
<event>
 4    1  0.4306168E+000  0.1867712E+03  0.7546771E-02  0.1161406E+00
         21   -1    0    0  501  502  0.00000000000E+00  0.00000000000E+00  0.25696822116E+03  0.25696822116E+03  0.00000000000E+00 0.  1.
         21   -1    0    0  502  503 -0.00000000000E+00 -0.00000000000E+00 -0.40038072485E+03  0.40038072485E+03  0.00000000000E+00 0.  1.
          6    1    1    2  501    0 -0.61482885858E+02  0.34268370234E+02  0.19550173222E+03  0.27037824201E+03  0.17300000000E+03 0.  1.
         -6    1    1    2    0  503  0.61482885858E+02 -0.34268370234E+02 -0.33891423591E+03  0.38697070400E+03  0.17300000000E+03 0.  1.
<mgrwt>
<rscale>  2 0.18677116E+03</rscale>
<asrwt>0</asrwt>
<pdfrwt beam="1">  1       21 0.39533572E-01 0.18677116E+03</pdfrwt>
<pdfrwt beam="2">  1       21 0.61597035E-01 0.18677116E+03</pdfrwt>
<totfact> 0.15159932E+04</totfact>
</mgrwt>
</event>
<event>
 4    1  0.4306168E+000  0.2148994E+03  0.7546771E-02  0.1137744E+00
         21   -1    0    0  503  502  0.00000000000E+00  0.00000000000E+00  0.28698633549E+03  0.28698633549E+03  0.00000000000E+00 0.  1.
         21   -1    0    0  501  503 -0.00000000000E+00 -0.00000000000E+00 -0.17929583182E+03  0.17929583182E+03  0.00000000000E+00 0. -1.
          6    1    1    2  501    0  0.11933641888E+03  0.44850553073E+02 -0.20792894746E+02  0.21590298158E+03  0.17300000000E+03 0. -1.
         -6    1    1    2    0  502 -0.11933641888E+03 -0.44850553073E+02  0.12848339842E+03  0.25037918574E+03  0.17300000000E+03 0.  1.
<mgrwt>
<rscale>  2 0.21489940E+03</rscale>
<asrwt>0</asrwt>
<pdfrwt beam="1">  1       21 0.44151744E-01 0.21489940E+03</pdfrwt>
<pdfrwt beam="2">  1       21 0.27583974E-01 0.21489940E+03</pdfrwt>
<totfact> 0.61171260E+04</totfact>
</mgrwt>
</event>
<event>
 4    1  0.4306168E+000  0.2346617E+03  0.7546771E-02  0.1123401E+00
         21   -1    0    0  501  502  0.00000000000E+00  0.00000000000E+00  0.31528398099E+03  0.31528398099E+03  0.00000000000E+00 0.  1.
         21   -1    0    0  502  503 -0.00000000000E+00 -0.00000000000E+00 -0.17481022642E+03  0.17481022642E+03  0.00000000000E+00 0. -1.
          6    1    1    2  501    0  0.79656581953E+02 -0.13708375741E+03  0.77523770798E+02  0.24713571703E+03  0.17300000000E+03 0. -1.
         -6    1    1    2    0  503 -0.79656581953E+02  0.13708375741E+03  0.62949983766E+02  0.24295849038E+03  0.17300000000E+03 0. -1.
<mgrwt>
<rscale>  2 0.23466173E+03</rscale>
<asrwt>0</asrwt>
<pdfrwt beam="1">  1       21 0.48505228E-01 0.23466173E+03</pdfrwt>
<pdfrwt beam="2">  1       21 0.26893881E-01 0.23466173E+03</pdfrwt>
<totfact> 0.52438504E+04</totfact>
</mgrwt>
</event>
<event>
 4    1  0.4306168E+000  0.2135700E+03  0.7546771E-02  0.1138770E+00
         21   -1    0    0  501  502  0.00000000000E+00  0.00000000000E+00  0.56551544006E+03  0.56551544006E+03  0.00000000000E+00 0. -1.
         21   -1    0    0  502  503 -0.00000000000E+00 -0.00000000000E+00 -0.14745144251E+03  0.14745144251E+03  0.00000000000E+00 0.  1.
          6    1    1    2  501    0 -0.12357906805E+03  0.20282333697E+02  0.44896422084E+03  0.49717303901E+03  0.17300000000E+03 0. -1.
         -6    1    1    2    0  503  0.12357906805E+03 -0.20282333697E+02 -0.30900223290E+02  0.21579384356E+03  0.17300000000E+03 0. -1.
<mgrwt>
<rscale>  2 0.21357003E+03</rscale>
<asrwt>0</asrwt>
<pdfrwt beam="1">  1       21 0.87002374E-01 0.21357003E+03</pdfrwt>
<pdfrwt beam="2">  1       21 0.22684838E-01 0.21357003E+03</pdfrwt>
<totfact> 0.20436820E+04</totfact>
</mgrwt>
</event>
<event>
 4    1  0.4306168E+000  0.2078827E+03  0.7546771E-02  0.1143254E+00
         21   -1    0    0  501  502  0.00000000000E+00  0.00000000000E+00  0.17820241880E+03  0.17820241880E+03  0.00000000000E+00 0. -1.
         21   -1    0    0  502  503 -0.00000000000E+00 -0.00000000000E+00 -0.36359282150E+03  0.36359282150E+03  0.00000000000E+00 0. -1.
          6    1    1    2  501    0 -0.71301388864E+02  0.90566781200E+02  0.63635844446E+02  0.21740457817E+03  0.17300000000E+03 0. -1.
         -6    1    1    2    0  503  0.71301388864E+02 -0.90566781200E+02 -0.24902624715E+03  0.32439066214E+03  0.17300000000E+03 0. -1.
<mgrwt>
<rscale>  2 0.20788273E+03</rscale>
<asrwt>0</asrwt>
<pdfrwt beam="1">  1       21 0.27415757E-01 0.20788273E+03</pdfrwt>
<pdfrwt beam="2">  1       21 0.55937356E-01 0.20788273E+03</pdfrwt>
<totfact> 0.37889141E+04</totfact>
</mgrwt>
</event>
<event>
 4    1  0.4306168E+000  0.1933407E+03  0.7546771E-02  0.1155482E+00
         21   -1    0    0  503  502  0.00000000000E+00  0.00000000000E+00  0.12040015637E+03  0.12040015637E+03  0.00000000000E+00 0. -1.
         21   -1    0    0  501  503 -0.00000000000E+00 -0.00000000000E+00 -0.32795379834E+03  0.32795379834E+03  0.00000000000E+00 0.  1.
          6    1    1    2  501    0 -0.79855055554E+02  0.32783964387E+02 -0.52015606043E+02  0.20021548764E+03  0.17300000000E+03 0. -1.
         -6    1    1    2    0  502  0.79855055554E+02 -0.32783964387E+02 -0.15553803593E+03  0.24813846707E+03  0.17300000000E+03 0.  1.
<mgrwt>
<rscale>  2 0.19334068E+03</rscale>
<asrwt>0</asrwt>
<pdfrwt beam="1">  1       21 0.18523101E-01 0.19334068E+03</pdfrwt>
<pdfrwt beam="2">  1       21 0.50454429E-01 0.19334068E+03</pdfrwt>
<totfact> 0.99537280E+04</totfact>
</mgrwt>
</event>
<event>
 4    1  0.4306168E+000  0.1777780E+03  0.7546771E-02  0.1169971E+00
         21   -1    0    0  501  502  0.00000000000E+00  0.00000000000E+00  0.78310239462E+02  0.78310239462E+02  0.00000000000E+00 0.  1.
         21   -1    0    0  502  503 -0.00000000000E+00 -0.00000000000E+00 -0.40410288374E+03  0.40410288374E+03  0.00000000000E+00 0.  1.
          6    1    1    2  501    0 -0.38326245112E+02 -0.14391301447E+02 -0.15427978029E+03  0.23538747041E+03  0.17300000000E+03 0.  1.
         -6    1    1    2    0  503  0.38326245112E+02  0.14391301447E+02 -0.17151286400E+03  0.24702565279E+03  0.17300000000E+03 0.  1.
<mgrwt>
<rscale>  2 0.17777798E+03</rscale>
<asrwt>0</asrwt>
<pdfrwt beam="1">  1       21 0.12047729E-01 0.17777798E+03</pdfrwt>
<pdfrwt beam="2">  1       21 0.62169675E-01 0.17777798E+03</pdfrwt>
<totfact> 0.14057209E+05</totfact>
</mgrwt>
</event>
<event>
 4    1  0.4306168E+000  0.1762791E+03  0.7546771E-02  0.1171454E+00
         21   -1    0    0  501  502  0.00000000000E+00  0.00000000000E+00  0.39081092553E+02  0.39081092553E+02  0.00000000000E+00 0. -1.
         21   -1    0    0  502  503 -0.00000000000E+00 -0.00000000000E+00 -0.99887633597E+03  0.99887633597E+03  0.00000000000E+00 0. -1.
          6    1    1    2  501    0 -0.74240123894E+00  0.33834387512E+02 -0.71429077356E+03  0.73572116059E+03  0.17300000000E+03 0. -1.
         -6    1    1    2    0  503  0.74240123894E+00 -0.33834387512E+02 -0.24550446986E+03  0.30223626794E+03  0.17300000000E+03 0. -1.
<mgrwt>
<rscale>  2 0.17627909E+03</rscale>
<asrwt>0</asrwt>
<pdfrwt beam="1">  1       21 0.60124762E-02 0.17627909E+03</pdfrwt>
<pdfrwt beam="2">  1       21 0.15367327E+00 0.17627909E+03</pdfrwt>
<totfact> 0.55599443E+04</totfact>
</mgrwt>
</event>
<event>
 4    1  0.4306168E+000  0.1835528E+03  0.7546771E-02  0.1164408E+00
         21   -1    0    0  503  502  0.00000000000E+00  0.00000000000E+00  0.10413752919E+04  0.10413752919E+04  0.00000000000E+00 0.  1.
         21   -1    0    0  501  503 -0.00000000000E+00 -0.00000000000E+00 -0.39205354380E+02  0.39205354380E+02  0.00000000000E+00 0.  1.
          6    1    1    2  501    0 -0.58698164587E+02  0.17809170901E+02  0.27520713960E+03  0.33080297879E+03  0.17300000000E+03 0.  1.
         -6    1    1    2    0  502  0.58698164587E+02 -0.17809170901E+02  0.72696279792E+03  0.74977766748E+03  0.17300000000E+03 0.  1.
<mgrwt>
<rscale>  2 0.18355283E+03</rscale>
<asrwt>0</asrwt>
<pdfrwt beam="1">  1       21 0.16021156E+00 0.18355283E+03</pdfrwt>
<pdfrwt beam="2">  1       21 0.60315938E-02 0.18355283E+03</pdfrwt>
<totfact> 0.49268137E+04</totfact>
</mgrwt>
</event>
<event>
 4    1  0.4306168E+000  0.1878381E+03  0.7546771E-02  0.1160426E+00
         21   -1    0    0  503  502  0.00000000000E+00  0.00000000000E+00  0.17147369879E+03  0.17147369879E+03  0.00000000000E+00 0.  1.
         21   -1    0    0  501  503 -0.00000000000E+00 -0.00000000000E+00 -0.38481672931E+03  0.38481672931E+03  0.00000000000E+00 0.  1.
          6    1    1    2  501    0 -0.31843581111E+02 -0.65879662085E+02 -0.29640102499E+03  0.35090840849E+03  0.17300000000E+03 0.  1.
         -6    1    1    2    0  502  0.31843581111E+02  0.65879662085E+02  0.83057994474E+02  0.20538201961E+03  0.17300000000E+03 0.  1.
<mgrwt>
<rscale>  2 0.18783808E+03</rscale>
<asrwt>0</asrwt>
<pdfrwt beam="1">  1       21 0.26380569E-01 0.18783808E+03</pdfrwt>
<pdfrwt beam="2">  1       21 0.59202573E-01 0.18783808E+03</pdfrwt>
<totfact> 0.36531357E+04</totfact>
</mgrwt>
</event>
<event>
 4    1  0.4306168E+000  0.2003296E+03  0.7546771E-02  0.1149461E+00
         21   -1    0    0  503  502  0.00000000000E+00  0.00000000000E+00  0.26679015972E+03  0.26679015972E+03  0.00000000000E+00 0.  1.
         21   -1    0    0  501  503 -0.00000000000E+00 -0.00000000000E+00 -0.21883833333E+03  0.21883833333E+03  0.00000000000E+00 0. -1.
          6    1    1    2  501    0 -0.62904787069E+02 -0.79031346077E+02 -0.11178732025E+03  0.22940874192E+03  0.17300000000E+03 0. -1.
         -6    1    1    2    0  502  0.62904787069E+02  0.79031346077E+02  0.15973914664E+03  0.25621975113E+03  0.17300000000E+03 0.  1.
<mgrwt>
<rscale>  2 0.20032964E+03</rscale>
<asrwt>0</asrwt>
<pdfrwt beam="1">  1       21 0.41044640E-01 0.20032964E+03</pdfrwt>
<pdfrwt beam="2">  1       21 0.33667436E-01 0.20032964E+03</pdfrwt>
<totfact> 0.48402774E+04</totfact>
</mgrwt>
</event>
<event>
 4    1  0.4306168E+000  0.1867350E+03  0.7546771E-02  0.1161440E+00
         21   -1    0    0  501  502  0.00000000000E+00  0.00000000000E+00  0.18013409531E+03  0.18013409531E+03  0.00000000000E+00 0. -1.
         21   -1    0    0  502  503 -0.00000000000E+00 -0.00000000000E+00 -0.19391963635E+03  0.19391963635E+03  0.00000000000E+00 0. -1.
          6    1    1    2  501    0 -0.56360008845E+01  0.70065698702E+02  0.95932224121E+00  0.18673748135E+03  0.17300000000E+03 0. -1.
         -6    1    1    2    0  503  0.56360008845E+01 -0.70065698702E+02 -0.14744863278E+02  0.18731625032E+03  0.17300000000E+03 0. -1.
<mgrwt>
<rscale>  2 0.18673502E+03</rscale>
<asrwt>0</asrwt>
<pdfrwt beam="1">  1       21 0.27712938E-01 0.18673502E+03</pdfrwt>
<pdfrwt beam="2">  1       21 0.29833790E-01 0.18673502E+03</pdfrwt>
<totfact> 0.13414911E+05</totfact>
</mgrwt>
</event>
<event>
 4    1  0.4306168E+000  0.2083857E+03  0.7546771E-02  0.1142851E+00
         21   -1    0    0  501  502  0.00000000000E+00  0.00000000000E+00  0.24610760061E+03  0.24610760061E+03  0.00000000000E+00 0. -1.
         21   -1    0    0  502  503 -0.00000000000E+00 -0.00000000000E+00 -0.20648777920E+03  0.20648777920E+03  0.00000000000E+00 0. -1.
          6    1    1    2  501    0  0.10903267220E+03 -0.40093261634E+02  0.10612743075E+03  0.23385385349E+03  0.17300000000E+03 0. -1.
         -6    1    1    2    0  503 -0.10903267220E+03  0.40093261634E+02 -0.66507609336E+02  0.21874152632E+03  0.17300000000E+03 0. -1.
<mgrwt>
<rscale>  2 0.20838568E+03</rscale>
<asrwt>0</asrwt>
<pdfrwt beam="1">  1       21 0.37862708E-01 0.20838568E+03</pdfrwt>
<pdfrwt beam="2">  1       21 0.31767350E-01 0.20838568E+03</pdfrwt>
<totfact> 0.63638700E+04</totfact>
</mgrwt>
</event>
<event>
 4    1  0.4306168E+000  0.1860033E+03  0.7546771E-02  0.1162116E+00
         21   -1    0    0  501  502  0.00000000000E+00  0.00000000000E+00  0.28987621875E+03  0.28987621875E+03  0.00000000000E+00 0. -1.
         21   -1    0    0  502  503 -0.00000000000E+00 -0.00000000000E+00 -0.13311780851E+03  0.13311780851E+03  0.00000000000E+00 0. -1.
          6    1    1    2  501    0 -0.67714360472E+02 -0.91104954782E+01  0.14639203886E+03  0.23670205910E+03  0.17300000000E+03 0. -1.
         -6    1    1    2    0  503  0.67714360472E+02  0.91104954782E+01  0.10366371384E+02  0.18629196815E+03  0.17300000000E+03 0. -1.
<mgrwt>
<rscale>  2 0.18600332E+03</rscale>
<asrwt>0</asrwt>
<pdfrwt beam="1">  1       21 0.44596341E-01 0.18600332E+03</pdfrwt>
<pdfrwt beam="2">  1       21 0.20479663E-01 0.18600332E+03</pdfrwt>
<totfact> 0.10685448E+05</totfact>
</mgrwt>
</event>
<event>
 4    1  0.4306168E+000  0.1861510E+03  0.7546771E-02  0.1161979E+00
         21   -1    0    0  501  502  0.00000000000E+00  0.00000000000E+00  0.15659682319E+04  0.15659682319E+04  0.00000000000E+00 0. -1.
         21   -1    0    0  502  503 -0.00000000000E+00 -0.00000000000E+00 -0.35438698611E+02  0.35438698611E+02  0.00000000000E+00 0. -1.
          6    1    1    2  501    0 -0.68417380778E+02  0.65014253020E+01  0.12559787602E+04  0.12696987251E+04  0.17300000000E+03 0. -1.
         -6    1    1    2    0  503  0.68417380778E+02 -0.65014253020E+01  0.27455077319E+03  0.33170820548E+03  0.17300000000E+03 0. -1.
<mgrwt>
<rscale>  2 0.18615103E+03</rscale>
<asrwt>0</asrwt>
<pdfrwt beam="1">  1       21 0.24091814E+00 0.18615103E+03</pdfrwt>
<pdfrwt beam="2">  1       21 0.54521087E-02 0.18615103E+03</pdfrwt>
<totfact> 0.17569602E+04</totfact>
</mgrwt>
</event>
<event>
 4    1  0.4306168E+000  0.3066269E+03  0.7546771E-02  0.1081974E+00
         21   -1    0    0  503  502  0.00000000000E+00  0.00000000000E+00  0.16014313760E+04  0.16014313760E+04  0.00000000000E+00 0. -1.
         21   -1    0    0  501  503 -0.00000000000E+00 -0.00000000000E+00 -0.22331220371E+03  0.22331220371E+03  0.00000000000E+00 0.  1.
          6    1    1    2  501    0  0.19124580580E+03 -0.16587971934E+03 -0.94249996908E+02  0.32078513283E+03  0.17300000000E+03 0.  1.
         -6    1    1    2    0  502 -0.19124580580E+03  0.16587971934E+03  0.14723691692E+04  0.15039584469E+04  0.17300000000E+03 0. -1.
<mgrwt>
<rscale>  2 0.30662687E+03</rscale>
<asrwt>0</asrwt>
<pdfrwt beam="1">  1       21 0.24637405E+00 0.30662687E+03</pdfrwt>
<pdfrwt beam="2">  1       21 0.34355725E-01 0.30662687E+03</pdfrwt>
<totfact> 0.50733299E+02</totfact>
</mgrwt>
</event>
<event>
 4    1  0.4306168E+000  0.3109617E+03  0.7546771E-02  0.1079886E+00
         21   -1    0    0  503  502  0.00000000000E+00  0.00000000000E+00  0.33137597415E+02  0.33137597415E+02  0.00000000000E+00 0. -1.
         21   -1    0    0  501  503 -0.00000000000E+00 -0.00000000000E+00 -0.34044934972E+04  0.34044934972E+04  0.00000000000E+00 0.  1.
          6    1    1    2  501    0 -0.49868486212E+02  0.25353755740E+03 -0.23353875995E+04  0.23559992358E+04  0.17300000000E+03 0.  1.
         -6    1    1    2    0  502  0.49868486212E+02 -0.25353755740E+03 -0.10359683003E+04  0.10816318589E+04  0.17300000000E+03 0.  1.
<mgrwt>
<rscale>  2 0.31096167E+03</rscale>
<asrwt>0</asrwt>
<pdfrwt beam="1">  1       21 0.50980923E-02 0.31096167E+03</pdfrwt>
<pdfrwt beam="2">  1       21 0.52376819E+00 0.31096167E+03</pdfrwt>
<totfact> 0.28536713E+02</totfact>
</mgrwt>
</event>
<event>
 4    1  0.4306168E+000  0.2643105E+03  0.7546771E-02  0.1104581E+00
         21   -1    0    0  501  502  0.00000000000E+00  0.00000000000E+00  0.93629758869E+03  0.93629758869E+03  0.00000000000E+00 0.  1.
         21   -1    0    0  502  503 -0.00000000000E+00 -0.00000000000E+00 -0.77498020912E+02  0.77498020912E+02  0.00000000000E+00 0. -1.
          6    1    1    2  501    0  0.18287614799E+03  0.80544246014E+02  0.52720058803E+03  0.58974614970E+03  0.17300000000E+03 0.  1.
         -6    1    1    2    0  503 -0.18287614799E+03 -0.80544246014E+02  0.33159897975E+03  0.42404945990E+03  0.17300000000E+03 0.  1.
<mgrwt>
<rscale>  2 0.26431054E+03</rscale>
<asrwt>0</asrwt>
<pdfrwt beam="1">  1       21 0.14404578E+00 0.26431054E+03</pdfrwt>
<pdfrwt beam="2">  1       21 0.11922773E-01 0.26431054E+03</pdfrwt>
<totfact> 0.18909668E+04</totfact>
</mgrwt>
</event>
<event>
 4    1  0.4306168E+000  0.2040604E+03  0.7546771E-02  0.1146358E+00
         21   -1    0    0  503  502  0.00000000000E+00  0.00000000000E+00  0.74170029995E+02  0.74170029995E+02  0.00000000000E+00 0.  1.
         21   -1    0    0  501  503 -0.00000000000E+00 -0.00000000000E+00 -0.59936002378E+03  0.59936002378E+03  0.00000000000E+00 0.  1.
          6    1    1    2  501    0 -0.33156192835E+02 -0.10301603579E+03 -0.34732247783E+03  0.40283190087E+03  0.17300000000E+03 0.  1.
         -6    1    1    2    0  502  0.33156192835E+02  0.10301603579E+03 -0.17786751596E+03  0.27069815290E+03  0.17300000000E+03 0.  1.
<mgrwt>
<rscale>  2 0.20406038E+03</rscale>
<asrwt>0</asrwt>
<pdfrwt beam="1">  1       21 0.11410774E-01 0.20406038E+03</pdfrwt>
<pdfrwt beam="2">  1       21 0.92209233E-01 0.20406038E+03</pdfrwt>
<totfact> 0.63412112E+04</totfact>
</mgrwt>
</event>
<event>
 4    1  0.4306168E+000  0.1986011E+03  0.7546771E-02  0.1150925E+00
         21   -1    0    0  503  502  0.00000000000E+00  0.00000000000E+00  0.13132782277E+03  0.13132782277E+03  0.00000000000E+00 0.  1.
         21   -1    0    0  501  503 -0.00000000000E+00 -0.00000000000E+00 -0.36001053983E+03  0.36001053983E+03  0.00000000000E+00 0.  1.
          6    1    1    2  501    0 -0.31046143934E+02  0.92463691888E+02 -0.21436201601E+03  0.29222161330E+03  0.17300000000E+03 0.  1.
         -6    1    1    2    0  502  0.31046143934E+02 -0.92463691888E+02 -0.14320701049E+02  0.19911674929E+03  0.17300000000E+03 0.  1.
<mgrwt>
<rscale>  2 0.19860110E+03</rscale>
<asrwt>0</asrwt>
<pdfrwt beam="1">  1       21 0.20204281E-01 0.19860110E+03</pdfrwt>
<pdfrwt beam="2">  1       21 0.55386236E-01 0.19860110E+03</pdfrwt>
<totfact> 0.69421266E+04</totfact>
</mgrwt>
</event>
<event>
 4    1  0.4306168E+000  0.2420547E+03  0.7546771E-02  0.1118432E+00
         21   -1    0    0  503  502  0.00000000000E+00  0.00000000000E+00  0.86553122259E+03  0.86553122259E+03  0.00000000000E+00 0.  1.
         21   -1    0    0  501  503 -0.00000000000E+00 -0.00000000000E+00 -0.13373904216E+03  0.13373904216E+03  0.00000000000E+00 0. -1.
          6    1    1    2  501    0  0.15884284094E+03 -0.58569907758E+02  0.14783041334E+02  0.24250571235E+03  0.17300000000E+03 0. -1.
         -6    1    1    2    0  502 -0.15884284094E+03  0.58569907758E+02  0.71700913910E+03  0.75676455240E+03  0.17300000000E+03 0.  1.
<mgrwt>
<rscale>  2 0.24205471E+03</rscale>
<asrwt>0</asrwt>
<pdfrwt beam="1">  1       21 0.13315865E+00 0.24205471E+03</pdfrwt>
<pdfrwt beam="2">  1       21 0.20575238E-01 0.24205471E+03</pdfrwt>
<totfact> 0.86049858E+03</totfact>
</mgrwt>
</event>
<event>
 4    1  0.4306168E+000  0.2988564E+03  0.7546771E-02  0.1085814E+00
         21   -1    0    0  501  502  0.00000000000E+00  0.00000000000E+00  0.12483055760E+03  0.12483055760E+03  0.00000000000E+00 0.  1.
         21   -1    0    0  502  503 -0.00000000000E+00 -0.00000000000E+00 -0.14512938287E+04  0.14512938287E+04  0.00000000000E+00 0. -1.
          6    1    1    2  501    0  0.17067901803E+03 -0.17393911289E+03 -0.10210156712E+03  0.31581620003E+03  0.17300000000E+03 0.  1.
         -6    1    1    2    0  503 -0.17067901803E+03  0.17393911289E+03 -0.12243617040E+04  0.12603081863E+04  0.17300000000E+03 0. -1.
<mgrwt>
<rscale>  2 0.29885639E+03</rscale>
<asrwt>0</asrwt>
<pdfrwt beam="1">  1       21 0.19204701E-01 0.29885639E+03</pdfrwt>
<pdfrwt beam="2">  1       21 0.22327597E+00 0.29885639E+03</pdfrwt>
<totfact> 0.21820943E+03</totfact>
</mgrwt>
</event>
<event>
 4    1  0.4306168E+000  0.1831222E+03  0.7546771E-02  0.1164815E+00
         21   -1    0    0  503  502  0.00000000000E+00  0.00000000000E+00  0.12594467944E+03  0.12594467944E+03  0.00000000000E+00 0.  1.
         21   -1    0    0  501  503 -0.00000000000E+00 -0.00000000000E+00 -0.40573362803E+03  0.40573362803E+03  0.00000000000E+00 0.  1.
          6    1    1    2  501    0  0.60028624056E+02 -0.11492565565E+01 -0.29575921372E+03  0.34786099091E+03  0.17300000000E+03 0.  1.
         -6    1    1    2    0  502 -0.60028624056E+02  0.11492565565E+01  0.15970265136E+02  0.18381731655E+03  0.17300000000E+03 0.  1.
<mgrwt>
<rscale>  2 0.18312224E+03</rscale>
<asrwt>0</asrwt>
<pdfrwt beam="1">  1       21 0.19376105E-01 0.18312224E+03</pdfrwt>
<pdfrwt beam="2">  1       21 0.62420558E-01 0.18312224E+03</pdfrwt>
<totfact> 0.58523970E+04</totfact>
</mgrwt>
</event>
<event>
 4    1  0.4306168E+000  0.1855568E+03  0.7546771E-02  0.1162531E+00
         21   -1    0    0  501  502  0.00000000000E+00  0.00000000000E+00  0.28093971124E+03  0.28093971124E+03  0.00000000000E+00 0.  1.
         21   -1    0    0  502  503 -0.00000000000E+00 -0.00000000000E+00 -0.13362289894E+03  0.13362289894E+03  0.00000000000E+00 0.  1.
          6    1    1    2  501    0  0.45643463559E+02 -0.49183349295E+02  0.13330684887E+03  0.22847766536E+03  0.17300000000E+03 0.  1.
         -6    1    1    2    0  503 -0.45643463559E+02  0.49183349295E+02  0.14009963429E+02  0.18608494482E+03  0.17300000000E+03 0.  1.
<mgrwt>
<rscale>  2 0.18555680E+03</rscale>
<asrwt>0</asrwt>
<pdfrwt beam="1">  1       21 0.43221494E-01 0.18555680E+03</pdfrwt>
<pdfrwt beam="2">  1       21 0.20557369E-01 0.18555680E+03</pdfrwt>
<totfact> 0.11313357E+05</totfact>
</mgrwt>
</event>
<event>
 4    1  0.4306168E+000  0.1792970E+03  0.7546771E-02  0.1168485E+00
         21   -1    0    0  503  502  0.00000000000E+00  0.00000000000E+00  0.14331854741E+03  0.14331854741E+03  0.00000000000E+00 0.  1.
         21   -1    0    0  501  503 -0.00000000000E+00 -0.00000000000E+00 -0.33385069325E+03  0.33385069325E+03  0.00000000000E+00 0.  1.
          6    1    1    2  501    0  0.98839703367E+01  0.46051374907E+02 -0.23193162005E+03  0.29315473453E+03  0.17300000000E+03 0.  1.
         -6    1    1    2    0  502 -0.98839703367E+01 -0.46051374907E+02  0.41399474209E+02  0.18401450613E+03  0.17300000000E+03 0.  1.
<mgrwt>
<rscale>  2 0.17929702E+03</rscale>
<asrwt>0</asrwt>
<pdfrwt beam="1">  1       21 0.22049007E-01 0.17929702E+03</pdfrwt>
<pdfrwt beam="2">  1       21 0.51361645E-01 0.17929702E+03</pdfrwt>
<totfact> 0.69643596E+04</totfact>
</mgrwt>
</event>
<event>
 4    1  0.4306168E+000  0.1927869E+03  0.7546771E-02  0.1155971E+00
         21   -1    0    0  503  502  0.00000000000E+00  0.00000000000E+00  0.18125688650E+03  0.18125688650E+03  0.00000000000E+00 0. -1.
         21   -1    0    0  501  503 -0.00000000000E+00 -0.00000000000E+00 -0.93263007358E+03  0.93263007358E+03  0.00000000000E+00 0.  1.
          6    1    1    2  501    0 -0.78292855277E+02  0.33287133040E+02 -0.86760908895E+03  0.88877012531E+03  0.17300000000E+03 0.  1.
         -6    1    1    2    0  502  0.78292855277E+02 -0.33287133040E+02  0.11623590187E+03  0.22511683477E+03  0.17300000000E+03 0. -1.
<mgrwt>
<rscale>  2 0.19278694E+03</rscale>
<asrwt>0</asrwt>
<pdfrwt beam="1">  1       21 0.27885676E-01 0.19278694E+03</pdfrwt>
<pdfrwt beam="2">  1       21 0.14348155E+00 0.19278694E+03</pdfrwt>
<totfact> 0.41228422E+03</totfact>
</mgrwt>
</event>
<event>
 4    1  0.4306168E+000  0.2487150E+03  0.7546771E-02  0.1114120E+00
         21   -1    0    0  501  502  0.00000000000E+00  0.00000000000E+00  0.11797096714E+04  0.11797096714E+04  0.00000000000E+00 0. -1.
         21   -1    0    0  502  503 -0.00000000000E+00 -0.00000000000E+00 -0.68207168797E+02  0.68207168797E+02  0.00000000000E+00 0.  1.
          6    1    1    2  501    0  0.16982312247E+03 -0.55590196239E+02  0.85578746028E+03  0.89119657765E+03  0.17300000000E+03 0. -1.
         -6    1    1    2    0  503 -0.16982312247E+03  0.55590196239E+02  0.25571504233E+03  0.35672026255E+03  0.17300000000E+03 0.  1.
<mgrwt>
<rscale>  2 0.24871502E+03</rscale>
<asrwt>0</asrwt>
<pdfrwt beam="1">  1       21 0.18149378E+00 0.24871502E+03</pdfrwt>
<pdfrwt beam="2">  1       21 0.10493411E-01 0.24871502E+03</pdfrwt>
<totfact> 0.12733602E+04</totfact>
</mgrwt>
</event>
<event>
 4    1  0.4306168E+000  0.2353783E+03  0.7546771E-02  0.1122910E+00
         21   -1    0    0  503  502  0.00000000000E+00  0.00000000000E+00  0.15557558757E+03  0.15557558757E+03  0.00000000000E+00 0.  1.
         21   -1    0    0  501  503 -0.00000000000E+00 -0.00000000000E+00 -0.38852047777E+03  0.38852047777E+03  0.00000000000E+00 0.  1.
          6    1    1    2  501    0  0.59866806615E+02  0.14795245210E+03 -0.19503956959E+03  0.30568512610E+03  0.17300000000E+03 0.  1.
         -6    1    1    2    0  502 -0.59866806615E+02 -0.14795245210E+03 -0.37905320619E+02  0.23841093923E+03  0.17300000000E+03 0.  1.
<mgrwt>
<rscale>  2 0.23537834E+03</rscale>
<asrwt>0</asrwt>
<pdfrwt beam="1">  1       21 0.23934706E-01 0.23537834E+03</pdfrwt>
<pdfrwt beam="2">  1       21 0.59772380E-01 0.23537834E+03</pdfrwt>
<totfact> 0.42117933E+04</totfact>
</mgrwt>
</event>
<event>
 4    1  0.4306168E+000  0.2029857E+03  0.7546771E-02  0.1147244E+00
         21   -1    0    0  501  502  0.00000000000E+00  0.00000000000E+00  0.58517041431E+02  0.58517041431E+02  0.00000000000E+00 0.  1.
         21   -1    0    0  502  503 -0.00000000000E+00 -0.00000000000E+00 -0.82587409056E+03  0.82587409056E+03  0.00000000000E+00 0.  1.
          6    1    1    2  501    0  0.92606492973E+01 -0.10577531202E+03 -0.21389542542E+03  0.29488036434E+03  0.17300000000E+03 0.  1.
         -6    1    1    2    0  503 -0.92606492973E+01  0.10577531202E+03 -0.55346162371E+03  0.58951076765E+03  0.17300000000E+03 0.  1.
<mgrwt>
<rscale>  2 0.20298566E+03</rscale>
<asrwt>0</asrwt>
<pdfrwt beam="1">  1       21 0.90026219E-02 0.20298566E+03</pdfrwt>
<pdfrwt beam="2">  1       21 0.12705755E+00 0.20298566E+03</pdfrwt>
<totfact> 0.44450894E+04</totfact>
</mgrwt>
</event>
<event>
 4    1  0.4306168E+000  0.1795357E+03  0.7546771E-02  0.1168253E+00
         21   -1    0    0  501  502  0.00000000000E+00  0.00000000000E+00  0.14378940772E+03  0.14378940772E+03  0.00000000000E+00 0.  1.
         21   -1    0    0  502  503 -0.00000000000E+00 -0.00000000000E+00 -0.22447749259E+03  0.22447749259E+03  0.00000000000E+00 0.  1.
          6    1    1    2  501    0 -0.31991742219E+02  0.35785226177E+02 -0.33512332448E+02  0.18263660753E+03  0.17300000000E+03 0.  1.
         -6    1    1    2    0  503  0.31991742219E+02 -0.35785226177E+02 -0.47175752424E+02  0.18563029279E+03  0.17300000000E+03 0.  1.
<mgrwt>
<rscale>  2 0.17953566E+03</rscale>
<asrwt>0</asrwt>
<pdfrwt beam="1">  1       21 0.22121447E-01 0.17953566E+03</pdfrwt>
<pdfrwt beam="2">  1       21 0.34534999E-01 0.17953566E+03</pdfrwt>
<totfact> 0.15501948E+05</totfact>
</mgrwt>
</event>
<event>
 4    1  0.4306168E+000  0.1890159E+03  0.7546771E-02  0.1159352E+00
         21   -1    0    0  501  502  0.00000000000E+00  0.00000000000E+00  0.43534834689E+03  0.43534834689E+03  0.00000000000E+00 0.  1.
         21   -1    0    0  502  503 -0.00000000000E+00 -0.00000000000E+00 -0.31192299653E+03  0.31192299653E+03  0.00000000000E+00 0.  1.
          6    1    1    2  501    0  0.76056178049E+02  0.36712779502E+01  0.38245339539E+03  0.42661179092E+03  0.17300000000E+03 0.  1.
         -6    1    1    2    0  503 -0.76056178049E+02 -0.36712779502E+01 -0.25902804503E+03  0.32065955251E+03  0.17300000000E+03 0.  1.
<mgrwt>
<rscale>  2 0.18901593E+03</rscale>
<asrwt>0</asrwt>
<pdfrwt beam="1">  1       21 0.66976669E-01 0.18901593E+03</pdfrwt>
<pdfrwt beam="2">  1       21 0.47988153E-01 0.18901593E+03</pdfrwt>
<totfact> 0.84946350E+03</totfact>
</mgrwt>
</event>
<event>
 4    1  0.4306168E+000  0.1779636E+03  0.7546771E-02  0.1169789E+00
         21   -1    0    0  503  502  0.00000000000E+00  0.00000000000E+00  0.90781106881E+03  0.90781106881E+03  0.00000000000E+00 0.  1.
         21   -1    0    0  501  503 -0.00000000000E+00 -0.00000000000E+00 -0.84629549053E+02  0.84629549053E+02  0.00000000000E+00 0.  1.
          6    1    1    2  501    0  0.40363019015E+02  0.10624848137E+02  0.31159400535E+02  0.18067088571E+03  0.17300000000E+03 0.  1.
         -6    1    1    2    0  502 -0.40363019015E+02 -0.10624848137E+02  0.79202211923E+03  0.81176973216E+03  0.17300000000E+03 0.  1.
<mgrwt>
<rscale>  2 0.17796365E+03</rscale>
<asrwt>0</asrwt>
<pdfrwt beam="1">  1       21 0.13966323E+00 0.17796365E+03</pdfrwt>
<pdfrwt beam="2">  1       21 0.13019931E-01 0.17796365E+03</pdfrwt>
<totfact> 0.18434086E+04</totfact>
</mgrwt>
</event>
<event>
 4    1  0.4306168E+000  0.1862617E+03  0.7546771E-02  0.1161877E+00
         21   -1    0    0  501  502  0.00000000000E+00  0.00000000000E+00  0.32273474862E+03  0.32273474862E+03  0.00000000000E+00 0.  1.
         21   -1    0    0  502  503 -0.00000000000E+00 -0.00000000000E+00 -0.26376206425E+03  0.26376206425E+03  0.00000000000E+00 0.  1.
          6    1    1    2  501    0  0.31362424485E+02  0.61488456430E+02  0.25520042483E+03  0.31594412287E+03  0.17300000000E+03 0.  1.
         -6    1    1    2    0  503 -0.31362424485E+02 -0.61488456430E+02 -0.19622774045E+03  0.27055269000E+03  0.17300000000E+03 0.  1.
<mgrwt>
<rscale>  2 0.18626173E+03</rscale>
<asrwt>0</asrwt>
<pdfrwt beam="1">  1       21 0.49651500E-01 0.18626173E+03</pdfrwt>
<pdfrwt beam="2">  1       21 0.40578779E-01 0.18626173E+03</pdfrwt>
<totfact> 0.22705379E+04</totfact>
</mgrwt>
</event>
<event>
 4    1  0.4306168E+000  0.2150542E+03  0.7546771E-02  0.1137625E+00
         21   -1    0    0  503  502  0.00000000000E+00  0.00000000000E+00  0.22498736482E+03  0.22498736482E+03  0.00000000000E+00 0.  1.
         21   -1    0    0  501  503 -0.00000000000E+00 -0.00000000000E+00 -0.25099061017E+03  0.25099061017E+03  0.00000000000E+00 0.  1.
          6    1    1    2  501    0 -0.12435202988E+03  0.29255429586E+02 -0.11425381417E+03  0.24352051566E+03  0.17300000000E+03 0.  1.
         -6    1    1    2    0  502  0.12435202988E+03 -0.29255429586E+02  0.88250568824E+02  0.23245745932E+03  0.17300000000E+03 0.  1.
<mgrwt>
<rscale>  2 0.21505420E+03</rscale>
<asrwt>0</asrwt>
<pdfrwt beam="1">  1       21 0.34613441E-01 0.21505420E+03</pdfrwt>
<pdfrwt beam="2">  1       21 0.38613940E-01 0.21505420E+03</pdfrwt>
<totfact> 0.51476025E+04</totfact>
</mgrwt>
</event>
<event>
 4    1  0.4306168E+000  0.2652167E+03  0.7546771E-02  0.1104049E+00
         21   -1    0    0  501  502  0.00000000000E+00  0.00000000000E+00  0.18548455541E+03  0.18548455541E+03  0.00000000000E+00 0.  1.
         21   -1    0    0  502  503 -0.00000000000E+00 -0.00000000000E+00 -0.43986109011E+03  0.43986109011E+03  0.00000000000E+00 0. -1.
          6    1    1    2  501    0  0.18683160109E+03  0.74194567102E+02 -0.11094848430E+02  0.26544863272E+03  0.17300000000E+03 0.  1.
         -6    1    1    2    0  503 -0.18683160109E+03 -0.74194567102E+02 -0.24328168627E+03  0.35989701280E+03  0.17300000000E+03 0. -1.
<mgrwt>
<rscale>  2 0.26521667E+03</rscale>
<asrwt>0</asrwt>
<pdfrwt beam="1">  1       21 0.28536086E-01 0.26521667E+03</pdfrwt>
<pdfrwt beam="2">  1       21 0.67670936E-01 0.26521667E+03</pdfrwt>
<totfact> 0.22576438E+04</totfact>
</mgrwt>
</event>
<event>
 4    1  0.4306168E+000  0.2432342E+03  0.7546771E-02  0.1117657E+00
         21   -1    0    0  501  502  0.00000000000E+00  0.00000000000E+00  0.38312561149E+03  0.38312561149E+03  0.00000000000E+00 0.  1.
         21   -1    0    0  502  503 -0.00000000000E+00 -0.00000000000E+00 -0.64705681297E+03  0.64705681297E+03  0.00000000000E+00 0. -1.
          6    1    1    2  501    0 -0.15105060092E+03  0.80109816251E+02  0.31747847775E+03  0.39994430929E+03  0.17300000000E+03 0.  1.
         -6    1    1    2    0  503  0.15105060092E+03 -0.80109816251E+02 -0.58140967924E+03  0.63023811517E+03  0.17300000000E+03 0. -1.
<mgrwt>
<rscale>  2 0.24323418E+03</rscale>
<asrwt>0</asrwt>
<pdfrwt beam="1">  1       21 0.58942402E-01 0.24323418E+03</pdfrwt>
<pdfrwt beam="2">  1       21 0.99547202E-01 0.24323418E+03</pdfrwt>
<totfact> 0.21429929E+03</totfact>
</mgrwt>
</event>
<event>
 4    1  0.4306168E+000  0.1799105E+03  0.7546771E-02  0.1167890E+00
         21   -1    0    0  501  502  0.00000000000E+00  0.00000000000E+00  0.37398216965E+03  0.37398216965E+03  0.00000000000E+00 0. -1.
         21   -1    0    0  502  503 -0.00000000000E+00 -0.00000000000E+00 -0.14127298615E+03  0.14127298615E+03  0.00000000000E+00 0. -1.
          6    1    1    2  501    0 -0.91384482790E+01  0.48531116922E+02  0.27669820797E+03  0.33004496488E+03  0.17300000000E+03 0. -1.
         -6    1    1    2    0  503  0.91384482790E+01 -0.48531116922E+02 -0.43989024467E+02  0.18521019092E+03  0.17300000000E+03 0. -1.
<mgrwt>
<rscale>  2 0.17991048E+03</rscale>
<asrwt>0</asrwt>
<pdfrwt beam="1">  1       21 0.57535718E-01 0.17991048E+03</pdfrwt>
<pdfrwt beam="2">  1       21 0.21734306E-01 0.17991048E+03</pdfrwt>
<totfact> 0.56308840E+04</totfact>
</mgrwt>
</event>
<event>
 4    1  0.4306168E+000  0.1858104E+03  0.7546771E-02  0.1162295E+00
         21   -1    0    0  501  502  0.00000000000E+00  0.00000000000E+00  0.28217471531E+03  0.28217471531E+03  0.00000000000E+00 0.  1.
         21   -1    0    0  502  503 -0.00000000000E+00 -0.00000000000E+00 -0.12261046790E+03  0.12261046790E+03  0.00000000000E+00 0.  1.
          6    1    1    2  501    0 -0.26209268975E+02  0.62526730694E+02  0.89018614312E+02  0.20603356893E+03  0.17300000000E+03 0.  1.
         -6    1    1    2    0  503  0.26209268975E+02 -0.62526730694E+02  0.70545633099E+02  0.19875161428E+03  0.17300000000E+03 0.  1.
<mgrwt>
<rscale>  2 0.18581044E+03</rscale>
<asrwt>0</asrwt>
<pdfrwt beam="1">  1       21 0.43411495E-01 0.18581044E+03</pdfrwt>
<pdfrwt beam="2">  1       21 0.18863149E-01 0.18581044E+03</pdfrwt>
<totfact> 0.13160574E+05</totfact>
</mgrwt>
</event>
<event>
 4    1  0.4306168E+000  0.2133968E+03  0.7546771E-02  0.1138904E+00
         21   -1    0    0  503  502  0.00000000000E+00  0.00000000000E+00  0.15155397371E+03  0.15155397371E+03  0.00000000000E+00 0. -1.
         21   -1    0    0  501  503 -0.00000000000E+00 -0.00000000000E+00 -0.32145375821E+03  0.32145375821E+03  0.00000000000E+00 0. -1.
          6    1    1    2  501    0 -0.12056435432E+03 -0.32763277894E+02 -0.24531688486E+02  0.21480223381E+03  0.17300000000E+03 0. -1.
         -6    1    1    2    0  502  0.12056435432E+03  0.32763277894E+02 -0.14536809601E+03  0.25820549810E+03  0.17300000000E+03 0. -1.
<mgrwt>
<rscale>  2 0.21339680E+03</rscale>
<asrwt>0</asrwt>
<pdfrwt beam="1">  1       21 0.23315996E-01 0.21339680E+03</pdfrwt>
<pdfrwt beam="2">  1       21 0.49454424E-01 0.21339680E+03</pdfrwt>
<totfact> 0.66805272E+04</totfact>
</mgrwt>
</event>
<event>
 4    1  0.4306168E+000  0.4033264E+03  0.7546771E-02  0.1042634E+00
         21   -1    0    0  503  502  0.00000000000E+00  0.00000000000E+00  0.28396733876E+04  0.28396733876E+04  0.00000000000E+00 0. -1.
         21   -1    0    0  501  503 -0.00000000000E+00 -0.00000000000E+00 -0.58220912470E+02  0.58220912470E+02  0.00000000000E+00 0.  1.
          6    1    1    2  501    0  0.36161931957E+03  0.44436820959E+02  0.12070680706E+04  0.12726686491E+04  0.17300000000E+03 0.  1.
         -6    1    1    2    0  502 -0.36161931957E+03 -0.44436820959E+02  0.15743844046E+04  0.16252256510E+04  0.17300000000E+03 0.  1.
<mgrwt>
<rscale>  2 0.40332637E+03</rscale>
<asrwt>0</asrwt>
<pdfrwt beam="1">  1       21 0.43687272E+00 0.40332637E+03</pdfrwt>
<pdfrwt beam="2">  1       21 0.89570657E-02 0.40332637E+03</pdfrwt>
<totfact> 0.39664891E+02</totfact>
</mgrwt>
</event>
<event>
 4    1  0.4306168E+000  0.2823678E+03  0.7546771E-02  0.1094403E+00
         21   -1    0    0  501  502  0.00000000000E+00  0.00000000000E+00  0.14459904495E+03  0.14459904495E+03  0.00000000000E+00 0.  1.
         21   -1    0    0  502  503 -0.00000000000E+00 -0.00000000000E+00 -0.63343150999E+03  0.63343150999E+03  0.00000000000E+00 0.  1.
          6    1    1    2  501    0 -0.17851107631E+03 -0.13392668392E+03 -0.10442087667E+03  0.30105693900E+03  0.17300000000E+03 0.  1.
         -6    1    1    2    0  503  0.17851107631E+03  0.13392668392E+03 -0.38441158837E+03  0.47697361594E+03  0.17300000000E+03 0.  1.
<mgrwt>
<rscale>  2 0.28236778E+03</rscale>
<asrwt>0</asrwt>
<pdfrwt beam="1">  1       21 0.22246007E-01 0.28236778E+03</pdfrwt>
<pdfrwt beam="2">  1       21 0.97451002E-01 0.28236778E+03</pdfrwt>
<totfact> 0.15699167E+04</totfact>
</mgrwt>
</event>
<event>
 4    1  0.4306168E+000  0.2102497E+03  0.7546771E-02  0.1141368E+00
         21   -1    0    0  503  502  0.00000000000E+00  0.00000000000E+00  0.18265627577E+03  0.18265627577E+03  0.00000000000E+00 0.  1.
         21   -1    0    0  501  503 -0.00000000000E+00 -0.00000000000E+00 -0.24479396428E+03  0.24479396428E+03  0.00000000000E+00 0.  1.
          6    1    1    2  501    0 -0.92537780774E+02  0.75582289059E+02 -0.53854855324E+02  0.21703748232E+03  0.17300000000E+03 0.  1.
         -6    1    1    2    0  502  0.92537780774E+02 -0.75582289059E+02 -0.82828331795E+01  0.21041275773E+03  0.17300000000E+03 0.  1.
<mgrwt>
<rscale>  2 0.21024967E+03</rscale>
<asrwt>0</asrwt>
<pdfrwt beam="1">  1       21 0.28100966E-01 0.21024967E+03</pdfrwt>
<pdfrwt beam="2">  1       21 0.37660610E-01 0.21024967E+03</pdfrwt>
<totfact> 0.81659841E+04</totfact>
</mgrwt>
</event>
<event>
 4    1  0.4306168E+000  0.2367315E+03  0.7546771E-02  0.1121990E+00
         21   -1    0    0  501  502  0.00000000000E+00  0.00000000000E+00  0.12368017665E+03  0.12368017665E+03  0.00000000000E+00 0. -1.
         21   -1    0    0  502  503 -0.00000000000E+00 -0.00000000000E+00 -0.48235713129E+03  0.48235713129E+03  0.00000000000E+00 0.  1.
          6    1    1    2  501    0 -0.79876122490E+02  0.14047284008E+03 -0.10473462164E+03  0.25886512842E+03  0.17300000000E+03 0.  1.
         -6    1    1    2    0  503  0.79876122490E+02 -0.14047284008E+03 -0.25394233300E+03  0.34717217952E+03  0.17300000000E+03 0.  1.
<mgrwt>
<rscale>  2 0.23673152E+03</rscale>
<asrwt>0</asrwt>
<pdfrwt beam="1">  1       21 0.19027719E-01 0.23673152E+03</pdfrwt>
<pdfrwt beam="2">  1       21 0.74208791E-01 0.23673152E+03</pdfrwt>
<totfact> 0.40356323E+04</totfact>
</mgrwt>
</event>
<event>
 4    1  0.4306168E+000  0.2121000E+03  0.7546771E-02  0.1139914E+00
         21   -1    0    0  501  502  0.00000000000E+00  0.00000000000E+00  0.63804435819E+03  0.63804435819E+03  0.00000000000E+00 0. -1.
         21   -1    0    0  502  503 -0.00000000000E+00 -0.00000000000E+00 -0.12967852085E+03  0.12967852085E+03  0.00000000000E+00 0. -1.
          6    1    1    2  501    0 -0.87682097208E+02 -0.85844351011E+02  0.51348017819E+03  0.55556124430E+03  0.17300000000E+03 0. -1.
         -6    1    1    2    0  503  0.87682097208E+02  0.85844351011E+02 -0.51143408492E+01  0.21216163474E+03  0.17300000000E+03 0. -1.
<mgrwt>
<rscale>  2 0.21209998E+03</rscale>
<asrwt>0</asrwt>
<pdfrwt beam="1">  1       21 0.98160668E-01 0.21209998E+03</pdfrwt>
<pdfrwt beam="2">  1       21 0.19950542E-01 0.21209998E+03</pdfrwt>
<totfact> 0.19656473E+04</totfact>
</mgrwt>
</event>
<event>
 4    1  0.4306168E+000  0.2273170E+03  0.7546771E-02  0.1128543E+00
         21   -1    0    0  501  502  0.00000000000E+00  0.00000000000E+00  0.37833460993E+03  0.37833460993E+03  0.00000000000E+00 0. -1.
         21   -1    0    0  502  503 -0.00000000000E+00 -0.00000000000E+00 -0.13694420342E+03  0.13694420342E+03  0.00000000000E+00 0. -1.
          6    1    1    2  501    0 -0.11104275631E+03  0.97023300015E+02  0.13397821907E+03  0.26386204286E+03  0.17300000000E+03 0. -1.
         -6    1    1    2    0  503  0.11104275631E+03 -0.97023300015E+02  0.10741218743E+03  0.25141677049E+03  0.17300000000E+03 0. -1.
<mgrwt>
<rscale>  2 0.22731699E+03</rscale>
<asrwt>0</asrwt>
<pdfrwt beam="1">  1       21 0.58205324E-01 0.22731699E+03</pdfrwt>
<pdfrwt beam="2">  1       21 0.21068339E-01 0.22731699E+03</pdfrwt>
<totfact> 0.57001268E+04</totfact>
</mgrwt>
</event>
<event>
 4    1  0.4306168E+000  0.1872830E+03  0.7546771E-02  0.1160935E+00
         21   -1    0    0  503  502  0.00000000000E+00  0.00000000000E+00  0.26221699432E+03  0.26221699432E+03  0.00000000000E+00 0. -1.
         21   -1    0    0  501  503 -0.00000000000E+00 -0.00000000000E+00 -0.15311605009E+03  0.15311605009E+03  0.00000000000E+00 0.  1.
          6    1    1    2  501    0  0.63409549911E+02 -0.33543501082E+02 -0.19279142048E+02  0.18827273516E+03  0.17300000000E+03 0.  1.
         -6    1    1    2    0  502 -0.63409549911E+02  0.33543501082E+02  0.12838008628E+03  0.22706030926E+03  0.17300000000E+03 0. -1.
<mgrwt>
<rscale>  2 0.18728304E+03</rscale>
<asrwt>0</asrwt>
<pdfrwt beam="1">  1       21 0.40341076E-01 0.18728304E+03</pdfrwt>
<pdfrwt beam="2">  1       21 0.23556315E-01 0.18728304E+03</pdfrwt>
<totfact> 0.10063695E+05</totfact>
</mgrwt>
</event>
<event>
 4    1  0.4306168E+000  0.2116493E+03  0.7546771E-02  0.1140267E+00
         21   -1    0    0  501  502  0.00000000000E+00  0.00000000000E+00  0.18187738644E+03  0.18187738644E+03  0.00000000000E+00 0. -1.
         21   -1    0    0  502  503 -0.00000000000E+00 -0.00000000000E+00 -0.58571691429E+03  0.58571691429E+03  0.00000000000E+00 0. -1.
          6    1    1    2  501    0 -0.19169119442E+02 -0.12041168735E+03  0.90245121430E+02  0.23008609591E+03  0.17300000000E+03 0. -1.
         -6    1    1    2    0  503  0.19169119442E+02  0.12041168735E+03 -0.49408464928E+03  0.53750820481E+03  0.17300000000E+03 0. -1.
<mgrwt>
<rscale>  2 0.21164931E+03</rscale>
<asrwt>0</asrwt>
<pdfrwt beam="1">  1       21 0.27981136E-01 0.21164931E+03</pdfrwt>
<pdfrwt beam="2">  1       21 0.90110295E-01 0.21164931E+03</pdfrwt>
<totfact> 0.12620890E+04</totfact>
</mgrwt>
</event>
<event>
 4    1  0.4306168E+000  0.2137360E+03  0.7546771E-02  0.1138641E+00
         21   -1    0    0  501  502  0.00000000000E+00  0.00000000000E+00  0.91387148922E+02  0.91387148922E+02  0.00000000000E+00 0.  1.
         21   -1    0    0  502  503 -0.00000000000E+00 -0.00000000000E+00 -0.69314358225E+03  0.69314358225E+03  0.00000000000E+00 0. -1.
          6    1    1    2  501    0 -0.63534082485E+02 -0.10824738953E+03 -0.93750790816E+02  0.23339298995E+03  0.17300000000E+03 0.  1.
         -6    1    1    2    0  503  0.63534082485E+02  0.10824738953E+03 -0.50800564251E+03  0.55113774122E+03  0.17300000000E+03 0. -1.
<mgrwt>
<rscale>  2 0.21373600E+03</rscale>
<asrwt>0</asrwt>
<pdfrwt beam="1">  1       21 0.14059562E-01 0.21373600E+03</pdfrwt>
<pdfrwt beam="2">  1       21 0.10663747E+00 0.21373600E+03</pdfrwt>
<totfact> 0.30691492E+04</totfact>
</mgrwt>
</event>
<event>
 4    1  0.4306168E+000  0.2617026E+03  0.7546771E-02  0.1106125E+00
         21   -1    0    0  503  502  0.00000000000E+00  0.00000000000E+00  0.18513840631E+03  0.18513840631E+03  0.00000000000E+00 0. -1.
         21   -1    0    0  501  503 -0.00000000000E+00 -0.00000000000E+00 -0.37012563799E+03  0.37012563799E+03  0.00000000000E+00 0.  1.
          6    1    1    2  501    0  0.19592925694E+03  0.13075437660E+02 -0.86109795795E+02  0.27550524083E+03  0.17300000000E+03 0. -1.
         -6    1    1    2    0  502 -0.19592925694E+03 -0.13075437660E+02 -0.98877435886E+02  0.27975880347E+03  0.17300000000E+03 0.  1.
<mgrwt>
<rscale>  2 0.26170258E+03</rscale>
<asrwt>0</asrwt>
<pdfrwt beam="1">  1       21 0.28482832E-01 0.26170258E+03</pdfrwt>
<pdfrwt beam="2">  1       21 0.56942406E-01 0.26170258E+03</pdfrwt>
<totfact> 0.33044231E+04</totfact>
</mgrwt>
</event>
<event>
 4    1  0.4306168E+000  0.3930018E+03  0.7546771E-02  0.1046230E+00
         21   -1    0    0  503  502  0.00000000000E+00  0.00000000000E+00  0.19738819928E+04  0.19738819928E+04  0.00000000000E+00 0. -1.
         21   -1    0    0  501  503 -0.00000000000E+00 -0.00000000000E+00 -0.80498653745E+02  0.80498653745E+02  0.00000000000E+00 0. -1.
          6    1    1    2  501    0  0.23833149674E+03  0.26022979144E+03  0.77489987727E+03  0.86886147715E+03  0.17300000000E+03 0. -1.
         -6    1    1    2    0  502 -0.23833149674E+03 -0.26022979144E+03  0.11184834617E+04  0.11855191693E+04  0.17300000000E+03 0. -1.
<mgrwt>
<rscale>  2 0.39300184E+03</rscale>
<asrwt>0</asrwt>
<pdfrwt beam="1">  1       21 0.30367412E+00 0.39300184E+03</pdfrwt>
<pdfrwt beam="2">  1       21 0.12384410E-01 0.39300184E+03</pdfrwt>
<totfact> 0.15123268E+03</totfact>
</mgrwt>
</event>
<event>
 4    1  0.4306168E+000  0.2555137E+03  0.7546771E-02  0.1109869E+00
         21   -1    0    0  503  502  0.00000000000E+00  0.00000000000E+00  0.72743830883E+02  0.72743830883E+02  0.00000000000E+00 0.  1.
         21   -1    0    0  501  503 -0.00000000000E+00 -0.00000000000E+00 -0.10096577639E+04  0.10096577639E+04  0.00000000000E+00 0. -1.
          6    1    1    2  501    0  0.18803754305E+03 -0.33288064747E+00 -0.64883995619E+03  0.69733816556E+03  0.17300000000E+03 0. -1.
         -6    1    1    2    0  502 -0.18803754305E+03  0.33288064747E+00 -0.28807397687E+03  0.38506342926E+03  0.17300000000E+03 0.  1.
<mgrwt>
<rscale>  2 0.25551366E+03</rscale>
<asrwt>0</asrwt>
<pdfrwt beam="1">  1       21 0.11191359E-01 0.25551366E+03</pdfrwt>
<pdfrwt beam="2">  1       21 0.15533196E+00 0.25551366E+03</pdfrwt>
<totfact> 0.17414601E+04</totfact>
</mgrwt>
</event>
<event>
 4    1  0.4306168E+000  0.1823992E+03  0.7546771E-02  0.1165501E+00
         21   -1    0    0  503  502  0.00000000000E+00  0.00000000000E+00  0.55550114609E+03  0.55550114609E+03  0.00000000000E+00 0.  1.
         21   -1    0    0  501  503 -0.00000000000E+00 -0.00000000000E+00 -0.10953434027E+03  0.10953434027E+03  0.00000000000E+00 0. -1.
          6    1    1    2  501    0 -0.56375550849E+02  0.12738841152E+02 -0.87349200370E+00  0.18240132619E+03  0.17300000000E+03 0. -1.
         -6    1    1    2    0  502  0.56375550849E+02 -0.12738841152E+02  0.44684029783E+03  0.48263416018E+03  0.17300000000E+03 0.  1.
<mgrwt>
<rscale>  2 0.18239923E+03</rscale>
<asrwt>0</asrwt>
<pdfrwt beam="1">  1       21 0.85461714E-01 0.18239923E+03</pdfrwt>
<pdfrwt beam="2">  1       21 0.16851437E-01 0.18239923E+03</pdfrwt>
<totfact> 0.37723658E+04</totfact>
</mgrwt>
</event>
<event>
 4    1  0.4306168E+000  0.2678537E+03  0.7546771E-02  0.1102514E+00
         21   -1    0    0  503  502  0.00000000000E+00  0.00000000000E+00  0.53562678663E+03  0.53562678663E+03  0.00000000000E+00 0.  1.
         21   -1    0    0  501  503 -0.00000000000E+00 -0.00000000000E+00 -0.14588267645E+03  0.14588267645E+03  0.00000000000E+00 0.  1.
          6    1    1    2  501    0 -0.19196653733E+03 -0.70466136119E+02  0.97403921761E+02  0.28501430099E+03  0.17300000000E+03 0.  1.
         -6    1    1    2    0  502  0.19196653733E+03  0.70466136119E+02  0.29234018842E+03  0.39649516208E+03  0.17300000000E+03 0.  1.
<mgrwt>
<rscale>  2 0.26785374E+03</rscale>
<asrwt>0</asrwt>
<pdfrwt beam="1">  1       21 0.82404120E-01 0.26785374E+03</pdfrwt>
<pdfrwt beam="2">  1       21 0.22443489E-01 0.26785374E+03</pdfrwt>
<totfact> 0.22992652E+04</totfact>
</mgrwt>
</event>
<event>
 4    1  0.4306168E+000  0.1859014E+03  0.7546771E-02  0.1162211E+00
         21   -1    0    0  501  502  0.00000000000E+00  0.00000000000E+00  0.26373573980E+03  0.26373573980E+03  0.00000000000E+00 0. -1.
         21   -1    0    0  502  503 -0.00000000000E+00 -0.00000000000E+00 -0.17196143037E+03  0.17196143037E+03  0.00000000000E+00 0. -1.
          6    1    1    2  501    0  0.63958416472E+02  0.23230595379E+02  0.15216103251E+03  0.24023388481E+03  0.17300000000E+03 0. -1.
         -6    1    1    2    0  503 -0.63958416472E+02 -0.23230595379E+02 -0.60386723081E+02  0.19546328536E+03  0.17300000000E+03 0. -1.
<mgrwt>
<rscale>  2 0.18590142E+03</rscale>
<asrwt>0</asrwt>
<pdfrwt beam="1">  1       21 0.40574729E-01 0.18590142E+03</pdfrwt>
<pdfrwt beam="2">  1       21 0.26455605E-01 0.18590142E+03</pdfrwt>
<totfact> 0.79756197E+04</totfact>
</mgrwt>
</event>
<event>
 4    1  0.4306168E+000  0.2188712E+03  0.7546771E-02  0.1134727E+00
         21   -1    0    0  503  502  0.00000000000E+00  0.00000000000E+00  0.12731042091E+03  0.12731042091E+03  0.00000000000E+00 0.  1.
         21   -1    0    0  501  503 -0.00000000000E+00 -0.00000000000E+00 -0.42489449724E+03  0.42489449724E+03  0.00000000000E+00 0. -1.
          6    1    1    2  501    0 -0.10454812728E+03  0.83936256017E+02 -0.55401221818E+02  0.22577400508E+03  0.17300000000E+03 0.  1.
         -6    1    1    2    0  502  0.10454812728E+03 -0.83936256017E+02 -0.24218285451E+03  0.32643091307E+03  0.17300000000E+03 0. -1.
<mgrwt>
<rscale>  2 0.21887121E+03</rscale>
<asrwt>0</asrwt>
<pdfrwt beam="1">  1       21 0.19586219E-01 0.21887121E+03</pdfrwt>
<pdfrwt beam="2">  1       21 0.65368384E-01 0.21887121E+03</pdfrwt>
<totfact> 0.51028161E+04</totfact>
</mgrwt>
</event>
<event>
 4    1  0.4306168E+000  0.1859471E+03  0.7546771E-02  0.1162168E+00
         21   -1    0    0  503  502  0.00000000000E+00  0.00000000000E+00  0.11989655268E+04  0.11989655268E+04  0.00000000000E+00 0. -1.
         21   -1    0    0  501  503 -0.00000000000E+00 -0.00000000000E+00 -0.28965699559E+02  0.28965699559E+02  0.00000000000E+00 0. -1.
          6    1    1    2  501    0  0.53733362820E+02  0.41953135110E+02  0.54431025741E+03  0.57519561555E+03  0.17300000000E+03 0. -1.
         -6    1    1    2    0  502 -0.53733362820E+02 -0.41953135110E+02  0.62568956984E+03  0.65273561082E+03  0.17300000000E+03 0. -1.
<mgrwt>
<rscale>  2 0.18594714E+03</rscale>
<asrwt>0</asrwt>
<pdfrwt beam="1">  1       21 0.18445620E+00 0.18594714E+03</pdfrwt>
<pdfrwt beam="2">  1       21 0.44562624E-02 0.18594714E+03</pdfrwt>
<totfact> 0.55707049E+04</totfact>
</mgrwt>
</event>
<event>
 4    1  0.4306168E+000  0.2811652E+03  0.7546771E-02  0.1095054E+00
         21   -1    0    0  501  502  0.00000000000E+00  0.00000000000E+00  0.90660161174E+03  0.90660161174E+03  0.00000000000E+00 0. -1.
         21   -1    0    0  502  503 -0.00000000000E+00 -0.00000000000E+00 -0.14804699190E+03  0.14804699190E+03  0.00000000000E+00 0. -1.
          6    1    1    2  501    0  0.21274751298E+03 -0.62156072724E+02  0.71734568893E+03  0.77047953840E+03  0.17300000000E+03 0. -1.
         -6    1    1    2    0  503 -0.21274751298E+03  0.62156072724E+02  0.41208930904E+02  0.28416906524E+03  0.17300000000E+03 0. -1.
<mgrwt>
<rscale>  2 0.28116522E+03</rscale>
<asrwt>0</asrwt>
<pdfrwt beam="1">  1       21 0.13947717E+00 0.28116522E+03</pdfrwt>
<pdfrwt beam="2">  1       21 0.22776461E-01 0.28116522E+03</pdfrwt>
<totfact> 0.61517291E+03</totfact>
</mgrwt>
</event>
<event>
 4    1  0.4306168E+000  0.1922984E+03  0.7546771E-02  0.1156405E+00
         21   -1    0    0  501  502  0.00000000000E+00  0.00000000000E+00  0.42184193692E+03  0.42184193692E+03  0.00000000000E+00 0. -1.
         21   -1    0    0  502  503 -0.00000000000E+00 -0.00000000000E+00 -0.87670526370E+02  0.87670526370E+02  0.00000000000E+00 0. -1.
          6    1    1    2  501    0 -0.31447138947E+02 -0.77850846382E+02  0.16429818313E+03  0.25292799333E+03  0.17300000000E+03 0. -1.
         -6    1    1    2    0  503  0.31447138947E+02  0.77850846382E+02  0.16987322742E+03  0.25658446996E+03  0.17300000000E+03 0. -1.
<mgrwt>
<rscale>  2 0.19229841E+03</rscale>
<asrwt>0</asrwt>
<pdfrwt beam="1">  1       21 0.64898758E-01 0.19229841E+03</pdfrwt>
<pdfrwt beam="2">  1       21 0.13487774E-01 0.19229841E+03</pdfrwt>
<totfact> 0.10403846E+05</totfact>
</mgrwt>
</event>
<event>
 4    1  0.4306168E+000  0.2177117E+03  0.7546771E-02  0.1135601E+00
         21   -1    0    0  503  502  0.00000000000E+00  0.00000000000E+00  0.18765867171E+03  0.18765867171E+03  0.00000000000E+00 0. -1.
         21   -1    0    0  501  503 -0.00000000000E+00 -0.00000000000E+00 -0.28171697577E+03  0.28171697577E+03  0.00000000000E+00 0. -1.
          6    1    1    2  501    0 -0.13205683614E+03 -0.55107143817E+01 -0.12250781695E+03  0.24981301239E+03  0.17300000000E+03 0. -1.
         -6    1    1    2    0  502  0.13205683614E+03  0.55107143817E+01  0.28449512882E+02  0.21956263509E+03  0.17300000000E+03 0. -1.
<mgrwt>
<rscale>  2 0.21771168E+03</rscale>
<asrwt>0</asrwt>
<pdfrwt beam="1">  1       21 0.28870565E-01 0.21771168E+03</pdfrwt>
<pdfrwt beam="2">  1       21 0.43341073E-01 0.21771168E+03</pdfrwt>
<totfact> 0.58089339E+04</totfact>
</mgrwt>
</event>
<event>
 4    1  0.4306168E+000  0.2396676E+03  0.7546771E-02  0.1120014E+00
         21   -1    0    0  503  502  0.00000000000E+00  0.00000000000E+00  0.32115185986E+02  0.32115185986E+02  0.00000000000E+00 0. -1.
         21   -1    0    0  501  503 -0.00000000000E+00 -0.00000000000E+00 -0.19015483508E+04  0.19015483508E+04  0.00000000000E+00 0.  1.
          6    1    1    2  501    0 -0.10161703714E+03 -0.13109367451E+03 -0.11703712012E+04  0.11946586635E+04  0.17300000000E+03 0.  1.
         -6    1    1    2    0  502  0.10161703714E+03  0.13109367451E+03 -0.69906196360E+03  0.73900487324E+03  0.17300000000E+03 0. -1.
<mgrwt>
<rscale>  2 0.23966763E+03</rscale>
<asrwt>0</asrwt>
<pdfrwt beam="1">  1       21 0.49407972E-02 0.23966763E+03</pdfrwt>
<pdfrwt beam="2">  1       21 0.29254594E+00 0.23966763E+03</pdfrwt>
<totfact> 0.98836558E+03</totfact>
</mgrwt>
</event>
<event>
 4    1  0.4306168E+000  0.1808906E+03  0.7546771E-02  0.1166944E+00
         21   -1    0    0  501  502  0.00000000000E+00  0.00000000000E+00  0.20245988366E+04  0.20245988366E+04  0.00000000000E+00 0.  1.
         21   -1    0    0  502  503 -0.00000000000E+00 -0.00000000000E+00 -0.17627285138E+02  0.17627285138E+02  0.00000000000E+00 0.  1.
          6    1    1    2  501    0  0.49337832515E+02 -0.18926172459E+02  0.12978959255E+04  0.13104408629E+04  0.17300000000E+03 0.  1.
         -6    1    1    2    0  503 -0.49337832515E+02  0.18926172459E+02  0.70907562593E+03  0.73178525880E+03  0.17300000000E+03 0.  1.
<mgrwt>
<rscale>  2 0.18089063E+03</rscale>
<asrwt>0</asrwt>
<pdfrwt beam="1">  1       21 0.31147656E+00 0.18089063E+03</pdfrwt>
<pdfrwt beam="2">  1       21 0.27118916E-02 0.18089063E+03</pdfrwt>
<totfact> 0.22185144E+04</totfact>
</mgrwt>
</event>
<event>
 4    1  0.4306168E+000  0.2543298E+03  0.7546771E-02  0.1110599E+00
         21   -1    0    0  501  502  0.00000000000E+00  0.00000000000E+00  0.16090692195E+04  0.16090692195E+04  0.00000000000E+00 0.  1.
         21   -1    0    0  502  503 -0.00000000000E+00 -0.00000000000E+00 -0.43857492006E+02  0.43857492006E+02  0.00000000000E+00 0.  1.
          6    1    1    2  501    0  0.12562496616E+03  0.13774252148E+03  0.10212926542E+04  0.10524838811E+04  0.17300000000E+03 0.  1.
         -6    1    1    2    0  503 -0.12562496616E+03 -0.13774252148E+03  0.54391907323E+03  0.60044283039E+03  0.17300000000E+03 0.  1.
<mgrwt>
<rscale>  2 0.25432977E+03</rscale>
<asrwt>0</asrwt>
<pdfrwt beam="1">  1       21 0.24754907E+00 0.25432977E+03</pdfrwt>
<pdfrwt beam="2">  1       21 0.67473077E-02 0.25432977E+03</pdfrwt>
<totfact> 0.10524545E+04</totfact>
</mgrwt>
</event>
<event>
 4    1  0.4306168E+000  0.2876954E+03  0.7546771E-02  0.1091559E+00
         21   -1    0    0  503  502  0.00000000000E+00  0.00000000000E+00  0.10179524732E+03  0.10179524732E+03  0.00000000000E+00 0.  1.
         21   -1    0    0  501  503 -0.00000000000E+00 -0.00000000000E+00 -0.12769436833E+04  0.12769436833E+04  0.00000000000E+00 0. -1.
          6    1    1    2  501    0  0.17071364015E+03 -0.15393673942E+03 -0.10030606232E+04  0.10435033687E+04  0.17300000000E+03 0. -1.
         -6    1    1    2    0  502 -0.17071364015E+03  0.15393673942E+03 -0.17208781279E+03  0.33523556194E+03  0.17300000000E+03 0.  1.
<mgrwt>
<rscale>  2 0.28769544E+03</rscale>
<asrwt>0</asrwt>
<pdfrwt beam="1">  1       21 0.15660808E-01 0.28769544E+03</pdfrwt>
<pdfrwt beam="2">  1       21 0.19645286E+00 0.28769544E+03</pdfrwt>
<totfact> 0.47721975E+03</totfact>
</mgrwt>
</event>
<event>
 4    1  0.4306168E+000  0.3258838E+03  0.7546771E-02  0.1072973E+00
         21   -1    0    0  501  502  0.00000000000E+00  0.00000000000E+00  0.12699147940E+04  0.12699147940E+04  0.00000000000E+00 0. -1.
         21   -1    0    0  502  503 -0.00000000000E+00 -0.00000000000E+00 -0.13672496999E+03  0.13672496999E+03  0.00000000000E+00 0. -1.
          6    1    1    2  501    0  0.11853324813E+03  0.24944161170E+03  0.10048878205E+04  0.10564089078E+04  0.17300000000E+03 0. -1.
         -6    1    1    2    0  503 -0.11853324813E+03 -0.24944161170E+03  0.12830200351E+03  0.35023085625E+03  0.17300000000E+03 0. -1.
<mgrwt>
<rscale>  2 0.32588380E+03</rscale>
<asrwt>0</asrwt>
<pdfrwt beam="1">  1       21 0.19537150E+00 0.32588380E+03</pdfrwt>
<pdfrwt beam="2">  1       21 0.21034612E-01 0.32588380E+03</pdfrwt>
<totfact> 0.27302939E+03</totfact>
</mgrwt>
</event>
<event>
 4    1  0.4306168E+000  0.1972851E+03  0.7546771E-02  0.1152050E+00
         21   -1    0    0  503  502  0.00000000000E+00  0.00000000000E+00  0.18572403364E+04  0.18572403364E+04  0.00000000000E+00 0.  1.
         21   -1    0    0  501  503 -0.00000000000E+00 -0.00000000000E+00 -0.21888404020E+02  0.21888404020E+02  0.00000000000E+00 0.  1.
          6    1    1    2  501    0 -0.52550569112E+02 -0.78935700546E+02  0.72381683579E+03  0.75022144658E+03  0.17300000000E+03 0.  1.
         -6    1    1    2    0  502  0.52550569112E+02  0.78935700546E+02  0.11115350966E+04  0.11289072939E+04  0.17300000000E+03 0.  1.
<mgrwt>
<rscale>  2 0.19728509E+03</rscale>
<asrwt>0</asrwt>
<pdfrwt beam="1">  1       21 0.28572916E+00 0.19728509E+03</pdfrwt>
<pdfrwt beam="2">  1       21 0.33674482E-02 0.19728509E+03</pdfrwt>
<totfact> 0.21449082E+04</totfact>
</mgrwt>
</event>
<event>
 4    1  0.4306168E+000  0.1896113E+03  0.7546771E-02  0.1158812E+00
         21   -1    0    0  503  502  0.00000000000E+00  0.00000000000E+00  0.12323739632E+03  0.12323739632E+03  0.00000000000E+00 0. -1.
         21   -1    0    0  501  503 -0.00000000000E+00 -0.00000000000E+00 -0.31774089945E+03  0.31774089945E+03  0.00000000000E+00 0. -1.
          6    1    1    2  501    0  0.39967483473E+02 -0.66528620374E+02 -0.16033302773E+03  0.24831257891E+03  0.17300000000E+03 0. -1.
         -6    1    1    2    0  502 -0.39967483473E+02  0.66528620374E+02 -0.34170475402E+02  0.19266571686E+03  0.17300000000E+03 0. -1.
<mgrwt>
<rscale>  2 0.18961133E+03</rscale>
<asrwt>0</asrwt>
<pdfrwt beam="1">  1       21 0.18959600E-01 0.18961133E+03</pdfrwt>
<pdfrwt beam="2">  1       21 0.48883214E-01 0.18961133E+03</pdfrwt>
<totfact> 0.10195844E+05</totfact>
</mgrwt>
</event>
<event>
 4    1  0.4306168E+000  0.1813112E+03  0.7546771E-02  0.1166540E+00
         21   -1    0    0  501  502  0.00000000000E+00  0.00000000000E+00  0.17459507087E+03  0.17459507087E+03  0.00000000000E+00 0.  1.
         21   -1    0    0  502  503 -0.00000000000E+00 -0.00000000000E+00 -0.95491864882E+03  0.95491864882E+03  0.00000000000E+00 0.  1.
          6    1    1    2  501    0  0.51591807036E+02 -0.16824010062E+02  0.11586330803E+03  0.21516985852E+03  0.17300000000E+03 0.  1.
         -6    1    1    2    0  503 -0.51591807036E+02  0.16824010062E+02 -0.89618688597E+03  0.91434386117E+03  0.17300000000E+03 0.  1.
<mgrwt>
<rscale>  2 0.18131123E+03</rscale>
<asrwt>0</asrwt>
<pdfrwt beam="1">  1       21 0.26860781E-01 0.18131123E+03</pdfrwt>
<pdfrwt beam="2">  1       21 0.14691056E+00 0.18131123E+03</pdfrwt>
<totfact> 0.42086014E+03</totfact>
</mgrwt>
</event>
<event>
 4    1  0.4306168E+000  0.2048833E+03  0.7546771E-02  0.1145683E+00
         21   -1    0    0  503  502  0.00000000000E+00  0.00000000000E+00  0.16356993655E+04  0.16356993655E+04  0.00000000000E+00 0.  1.
         21   -1    0    0  501  503 -0.00000000000E+00 -0.00000000000E+00 -0.44695823262E+02  0.44695823262E+02  0.00000000000E+00 0.  1.
          6    1    1    2  501    0 -0.30979574293E+02  0.10530162661E+03  0.24722723070E+03  0.32108950495E+03  0.17300000000E+03 0.  1.
         -6    1    1    2    0  502  0.30979574293E+02 -0.10530162661E+03  0.13437763116E+04  0.13593056839E+04  0.17300000000E+03 0.  1.
<mgrwt>
<rscale>  2 0.20488330E+03</rscale>
<asrwt>0</asrwt>
<pdfrwt beam="1">  1       21 0.25164601E+00 0.20488330E+03</pdfrwt>
<pdfrwt beam="2">  1       21 0.68762817E-02 0.20488330E+03</pdfrwt>
<totfact> 0.10028029E+04</totfact>
</mgrwt>
</event>
<event>
 4    1  0.4306168E+000  0.2409282E+03  0.7546771E-02  0.1119176E+00
         21   -1    0    0  501  502  0.00000000000E+00  0.00000000000E+00  0.25471667789E+03  0.25471667789E+03  0.00000000000E+00 0.  1.
         21   -1    0    0  502  503 -0.00000000000E+00 -0.00000000000E+00 -0.22958956380E+03  0.22958956380E+03  0.00000000000E+00 0. -1.
          6    1    1    2  501    0 -0.14817372004E+03 -0.78498133783E+02  0.33421498803E+02  0.24323528712E+03  0.17300000000E+03 0.  1.
         -6    1    1    2    0  503  0.14817372004E+03  0.78498133783E+02 -0.82943847173E+01  0.24107095457E+03  0.17300000000E+03 0. -1.
<mgrwt>
<rscale>  2 0.24092822E+03</rscale>
<asrwt>0</asrwt>
<pdfrwt beam="1">  1       21 0.39187182E-01 0.24092822E+03</pdfrwt>
<pdfrwt beam="2">  1       21 0.35321471E-01 0.24092822E+03</pdfrwt>
<totfact> 0.47455755E+04</totfact>
</mgrwt>
</event>
<event>
 4    1  0.4306168E+000  0.2296179E+03  0.7546771E-02  0.1126909E+00
         21   -1    0    0  501  502  0.00000000000E+00  0.00000000000E+00  0.52226877213E+03  0.52226877213E+03  0.00000000000E+00 0. -1.
         21   -1    0    0  502  503 -0.00000000000E+00 -0.00000000000E+00 -0.27705533718E+03  0.27705533718E+03  0.00000000000E+00 0. -1.
          6    1    1    2  501    0 -0.28339258803E+02  0.14829795790E+03  0.44124114032E+03  0.49741144118E+03  0.17300000000E+03 0. -1.
         -6    1    1    2    0  503  0.28339258803E+02 -0.14829795790E+03 -0.19602770537E+03  0.30191266813E+03  0.17300000000E+03 0. -1.
<mgrwt>
<rscale>  2 0.22961794E+03</rscale>
<asrwt>0</asrwt>
<pdfrwt beam="1">  1       21 0.80349042E-01 0.22961794E+03</pdfrwt>
<pdfrwt beam="2">  1       21 0.42623898E-01 0.22961794E+03</pdfrwt>
<totfact> 0.70269745E+03</totfact>
</mgrwt>
</event>
<event>
 4    1  0.4306168E+000  0.2046432E+03  0.7546771E-02  0.1145880E+00
         21   -1    0    0  501  502  0.00000000000E+00  0.00000000000E+00  0.44253465829E+03  0.44253465829E+03  0.00000000000E+00 0.  1.
         21   -1    0    0  502  503 -0.00000000000E+00 -0.00000000000E+00 -0.16692157738E+03  0.16692157738E+03  0.00000000000E+00 0.  1.
          6    1    1    2  501    0  0.10928555340E+03 -0.25482029767E+01  0.33834058807E+03  0.39541519831E+03  0.17300000000E+03 0.  1.
         -6    1    1    2    0  503 -0.10928555340E+03  0.25482029767E+01 -0.62727507161E+02  0.21404103736E+03  0.17300000000E+03 0.  1.
<mgrwt>
<rscale>  2 0.20464317E+03</rscale>
<asrwt>0</asrwt>
<pdfrwt beam="1">  1       21 0.68082255E-01 0.20464317E+03</pdfrwt>
<pdfrwt beam="2">  1       21 0.25680243E-01 0.20464317E+03</pdfrwt>
<totfact> 0.28150816E+04</totfact>
</mgrwt>
</event>
<event>
 4    1  0.4306168E+000  0.3456389E+03  0.7546771E-02  0.1064419E+00
         21   -1    0    0  503  502  0.00000000000E+00  0.00000000000E+00  0.48975652306E+03  0.48975652306E+03  0.00000000000E+00 0.  1.
         21   -1    0    0  501  503 -0.00000000000E+00 -0.00000000000E+00 -0.97742018684E+03  0.97742018684E+03  0.00000000000E+00 0. -1.
          6    1    1    2  501    0  0.21522705556E+03 -0.20788111090E+03 -0.87932219772E+03  0.94481414527E+03  0.17300000000E+03 0. -1.
         -6    1    1    2    0  502 -0.21522705556E+03  0.20788111090E+03  0.39165853395E+03  0.52236256463E+03  0.17300000000E+03 0.  1.
<mgrwt>
<rscale>  2 0.34563889E+03</rscale>
<asrwt>0</asrwt>
<pdfrwt beam="1">  1       21 0.75347158E-01 0.34563889E+03</pdfrwt>
<pdfrwt beam="2">  1       21 0.15037234E+00 0.34563889E+03</pdfrwt>
<totfact> 0.40988734E+02</totfact>
</mgrwt>
</event>
<event>
 4    1  0.4306168E+000  0.2605681E+03  0.7546771E-02  0.1106802E+00
         21   -1    0    0  501  502  0.00000000000E+00  0.00000000000E+00  0.23301000883E+03  0.23301000883E+03  0.00000000000E+00 0. -1.
         21   -1    0    0  502  503 -0.00000000000E+00 -0.00000000000E+00 -0.50678136245E+03  0.50678136245E+03  0.00000000000E+00 0.  1.
          6    1    1    2  501    0  0.12977918372E+03 -0.14534138556E+03  0.10426448266E+03  0.28065430199E+03  0.17300000000E+03 0. -1.
         -6    1    1    2    0  503 -0.12977918372E+03  0.14534138556E+03 -0.37803583628E+03  0.45913706929E+03  0.17300000000E+03 0.  1.
<mgrwt>
<rscale>  2 0.26056814E+03</rscale>
<asrwt>0</asrwt>
<pdfrwt beam="1">  1       21 0.35847694E-01 0.26056814E+03</pdfrwt>
<pdfrwt beam="2">  1       21 0.77966364E-01 0.26056814E+03</pdfrwt>
<totfact> 0.10495106E+04</totfact>
</mgrwt>
</event>
<event>
 4    1  0.4306168E+000  0.2854083E+03  0.7546771E-02  0.1092771E+00
         21   -1    0    0  503  502  0.00000000000E+00  0.00000000000E+00  0.14969914409E+03  0.14969914409E+03  0.00000000000E+00 0.  1.
         21   -1    0    0  501  503 -0.00000000000E+00 -0.00000000000E+00 -0.55141855543E+03  0.55141855543E+03  0.00000000000E+00 0. -1.
          6    1    1    2  501    0  0.20945335574E+02  0.22603144959E+03 -0.24112371800E+03  0.37362892108E+03  0.17300000000E+03 0.  1.
         -6    1    1    2    0  502 -0.20945335574E+02 -0.22603144959E+03 -0.16059569335E+03  0.32748877844E+03  0.17300000000E+03 0. -1.
<mgrwt>
<rscale>  2 0.28540834E+03</rscale>
<asrwt>0</asrwt>
<pdfrwt beam="1">  1       21 0.23030637E-01 0.28540834E+03</pdfrwt>
<pdfrwt beam="2">  1       21 0.84833627E-01 0.28540834E+03</pdfrwt>
<totfact> 0.20315311E+04</totfact>
</mgrwt>
</event>
<event>
 4    1  0.4306168E+000  0.1854247E+03  0.7546771E-02  0.1162654E+00
         21   -1    0    0  503  502  0.00000000000E+00  0.00000000000E+00  0.49367730341E+03  0.49367730341E+03  0.00000000000E+00 0.  1.
         21   -1    0    0  501  503 -0.00000000000E+00 -0.00000000000E+00 -0.71059327357E+02  0.71059327357E+02  0.00000000000E+00 0. -1.
          6    1    1    2  501    0  0.63436328713E+02  0.20716051852E+02  0.17147731906E+03  0.25256047505E+03  0.17300000000E+03 0.  1.
         -6    1    1    2    0  502 -0.63436328713E+02 -0.20716051852E+02  0.25114065699E+03  0.31217615572E+03  0.17300000000E+03 0.  1.
<mgrwt>
<rscale>  2 0.18542471E+03</rscale>
<asrwt>0</asrwt>
<pdfrwt beam="1">  1       21 0.75950352E-01 0.18542471E+03</pdfrwt>
<pdfrwt beam="2">  1       21 0.10932205E-01 0.18542471E+03</pdfrwt>
<totfact> 0.10740425E+05</totfact>
</mgrwt>
</event>
<event>
 4    1  0.4306168E+000  0.1840030E+03  0.7546771E-02  0.1163984E+00
         21   -1    0    0  501  502  0.00000000000E+00  0.00000000000E+00  0.49608639700E+02  0.49608639700E+02  0.00000000000E+00 0. -1.
         21   -1    0    0  502  503 -0.00000000000E+00 -0.00000000000E+00 -0.92191410650E+03  0.92191410650E+03  0.00000000000E+00 0.  1.
          6    1    1    2  501    0  0.60563870418E+02 -0.16128652828E+02 -0.18860047694E+03  0.26349052306E+03  0.17300000000E+03 0. -1.
         -6    1    1    2    0  503 -0.60563870418E+02  0.16128652828E+02 -0.68370498986E+03  0.70803222314E+03  0.17300000000E+03 0.  1.
<mgrwt>
<rscale>  2 0.18400303E+03</rscale>
<asrwt>0</asrwt>
<pdfrwt beam="1">  1       21 0.76320986E-02 0.18400303E+03</pdfrwt>
<pdfrwt beam="2">  1       21 0.14183294E+00 0.18400303E+03</pdfrwt>
<totfact> 0.45277090E+04</totfact>
</mgrwt>
</event>
<event>
 4    1  0.4306168E+000  0.1865961E+03  0.7546771E-02  0.1161568E+00
         21   -1    0    0  503  502  0.00000000000E+00  0.00000000000E+00  0.84229244339E+03  0.84229244339E+03  0.00000000000E+00 0. -1.
         21   -1    0    0  501  503 -0.00000000000E+00 -0.00000000000E+00 -0.56210889101E+02  0.56210889101E+02  0.00000000000E+00 0. -1.
          6    1    1    2  501    0 -0.68596309924E+02 -0.13551281096E+02  0.16194743350E+03  0.24707298957E+03  0.17300000000E+03 0. -1.
         -6    1    1    2    0  502  0.68596309924E+02  0.13551281096E+02  0.62413412078E+03  0.65143034292E+03  0.17300000000E+03 0. -1.
<mgrwt>
<rscale>  2 0.18659606E+03</rscale>
<asrwt>0</asrwt>
<pdfrwt beam="1">  1       21 0.12958344E+00 0.18659606E+03</pdfrwt>
<pdfrwt beam="2">  1       21 0.86478297E-02 0.18659606E+03</pdfrwt>
<totfact> 0.45798540E+04</totfact>
</mgrwt>
</event>
<event>
 4    1  0.4306168E+000  0.1852263E+03  0.7546771E-02  0.1162839E+00
         21   -1    0    0  501  502  0.00000000000E+00  0.00000000000E+00  0.60345727450E+03  0.60345727450E+03  0.00000000000E+00 0. -1.
         21   -1    0    0  502  503 -0.00000000000E+00 -0.00000000000E+00 -0.68469300394E+02  0.68469300394E+02  0.00000000000E+00 0. -1.
          6    1    1    2  501    0  0.65941427501E+02  0.56150175143E+01  0.40587102959E+03  0.44613909596E+03  0.17300000000E+03 0. -1.
         -6    1    1    2    0  503 -0.65941427501E+02 -0.56150175143E+01  0.12911694452E+03  0.22578747894E+03  0.17300000000E+03 0. -1.
<mgrwt>
<rscale>  2 0.18522635E+03</rscale>
<asrwt>0</asrwt>
<pdfrwt beam="1">  1       21 0.92839577E-01 0.18522635E+03</pdfrwt>
<pdfrwt beam="2">  1       21 0.10533739E-01 0.18522635E+03</pdfrwt>
<totfact> 0.72582312E+04</totfact>
</mgrwt>
</event>
<event>
 4    1  0.4306168E+000  0.2062678E+03  0.7546771E-02  0.1144556E+00
         21   -1    0    0  501  502  0.00000000000E+00  0.00000000000E+00  0.11993019539E+03  0.11993019539E+03  0.00000000000E+00 0.  1.
         21   -1    0    0  502  503 -0.00000000000E+00 -0.00000000000E+00 -0.40627987770E+03  0.40627987770E+03  0.00000000000E+00 0. -1.
          6    1    1    2  501    0  0.39564043167E+02 -0.10512890610E+03 -0.49482266846E+02  0.21212000175E+03  0.17300000000E+03 0.  1.
         -6    1    1    2    0  503 -0.39564043167E+02  0.10512890610E+03 -0.23686741546E+03  0.31409007134E+03  0.17300000000E+03 0. -1.
<mgrwt>
<rscale>  2 0.20626779E+03</rscale>
<asrwt>0</asrwt>
<pdfrwt beam="1">  1       21 0.18450799E-01 0.20626779E+03</pdfrwt>
<pdfrwt beam="2">  1       21 0.62504598E-01 0.20626779E+03</pdfrwt>
<totfact> 0.63233454E+04</totfact>
</mgrwt>
</event>
<event>
 4    1  0.4306168E+000  0.2105249E+03  0.7546771E-02  0.1141151E+00
         21   -1    0    0  501  502  0.00000000000E+00  0.00000000000E+00  0.35794761256E+02  0.35794761256E+02  0.00000000000E+00 0. -1.
         21   -1    0    0  502  503 -0.00000000000E+00 -0.00000000000E+00 -0.13518940008E+04  0.13518940008E+04  0.00000000000E+00 0. -1.
          6    1    1    2  501    0  0.89624577532E+02 -0.79744304853E+02 -0.45682624179E+03  0.50300192270E+03  0.17300000000E+03 0. -1.
         -6    1    1    2    0  503 -0.89624577532E+02  0.79744304853E+02 -0.85927299772E+03  0.88468683932E+03  0.17300000000E+03 0. -1.
<mgrwt>
<rscale>  2 0.21052487E+03</rscale>
<asrwt>0</asrwt>
<pdfrwt beam="1">  1       21 0.55068867E-02 0.21052487E+03</pdfrwt>
<pdfrwt beam="2">  1       21 0.20798368E+00 0.21052487E+03</pdfrwt>
<totfact> 0.26919352E+04</totfact>
</mgrwt>
</event>
<event>
 4    1  0.4306168E+000  0.1913792E+03  0.7546771E-02  0.1157223E+00
         21   -1    0    0  501  502  0.00000000000E+00  0.00000000000E+00  0.63012863171E+03  0.63012863171E+03  0.00000000000E+00 0. -1.
         21   -1    0    0  502  503 -0.00000000000E+00 -0.00000000000E+00 -0.73837013349E+02  0.73837013349E+02  0.00000000000E+00 0. -1.
          6    1    1    2  501    0 -0.35862491733E+02  0.73558777636E+02  0.44051552705E+03  0.48029151737E+03  0.17300000000E+03 0. -1.
         -6    1    1    2    0  503  0.35862491733E+02 -0.73558777636E+02  0.11577609131E+03  0.22367412769E+03  0.17300000000E+03 0. -1.
<mgrwt>
<rscale>  2 0.19137924E+03</rscale>
<asrwt>0</asrwt>
<pdfrwt beam="1">  1       21 0.96942863E-01 0.19137924E+03</pdfrwt>
<pdfrwt beam="2">  1       21 0.11359541E-01 0.19137924E+03</pdfrwt>
<totfact> 0.57208699E+04</totfact>
</mgrwt>
</event>
<event>
 4    1  0.4306168E+000  0.1782708E+03  0.7546771E-02  0.1169487E+00
         21   -1    0    0  501  502  0.00000000000E+00  0.00000000000E+00  0.10705403624E+04  0.10705403624E+04  0.00000000000E+00 0.  1.
         21   -1    0    0  502  503 -0.00000000000E+00 -0.00000000000E+00 -0.39129262327E+02  0.39129262327E+02  0.00000000000E+00 0.  1.
          6    1    1    2  501    0  0.41479636376E+02  0.11442062161E+02  0.78826728279E+03  0.80817435627E+03  0.17300000000E+03 0.  1.
         -6    1    1    2    0  503 -0.41479636376E+02 -0.11442062161E+02  0.24314381731E+03  0.30149526848E+03  0.17300000000E+03 0.  1.
<mgrwt>
<rscale>  2 0.17827081E+03</rscale>
<asrwt>0</asrwt>
<pdfrwt beam="1">  1       21 0.16469849E+00 0.17827081E+03</pdfrwt>
<pdfrwt beam="2">  1       21 0.60198873E-02 0.17827081E+03</pdfrwt>
<totfact> 0.46021338E+04</totfact>
</mgrwt>
</event>
<event>
 4    1  0.4306168E+000  0.1814440E+03  0.7546771E-02  0.1166413E+00
         21   -1    0    0  503  502  0.00000000000E+00  0.00000000000E+00  0.64462286891E+03  0.64462286891E+03  0.00000000000E+00 0. -1.
         21   -1    0    0  501  503 -0.00000000000E+00 -0.00000000000E+00 -0.60587009757E+02  0.60587009757E+02  0.00000000000E+00 0. -1.
          6    1    1    2  501    0 -0.49523324079E+02 -0.23245660041E+02  0.15228060814E+03  0.23687824711E+03  0.17300000000E+03 0.  1.
         -6    1    1    2    0  502  0.49523324079E+02  0.23245660041E+02  0.43175525101E+03  0.46833163155E+03  0.17300000000E+03 0.  1.
<mgrwt>
<rscale>  2 0.18144399E+03</rscale>
<asrwt>0</asrwt>
<pdfrwt beam="1">  1       21 0.99172744E-01 0.18144399E+03</pdfrwt>
<pdfrwt beam="2">  1       21 0.93210789E-02 0.18144399E+03</pdfrwt>
<totfact> 0.77284366E+04</totfact>
</mgrwt>
</event>
<event>
 4    1  0.4306168E+000  0.2430992E+03  0.7546771E-02  0.1117745E+00
         21   -1    0    0  501  502  0.00000000000E+00  0.00000000000E+00  0.24424189799E+03  0.24424189799E+03  0.00000000000E+00 0.  1.
         21   -1    0    0  502  503 -0.00000000000E+00 -0.00000000000E+00 -0.28429175234E+03  0.28429175234E+03  0.00000000000E+00 0.  1.
          6    1    1    2  501    0 -0.34542258981E+01  0.17075208857E+03  0.81947896550E+02  0.25653979258E+03  0.17300000000E+03 0.  1.
         -6    1    1    2    0  503  0.34542258981E+01 -0.17075208857E+03 -0.12199775090E+03  0.27199385775E+03  0.17300000000E+03 0.  1.
<mgrwt>
<rscale>  2 0.24309917E+03</rscale>
<asrwt>0</asrwt>
<pdfrwt beam="1">  1       21 0.37575677E-01 0.24309917E+03</pdfrwt>
<pdfrwt beam="2">  1       21 0.43737192E-01 0.24309917E+03</pdfrwt>
<totfact> 0.33465846E+04</totfact>
</mgrwt>
</event>
<event>
 4    1  0.4306168E+000  0.1930490E+03  0.7546771E-02  0.1155740E+00
         21   -1    0    0  501  502  0.00000000000E+00  0.00000000000E+00  0.58680708185E+03  0.58680708185E+03  0.00000000000E+00 0. -1.
         21   -1    0    0  502  503 -0.00000000000E+00 -0.00000000000E+00 -0.11444834853E+03  0.11444834853E+03  0.00000000000E+00 0. -1.
          6    1    1    2  501    0 -0.64221834677E+02  0.56696298832E+02  0.47009830524E+03  0.50819320237E+03  0.17300000000E+03 0. -1.
         -6    1    1    2    0  503  0.64221834677E+02 -0.56696298832E+02  0.22604280821E+01  0.19306222801E+03  0.17300000000E+03 0. -1.
<mgrwt>
<rscale>  2 0.19304899E+03</rscale>
<asrwt>0</asrwt>
<pdfrwt beam="1">  1       21 0.90278011E-01 0.19304899E+03</pdfrwt>
<pdfrwt beam="2">  1       21 0.17607439E-01 0.19304899E+03</pdfrwt>
<totfact> 0.30498824E+04</totfact>
</mgrwt>
</event>
<event>
 4    1  0.4306168E+000  0.1947217E+03  0.7546771E-02  0.1154270E+00
         21   -1    0    0  503  502  0.00000000000E+00  0.00000000000E+00  0.77765377039E+03  0.77765377039E+03  0.00000000000E+00 0.  1.
         21   -1    0    0  501  503 -0.00000000000E+00 -0.00000000000E+00 -0.50506052192E+02  0.50506052192E+02  0.00000000000E+00 0. -1.
          6    1    1    2  501    0 -0.18086499031E+02  0.87523841239E+02  0.44061758784E+03  0.48172648147E+03  0.17300000000E+03 0.  1.
         -6    1    1    2    0  502  0.18086499031E+02 -0.87523841239E+02  0.28653013036E+03  0.34643334111E+03  0.17300000000E+03 0. -1.
<mgrwt>
<rscale>  2 0.19472171E+03</rscale>
<asrwt>0</asrwt>
<pdfrwt beam="1">  1       21 0.11963903E+00 0.19472171E+03</pdfrwt>
<pdfrwt beam="2">  1       21 0.77701624E-02 0.19472171E+03</pdfrwt>
<totfact> 0.67102324E+04</totfact>
</mgrwt>
</event>
<event>
 4    1  0.4306168E+000  0.5912149E+03  0.7546771E-02  0.9923802E-01
         21   -1    0    0  501  502  0.00000000000E+00  0.00000000000E+00  0.24849829387E+03  0.24849829387E+03  0.00000000000E+00 0.  1.
         21   -1    0    0  502  503 -0.00000000000E+00 -0.00000000000E+00 -0.21886585377E+04  0.21886585377E+04  0.00000000000E+00 0. -1.
          6    1    1    2  501    0  0.41045040231E+03  0.38876281717E+03 -0.24165140962E+03  0.63869434360E+03  0.17300000000E+03 0.  1.
         -6    1    1    2    0  503 -0.41045040231E+03 -0.38876281717E+03 -0.16985088342E+04  0.17984624880E+04  0.17300000000E+03 0. -1.
<mgrwt>
<rscale>  2 0.59121490E+03</rscale>
<asrwt>0</asrwt>
<pdfrwt beam="1">  1       21 0.38230507E-01 0.59121490E+03</pdfrwt>
<pdfrwt beam="2">  1       21 0.33671670E+00 0.59121490E+03</pdfrwt>
<totfact> 0.97394862E+01</totfact>
</mgrwt>
</event>
<event>
 4    1  0.4306168E+000  0.1992476E+03  0.7546771E-02  0.1150375E+00
         21   -1    0    0  503  502  0.00000000000E+00  0.00000000000E+00  0.55630248546E+03  0.55630248546E+03  0.00000000000E+00 0. -1.
         21   -1    0    0  501  503 -0.00000000000E+00 -0.00000000000E+00 -0.77261288384E+02  0.77261288384E+02  0.00000000000E+00 0. -1.
          6    1    1    2  501    0  0.10737487384E+02  0.98261517164E+02  0.15199626859E+03  0.25060423990E+03  0.17300000000E+03 0. -1.
         -6    1    1    2    0  502 -0.10737487384E+02 -0.98261517164E+02  0.32704492848E+03  0.38295953394E+03  0.17300000000E+03 0. -1.
<mgrwt>
<rscale>  2 0.19924763E+03</rscale>
<asrwt>0</asrwt>
<pdfrwt beam="1">  1       21 0.85584995E-01 0.19924763E+03</pdfrwt>
<pdfrwt beam="2">  1       21 0.11886352E-01 0.19924763E+03</pdfrwt>
<totfact> 0.70193951E+04</totfact>
</mgrwt>
</event>
<event>
 4    1  0.4306168E+000  0.3531615E+03  0.7546771E-02  0.1061325E+00
         21   -1    0    0  503  502  0.00000000000E+00  0.00000000000E+00  0.22343585341E+03  0.22343585341E+03  0.00000000000E+00 0. -1.
         21   -1    0    0  501  503 -0.00000000000E+00 -0.00000000000E+00 -0.72349239320E+03  0.72349239320E+03  0.00000000000E+00 0. -1.
          6    1    1    2  501    0 -0.19309309886E+03 -0.23981055253E+03 -0.47633097663E+03  0.59297069509E+03  0.17300000000E+03 0. -1.
         -6    1    1    2    0  502  0.19309309886E+03  0.23981055253E+03 -0.23725563167E+02  0.35395755152E+03  0.17300000000E+03 0. -1.
<mgrwt>
<rscale>  2 0.35316150E+03</rscale>
<asrwt>0</asrwt>
<pdfrwt beam="1">  1       21 0.34374747E-01 0.35316150E+03</pdfrwt>
<pdfrwt beam="2">  1       21 0.11130652E+00 0.35316150E+03</pdfrwt>
<totfact> 0.47040240E+03</totfact>
</mgrwt>
</event>
<event>
 4    1  0.4306168E+000  0.2001447E+03  0.7546771E-02  0.1149617E+00
         21   -1    0    0  501  502  0.00000000000E+00  0.00000000000E+00  0.74127442291E+02  0.74127442291E+02  0.00000000000E+00 0.  1.
         21   -1    0    0  502  503 -0.00000000000E+00 -0.00000000000E+00 -0.60897477676E+03  0.60897477676E+03  0.00000000000E+00 0. -1.
          6    1    1    2  501    0 -0.39009218876E+02  0.92775004475E+02 -0.15280332290E+03  0.25180702155E+03  0.17300000000E+03 0.  1.
         -6    1    1    2    0  503  0.39009218876E+02 -0.92775004475E+02 -0.38204401157E+03  0.43129519750E+03  0.17300000000E+03 0. -1.
<mgrwt>
<rscale>  2 0.20014475E+03</rscale>
<asrwt>0</asrwt>
<pdfrwt beam="1">  1       21 0.11404222E-01 0.20014475E+03</pdfrwt>
<pdfrwt beam="2">  1       21 0.93688427E-01 0.20014475E+03</pdfrwt>
<totfact> 0.61278405E+04</totfact>
</mgrwt>
</event>
<event>
 4    1  0.4306168E+000  0.1995395E+03  0.7546771E-02  0.1150128E+00
         21   -1    0    0  503  502  0.00000000000E+00  0.00000000000E+00  0.66235952763E+02  0.66235952763E+02  0.00000000000E+00 0.  1.
         21   -1    0    0  501  503 -0.00000000000E+00 -0.00000000000E+00 -0.62110401744E+03  0.62110401744E+03  0.00000000000E+00 0.  1.
          6    1    1    2  501    0 -0.67917617382E+02 -0.72623724971E+02 -0.33907358077E+03  0.39342966507E+03  0.17300000000E+03 0.  1.
         -6    1    1    2    0  502  0.67917617382E+02  0.72623724971E+02 -0.21579448391E+03  0.29391030514E+03  0.17300000000E+03 0.  1.
<mgrwt>
<rscale>  2 0.19953949E+03</rscale>
<asrwt>0</asrwt>
<pdfrwt beam="1">  1       21 0.10190147E-01 0.19953949E+03</pdfrwt>
<pdfrwt beam="2">  1       21 0.95554461E-01 0.19953949E+03</pdfrwt>
<totfact> 0.71491354E+04</totfact>
</mgrwt>
</event>
<event>
 4    1  0.4306168E+000  0.1746280E+03  0.7546771E-02  0.1173106E+00
         21   -1    0    0  503  502  0.00000000000E+00  0.00000000000E+00  0.28126457111E+02  0.28126457111E+02  0.00000000000E+00 0. -1.
         21   -1    0    0  501  503 -0.00000000000E+00 -0.00000000000E+00 -0.17920740764E+04  0.17920740764E+04  0.00000000000E+00 0. -1.
          6    1    1    2  501    0  0.10066274265E+01  0.23768397148E+02 -0.14539613815E+04  0.14644106832E+04  0.17300000000E+03 0. -1.
         -6    1    1    2    0  502 -0.10066274265E+01 -0.23768397148E+02 -0.30998623772E+03  0.35578985030E+03  0.17300000000E+03 0. -1.
<mgrwt>
<rscale>  2 0.17462803E+03</rscale>
<asrwt>0</asrwt>
<pdfrwt beam="1">  1       21 0.43271482E-02 0.17462803E+03</pdfrwt>
<pdfrwt beam="2">  1       21 0.27570365E+00 0.17462803E+03</pdfrwt>
<totfact> 0.16472311E+04</totfact>
</mgrwt>
</event>
<event>
 4    1  0.4306168E+000  0.2318831E+03  0.7546771E-02  0.1125321E+00
         21   -1    0    0  503  502  0.00000000000E+00  0.00000000000E+00  0.15665277219E+03  0.15665277219E+03  0.00000000000E+00 0. -1.
         21   -1    0    0  501  503 -0.00000000000E+00 -0.00000000000E+00 -0.37498723670E+03  0.37498723670E+03  0.00000000000E+00 0.  1.
          6    1    1    2  501    0 -0.12456283673E+03  0.91240858758E+02 -0.18650994693E+03  0.29758318989E+03  0.17300000000E+03 0.  1.
         -6    1    1    2    0  502  0.12456283673E+03 -0.91240858758E+02 -0.31824517577E+02  0.23405681900E+03  0.17300000000E+03 0. -1.
<mgrwt>
<rscale>  2 0.23188315E+03</rscale>
<asrwt>0</asrwt>
<pdfrwt beam="1">  1       21 0.24100427E-01 0.23188315E+03</pdfrwt>
<pdfrwt beam="2">  1       21 0.57690343E-01 0.23188315E+03</pdfrwt>
<totfact> 0.44927809E+04</totfact>
</mgrwt>
</event>
<event>
 4    1  0.4306168E+000  0.2342138E+03  0.7546771E-02  0.1123709E+00
         21   -1    0    0  503  502  0.00000000000E+00  0.00000000000E+00  0.11598721099E+04  0.11598721099E+04  0.00000000000E+00 0. -1.
         21   -1    0    0  501  503 -0.00000000000E+00 -0.00000000000E+00 -0.81733656336E+02  0.81733656336E+02  0.00000000000E+00 0. -1.
          6    1    1    2  501    0 -0.80170489893E+01 -0.15767958255E+03  0.13609570497E+03  0.27088404298E+03  0.17300000000E+03 0. -1.
         -6    1    1    2    0  502  0.80170489893E+01  0.15767958255E+03  0.94204274856E+03  0.97072172323E+03  0.17300000000E+03 0. -1.
<mgrwt>
<rscale>  2 0.23421384E+03</rscale>
<asrwt>0</asrwt>
<pdfrwt beam="1">  1       21 0.17844185E+00 0.23421384E+03</pdfrwt>
<pdfrwt beam="2">  1       21 0.12574410E-01 0.23421384E+03</pdfrwt>
<totfact> 0.97527284E+03</totfact>
</mgrwt>
</event>
<event>
 4    1  0.4306168E+000  0.1968703E+03  0.7546771E-02  0.1152407E+00
         21   -1    0    0  503  502  0.00000000000E+00  0.00000000000E+00  0.16299749191E+03  0.16299749191E+03  0.00000000000E+00 0. -1.
         21   -1    0    0  501  503 -0.00000000000E+00 -0.00000000000E+00 -0.29452155415E+03  0.29452155415E+03  0.00000000000E+00 0. -1.
          6    1    1    2  501    0 -0.15326428964E+02  0.92703990530E+02 -0.16616861679E+03  0.25762363729E+03  0.17300000000E+03 0. -1.
         -6    1    1    2    0  502  0.15326428964E+02 -0.92703990530E+02  0.34644554547E+02  0.19989540876E+03  0.17300000000E+03 0. -1.
<mgrwt>
<rscale>  2 0.19687034E+03</rscale>
<asrwt>0</asrwt>
<pdfrwt beam="1">  1       21 0.25076538E-01 0.19687034E+03</pdfrwt>
<pdfrwt beam="2">  1       21 0.45311008E-01 0.19687034E+03</pdfrwt>
<totfact> 0.70224001E+04</totfact>
</mgrwt>
</event>
<event>
 4    1  0.4306168E+000  0.1843273E+03  0.7546771E-02  0.1163680E+00
         21   -1    0    0  501  502  0.00000000000E+00  0.00000000000E+00  0.18077462640E+03  0.18077462640E+03  0.00000000000E+00 0.  1.
         21   -1    0    0  502  503 -0.00000000000E+00 -0.00000000000E+00 -0.18827251554E+03  0.18827251554E+03  0.00000000000E+00 0.  1.
          6    1    1    2  501    0 -0.58129858371E+02  0.25854655634E+02 -0.11389239210E+02  0.18467879798E+03  0.17300000000E+03 0.  1.
         -6    1    1    2    0  503  0.58129858371E+02 -0.25854655634E+02  0.38913500724E+01  0.18436834397E+03  0.17300000000E+03 0.  1.
<mgrwt>
<rscale>  2 0.18432727E+03</rscale>
<asrwt>0</asrwt>
<pdfrwt beam="1">  1       21 0.27811481E-01 0.18432727E+03</pdfrwt>
<pdfrwt beam="2">  1       21 0.28965002E-01 0.18432727E+03</pdfrwt>
<totfact> 0.14121752E+05</totfact>
</mgrwt>
</event>
<event>
 4    1  0.4306168E+000  0.1792086E+03  0.7546771E-02  0.1168571E+00
         21   -1    0    0  503  502  0.00000000000E+00  0.00000000000E+00  0.30292015110E+03  0.30292015110E+03  0.00000000000E+00 0.  1.
         21   -1    0    0  501  503 -0.00000000000E+00 -0.00000000000E+00 -0.11001709895E+03  0.11001709895E+03  0.00000000000E+00 0.  1.
          6    1    1    2  501    0  0.26693865460E+02  0.38394578822E+02  0.57098658431E+02  0.18808498858E+03  0.17300000000E+03 0. -1.
         -6    1    1    2    0  502 -0.26693865460E+02 -0.38394578822E+02  0.13580439372E+03  0.22485226147E+03  0.17300000000E+03 0. -1.
<mgrwt>
<rscale>  2 0.17920855E+03</rscale>
<asrwt>0</asrwt>
<pdfrwt beam="1">  1       21 0.46603100E-01 0.17920855E+03</pdfrwt>
<pdfrwt beam="2">  1       21 0.16925708E-01 0.17920855E+03</pdfrwt>
<totfact> 0.13929069E+05</totfact>
</mgrwt>
</event>
<event>
 4    1  0.4306168E+000  0.1894824E+03  0.7546771E-02  0.1158929E+00
         21   -1    0    0  503  502  0.00000000000E+00  0.00000000000E+00  0.11918226822E+04  0.11918226822E+04  0.00000000000E+00 0. -1.
         21   -1    0    0  501  503 -0.00000000000E+00 -0.00000000000E+00 -0.31280429650E+02  0.31280429650E+02  0.00000000000E+00 0. -1.
          6    1    1    2  501    0 -0.51343960169E+00  0.77293715296E+02  0.46273253014E+03  0.50002497587E+03  0.17300000000E+03 0. -1.
         -6    1    1    2    0  502  0.51343960169E+00 -0.77293715296E+02  0.69780972246E+03  0.72307813603E+03  0.17300000000E+03 0. -1.
<mgrwt>
<rscale>  2 0.18948241E+03</rscale>
<asrwt>0</asrwt>
<pdfrwt beam="1">  1       21 0.18335730E+00 0.18948241E+03</pdfrwt>
<pdfrwt beam="2">  1       21 0.48123747E-02 0.18948241E+03</pdfrwt>
<totfact> 0.49657224E+04</totfact>
</mgrwt>
</event>
<event>
 4    1  0.4306168E+000  0.2951995E+03  0.7546771E-02  0.1087665E+00
         21   -1    0    0  501  502  0.00000000000E+00  0.00000000000E+00  0.17625810547E+03  0.17625810547E+03  0.00000000000E+00 0.  1.
         21   -1    0    0  502  503 -0.00000000000E+00 -0.00000000000E+00 -0.15656612553E+04  0.15656612553E+04  0.00000000000E+00 0. -1.
          6    1    1    2  501    0  0.21223273740E+03  0.11032234177E+03  0.25735391254E+02  0.29631919324E+03  0.17300000000E+03 0.  1.
         -6    1    1    2    0  503 -0.21223273740E+03 -0.11032234177E+03 -0.14151385411E+04  0.14456001676E+04  0.17300000000E+03 0. -1.
<mgrwt>
<rscale>  2 0.29519952E+03</rscale>
<asrwt>0</asrwt>
<pdfrwt beam="1">  1       21 0.27116631E-01 0.29519952E+03</pdfrwt>
<pdfrwt beam="2">  1       21 0.24087097E+00 0.29519952E+03</pdfrwt>
<totfact> 0.88187724E+02</totfact>
</mgrwt>
</event>
<event>
 4    1  0.4306168E+000  0.1951969E+03  0.7546771E-02  0.1153856E+00
         21   -1    0    0  501  502  0.00000000000E+00  0.00000000000E+00  0.15128999248E+04  0.15128999248E+04  0.00000000000E+00 0. -1.
         21   -1    0    0  502  503 -0.00000000000E+00 -0.00000000000E+00 -0.25904077570E+02  0.25904077570E+02  0.00000000000E+00 0.  1.
          6    1    1    2  501    0  0.12478268170E+02  0.89538457161E+02  0.61527511121E+03  0.64549616959E+03  0.17300000000E+03 0.  1.
         -6    1    1    2    0  503 -0.12478268170E+02 -0.89538457161E+02  0.87172073600E+03  0.89330783275E+03  0.17300000000E+03 0. -1.
<mgrwt>
<rscale>  2 0.19519693E+03</rscale>
<asrwt>0</asrwt>
<pdfrwt beam="1">  1       21 0.23275377E+00 0.19519693E+03</pdfrwt>
<pdfrwt beam="2">  1       21 0.39852439E-02 0.19519693E+03</pdfrwt>
<totfact> 0.33124756E+04</totfact>
</mgrwt>
</event>
<event>
 4    1  0.4306168E+000  0.1965554E+03  0.7546771E-02  0.1152678E+00
         21   -1    0    0  503  502  0.00000000000E+00  0.00000000000E+00  0.15701704263E+03  0.15701704263E+03  0.00000000000E+00 0.  1.
         21   -1    0    0  501  503 -0.00000000000E+00 -0.00000000000E+00 -0.83084473946E+03  0.83084473946E+03  0.00000000000E+00 0.  1.
          6    1    1    2  501    0 -0.53762594249E+02  0.76253572270E+02 -0.75130266462E+03  0.77658851246E+03  0.17300000000E+03 0.  1.
         -6    1    1    2    0  502  0.53762594249E+02 -0.76253572270E+02  0.77474967784E+02  0.21127326962E+03  0.17300000000E+03 0.  1.
<mgrwt>
<rscale>  2 0.19655540E+03</rscale>
<asrwt>0</asrwt>
<pdfrwt beam="1">  1       21 0.24156468E-01 0.19655540E+03</pdfrwt>
<pdfrwt beam="2">  1       21 0.12782227E+00 0.19655540E+03</pdfrwt>
<totfact> 0.72718462E+03</totfact>
</mgrwt>
</event>
<event>
 4    1  0.4306168E+000  0.2123695E+03  0.7546771E-02  0.1139703E+00
         21   -1    0    0  501  502  0.00000000000E+00  0.00000000000E+00  0.15758748006E+03  0.15758748006E+03  0.00000000000E+00 0.  1.
         21   -1    0    0  502  503 -0.00000000000E+00 -0.00000000000E+00 -0.30936765067E+03  0.30936765067E+03  0.00000000000E+00 0.  1.
          6    1    1    2  501    0  0.24016304999E+02 -0.12080977583E+03 -0.13978899144E+03  0.25424741291E+03  0.17300000000E+03 0.  1.
         -6    1    1    2    0  503 -0.24016304999E+02  0.12080977583E+03 -0.11991179167E+02  0.21270771782E+03  0.17300000000E+03 0.  1.
<mgrwt>
<rscale>  2 0.21236945E+03</rscale>
<asrwt>0</asrwt>
<pdfrwt beam="1">  1       21 0.24244228E-01 0.21236945E+03</pdfrwt>
<pdfrwt beam="2">  1       21 0.47595023E-01 0.21236945E+03</pdfrwt>
<totfact> 0.67198530E+04</totfact>
</mgrwt>
</event>
<event>
 4    1  0.4306168E+000  0.1814742E+03  0.7546771E-02  0.1166384E+00
         21   -1    0    0  503  502  0.00000000000E+00  0.00000000000E+00  0.63195053951E+03  0.63195053951E+03  0.00000000000E+00 0.  1.
         21   -1    0    0  501  503 -0.00000000000E+00 -0.00000000000E+00 -0.52119063195E+02  0.52119063195E+02  0.00000000000E+00 0.  1.
          6    1    1    2  501    0  0.16238401558E+02 -0.52347070569E+02  0.28625708050E+03  0.33893364782E+03  0.17300000000E+03 0.  1.
         -6    1    1    2    0  502 -0.16238401558E+02  0.52347070569E+02  0.29357439581E+03  0.34513595489E+03  0.17300000000E+03 0.  1.
<mgrwt>
<rscale>  2 0.18147424E+03</rscale>
<asrwt>0</asrwt>
<pdfrwt beam="1">  1       21 0.97223154E-01 0.18147424E+03</pdfrwt>
<pdfrwt beam="2">  1       21 0.80183179E-02 0.18147424E+03</pdfrwt>
<totfact> 0.10534234E+05</totfact>
</mgrwt>
</event>
<event>
 4    1  0.4306168E+000  0.1790379E+03  0.7546771E-02  0.1168737E+00
         21   -1    0    0  503  502  0.00000000000E+00  0.00000000000E+00  0.40585407658E+03  0.40585407658E+03  0.00000000000E+00 0.  1.
         21   -1    0    0  501  503 -0.00000000000E+00 -0.00000000000E+00 -0.84073154186E+02  0.84073154186E+02  0.00000000000E+00 0.  1.
          6    1    1    2  501    0  0.42296681453E+02  0.18345698614E+02  0.10060073351E+03  0.20536572621E+03  0.17300000000E+03 0.  1.
         -6    1    1    2    0  502 -0.42296681453E+02 -0.18345698614E+02  0.22118018888E+03  0.28456150456E+03  0.17300000000E+03 0.  1.
<mgrwt>
<rscale>  2 0.17903791E+03</rscale>
<asrwt>0</asrwt>
<pdfrwt beam="1">  1       21 0.62439088E-01 0.17903791E+03</pdfrwt>
<pdfrwt beam="2">  1       21 0.12934332E-01 0.17903791E+03</pdfrwt>
<totfact> 0.12258110E+05</totfact>
</mgrwt>
</event>
<event>
 4    1  0.4306168E+000  0.1777766E+03  0.7546771E-02  0.1169972E+00
         21   -1    0    0  501  502  0.00000000000E+00  0.00000000000E+00  0.12301804650E+03  0.12301804650E+03  0.00000000000E+00 0.  1.
         21   -1    0    0  502  503 -0.00000000000E+00 -0.00000000000E+00 -0.75897556739E+03  0.75897556739E+03  0.00000000000E+00 0.  1.
          6    1    1    2  501    0 -0.33745545023E+02 -0.23168367185E+02  0.40696874684E+02  0.18237535649E+03  0.17300000000E+03 0.  1.
         -6    1    1    2    0  503  0.33745545023E+02  0.23168367185E+02 -0.67665439557E+03  0.69961825740E+03  0.17300000000E+03 0.  1.
<mgrwt>
<rscale>  2 0.17777664E+03</rscale>
<asrwt>0</asrwt>
<pdfrwt beam="1">  1       21 0.18925854E-01 0.17777664E+03</pdfrwt>
<pdfrwt beam="2">  1       21 0.11676547E+00 0.17777664E+03</pdfrwt>
<totfact> 0.14597772E+04</totfact>
</mgrwt>
</event>
<event>
 4    1  0.4306168E+000  0.2786597E+03  0.7546771E-02  0.1096423E+00
         21   -1    0    0  501  502  0.00000000000E+00  0.00000000000E+00  0.78593560348E+03  0.78593560348E+03  0.00000000000E+00 0. -1.
         21   -1    0    0  502  503 -0.00000000000E+00 -0.00000000000E+00 -0.25259016287E+03  0.25259016287E+03  0.00000000000E+00 0.  1.
          6    1    1    2  501    0 -0.78100152278E+02 -0.20401621589E+03  0.67184701300E+03  0.72734425069E+03  0.17300000000E+03 0. -1.
         -6    1    1    2    0  503  0.78100152278E+02  0.20401621589E+03 -0.13850157239E+03  0.31118151566E+03  0.17300000000E+03 0.  1.
<mgrwt>
<rscale>  2 0.27865974E+03</rscale>
<asrwt>0</asrwt>
<pdfrwt beam="1">  1       21 0.12091317E+00 0.27865974E+03</pdfrwt>
<pdfrwt beam="2">  1       21 0.38860025E-01 0.27865974E+03</pdfrwt>
<totfact> 0.31065897E+03</totfact>
</mgrwt>
</event>
<event>
 4    1  0.4306168E+000  0.1863979E+03  0.7546771E-02  0.1161751E+00
         21   -1    0    0  501  502  0.00000000000E+00  0.00000000000E+00  0.70475576172E+02  0.70475576172E+02  0.00000000000E+00 0.  1.
         21   -1    0    0  502  503 -0.00000000000E+00 -0.00000000000E+00 -0.51216312255E+03  0.51216312255E+03  0.00000000000E+00 0.  1.
          6    1    1    2  501    0 -0.62126463629E+02 -0.30910720508E+02 -0.27720037112E+03  0.33404223666E+03  0.17300000000E+03 0. -1.
         -6    1    1    2    0  503  0.62126463629E+02  0.30910720508E+02 -0.16448717526E+03  0.24859646207E+03  0.17300000000E+03 0. -1.
<mgrwt>
<rscale>  2 0.18639788E+03</rscale>
<asrwt>0</asrwt>
<pdfrwt beam="1">  1       21 0.10842396E-01 0.18639788E+03</pdfrwt>
<pdfrwt beam="2">  1       21 0.78794326E-01 0.18639788E+03</pdfrwt>
<totfact> 0.10032334E+05</totfact>
</mgrwt>
</event>
<event>
 4    1  0.4306168E+000  0.2242572E+03  0.7546771E-02  0.1130748E+00
         21   -1    0    0  501  502  0.00000000000E+00  0.00000000000E+00  0.13004579632E+04  0.13004579632E+04  0.00000000000E+00 0. -1.
         21   -1    0    0  502  503 -0.00000000000E+00 -0.00000000000E+00 -0.51648942819E+02  0.51648942819E+02  0.00000000000E+00 0. -1.
          6    1    1    2  501    0  0.10872110425E+03  0.92422968104E+02  0.96327742448E+03  0.98903724908E+03  0.17300000000E+03 0. -1.
         -6    1    1    2    0  503 -0.10872110425E+03 -0.92422968104E+02  0.28553159594E+03  0.36306965698E+03  0.17300000000E+03 0. -1.
<mgrwt>
<rscale>  2 0.22425718E+03</rscale>
<asrwt>0</asrwt>
<pdfrwt beam="1">  1       21 0.20007043E+00 0.22425718E+03</pdfrwt>
<pdfrwt beam="2">  1       21 0.79459922E-02 0.22425718E+03</pdfrwt>
<totfact> 0.15904035E+04</totfact>
</mgrwt>
</event>
<event>
 4    1  0.4306168E+000  0.1730776E+03  0.7546771E-02  0.1174676E+00
         21   -1    0    0  501  502  0.00000000000E+00  0.00000000000E+00  0.73567027213E+02  0.73567027213E+02  0.00000000000E+00 0. -1.
         21   -1    0    0  502  503 -0.00000000000E+00 -0.00000000000E+00 -0.44461617844E+03  0.44461617844E+03  0.00000000000E+00 0. -1.
          6    1    1    2  501    0  0.42722903023E+01 -0.29304144556E+01 -0.11035501995E+03  0.20526585255E+03  0.17300000000E+03 0.  1.
         -6    1    1    2    0  503 -0.42722903023E+01  0.29304144556E+01 -0.26069413128E+03  0.31291735311E+03  0.17300000000E+03 0.  1.
<mgrwt>
<rscale>  2 0.17307755E+03</rscale>
<asrwt>0</asrwt>
<pdfrwt beam="1">  1       21 0.11318004E-01 0.17307755E+03</pdfrwt>
<pdfrwt beam="2">  1       21 0.68402489E-01 0.17307755E+03</pdfrwt>
<totfact> 0.12789376E+05</totfact>
</mgrwt>
</event>
<event>
 4    1  0.4306168E+000  0.2692878E+03  0.7546771E-02  0.1101688E+00
         21   -1    0    0  503  502  0.00000000000E+00  0.00000000000E+00  0.20106042890E+03  0.20106042890E+03  0.00000000000E+00 0. -1.
         21   -1    0    0  501  503 -0.00000000000E+00 -0.00000000000E+00 -0.37038072405E+03  0.37038072405E+03  0.00000000000E+00 0.  1.
          6    1    1    2  501    0 -0.20356464236E+03  0.33887610754E+02 -0.13093043499E+03  0.29943064738E+03  0.17300000000E+03 0.  1.
         -6    1    1    2    0  502  0.20356464236E+03 -0.33887610754E+02 -0.38389860156E+02  0.27201050558E+03  0.17300000000E+03 0. -1.
<mgrwt>
<rscale>  2 0.26928783E+03</rscale>
<asrwt>0</asrwt>
<pdfrwt beam="1">  1       21 0.30932374E-01 0.26928783E+03</pdfrwt>
<pdfrwt beam="2">  1       21 0.56981650E-01 0.26928783E+03</pdfrwt>
<totfact> 0.27976842E+04</totfact>
</mgrwt>
</event>
<event>
 4    1  0.4306168E+000  0.2896636E+03  0.7546771E-02  0.1090525E+00
         21   -1    0    0  501  502  0.00000000000E+00  0.00000000000E+00  0.57285887461E+03  0.57285887461E+03  0.00000000000E+00 0.  1.
         21   -1    0    0  502  503 -0.00000000000E+00 -0.00000000000E+00 -0.16907015631E+03  0.16907015631E+03  0.00000000000E+00 0. -1.
          6    1    1    2  501    0 -0.20019706032E+02  0.23146325548E+03  0.33753244448E+03  0.44478441783E+03  0.17300000000E+03 0.  1.
         -6    1    1    2    0  503  0.20019706032E+02 -0.23146325548E+03  0.66256273814E+02  0.29714461309E+03  0.17300000000E+03 0. -1.
<mgrwt>
<rscale>  2 0.28966365E+03</rscale>
<asrwt>0</asrwt>
<pdfrwt beam="1">  1       21 0.88132134E-01 0.28966365E+03</pdfrwt>
<pdfrwt beam="2">  1       21 0.26010793E-01 0.28966365E+03</pdfrwt>
<totfact> 0.14687432E+04</totfact>
</mgrwt>
</event>
<event>
 4    1  0.4306168E+000  0.3348406E+03  0.7546771E-02  0.1069015E+00
         21   -1    0    0  503  502  0.00000000000E+00  0.00000000000E+00  0.19665506012E+03  0.19665506012E+03  0.00000000000E+00 0.  1.
         21   -1    0    0  501  503 -0.00000000000E+00 -0.00000000000E+00 -0.78818506781E+03  0.78818506781E+03  0.00000000000E+00 0. -1.
          6    1    1    2  501    0 -0.21692564278E+03 -0.18743662120E+03 -0.55477016443E+03  0.64798777519E+03  0.17300000000E+03 0.  1.
         -6    1    1    2    0  502  0.21692564278E+03  0.18743662120E+03 -0.36759843266E+02  0.33685235273E+03  0.17300000000E+03 0. -1.
<mgrwt>
<rscale>  2 0.33484059E+03</rscale>
<asrwt>0</asrwt>
<pdfrwt beam="1">  1       21 0.30254624E-01 0.33484059E+03</pdfrwt>
<pdfrwt beam="2">  1       21 0.12125924E+00 0.33484059E+03</pdfrwt>
<totfact> 0.49406209E+03</totfact>
</mgrwt>
</event>
<event>
 4    1  0.4306168E+000  0.2858943E+03  0.7546771E-02  0.1092512E+00
         21   -1    0    0  501  502  0.00000000000E+00  0.00000000000E+00  0.25619099176E+03  0.25619099176E+03  0.00000000000E+00 0.  1.
         21   -1    0    0  502  503 -0.00000000000E+00 -0.00000000000E+00 -0.62844363549E+03  0.62844363549E+03  0.00000000000E+00 0. -1.
          6    1    1    2  501    0  0.16765524469E+03  0.15394242436E+03  0.12423132209E+03  0.31171938098E+03  0.17300000000E+03 0.  1.
         -6    1    1    2    0  503 -0.16765524469E+03 -0.15394242436E+03 -0.49648396582E+03  0.57291524627E+03  0.17300000000E+03 0. -1.
<mgrwt>
<rscale>  2 0.28589430E+03</rscale>
<asrwt>0</asrwt>
<pdfrwt beam="1">  1       21 0.39413999E-01 0.28589430E+03</pdfrwt>
<pdfrwt beam="2">  1       21 0.96683636E-01 0.28589430E+03</pdfrwt>
<totfact> 0.51890550E+03</totfact>
</mgrwt>
</event>
<event>
 4    1  0.4306168E+000  0.2068605E+03  0.7546771E-02  0.1144077E+00
         21   -1    0    0  503  502  0.00000000000E+00  0.00000000000E+00  0.70955176534E+03  0.70955176534E+03  0.00000000000E+00 0. -1.
         21   -1    0    0  501  503 -0.00000000000E+00 -0.00000000000E+00 -0.10920976893E+03  0.10920976893E+03  0.00000000000E+00 0. -1.
          6    1    1    2  501    0  0.32009547410E+02 -0.10880095183E+03  0.26227236996E+02  0.20851648905E+03  0.17300000000E+03 0. -1.
         -6    1    1    2    0  502 -0.32009547410E+02  0.10880095183E+03  0.57411475942E+03  0.61024504523E+03  0.17300000000E+03 0. -1.
<mgrwt>
<rscale>  2 0.20686048E+03</rscale>
<asrwt>0</asrwt>
<pdfrwt beam="1">  1       21 0.10916181E+00 0.20686048E+03</pdfrwt>
<pdfrwt beam="2">  1       21 0.16801503E-01 0.20686048E+03</pdfrwt>
<totfact> 0.21022663E+04</totfact>
</mgrwt>
</event>
<event>
 4    1  0.4306168E+000  0.2403038E+03  0.7546771E-02  0.1119591E+00
         21   -1    0    0  501  502  0.00000000000E+00  0.00000000000E+00  0.18603084849E+03  0.18603084849E+03  0.00000000000E+00 0.  1.
         21   -1    0    0  502  503 -0.00000000000E+00 -0.00000000000E+00 -0.89789972600E+03  0.89789972600E+03  0.00000000000E+00 0.  1.
          6    1    1    2  501    0  0.36794802422E+01  0.16674350178E+03  0.82452386811E+02  0.25405576170E+03  0.17300000000E+03 0.  1.
         -6    1    1    2    0  503 -0.36794802422E+01 -0.16674350178E+03 -0.79432126432E+03  0.82987481279E+03  0.17300000000E+03 0.  1.
<mgrwt>
<rscale>  2 0.24030384E+03</rscale>
<asrwt>0</asrwt>
<pdfrwt beam="1">  1       21 0.28620131E-01 0.24030384E+03</pdfrwt>
<pdfrwt beam="2">  1       21 0.13813842E+00 0.24030384E+03</pdfrwt>
<totfact> 0.41673849E+03</totfact>
</mgrwt>
</event>
<event>
 4    1  0.4306168E+000  0.3200550E+03  0.7546771E-02  0.1075624E+00
         21   -1    0    0  503  502  0.00000000000E+00  0.00000000000E+00  0.65626264592E+02  0.65626264592E+02  0.00000000000E+00 0.  1.
         21   -1    0    0  501  503 -0.00000000000E+00 -0.00000000000E+00 -0.17308061952E+04  0.17308061952E+04  0.00000000000E+00 0. -1.
          6    1    1    2  501    0  0.83327485763E+02 -0.25605223180E+03 -0.11140244264E+04  0.11590882788E+04  0.17300000000E+03 0.  1.
         -6    1    1    2    0  502 -0.83327485763E+02  0.25605223180E+03 -0.55115550416E+03  0.63734418100E+03  0.17300000000E+03 0. -1.
<mgrwt>
<rscale>  2 0.32005502E+03</rscale>
<asrwt>0</asrwt>
<pdfrwt beam="1">  1       21 0.10096349E-01 0.32005502E+03</pdfrwt>
<pdfrwt beam="2">  1       21 0.26627786E+00 0.32005502E+03</pdfrwt>
<totfact> 0.38246617E+03</totfact>
</mgrwt>
</event>
<event>
 4    1  0.4306168E+000  0.2247768E+03  0.7546771E-02  0.1130371E+00
         21   -1    0    0  503  502  0.00000000000E+00  0.00000000000E+00  0.24928944889E+03  0.24928944889E+03  0.00000000000E+00 0.  1.
         21   -1    0    0  501  503 -0.00000000000E+00 -0.00000000000E+00 -0.39692031824E+03  0.39692031824E+03  0.00000000000E+00 0.  1.
          6    1    1    2  501    0 -0.95042020106E+02 -0.10752956855E+03 -0.29984632132E+03  0.37474312550E+03  0.17300000000E+03 0.  1.
         -6    1    1    2    0  502  0.95042020106E+02  0.10752956855E+03  0.15221545198E+03  0.27146664163E+03  0.17300000000E+03 0.  1.
<mgrwt>
<rscale>  2 0.22477676E+03</rscale>
<asrwt>0</asrwt>
<pdfrwt beam="1">  1       21 0.38352223E-01 0.22477676E+03</pdfrwt>
<pdfrwt beam="2">  1       21 0.61064664E-01 0.22477676E+03</pdfrwt>
<totfact> 0.16043348E+04</totfact>
</mgrwt>
</event>
<event>
 4    1  0.4306168E+000  0.2935412E+03  0.7546771E-02  0.1088515E+00
         21   -1    0    0  503  502  0.00000000000E+00  0.00000000000E+00  0.10018541438E+03  0.10018541438E+03  0.00000000000E+00 0. -1.
         21   -1    0    0  501  503 -0.00000000000E+00 -0.00000000000E+00 -0.97449111316E+03  0.97449111316E+03  0.00000000000E+00 0. -1.
          6    1    1    2  501    0 -0.60867524731E+02  0.22919988244E+03 -0.62127771154E+03  0.68713349252E+03  0.17300000000E+03 0. -1.
         -6    1    1    2    0  502  0.60867524731E+02 -0.22919988244E+03 -0.25302798724E+03  0.38754303503E+03  0.17300000000E+03 0. -1.
<mgrwt>
<rscale>  2 0.29354121E+03</rscale>
<asrwt>0</asrwt>
<pdfrwt beam="1">  1       21 0.15413140E-01 0.29354121E+03</pdfrwt>
<pdfrwt beam="2">  1       21 0.14992171E+00 0.29354121E+03</pdfrwt>
<totfact> 0.10496150E+04</totfact>
</mgrwt>
</event>
<event>
 4    1  0.4306168E+000  0.2161949E+03  0.7546771E-02  0.1136752E+00
         21   -1    0    0  503  502  0.00000000000E+00  0.00000000000E+00  0.16827915083E+03  0.16827915083E+03  0.00000000000E+00 0.  1.
         21   -1    0    0  501  503 -0.00000000000E+00 -0.00000000000E+00 -0.34461934358E+03  0.34461934358E+03  0.00000000000E+00 0. -1.
          6    1    1    2  501    0  0.12531921753E+03 -0.33261278021E+02 -0.20113197824E+03  0.29528679545E+03  0.17300000000E+03 0. -1.
         -6    1    1    2    0  502 -0.12531921753E+03  0.33261278021E+02  0.24791785493E+02  0.21761169896E+03  0.17300000000E+03 0.  1.
<mgrwt>
<rscale>  2 0.21619486E+03</rscale>
<asrwt>0</asrwt>
<pdfrwt beam="1">  1       21 0.25889100E-01 0.21619486E+03</pdfrwt>
<pdfrwt beam="2">  1       21 0.53018360E-01 0.21619486E+03</pdfrwt>
<totfact> 0.47204966E+04</totfact>
</mgrwt>
</event>
<event>
 4    1  0.4306168E+000  0.2465264E+03  0.7546771E-02  0.1115520E+00
         21   -1    0    0  501  502  0.00000000000E+00  0.00000000000E+00  0.31891970245E+03  0.31891970245E+03  0.00000000000E+00 0. -1.
         21   -1    0    0  502  503 -0.00000000000E+00 -0.00000000000E+00 -0.19968445950E+03  0.19968445950E+03  0.00000000000E+00 0. -1.
          6    1    1    2  501    0  0.17554785875E+03  0.54031103104E+01  0.11502851848E+03  0.27204191658E+03  0.17300000000E+03 0. -1.
         -6    1    1    2    0  503 -0.17554785875E+03 -0.54031103104E+01  0.42067244746E+01  0.24656224537E+03  0.17300000000E+03 0. -1.
<mgrwt>
<rscale>  2 0.24652636E+03</rscale>
<asrwt>0</asrwt>
<pdfrwt beam="1">  1       21 0.49064570E-01 0.24652636E+03</pdfrwt>
<pdfrwt beam="2">  1       21 0.30720686E-01 0.24652636E+03</pdfrwt>
<totfact> 0.39303784E+04</totfact>
</mgrwt>
</event>
<event>
 4    1  0.4306168E+000  0.1876741E+03  0.7546771E-02  0.1160576E+00
         21   -1    0    0  503  502  0.00000000000E+00  0.00000000000E+00  0.50041866190E+02  0.50041866190E+02  0.00000000000E+00 0. -1.
         21   -1    0    0  501  503 -0.00000000000E+00 -0.00000000000E+00 -0.72181965474E+03  0.72181965474E+03  0.00000000000E+00 0. -1.
          6    1    1    2  501    0  0.26215337150E+02  0.67862624967E+02 -0.27498311233E+03  0.33292235106E+03  0.17300000000E+03 0.  1.
         -6    1    1    2    0  502 -0.26215337150E+02 -0.67862624967E+02 -0.39679467622E+03  0.43893916987E+03  0.17300000000E+03 0.  1.
<mgrwt>
<rscale>  2 0.18767413E+03</rscale>
<asrwt>0</asrwt>
<pdfrwt beam="1">  1       21 0.76987491E-02 0.18767413E+03</pdfrwt>
<pdfrwt beam="2">  1       21 0.11104917E+00 0.18767413E+03</pdfrwt>
<totfact> 0.82060847E+04</totfact>
</mgrwt>
</event>
<event>
 4    1  0.4306168E+000  0.1969588E+03  0.7546771E-02  0.1152331E+00
         21   -1    0    0  503  502  0.00000000000E+00  0.00000000000E+00  0.12942283218E+03  0.12942283218E+03  0.00000000000E+00 0. -1.
         21   -1    0    0  501  503 -0.00000000000E+00 -0.00000000000E+00 -0.33275801924E+03  0.33275801924E+03  0.00000000000E+00 0.  1.
          6    1    1    2  501    0  0.93412961425E+02 -0.11738525358E+02 -0.17446481613E+03  0.26311736242E+03  0.17300000000E+03 0.  1.
         -6    1    1    2    0  502 -0.93412961425E+02  0.11738525358E+02 -0.28870370934E+02  0.19906348901E+03  0.17300000000E+03 0. -1.
<mgrwt>
<rscale>  2 0.19695881E+03</rscale>
<asrwt>0</asrwt>
<pdfrwt beam="1">  1       21 0.19911205E-01 0.19695881E+03</pdfrwt>
<pdfrwt beam="2">  1       21 0.51193541E-01 0.19695881E+03</pdfrwt>
<totfact> 0.84273078E+04</totfact>
</mgrwt>
</event>
<event>
 4    1  0.4306168E+000  0.2129576E+03  0.7546771E-02  0.1139245E+00
         21   -1    0    0  501  502  0.00000000000E+00  0.00000000000E+00  0.45965401775E+03  0.45965401775E+03  0.00000000000E+00 0. -1.
         21   -1    0    0  502  503 -0.00000000000E+00 -0.00000000000E+00 -0.13565519434E+03  0.13565519434E+03  0.00000000000E+00 0.  1.
          6    1    1    2  501    0 -0.12327016890E+03  0.15046794329E+02  0.31743419493E+03  0.38225045280E+03  0.17300000000E+03 0. -1.
         -6    1    1    2    0  503  0.12327016890E+03 -0.15046794329E+02  0.65646284776E+01  0.21305875928E+03  0.17300000000E+03 0.  1.
<mgrwt>
<rscale>  2 0.21295760E+03</rscale>
<asrwt>0</asrwt>
<pdfrwt beam="1">  1       21 0.70716002E-01 0.21295760E+03</pdfrwt>
<pdfrwt beam="2">  1       21 0.20870030E-01 0.21295760E+03</pdfrwt>
<totfact> 0.38212458E+04</totfact>
</mgrwt>
</event>
<event>
 4    1  0.4306168E+000  0.2357884E+03  0.7546771E-02  0.1122631E+00
         21   -1    0    0  503  502  0.00000000000E+00  0.00000000000E+00  0.60550937167E+03  0.60550937167E+03  0.00000000000E+00 0. -1.
         21   -1    0    0  501  503 -0.00000000000E+00 -0.00000000000E+00 -0.94114908825E+02  0.94114908825E+02  0.00000000000E+00 0.  1.
          6    1    1    2  501    0  0.93339878842E+02  0.13021070829E+03  0.20103903781E+03  0.30985941370E+03  0.17300000000E+03 0.  1.
         -6    1    1    2    0  502 -0.93339878842E+02 -0.13021070829E+03  0.31035542503E+03  0.38976486679E+03  0.17300000000E+03 0. -1.
<mgrwt>
<rscale>  2 0.23578838E+03</rscale>
<asrwt>0</asrwt>
<pdfrwt beam="1">  1       21 0.93155286E-01 0.23578838E+03</pdfrwt>
<pdfrwt beam="2">  1       21 0.14479217E-01 0.23578838E+03</pdfrwt>
<totfact> 0.39696797E+04</totfact>
</mgrwt>
</event>
<event>
 4    1  0.4306168E+000  0.2133134E+03  0.7546771E-02  0.1138969E+00
         21   -1    0    0  503  502  0.00000000000E+00  0.00000000000E+00  0.58219924861E+02  0.58219924861E+02  0.00000000000E+00 0. -1.
         21   -1    0    0  501  503 -0.00000000000E+00 -0.00000000000E+00 -0.83567113044E+03  0.83567113044E+03  0.00000000000E+00 0.  1.
          6    1    1    2  501    0  0.99052610196E+02  0.75909199877E+02 -0.50245222960E+03  0.54585792038E+03  0.17300000000E+03 0.  1.
         -6    1    1    2    0  502 -0.99052610196E+02 -0.75909199877E+02 -0.27499897598E+03  0.34803313492E+03  0.17300000000E+03 0. -1.
<mgrwt>
<rscale>  2 0.21331345E+03</rscale>
<asrwt>0</asrwt>
<pdfrwt beam="1">  1       21 0.89569116E-02 0.21331345E+03</pdfrwt>
<pdfrwt beam="2">  1       21 0.12856479E+00 0.21331345E+03</pdfrwt>
<totfact> 0.43295590E+04</totfact>
</mgrwt>
</event>
<event>
 4    1  0.4306168E+000  0.1865342E+03  0.7546771E-02  0.1161625E+00
         21   -1    0    0  501  502  0.00000000000E+00  0.00000000000E+00  0.46970463906E+03  0.46970463906E+03  0.00000000000E+00 0.  1.
         21   -1    0    0  502  503 -0.00000000000E+00 -0.00000000000E+00 -0.74496713718E+02  0.74496713718E+02  0.00000000000E+00 0. -1.
          6    1    1    2  501    0  0.68367415068E+02 -0.13853176378E+02  0.17721657930E+03  0.25729502506E+03  0.17300000000E+03 0.  1.
         -6    1    1    2    0  503 -0.68367415068E+02  0.13853176378E+02  0.21799134604E+03  0.28690632772E+03  0.17300000000E+03 0. -1.
<mgrwt>
<rscale>  2 0.18653422E+03</rscale>
<asrwt>0</asrwt>
<pdfrwt beam="1">  1       21 0.72262251E-01 0.18653422E+03</pdfrwt>
<pdfrwt beam="2">  1       21 0.11461033E-01 0.18653422E+03</pdfrwt>
<totfact> 0.11027049E+05</totfact>
</mgrwt>
</event>
<event>
 4    1  0.4306168E+000  0.1909927E+03  0.7546771E-02  0.1157569E+00
         21   -1    0    0  503  502  0.00000000000E+00  0.00000000000E+00  0.41139140766E+03  0.41139140766E+03  0.00000000000E+00 0. -1.
         21   -1    0    0  501  503 -0.00000000000E+00 -0.00000000000E+00 -0.12937769272E+03  0.12937769272E+03  0.00000000000E+00 0. -1.
          6    1    1    2  501    0 -0.38344169435E+01 -0.80836197819E+02 -0.10659372515E+02  0.19128987389E+03  0.17300000000E+03 0. -1.
         -6    1    1    2    0  502  0.38344169435E+01  0.80836197819E+02  0.29267308745E+03  0.34947922649E+03  0.17300000000E+03 0. -1.
<mgrwt>
<rscale>  2 0.19099265E+03</rscale>
<asrwt>0</asrwt>
<pdfrwt beam="1">  1       21 0.63290985E-01 0.19099265E+03</pdfrwt>
<pdfrwt beam="2">  1       21 0.19904261E-01 0.19099265E+03</pdfrwt>
<totfact> 0.53829234E+04</totfact>
</mgrwt>
</event>
<event>
 4    1  0.4306168E+000  0.2512474E+03  0.7546771E-02  0.1112519E+00
         21   -1    0    0  503  502  0.00000000000E+00  0.00000000000E+00  0.11685771878E+03  0.11685771878E+03  0.00000000000E+00 0.  1.
         21   -1    0    0  501  503 -0.00000000000E+00 -0.00000000000E+00 -0.12468108832E+04  0.12468108832E+04  0.00000000000E+00 0. -1.
          6    1    1    2  501    0 -0.11354904166E+03 -0.14248810342E+03 -0.10782775941E+04  0.11071620542E+04  0.17300000000E+03 0.  1.
         -6    1    1    2    0  502  0.11354904166E+03  0.14248810342E+03 -0.51675570385E+02  0.25650654778E+03  0.17300000000E+03 0.  1.
<mgrwt>
<rscale>  2 0.25124738E+03</rscale>
<asrwt>0</asrwt>
<pdfrwt beam="1">  1       21 0.17978112E-01 0.25124738E+03</pdfrwt>
<pdfrwt beam="2">  1       21 0.19181705E+00 0.25124738E+03</pdfrwt>
<totfact> 0.40660727E+03</totfact>
</mgrwt>
</event>
<event>
 4    1  0.4306168E+000  0.2300562E+03  0.7546771E-02  0.1126600E+00
         21   -1    0    0  503  502  0.00000000000E+00  0.00000000000E+00  0.16479267772E+03  0.16479267772E+03  0.00000000000E+00 0.  1.
         21   -1    0    0  501  503 -0.00000000000E+00 -0.00000000000E+00 -0.35890308752E+03  0.35890308752E+03  0.00000000000E+00 0. -1.
          6    1    1    2  501    0  0.14647478489E+03 -0.39267997969E+02 -0.18196220592E+03  0.29331907994E+03  0.17300000000E+03 0. -1.
         -6    1    1    2    0  502 -0.14647478489E+03  0.39267997969E+02 -0.12148203881E+02  0.23037668530E+03  0.17300000000E+03 0.  1.
<mgrwt>
<rscale>  2 0.23005616E+03</rscale>
<asrwt>0</asrwt>
<pdfrwt beam="1">  1       21 0.25352720E-01 0.23005616E+03</pdfrwt>
<pdfrwt beam="2">  1       21 0.55215859E-01 0.23005616E+03</pdfrwt>
<totfact> 0.44809306E+04</totfact>
</mgrwt>
</event>
<event>
 4    1  0.4306168E+000  0.1741677E+03  0.7546771E-02  0.1173570E+00
         21   -1    0    0  501  502  0.00000000000E+00  0.00000000000E+00  0.43583037524E+02  0.43583037524E+02  0.00000000000E+00 0.  1.
         21   -1    0    0  502  503 -0.00000000000E+00 -0.00000000000E+00 -0.10271436675E+04  0.10271436675E+04  0.00000000000E+00 0.  1.
          6    1    1    2  501    0 -0.46440635349E+00  0.20129228950E+02 -0.18780933037E+03  0.25613813871E+03  0.17300000000E+03 0.  1.
         -6    1    1    2    0  503  0.46440635349E+00 -0.20129228950E+02 -0.79575129960E+03  0.81458856630E+03  0.17300000000E+03 0.  1.
<mgrwt>
<rscale>  2 0.17416774E+03</rscale>
<asrwt>0</asrwt>
<pdfrwt beam="1">  1       21 0.67050828E-02 0.17416774E+03</pdfrwt>
<pdfrwt beam="2">  1       21 0.15802210E+00 0.17416774E+03</pdfrwt>
<totfact> 0.42878356E+04</totfact>
</mgrwt>
</event>
<event>
 4    1  0.4306168E+000  0.2218730E+03  0.7546771E-02  0.1132494E+00
         21   -1    0    0  503  502  0.00000000000E+00  0.00000000000E+00  0.20660389461E+04  0.20660389461E+04  0.00000000000E+00 0. -1.
         21   -1    0    0  501  503 -0.00000000000E+00 -0.00000000000E+00 -0.25985230865E+02  0.25985230865E+02  0.00000000000E+00 0. -1.
          6    1    1    2  501    0 -0.39020226299E+02  0.13332688965E+03  0.71857625983E+03  0.75205018366E+03  0.17300000000E+03 0. -1.
         -6    1    1    2    0  502  0.39020226299E+02 -0.13332688965E+03  0.13214774554E+04  0.13399739933E+04  0.17300000000E+03 0. -1.
<mgrwt>
<rscale>  2 0.22187302E+03</rscale>
<asrwt>0</asrwt>
<pdfrwt beam="1">  1       21 0.31785202E+00 0.22187302E+03</pdfrwt>
<pdfrwt beam="2">  1       21 0.39977295E-02 0.22187302E+03</pdfrwt>
<totfact> 0.10243189E+04</totfact>
</mgrwt>
</event>
<event>
 4    1  0.4306168E+000  0.1783041E+03  0.7546771E-02  0.1169454E+00
         21   -1    0    0  503  502  0.00000000000E+00  0.00000000000E+00  0.94779945569E+02  0.94779945569E+02  0.00000000000E+00 0. -1.
         21   -1    0    0  501  503 -0.00000000000E+00 -0.00000000000E+00 -0.41940780739E+03  0.41940780739E+03  0.00000000000E+00 0. -1.
          6    1    1    2  501    0 -0.20958803053E+02  0.37737226215E+02 -0.27735334757E+03  0.32972298839E+03  0.17300000000E+03 0. -1.
         -6    1    1    2    0  502  0.20958803053E+02 -0.37737226215E+02 -0.47274514249E+02  0.18446476456E+03  0.17300000000E+03 0. -1.
<mgrwt>
<rscale>  2 0.17830415E+03</rscale>
<asrwt>0</asrwt>
<pdfrwt beam="1">  1       21 0.14581530E-01 0.17830415E+03</pdfrwt>
<pdfrwt beam="2">  1       21 0.64524279E-01 0.17830415E+03</pdfrwt>
<totfact> 0.91985308E+04</totfact>
</mgrwt>
</event>
<event>
 4    1  0.4306168E+000  0.1736126E+03  0.7546771E-02  0.1174132E+00
         21   -1    0    0  501  502  0.00000000000E+00  0.00000000000E+00  0.85572809554E+02  0.85572809554E+02  0.00000000000E+00 0. -1.
         21   -1    0    0  502  503 -0.00000000000E+00 -0.00000000000E+00 -0.39416673513E+03  0.39416673513E+03  0.00000000000E+00 0. -1.
          6    1    1    2  501    0  0.74880115810E+01 -0.12500669845E+02 -0.76056528671E+02  0.18954137442E+03  0.17300000000E+03 0.  1.
         -6    1    1    2    0  503 -0.74880115810E+01  0.12500669845E+02 -0.23253739690E+03  0.29019817026E+03  0.17300000000E+03 0.  1.
<mgrwt>
<rscale>  2 0.17361261E+03</rscale>
<asrwt>0</asrwt>
<pdfrwt beam="1">  1       21 0.13165047E-01 0.17361261E+03</pdfrwt>
<pdfrwt beam="2">  1       21 0.60641037E-01 0.17361261E+03</pdfrwt>
<totfact> 0.12670369E+05</totfact>
</mgrwt>
</event>
<event>
 4    1  0.4306168E+000  0.2311888E+03  0.7546771E-02  0.1125806E+00
         21   -1    0    0  501  502  0.00000000000E+00  0.00000000000E+00  0.12838588081E+03  0.12838588081E+03  0.00000000000E+00 0. -1.
         21   -1    0    0  502  503 -0.00000000000E+00 -0.00000000000E+00 -0.41967844789E+03  0.41967844789E+03  0.00000000000E+00 0.  1.
          6    1    1    2  501    0 -0.13872306471E+03  0.65384634964E+02 -0.12109344327E+03  0.26098249208E+03  0.17300000000E+03 0.  1.
         -6    1    1    2    0  503  0.13872306471E+03 -0.65384634964E+02 -0.17019912381E+03  0.28708183662E+03  0.17300000000E+03 0.  1.
<mgrwt>
<rscale>  2 0.23118875E+03</rscale>
<asrwt>0</asrwt>
<pdfrwt beam="1">  1       21 0.19751674E-01 0.23118875E+03</pdfrwt>
<pdfrwt beam="2">  1       21 0.64565914E-01 0.23118875E+03</pdfrwt>
<totfact> 0.51325423E+04</totfact>
</mgrwt>
</event>
<event>
 4    1  0.4306168E+000  0.1983464E+03  0.7546771E-02  0.1151142E+00
         21   -1    0    0  503  502  0.00000000000E+00  0.00000000000E+00  0.12695605266E+03  0.12695605266E+03  0.00000000000E+00 0.  1.
         21   -1    0    0  501  503 -0.00000000000E+00 -0.00000000000E+00 -0.69358490880E+03  0.69358490880E+03  0.00000000000E+00 0. -1.
          6    1    1    2  501    0  0.52098073724E+01 -0.96877049027E+02 -0.58846796158E+03  0.62099585065E+03  0.17300000000E+03 0. -1.
         -6    1    1    2    0  502 -0.52098073724E+01  0.96877049027E+02  0.21839105448E+02  0.19954511081E+03  0.17300000000E+03 0.  1.
<mgrwt>
<rscale>  2 0.19834643E+03</rscale>
<asrwt>0</asrwt>
<pdfrwt beam="1">  1       21 0.19531701E-01 0.19834643E+03</pdfrwt>
<pdfrwt beam="2">  1       21 0.10670537E+00 0.19834643E+03</pdfrwt>
<totfact> 0.16894823E+04</totfact>
</mgrwt>
</event>
<event>
 4    1  0.4306168E+000  0.2679442E+03  0.7546771E-02  0.1102462E+00
         21   -1    0    0  501  502  0.00000000000E+00  0.00000000000E+00  0.89147322160E+02  0.89147322160E+02  0.00000000000E+00 0. -1.
         21   -1    0    0  502  503 -0.00000000000E+00 -0.00000000000E+00 -0.91700062184E+03  0.91700062184E+03  0.00000000000E+00 0. -1.
          6    1    1    2  501    0  0.44985100462E+02 -0.19960314151E+03 -0.23837966719E+03  0.35863482694E+03  0.17300000000E+03 0. -1.
         -6    1    1    2    0  503 -0.44985100462E+02  0.19960314151E+03 -0.58947363249E+03  0.64751311706E+03  0.17300000000E+03 0. -1.
<mgrwt>
<rscale>  2 0.26794416E+03</rscale>
<asrwt>0</asrwt>
<pdfrwt beam="1">  1       21 0.13714974E-01 0.26794416E+03</pdfrwt>
<pdfrwt beam="2">  1       21 0.14107701E+00 0.26794416E+03</pdfrwt>
<totfact> 0.15469858E+04</totfact>
</mgrwt>
</event>
<event>
 4    1  0.4306168E+000  0.2398304E+03  0.7546771E-02  0.1119906E+00
         21   -1    0    0  501  502  0.00000000000E+00  0.00000000000E+00  0.57701413230E+02  0.57701413230E+02  0.00000000000E+00 0. -1.
         21   -1    0    0  502  503 -0.00000000000E+00 -0.00000000000E+00 -0.10300359978E+04  0.10300359978E+04  0.00000000000E+00 0. -1.
          6    1    1    2  501    0 -0.14335906490E+03  0.83891618918E+02 -0.38851961516E+03  0.45658089818E+03  0.17300000000E+03 0. -1.
         -6    1    1    2    0  503  0.14335906490E+03 -0.83891618918E+02 -0.58381496942E+03  0.63115651287E+03  0.17300000000E+03 0. -1.
<mgrwt>
<rscale>  2 0.23983041E+03</rscale>
<asrwt>0</asrwt>
<pdfrwt beam="1">  1       21 0.88771411E-02 0.23983041E+03</pdfrwt>
<pdfrwt beam="2">  1       21 0.15846707E+00 0.23983041E+03</pdfrwt>
<totfact> 0.25110708E+04</totfact>
</mgrwt>
</event>
<event>
 4    1  0.4306168E+000  0.2913251E+03  0.7546771E-02  0.1089659E+00
         21   -1    0    0  503  502  0.00000000000E+00  0.00000000000E+00  0.24877578937E+03  0.24877578937E+03  0.00000000000E+00 0.  1.
         21   -1    0    0  501  503 -0.00000000000E+00 -0.00000000000E+00 -0.35599177394E+03  0.35599177394E+03  0.00000000000E+00 0. -1.
          6    1    1    2  501    0 -0.15848405664E+03 -0.17269661637E+03 -0.11534627460E+03  0.31332902926E+03  0.17300000000E+03 0. -1.
         -6    1    1    2    0  502  0.15848405664E+03  0.17269661637E+03  0.81302900287E+01  0.29143853405E+03  0.17300000000E+03 0.  1.
<mgrwt>
<rscale>  2 0.29132511E+03</rscale>
<asrwt>0</asrwt>
<pdfrwt beam="1">  1       21 0.38273199E-01 0.29132511E+03</pdfrwt>
<pdfrwt beam="2">  1       21 0.54767965E-01 0.29132511E+03</pdfrwt>
<totfact> 0.19716133E+04</totfact>
</mgrwt>
</event>
<event>
 4    1  0.4306168E+000  0.2157128E+03  0.7546771E-02  0.1137120E+00
         21   -1    0    0  503  502  0.00000000000E+00  0.00000000000E+00  0.23012043627E+03  0.23012043627E+03  0.00000000000E+00 0. -1.
         21   -1    0    0  501  503 -0.00000000000E+00 -0.00000000000E+00 -0.54154140852E+03  0.54154140852E+03  0.00000000000E+00 0.  1.
          6    1    1    2  501    0  0.11225489250E+03  0.63260211823E+02 -0.46112874748E+03  0.50908912485E+03  0.17300000000E+03 0.  1.
         -6    1    1    2    0  502 -0.11225489250E+03 -0.63260211823E+02  0.14970777523E+03  0.26257271994E+03  0.17300000000E+03 0. -1.
<mgrwt>
<rscale>  2 0.21571281E+03</rscale>
<asrwt>0</asrwt>
<pdfrwt beam="1">  1       21 0.35403144E-01 0.21571281E+03</pdfrwt>
<pdfrwt beam="2">  1       21 0.83314063E-01 0.21571281E+03</pdfrwt>
<totfact> 0.94975983E+03</totfact>
</mgrwt>
</event>
<event>
 4    1  0.4306168E+000  0.1754718E+03  0.7546771E-02  0.1172259E+00
         21   -1    0    0  503  502  0.00000000000E+00  0.00000000000E+00  0.19753685381E+03  0.19753685381E+03  0.00000000000E+00 0.  1.
         21   -1    0    0  501  503 -0.00000000000E+00 -0.00000000000E+00 -0.17502698347E+03  0.17502698347E+03  0.00000000000E+00 0.  1.
          6    1    1    2  501    0 -0.26729378955E+02  0.12120462075E+02 -0.50371178504E+02  0.18255854109E+03  0.17300000000E+03 0. -1.
         -6    1    1    2    0  502  0.26729378955E+02 -0.12120462075E+02  0.72881048847E+02  0.19000529619E+03  0.17300000000E+03 0. -1.
<mgrwt>
<rscale>  2 0.17547184E+03</rscale>
<asrwt>0</asrwt>
<pdfrwt beam="1">  1       21 0.30390285E-01 0.17547184E+03</pdfrwt>
<pdfrwt beam="2">  1       21 0.26927228E-01 0.17547184E+03</pdfrwt>
<totfact> 0.13729736E+05</totfact>
</mgrwt>
</event>
<event>
 4    1  0.4306168E+000  0.1917581E+03  0.7546771E-02  0.1156885E+00
         21   -1    0    0  501  502  0.00000000000E+00  0.00000000000E+00  0.32284109789E+03  0.32284109789E+03  0.00000000000E+00 0. -1.
         21   -1    0    0  502  503 -0.00000000000E+00 -0.00000000000E+00 -0.18668159794E+03  0.18668159794E+03  0.00000000000E+00 0. -1.
          6    1    1    2  501    0  0.80196789514E+02  0.20264237068E+02  0.22715316771E+03  0.29727045927E+03  0.17300000000E+03 0. -1.
         -6    1    1    2    0  503 -0.80196789514E+02 -0.20264237068E+02 -0.90993667764E+02  0.21225223656E+03  0.17300000000E+03 0. -1.
<mgrwt>
<rscale>  2 0.19175809E+03</rscale>
<asrwt>0</asrwt>
<pdfrwt beam="1">  1       21 0.49667861E-01 0.19175809E+03</pdfrwt>
<pdfrwt beam="2">  1       21 0.28720246E-01 0.19175809E+03</pdfrwt>
<totfact> 0.44835962E+04</totfact>
</mgrwt>
</event>
<event>
 4    1  0.4306168E+000  0.1802702E+03  0.7546771E-02  0.1167542E+00
         21   -1    0    0  503  502  0.00000000000E+00  0.00000000000E+00  0.15531745695E+04  0.15531745695E+04  0.00000000000E+00 0. -1.
         21   -1    0    0  501  503 -0.00000000000E+00 -0.00000000000E+00 -0.44518573200E+02  0.44518573200E+02  0.00000000000E+00 0. -1.
          6    1    1    2  501    0 -0.25406226185E+02 -0.43850648566E+02  0.17275218154E+03  0.24968114053E+03  0.17300000000E+03 0. -1.
         -6    1    1    2    0  502  0.25406226185E+02  0.43850648566E+02  0.13359038147E+04  0.13480120022E+04  0.17300000000E+03 0. -1.
<mgrwt>
<rscale>  2 0.18027023E+03</rscale>
<asrwt>0</asrwt>
<pdfrwt beam="1">  1       21 0.23894989E+00 0.18027023E+03</pdfrwt>
<pdfrwt beam="2">  1       21 0.68490125E-02 0.18027023E+03</pdfrwt>
<totfact> 0.12280056E+04</totfact>
</mgrwt>
</event>
<event>
 4    1  0.4306168E+000  0.1888891E+03  0.7546771E-02  0.1159467E+00
         21   -1    0    0  501  502  0.00000000000E+00  0.00000000000E+00  0.10132278910E+04  0.10132278910E+04  0.00000000000E+00 0. -1.
         21   -1    0    0  502  503 -0.00000000000E+00 -0.00000000000E+00 -0.35281528675E+02  0.35281528675E+02  0.00000000000E+00 0.  1.
          6    1    1    2  501    0  0.43392263888E+02  0.62186959352E+02  0.46592033701E+03  0.50275328634E+03  0.17300000000E+03 0.  1.
         -6    1    1    2    0  503 -0.43392263888E+02 -0.62186959352E+02  0.51202602529E+03  0.54575613332E+03  0.17300000000E+03 0. -1.
<mgrwt>
<rscale>  2 0.18888914E+03</rscale>
<asrwt>0</asrwt>
<pdfrwt beam="1">  1       21 0.15588119E+00 0.18888914E+03</pdfrwt>
<pdfrwt beam="2">  1       21 0.54279282E-02 0.18888914E+03</pdfrwt>
<totfact> 0.63288234E+04</totfact>
</mgrwt>
</event>
<event>
 4    1  0.4306168E+000  0.2945446E+03  0.7546771E-02  0.1088000E+00
         21   -1    0    0  503  502  0.00000000000E+00  0.00000000000E+00  0.15407481120E+03  0.15407481120E+03  0.00000000000E+00 0.  1.
         21   -1    0    0  501  503 -0.00000000000E+00 -0.00000000000E+00 -0.65410173732E+03  0.65410173732E+03  0.00000000000E+00 0. -1.
          6    1    1    2  501    0  0.16079426620E+02 -0.23784227570E+03 -0.40075237002E+03  0.49735194596E+03  0.17300000000E+03 0. -1.
         -6    1    1    2    0  502 -0.16079426620E+02  0.23784227570E+03 -0.99274556099E+02  0.31082460256E+03  0.17300000000E+03 0.  1.
<mgrwt>
<rscale>  2 0.29454456E+03</rscale>
<asrwt>0</asrwt>
<pdfrwt beam="1">  1       21 0.23703817E-01 0.29454456E+03</pdfrwt>
<pdfrwt beam="2">  1       21 0.10063104E+00 0.29454456E+03</pdfrwt>
<totfact> 0.12807086E+04</totfact>
</mgrwt>
</event>
<event>
 4    1  0.4306168E+000  0.1915051E+03  0.7546771E-02  0.1157111E+00
         21   -1    0    0  501  502  0.00000000000E+00  0.00000000000E+00  0.14754604646E+03  0.14754604646E+03  0.00000000000E+00 0.  1.
         21   -1    0    0  502  503 -0.00000000000E+00 -0.00000000000E+00 -0.32728890987E+03  0.32728890987E+03  0.00000000000E+00 0.  1.
          6    1    1    2  501    0 -0.32966590196E+02 -0.75222477582E+02  0.26570914776E+02  0.19333967703E+03  0.17300000000E+03 0.  1.
         -6    1    1    2    0  503  0.32966590196E+02  0.75222477582E+02 -0.20631377818E+03  0.28149527930E+03  0.17300000000E+03 0.  1.
<mgrwt>
<rscale>  2 0.19150514E+03</rscale>
<asrwt>0</asrwt>
<pdfrwt beam="1">  1       21 0.22699392E-01 0.19150514E+03</pdfrwt>
<pdfrwt beam="2">  1       21 0.50352140E-01 0.19150514E+03</pdfrwt>
<totfact> 0.68362467E+04</totfact>
</mgrwt>
</event>
<event>
 4    1  0.4306168E+000  0.1817742E+03  0.7546771E-02  0.1166097E+00
         21   -1    0    0  503  502  0.00000000000E+00  0.00000000000E+00  0.48454644181E+03  0.48454644181E+03  0.00000000000E+00 0. -1.
         21   -1    0    0  501  503 -0.00000000000E+00 -0.00000000000E+00 -0.28916645754E+03  0.28916645754E+03  0.00000000000E+00 0. -1.
          6    1    1    2  501    0 -0.54689164305E+02  0.11042506110E+02 -0.24048978310E+03  0.30145841738E+03  0.17300000000E+03 0. -1.
         -6    1    1    2    0  502  0.54689164305E+02 -0.11042506110E+02  0.43586976737E+03  0.47225448197E+03  0.17300000000E+03 0. -1.
<mgrwt>
<rscale>  2 0.18177415E+03</rscale>
<asrwt>0</asrwt>
<pdfrwt beam="1">  1       21 0.74545606E-01 0.18177415E+03</pdfrwt>
<pdfrwt beam="2">  1       21 0.44487147E-01 0.18177415E+03</pdfrwt>
<totfact> 0.78808275E+03</totfact>
</mgrwt>
</event>
<event>
 4    1  0.4306168E+000  0.2085149E+03  0.7546771E-02  0.1142747E+00
         21   -1    0    0  503  502  0.00000000000E+00  0.00000000000E+00  0.18545893927E+04  0.18545893927E+04  0.00000000000E+00 0. -1.
         21   -1    0    0  501  503 -0.00000000000E+00 -0.00000000000E+00 -0.26201513898E+02  0.26201513898E+02  0.00000000000E+00 0. -1.
          6    1    1    2  501    0 -0.63810970608E+02  0.97352999199E+02  0.12192849564E+04  0.12369859544E+04  0.17300000000E+03 0. -1.
         -6    1    1    2    0  502  0.63810970608E+02 -0.97352999199E+02  0.60910292236E+03  0.64380495218E+03  0.17300000000E+03 0. -1.
<mgrwt>
<rscale>  2 0.20851486E+03</rscale>
<asrwt>0</asrwt>
<pdfrwt beam="1">  1       21 0.28532134E+00 0.20851486E+03</pdfrwt>
<pdfrwt beam="2">  1       21 0.40310036E-02 0.20851486E+03</pdfrwt>
<totfact> 0.15797696E+04</totfact>
</mgrwt>
</event>
<event>
 4    1  0.4306168E+000  0.2170098E+03  0.7546771E-02  0.1136132E+00
         21   -1    0    0  503  502  0.00000000000E+00  0.00000000000E+00  0.59763835511E+02  0.59763835511E+02  0.00000000000E+00 0. -1.
         21   -1    0    0  501  503 -0.00000000000E+00 -0.00000000000E+00 -0.11931091722E+04  0.11931091722E+04  0.00000000000E+00 0. -1.
          6    1    1    2  501    0  0.55854234961E+02 -0.11850969123E+03 -0.93170297363E+03  0.95664187319E+03  0.17300000000E+03 0. -1.
         -6    1    1    2    0  502 -0.55854234961E+02  0.11850969123E+03 -0.20164236306E+03  0.29623113452E+03  0.17300000000E+03 0. -1.
<mgrwt>
<rscale>  2 0.21700978E+03</rscale>
<asrwt>0</asrwt>
<pdfrwt beam="1">  1       21 0.91944370E-02 0.21700978E+03</pdfrwt>
<pdfrwt beam="2">  1       21 0.18355524E+00 0.21700978E+03</pdfrwt>
<totfact> 0.15910691E+04</totfact>
</mgrwt>
</event>
<event>
 4    1  0.4306168E+000  0.2152632E+03  0.7546771E-02  0.1137465E+00
         21   -1    0    0  501  502  0.00000000000E+00  0.00000000000E+00  0.79082757100E+02  0.79082757100E+02  0.00000000000E+00 0. -1.
         21   -1    0    0  502  503 -0.00000000000E+00 -0.00000000000E+00 -0.70468672443E+03  0.70468672443E+03  0.00000000000E+00 0.  1.
          6    1    1    2  501    0  0.11312443331E+03  0.60100813563E+02 -0.15193767658E+03  0.26348302178E+03  0.17300000000E+03 0. -1.
         -6    1    1    2    0  503 -0.11312443331E+03 -0.60100813563E+02 -0.47366629075E+03  0.52028645975E+03  0.17300000000E+03 0.  1.
<mgrwt>
<rscale>  2 0.21526320E+03</rscale>
<asrwt>0</asrwt>
<pdfrwt beam="1">  1       21 0.12166578E-01 0.21526320E+03</pdfrwt>
<pdfrwt beam="2">  1       21 0.10841334E+00 0.21526320E+03</pdfrwt>
<totfact> 0.38257390E+04</totfact>
</mgrwt>
</event>
<event>
 4    1  0.4306168E+000  0.2576011E+03  0.7546771E-02  0.1108593E+00
         21   -1    0    0  503  502  0.00000000000E+00  0.00000000000E+00  0.37486638997E+02  0.37486638997E+02  0.00000000000E+00 0. -1.
         21   -1    0    0  501  503 -0.00000000000E+00 -0.00000000000E+00 -0.19304392617E+04  0.19304392617E+04  0.00000000000E+00 0. -1.
          6    1    1    2  501    0 -0.21068664764E+01  0.19085299368E+03 -0.66297516634E+03  0.71126252204E+03  0.17300000000E+03 0. -1.
         -6    1    1    2    0  502  0.21068664764E+01 -0.19085299368E+03 -0.12299774564E+04  0.12566633787E+04  0.17300000000E+03 0. -1.
<mgrwt>
<rscale>  2 0.25760106E+03</rscale>
<asrwt>0</asrwt>
<pdfrwt beam="1">  1       21 0.57671723E-02 0.25760106E+03</pdfrwt>
<pdfrwt beam="2">  1       21 0.29699081E+00 0.25760106E+03</pdfrwt>
<totfact> 0.70396862E+03</totfact>
</mgrwt>
</event>
<event>
 4    1  0.4306168E+000  0.2135807E+03  0.7546771E-02  0.1138761E+00
         21   -1    0    0  501  502  0.00000000000E+00  0.00000000000E+00  0.17553954074E+03  0.17553954074E+03  0.00000000000E+00 0. -1.
         21   -1    0    0  502  503 -0.00000000000E+00 -0.00000000000E+00 -0.42454814651E+03  0.42454814651E+03  0.00000000000E+00 0. -1.
          6    1    1    2  501    0 -0.10679925282E+03  0.65434045862E+02  0.62368019285E+02  0.22250048223E+03  0.17300000000E+03 0. -1.
         -6    1    1    2    0  503  0.10679925282E+03 -0.65434045862E+02 -0.31137662506E+03  0.37758720502E+03  0.17300000000E+03 0. -1.
<mgrwt>
<rscale>  2 0.21358065E+03</rscale>
<asrwt>0</asrwt>
<pdfrwt beam="1">  1       21 0.27006084E-01 0.21358065E+03</pdfrwt>
<pdfrwt beam="2">  1       21 0.65315098E-01 0.21358065E+03</pdfrwt>
<totfact> 0.27849285E+04</totfact>
</mgrwt>
</event>
<event>
 4    1  0.4306168E+000  0.2420611E+03  0.7546771E-02  0.1118427E+00
         21   -1    0    0  501  502  0.00000000000E+00  0.00000000000E+00  0.62070303386E+03  0.62070303386E+03  0.00000000000E+00 0. -1.
         21   -1    0    0  502  503 -0.00000000000E+00 -0.00000000000E+00 -0.13677539722E+03  0.13677539722E+03  0.00000000000E+00 0. -1.
          6    1    1    2  501    0  0.14929812788E+03  0.79841443586E+02  0.31149741161E+02  0.24405715207E+03  0.17300000000E+03 0. -1.
         -6    1    1    2    0  503 -0.14929812788E+03 -0.79841443586E+02  0.45277789548E+03  0.51342127901E+03  0.17300000000E+03 0. -1.
<mgrwt>
<rscale>  2 0.24206112E+03</rscale>
<asrwt>0</asrwt>
<pdfrwt beam="1">  1       21 0.95492773E-01 0.24206112E+03</pdfrwt>
<pdfrwt beam="2">  1       21 0.21042369E-01 0.24206112E+03</pdfrwt>
<totfact> 0.18667210E+04</totfact>
</mgrwt>
</event>
<event>
 4    1  0.4306168E+000  0.2429141E+03  0.7546771E-02  0.1117867E+00
         21   -1    0    0  503  502  0.00000000000E+00  0.00000000000E+00  0.20545893901E+03  0.20545893901E+03  0.00000000000E+00 0.  1.
         21   -1    0    0  501  503 -0.00000000000E+00 -0.00000000000E+00 -0.37968160319E+03  0.37968160319E+03  0.00000000000E+00 0. -1.
          6    1    1    2  501    0 -0.16158857373E+03 -0.54473672297E+02 -0.23150710562E+03  0.33556338907E+03  0.17300000000E+03 0. -1.
         -6    1    1    2    0  502  0.16158857373E+03  0.54473672297E+02  0.57284441430E+02  0.24957715313E+03  0.17300000000E+03 0.  1.
<mgrwt>
<rscale>  2 0.24291408E+03</rscale>
<asrwt>0</asrwt>
<pdfrwt beam="1">  1       21 0.31609068E-01 0.24291408E+03</pdfrwt>
<pdfrwt beam="2">  1       21 0.58412554E-01 0.24291408E+03</pdfrwt>
<totfact> 0.25715809E+04</totfact>
</mgrwt>
</event>
<event>
 4    1  0.4306168E+000  0.1793888E+03  0.7546771E-02  0.1168396E+00
         21   -1    0    0  503  502  0.00000000000E+00  0.00000000000E+00  0.31924627924E+03  0.31924627924E+03  0.00000000000E+00 0.  1.
         21   -1    0    0  501  503 -0.00000000000E+00 -0.00000000000E+00 -0.30918940652E+03  0.30918940652E+03  0.00000000000E+00 0.  1.
          6    1    1    2  501    0 -0.43198796172E+01  0.47251075706E+02 -0.25293335127E+03  0.31008967364E+03  0.17300000000E+03 0.  1.
         -6    1    1    2    0  502  0.43198796172E+01 -0.47251075706E+02  0.26299022399E+03  0.31834601212E+03  0.17300000000E+03 0.  1.
<mgrwt>
<rscale>  2 0.17938876E+03</rscale>
<asrwt>0</asrwt>
<pdfrwt beam="1">  1       21 0.49114813E-01 0.17938876E+03</pdfrwt>
<pdfrwt beam="2">  1       21 0.47567601E-01 0.17938876E+03</pdfrwt>
<totfact> 0.16852824E+04</totfact>
</mgrwt>
</event>
<event>
 4    1  0.4306168E+000  0.2906580E+03  0.7546771E-02  0.1090006E+00
         21   -1    0    0  503  502  0.00000000000E+00  0.00000000000E+00  0.68904449875E+03  0.68904449875E+03  0.00000000000E+00 0.  1.
         21   -1    0    0  501  503 -0.00000000000E+00 -0.00000000000E+00 -0.20187826459E+03  0.20187826459E+03  0.00000000000E+00 0. -1.
          6    1    1    2  501    0 -0.23229809241E+03  0.24303760906E+02 -0.35556572139E+02  0.29282477073E+03  0.17300000000E+03 0. -1.
         -6    1    1    2    0  502  0.23229809241E+03 -0.24303760906E+02  0.52272280631E+03  0.59809799261E+03  0.17300000000E+03 0.  1.
<mgrwt>
<rscale>  2 0.29065801E+03</rscale>
<asrwt>0</asrwt>
<pdfrwt beam="1">  1       21 0.10600685E+00 0.29065801E+03</pdfrwt>
<pdfrwt beam="2">  1       21 0.31058195E-01 0.29065801E+03</pdfrwt>
<totfact> 0.66851171E+03</totfact>
</mgrwt>
</event>
<event>
 4    1  0.4306168E+000  0.2386549E+03  0.7546771E-02  0.1120692E+00
         21   -1    0    0  503  502  0.00000000000E+00  0.00000000000E+00  0.17099556689E+03  0.17099556689E+03  0.00000000000E+00 0. -1.
         21   -1    0    0  501  503 -0.00000000000E+00 -0.00000000000E+00 -0.35414902779E+03  0.35414902779E+03  0.00000000000E+00 0.  1.
          6    1    1    2  501    0  0.13519444382E+03 -0.93539341938E+02 -0.15561230305E+03  0.28490583530E+03  0.17300000000E+03 0.  1.
         -6    1    1    2    0  502 -0.13519444382E+03  0.93539341938E+02 -0.27541157847E+02  0.24023875937E+03  0.17300000000E+03 0. -1.
<mgrwt>
<rscale>  2 0.23865487E+03</rscale>
<asrwt>0</asrwt>
<pdfrwt beam="1">  1       21 0.26307011E-01 0.23865487E+03</pdfrwt>
<pdfrwt beam="2">  1       21 0.54484465E-01 0.23865487E+03</pdfrwt>
<totfact> 0.42772912E+04</totfact>
</mgrwt>
</event>
<event>
 4    1  0.4306168E+000  0.2164708E+03  0.7546771E-02  0.1136542E+00
         21   -1    0    0  501  502  0.00000000000E+00  0.00000000000E+00  0.16885657286E+04  0.16885657286E+04  0.00000000000E+00 0.  1.
         21   -1    0    0  502  503 -0.00000000000E+00 -0.00000000000E+00 -0.31740000468E+02  0.31740000468E+02  0.00000000000E+00 0. -1.
          6    1    1    2  501    0  0.12965187234E+03  0.10999309508E+02  0.11333410719E+04  0.11538290939E+04  0.17300000000E+03 0.  1.
         -6    1    1    2    0  503 -0.12965187234E+03 -0.10999309508E+02  0.52348465621E+03  0.56647663509E+03  0.17300000000E+03 0. -1.
<mgrwt>
<rscale>  2 0.21647077E+03</rscale>
<asrwt>0</asrwt>
<pdfrwt beam="1">  1       21 0.25977927E+00 0.21647077E+03</pdfrwt>
<pdfrwt beam="2">  1       21 0.48830783E-02 0.21647077E+03</pdfrwt>
<totfact> 0.15976870E+04</totfact>
</mgrwt>
</event>
<event>
 4    1  0.4306168E+000  0.2002564E+03  0.7546771E-02  0.1149523E+00
         21   -1    0    0  501  502  0.00000000000E+00  0.00000000000E+00  0.41165686008E+02  0.41165686008E+02  0.00000000000E+00 0. -1.
         21   -1    0    0  502  503 -0.00000000000E+00 -0.00000000000E+00 -0.97792814584E+03  0.97792814584E+03  0.00000000000E+00 0.  1.
          6    1    1    2  501    0 -0.69058080230E+02  0.73515950448E+02 -0.49994468240E+03  0.53856039482E+03  0.17300000000E+03 0.  1.
         -6    1    1    2    0  503  0.69058080230E+02 -0.73515950448E+02 -0.43681777744E+03  0.48053343703E+03  0.17300000000E+03 0. -1.
<mgrwt>
<rscale>  2 0.20025637E+03</rscale>
<asrwt>0</asrwt>
<pdfrwt beam="1">  1       21 0.63331826E-02 0.20025637E+03</pdfrwt>
<pdfrwt beam="2">  1       21 0.15045048E+00 0.20025637E+03</pdfrwt>
<totfact> 0.53070865E+04</totfact>
</mgrwt>
</event>
<event>
 4    1  0.4306168E+000  0.1809975E+03  0.7546771E-02  0.1166841E+00
         21   -1    0    0  501  502  0.00000000000E+00  0.00000000000E+00  0.30892807349E+03  0.30892807349E+03  0.00000000000E+00 0. -1.
         21   -1    0    0  502  503 -0.00000000000E+00 -0.00000000000E+00 -0.12490051324E+03  0.12490051324E+03  0.00000000000E+00 0. -1.
          6    1    1    2  501    0 -0.49491736524E+02  0.19536088360E+02  0.17629526964E+03  0.25266601044E+03  0.17300000000E+03 0. -1.
         -6    1    1    2    0  503  0.49491736524E+02 -0.19536088360E+02  0.77322906061E+01  0.18116257630E+03  0.17300000000E+03 0. -1.
<mgrwt>
<rscale>  2 0.18099749E+03</rscale>
<asrwt>0</asrwt>
<pdfrwt beam="1">  1       21 0.47527396E-01 0.18099749E+03</pdfrwt>
<pdfrwt beam="2">  1       21 0.19215464E-01 0.18099749E+03</pdfrwt>
<totfact> 0.10575447E+05</totfact>
</mgrwt>
</event>
<event>
 4    1  0.4306168E+000  0.2149238E+03  0.7546771E-02  0.1137725E+00
         21   -1    0    0  503  502  0.00000000000E+00  0.00000000000E+00  0.53987957016E+02  0.53987957016E+02  0.00000000000E+00 0.  1.
         21   -1    0    0  501  503 -0.00000000000E+00 -0.00000000000E+00 -0.13419501883E+04  0.13419501883E+04  0.00000000000E+00 0.  1.
          6    1    1    2  501    0  0.10096378029E+03  0.77907217635E+02 -0.10641670444E+04  0.10856535902E+04  0.17300000000E+03 0.  1.
         -6    1    1    2    0  502 -0.10096378029E+03 -0.77907217635E+02 -0.22379518693E+03  0.31028455518E+03  0.17300000000E+03 0.  1.
<mgrwt>
<rscale>  2 0.21492375E+03</rscale>
<asrwt>0</asrwt>
<pdfrwt beam="1">  1       21 0.83058392E-02 0.21492375E+03</pdfrwt>
<pdfrwt beam="2">  1       21 0.20645388E+00 0.21492375E+03</pdfrwt>
<totfact> 0.13489384E+04</totfact>
</mgrwt>
</event>
<event>
 4    1  0.4306168E+000  0.2503488E+03  0.7546771E-02  0.1113085E+00
         21   -1    0    0  501  502  0.00000000000E+00  0.00000000000E+00  0.72541115154E+03  0.72541115154E+03  0.00000000000E+00 0. -1.
         21   -1    0    0  502  503 -0.00000000000E+00 -0.00000000000E+00 -0.87039075099E+02  0.87039075099E+02  0.00000000000E+00 0.  1.
          6    1    1    2  501    0  0.18089739048E+03  0.46546314669E+01  0.35403178272E+03  0.43360469861E+03  0.17300000000E+03 0.  1.
         -6    1    1    2    0  503 -0.18089739048E+03 -0.46546314669E+01  0.28434029372E+03  0.37884552804E+03  0.17300000000E+03 0.  1.
<mgrwt>
<rscale>  2 0.25034882E+03</rscale>
<asrwt>0</asrwt>
<pdfrwt beam="1">  1       21 0.11160171E+00 0.25034882E+03</pdfrwt>
<pdfrwt beam="2">  1       21 0.13390627E-01 0.25034882E+03</pdfrwt>
<totfact> 0.29471940E+04</totfact>
</mgrwt>
</event>
<event>
 4    1  0.4306168E+000  0.1745215E+03  0.7546771E-02  0.1173213E+00
         21   -1    0    0  503  502  0.00000000000E+00  0.00000000000E+00  0.18100112596E+04  0.18100112596E+04  0.00000000000E+00 0.  1.
         21   -1    0    0  501  503 -0.00000000000E+00 -0.00000000000E+00 -0.12210566224E+03  0.12210566224E+03  0.00000000000E+00 0.  1.
          6    1    1    2  501    0  0.79377398321E+01 -0.21581170438E+02 -0.53072917155E+02  0.18241296326E+03  0.17300000000E+03 0.  1.
         -6    1    1    2    0  502 -0.79377398321E+01  0.21581170438E+02  0.17409785145E+04  0.17497039586E+04  0.17300000000E+03 0.  1.
<mgrwt>
<rscale>  2 0.17452150E+03</rscale>
<asrwt>0</asrwt>
<pdfrwt beam="1">  1       21 0.27846325E+00 0.17452150E+03</pdfrwt>
<pdfrwt beam="2">  1       21 0.18785488E-01 0.17452150E+03</pdfrwt>
<totfact> 0.12071928E+03</totfact>
</mgrwt>
</event>
<event>
 4    1  0.4306168E+000  0.1740290E+03  0.7546771E-02  0.1173710E+00
         21   -1    0    0  501  502  0.00000000000E+00  0.00000000000E+00  0.97471668391E+02  0.97471668391E+02  0.00000000000E+00 0. -1.
         21   -1    0    0  502  503 -0.00000000000E+00 -0.00000000000E+00 -0.31074020569E+03  0.31074020569E+03  0.00000000000E+00 0. -1.
          6    1    1    2  501    0 -0.17722996807E+02 -0.65554303707E+01 -0.10486030023E+03  0.20317913487E+03  0.17300000000E+03 0.  1.
         -6    1    1    2    0  503  0.17722996807E+02  0.65554303707E+01 -0.10840823707E+03  0.20503273921E+03  0.17300000000E+03 0.  1.
<mgrwt>
<rscale>  2 0.17402896E+03</rscale>
<asrwt>0</asrwt>
<pdfrwt beam="1">  1       21 0.14995642E-01 0.17402896E+03</pdfrwt>
<pdfrwt beam="2">  1       21 0.47806185E-01 0.17402896E+03</pdfrwt>
<totfact> 0.16514038E+05</totfact>
</mgrwt>
</event>
<event>
 4    1  0.4306168E+000  0.2191210E+03  0.7546771E-02  0.1134540E+00
         21   -1    0    0  501  502  0.00000000000E+00  0.00000000000E+00  0.12460799664E+03  0.12460799664E+03  0.00000000000E+00 0. -1.
         21   -1    0    0  502  503 -0.00000000000E+00 -0.00000000000E+00 -0.39488150394E+03  0.39488150394E+03  0.00000000000E+00 0.  1.
          6    1    1    2  501    0  0.11505459702E+02  0.13398751565E+03 -0.94719899313E+02  0.23871717425E+03  0.17300000000E+03 0. -1.
         -6    1    1    2    0  503 -0.11505459702E+02 -0.13398751565E+03 -0.17555360799E+03  0.28077232633E+03  0.17300000000E+03 0.  1.
<mgrwt>
<rscale>  2 0.21912104E+03</rscale>
<asrwt>0</asrwt>
<pdfrwt beam="1">  1       21 0.19170461E-01 0.21912104E+03</pdfrwt>
<pdfrwt beam="2">  1       21 0.60751000E-01 0.21912104E+03</pdfrwt>
<totfact> 0.62269509E+04</totfact>
</mgrwt>
</event>
<event>
 4    1  0.4306168E+000  0.2754867E+03  0.7546771E-02  0.1098180E+00
         21   -1    0    0  503  502  0.00000000000E+00  0.00000000000E+00  0.29192449904E+02  0.29192449904E+02  0.00000000000E+00 0.  1.
         21   -1    0    0  501  503 -0.00000000000E+00 -0.00000000000E+00 -0.27510804830E+04  0.27510804830E+04  0.00000000000E+00 0.  1.
          6    1    1    2  501    0 -0.33841140038E+02  0.21170425224E+03 -0.10348995860E+04  0.10709388714E+04  0.17300000000E+03 0.  1.
         -6    1    1    2    0  502  0.33841140038E+02 -0.21170425224E+03 -0.16869884471E+04  0.17093340615E+04  0.17300000000E+03 0.  1.
<mgrwt>
<rscale>  2 0.27548668E+03</rscale>
<asrwt>0</asrwt>
<pdfrwt beam="1">  1       21 0.44911454E-02 0.27548668E+03</pdfrwt>
<pdfrwt beam="2">  1       21 0.42324322E+00 0.27548668E+03</pdfrwt>
<totfact> 0.18082317E+03</totfact>
</mgrwt>
</event>
<event>
 4    1  0.4306168E+000  0.1879306E+03  0.7546771E-02  0.1160341E+00
         21   -1    0    0  503  502  0.00000000000E+00  0.00000000000E+00  0.28660406454E+03  0.28660406454E+03  0.00000000000E+00 0. -1.
         21   -1    0    0  501  503 -0.00000000000E+00 -0.00000000000E+00 -0.18905296310E+03  0.18905296310E+03  0.00000000000E+00 0. -1.
          6    1    1    2  501    0 -0.44541501516E+02 -0.58352053615E+02 -0.91558957103E+02  0.20904772217E+03  0.17300000000E+03 0. -1.
         -6    1    1    2    0  502  0.44541501516E+02  0.58352053615E+02  0.18911005855E+03  0.26660930547E+03  0.17300000000E+03 0. -1.
<mgrwt>
<rscale>  2 0.18793059E+03</rscale>
<asrwt>0</asrwt>
<pdfrwt beam="1">  1       21 0.44092933E-01 0.18793059E+03</pdfrwt>
<pdfrwt beam="2">  1       21 0.29085071E-01 0.18793059E+03</pdfrwt>
<totfact> 0.56039345E+04</totfact>
</mgrwt>
</event>
<event>
 4    1  0.4306168E+000  0.1831780E+03  0.7546771E-02  0.1164762E+00
         21   -1    0    0  501  502  0.00000000000E+00  0.00000000000E+00  0.99768371140E+03  0.99768371140E+03  0.00000000000E+00 0. -1.
         21   -1    0    0  502  503 -0.00000000000E+00 -0.00000000000E+00 -0.51866651476E+02  0.51866651476E+02  0.00000000000E+00 0. -1.
          6    1    1    2  501    0 -0.51897784941E+02 -0.30525509941E+02  0.78406358583E+03  0.80517693302E+03  0.17300000000E+03 0. -1.
         -6    1    1    2    0  503  0.51897784941E+02  0.30525509941E+02  0.16175347409E+03  0.24437342985E+03  0.17300000000E+03 0. -1.
<mgrwt>
<rscale>  2 0.18317802E+03</rscale>
<asrwt>0</asrwt>
<pdfrwt beam="1">  1       21 0.15348979E+00 0.18317802E+03</pdfrwt>
<pdfrwt beam="2">  1       21 0.79794856E-02 0.18317802E+03</pdfrwt>
<totfact> 0.34103833E+04</totfact>
</mgrwt>
</event>
<event>
 4    1  0.4306168E+000  0.1793691E+03  0.7546771E-02  0.1168415E+00
         21   -1    0    0  503  502  0.00000000000E+00  0.00000000000E+00  0.28834131185E+03  0.28834131185E+03  0.00000000000E+00 0. -1.
         21   -1    0    0  501  503 -0.00000000000E+00 -0.00000000000E+00 -0.11417885604E+03  0.11417885604E+03  0.00000000000E+00 0.  1.
          6    1    1    2  501    0 -0.12905526012E+02  0.45581893403E+02  0.56720238893E+02  0.18812348899E+03  0.17300000000E+03 0.  1.
         -6    1    1    2    0  502  0.12905526012E+02 -0.45581893403E+02  0.11744221692E+03  0.21439667890E+03  0.17300000000E+03 0. -1.
<mgrwt>
<rscale>  2 0.17936907E+03</rscale>
<asrwt>0</asrwt>
<pdfrwt beam="1">  1       21 0.44360202E-01 0.17936907E+03</pdfrwt>
<pdfrwt beam="2">  1       21 0.17565978E-01 0.17936907E+03</pdfrwt>
<totfact> 0.14395318E+05</totfact>
</mgrwt>
</event>
<event>
 4    1  0.4306168E+000  0.2193101E+03  0.7546771E-02  0.1134398E+00
         21   -1    0    0  501  502  0.00000000000E+00  0.00000000000E+00  0.85402201019E+02  0.85402201019E+02  0.00000000000E+00 0. -1.
         21   -1    0    0  502  503 -0.00000000000E+00 -0.00000000000E+00 -0.60825502440E+03  0.60825502440E+03  0.00000000000E+00 0. -1.
          6    1    1    2  501    0 -0.82456616651E+02  0.10662461619E+03 -0.16701273132E+03  0.27566311837E+03  0.17300000000E+03 0. -1.
         -6    1    1    2    0  503  0.82456616651E+02 -0.10662461619E+03 -0.35584009206E+03  0.41799410705E+03  0.17300000000E+03 0. -1.
<mgrwt>
<rscale>  2 0.21931006E+03</rscale>
<asrwt>0</asrwt>
<pdfrwt beam="1">  1       21 0.13138800E-01 0.21931006E+03</pdfrwt>
<pdfrwt beam="2">  1       21 0.93577697E-01 0.21931006E+03</pdfrwt>
<totfact> 0.47217942E+04</totfact>
</mgrwt>
</event>
<event>
 4    1  0.4306168E+000  0.2722226E+03  0.7546771E-02  0.1100014E+00
         21   -1    0    0  503  502  0.00000000000E+00  0.00000000000E+00  0.11241734801E+04  0.11241734801E+04  0.00000000000E+00 0.  1.
         21   -1    0    0  501  503 -0.00000000000E+00 -0.00000000000E+00 -0.84433721679E+02  0.84433721679E+02  0.00000000000E+00 0. -1.
          6    1    1    2  501    0  0.19961951441E+03 -0.65789097631E+02  0.23689503066E+03  0.36086619605E+03  0.17300000000E+03 0. -1.
         -6    1    1    2    0  502 -0.19961951441E+03  0.65789097631E+02  0.80284472776E+03  0.84774100573E+03  0.17300000000E+03 0.  1.
<mgrwt>
<rscale>  2 0.27222262E+03</rscale>
<asrwt>0</asrwt>
<pdfrwt beam="1">  1       21 0.17294976E+00 0.27222262E+03</pdfrwt>
<pdfrwt beam="2">  1       21 0.12989804E-01 0.27222262E+03</pdfrwt>
<totfact> 0.98097103E+03</totfact>
</mgrwt>
</event>
<event>
 4    1  0.4306168E+000  0.2162007E+03  0.7546771E-02  0.1136748E+00
         21   -1    0    0  503  502  0.00000000000E+00  0.00000000000E+00  0.10300190899E+03  0.10300190899E+03  0.00000000000E+00 0.  1.
         21   -1    0    0  501  503 -0.00000000000E+00 -0.00000000000E+00 -0.45681273637E+03  0.45681273637E+03  0.00000000000E+00 0.  1.
          6    1    1    2  501    0  0.18354488166E+02 -0.12836226309E+03 -0.19961878003E+03  0.29426249364E+03  0.17300000000E+03 0.  1.
         -6    1    1    2    0  502 -0.18354488166E+02  0.12836226309E+03 -0.15419204734E+03  0.26555215172E+03  0.17300000000E+03 0.  1.
<mgrwt>
<rscale>  2 0.21620074E+03</rscale>
<asrwt>0</asrwt>
<pdfrwt beam="1">  1       21 0.15846447E-01 0.21620074E+03</pdfrwt>
<pdfrwt beam="2">  1       21 0.70278884E-01 0.21620074E+03</pdfrwt>
<totfact> 0.64488489E+04</totfact>
</mgrwt>
</event>
<event>
 4    1  0.4306168E+000  0.1995845E+03  0.7546771E-02  0.1150090E+00
         21   -1    0    0  503  502  0.00000000000E+00  0.00000000000E+00  0.66594593308E+03  0.66594593308E+03  0.00000000000E+00 0. -1.
         21   -1    0    0  501  503 -0.00000000000E+00 -0.00000000000E+00 -0.10406386865E+03  0.10406386865E+03  0.00000000000E+00 0.  1.
          6    1    1    2  501    0 -0.96977370810E+02  0.22368694087E+02  0.29888667246E+02  0.20181006257E+03  0.17300000000E+03 0.  1.
         -6    1    1    2    0  502  0.96977370810E+02 -0.22368694087E+02  0.53199339719E+03  0.56819973916E+03  0.17300000000E+03 0. -1.
<mgrwt>
<rscale>  2 0.19958449E+03</rscale>
<asrwt>0</asrwt>
<pdfrwt beam="1">  1       21 0.10245322E+00 0.19958449E+03</pdfrwt>
<pdfrwt beam="2">  1       21 0.16009826E-01 0.19958449E+03</pdfrwt>
<totfact> 0.26878149E+04</totfact>
</mgrwt>
</event>
<event>
 4    1  0.4306168E+000  0.1844586E+03  0.7546771E-02  0.1163556E+00
         21   -1    0    0  501  502  0.00000000000E+00  0.00000000000E+00  0.17017134973E+03  0.17017134973E+03  0.00000000000E+00 0.  1.
         21   -1    0    0  502  503 -0.00000000000E+00 -0.00000000000E+00 -0.20873746799E+03  0.20873746799E+03  0.00000000000E+00 0.  1.
          6    1    1    2  501    0 -0.67829653741E+01 -0.63639453622E+02  0.19598938174E+02  0.18549691926E+03  0.17300000000E+03 0.  1.
         -6    1    1    2    0  503  0.67829653741E+01  0.63639453622E+02 -0.58165056434E+02  0.19341189846E+03  0.17300000000E+03 0.  1.
<mgrwt>
<rscale>  2 0.18445864E+03</rscale>
<asrwt>0</asrwt>
<pdfrwt beam="1">  1       21 0.26180208E-01 0.18445864E+03</pdfrwt>
<pdfrwt beam="2">  1       21 0.32113457E-01 0.18445864E+03</pdfrwt>
<totfact> 0.12970000E+05</totfact>
</mgrwt>
</event>
<event>
 4    1  0.4306168E+000  0.1984184E+03  0.7546771E-02  0.1151080E+00
         21   -1    0    0  503  502  0.00000000000E+00  0.00000000000E+00  0.14967634527E+04  0.14967634527E+04  0.00000000000E+00 0.  1.
         21   -1    0    0  501  503 -0.00000000000E+00 -0.00000000000E+00 -0.89527285804E+02  0.89527285804E+02  0.00000000000E+00 0.  1.
          6    1    1    2  501    0 -0.84582102262E+02 -0.47819954077E+02  0.37093952164E+02  0.20185599153E+03  0.17300000000E+03 0.  1.
         -6    1    1    2    0  502  0.84582102262E+02  0.47819954077E+02  0.13701422148E+04  0.13844347470E+04  0.17300000000E+03 0.  1.
<mgrwt>
<rscale>  2 0.19841845E+03</rscale>
<asrwt>0</asrwt>
<pdfrwt beam="1">  1       21 0.23027128E+00 0.19841845E+03</pdfrwt>
<pdfrwt beam="2">  1       21 0.13773430E-01 0.19841845E+03</pdfrwt>
<totfact> 0.39668159E+03</totfact>
</mgrwt>
</event>
<event>
 4    1  0.4306168E+000  0.2324347E+03  0.7546771E-02  0.1124938E+00
         21   -1    0    0  503  502  0.00000000000E+00  0.00000000000E+00  0.94650758640E+03  0.94650758640E+03  0.00000000000E+00 0. -1.
         21   -1    0    0  501  503 -0.00000000000E+00 -0.00000000000E+00 -0.76813429022E+02  0.76813429022E+02  0.00000000000E+00 0.  1.
          6    1    1    2  501    0  0.21235926370E+02  0.15377226991E+03  0.17550461118E+03  0.29125202850E+03  0.17300000000E+03 0.  1.
         -6    1    1    2    0  502 -0.21235926370E+02 -0.15377226991E+03  0.69418954620E+03  0.73206898692E+03  0.17300000000E+03 0.  1.
<mgrwt>
<rscale>  2 0.23243467E+03</rscale>
<asrwt>0</asrwt>
<pdfrwt beam="1">  1       21 0.14561654E+00 0.23243467E+03</pdfrwt>
<pdfrwt beam="2">  1       21 0.11817451E-01 0.23243467E+03</pdfrwt>
<totfact> 0.18997529E+04</totfact>
</mgrwt>
</event>
<event>
 4    1  0.4306168E+000  0.1875707E+03  0.7546771E-02  0.1160671E+00
         21   -1    0    0  501  502  0.00000000000E+00  0.00000000000E+00  0.11650635549E+03  0.11650635549E+03  0.00000000000E+00 0. -1.
         21   -1    0    0  502  503 -0.00000000000E+00 -0.00000000000E+00 -0.27536429546E+04  0.27536429546E+04  0.00000000000E+00 0. -1.
          6    1    1    2  501    0  0.33734936449E+02 -0.64153856886E+02  0.35532300755E+02  0.19090654176E+03  0.17300000000E+03 0. -1.
         -6    1    1    2    0  503 -0.33734936449E+02  0.64153856886E+02 -0.26726688999E+04  0.26792427683E+04  0.17300000000E+03 0. -1.
<mgrwt>
<rscale>  2 0.18757069E+03</rscale>
<asrwt>0</asrwt>
<pdfrwt beam="1">  1       21 0.17924056E-01 0.18757069E+03</pdfrwt>
<pdfrwt beam="2">  1       21 0.42363735E+00 0.18757069E+03</pdfrwt>
<totfact> 0.17648614E+02</totfact>
</mgrwt>
</event>
<event>
 4    1  0.4306168E+000  0.1761649E+03  0.7546771E-02  0.1171567E+00
         21   -1    0    0  503  502  0.00000000000E+00  0.00000000000E+00  0.22693227352E+03  0.22693227352E+03  0.00000000000E+00 0.  1.
         21   -1    0    0  501  503 -0.00000000000E+00 -0.00000000000E+00 -0.18470811670E+03  0.18470811670E+03  0.00000000000E+00 0.  1.
          6    1    1    2  501    0  0.30951776135E+02 -0.12126302811E+02 -0.83758745532E+02  0.19506303371E+03  0.17300000000E+03 0.  1.
         -6    1    1    2    0  502 -0.30951776135E+02  0.12126302811E+02  0.12598290235E+03  0.21657735651E+03  0.17300000000E+03 0.  1.
<mgrwt>
<rscale>  2 0.17616487E+03</rscale>
<asrwt>0</asrwt>
<pdfrwt beam="1">  1       21 0.34912657E-01 0.17616487E+03</pdfrwt>
<pdfrwt beam="2">  1       21 0.28416633E-01 0.17616487E+03</pdfrwt>
<totfact> 0.94236303E+04</totfact>
</mgrwt>
</event>
<event>
 4    1  0.4306168E+000  0.2101296E+03  0.7546771E-02  0.1141463E+00
         21   -1    0    0  503  502  0.00000000000E+00  0.00000000000E+00  0.15031823687E+04  0.15031823687E+04  0.00000000000E+00 0.  1.
         21   -1    0    0  501  503 -0.00000000000E+00 -0.00000000000E+00 -0.50308959958E+03  0.50308959958E+03  0.00000000000E+00 0.  1.
          6    1    1    2  501    0 -0.10799055623E+03  0.50630813954E+02 -0.47336404496E+03  0.51790728766E+03  0.17300000000E+03 0.  1.
         -6    1    1    2    0  502  0.10799055623E+03 -0.50630813954E+02  0.14734568141E+04  0.14883646806E+04  0.17300000000E+03 0.  1.
<mgrwt>
<rscale>  2 0.21012958E+03</rscale>
<asrwt>0</asrwt>
<pdfrwt beam="1">  1       21 0.23125882E+00 0.21012958E+03</pdfrwt>
<pdfrwt beam="2">  1       21 0.77398400E-01 0.21012958E+03</pdfrwt>
<totfact> 0.12422879E+02</totfact>
</mgrwt>
</event>
<event>
 4    1  0.4306168E+000  0.2203644E+03  0.7546771E-02  0.1133612E+00
         21   -1    0    0  503  502  0.00000000000E+00  0.00000000000E+00  0.70896813118E+02  0.70896813118E+02  0.00000000000E+00 0. -1.
         21   -1    0    0  501  503 -0.00000000000E+00 -0.00000000000E+00 -0.82514450213E+03  0.82514450213E+03  0.00000000000E+00 0. -1.
          6    1    1    2  501    0  0.11134061195E+03  0.78960362413E+02 -0.56179757022E+03  0.60347077858E+03  0.17300000000E+03 0. -1.
         -6    1    1    2    0  502 -0.11134061195E+03 -0.78960362413E+02 -0.19245011880E+03  0.29257053667E+03  0.17300000000E+03 0. -1.
<mgrwt>
<rscale>  2 0.22036440E+03</rscale>
<asrwt>0</asrwt>
<pdfrwt beam="1">  1       21 0.10907202E-01 0.22036440E+03</pdfrwt>
<pdfrwt beam="2">  1       21 0.12694531E+00 0.22036440E+03</pdfrwt>
<totfact> 0.31423648E+04</totfact>
</mgrwt>
</event>
<event>
 4    1  0.4306168E+000  0.1824525E+03  0.7546771E-02  0.1165450E+00
         21   -1    0    0  503  502  0.00000000000E+00  0.00000000000E+00  0.40204589598E+03  0.40204589598E+03  0.00000000000E+00 0. -1.
         21   -1    0    0  501  503 -0.00000000000E+00 -0.00000000000E+00 -0.13169724180E+03  0.13169724180E+03  0.00000000000E+00 0.  1.
          6    1    1    2  501    0  0.18483865601E+02  0.54938644190E+02 -0.27441041387E+02  0.18450452207E+03  0.17300000000E+03 0.  1.
         -6    1    1    2    0  502 -0.18483865601E+02 -0.54938644190E+02  0.29778969557E+03  0.34923861571E+03  0.17300000000E+03 0. -1.
<mgrwt>
<rscale>  2 0.18245248E+03</rscale>
<asrwt>0</asrwt>
<pdfrwt beam="1">  1       21 0.61853214E-01 0.18245248E+03</pdfrwt>
<pdfrwt beam="2">  1       21 0.20261114E-01 0.18245248E+03</pdfrwt>
<totfact> 0.54937318E+04</totfact>
</mgrwt>
</event>
<event>
 4    1  0.4306168E+000  0.2248113E+03  0.7546771E-02  0.1130346E+00
         21   -1    0    0  501  502  0.00000000000E+00  0.00000000000E+00  0.46405003073E+03  0.46405003073E+03  0.00000000000E+00 0. -1.
         21   -1    0    0  502  503 -0.00000000000E+00 -0.00000000000E+00 -0.13811208036E+03  0.13811208036E+03  0.00000000000E+00 0. -1.
          6    1    1    2  501    0  0.10122320846E+03  0.10180862642E+03  0.30141081222E+03  0.37601677099E+03  0.17300000000E+03 0. -1.
         -6    1    1    2    0  503 -0.10122320846E+03 -0.10180862642E+03  0.24527138152E+02  0.22614534010E+03  0.17300000000E+03 0. -1.
<mgrwt>
<rscale>  2 0.22481133E+03</rscale>
<asrwt>0</asrwt>
<pdfrwt beam="1">  1       21 0.71392312E-01 0.22481133E+03</pdfrwt>
<pdfrwt beam="2">  1       21 0.21248013E-01 0.22481133E+03</pdfrwt>
<totfact> 0.35961277E+04</totfact>
</mgrwt>
</event>
<event>
 4    1  0.4306168E+000  0.2382928E+03  0.7546771E-02  0.1120935E+00
         21   -1    0    0  503  502  0.00000000000E+00  0.00000000000E+00  0.46869891936E+02  0.46869891936E+02  0.00000000000E+00 0.  1.
         21   -1    0    0  501  503 -0.00000000000E+00 -0.00000000000E+00 -0.12692514897E+04  0.12692514897E+04  0.00000000000E+00 0. -1.
          6    1    1    2  501    0  0.13644987039E+03 -0.90751801473E+02 -0.47083609656E+03  0.52770264963E+03  0.17300000000E+03 0. -1.
         -6    1    1    2    0  502 -0.13644987039E+03  0.90751801473E+02 -0.75154550119E+03  0.78841873199E+03  0.17300000000E+03 0. -1.
<mgrwt>
<rscale>  2 0.23829280E+03</rscale>
<asrwt>0</asrwt>
<pdfrwt beam="1">  1       21 0.72107526E-02 0.23829280E+03</pdfrwt>
<pdfrwt beam="2">  1       21 0.19526946E+00 0.23829280E+03</pdfrwt>
<totfact> 0.20053915E+04</totfact>
</mgrwt>
</event>
<event>
 4    1  0.4306168E+000  0.1773034E+03  0.7546771E-02  0.1170439E+00
         21   -1    0    0  503  502  0.00000000000E+00  0.00000000000E+00  0.20145750348E+03  0.20145750348E+03  0.00000000000E+00 0.  1.
         21   -1    0    0  501  503 -0.00000000000E+00 -0.00000000000E+00 -0.23099217713E+03  0.23099217713E+03  0.00000000000E+00 0.  1.
          6    1    1    2  501    0 -0.42715639877E+01  0.38590940818E+02 -0.13793127585E+03  0.22463647039E+03  0.17300000000E+03 0.  1.
         -6    1    1    2    0  502  0.42715639877E+01 -0.38590940818E+02  0.10839660220E+03  0.20781321022E+03  0.17300000000E+03 0.  1.
<mgrwt>
<rscale>  2 0.17730343E+03</rscale>
<asrwt>0</asrwt>
<pdfrwt beam="1">  1       21 0.30993462E-01 0.17730343E+03</pdfrwt>
<pdfrwt beam="2">  1       21 0.35537258E-01 0.17730343E+03</pdfrwt>
<totfact> 0.76829292E+04</totfact>
</mgrwt>
</event>
<event>
 4    1  0.4306168E+000  0.2397833E+03  0.7546771E-02  0.1119937E+00
         21   -1    0    0  501  502  0.00000000000E+00  0.00000000000E+00  0.38443514559E+03  0.38443514559E+03  0.00000000000E+00 0. -1.
         21   -1    0    0  502  503 -0.00000000000E+00 -0.00000000000E+00 -0.56814339489E+03  0.56814339489E+03  0.00000000000E+00 0. -1.
          6    1    1    2  501    0  0.16107388088E+03 -0.40277066336E+02  0.31696662209E+03  0.39744669667E+03  0.17300000000E+03 0. -1.
         -6    1    1    2    0  503 -0.16107388088E+03  0.40277066336E+02 -0.50067487138E+03  0.55513184381E+03  0.17300000000E+03 0. -1.
<mgrwt>
<rscale>  2 0.23978331E+03</rscale>
<asrwt>0</asrwt>
<pdfrwt beam="1">  1       21 0.59143869E-01 0.23978331E+03</pdfrwt>
<pdfrwt beam="2">  1       21 0.87406676E-01 0.23978331E+03</pdfrwt>
<totfact> 0.28939966E+03</totfact>
</mgrwt>
</event>
<event>
 4    1  0.4306168E+000  0.1964326E+03  0.7546771E-02  0.1152784E+00
         21   -1    0    0  503  502  0.00000000000E+00  0.00000000000E+00  0.17586191651E+03  0.17586191651E+03  0.00000000000E+00 0. -1.
         21   -1    0    0  501  503 -0.00000000000E+00 -0.00000000000E+00 -0.45807400345E+03  0.45807400345E+03  0.00000000000E+00 0.  1.
          6    1    1    2  501    0  0.86202245809E+01 -0.92641538472E+02 -0.36989840499E+03  0.41882047817E+03  0.17300000000E+03 0.  1.
         -6    1    1    2    0  502 -0.86202245809E+01  0.92641538472E+02  0.87686318056E+02  0.21511544179E+03  0.17300000000E+03 0. -1.
<mgrwt>
<rscale>  2 0.19643259E+03</rscale>
<asrwt>0</asrwt>
<pdfrwt beam="1">  1       21 0.27055680E-01 0.19643259E+03</pdfrwt>
<pdfrwt beam="2">  1       21 0.70472923E-01 0.19643259E+03</pdfrwt>
<totfact> 0.23712648E+04</totfact>
</mgrwt>
</event>
<event>
 4    1  0.4306168E+000  0.1760324E+03  0.7546771E-02  0.1171699E+00
         21   -1    0    0  503  502  0.00000000000E+00  0.00000000000E+00  0.35770359899E+03  0.35770359899E+03  0.00000000000E+00 0. -1.
         21   -1    0    0  501  503 -0.00000000000E+00 -0.00000000000E+00 -0.89010534570E+02  0.89010534570E+02  0.00000000000E+00 0. -1.
          6    1    1    2  501    0  0.14262817033E+02 -0.29240298939E+02  0.97809913707E+02  0.20138073952E+03  0.17300000000E+03 0. -1.
         -6    1    1    2    0  502 -0.14262817033E+02  0.29240298939E+02  0.17088315072E+03  0.24533339404E+03  0.17300000000E+03 0. -1.
<mgrwt>
<rscale>  2 0.17603245E+03</rscale>
<asrwt>0</asrwt>
<pdfrwt beam="1">  1       21 0.55031322E-01 0.17603245E+03</pdfrwt>
<pdfrwt beam="2">  1       21 0.13693929E-01 0.17603245E+03</pdfrwt>
<totfact> 0.14498127E+05</totfact>
</mgrwt>
</event>
<event>
 4    1  0.4306168E+000  0.2616966E+03  0.7546771E-02  0.1106128E+00
         21   -1    0    0  503  502  0.00000000000E+00  0.00000000000E+00  0.19406475556E+03  0.19406475556E+03  0.00000000000E+00 0. -1.
         21   -1    0    0  501  503 -0.00000000000E+00 -0.00000000000E+00 -0.36295531045E+03  0.36295531045E+03  0.00000000000E+00 0. -1.
          6    1    1    2  501    0 -0.18500655121E+03  0.65792746723E+02 -0.13080599443E+03  0.29256677475E+03  0.17300000000E+03 0. -1.
         -6    1    1    2    0  502  0.18500655121E+03 -0.65792746723E+02 -0.38084560468E+02  0.26445329126E+03  0.17300000000E+03 0. -1.
<mgrwt>
<rscale>  2 0.26169660E+03</rscale>
<asrwt>0</asrwt>
<pdfrwt beam="1">  1       21 0.29856116E-01 0.26169660E+03</pdfrwt>
<pdfrwt beam="2">  1       21 0.55839278E-01 0.26169660E+03</pdfrwt>
<totfact> 0.31423880E+04</totfact>
</mgrwt>
</event>
<event>
 4    1  0.4306168E+000  0.2449437E+03  0.7546771E-02  0.1116543E+00
         21   -1    0    0  501  502  0.00000000000E+00  0.00000000000E+00  0.63191485754E+03  0.63191485754E+03  0.00000000000E+00 0.  1.
         21   -1    0    0  502  503 -0.00000000000E+00 -0.00000000000E+00 -0.13692101173E+03  0.13692101173E+03  0.00000000000E+00 0.  1.
          6    1    1    2  501    0  0.98911489829E+02  0.14242522409E+03  0.46034364093E+03  0.52145344473E+03  0.17300000000E+03 0.  1.
         -6    1    1    2    0  503 -0.98911489829E+02 -0.14242522409E+03  0.34650204887E+02  0.24738242455E+03  0.17300000000E+03 0.  1.
<mgrwt>
<rscale>  2 0.24494372E+03</rscale>
<asrwt>0</asrwt>
<pdfrwt beam="1">  1       21 0.97217669E-01 0.24494372E+03</pdfrwt>
<pdfrwt beam="2">  1       21 0.21064771E-01 0.24494372E+03</pdfrwt>
<totfact> 0.17831156E+04</totfact>
</mgrwt>
</event>
<event>
 4    1  0.4306168E+000  0.1833024E+03  0.7546771E-02  0.1164645E+00
         21   -1    0    0  501  502  0.00000000000E+00  0.00000000000E+00  0.46974149619E+03  0.46974149619E+03  0.00000000000E+00 0.  1.
         21   -1    0    0  502  503 -0.00000000000E+00 -0.00000000000E+00 -0.71734452447E+02  0.71734452447E+02  0.00000000000E+00 0.  1.
          6    1    1    2  501    0  0.45664578966E+02  0.39818326335E+02  0.21352159730E+03  0.28140935556E+03  0.17300000000E+03 0.  1.
         -6    1    1    2    0  503 -0.45664578966E+02 -0.39818326335E+02  0.18448544645E+03  0.26006659308E+03  0.17300000000E+03 0.  1.
<mgrwt>
<rscale>  2 0.18330235E+03</rscale>
<asrwt>0</asrwt>
<pdfrwt beam="1">  1       21 0.72267921E-01 0.18330235E+03</pdfrwt>
<pdfrwt beam="2">  1       21 0.11036070E-01 0.18330235E+03</pdfrwt>
<totfact> 0.11805828E+05</totfact>
</mgrwt>
</event>
<event>
 4    1  0.4306168E+000  0.2293996E+03  0.7546771E-02  0.1127063E+00
         21   -1    0    0  501  502  0.00000000000E+00  0.00000000000E+00  0.18047107902E+03  0.18047107902E+03  0.00000000000E+00 0. -1.
         21   -1    0    0  502  503 -0.00000000000E+00 -0.00000000000E+00 -0.35880583507E+03  0.35880583507E+03  0.00000000000E+00 0.  1.
          6    1    1    2  501    0  0.60482137927E+01 -0.15052779944E+03  0.27534131688E+02  0.23104615925E+03  0.17300000000E+03 0. -1.
         -6    1    1    2    0  503 -0.60482137927E+01  0.15052779944E+03 -0.20586888773E+03  0.30823075484E+03  0.17300000000E+03 0.  1.
<mgrwt>
<rscale>  2 0.22939965E+03</rscale>
<asrwt>0</asrwt>
<pdfrwt beam="1">  1       21 0.27764782E-01 0.22939965E+03</pdfrwt>
<pdfrwt beam="2">  1       21 0.55200897E-01 0.22939965E+03</pdfrwt>
<totfact> 0.37634532E+04</totfact>
</mgrwt>
</event>
<event>
 4    1  0.4306168E+000  0.2321528E+03  0.7546771E-02  0.1125134E+00
         21   -1    0    0  501  502  0.00000000000E+00  0.00000000000E+00  0.43209838440E+03  0.43209838440E+03  0.00000000000E+00 0.  1.
         21   -1    0    0  502  503 -0.00000000000E+00 -0.00000000000E+00 -0.12855336085E+03  0.12855336085E+03  0.00000000000E+00 0. -1.
          6    1    1    2  501    0 -0.15222515965E+03  0.28167485060E+02  0.10341773440E+03  0.25414589163E+03  0.17300000000E+03 0. -1.
         -6    1    1    2    0  503  0.15222515965E+03 -0.28167485060E+02  0.20012728915E+03  0.30650585362E+03  0.17300000000E+03 0.  1.
<mgrwt>
<rscale>  2 0.23215277E+03</rscale>
<asrwt>0</asrwt>
<pdfrwt beam="1">  1       21 0.66476673E-01 0.23215277E+03</pdfrwt>
<pdfrwt beam="2">  1       21 0.19777440E-01 0.23215277E+03</pdfrwt>
<totfact> 0.48012409E+04</totfact>
</mgrwt>
</event>
<event>
 4    1  0.4306168E+000  0.1914543E+03  0.7546771E-02  0.1157156E+00
         21   -1    0    0  501  502  0.00000000000E+00  0.00000000000E+00  0.87120809921E+02  0.87120809921E+02  0.00000000000E+00 0. -1.
         21   -1    0    0  502  503 -0.00000000000E+00 -0.00000000000E+00 -0.79021147807E+03  0.79021147807E+03  0.00000000000E+00 0.  1.
          6    1    1    2  501    0  0.55495828920E+02  0.60381688631E+02 -0.51590332226E+02  0.19828337734E+03  0.17300000000E+03 0. -1.
         -6    1    1    2    0  503 -0.55495828920E+02 -0.60381688631E+02 -0.65150033593E+03  0.67904891065E+03  0.17300000000E+03 0.  1.
<mgrwt>
<rscale>  2 0.19145426E+03</rscale>
<asrwt>0</asrwt>
<pdfrwt beam="1">  1       21 0.13403201E-01 0.19145426E+03</pdfrwt>
<pdfrwt beam="2">  1       21 0.12157100E+00 0.19145426E+03</pdfrwt>
<totfact> 0.24616669E+04</totfact>
</mgrwt>
</event>
<event>
 4    1  0.4306168E+000  0.2400248E+03  0.7546771E-02  0.1119776E+00
         21   -1    0    0  501  502  0.00000000000E+00  0.00000000000E+00  0.71021352565E+02  0.71021352565E+02  0.00000000000E+00 0.  1.
         21   -1    0    0  502  503 -0.00000000000E+00 -0.00000000000E+00 -0.83263929054E+03  0.83263929054E+03  0.00000000000E+00 0. -1.
          6    1    1    2  501    0  0.14668836818E+03  0.78520151119E+02 -0.30829162118E+03  0.39071167781E+03  0.17300000000E+03 0.  1.
         -6    1    1    2    0  503 -0.14668836818E+03 -0.78520151119E+02 -0.45332631680E+03  0.51294896529E+03  0.17300000000E+03 0. -1.
<mgrwt>
<rscale>  2 0.24002477E+03</rscale>
<asrwt>0</asrwt>
<pdfrwt beam="1">  1       21 0.10926362E-01 0.24002477E+03</pdfrwt>
<pdfrwt beam="2">  1       21 0.12809835E+00 0.24002477E+03</pdfrwt>
<totfact> 0.30304687E+04</totfact>
</mgrwt>
</event>
<event>
 4    1  0.4306168E+000  0.3125129E+03  0.7546771E-02  0.1079148E+00
         21   -1    0    0  503  502  0.00000000000E+00  0.00000000000E+00  0.24329398741E+03  0.24329398741E+03  0.00000000000E+00 0.  1.
         21   -1    0    0  501  503 -0.00000000000E+00 -0.00000000000E+00 -0.40250399516E+03  0.40250399516E+03  0.00000000000E+00 0. -1.
          6    1    1    2  501    0  0.12528144752E+03 -0.22812250051E+03 -0.96322400433E+02  0.32702036811E+03  0.17300000000E+03 0. -1.
         -6    1    1    2    0  502 -0.12528144752E+03  0.22812250051E+03 -0.62887607322E+02  0.31877761447E+03  0.17300000000E+03 0.  1.
<mgrwt>
<rscale>  2 0.31251291E+03</rscale>
<asrwt>0</asrwt>
<pdfrwt beam="1">  1       21 0.37429844E-01 0.31251291E+03</pdfrwt>
<pdfrwt beam="2">  1       21 0.61923692E-01 0.31251291E+03</pdfrwt>
<totfact> 0.15685414E+04</totfact>
</mgrwt>
</event>
<event>
 4    1  0.4306168E+000  0.1935805E+03  0.7546771E-02  0.1155271E+00
         21   -1    0    0  501  502  0.00000000000E+00  0.00000000000E+00  0.32732959426E+02  0.32732959426E+02  0.00000000000E+00 0. -1.
         21   -1    0    0  502  503 -0.00000000000E+00 -0.00000000000E+00 -0.11451315710E+04  0.11451315710E+04  0.00000000000E+00 0. -1.
          6    1    1    2  501    0 -0.68831494354E+02 -0.52977566106E+02 -0.54650898971E+03  0.57978053862E+03  0.17300000000E+03 0. -1.
         -6    1    1    2    0  503  0.68831494354E+02  0.52977566106E+02 -0.56588962189E+03  0.59808399184E+03  0.17300000000E+03 0. -1.
<mgrwt>
<rscale>  2 0.19358047E+03</rscale>
<asrwt>0</asrwt>
<pdfrwt beam="1">  1       21 0.50358405E-02 0.19358047E+03</pdfrwt>
<pdfrwt beam="2">  1       21 0.17617407E+00 0.19358047E+03</pdfrwt>
<totfact> 0.51337108E+04</totfact>
</mgrwt>
</event>
<event>
 4    1  0.4306168E+000  0.1810343E+03  0.7546771E-02  0.1166806E+00
         21   -1    0    0  503  502  0.00000000000E+00  0.00000000000E+00  0.25663451881E+03  0.25663451881E+03  0.00000000000E+00 0. -1.
         21   -1    0    0  501  503 -0.00000000000E+00 -0.00000000000E+00 -0.14729432350E+03  0.14729432350E+03  0.00000000000E+00 0. -1.
          6    1    1    2  501    0 -0.83406206789E+01  0.52676834000E+02 -0.18983802448E+02  0.18202691985E+03  0.17300000000E+03 0. -1.
         -6    1    1    2    0  502  0.83406206789E+01 -0.52676834000E+02  0.12832399775E+03  0.22190192246E+03  0.17300000000E+03 0. -1.
<mgrwt>
<rscale>  2 0.18103429E+03</rscale>
<asrwt>0</asrwt>
<pdfrwt beam="1">  1       21 0.39482234E-01 0.18103429E+03</pdfrwt>
<pdfrwt beam="2">  1       21 0.22660665E-01 0.18103429E+03</pdfrwt>
<totfact> 0.11335904E+05</totfact>
</mgrwt>
</event>
