<event>
 4    1  0.2821610E+004  0.2369623E+02  0.7546771E-02  0.1680467E+00
         21   -1    0    0  503  502  0.00000000000E+00  0.00000000000E+00  0.23103763444E+01  0.23103763444E+01  0.00000000000E+00 0.  1.
         21   -1    0    0  501  503 -0.00000000000E+00 -0.00000000000E+00 -0.24306296580E+03  0.24306296580E+03  0.00000000000E+00 0. -1.
          2    1    1    2  501    0  0.22474534370E+02  0.75104401565E+01 -0.11915640401E+03  0.12148975275E+03  0.00000000000E+00 0. -1.
         -2    1    1    2    0  502 -0.22474534370E+02 -0.75104401565E+01 -0.12159618545E+03  0.12388358940E+03  0.00000000000E+00 0.  1.
<mgrwt>
<rscale>  2 0.23696232E+02</rscale>
<asrwt>0</asrwt>
<pdfrwt beam="1">  1       21 0.35544274E-03 0.23696232E+02</pdfrwt>
<pdfrwt beam="2">  1       21 0.37394279E-01 0.23696232E+02</pdfrwt>
<totfact> 0.93063468E+07</totfact>
</mgrwt>
</event>
<event>
 4    1  0.2821610E+004  0.2521706E+02  0.7546771E-02  0.1657904E+00
         21   -1    0    0  501  502  0.00000000000E+00  0.00000000000E+00  0.30095187733E+02  0.30095187733E+02  0.00000000000E+00 0. -1.
         21   -1    0    0  502  503 -0.00000000000E+00 -0.00000000000E+00 -0.28063426425E+02  0.28063426425E+02  0.00000000000E+00 0.  1.
          2    1    1    2  501    0 -0.50434894162E+01  0.24707552269E+02  0.15470262276E+02  0.29584268446E+02  0.00000000000E+00 0. -1.
         -2    1    1    2    0  503  0.50434894162E+01 -0.24707552269E+02 -0.13438500968E+02  0.28574345712E+02  0.00000000000E+00 0.  1.
<mgrwt>
<rscale>  2 0.25217056E+02</rscale>
<asrwt>0</asrwt>
<pdfrwt beam="1">  1       21 0.46300289E-02 0.25217056E+02</pdfrwt>
<pdfrwt beam="2">  1       21 0.43174502E-02 0.25217056E+02</pdfrwt>
<totfact> 0.74987030E+07</totfact>
</mgrwt>
</event>
<event>
 4    1  0.2821610E+004  0.2587633E+02  0.7546771E-02  0.1648725E+00
         21   -1    0    0  503  502  0.00000000000E+00  0.00000000000E+00  0.69219915234E+02  0.69219915234E+02  0.00000000000E+00 0.  1.
         21   -1    0    0  501  503 -0.00000000000E+00 -0.00000000000E+00 -0.25389716971E+02  0.25389716971E+02  0.00000000000E+00 0. -1.
          2    1    1    2  501    0  0.86728563579E+01 -0.24379625394E+02 -0.15302922727E+02  0.30062668141E+02  0.00000000000E+00 0. -1.
         -2    1    1    2    0  502 -0.86728563579E+01  0.24379625394E+02  0.59133120991E+02  0.64546964064E+02  0.00000000000E+00 0.  1.
<mgrwt>
<rscale>  2 0.25876332E+02</rscale>
<asrwt>0</asrwt>
<pdfrwt beam="1">  1       21 0.10649218E-01 0.25876332E+02</pdfrwt>
<pdfrwt beam="2">  1       21 0.39061103E-02 0.25876332E+02</pdfrwt>
<totfact> 0.22782377E+07</totfact>
</mgrwt>
</event>
<event>
 4    1  0.2821610E+004  0.2772860E+02  0.7546771E-02  0.1624644E+00
         21   -1    0    0  503  502  0.00000000000E+00  0.00000000000E+00  0.78452311630E+02  0.78452311630E+02  0.00000000000E+00 0. -1.
         21   -1    0    0  501  503 -0.00000000000E+00 -0.00000000000E+00 -0.12427651553E+02  0.12427651553E+02  0.00000000000E+00 0.  1.
          2    1    1    2  501    0 -0.26152043781E+02 -0.92166068687E+01  0.12120203848E+02  0.30261767586E+02  0.00000000000E+00 0. -1.
         -2    1    1    2    0  502  0.26152043781E+02  0.92166068687E+01  0.53904456229E+02  0.60618195598E+02  0.00000000000E+00 0.  1.
<mgrwt>
<rscale>  2 0.27728600E+02</rscale>
<asrwt>0</asrwt>
<pdfrwt beam="1">  1       21 0.12069586E-01 0.27728600E+02</pdfrwt>
<pdfrwt beam="2">  1       21 0.19119464E-02 0.27728600E+02</pdfrwt>
<totfact> 0.57191633E+07</totfact>
</mgrwt>
</event>
<event>
 4    1  0.2821610E+004  0.2154738E+02  0.7546771E-02  0.1716199E+00
         21   -1    0    0  501  502  0.00000000000E+00  0.00000000000E+00  0.29939899369E+02  0.29939899369E+02  0.00000000000E+00 0.  1.
         21   -1    0    0  502  503 -0.00000000000E+00 -0.00000000000E+00 -0.62706618178E+02  0.62706618178E+02  0.00000000000E+00 0. -1.
          2    1    1    2  501    0 -0.20270301049E+02 -0.73078419450E+01  0.23805887510E+02  0.32109343479E+02  0.00000000000E+00 0.  1.
         -2    1    1    2    0  503  0.20270301049E+02  0.73078419450E+01 -0.56572606319E+02  0.60537174068E+02  0.00000000000E+00 0. -1.
<mgrwt>
<rscale>  2 0.21547382E+02</rscale>
<asrwt>0</asrwt>
<pdfrwt beam="1">  1       21 0.46061384E-02 0.21547382E+02</pdfrwt>
<pdfrwt beam="2">  1       21 0.96471721E-02 0.21547382E+02</pdfrwt>
<totfact> 0.19863065E+07</totfact>
</mgrwt>
</event>
<event>
 4    1  0.2821610E+004  0.2621474E+02  0.7546771E-02  0.1644143E+00
         21   -1    0    0  503  502  0.00000000000E+00  0.00000000000E+00  0.42177216635E+03  0.42177216635E+03  0.00000000000E+00 0.  1.
         21   -1    0    0  501  503 -0.00000000000E+00 -0.00000000000E+00 -0.66900437670E+01  0.66900437670E+01  0.00000000000E+00 0. -1.
          2    1    1    2  501    0  0.21199515042E+02 -0.15420549555E+02  0.21215151819E+02  0.33723811370E+02  0.00000000000E+00 0. -1.
         -2    1    1    2    0  502 -0.21199515042E+02  0.15420549555E+02  0.39386697076E+03  0.39473839874E+03  0.00000000000E+00 0.  1.
<mgrwt>
<rscale>  2 0.26214744E+02</rscale>
<asrwt>0</asrwt>
<pdfrwt beam="1">  1       21 0.64888005E-01 0.26214744E+02</pdfrwt>
<pdfrwt beam="2">  1       21 0.10292378E-02 0.26214744E+02</pdfrwt>
<totfact> 0.66813573E+06</totfact>
</mgrwt>
</event>
<event>
 4    1  0.2821610E+004  0.3171107E+02  0.7546771E-02  0.1579910E+00
         21   -1    0    0  503  502  0.00000000000E+00  0.00000000000E+00  0.27486136405E+03  0.27486136405E+03  0.00000000000E+00 0.  1.
         21   -1    0    0  501  503 -0.00000000000E+00 -0.00000000000E+00 -0.65829549951E+01  0.65829549951E+01  0.00000000000E+00 0. -1.
          2    1    1    2  501    0 -0.28763847237E+02 -0.13350399308E+02  0.40346007392E+02  0.51316589735E+02  0.00000000000E+00 0. -1.
         -2    1    1    2    0  502  0.28763847237E+02  0.13350399308E+02  0.22793240166E+03  0.23012772931E+03  0.00000000000E+00 0.  1.
<mgrwt>
<rscale>  2 0.31711072E+02</rscale>
<asrwt>0</asrwt>
<pdfrwt beam="1">  1       21 0.42286355E-01 0.31711072E+02</pdfrwt>
<pdfrwt beam="2">  1       21 0.10127625E-02 0.31711072E+02</pdfrwt>
<totfact> 0.16444771E+07</totfact>
</mgrwt>
</event>
<event>
 4    1  0.2821610E+004  0.2704336E+02  0.7546771E-02  0.1633276E+00
         21   -1    0    0  501  502  0.00000000000E+00  0.00000000000E+00  0.37807129578E+02  0.37807129578E+02  0.00000000000E+00 0. -1.
         21   -1    0    0  502  503 -0.00000000000E+00 -0.00000000000E+00 -0.21254422388E+02  0.21254422388E+02  0.00000000000E+00 0.  1.
          2    1    1    2  501    0 -0.18385033191E+01  0.26980793097E+02  0.17129718462E+02  0.32012037504E+02  0.00000000000E+00 0. -1.
         -2    1    1    2    0  503  0.18385033191E+01 -0.26980793097E+02 -0.57701127180E+00  0.27049514461E+02  0.00000000000E+00 0.  1.
<mgrwt>
<rscale>  2 0.27043359E+02</rscale>
<asrwt>0</asrwt>
<pdfrwt beam="1">  1       21 0.58164815E-02 0.27043359E+02</pdfrwt>
<pdfrwt beam="2">  1       21 0.32699111E-02 0.27043359E+02</pdfrwt>
<totfact> 0.82136658E+07</totfact>
</mgrwt>
</event>
<event>
 4    1  0.2821610E+004  0.2880838E+02  0.7546771E-02  0.1611647E+00
         21   -1    0    0  503  502  0.00000000000E+00  0.00000000000E+00  0.34660616732E+01  0.34660616732E+01  0.00000000000E+00 0.  1.
         21   -1    0    0  501  503 -0.00000000000E+00 -0.00000000000E+00 -0.34445436725E+03  0.34445436725E+03  0.00000000000E+00 0. -1.
          2    1    1    2  501    0 -0.20483068371E+02  0.20257515896E+02 -0.26654538447E+03  0.26809767814E+03  0.00000000000E+00 0. -1.
         -2    1    1    2    0  502  0.20483068371E+02 -0.20257515896E+02 -0.74442921110E+02  0.79822750789E+02  0.00000000000E+00 0.  1.
<mgrwt>
<rscale>  2 0.28808385E+02</rscale>
<asrwt>0</asrwt>
<pdfrwt beam="1">  1       21 0.53324019E-03 0.28808385E+02</pdfrwt>
<pdfrwt beam="2">  1       21 0.52992986E-01 0.28808385E+02</pdfrwt>
<totfact> 0.27309354E+07</totfact>
</mgrwt>
</event>
<event>
 4    1  0.2821610E+004  0.2126128E+02  0.7546771E-02  0.1721350E+00
         21   -1    0    0  503  502  0.00000000000E+00  0.00000000000E+00  0.10052855792E+03  0.10052855792E+03  0.00000000000E+00 0.  1.
         21   -1    0    0  501  503 -0.00000000000E+00 -0.00000000000E+00 -0.80329858432E+01  0.80329858432E+01  0.00000000000E+00 0. -1.
          2    1    1    2  501    0 -0.18743535081E+02 -0.10036038166E+02  0.10232737607E+02  0.23595573491E+02  0.00000000000E+00 0. -1.
         -2    1    1    2    0  502  0.18743535081E+02  0.10036038166E+02  0.82262834473E+02  0.84965970276E+02  0.00000000000E+00 0.  1.
<mgrwt>
<rscale>  2 0.21261283E+02</rscale>
<asrwt>0</asrwt>
<pdfrwt beam="1">  1       21 0.15465931E-01 0.21261283E+02</pdfrwt>
<pdfrwt beam="2">  1       21 0.12358440E-02 0.21261283E+02</pdfrwt>
<totfact> 0.68302169E+07</totfact>
</mgrwt>
</event>
<event>
 4    1  0.2821610E+004  0.2549971E+02  0.7546771E-02  0.1653926E+00
         21   -1    0    0  503  502  0.00000000000E+00  0.00000000000E+00  0.20222713245E+02  0.20222713245E+02  0.00000000000E+00 0. -1.
         21   -1    0    0  501  503 -0.00000000000E+00 -0.00000000000E+00 -0.34314810327E+02  0.34314810327E+02  0.00000000000E+00 0.  1.
          2    1    1    2  501    0 -0.17202921522E+02  0.18822713736E+02 -0.13889308755E+02  0.29037010159E+02  0.00000000000E+00 0. -1.
         -2    1    1    2    0  502  0.17202921522E+02 -0.18822713736E+02 -0.20278832680E+00  0.25500513414E+02  0.00000000000E+00 0.  1.
<mgrwt>
<rscale>  2 0.25499707E+02</rscale>
<asrwt>0</asrwt>
<pdfrwt beam="1">  1       21 0.31111866E-02 0.25499707E+02</pdfrwt>
<pdfrwt beam="2">  1       21 0.52792016E-02 0.25499707E+02</pdfrwt>
<totfact> 0.10220848E+08</totfact>
</mgrwt>
</event>
<event>
 4    1  0.2821610E+004  0.3331901E+02  0.7546771E-02  0.1564056E+00
         21   -1    0    0  503  502  0.00000000000E+00  0.00000000000E+00  0.23414134482E+02  0.23414134482E+02  0.00000000000E+00 0. -1.
         21   -1    0    0  501  503 -0.00000000000E+00 -0.00000000000E+00 -0.54111425465E+03  0.54111425465E+03  0.00000000000E+00 0.  1.
          2    1    1    2  501    0 -0.80345226518E+01  0.32335785164E+02 -0.52846440926E+03  0.52951372825E+03  0.00000000000E+00 0.  1.
         -2    1    1    2    0  502  0.80345226518E+01 -0.32335785164E+02  0.10764289094E+02  0.35014660874E+02  0.00000000000E+00 0. -1.
<mgrwt>
<rscale>  2 0.33319012E+02</rscale>
<asrwt>0</asrwt>
<pdfrwt beam="1">  1       21 0.36021746E-02 0.33319012E+02</pdfrwt>
<pdfrwt beam="2">  1       21 0.83248345E-01 0.33319012E+02</pdfrwt>
<totfact> 0.58404525E+05</totfact>
</mgrwt>
</event>
<event>
 4    1  0.2821610E+004  0.3092328E+02  0.7546771E-02  0.1588102E+00
         21   -1    0    0  501  502  0.00000000000E+00  0.00000000000E+00  0.11758986080E+03  0.11758986080E+03  0.00000000000E+00 0.  1.
         21   -1    0    0  502  503 -0.00000000000E+00 -0.00000000000E+00 -0.12116983542E+02  0.12116983542E+02  0.00000000000E+00 0. -1.
          2    1    1    2  501    0  0.30038389579E+02  0.73446812776E+01  0.89928049743E+02  0.95096284481E+02  0.00000000000E+00 0.  1.
         -2    1    1    2    0  503 -0.30038389579E+02 -0.73446812776E+01  0.15544827519E+02  0.34610559865E+02  0.00000000000E+00 0. -1.
<mgrwt>
<rscale>  2 0.30923279E+02</rscale>
<asrwt>0</asrwt>
<pdfrwt beam="1">  1       21 0.18090747E-01 0.30923279E+02</pdfrwt>
<pdfrwt beam="2">  1       21 0.18641514E-02 0.30923279E+02</pdfrwt>
<totfact> 0.30379019E+07</totfact>
</mgrwt>
</event>
<event>
 4    1  0.2821610E+004  0.2549766E+02  0.7546771E-02  0.1653955E+00
         21   -1    0    0  503  502  0.00000000000E+00  0.00000000000E+00  0.24151884762E+02  0.24151884762E+02  0.00000000000E+00 0.  1.
         21   -1    0    0  501  503 -0.00000000000E+00 -0.00000000000E+00 -0.37230750139E+02  0.37230750139E+02  0.00000000000E+00 0. -1.
          2    1    1    2  501    0 -0.15583784628E+02 -0.20181091587E+02 -0.22692047900E+02  0.34132972899E+02  0.00000000000E+00 0. -1.
         -2    1    1    2    0  502  0.15583784628E+02  0.20181091587E+02  0.96131825237E+01  0.27249662002E+02  0.00000000000E+00 0.  1.
<mgrwt>
<rscale>  2 0.25497663E+02</rscale>
<asrwt>0</asrwt>
<pdfrwt beam="1">  1       21 0.37156746E-02 0.25497663E+02</pdfrwt>
<pdfrwt beam="2">  1       21 0.57278077E-02 0.25497663E+02</pdfrwt>
<totfact> 0.67832491E+07</totfact>
</mgrwt>
</event>
<event>
 4    1  0.2821610E+004  0.4907099E+02  0.7546771E-02  0.1450418E+00
         21   -1    0    0  501  502  0.00000000000E+00  0.00000000000E+00  0.10601780358E+03  0.10601780358E+03  0.00000000000E+00 0. -1.
         21   -1    0    0  502  503 -0.00000000000E+00 -0.00000000000E+00 -0.33110625789E+02  0.33110625789E+02  0.00000000000E+00 0.  1.
          2    1    1    2  501    0 -0.19629020778E+02 -0.44974027997E+02  0.75436419046E+02  0.89992305057E+02  0.00000000000E+00 0. -1.
         -2    1    1    2    0  503  0.19629020778E+02  0.44974027997E+02 -0.25292412557E+01  0.49136124311E+02  0.00000000000E+00 0.  1.
<mgrwt>
<rscale>  2 0.49070986E+02</rscale>
<asrwt>0</asrwt>
<pdfrwt beam="1">  1       21 0.16310431E-01 0.49070986E+02</pdfrwt>
<pdfrwt beam="2">  1       21 0.50939425E-02 0.49070986E+02</pdfrwt>
<totfact> 0.79143831E+06</totfact>
</mgrwt>
</event>
<event>
 4    1  0.2821610E+004  0.2046681E+02  0.7546771E-02  0.1736201E+00
         21   -1    0    0  501  502  0.00000000000E+00  0.00000000000E+00  0.11270623605E+02  0.11270623605E+02  0.00000000000E+00 0.  1.
         21   -1    0    0  502  503 -0.00000000000E+00 -0.00000000000E+00 -0.54236613299E+02  0.54236613299E+02  0.00000000000E+00 0. -1.
          2    1    1    2  501    0 -0.20288567255E+02 -0.26952689709E+01 -0.31078699944E+01  0.20701432124E+02  0.00000000000E+00 0.  1.
         -2    1    1    2    0  503  0.20288567255E+02  0.26952689709E+01 -0.39858119700E+02  0.44805804781E+02  0.00000000000E+00 0. -1.
<mgrwt>
<rscale>  2 0.20466813E+02</rscale>
<asrwt>0</asrwt>
<pdfrwt beam="1">  1       21 0.17339421E-02 0.20466813E+02</pdfrwt>
<pdfrwt beam="2">  1       21 0.83440943E-02 0.20466813E+02</pdfrwt>
<totfact> 0.11288117E+08</totfact>
</mgrwt>
</event>
<event>
 4    1  0.2821610E+004  0.3001302E+02  0.7546771E-02  0.1597945E+00
         21   -1    0    0  501  502  0.00000000000E+00  0.00000000000E+00  0.12014658598E+04  0.12014658598E+04  0.00000000000E+00 0. -1.
         21   -1    0    0  502  503 -0.00000000000E+00 -0.00000000000E+00 -0.77145240807E+00  0.77145240807E+00  0.00000000000E+00 0.  1.
          2    1    1    2  501    0  0.15129070285E+02  0.25920895697E+02  0.70120388678E+03  0.70184590362E+03  0.00000000000E+00 0.  1.
         -2    1    1    2    0  503 -0.15129070285E+02 -0.25920895697E+02  0.49949052059E+03  0.50039140856E+03  0.00000000000E+00 0. -1.
<mgrwt>
<rscale>  2 0.30013024E+02</rscale>
<asrwt>0</asrwt>
<pdfrwt beam="1">  1       21 0.18483940E+00 0.30013024E+02</pdfrwt>
<pdfrwt beam="2">  1       21 0.11868595E-03 0.30013024E+02</pdfrwt>
<totfact> 0.15385456E+07</totfact>
</mgrwt>
</event>
<event>
 4    1  0.2821610E+004  0.2282152E+02  0.7546771E-02  0.1694420E+00
         21   -1    0    0  503  502  0.00000000000E+00  0.00000000000E+00  0.14664995422E+02  0.14664995422E+02  0.00000000000E+00 0. -1.
         21   -1    0    0  501  503 -0.00000000000E+00 -0.00000000000E+00 -0.22523846115E+03  0.22523846115E+03  0.00000000000E+00 0.  1.
          2    1    1    2  501    0 -0.15382686874E+01 -0.22769614532E+02 -0.21537630859E+03  0.21658203046E+03  0.00000000000E+00 0.  1.
         -2    1    1    2    0  502  0.15382686874E+01  0.22769614532E+02  0.48028428587E+01  0.23321426115E+02  0.00000000000E+00 0. -1.
<mgrwt>
<rscale>  2 0.22821517E+02</rscale>
<asrwt>0</asrwt>
<pdfrwt beam="1">  1       21 0.22561533E-02 0.22821517E+02</pdfrwt>
<pdfrwt beam="2">  1       21 0.34652068E-01 0.22821517E+02</pdfrwt>
<totfact> 0.66581276E+06</totfact>
</mgrwt>
</event>
<event>
 4    1  0.2821610E+004  0.2649681E+02  0.7546771E-02  0.1640389E+00
         21   -1    0    0  503  502  0.00000000000E+00  0.00000000000E+00  0.10937469950E+04  0.10937469950E+04  0.00000000000E+00 0. -1.
         21   -1    0    0  501  503 -0.00000000000E+00 -0.00000000000E+00 -0.75119382591E+00  0.75119382591E+00  0.00000000000E+00 0.  1.
          2    1    1    2  501    0  0.11424243803E+02  0.23907480260E+02  0.33776149087E+03  0.33879921144E+03  0.00000000000E+00 0.  1.
         -2    1    1    2    0  502 -0.11424243803E+02 -0.23907480260E+02  0.75523431027E+03  0.75569897735E+03  0.00000000000E+00 0. -1.
<mgrwt>
<rscale>  2 0.26496810E+02</rscale>
<asrwt>0</asrwt>
<pdfrwt beam="1">  1       21 0.16826749E+00 0.26496810E+02</pdfrwt>
<pdfrwt beam="2">  1       21 0.11556916E-03 0.26496810E+02</pdfrwt>
<totfact> 0.19918539E+07</totfact>
</mgrwt>
</event>
<event>
 4    1  0.2821610E+004  0.2388620E+02  0.7546771E-02  0.1677535E+00
         21   -1    0    0  503  502  0.00000000000E+00  0.00000000000E+00  0.94230382250E+03  0.94230382250E+03  0.00000000000E+00 0.  1.
         21   -1    0    0  501  503 -0.00000000000E+00 -0.00000000000E+00 -0.53042748370E+01  0.53042748370E+01  0.00000000000E+00 0. -1.
          2    1    1    2  501    0  0.21876156634E+02  0.95908477309E+01  0.22557359975E+02  0.32853996382E+02  0.00000000000E+00 0. -1.
         -2    1    1    2    0  502 -0.21876156634E+02 -0.95908477309E+01  0.91444218768E+03  0.91475410095E+03  0.00000000000E+00 0.  1.
<mgrwt>
<rscale>  2 0.23886201E+02</rscale>
<asrwt>0</asrwt>
<pdfrwt beam="1">  1       21 0.14496969E+00 0.23886201E+02</pdfrwt>
<pdfrwt beam="2">  1       21 0.81604303E-03 0.23886201E+02</pdfrwt>
<totfact> 0.16147552E+06</totfact>
</mgrwt>
</event>
<event>
 4    1  0.2821610E+004  0.3107945E+02  0.7546771E-02  0.1586454E+00
         21   -1    0    0  501  502  0.00000000000E+00  0.00000000000E+00  0.12910888109E+03  0.12910888109E+03  0.00000000000E+00 0.  1.
         21   -1    0    0  502  503 -0.00000000000E+00 -0.00000000000E+00 -0.11511878742E+02  0.11511878742E+02  0.00000000000E+00 0. -1.
          2    1    1    2  501    0 -0.30379029240E+02  0.65610048289E+01  0.10040082181E+03  0.10510117612E+03  0.00000000000E+00 0.  1.
         -2    1    1    2    0  503  0.30379029240E+02 -0.65610048289E+01  0.17196180539E+02  0.35519583712E+02  0.00000000000E+00 0. -1.
<mgrwt>
<rscale>  2 0.31079450E+02</rscale>
<asrwt>0</asrwt>
<pdfrwt beam="1">  1       21 0.19862904E-01 0.31079450E+02</pdfrwt>
<pdfrwt beam="2">  1       21 0.17710584E-02 0.31079450E+02</pdfrwt>
<totfact> 0.27927898E+07</totfact>
</mgrwt>
</event>
<event>
 4    1  0.2821610E+004  0.2405032E+02  0.7546771E-02  0.1675029E+00
         21   -1    0    0  501  502  0.00000000000E+00  0.00000000000E+00  0.12045268021E+02  0.12045268021E+02  0.00000000000E+00 0.  1.
         21   -1    0    0  502  503 -0.00000000000E+00 -0.00000000000E+00 -0.51892854224E+02  0.51892854224E+02  0.00000000000E+00 0. -1.
          2    1    1    2  501    0 -0.14114653247E+02  0.19472914373E+02 -0.11190605732E+02  0.26526354576E+02  0.00000000000E+00 0.  1.
         -2    1    1    2    0  503  0.14114653247E+02 -0.19472914373E+02 -0.28656980471E+02  0.37411767669E+02  0.00000000000E+00 0. -1.
<mgrwt>
<rscale>  2 0.24050319E+02</rscale>
<asrwt>0</asrwt>
<pdfrwt beam="1">  1       21 0.18531182E-02 0.24050319E+02</pdfrwt>
<pdfrwt beam="2">  1       21 0.79835158E-02 0.24050319E+02</pdfrwt>
<totfact> 0.11492301E+08</totfact>
</mgrwt>
</event>
<event>
 4    1  0.2821610E+004  0.2239478E+02  0.7546771E-02  0.1701513E+00
         21   -1    0    0  503  502  0.00000000000E+00  0.00000000000E+00  0.47138486690E+03  0.47138486690E+03  0.00000000000E+00 0. -1.
         21   -1    0    0  501  503 -0.00000000000E+00 -0.00000000000E+00 -0.24807038605E+01  0.24807038605E+01  0.00000000000E+00 0.  1.
          2    1    1    2  501    0 -0.19705153328E+02 -0.10641109987E+02  0.55397233385E+02  0.59752654804E+02  0.00000000000E+00 0.  1.
         -2    1    1    2    0  502  0.19705153328E+02  0.10641109987E+02  0.41350692965E+03  0.41411291596E+03  0.00000000000E+00 0. -1.
<mgrwt>
<rscale>  2 0.22394783E+02</rscale>
<asrwt>0</asrwt>
<pdfrwt beam="1">  1       21 0.72520677E-01 0.22394783E+02</pdfrwt>
<pdfrwt beam="2">  1       21 0.38164712E-03 0.22394783E+02</pdfrwt>
<totfact> 0.22612898E+07</totfact>
</mgrwt>
</event>
<event>
 4    1  0.2821610E+004  0.2091208E+02  0.7546771E-02  0.1727776E+00
         21   -1    0    0  503  502  0.00000000000E+00  0.00000000000E+00  0.98254555263E+01  0.98254555263E+01  0.00000000000E+00 0. -1.
         21   -1    0    0  501  503 -0.00000000000E+00 -0.00000000000E+00 -0.56713573964E+02  0.56713573964E+02  0.00000000000E+00 0.  1.
          2    1    1    2  501    0 -0.20596501645E+02  0.36193054678E+01 -0.38877936423E+02  0.44145319034E+02  0.00000000000E+00 0.  1.
         -2    1    1    2    0  502  0.20596501645E+02 -0.36193054678E+01 -0.80101820148E+01  0.22393710456E+02  0.00000000000E+00 0. -1.
<mgrwt>
<rscale>  2 0.20912084E+02</rscale>
<asrwt>0</asrwt>
<pdfrwt beam="1">  1       21 0.15116085E-02 0.20912084E+02</pdfrwt>
<pdfrwt beam="2">  1       21 0.87251653E-02 0.20912084E+02</pdfrwt>
<totfact> 0.13009152E+08</totfact>
</mgrwt>
</event>
<event>
 4    1  0.2821610E+004  0.2779159E+02  0.7546771E-02  0.1623866E+00
         21   -1    0    0  503  502  0.00000000000E+00  0.00000000000E+00  0.42653850676E+02  0.42653850676E+02  0.00000000000E+00 0.  1.
         21   -1    0    0  501  503 -0.00000000000E+00 -0.00000000000E+00 -0.20368868313E+02  0.20368868313E+02  0.00000000000E+00 0. -1.
          2    1    1    2  501    0  0.27694036424E+02 -0.23265078286E+01  0.64393659666E+00  0.27799045784E+02  0.00000000000E+00 0.  1.
         -2    1    1    2    0  502 -0.27694036424E+02  0.23265078286E+01  0.21641045766E+02  0.35223673204E+02  0.00000000000E+00 0. -1.
<mgrwt>
<rscale>  2 0.27791587E+02</rscale>
<asrwt>0</asrwt>
<pdfrwt beam="1">  1       21 0.65621309E-02 0.27791587E+02</pdfrwt>
<pdfrwt beam="2">  1       21 0.31336721E-02 0.27791587E+02</pdfrwt>
<totfact> 0.72730035E+07</totfact>
</mgrwt>
</event>
<event>
 4    1  0.2821610E+004  0.3397389E+02  0.7546771E-02  0.1557906E+00
         21   -1    0    0  501  502  0.00000000000E+00  0.00000000000E+00  0.17027526546E+02  0.17027526546E+02  0.00000000000E+00 0. -1.
         21   -1    0    0  502  503 -0.00000000000E+00 -0.00000000000E+00 -0.84637070431E+02  0.84637070431E+02  0.00000000000E+00 0.  1.
          2    1    1    2  501    0  0.49976022757E+01  0.33604302251E+02 -0.11123089325E+02  0.35748402404E+02  0.00000000000E+00 0. -1.
         -2    1    1    2    0  503 -0.49976022757E+01 -0.33604302251E+02 -0.56486454560E+02  0.65916194573E+02  0.00000000000E+00 0.  1.
<mgrwt>
<rscale>  2 0.33973889E+02</rscale>
<asrwt>0</asrwt>
<pdfrwt beam="1">  1       21 0.26196194E-02 0.33973889E+02</pdfrwt>
<pdfrwt beam="2">  1       21 0.13021088E-01 0.33973889E+02</pdfrwt>
<totfact> 0.32151703E+07</totfact>
</mgrwt>
</event>
<event>
 4    1  0.2821610E+004  0.2894643E+02  0.7546771E-02  0.1610035E+00
         21   -1    0    0  501  502  0.00000000000E+00  0.00000000000E+00  0.18496787709E+03  0.18496787709E+03  0.00000000000E+00 0. -1.
         21   -1    0    0  502  503 -0.00000000000E+00 -0.00000000000E+00 -0.49177647986E+01  0.49177647986E+01  0.00000000000E+00 0.  1.
          2    1    1    2  501    0  0.28216156433E+02 -0.64609804220E+01  0.11668682002E+03  0.12022358220E+03  0.00000000000E+00 0. -1.
         -2    1    1    2    0  503 -0.28216156433E+02  0.64609804220E+01  0.63363292275E+02  0.69662059687E+02  0.00000000000E+00 0.  1.
<mgrwt>
<rscale>  2 0.28946429E+02</rscale>
<asrwt>0</asrwt>
<pdfrwt beam="1">  1       21 0.28456591E-01 0.28946429E+02</pdfrwt>
<pdfrwt beam="2">  1       21 0.75657934E-03 0.28946429E+02</pdfrwt>
<totfact> 0.52720875E+07</totfact>
</mgrwt>
</event>
<event>
 4    1  0.2821610E+004  0.2090912E+02  0.7546771E-02  0.1727831E+00
         21   -1    0    0  503  502  0.00000000000E+00  0.00000000000E+00  0.32077063111E+02  0.32077063111E+02  0.00000000000E+00 0.  1.
         21   -1    0    0  501  503 -0.00000000000E+00 -0.00000000000E+00 -0.15197435175E+02  0.15197435175E+02  0.00000000000E+00 0. -1.
          2    1    1    2  501    0 -0.12611860607E+02 -0.16677293375E+02  0.84722998652E+00  0.20926273938E+02  0.00000000000E+00 0. -1.
         -2    1    1    2    0  502  0.12611860607E+02  0.16677293375E+02  0.16032397949E+02  0.26348224348E+02  0.00000000000E+00 0.  1.
<mgrwt>
<rscale>  2 0.20909116E+02</rscale>
<asrwt>0</asrwt>
<pdfrwt beam="1">  1       21 0.49349328E-02 0.20909116E+02</pdfrwt>
<pdfrwt beam="2">  1       21 0.23380670E-02 0.20909116E+02</pdfrwt>
<totfact> 0.16718322E+08</totfact>
</mgrwt>
</event>
<event>
 4    1  0.2821610E+004  0.2696552E+02  0.7546771E-02  0.1634276E+00
         21   -1    0    0  503  502  0.00000000000E+00  0.00000000000E+00  0.52473082718E+02  0.52473082718E+02  0.00000000000E+00 0. -1.
         21   -1    0    0  501  503 -0.00000000000E+00 -0.00000000000E+00 -0.20067572153E+02  0.20067572153E+02  0.00000000000E+00 0.  1.
          2    1    1    2  501    0  0.23192108207E+02 -0.13757378657E+02 -0.39742469916E+01  0.27256815474E+02  0.00000000000E+00 0.  1.
         -2    1    1    2    0  502 -0.23192108207E+02  0.13757378657E+02  0.36379757557E+02  0.45283839397E+02  0.00000000000E+00 0. -1.
<mgrwt>
<rscale>  2 0.26965522E+02</rscale>
<asrwt>0</asrwt>
<pdfrwt beam="1">  1       21 0.80727819E-02 0.26965522E+02</pdfrwt>
<pdfrwt beam="2">  1       21 0.30873188E-02 0.26965522E+02</pdfrwt>
<totfact> 0.52678169E+07</totfact>
</mgrwt>
</event>
<event>
 4    1  0.2821610E+004  0.2779369E+02  0.7546771E-02  0.1623840E+00
         21   -1    0    0  501  502  0.00000000000E+00  0.00000000000E+00  0.10514655302E+04  0.10514655302E+04  0.00000000000E+00 0.  1.
         21   -1    0    0  502  503 -0.00000000000E+00 -0.00000000000E+00 -0.10379350060E+01  0.10379350060E+01  0.00000000000E+00 0. -1.
          2    1    1    2  501    0  0.18998833718E+02 -0.20286290739E+02  0.80966869549E+03  0.81014559539E+03  0.00000000000E+00 0.  1.
         -2    1    1    2    0  503 -0.18998833718E+02  0.20286290739E+02  0.24075889967E+03  0.24235786978E+03  0.00000000000E+00 0. -1.
<mgrwt>
<rscale>  2 0.27793691E+02</rscale>
<asrwt>0</asrwt>
<pdfrwt beam="1">  1       21 0.16176308E+00 0.27793691E+02</pdfrwt>
<pdfrwt beam="2">  1       21 0.15968315E-03 0.27793691E+02</pdfrwt>
<totfact> 0.13866342E+07</totfact>
</mgrwt>
</event>
<event>
 4    1  0.2821610E+004  0.2069447E+02  0.7546771E-02  0.1731860E+00
         21   -1    0    0  503  502  0.00000000000E+00  0.00000000000E+00  0.42424656149E+03  0.42424656149E+03  0.00000000000E+00 0. -1.
         21   -1    0    0  501  503 -0.00000000000E+00 -0.00000000000E+00 -0.11391663282E+01  0.11391663282E+01  0.00000000000E+00 0.  1.
          2    1    1    2  501    0 -0.19432592143E+02  0.71158561205E+01  0.13978492072E+03  0.14130847500E+03  0.00000000000E+00 0.  1.
         -2    1    1    2    0  502  0.19432592143E+02 -0.71158561205E+01  0.28332247444E+03  0.28407725281E+03  0.00000000000E+00 0. -1.
<mgrwt>
<rscale>  2 0.20694469E+02</rscale>
<asrwt>0</asrwt>
<pdfrwt beam="1">  1       21 0.65268576E-01 0.20694469E+02</pdfrwt>
<pdfrwt beam="2">  1       21 0.17525670E-03 0.20694469E+02</pdfrwt>
<totfact> 0.85007132E+07</totfact>
</mgrwt>
</event>
<event>
 4    1  0.2821610E+004  0.2921643E+02  0.7546771E-02  0.1606915E+00
         21   -1    0    0  501  502  0.00000000000E+00  0.00000000000E+00  0.71721717544E+01  0.71721717544E+01  0.00000000000E+00 0. -1.
         21   -1    0    0  502  503 -0.00000000000E+00 -0.00000000000E+00 -0.15949288348E+03  0.15949288348E+03  0.00000000000E+00 0.  1.
          2    1    1    2  501    0 -0.24187080129E+02 -0.16388554459E+02 -0.34179610095E+02  0.44964934212E+02  0.00000000000E+00 0. -1.
         -2    1    1    2    0  503  0.24187080129E+02  0.16388554459E+02 -0.11814110163E+03  0.12170012102E+03  0.00000000000E+00 0.  1.
<mgrwt>
<rscale>  2 0.29216426E+02</rscale>
<asrwt>0</asrwt>
<pdfrwt beam="1">  1       21 0.11034112E-02 0.29216426E+02</pdfrwt>
<pdfrwt beam="2">  1       21 0.24537363E-01 0.29216426E+02</pdfrwt>
<totfact> 0.39077571E+07</totfact>
</mgrwt>
</event>
<event>
 4    1  0.2821610E+004  0.2231813E+02  0.7546771E-02  0.1702808E+00
         21   -1    0    0  503  502  0.00000000000E+00  0.00000000000E+00  0.20763320647E+03  0.20763320647E+03  0.00000000000E+00 0. -1.
         21   -1    0    0  501  503 -0.00000000000E+00 -0.00000000000E+00 -0.29955363291E+01  0.29955363291E+01  0.00000000000E+00 0.  1.
          2    1    1    2  501    0 -0.84227966241E+01 -0.20667733698E+02  0.55319449064E+02  0.59651824481E+02  0.00000000000E+00 0. -1.
         -2    1    1    2    0  502  0.84227966241E+01  0.20667733698E+02  0.14931822108E+03  0.15097691832E+03  0.00000000000E+00 0.  1.
<mgrwt>
<rscale>  2 0.22318125E+02</rscale>
<asrwt>0</asrwt>
<pdfrwt beam="1">  1       21 0.31943559E-01 0.22318125E+02</pdfrwt>
<pdfrwt beam="2">  1       21 0.46085190E-03 0.22318125E+02</pdfrwt>
<totfact> 0.83751213E+07</totfact>
</mgrwt>
</event>
<event>
 4    1  0.2821610E+004  0.2336209E+02  0.7546771E-02  0.1685707E+00
         21   -1    0    0  501  502  0.00000000000E+00  0.00000000000E+00  0.10490594131E+01  0.10490594131E+01  0.00000000000E+00 0. -1.
         21   -1    0    0  502  503 -0.00000000000E+00 -0.00000000000E+00 -0.56632792060E+03  0.56632792060E+03  0.00000000000E+00 0.  1.
          2    1    1    2  501    0 -0.15919884276E+02  0.17098085649E+02 -0.20173154214E+03  0.20307979305E+03  0.00000000000E+00 0.  1.
         -2    1    1    2    0  503  0.15919884276E+02 -0.17098085649E+02 -0.36354731904E+03  0.36429718697E+03  0.00000000000E+00 0. -1.
<mgrwt>
<rscale>  2 0.23362090E+02</rscale>
<asrwt>0</asrwt>
<pdfrwt beam="1">  1       21 0.16139393E-03 0.23362090E+02</pdfrwt>
<pdfrwt beam="2">  1       21 0.87127277E-01 0.23362090E+02</pdfrwt>
<totfact> 0.54146809E+07</totfact>
</mgrwt>
</event>
<event>
 4    1  0.2821610E+004  0.2028278E+02  0.7546771E-02  0.1739762E+00
         21   -1    0    0  501  502  0.00000000000E+00  0.00000000000E+00  0.32870736102E+01  0.32870736102E+01  0.00000000000E+00 0.  1.
         21   -1    0    0  502  503 -0.00000000000E+00 -0.00000000000E+00 -0.28244156222E+03  0.28244156222E+03  0.00000000000E+00 0. -1.
          2    1    1    2  501    0 -0.26931430400E+01 -0.20103183650E+02 -0.32965166498E+02  0.38705209140E+02  0.00000000000E+00 0.  1.
         -2    1    1    2    0  503  0.26931430400E+01  0.20103183650E+02 -0.24618932211E+03  0.24702342669E+03  0.00000000000E+00 0. -1.
<mgrwt>
<rscale>  2 0.20282776E+02</rscale>
<asrwt>0</asrwt>
<pdfrwt beam="1">  1       21 0.50570353E-03 0.20282776E+02</pdfrwt>
<pdfrwt beam="2">  1       21 0.43452557E-01 0.20282776E+02</pdfrwt>
<totfact> 0.40225714E+07</totfact>
</mgrwt>
</event>
<event>
 4    1  0.2821610E+004  0.2228246E+02  0.7546771E-02  0.1703412E+00
         21   -1    0    0  503  502  0.00000000000E+00  0.00000000000E+00  0.74179727266E+02  0.74179727266E+02  0.00000000000E+00 0. -1.
         21   -1    0    0  501  503 -0.00000000000E+00 -0.00000000000E+00 -0.68111795498E+01  0.68111795498E+01  0.00000000000E+00 0.  1.
          2    1    1    2  501    0  0.22274661849E+02 -0.58942481646E+00  0.28357133611E+02  0.36064317667E+02  0.00000000000E+00 0.  1.
         -2    1    1    2    0  502 -0.22274661849E+02  0.58942481646E+00  0.39011414105E+02  0.44926589149E+02  0.00000000000E+00 0. -1.
<mgrwt>
<rscale>  2 0.22282459E+02</rscale>
<asrwt>0</asrwt>
<pdfrwt beam="1">  1       21 0.11412265E-01 0.22282459E+02</pdfrwt>
<pdfrwt beam="2">  1       21 0.10478738E-02 0.22282459E+02</pdfrwt>
<totfact> 0.14799298E+08</totfact>
</mgrwt>
</event>
<event>
 4    1  0.2821610E+004  0.2358651E+02  0.7546771E-02  0.1682176E+00
         21   -1    0    0  503  502  0.00000000000E+00  0.00000000000E+00  0.63314838948E+01  0.63314838948E+01  0.00000000000E+00 0.  1.
         21   -1    0    0  501  503 -0.00000000000E+00 -0.00000000000E+00 -0.17241554424E+03  0.17241554424E+03  0.00000000000E+00 0. -1.
          2    1    1    2  501    0 -0.14173244539E+02  0.18853179035E+02 -0.14562783370E+03  0.14752555429E+03  0.00000000000E+00 0. -1.
         -2    1    1    2    0  502  0.14173244539E+02 -0.18853179035E+02 -0.20456226646E+02  0.31221473846E+02  0.00000000000E+00 0.  1.
<mgrwt>
<rscale>  2 0.23586505E+02</rscale>
<asrwt>0</asrwt>
<pdfrwt beam="1">  1       21 0.97407446E-03 0.23586505E+02</pdfrwt>
<pdfrwt beam="2">  1       21 0.26525468E-01 0.23586505E+02</pdfrwt>
<totfact> 0.39118962E+07</totfact>
</mgrwt>
</event>
<event>
 4    1  0.2821610E+004  0.3883615E+02  0.7546771E-02  0.1516955E+00
         21   -1    0    0  501  502  0.00000000000E+00  0.00000000000E+00  0.18121833251E+03  0.18121833251E+03  0.00000000000E+00 0.  1.
         21   -1    0    0  502  503 -0.00000000000E+00 -0.00000000000E+00 -0.14654227498E+02  0.14654227498E+02  0.00000000000E+00 0. -1.
          2    1    1    2  501    0  0.38577739016E+02  0.44726708713E+01  0.14765633912E+03  0.15267822770E+03  0.00000000000E+00 0.  1.
         -2    1    1    2    0  503 -0.38577739016E+02 -0.44726708713E+01  0.18907765896E+02  0.43194332308E+02  0.00000000000E+00 0. -1.
<mgrwt>
<rscale>  2 0.38836152E+02</rscale>
<asrwt>0</asrwt>
<pdfrwt beam="1">  1       21 0.27879742E-01 0.38836152E+02</pdfrwt>
<pdfrwt beam="2">  1       21 0.22544967E-02 0.38836152E+02</pdfrwt>
<totfact> 0.10797316E+07</totfact>
</mgrwt>
</event>
<event>
 4    1  0.2821610E+004  0.2836838E+02  0.7546771E-02  0.1616857E+00
         21   -1    0    0  501  502  0.00000000000E+00  0.00000000000E+00  0.10881708095E+04  0.10881708095E+04  0.00000000000E+00 0. -1.
         21   -1    0    0  502  503 -0.00000000000E+00 -0.00000000000E+00 -0.20917847449E+01  0.20917847449E+01  0.00000000000E+00 0.  1.
          2    1    1    2  501    0 -0.27118347981E+02 -0.83282686281E+01  0.98133547067E+03  0.98174542059E+03  0.00000000000E+00 0. -1.
         -2    1    1    2    0  503  0.27118347981E+02  0.83282686281E+01  0.10474355409E+03  0.10851717366E+03  0.00000000000E+00 0.  1.
<mgrwt>
<rscale>  2 0.28368378E+02</rscale>
<asrwt>0</asrwt>
<pdfrwt beam="1">  1       21 0.16741044E+00 0.28368378E+02</pdfrwt>
<pdfrwt beam="2">  1       21 0.32181391E-03 0.28368378E+02</pdfrwt>
<totfact> 0.46002125E+06</totfact>
</mgrwt>
</event>
<event>
 4    1  0.2821610E+004  0.2584318E+02  0.7546771E-02  0.1649178E+00
         21   -1    0    0  501  502  0.00000000000E+00  0.00000000000E+00  0.15639667386E+02  0.15639667386E+02  0.00000000000E+00 0. -1.
         21   -1    0    0  502  503 -0.00000000000E+00 -0.00000000000E+00 -0.50105422112E+02  0.50105422112E+02  0.00000000000E+00 0.  1.
          2    1    1    2  501    0 -0.99007345247E+01 -0.23871432472E+02 -0.45982980294E+01  0.26249079549E+02  0.00000000000E+00 0. -1.
         -2    1    1    2    0  503  0.99007345247E+01  0.23871432472E+02 -0.29867456697E+02  0.39496009949E+02  0.00000000000E+00 0.  1.
<mgrwt>
<rscale>  2 0.25843178E+02</rscale>
<asrwt>0</asrwt>
<pdfrwt beam="1">  1       21 0.24061026E-02 0.25843178E+02</pdfrwt>
<pdfrwt beam="2">  1       21 0.77085267E-02 0.25843178E+02</pdfrwt>
<totfact> 0.82944577E+07</totfact>
</mgrwt>
</event>
<event>
 4    1  0.2821610E+004  0.2230481E+02  0.7546771E-02  0.1703033E+00
         21   -1    0    0  501  502  0.00000000000E+00  0.00000000000E+00  0.51860955652E+02  0.51860955652E+02  0.00000000000E+00 0. -1.
         21   -1    0    0  502  503 -0.00000000000E+00 -0.00000000000E+00 -0.11459669471E+02  0.11459669471E+02  0.00000000000E+00 0.  1.
          2    1    1    2  501    0  0.19737217734E+02  0.10389751439E+02  0.32978474151E+02  0.39813119146E+02  0.00000000000E+00 0. -1.
         -2    1    1    2    0  503 -0.19737217734E+02 -0.10389751439E+02  0.74228120303E+01  0.23507505977E+02  0.00000000000E+00 0.  1.
<mgrwt>
<rscale>  2 0.22304813E+02</rscale>
<asrwt>0</asrwt>
<pdfrwt beam="1">  1       21 0.79786084E-02 0.22304813E+02</pdfrwt>
<pdfrwt beam="2">  1       21 0.17630261E-02 0.22304813E+02</pdfrwt>
<totfact> 0.12144423E+08</totfact>
</mgrwt>
</event>
<event>
 4    1  0.2821610E+004  0.2347524E+02  0.7546771E-02  0.1683920E+00
         21   -1    0    0  503  502  0.00000000000E+00  0.00000000000E+00  0.90053506818E+02  0.90053506818E+02  0.00000000000E+00 0.  1.
         21   -1    0    0  501  503 -0.00000000000E+00 -0.00000000000E+00 -0.63885936011E+01  0.63885936011E+01  0.00000000000E+00 0. -1.
          2    1    1    2  501    0  0.76853062386E+01 -0.22181595831E+02  0.31936821267E+02  0.39636443814E+02  0.00000000000E+00 0. -1.
         -2    1    1    2    0  502 -0.76853062386E+01  0.22181595831E+02  0.51728091950E+02  0.56805656605E+02  0.00000000000E+00 0.  1.
<mgrwt>
<rscale>  2 0.23475245E+02</rscale>
<asrwt>0</asrwt>
<pdfrwt beam="1">  1       21 0.13854385E-01 0.23475245E+02</pdfrwt>
<pdfrwt beam="2">  1       21 0.98286062E-03 0.23475245E+02</pdfrwt>
<totfact> 0.11945593E+08</totfact>
</mgrwt>
</event>
<event>
 4    1  0.2821610E+004  0.2275985E+02  0.7546771E-02  0.1695433E+00
         21   -1    0    0  503  502  0.00000000000E+00  0.00000000000E+00  0.15665431580E+01  0.15665431580E+01  0.00000000000E+00 0. -1.
         21   -1    0    0  501  503 -0.00000000000E+00 -0.00000000000E+00 -0.34151584453E+03  0.34151584453E+03  0.00000000000E+00 0.  1.
          2    1    1    2  501    0  0.18220618012E+02  0.13638915769E+02 -0.20054269225E+03  0.20183008289E+03  0.00000000000E+00 0. -1.
         -2    1    1    2    0  502 -0.18220618012E+02 -0.13638915769E+02 -0.13940660911E+03  0.14125230479E+03  0.00000000000E+00 0.  1.
<mgrwt>
<rscale>  2 0.22759854E+02</rscale>
<asrwt>0</asrwt>
<pdfrwt beam="1">  1       21 0.24100659E-03 0.22759854E+02</pdfrwt>
<pdfrwt beam="2">  1       21 0.52540909E-01 0.22759854E+02</pdfrwt>
<totfact> 0.84660484E+07</totfact>
</mgrwt>
</event>
<event>
 4    1  0.2821610E+004  0.2338066E+02  0.7546771E-02  0.1685413E+00
         21   -1    0    0  503  502  0.00000000000E+00  0.00000000000E+00  0.33013594383E+01  0.33013594383E+01  0.00000000000E+00 0.  1.
         21   -1    0    0  501  503 -0.00000000000E+00 -0.00000000000E+00 -0.16624820341E+03  0.16624820341E+03  0.00000000000E+00 0. -1.
          2    1    1    2  501    0  0.15353388568E+02  0.17633169289E+02 -0.76118519968E+02  0.79628413784E+02  0.00000000000E+00 0. -1.
         -2    1    1    2    0  502 -0.15353388568E+02 -0.17633169289E+02 -0.86828324004E+02  0.89921149064E+02  0.00000000000E+00 0.  1.
<mgrwt>
<rscale>  2 0.23380659E+02</rscale>
<asrwt>0</asrwt>
<pdfrwt beam="1">  1       21 0.50790132E-03 0.23380659E+02</pdfrwt>
<pdfrwt beam="2">  1       21 0.25576653E-01 0.23380659E+02</pdfrwt>
<totfact> 0.10986016E+08</totfact>
</mgrwt>
</event>
<event>
 4    1  0.2821610E+004  0.2331033E+02  0.7546771E-02  0.1686529E+00
         21   -1    0    0  501  502  0.00000000000E+00  0.00000000000E+00  0.23141608388E+04  0.23141608388E+04  0.00000000000E+00 0.  1.
         21   -1    0    0  502  503 -0.00000000000E+00 -0.00000000000E+00 -0.26018229768E+00  0.26018229768E+00  0.00000000000E+00 0. -1.
          2    1    1    2  501    0  0.10735655205E+02 -0.20690987830E+02  0.15183732177E+04  0.15185521393E+04  0.00000000000E+00 0.  1.
         -2    1    1    2    0  503 -0.10735655205E+02  0.20690987830E+02  0.79552743875E+03  0.79586888183E+03  0.00000000000E+00 0. -1.
<mgrwt>
<rscale>  2 0.23310325E+02</rscale>
<asrwt>0</asrwt>
<pdfrwt beam="1">  1       21 0.35600826E+00 0.23310325E+02</pdfrwt>
<pdfrwt beam="2">  1       21 0.40029899E-04 0.23310325E+02</pdfrwt>
<totfact> 0.94174768E+06</totfact>
</mgrwt>
</event>
<event>
 4    1  0.2821610E+004  0.2444656E+02  0.7546771E-02  0.1669081E+00
         21   -1    0    0  501  502  0.00000000000E+00  0.00000000000E+00  0.23786497050E+02  0.23786497050E+02  0.00000000000E+00 0. -1.
         21   -1    0    0  502  503 -0.00000000000E+00 -0.00000000000E+00 -0.25927248713E+02  0.25927248713E+02  0.00000000000E+00 0.  1.
          2    1    1    2  501    0  0.11052268572E+02  0.21805544124E+02  0.33022072875E+01  0.24668582612E+02  0.00000000000E+00 0. -1.
         -2    1    1    2    0  503 -0.11052268572E+02 -0.21805544124E+02 -0.54429589510E+01  0.25045163151E+02  0.00000000000E+00 0.  1.
<mgrwt>
<rscale>  2 0.24446562E+02</rscale>
<asrwt>0</asrwt>
<pdfrwt beam="1">  1       21 0.36594611E-02 0.24446562E+02</pdfrwt>
<pdfrwt beam="2">  1       21 0.39888075E-02 0.24446562E+02</pdfrwt>
<totfact> 0.12233032E+08</totfact>
</mgrwt>
</event>
<event>
 4    1  0.2821610E+004  0.2122273E+02  0.7546771E-02  0.1722052E+00
         21   -1    0    0  501  502  0.00000000000E+00  0.00000000000E+00  0.15070062917E+03  0.15070062917E+03  0.00000000000E+00 0.  1.
         21   -1    0    0  502  503 -0.00000000000E+00 -0.00000000000E+00 -0.12454873871E+02  0.12454873871E+02  0.00000000000E+00 0. -1.
          2    1    1    2  501    0  0.19328541490E+02  0.87642200204E+01  0.14024235011E+03  0.14183906667E+03  0.00000000000E+00 0.  1.
         -2    1    1    2    0  503 -0.19328541490E+02 -0.87642200204E+01 -0.19965948143E+01  0.21316436370E+02  0.00000000000E+00 0. -1.
<mgrwt>
<rscale>  2 0.21222725E+02</rscale>
<asrwt>0</asrwt>
<pdfrwt beam="1">  1       21 0.23184711E-01 0.21222725E+02</pdfrwt>
<pdfrwt beam="2">  1       21 0.19161346E-02 0.21222725E+02</pdfrwt>
<totfact> 0.17418656E+07</totfact>
</mgrwt>
</event>
<event>
 4    1  0.2821610E+004  0.2690903E+02  0.7546771E-02  0.1635005E+00
         21   -1    0    0  501  502  0.00000000000E+00  0.00000000000E+00  0.17439760825E+02  0.17439760825E+02  0.00000000000E+00 0. -1.
         21   -1    0    0  502  503 -0.00000000000E+00 -0.00000000000E+00 -0.43018932226E+03  0.43018932226E+03  0.00000000000E+00 0.  1.
          2    1    1    2  501    0  0.24452305212E+02  0.11233020078E+02  0.63650018104E+01  0.27651568099E+02  0.00000000000E+00 0. -1.
         -2    1    1    2    0  503 -0.24452305212E+02 -0.11233020078E+02 -0.41911456325E+03  0.41997751499E+03  0.00000000000E+00 0.  1.
<mgrwt>
<rscale>  2 0.26909031E+02</rscale>
<asrwt>0</asrwt>
<pdfrwt beam="1">  1       21 0.26830400E-02 0.26909031E+02</pdfrwt>
<pdfrwt beam="2">  1       21 0.66182976E-01 0.26909031E+02</pdfrwt>
<totfact> 0.14810805E+06</totfact>
</mgrwt>
</event>
<event>
 4    1  0.2821610E+004  0.2277246E+02  0.7546771E-02  0.1695225E+00
         21   -1    0    0  503  502  0.00000000000E+00  0.00000000000E+00  0.94827730733E+00  0.94827730733E+00  0.00000000000E+00 0.  1.
         21   -1    0    0  501  503 -0.00000000000E+00 -0.00000000000E+00 -0.78503541938E+03  0.78503541938E+03  0.00000000000E+00 0. -1.
          2    1    1    2  501    0 -0.15800595890E+02 -0.16398968395E+02 -0.60850359732E+03  0.60892956320E+03  0.00000000000E+00 0. -1.
         -2    1    1    2    0  502  0.15800595890E+02  0.16398968395E+02 -0.17558354475E+03  0.17705413348E+03  0.00000000000E+00 0.  1.
<mgrwt>
<rscale>  2 0.22772461E+02</rscale>
<asrwt>0</asrwt>
<pdfrwt beam="1">  1       21 0.14588908E-03 0.22772461E+02</pdfrwt>
<pdfrwt beam="2">  1       21 0.12077446E+00 0.22772461E+02</pdfrwt>
<totfact> 0.30376905E+07</totfact>
</mgrwt>
</event>
<event>
 4    1  0.2821610E+004  0.3146709E+02  0.7546771E-02  0.1582416E+00
         21   -1    0    0  501  502  0.00000000000E+00  0.00000000000E+00  0.20108405119E+03  0.20108405119E+03  0.00000000000E+00 0. -1.
         21   -1    0    0  502  503 -0.00000000000E+00 -0.00000000000E+00 -0.50409248472E+01  0.50409248472E+01  0.00000000000E+00 0.  1.
          2    1    1    2  501    0 -0.10340896682E+02 -0.29719415562E+02  0.11370458521E+03  0.11797843236E+03  0.00000000000E+00 0.  1.
         -2    1    1    2    0  503  0.10340896682E+02  0.29719415562E+02  0.82338541139E+02  0.88146543678E+02  0.00000000000E+00 0. -1.
<mgrwt>
<rscale>  2 0.31467091E+02</rscale>
<asrwt>0</asrwt>
<pdfrwt beam="1">  1       21 0.30936002E-01 0.31467091E+02</pdfrwt>
<pdfrwt beam="2">  1       21 0.77552705E-03 0.31467091E+02</pdfrwt>
<totfact> 0.44325038E+07</totfact>
</mgrwt>
</event>
<event>
 4    1  0.2821610E+004  0.2098248E+02  0.7546771E-02  0.1726468E+00
         21   -1    0    0  501  502  0.00000000000E+00  0.00000000000E+00  0.59262409343E+02  0.59262409343E+02  0.00000000000E+00 0. -1.
         21   -1    0    0  502  503 -0.00000000000E+00 -0.00000000000E+00 -0.96347868908E+02  0.96347868908E+02  0.00000000000E+00 0.  1.
          2    1    1    2  501    0 -0.19731768913E+02  0.71359488083E+01  0.56202593706E+02  0.59991632826E+02  0.00000000000E+00 0. -1.
         -2    1    1    2    0  503  0.19731768913E+02 -0.71359488083E+01 -0.93288053270E+02  0.95618645425E+02  0.00000000000E+00 0.  1.
<mgrwt>
<rscale>  2 0.20982480E+02</rscale>
<asrwt>0</asrwt>
<pdfrwt beam="1">  1       21 0.91172937E-02 0.20982480E+02</pdfrwt>
<pdfrwt beam="2">  1       21 0.14822749E-01 0.20982480E+02</pdfrwt>
<totfact> 0.32183467E+06</totfact>
</mgrwt>
</event>
<event>
 4    1  0.2821610E+004  0.2195365E+02  0.7546771E-02  0.1709055E+00
         21   -1    0    0  503  502  0.00000000000E+00  0.00000000000E+00  0.19923914162E+02  0.19923914162E+02  0.00000000000E+00 0.  1.
         21   -1    0    0  501  503 -0.00000000000E+00 -0.00000000000E+00 -0.47070811988E+02  0.47070811988E+02  0.00000000000E+00 0. -1.
          2    1    1    2  501    0  0.16834309164E+02 -0.14091439734E+02 -0.36927863678E+02  0.42960793226E+02  0.00000000000E+00 0. -1.
         -2    1    1    2    0  502 -0.16834309164E+02  0.14091439734E+02  0.97809658512E+01  0.24033932924E+02  0.00000000000E+00 0.  1.
<mgrwt>
<rscale>  2 0.21953648E+02</rscale>
<asrwt>0</asrwt>
<pdfrwt beam="1">  1       21 0.30652176E-02 0.21953648E+02</pdfrwt>
<pdfrwt beam="2">  1       21 0.72416633E-02 0.21953648E+02</pdfrwt>
<totfact> 0.60363638E+07</totfact>
</mgrwt>
</event>
<event>
 4    1  0.2821610E+004  0.2131036E+02  0.7546771E-02  0.1720459E+00
         21   -1    0    0  501  502  0.00000000000E+00  0.00000000000E+00  0.14310513064E+03  0.14310513064E+03  0.00000000000E+00 0. -1.
         21   -1    0    0  502  503 -0.00000000000E+00 -0.00000000000E+00 -0.54515902408E+01  0.54515902408E+01  0.00000000000E+00 0.  1.
          2    1    1    2  501    0 -0.11861219710E+02 -0.17704324826E+02  0.11684371036E+03  0.11877114255E+03  0.00000000000E+00 0. -1.
         -2    1    1    2    0  503  0.11861219710E+02  0.17704324826E+02  0.20809830037E+02  0.29785578335E+02  0.00000000000E+00 0.  1.
<mgrwt>
<rscale>  2 0.21310365E+02</rscale>
<asrwt>0</asrwt>
<pdfrwt beam="1">  1       21 0.22016171E-01 0.21310365E+02</pdfrwt>
<pdfrwt beam="2">  1       21 0.83870630E-03 0.21310365E+02</pdfrwt>
<totfact> 0.66398526E+07</totfact>
</mgrwt>
</event>
<event>
 4    1  0.2821610E+004  0.2221816E+02  0.7546771E-02  0.1704506E+00
         21   -1    0    0  503  502  0.00000000000E+00  0.00000000000E+00  0.55802600980E+02  0.55802600980E+02  0.00000000000E+00 0.  1.
         21   -1    0    0  501  503 -0.00000000000E+00 -0.00000000000E+00 -0.13530928934E+02  0.13530928934E+02  0.00000000000E+00 0. -1.
          2    1    1    2  501    0 -0.12010596489E+02  0.18692029987E+02  0.73785325401E+00  0.22230403516E+02  0.00000000000E+00 0. -1.
         -2    1    1    2    0  502  0.12010596489E+02 -0.18692029987E+02  0.41533818791E+02  0.47103126398E+02  0.00000000000E+00 0.  1.
<mgrwt>
<rscale>  2 0.22218155E+02</rscale>
<asrwt>0</asrwt>
<pdfrwt beam="1">  1       21 0.85850154E-02 0.22218155E+02</pdfrwt>
<pdfrwt beam="2">  1       21 0.20816814E-02 0.22218155E+02</pdfrwt>
<totfact> 0.83470593E+07</totfact>
</mgrwt>
</event>
<event>
 4    1  0.2821610E+004  0.2186868E+02  0.7546771E-02  0.1710533E+00
         21   -1    0    0  501  502  0.00000000000E+00  0.00000000000E+00  0.11504522578E+02  0.11504522578E+02  0.00000000000E+00 0. -1.
         21   -1    0    0  502  503 -0.00000000000E+00 -0.00000000000E+00 -0.41572565600E+02  0.41572565600E+02  0.00000000000E+00 0.  1.
          2    1    1    2  501    0  0.10970864532E+02 -0.18917698988E+02 -0.15255517469E+02  0.26664021017E+02  0.00000000000E+00 0. -1.
         -2    1    1    2    0  503 -0.10970864532E+02  0.18917698988E+02 -0.14812525553E+02  0.26413067160E+02  0.00000000000E+00 0.  1.
<mgrwt>
<rscale>  2 0.21868681E+02</rscale>
<asrwt>0</asrwt>
<pdfrwt beam="1">  1       21 0.17699266E-02 0.21868681E+02</pdfrwt>
<pdfrwt beam="2">  1       21 0.63957793E-02 0.21868681E+02</pdfrwt>
<totfact> 0.17164692E+08</totfact>
</mgrwt>
</event>
<event>
 4    1  0.2821610E+004  0.2080431E+02  0.7546771E-02  0.1729791E+00
         21   -1    0    0  503  502  0.00000000000E+00  0.00000000000E+00  0.14387937115E+02  0.14387937115E+02  0.00000000000E+00 0.  1.
         21   -1    0    0  501  503 -0.00000000000E+00 -0.00000000000E+00 -0.36235740446E+02  0.36235740446E+02  0.00000000000E+00 0. -1.
          2    1    1    2  501    0 -0.20648084586E+02  0.25447984135E+01 -0.21354785368E+02  0.29813524685E+02  0.00000000000E+00 0. -1.
         -2    1    1    2    0  502  0.20648084586E+02 -0.25447984135E+01 -0.49301796297E+00  0.20810152877E+02  0.00000000000E+00 0.  1.
<mgrwt>
<rscale>  2 0.20804312E+02</rscale>
<asrwt>0</asrwt>
<pdfrwt beam="1">  1       21 0.22135288E-02 0.20804312E+02</pdfrwt>
<pdfrwt beam="2">  1       21 0.55747292E-02 0.20804312E+02</pdfrwt>
<totfact> 0.14958062E+08</totfact>
</mgrwt>
</event>
<event>
 4    1  0.2821610E+004  0.3360764E+02  0.7546771E-02  0.1561324E+00
         21   -1    0    0  501  502  0.00000000000E+00  0.00000000000E+00  0.36151001052E+02  0.36151001052E+02  0.00000000000E+00 0. -1.
         21   -1    0    0  502  503 -0.00000000000E+00 -0.00000000000E+00 -0.31515308531E+02  0.31515308531E+02  0.00000000000E+00 0.  1.
          2    1    1    2  501    0 -0.23279855605E+02 -0.24238846684E+02  0.54615655008E+01  0.34048525127E+02  0.00000000000E+00 0. -1.
         -2    1    1    2    0  503  0.23279855605E+02  0.24238846684E+02 -0.82587297979E+00  0.33617784457E+02  0.00000000000E+00 0.  1.
<mgrwt>
<rscale>  2 0.33607639E+02</rscale>
<asrwt>0</asrwt>
<pdfrwt beam="1">  1       21 0.55616925E-02 0.33607639E+02</pdfrwt>
<pdfrwt beam="2">  1       21 0.48485090E-02 0.33607639E+02</pdfrwt>
<totfact> 0.49611898E+07</totfact>
</mgrwt>
</event>
<event>
 4    1  0.2821610E+004  0.2431474E+02  0.7546771E-02  0.1671044E+00
         21   -1    0    0  503  502  0.00000000000E+00  0.00000000000E+00  0.14580585978E+02  0.14580585978E+02  0.00000000000E+00 0. -1.
         21   -1    0    0  501  503 -0.00000000000E+00 -0.00000000000E+00 -0.40629519687E+02  0.40629519687E+02  0.00000000000E+00 0.  1.
          2    1    1    2  501    0  0.57858451025E+01  0.23616317681E+02 -0.11784246798E+02  0.27019898907E+02  0.00000000000E+00 0. -1.
         -2    1    1    2    0  502 -0.57858451025E+01 -0.23616317681E+02 -0.14264686911E+02  0.28190206757E+02  0.00000000000E+00 0.  1.
<mgrwt>
<rscale>  2 0.24314738E+02</rscale>
<asrwt>0</asrwt>
<pdfrwt beam="1">  1       21 0.22431671E-02 0.24314738E+02</pdfrwt>
<pdfrwt beam="2">  1       21 0.62506952E-02 0.24314738E+02</pdfrwt>
<totfact> 0.12785882E+08</totfact>
</mgrwt>
</event>
<event>
 4    1  0.2821610E+004  0.3348378E+02  0.7546771E-02  0.1562492E+00
         21   -1    0    0  503  502  0.00000000000E+00  0.00000000000E+00  0.42651317378E+03  0.42651317378E+03  0.00000000000E+00 0.  1.
         21   -1    0    0  501  503 -0.00000000000E+00 -0.00000000000E+00 -0.26290136791E+01  0.26290136791E+01  0.00000000000E+00 0. -1.
          2    1    1    2  501    0 -0.30565086861E+02 -0.13672559014E+02  0.21438683104E+03  0.21698589062E+03  0.00000000000E+00 0.  1.
         -2    1    1    2    0  502  0.30565086861E+02  0.13672559014E+02  0.20949732906E+03  0.21215629684E+03  0.00000000000E+00 0. -1.
<mgrwt>
<rscale>  2 0.33483778E+02</rscale>
<asrwt>0</asrwt>
<pdfrwt beam="1">  1       21 0.65617356E-01 0.33483778E+02</pdfrwt>
<pdfrwt beam="2">  1       21 0.40446398E-03 0.33483778E+02</pdfrwt>
<totfact> 0.27471498E+07</totfact>
</mgrwt>
</event>
<event>
 4    1  0.2821610E+004  0.2069505E+02  0.7546771E-02  0.1731849E+00
         21   -1    0    0  501  502  0.00000000000E+00  0.00000000000E+00  0.20525360037E+01  0.20525360037E+01  0.00000000000E+00 0.  1.
         21   -1    0    0  502  503 -0.00000000000E+00 -0.00000000000E+00 -0.20951055250E+03  0.20951055250E+03  0.00000000000E+00 0. -1.
          2    1    1    2  501    0 -0.97723505666E+01 -0.18242427188E+02 -0.11046352017E+03  0.11238538283E+03  0.00000000000E+00 0. -1.
         -2    1    1    2    0  503  0.97723505666E+01  0.18242427188E+02 -0.96994496327E+02  0.99177705675E+02  0.00000000000E+00 0.  1.
<mgrwt>
<rscale>  2 0.20695047E+02</rscale>
<asrwt>0</asrwt>
<pdfrwt beam="1">  1       21 0.31577496E-03 0.20695047E+02</pdfrwt>
<pdfrwt beam="2">  1       21 0.32232373E-01 0.20695047E+02</pdfrwt>
<totfact> 0.14021650E+08</totfact>
</mgrwt>
</event>
<event>
 4    1  0.2821610E+004  0.3800293E+02  0.7546771E-02  0.1523444E+00
         21   -1    0    0  503  502  0.00000000000E+00  0.00000000000E+00  0.64502111997E+01  0.64502111997E+01  0.00000000000E+00 0. -1.
         21   -1    0    0  501  503 -0.00000000000E+00 -0.00000000000E+00 -0.37627154686E+03  0.37627154686E+03  0.00000000000E+00 0.  1.
          2    1    1    2  501    0 -0.22894109910E+02  0.30332855449E+02 -0.30668337610E+03  0.30902898823E+03  0.00000000000E+00 0.  1.
         -2    1    1    2    0  502  0.22894109910E+02 -0.30332855449E+02 -0.63137959562E+02  0.73692769834E+02  0.00000000000E+00 0. -1.
<mgrwt>
<rscale>  2 0.38002926E+02</rscale>
<asrwt>0</asrwt>
<pdfrwt beam="1">  1       21 0.99234042E-03 0.38002926E+02</pdfrwt>
<pdfrwt beam="2">  1       21 0.57887916E-01 0.38002926E+02</pdfrwt>
<totfact> 0.93661438E+06</totfact>
</mgrwt>
</event>
<event>
 4    1  0.2821610E+004  0.5360596E+02  0.7546771E-02  0.1426809E+00
         21   -1    0    0  501  502  0.00000000000E+00  0.00000000000E+00  0.70920199589E+01  0.70920199589E+01  0.00000000000E+00 0.  1.
         21   -1    0    0  502  503 -0.00000000000E+00 -0.00000000000E+00 -0.43343619529E+03  0.43343619529E+03  0.00000000000E+00 0. -1.
          2    1    1    2  501    0 -0.45954177410E+02  0.27600960635E+02 -0.15694072660E+03  0.16584327275E+03  0.00000000000E+00 0.  1.
         -2    1    1    2    0  503  0.45954177410E+02 -0.27600960635E+02 -0.26940344873E+03  0.27468494250E+03  0.00000000000E+00 0. -1.
<mgrwt>
<rscale>  2 0.53605965E+02</rscale>
<asrwt>0</asrwt>
<pdfrwt beam="1">  1       21 0.10910799E-02 0.53605965E+02</pdfrwt>
<pdfrwt beam="2">  1       21 0.66682496E-01 0.53605965E+02</pdfrwt>
<totfact> 0.62693583E+06</totfact>
</mgrwt>
</event>
<event>
 4    1  0.2821610E+004  0.3227882E+02  0.7546771E-02  0.1574184E+00
         21   -1    0    0  501  502  0.00000000000E+00  0.00000000000E+00  0.29524900817E+02  0.29524900817E+02  0.00000000000E+00 0.  1.
         21   -1    0    0  502  503 -0.00000000000E+00 -0.00000000000E+00 -0.21170521109E+03  0.21170521109E+03  0.00000000000E+00 0. -1.
          2    1    1    2  501    0  0.12961490702E+02 -0.29562170432E+02  0.19014136187E+02  0.37462775349E+02  0.00000000000E+00 0.  1.
         -2    1    1    2    0  503 -0.12961490702E+02  0.29562170432E+02 -0.20119444646E+03  0.20376733656E+03  0.00000000000E+00 0. -1.
<mgrwt>
<rscale>  2 0.32278819E+02</rscale>
<asrwt>0</asrwt>
<pdfrwt beam="1">  1       21 0.45422925E-02 0.32278819E+02</pdfrwt>
<pdfrwt beam="2">  1       21 0.32570032E-01 0.32278819E+02</pdfrwt>
<totfact> 0.26064572E+06</totfact>
</mgrwt>
</event>
<event>
 4    1  0.2821610E+004  0.3786802E+02  0.7546771E-02  0.1524513E+00
         21   -1    0    0  501  502  0.00000000000E+00  0.00000000000E+00  0.93638677438E+02  0.93638677438E+02  0.00000000000E+00 0.  1.
         21   -1    0    0  502  503 -0.00000000000E+00 -0.00000000000E+00 -0.38905453445E+02  0.38905453445E+02  0.00000000000E+00 0. -1.
          2    1    1    2  501    0 -0.36441860503E+02  0.10294536031E+02  0.78972852843E+02  0.87582521973E+02  0.00000000000E+00 0.  1.
         -2    1    1    2    0  503  0.36441860503E+02 -0.10294536031E+02 -0.24239628849E+02  0.44961608910E+02  0.00000000000E+00 0. -1.
<mgrwt>
<rscale>  2 0.37868016E+02</rscale>
<asrwt>0</asrwt>
<pdfrwt beam="1">  1       21 0.14405950E-01 0.37868016E+02</pdfrwt>
<pdfrwt beam="2">  1       21 0.59854544E-02 0.37868016E+02</pdfrwt>
<totfact> 0.73182041E+06</totfact>
</mgrwt>
</event>
<event>
 4    1  0.2821610E+004  0.6988798E+02  0.7546771E-02  0.1360474E+00
         21   -1    0    0  501  502  0.00000000000E+00  0.00000000000E+00  0.47394151437E+03  0.47394151437E+03  0.00000000000E+00 0. -1.
         21   -1    0    0  502  503 -0.00000000000E+00 -0.00000000000E+00 -0.44156134063E+02  0.44156134063E+02  0.00000000000E+00 0.  1.
          2    1    1    2  501    0  0.67864314137E+02 -0.16696238894E+02  0.44170562204E+03  0.44720038693E+03  0.00000000000E+00 0. -1.
         -2    1    1    2    0  503 -0.67864314137E+02  0.16696238894E+02 -0.11920241731E+02  0.70897261509E+02  0.00000000000E+00 0.  1.
<mgrwt>
<rscale>  2 0.69887978E+02</rscale>
<asrwt>0</asrwt>
<pdfrwt beam="1">  1       21 0.72914075E-01 0.69887978E+02</pdfrwt>
<pdfrwt beam="2">  1       21 0.67932517E-02 0.69887978E+02</pdfrwt>
<totfact> 0.27772191E+05</totfact>
</mgrwt>
</event>
<event>
 4    1  0.2821610E+004  0.2213112E+02  0.7546771E-02  0.1705994E+00
         21   -1    0    0  501  502  0.00000000000E+00  0.00000000000E+00  0.63074666716E+02  0.63074666716E+02  0.00000000000E+00 0.  1.
         21   -1    0    0  502  503 -0.00000000000E+00 -0.00000000000E+00 -0.89266685251E+01  0.89266685251E+01  0.00000000000E+00 0. -1.
          2    1    1    2  501    0 -0.17743240102E+02  0.13227392243E+02  0.40059907078E+02  0.45766610427E+02  0.00000000000E+00 0.  1.
         -2    1    1    2    0  503  0.17743240102E+02 -0.13227392243E+02  0.14088091113E+02  0.26234724814E+02  0.00000000000E+00 0. -1.
<mgrwt>
<rscale>  2 0.22131120E+02</rscale>
<asrwt>0</asrwt>
<pdfrwt beam="1">  1       21 0.97037946E-02 0.22131120E+02</pdfrwt>
<pdfrwt beam="2">  1       21 0.13733337E-02 0.22131120E+02</pdfrwt>
<totfact> 0.12851372E+08</totfact>
</mgrwt>
</event>
<event>
 4    1  0.2821610E+004  0.2665392E+02  0.7546771E-02  0.1638323E+00
         21   -1    0    0  503  502  0.00000000000E+00  0.00000000000E+00  0.52192699094E+03  0.52192699094E+03  0.00000000000E+00 0. -1.
         21   -1    0    0  501  503 -0.00000000000E+00 -0.00000000000E+00 -0.21756909320E+01  0.21756909320E+01  0.00000000000E+00 0.  1.
          2    1    1    2  501    0  0.24413556180E+02  0.10696251895E+02  0.99536777756E+02  0.10304368809E+03  0.00000000000E+00 0.  1.
         -2    1    1    2    0  502 -0.24413556180E+02 -0.10696251895E+02  0.42021452225E+03  0.42105899378E+03  0.00000000000E+00 0. -1.
<mgrwt>
<rscale>  2 0.26653921E+02</rscale>
<asrwt>0</asrwt>
<pdfrwt beam="1">  1       21 0.80296360E-01 0.26653921E+02</pdfrwt>
<pdfrwt beam="2">  1       21 0.33472210E-03 0.26653921E+02</pdfrwt>
<totfact> 0.22914639E+07</totfact>
</mgrwt>
</event>
<event>
 4    1  0.2821610E+004  0.8426785E+02  0.7546771E-02  0.1317358E+00
         21   -1    0    0  503  502  0.00000000000E+00  0.00000000000E+00  0.15047008896E+03  0.15047008896E+03  0.00000000000E+00 0. -1.
         21   -1    0    0  501  503 -0.00000000000E+00 -0.00000000000E+00 -0.64644465802E+02  0.64644465802E+02  0.00000000000E+00 0.  1.
          2    1    1    2  501    0 -0.19893936367E+02 -0.81885902716E+02 -0.12972215635E+02  0.85260472355E+02  0.00000000000E+00 0.  1.
         -2    1    1    2    0  502  0.19893936367E+02  0.81885902716E+02  0.98797838795E+02  0.12985408241E+03  0.00000000000E+00 0. -1.
<mgrwt>
<rscale>  2 0.84267845E+02</rscale>
<asrwt>0</asrwt>
<pdfrwt beam="1">  1       21 0.23149244E-01 0.84267845E+02</pdfrwt>
<pdfrwt beam="2">  1       21 0.99453025E-02 0.84267845E+02</pdfrwt>
<totfact> 0.14179698E+06</totfact>
</mgrwt>
</event>
<event>
 4    1  0.2821610E+004  0.2199407E+02  0.7546771E-02  0.1708355E+00
         21   -1    0    0  501  502  0.00000000000E+00  0.00000000000E+00  0.33514048731E+02  0.33514048731E+02  0.00000000000E+00 0. -1.
         21   -1    0    0  502  503 -0.00000000000E+00 -0.00000000000E+00 -0.34860209988E+02  0.34860209988E+02  0.00000000000E+00 0.  1.
          2    1    1    2  501    0  0.20749552101E+02 -0.72935097892E+01  0.25496234142E+02  0.33671904503E+02  0.00000000000E+00 0.  1.
         -2    1    1    2    0  503 -0.20749552101E+02  0.72935097892E+01 -0.26842395399E+02  0.34702354217E+02  0.00000000000E+00 0. -1.
<mgrwt>
<rscale>  2 0.21994072E+02</rscale>
<asrwt>0</asrwt>
<pdfrwt beam="1">  1       21 0.51560075E-02 0.21994072E+02</pdfrwt>
<pdfrwt beam="2">  1       21 0.53631092E-02 0.21994072E+02</pdfrwt>
<totfact> 0.43179401E+07</totfact>
</mgrwt>
</event>
<event>
 4    1  0.2821610E+004  0.3274377E+02  0.7546771E-02  0.1569600E+00
         21   -1    0    0  503  502  0.00000000000E+00  0.00000000000E+00  0.11943667895E+01  0.11943667895E+01  0.00000000000E+00 0. -1.
         21   -1    0    0  501  503 -0.00000000000E+00 -0.00000000000E+00 -0.90617783999E+03  0.90617783999E+03  0.00000000000E+00 0.  1.
          2    1    1    2  501    0 -0.28698663135E+02  0.15765192527E+02 -0.49643596271E+03  0.49751464263E+03  0.00000000000E+00 0.  1.
         -2    1    1    2    0  502  0.28698663135E+02 -0.15765192527E+02 -0.40854751049E+03  0.40985756415E+03  0.00000000000E+00 0. -1.
<mgrwt>
<rscale>  2 0.32743771E+02</rscale>
<asrwt>0</asrwt>
<pdfrwt beam="1">  1       21 0.18374904E-03 0.32743771E+02</pdfrwt>
<pdfrwt beam="2">  1       21 0.13941174E+00 0.32743771E+02</pdfrwt>
<totfact> 0.16539458E+07</totfact>
</mgrwt>
</event>
<event>
 4    1  0.2821610E+004  0.2245990E+02  0.7546771E-02  0.1700418E+00
         21   -1    0    0  501  502  0.00000000000E+00  0.00000000000E+00  0.64371987257E+02  0.64371987257E+02  0.00000000000E+00 0. -1.
         21   -1    0    0  502  503 -0.00000000000E+00 -0.00000000000E+00 -0.78766322715E+01  0.78766322715E+01  0.00000000000E+00 0.  1.
          2    1    1    2  501    0  0.47428369418E+01 -0.21953419260E+02  0.25667149146E+02  0.34106446088E+02  0.00000000000E+00 0.  1.
         -2    1    1    2    0  503 -0.47428369418E+01  0.21953419260E+02  0.30828205840E+02  0.38142173441E+02  0.00000000000E+00 0. -1.
<mgrwt>
<rscale>  2 0.22459900E+02</rscale>
<asrwt>0</asrwt>
<pdfrwt beam="1">  1       21 0.99033823E-02 0.22459900E+02</pdfrwt>
<pdfrwt beam="2">  1       21 0.12117896E-02 0.22459900E+02</pdfrwt>
<totfact> 0.15080419E+08</totfact>
</mgrwt>
</event>
<event>
 4    1  0.2821610E+004  0.2083047E+02  0.7546771E-02  0.1729300E+00
         21   -1    0    0  503  502  0.00000000000E+00  0.00000000000E+00  0.39118590281E+03  0.39118590281E+03  0.00000000000E+00 0.  1.
         21   -1    0    0  501  503 -0.00000000000E+00 -0.00000000000E+00 -0.12754710754E+02  0.12754710754E+02  0.00000000000E+00 0. -1.
          2    1    1    2  501    0 -0.18669224477E+02 -0.92395045011E+01 -0.37728241119E+01  0.21169378540E+02  0.00000000000E+00 0. -1.
         -2    1    1    2    0  502  0.18669224477E+02  0.92395045011E+01  0.38220401617E+03  0.38277123502E+03  0.00000000000E+00 0.  1.
<mgrwt>
<rscale>  2 0.20830468E+02</rscale>
<asrwt>0</asrwt>
<pdfrwt beam="1">  1       21 0.60182437E-01 0.20830468E+02</pdfrwt>
<pdfrwt beam="2">  1       21 0.19622635E-02 0.20830468E+02</pdfrwt>
<totfact> 0.28239403E+06</totfact>
</mgrwt>
</event>
<event>
 4    1  0.2821610E+004  0.3465795E+02  0.7546771E-02  0.1551659E+00
         21   -1    0    0  501  502  0.00000000000E+00  0.00000000000E+00  0.15435569871E+02  0.15435569871E+02  0.00000000000E+00 0.  1.
         21   -1    0    0  502  503 -0.00000000000E+00 -0.00000000000E+00 -0.77931683649E+02  0.77931683649E+02  0.00000000000E+00 0. -1.
          2    1    1    2  501    0  0.15872074085E+02  0.30809914804E+02 -0.33026800610E+02  0.47874243018E+02  0.00000000000E+00 0.  1.
         -2    1    1    2    0  503 -0.15872074085E+02 -0.30809914804E+02 -0.29469313168E+02  0.45493010502E+02  0.00000000000E+00 0. -1.
<mgrwt>
<rscale>  2 0.34657951E+02</rscale>
<asrwt>0</asrwt>
<pdfrwt beam="1">  1       21 0.23747031E-02 0.34657951E+02</pdfrwt>
<pdfrwt beam="2">  1       21 0.11989490E-01 0.34657951E+02</pdfrwt>
<totfact> 0.43345423E+07</totfact>
</mgrwt>
</event>
<event>
 4    1  0.2821610E+004  0.4915514E+02  0.7546771E-02  0.1449952E+00
         21   -1    0    0  501  502  0.00000000000E+00  0.00000000000E+00  0.11053178841E+03  0.11053178841E+03  0.00000000000E+00 0. -1.
         21   -1    0    0  502  503 -0.00000000000E+00 -0.00000000000E+00 -0.42900865808E+02  0.42900865808E+02  0.00000000000E+00 0.  1.
          2    1    1    2  501    0  0.33455323470E+02  0.36013454589E+02  0.87541686275E+02  0.10039807974E+03  0.00000000000E+00 0. -1.
         -2    1    1    2    0  503 -0.33455323470E+02 -0.36013454589E+02 -0.19910763672E+02  0.53034574477E+02  0.00000000000E+00 0.  1.
<mgrwt>
<rscale>  2 0.49155138E+02</rscale>
<asrwt>0</asrwt>
<pdfrwt beam="1">  1       21 0.17004890E-01 0.49155138E+02</pdfrwt>
<pdfrwt beam="2">  1       21 0.66001332E-02 0.49155138E+02</pdfrwt>
<totfact> 0.47989546E+06</totfact>
</mgrwt>
</event>
<event>
 4    1  0.2821610E+004  0.2626422E+02  0.7546771E-02  0.1643480E+00
         21   -1    0    0  501  502  0.00000000000E+00  0.00000000000E+00  0.23378077213E+04  0.23378077213E+04  0.00000000000E+00 0. -1.
         21   -1    0    0  502  503 -0.00000000000E+00 -0.00000000000E+00 -0.38112100375E+00  0.38112100375E+00  0.00000000000E+00 0.  1.
          2    1    1    2  501    0 -0.12332251094E+02  0.23188898819E+02  0.17242390436E+04  0.17244390650E+04  0.00000000000E+00 0.  1.
         -2    1    1    2    0  503  0.12332251094E+02 -0.23188898819E+02  0.61318755670E+03  0.61374977730E+03  0.00000000000E+00 0. -1.
<mgrwt>
<rscale>  2 0.26264224E+02</rscale>
<asrwt>0</asrwt>
<pdfrwt beam="1">  1       21 0.35965124E+00 0.26264224E+02</pdfrwt>
<pdfrwt beam="2">  1       21 0.58635872E-04 0.26264224E+02</pdfrwt>
<totfact> 0.52411015E+06</totfact>
</mgrwt>
</event>
<event>
 4    1  0.2821610E+004  0.2062158E+02  0.7546771E-02  0.1733242E+00
         21   -1    0    0  501  502  0.00000000000E+00  0.00000000000E+00  0.52329376018E+03  0.52329376018E+03  0.00000000000E+00 0.  1.
         21   -1    0    0  502  503 -0.00000000000E+00 -0.00000000000E+00 -0.11525898279E+01  0.11525898279E+01  0.00000000000E+00 0. -1.
          2    1    1    2  501    0 -0.16850511229E+02 -0.11887384954E+02  0.40348070069E+03  0.40400733344E+03  0.00000000000E+00 0.  1.
         -2    1    1    2    0  503  0.16850511229E+02  0.11887384954E+02  0.11866046966E+03  0.12043901656E+03  0.00000000000E+00 0. -1.
<mgrwt>
<rscale>  2 0.20621582E+02</rscale>
<asrwt>0</asrwt>
<pdfrwt beam="1">  1       21 0.80506543E-01 0.20621582E+02</pdfrwt>
<pdfrwt beam="2">  1       21 0.17732193E-03 0.20621582E+02</pdfrwt>
<totfact> 0.54289386E+07</totfact>
</mgrwt>
</event>
<event>
 4    1  0.2821610E+004  0.2632262E+02  0.7546771E-02  0.1642700E+00
         21   -1    0    0  501  502  0.00000000000E+00  0.00000000000E+00  0.90409115780E+00  0.90409115780E+00  0.00000000000E+00 0. -1.
         21   -1    0    0  502  503 -0.00000000000E+00 -0.00000000000E+00 -0.88253040350E+03  0.88253040350E+03  0.00000000000E+00 0.  1.
          2    1    1    2  501    0  0.10715295130E+02 -0.24042936590E+02 -0.28056843092E+03  0.28180050528E+03  0.00000000000E+00 0. -1.
         -2    1    1    2    0  503 -0.10715295130E+02  0.24042936590E+02 -0.60105788143E+03  0.60163398938E+03  0.00000000000E+00 0.  1.
<mgrwt>
<rscale>  2 0.26322620E+02</rscale>
<asrwt>0</asrwt>
<pdfrwt beam="1">  1       21 0.13909153E-03 0.26322620E+02</pdfrwt>
<pdfrwt beam="2">  1       21 0.13577334E+00 0.26322620E+02</pdfrwt>
<totfact> 0.25509143E+07</totfact>
</mgrwt>
</event>
<event>
 4    1  0.2821610E+004  0.2116865E+02  0.7546771E-02  0.1723039E+00
         21   -1    0    0  501  502  0.00000000000E+00  0.00000000000E+00  0.95237360801E+01  0.95237360801E+01  0.00000000000E+00 0.  1.
         21   -1    0    0  502  503 -0.00000000000E+00 -0.00000000000E+00 -0.65105660349E+02  0.65105660349E+02  0.00000000000E+00 0. -1.
          2    1    1    2  501    0  0.20516868226E+02 -0.52124584364E+01 -0.81414299635E+01  0.22680266458E+02  0.00000000000E+00 0.  1.
         -2    1    1    2    0  503 -0.20516868226E+02  0.52124584364E+01 -0.47440494306E+02  0.51949129971E+02  0.00000000000E+00 0. -1.
<mgrwt>
<rscale>  2 0.21168647E+02</rscale>
<asrwt>0</asrwt>
<pdfrwt beam="1">  1       21 0.14651902E-02 0.21168647E+02</pdfrwt>
<pdfrwt beam="2">  1       21 0.10016255E-01 0.21168647E+02</pdfrwt>
<totfact> 0.10914188E+08</totfact>
</mgrwt>
</event>
<event>
 4    1  0.2821610E+004  0.4344580E+02  0.7546771E-02  0.1484284E+00
         21   -1    0    0  503  502  0.00000000000E+00  0.00000000000E+00  0.68345783572E+02  0.68345783572E+02  0.00000000000E+00 0.  1.
         21   -1    0    0  501  503 -0.00000000000E+00 -0.00000000000E+00 -0.10684631185E+03  0.10684631185E+03  0.00000000000E+00 0. -1.
          2    1    1    2  501    0 -0.33832113966E+02  0.27256661684E+02 -0.94680662419E+02  0.10417276697E+03  0.00000000000E+00 0. -1.
         -2    1    1    2    0  502  0.33832113966E+02 -0.27256661684E+02  0.56180134142E+02  0.71019328453E+02  0.00000000000E+00 0.  1.
<mgrwt>
<rscale>  2 0.43445800E+02</rscale>
<asrwt>0</asrwt>
<pdfrwt beam="1">  1       21 0.10514736E-01 0.43445800E+02</pdfrwt>
<pdfrwt beam="2">  1       21 0.16437894E-01 0.43445800E+02</pdfrwt>
<totfact> 0.23065087E+06</totfact>
</mgrwt>
</event>
<event>
 4    1  0.2821610E+004  0.1006366E+03  0.7546771E-02  0.1278963E+00
         21   -1    0    0  503  502  0.00000000000E+00  0.00000000000E+00  0.10734324596E+03  0.10734324596E+03  0.00000000000E+00 0.  1.
         21   -1    0    0  501  503 -0.00000000000E+00 -0.00000000000E+00 -0.94455851150E+02  0.94455851150E+02  0.00000000000E+00 0. -1.
          2    1    1    2  501    0  0.91225662710E+02  0.42492469825E+02  0.30506030989E+01  0.10068285707E+03  0.00000000000E+00 0. -1.
         -2    1    1    2    0  502 -0.91225662710E+02 -0.42492469825E+02  0.98367917122E+01  0.10111624004E+03  0.00000000000E+00 0.  1.
<mgrwt>
<rscale>  2 0.10063663E+03</rscale>
<asrwt>0</asrwt>
<pdfrwt beam="1">  1       21 0.16514345E-01 0.10063663E+03</pdfrwt>
<pdfrwt beam="2">  1       21 0.14531669E-01 0.10063663E+03</pdfrwt>
<totfact> 0.13573265E+06</totfact>
</mgrwt>
</event>
<event>
 4    1  0.2821610E+004  0.2035640E+02  0.7546771E-02  0.1738332E+00
         21   -1    0    0  503  502  0.00000000000E+00  0.00000000000E+00  0.16736418236E+04  0.16736418236E+04  0.00000000000E+00 0. -1.
         21   -1    0    0  501  503 -0.00000000000E+00 -0.00000000000E+00 -0.31629590626E+00  0.31629590626E+00  0.00000000000E+00 0.  1.
          2    1    1    2  501    0  0.12610447184E+01  0.20317302713E+02  0.44658299279E+03  0.44704670055E+03  0.00000000000E+00 0.  1.
         -2    1    1    2    0  502 -0.12610447184E+01 -0.20317302713E+02  0.12267425349E+04  0.12269114189E+04  0.00000000000E+00 0. -1.
<mgrwt>
<rscale>  2 0.20356400E+02</rscale>
<asrwt>0</asrwt>
<pdfrwt beam="1">  1       21 0.25747627E+00 0.20356400E+02</pdfrwt>
<pdfrwt beam="2">  1       21 0.48662249E-04 0.20356400E+02</pdfrwt>
<totfact> 0.21387609E+07</totfact>
</mgrwt>
</event>
<event>
 4    1  0.2821610E+004  0.2476927E+02  0.7546771E-02  0.1664338E+00
         21   -1    0    0  501  502  0.00000000000E+00  0.00000000000E+00  0.83433267392E+01  0.83433267392E+01  0.00000000000E+00 0.  1.
         21   -1    0    0  502  503 -0.00000000000E+00 -0.00000000000E+00 -0.16294165921E+03  0.16294165921E+03  0.00000000000E+00 0. -1.
          2    1    1    2  501    0  0.74622176592E-01  0.24769162355E+02 -0.13859491162E+02  0.28383137027E+02  0.00000000000E+00 0. -1.
         -2    1    1    2    0  503 -0.74622176592E-01 -0.24769162355E+02 -0.14073884131E+03  0.14290184893E+03  0.00000000000E+00 0.  1.
<mgrwt>
<rscale>  2 0.24769275E+02</rscale>
<asrwt>0</asrwt>
<pdfrwt beam="1">  1       21 0.12835888E-02 0.24769275E+02</pdfrwt>
<pdfrwt beam="2">  1       21 0.25067946E-01 0.24769275E+02</pdfrwt>
<totfact> 0.28862729E+07</totfact>
</mgrwt>
</event>
<event>
 4    1  0.2821610E+004  0.2488039E+02  0.7546771E-02  0.1662726E+00
         21   -1    0    0  501  502  0.00000000000E+00  0.00000000000E+00  0.46154388294E+03  0.46154388294E+03  0.00000000000E+00 0.  1.
         21   -1    0    0  502  503 -0.00000000000E+00 -0.00000000000E+00 -0.17751795296E+01  0.17751795296E+01  0.00000000000E+00 0. -1.
          2    1    1    2  501    0 -0.37991873388E+01  0.24588619912E+02  0.34442280078E+03  0.34532028575E+03  0.00000000000E+00 0.  1.
         -2    1    1    2    0  503  0.37991873388E+01 -0.24588619912E+02  0.11534590263E+03  0.11799877672E+03  0.00000000000E+00 0. -1.
<mgrwt>
<rscale>  2 0.24880395E+02</rscale>
<asrwt>0</asrwt>
<pdfrwt beam="1">  1       21 0.71006656E-01 0.24880395E+02</pdfrwt>
<pdfrwt beam="2">  1       21 0.27310491E-03 0.24880395E+02</pdfrwt>
<totfact> 0.39356858E+07</totfact>
</mgrwt>
</event>
<event>
 4    1  0.2821610E+004  0.2647818E+02  0.7546771E-02  0.1640635E+00
         21   -1    0    0  501  502  0.00000000000E+00  0.00000000000E+00  0.17180422537E+02  0.17180422537E+02  0.00000000000E+00 0. -1.
         21   -1    0    0  502  503 -0.00000000000E+00 -0.00000000000E+00 -0.10344353813E+03  0.10344353813E+03  0.00000000000E+00 0.  1.
          2    1    1    2  501    0 -0.25454571733E+02 -0.72909924631E+01  0.37998193873E+01  0.26749437762E+02  0.00000000000E+00 0. -1.
         -2    1    1    2    0  503  0.25454571733E+02  0.72909924631E+01 -0.90062934980E+02  0.93874522904E+02  0.00000000000E+00 0.  1.
<mgrwt>
<rscale>  2 0.26478176E+02</rscale>
<asrwt>0</asrwt>
<pdfrwt beam="1">  1       21 0.26431418E-02 0.26478176E+02</pdfrwt>
<pdfrwt beam="2">  1       21 0.15914391E-01 0.26478176E+02</pdfrwt>
<totfact> 0.21394324E+07</totfact>
</mgrwt>
</event>
<event>
 4    1  0.2821610E+004  0.2948175E+02  0.7546771E-02  0.1603889E+00
         21   -1    0    0  501  502  0.00000000000E+00  0.00000000000E+00  0.35543779743E+03  0.35543779743E+03  0.00000000000E+00 0. -1.
         21   -1    0    0  502  503 -0.00000000000E+00 -0.00000000000E+00 -0.25151330080E+01  0.25151330080E+01  0.00000000000E+00 0.  1.
          2    1    1    2  501    0  0.29359638107E+02  0.26805300522E+01  0.20627100819E+03  0.20836722969E+03  0.00000000000E+00 0.  1.
         -2    1    1    2    0  503 -0.29359638107E+02 -0.26805300522E+01  0.14665165623E+03  0.14958570074E+03  0.00000000000E+00 0. -1.
<mgrwt>
<rscale>  2 0.29481750E+02</rscale>
<asrwt>0</asrwt>
<pdfrwt beam="1">  1       21 0.54682698E-01 0.29481750E+02</pdfrwt>
<pdfrwt beam="2">  1       21 0.38694382E-03 0.29481750E+02</pdfrwt>
<totfact> 0.41469728E+07</totfact>
</mgrwt>
</event>
<event>
 4    1  0.2821610E+004  0.2129740E+02  0.7546771E-02  0.1720694E+00
         21   -1    0    0  501  502  0.00000000000E+00  0.00000000000E+00  0.87919743700E+01  0.87919743700E+01  0.00000000000E+00 0. -1.
         21   -1    0    0  502  503 -0.00000000000E+00 -0.00000000000E+00 -0.59136873565E+02  0.59136873565E+02  0.00000000000E+00 0.  1.
          2    1    1    2  501    0  0.12003534693E+02 -0.17592451820E+02 -0.13039272840E+02  0.24972021191E+02  0.00000000000E+00 0. -1.
         -2    1    1    2    0  503 -0.12003534693E+02  0.17592451820E+02 -0.37305626355E+02  0.42956826744E+02  0.00000000000E+00 0.  1.
<mgrwt>
<rscale>  2 0.21297399E+02</rscale>
<asrwt>0</asrwt>
<pdfrwt beam="1">  1       21 0.13526115E-02 0.21297399E+02</pdfrwt>
<pdfrwt beam="2">  1       21 0.90979804E-02 0.21297399E+02</pdfrwt>
<totfact> 0.14452574E+08</totfact>
</mgrwt>
</event>
<event>
 4    1  0.2821610E+004  0.2044446E+02  0.7546771E-02  0.1736631E+00
         21   -1    0    0  503  502  0.00000000000E+00  0.00000000000E+00  0.32612213687E+03  0.32612213687E+03  0.00000000000E+00 0. -1.
         21   -1    0    0  501  503 -0.00000000000E+00 -0.00000000000E+00 -0.13825516032E+01  0.13825516032E+01  0.00000000000E+00 0.  1.
          2    1    1    2  501    0 -0.42427294059E+01  0.19999383890E+02  0.20660670942E+03  0.20761577129E+03  0.00000000000E+00 0. -1.
         -2    1    1    2    0  502  0.42427294059E+01 -0.19999383890E+02  0.11813287585E+03  0.11988891719E+03  0.00000000000E+00 0.  1.
<mgrwt>
<rscale>  2 0.20444464E+02</rscale>
<asrwt>0</asrwt>
<pdfrwt beam="1">  1       21 0.50172575E-01 0.20444464E+02</pdfrwt>
<pdfrwt beam="2">  1       21 0.21270051E-03 0.20444464E+02</pdfrwt>
<totfact> 0.10783810E+08</totfact>
</mgrwt>
</event>
<event>
 4    1  0.2821610E+004  0.2147816E+02  0.7546771E-02  0.1717436E+00
         21   -1    0    0  501  502  0.00000000000E+00  0.00000000000E+00  0.18302550083E+01  0.18302550083E+01  0.00000000000E+00 0. -1.
         21   -1    0    0  502  503 -0.00000000000E+00 -0.00000000000E+00 -0.30590342377E+03  0.30590342377E+03  0.00000000000E+00 0.  1.
          2    1    1    2  501    0  0.20653881158E+02  0.58930834246E+01 -0.87475693312E+02  0.90073903877E+02  0.00000000000E+00 0. -1.
         -2    1    1    2    0  503 -0.20653881158E+02 -0.58930834246E+01 -0.21659747545E+03  0.21765977490E+03  0.00000000000E+00 0.  1.
<mgrwt>
<rscale>  2 0.21478157E+02</rscale>
<asrwt>0</asrwt>
<pdfrwt beam="1">  1       21 0.28157765E-03 0.21478157E+02</pdfrwt>
<pdfrwt beam="2">  1       21 0.47062073E-01 0.21478157E+02</pdfrwt>
<totfact> 0.82400176E+07</totfact>
</mgrwt>
</event>
<event>
 4    1  0.2821610E+004  0.2450236E+02  0.7546771E-02  0.1668254E+00
         21   -1    0    0  503  502  0.00000000000E+00  0.00000000000E+00  0.70064033932E+02  0.70064033932E+02  0.00000000000E+00 0.  1.
         21   -1    0    0  501  503 -0.00000000000E+00 -0.00000000000E+00 -0.11844803864E+02  0.11844803864E+02  0.00000000000E+00 0. -1.
          2    1    1    2  501    0  0.23026188348E+02  0.83761790769E+01  0.75714818707E+01  0.25645527164E+02  0.00000000000E+00 0. -1.
         -2    1    1    2    0  502 -0.23026188348E+02 -0.83761790769E+01  0.50647748198E+02  0.56263310632E+02  0.00000000000E+00 0.  1.
<mgrwt>
<rscale>  2 0.24502362E+02</rscale>
<asrwt>0</asrwt>
<pdfrwt beam="1">  1       21 0.10779082E-01 0.24502362E+02</pdfrwt>
<pdfrwt beam="2">  1       21 0.18222776E-02 0.24502362E+02</pdfrwt>
<totfact> 0.72218736E+07</totfact>
</mgrwt>
</event>
<event>
 4    1  0.2821610E+004  0.2055699E+02  0.7546771E-02  0.1734473E+00
         21   -1    0    0  501  502  0.00000000000E+00  0.00000000000E+00  0.17622486298E+03  0.17622486298E+03  0.00000000000E+00 0.  1.
         21   -1    0    0  502  503 -0.00000000000E+00 -0.00000000000E+00 -0.24175022235E+01  0.24175022235E+01  0.00000000000E+00 0. -1.
          2    1    1    2  501    0 -0.20012025591E+02 -0.47019916642E+01  0.94923122704E+02  0.97123576529E+02  0.00000000000E+00 0. -1.
         -2    1    1    2    0  503  0.20012025591E+02  0.47019916642E+01  0.78884238054E+02  0.81518788676E+02  0.00000000000E+00 0.  1.
<mgrwt>
<rscale>  2 0.20556991E+02</rscale>
<asrwt>0</asrwt>
<pdfrwt beam="1">  1       21 0.27111507E-01 0.20556991E+02</pdfrwt>
<pdfrwt beam="2">  1       21 0.37192356E-03 0.20556991E+02</pdfrwt>
<totfact> 0.15075088E+08</totfact>
</mgrwt>
</event>
<event>
 4    1  0.2821610E+004  0.2823955E+02  0.7546771E-02  0.1618405E+00
         21   -1    0    0  503  502  0.00000000000E+00  0.00000000000E+00  0.76460137243E+01  0.76460137243E+01  0.00000000000E+00 0. -1.
         21   -1    0    0  501  503 -0.00000000000E+00 -0.00000000000E+00 -0.10984972082E+03  0.10984972082E+03  0.00000000000E+00 0.  1.
          2    1    1    2  501    0  0.56493566325E+01 -0.27668696637E+02 -0.64307667586E+02  0.70234949379E+02  0.00000000000E+00 0.  1.
         -2    1    1    2    0  502 -0.56493566325E+01  0.27668696637E+02 -0.37896039514E+02  0.47260785169E+02  0.00000000000E+00 0. -1.
<mgrwt>
<rscale>  2 0.28239547E+02</rscale>
<asrwt>0</asrwt>
<pdfrwt beam="1">  1       21 0.11763098E-02 0.28239547E+02</pdfrwt>
<pdfrwt beam="2">  1       21 0.16899957E-01 0.28239547E+02</pdfrwt>
<totfact> 0.67938704E+07</totfact>
</mgrwt>
</event>
<event>
 4    1  0.2821610E+004  0.2815407E+02  0.7546771E-02  0.1619437E+00
         21   -1    0    0  501  502  0.00000000000E+00  0.00000000000E+00  0.94035892402E+02  0.94035892402E+02  0.00000000000E+00 0.  1.
         21   -1    0    0  502  503 -0.00000000000E+00 -0.00000000000E+00 -0.84295574256E+01  0.84295574256E+01  0.00000000000E+00 0. -1.
          2    1    1    2  501    0 -0.66229366865E+01  0.27364001244E+02  0.42492747786E+02  0.50973380002E+02  0.00000000000E+00 0.  1.
         -2    1    1    2    0  503  0.66229366865E+01 -0.27364001244E+02  0.43113587190E+02  0.51492069825E+02  0.00000000000E+00 0. -1.
<mgrwt>
<rscale>  2 0.28154073E+02</rscale>
<asrwt>0</asrwt>
<pdfrwt beam="1">  1       21 0.14467060E-01 0.28154073E+02</pdfrwt>
<pdfrwt beam="2">  1       21 0.12968551E-02 0.28154073E+02</pdfrwt>
<totfact> 0.76491166E+07</totfact>
</mgrwt>
</event>
<event>
 4    1  0.2821610E+004  0.2519371E+02  0.7546771E-02  0.1658235E+00
         21   -1    0    0  503  502  0.00000000000E+00  0.00000000000E+00  0.38093469818E+03  0.38093469818E+03  0.00000000000E+00 0.  1.
         21   -1    0    0  501  503 -0.00000000000E+00 -0.00000000000E+00 -0.24981628402E+01  0.24981628402E+01  0.00000000000E+00 0. -1.
          2    1    1    2  501    0  0.14391432537E+02 -0.20678720836E+02  0.78582777491E+02  0.82522577178E+02  0.00000000000E+00 0.  1.
         -2    1    1    2    0  502 -0.14391432537E+02  0.20678720836E+02  0.29985375784E+03  0.30091028384E+03  0.00000000000E+00 0. -1.
<mgrwt>
<rscale>  2 0.25193706E+02</rscale>
<asrwt>0</asrwt>
<pdfrwt beam="1">  1       21 0.58605292E-01 0.25193706E+02</pdfrwt>
<pdfrwt beam="2">  1       21 0.38433305E-03 0.25193706E+02</pdfrwt>
<totfact> 0.35335664E+07</totfact>
</mgrwt>
</event>
<event>
 4    1  0.2821610E+004  0.2500693E+02  0.7546771E-02  0.1660902E+00
         21   -1    0    0  503  502  0.00000000000E+00  0.00000000000E+00  0.17399000762E+03  0.17399000762E+03  0.00000000000E+00 0. -1.
         21   -1    0    0  501  503 -0.00000000000E+00 -0.00000000000E+00 -0.41633823117E+01  0.41633823117E+01  0.00000000000E+00 0.  1.
          2    1    1    2  501    0 -0.15612403146E+02  0.19534575969E+02  0.51976285677E+02  0.57679121553E+02  0.00000000000E+00 0. -1.
         -2    1    1    2    0  502  0.15612403146E+02 -0.19534575969E+02  0.11785033963E+03  0.12047426838E+03  0.00000000000E+00 0.  1.
<mgrwt>
<rscale>  2 0.25006935E+02</rscale>
<asrwt>0</asrwt>
<pdfrwt beam="1">  1       21 0.26767688E-01 0.25006935E+02</pdfrwt>
<pdfrwt beam="2">  1       21 0.64052049E-03 0.25006935E+02</pdfrwt>
<totfact> 0.73047786E+07</totfact>
</mgrwt>
</event>
<event>
 4    1  0.2821610E+004  0.2235996E+02  0.7546771E-02  0.1702100E+00
         21   -1    0    0  501  502  0.00000000000E+00  0.00000000000E+00  0.29589583115E+01  0.29589583115E+01  0.00000000000E+00 0. -1.
         21   -1    0    0  502  503 -0.00000000000E+00 -0.00000000000E+00 -0.27474515668E+03  0.27474515668E+03  0.00000000000E+00 0.  1.
          2    1    1    2  501    0  0.43448143700E+01  0.21933772502E+02 -0.49737349058E+02  0.54532299414E+02  0.00000000000E+00 0. -1.
         -2    1    1    2    0  503 -0.43448143700E+01 -0.21933772502E+02 -0.22204884931E+03  0.22317181558E+03  0.00000000000E+00 0.  1.
<mgrwt>
<rscale>  2 0.22359959E+02</rscale>
<asrwt>0</asrwt>
<pdfrwt beam="1">  1       21 0.45522419E-03 0.22359959E+02</pdfrwt>
<pdfrwt beam="2">  1       21 0.42268501E-01 0.22359959E+02</pdfrwt>
<totfact> 0.50652606E+07</totfact>
</mgrwt>
</event>
<event>
 4    1  0.2821610E+004  0.3956409E+02  0.7546771E-02  0.1511444E+00
         21   -1    0    0  501  502  0.00000000000E+00  0.00000000000E+00  0.25619245756E+02  0.25619245756E+02  0.00000000000E+00 0. -1.
         21   -1    0    0  502  503 -0.00000000000E+00 -0.00000000000E+00 -0.16164751067E+03  0.16164751067E+03  0.00000000000E+00 0.  1.
          2    1    1    2  501    0 -0.15990722711E+02  0.36188586733E+02  0.58329660407E+01  0.39991755592E+02  0.00000000000E+00 0. -1.
         -2    1    1    2    0  503  0.15990722711E+02 -0.36188586733E+02 -0.14186123095E+03  0.14727500083E+03  0.00000000000E+00 0.  1.
<mgrwt>
<rscale>  2 0.39564088E+02</rscale>
<asrwt>0</asrwt>
<pdfrwt beam="1">  1       21 0.39414225E-02 0.39564088E+02</pdfrwt>
<pdfrwt beam="2">  1       21 0.24868847E-01 0.39564088E+02</pdfrwt>
<totfact> 0.54988478E+06</totfact>
</mgrwt>
</event>
<event>
 4    1  0.2821610E+004  0.4061062E+02  0.7546771E-02  0.1503765E+00
         21   -1    0    0  501  502  0.00000000000E+00  0.00000000000E+00  0.96540046073E+02  0.96540046073E+02  0.00000000000E+00 0.  1.
         21   -1    0    0  502  503 -0.00000000000E+00 -0.00000000000E+00 -0.17917580035E+02  0.17917580035E+02  0.00000000000E+00 0. -1.
          2    1    1    2  501    0 -0.29008283724E+02  0.28420797937E+02  0.51660232347E+02  0.65711504975E+02  0.00000000000E+00 0. -1.
         -2    1    1    2    0  503  0.29008283724E+02 -0.28420797937E+02  0.26962233691E+02  0.48746121133E+02  0.00000000000E+00 0.  1.
<mgrwt>
<rscale>  2 0.40610618E+02</rscale>
<asrwt>0</asrwt>
<pdfrwt beam="1">  1       21 0.14852314E-01 0.40610618E+02</pdfrwt>
<pdfrwt beam="2">  1       21 0.27565508E-02 0.40610618E+02</pdfrwt>
<totfact> 0.24402243E+07</totfact>
</mgrwt>
</event>
<event>
 4    1  0.2821610E+004  0.2075495E+02  0.7546771E-02  0.1730719E+00
         21   -1    0    0  501  502  0.00000000000E+00  0.00000000000E+00  0.67172419149E+02  0.67172419149E+02  0.00000000000E+00 0.  1.
         21   -1    0    0  502  503 -0.00000000000E+00 -0.00000000000E+00 -0.65483953540E+01  0.65483953540E+01  0.00000000000E+00 0. -1.
          2    1    1    2  501    0  0.17883057012E+01 -0.20677761865E+02  0.35614818479E+02  0.41221149526E+02  0.00000000000E+00 0.  1.
         -2    1    1    2    0  503 -0.17883057012E+01  0.20677761865E+02  0.25009205317E+02  0.32499664977E+02  0.00000000000E+00 0. -1.
<mgrwt>
<rscale>  2 0.20754948E+02</rscale>
<asrwt>0</asrwt>
<pdfrwt beam="1">  1       21 0.10334218E-01 0.20754948E+02</pdfrwt>
<pdfrwt beam="2">  1       21 0.10074455E-02 0.20754948E+02</pdfrwt>
<totfact> 0.18108400E+08</totfact>
</mgrwt>
</event>
<event>
 4    1  0.2821610E+004  0.2637140E+02  0.7546771E-02  0.1642051E+00
         21   -1    0    0  501  502  0.00000000000E+00  0.00000000000E+00  0.10647472636E+03  0.10647472636E+03  0.00000000000E+00 0.  1.
         21   -1    0    0  502  503 -0.00000000000E+00 -0.00000000000E+00 -0.68449653187E+01  0.68449653187E+01  0.00000000000E+00 0. -1.
          2    1    1    2  501    0  0.24156403416E+02 -0.10579169892E+02  0.61937961935E+02  0.67318361465E+02  0.00000000000E+00 0.  1.
         -2    1    1    2    0  503 -0.24156403416E+02  0.10579169892E+02  0.37691799108E+02  0.46001330215E+02  0.00000000000E+00 0. -1.
<mgrwt>
<rscale>  2 0.26371399E+02</rscale>
<asrwt>0</asrwt>
<pdfrwt beam="1">  1       21 0.16380726E-01 0.26371399E+02</pdfrwt>
<pdfrwt beam="2">  1       21 0.10530717E-02 0.26371399E+02</pdfrwt>
<totfact> 0.83394355E+07</totfact>
</mgrwt>
</event>
<event>
 4    1  0.2821610E+004  0.4882726E+02  0.7546771E-02  0.1451772E+00
         21   -1    0    0  501  502  0.00000000000E+00  0.00000000000E+00  0.26702524741E+02  0.26702524741E+02  0.00000000000E+00 0. -1.
         21   -1    0    0  502  503 -0.00000000000E+00 -0.00000000000E+00 -0.90955617650E+02  0.90955617650E+02  0.00000000000E+00 0.  1.
          2    1    1    2  501    0 -0.14259669666E+02  0.46698638811E+02 -0.24150630019E+02  0.54473424494E+02  0.00000000000E+00 0.  1.
         -2    1    1    2    0  503  0.14259669666E+02 -0.46698638811E+02 -0.40102462890E+02  0.63184717897E+02  0.00000000000E+00 0. -1.
<mgrwt>
<rscale>  2 0.48827257E+02</rscale>
<asrwt>0</asrwt>
<pdfrwt beam="1">  1       21 0.41080807E-02 0.48827257E+02</pdfrwt>
<pdfrwt beam="2">  1       21 0.13993172E-01 0.48827257E+02</pdfrwt>
<totfact> 0.14685694E+07</totfact>
</mgrwt>
</event>
<event>
 4    1  0.2821610E+004  0.2851536E+02  0.7546771E-02  0.1615104E+00
         21   -1    0    0  501  502  0.00000000000E+00  0.00000000000E+00  0.89807982162E+02  0.89807982162E+02  0.00000000000E+00 0.  1.
         21   -1    0    0  502  503 -0.00000000000E+00 -0.00000000000E+00 -0.10443609083E+02  0.10443609083E+02  0.00000000000E+00 0. -1.
          2    1    1    2  501    0 -0.28055919888E+02  0.50981447174E+01  0.57966341895E+02  0.64600483845E+02  0.00000000000E+00 0. -1.
         -2    1    1    2    0  503  0.28055919888E+02 -0.50981447174E+01  0.21398031183E+02  0.35651107400E+02  0.00000000000E+00 0.  1.
<mgrwt>
<rscale>  2 0.28515359E+02</rscale>
<asrwt>0</asrwt>
<pdfrwt beam="1">  1       21 0.13816612E-01 0.28515359E+02</pdfrwt>
<pdfrwt beam="2">  1       21 0.16067091E-02 0.28515359E+02</pdfrwt>
<totfact> 0.59811761E+07</totfact>
</mgrwt>
</event>
<event>
 4    1  0.2821610E+004  0.2782003E+02  0.7546771E-02  0.1623516E+00
         21   -1    0    0  501  502  0.00000000000E+00  0.00000000000E+00  0.94018385922E+02  0.94018385922E+02  0.00000000000E+00 0.  1.
         21   -1    0    0  502  503 -0.00000000000E+00 -0.00000000000E+00 -0.12023221852E+02  0.12023221852E+02  0.00000000000E+00 0. -1.
          2    1    1    2  501    0  0.27753703074E+02 -0.19198879827E+01  0.70771002840E+02  0.76042677801E+02  0.00000000000E+00 0.  1.
         -2    1    1    2    0  503 -0.27753703074E+02  0.19198879827E+01  0.11224161231E+02  0.29998929973E+02  0.00000000000E+00 0. -1.
<mgrwt>
<rscale>  2 0.27820029E+02</rscale>
<asrwt>0</asrwt>
<pdfrwt beam="1">  1       21 0.14464367E-01 0.27820029E+02</pdfrwt>
<pdfrwt beam="2">  1       21 0.18497265E-02 0.27820029E+02</pdfrwt>
<totfact> 0.44282127E+07</totfact>
</mgrwt>
</event>
<event>
 4    1  0.2821610E+004  0.6655433E+02  0.7546771E-02  0.1372218E+00
         21   -1    0    0  503  502  0.00000000000E+00  0.00000000000E+00  0.19936631004E+02  0.19936631004E+02  0.00000000000E+00 0. -1.
         21   -1    0    0  501  503 -0.00000000000E+00 -0.00000000000E+00 -0.80519969010E+03  0.80519969010E+03  0.00000000000E+00 0.  1.
          2    1    1    2  501    0 -0.95866953507E+00 -0.66547426363E+02 -0.74369553122E+03  0.74666761157E+03  0.00000000000E+00 0.  1.
         -2    1    1    2    0  502  0.95866953507E+00  0.66547426363E+02 -0.41567527875E+02  0.78468709538E+02  0.00000000000E+00 0. -1.
<mgrwt>
<rscale>  2 0.66554331E+02</rscale>
<asrwt>0</asrwt>
<pdfrwt beam="1">  1       21 0.30671740E-02 0.66554331E+02</pdfrwt>
<pdfrwt beam="2">  1       21 0.12387688E+00 0.66554331E+02</pdfrwt>
<totfact> 0.30905744E+05</totfact>
</mgrwt>
</event>
<event>
 4    1  0.2821610E+004  0.2785017E+02  0.7546771E-02  0.1623145E+00
         21   -1    0    0  503  502  0.00000000000E+00  0.00000000000E+00  0.14197486095E+03  0.14197486095E+03  0.00000000000E+00 0. -1.
         21   -1    0    0  501  503 -0.00000000000E+00 -0.00000000000E+00 -0.14442203709E+02  0.14442203709E+02  0.00000000000E+00 0.  1.
          2    1    1    2  501    0  0.27838607685E+02 -0.80230044925E+00  0.20993912158E+01  0.27929182003E+02  0.00000000000E+00 0.  1.
         -2    1    1    2    0  502 -0.27838607685E+02  0.80230044925E+00  0.12543326603E+03  0.12848788266E+03  0.00000000000E+00 0. -1.
<mgrwt>
<rscale>  2 0.27850166E+02</rscale>
<asrwt>0</asrwt>
<pdfrwt beam="1">  1       21 0.21842285E-01 0.27850166E+02</pdfrwt>
<pdfrwt beam="2">  1       21 0.22218776E-02 0.27850166E+02</pdfrwt>
<totfact> 0.16279540E+07</totfact>
</mgrwt>
</event>
<event>
 4    1  0.2821610E+004  0.2687287E+02  0.7546771E-02  0.1635472E+00
         21   -1    0    0  503  502  0.00000000000E+00  0.00000000000E+00  0.30225255225E+03  0.30225255225E+03  0.00000000000E+00 0. -1.
         21   -1    0    0  501  503 -0.00000000000E+00 -0.00000000000E+00 -0.26633378057E+01  0.26633378057E+01  0.00000000000E+00 0.  1.
          2    1    1    2  501    0  0.11924136266E+02  0.24082482378E+02  0.10088464498E+03  0.10440240694E+03  0.00000000000E+00 0.  1.
         -2    1    1    2    0  502 -0.11924136266E+02 -0.24082482378E+02  0.19870456947E+03  0.20051348311E+03  0.00000000000E+00 0. -1.
<mgrwt>
<rscale>  2 0.26872867E+02</rscale>
<asrwt>0</asrwt>
<pdfrwt beam="1">  1       21 0.46500366E-01 0.26872867E+02</pdfrwt>
<pdfrwt beam="2">  1       21 0.40974452E-03 0.26872867E+02</pdfrwt>
<totfact> 0.51381830E+07</totfact>
</mgrwt>
</event>
<event>
 4    1  0.2821610E+004  0.2269865E+02  0.7546771E-02  0.1696442E+00
         21   -1    0    0  503  502  0.00000000000E+00  0.00000000000E+00  0.97529855965E+00  0.97529855965E+00  0.00000000000E+00 0.  1.
         21   -1    0    0  501  503 -0.00000000000E+00 -0.00000000000E+00 -0.56585410363E+03  0.56585410363E+03  0.00000000000E+00 0. -1.
          2    1    1    2  501    0  0.22301394027E+02  0.42280838664E+01 -0.35547346207E+03  0.35619743276E+03  0.00000000000E+00 0. -1.
         -2    1    1    2    0  502 -0.22301394027E+02 -0.42280838664E+01 -0.20940534300E+03  0.21063196943E+03  0.00000000000E+00 0.  1.
<mgrwt>
<rscale>  2 0.22698653E+02</rscale>
<asrwt>0</asrwt>
<pdfrwt beam="1">  1       21 0.15004568E-03 0.22698653E+02</pdfrwt>
<pdfrwt beam="2">  1       21 0.87054621E-01 0.22698653E+02</pdfrwt>
<totfact> 0.59839088E+07</totfact>
</mgrwt>
</event>
<event>
 4    1  0.2821610E+004  0.2205204E+02  0.7546771E-02  0.1707353E+00
         21   -1    0    0  503  502  0.00000000000E+00  0.00000000000E+00  0.23203309902E+02  0.23203309902E+02  0.00000000000E+00 0.  1.
         21   -1    0    0  501  503 -0.00000000000E+00 -0.00000000000E+00 -0.79815005362E+02  0.79815005362E+02  0.00000000000E+00 0. -1.
          2    1    1    2  501    0  0.18933879051E+02  0.11304905574E+02 -0.72538361454E+02  0.75816268362E+02  0.00000000000E+00 0. -1.
         -2    1    1    2    0  502 -0.18933879051E+02 -0.11304905574E+02  0.15926665994E+02  0.27202046902E+02  0.00000000000E+00 0.  1.
<mgrwt>
<rscale>  2 0.22052044E+02</rscale>
<asrwt>0</asrwt>
<pdfrwt beam="1">  1       21 0.35697400E-02 0.22052044E+02</pdfrwt>
<pdfrwt beam="2">  1       21 0.12279232E-01 0.22052044E+02</pdfrwt>
<totfact> 0.19980531E+07</totfact>
</mgrwt>
</event>
<event>
 4    1  0.2821610E+004  0.2310518E+02  0.7546771E-02  0.1689811E+00
         21   -1    0    0  501  502  0.00000000000E+00  0.00000000000E+00  0.16220402003E+02  0.16220402003E+02  0.00000000000E+00 0. -1.
         21   -1    0    0  502  503 -0.00000000000E+00 -0.00000000000E+00 -0.33164475280E+02  0.33164475280E+02  0.00000000000E+00 0.  1.
          2    1    1    2  501    0  0.23005517708E+02  0.21437011516E+01 -0.63184866476E+01  0.23953550325E+02  0.00000000000E+00 0. -1.
         -2    1    1    2    0  503 -0.23005517708E+02 -0.21437011516E+01 -0.10625586629E+02  0.25431326958E+02  0.00000000000E+00 0.  1.
<mgrwt>
<rscale>  2 0.23105179E+02</rscale>
<asrwt>0</asrwt>
<pdfrwt beam="1">  1       21 0.24954465E-02 0.23105179E+02</pdfrwt>
<pdfrwt beam="2">  1       21 0.51022269E-02 0.23105179E+02</pdfrwt>
<totfact> 0.14789431E+08</totfact>
</mgrwt>
</event>
<event>
 4    1  0.2821610E+004  0.2507766E+02  0.7546771E-02  0.1659889E+00
         21   -1    0    0  501  502  0.00000000000E+00  0.00000000000E+00  0.27182977729E+01  0.27182977729E+01  0.00000000000E+00 0.  1.
         21   -1    0    0  502  503 -0.00000000000E+00 -0.00000000000E+00 -0.10336889383E+04  0.10336889383E+04  0.00000000000E+00 0. -1.
          2    1    1    2  501    0 -0.22012266230E+02  0.12014532073E+02 -0.58940541640E+02  0.64053698522E+02  0.00000000000E+00 0.  1.
         -2    1    1    2    0  503  0.22012266230E+02 -0.12014532073E+02 -0.97203009887E+03  0.97235353754E+03  0.00000000000E+00 0. -1.
<mgrwt>
<rscale>  2 0.25077656E+02</rscale>
<asrwt>0</asrwt>
<pdfrwt beam="1">  1       21 0.41819902E-03 0.25077656E+02</pdfrwt>
<pdfrwt beam="2">  1       21 0.15902931E+00 0.25077656E+02</pdfrwt>
<totfact> 0.35066312E+06</totfact>
</mgrwt>
</event>
<event>
 4    1  0.2821610E+004  0.4112677E+02  0.7546771E-02  0.1500080E+00
         21   -1    0    0  501  502  0.00000000000E+00  0.00000000000E+00  0.14935975125E+03  0.14935975125E+03  0.00000000000E+00 0.  1.
         21   -1    0    0  502  503 -0.00000000000E+00 -0.00000000000E+00 -0.12366911777E+02  0.12366911777E+02  0.00000000000E+00 0. -1.
          2    1    1    2  501    0 -0.40785613307E+02 -0.52862759354E+01  0.91974335089E+02  0.10075062918E+03  0.00000000000E+00 0. -1.
         -2    1    1    2    0  503  0.40785613307E+02  0.52862759354E+01  0.45018504382E+02  0.60976033841E+02  0.00000000000E+00 0.  1.
<mgrwt>
<rscale>  2 0.41126767E+02</rscale>
<asrwt>0</asrwt>
<pdfrwt beam="1">  1       21 0.22978422E-01 0.41126767E+02</pdfrwt>
<pdfrwt beam="2">  1       21 0.19026019E-02 0.41126767E+02</pdfrwt>
<totfact> 0.20210626E+07</totfact>
</mgrwt>
</event>
<event>
 4    1  0.2821610E+004  0.2043498E+02  0.7546771E-02  0.1736814E+00
         21   -1    0    0  501  502  0.00000000000E+00  0.00000000000E+00  0.99182620101E+03  0.99182620101E+03  0.00000000000E+00 0.  1.
         21   -1    0    0  502  503 -0.00000000000E+00 -0.00000000000E+00 -0.55213125197E+00  0.55213125197E+00  0.00000000000E+00 0. -1.
          2    1    1    2  501    0  0.80838802992E+01 -0.18768042682E+02  0.73742216976E+03  0.73770525618E+03  0.00000000000E+00 0. -1.
         -2    1    1    2    0  503 -0.80838802992E+01  0.18768042682E+02  0.25385190000E+03  0.25467307608E+03  0.00000000000E+00 0.  1.
<mgrwt>
<rscale>  2 0.20434983E+02</rscale>
<asrwt>0</asrwt>
<pdfrwt beam="1">  1       21 0.15258722E+00 0.20434983E+02</pdfrwt>
<pdfrwt beam="2">  1       21 0.84944063E-04 0.20434983E+02</pdfrwt>
<totfact> 0.37376201E+07</totfact>
</mgrwt>
</event>
<event>
 4    1  0.2821610E+004  0.2504907E+02  0.7546771E-02  0.1660298E+00
         21   -1    0    0  503  502  0.00000000000E+00  0.00000000000E+00  0.32653608664E+02  0.32653608664E+02  0.00000000000E+00 0. -1.
         21   -1    0    0  501  503 -0.00000000000E+00 -0.00000000000E+00 -0.26174608068E+02  0.26174608068E+02  0.00000000000E+00 0.  1.
          2    1    1    2  501    0 -0.25034804706E+02  0.84518447890E+00 -0.11927232472E+02  0.27743731868E+02  0.00000000000E+00 0.  1.
         -2    1    1    2    0  502  0.25034804706E+02 -0.84518447890E+00  0.18406233068E+02  0.31084484864E+02  0.00000000000E+00 0. -1.
<mgrwt>
<rscale>  2 0.25049068E+02</rscale>
<asrwt>0</asrwt>
<pdfrwt beam="1">  1       21 0.50236321E-02 0.25049068E+02</pdfrwt>
<pdfrwt beam="2">  1       21 0.40268628E-02 0.25049068E+02</pdfrwt>
<totfact> 0.73395898E+07</totfact>
</mgrwt>
</event>
<event>
 4    1  0.2821610E+004  0.2861132E+02  0.7546771E-02  0.1613966E+00
         21   -1    0    0  501  502  0.00000000000E+00  0.00000000000E+00  0.25582410965E+02  0.25582410965E+02  0.00000000000E+00 0.  1.
         21   -1    0    0  502  503 -0.00000000000E+00 -0.00000000000E+00 -0.36753839200E+03  0.36753839200E+03  0.00000000000E+00 0. -1.
          2    1    1    2  501    0 -0.27008824116E+01 -0.28483549724E+02  0.16831068995E+02  0.33194762452E+02  0.00000000000E+00 0.  1.
         -2    1    1    2    0  503  0.27008824116E+01  0.28483549724E+02 -0.35878705003E+03  0.35992604051E+03  0.00000000000E+00 0. -1.
<mgrwt>
<rscale>  2 0.28611315E+02</rscale>
<asrwt>0</asrwt>
<pdfrwt beam="1">  1       21 0.39357560E-02 0.28611315E+02</pdfrwt>
<pdfrwt beam="2">  1       21 0.56544362E-01 0.28611315E+02</pdfrwt>
<totfact> 0.11200875E+06</totfact>
</mgrwt>
</event>
<event>
 4    1  0.2821610E+004  0.2186228E+02  0.7546771E-02  0.1710645E+00
         21   -1    0    0  501  502  0.00000000000E+00  0.00000000000E+00  0.60075654507E+02  0.60075654507E+02  0.00000000000E+00 0. -1.
         21   -1    0    0  502  503 -0.00000000000E+00 -0.00000000000E+00 -0.86795587369E+01  0.86795587369E+01  0.00000000000E+00 0.  1.
          2    1    1    2  501    0 -0.21689199414E+02 -0.27455117863E+01  0.35624114906E+02  0.41797568937E+02  0.00000000000E+00 0. -1.
         -2    1    1    2    0  503  0.21689199414E+02  0.27455117863E+01  0.15771980865E+02  0.26957644307E+02  0.00000000000E+00 0.  1.
<mgrwt>
<rscale>  2 0.21862278E+02</rscale>
<asrwt>0</asrwt>
<pdfrwt beam="1">  1       21 0.92424081E-02 0.21862278E+02</pdfrwt>
<pdfrwt beam="2">  1       21 0.13353168E-02 0.21862278E+02</pdfrwt>
<totfact> 0.14474871E+08</totfact>
</mgrwt>
</event>
<event>
 4    1  0.2821610E+004  0.2716673E+02  0.7546771E-02  0.1631699E+00
         21   -1    0    0  501  502  0.00000000000E+00  0.00000000000E+00  0.39379623224E+02  0.39379623224E+02  0.00000000000E+00 0.  1.
         21   -1    0    0  502  503 -0.00000000000E+00 -0.00000000000E+00 -0.12619017168E+03  0.12619017168E+03  0.00000000000E+00 0. -1.
          2    1    1    2  501    0 -0.50159563418E+01  0.26699654360E+02  0.32985158441E+02  0.42732330130E+02  0.00000000000E+00 0.  1.
         -2    1    1    2    0  503  0.50159563418E+01 -0.26699654360E+02 -0.11979570690E+03  0.12283746478E+03  0.00000000000E+00 0. -1.
<mgrwt>
<rscale>  2 0.27166733E+02</rscale>
<asrwt>0</asrwt>
<pdfrwt beam="1">  1       21 0.60584036E-02 0.27166733E+02</pdfrwt>
<pdfrwt beam="2">  1       21 0.19413872E-01 0.27166733E+02</pdfrwt>
<totfact> 0.40832078E+06</totfact>
</mgrwt>
</event>
<event>
 4    1  0.2821610E+004  0.2369774E+02  0.7546771E-02  0.1680443E+00
         21   -1    0    0  501  502  0.00000000000E+00  0.00000000000E+00  0.13480381712E+03  0.13480381712E+03  0.00000000000E+00 0.  1.
         21   -1    0    0  502  503 -0.00000000000E+00 -0.00000000000E+00 -0.61633228351E+01  0.61633228351E+01  0.00000000000E+00 0. -1.
          2    1    1    2  501    0 -0.97932055489E+01 -0.21579529340E+02  0.10444500494E+03  0.10709968262E+03  0.00000000000E+00 0.  1.
         -2    1    1    2    0  503  0.97932055489E+01  0.21579529340E+02  0.24195489349E+02  0.33867457335E+02  0.00000000000E+00 0. -1.
<mgrwt>
<rscale>  2 0.23697742E+02</rscale>
<asrwt>0</asrwt>
<pdfrwt beam="1">  1       21 0.20739047E-01 0.23697742E+02</pdfrwt>
<pdfrwt beam="2">  1       21 0.94820361E-03 0.23697742E+02</pdfrwt>
<totfact> 0.63100330E+07</totfact>
</mgrwt>
</event>
<event>
 4    1  0.2821610E+004  0.2202028E+02  0.7546771E-02  0.1707901E+00
         21   -1    0    0  501  502  0.00000000000E+00  0.00000000000E+00  0.97424444183E+01  0.97424444183E+01  0.00000000000E+00 0.  1.
         21   -1    0    0  502  503 -0.00000000000E+00 -0.00000000000E+00 -0.49776809498E+02  0.49776809498E+02  0.00000000000E+00 0. -1.
          2    1    1    2  501    0  0.39562693383E+01  0.21661964081E+02 -0.20334240469E+02  0.29972889257E+02  0.00000000000E+00 0.  1.
         -2    1    1    2    0  503 -0.39562693383E+01 -0.21661964081E+02 -0.19700124610E+02  0.29546364659E+02  0.00000000000E+00 0. -1.
<mgrwt>
<rscale>  2 0.22020281E+02</rscale>
<asrwt>0</asrwt>
<pdfrwt beam="1">  1       21 0.14988376E-02 0.22020281E+02</pdfrwt>
<pdfrwt beam="2">  1       21 0.76579707E-02 0.22020281E+02</pdfrwt>
<totfact> 0.16556647E+08</totfact>
</mgrwt>
</event>
<event>
 4    1  0.2821610E+004  0.2354751E+02  0.7546771E-02  0.1682786E+00
         21   -1    0    0  503  502  0.00000000000E+00  0.00000000000E+00  0.99342247035E+02  0.99342247035E+02  0.00000000000E+00 0.  1.
         21   -1    0    0  501  503 -0.00000000000E+00 -0.00000000000E+00 -0.75363960909E+01  0.75363960909E+01  0.00000000000E+00 0. -1.
          2    1    1    2  501    0  0.12913216886E+02 -0.19690961139E+02  0.18686330174E+02  0.30061005577E+02  0.00000000000E+00 0. -1.
         -2    1    1    2    0  502 -0.12913216886E+02  0.19690961139E+02  0.73119520770E+02  0.76817637549E+02  0.00000000000E+00 0.  1.
<mgrwt>
<rscale>  2 0.23547508E+02</rscale>
<asrwt>0</asrwt>
<pdfrwt beam="1">  1       21 0.15283422E-01 0.23547508E+02</pdfrwt>
<pdfrwt beam="2">  1       21 0.11594456E-02 0.23547508E+02</pdfrwt>
<totfact> 0.78891246E+07</totfact>
</mgrwt>
</event>
<event>
 4    1  0.2821610E+004  0.2620298E+02  0.7546771E-02  0.1644301E+00
         21   -1    0    0  503  502  0.00000000000E+00  0.00000000000E+00  0.94638285426E+02  0.94638285426E+02  0.00000000000E+00 0.  1.
         21   -1    0    0  501  503 -0.00000000000E+00 -0.00000000000E+00 -0.15333171899E+02  0.15333171899E+02  0.00000000000E+00 0. -1.
          2    1    1    2  501    0 -0.78409304298E+01  0.25002314542E+02 -0.25837820463E+00  0.26204249308E+02  0.00000000000E+00 0. -1.
         -2    1    1    2    0  502  0.78409304298E+01 -0.25002314542E+02  0.79563491731E+02  0.83767208017E+02  0.00000000000E+00 0.  1.
<mgrwt>
<rscale>  2 0.26202975E+02</rscale>
<asrwt>0</asrwt>
<pdfrwt beam="1">  1       21 0.14559736E-01 0.26202975E+02</pdfrwt>
<pdfrwt beam="2">  1       21 0.23589496E-02 0.26202975E+02</pdfrwt>
<totfact> 0.29673476E+07</totfact>
</mgrwt>
</event>
<event>
 4    1  0.2821610E+004  0.2119199E+02  0.7546771E-02  0.1722613E+00
         21   -1    0    0  501  502  0.00000000000E+00  0.00000000000E+00  0.11088249135E+02  0.11088249135E+02  0.00000000000E+00 0.  1.
         21   -1    0    0  502  503 -0.00000000000E+00 -0.00000000000E+00 -0.41178769731E+02  0.41178769731E+02  0.00000000000E+00 0. -1.
          2    1    1    2  501    0 -0.17697461153E+02  0.11657630416E+02 -0.11695917441E+02  0.24205267257E+02  0.00000000000E+00 0.  1.
         -2    1    1    2    0  503  0.17697461153E+02 -0.11657630416E+02 -0.18394603155E+02  0.28061751609E+02  0.00000000000E+00 0. -1.
<mgrwt>
<rscale>  2 0.21191991E+02</rscale>
<asrwt>0</asrwt>
<pdfrwt beam="1">  1       21 0.17058845E-02 0.21191991E+02</pdfrwt>
<pdfrwt beam="2">  1       21 0.63351953E-02 0.21191991E+02</pdfrwt>
<totfact> 0.18255017E+08</totfact>
</mgrwt>
</event>
<event>
 4    1  0.2821610E+004  0.5416940E+02  0.7546771E-02  0.1424068E+00
         21   -1    0    0  503  502  0.00000000000E+00  0.00000000000E+00  0.76985002445E+01  0.76985002445E+01  0.00000000000E+00 0. -1.
         21   -1    0    0  501  503 -0.00000000000E+00 -0.00000000000E+00 -0.65730623328E+03  0.65730623328E+03  0.00000000000E+00 0.  1.
          2    1    1    2  501    0 -0.31306444309E+02 -0.44206680028E+02 -0.54032215981E+03  0.54303071772E+03  0.00000000000E+00 0.  1.
         -2    1    1    2    0  502  0.31306444309E+02  0.44206680028E+02 -0.10928557323E+03  0.12197401580E+03  0.00000000000E+00 0. -1.
<mgrwt>
<rscale>  2 0.54169401E+02</rscale>
<asrwt>0</asrwt>
<pdfrwt beam="1">  1       21 0.11843849E-02 0.54169401E+02</pdfrwt>
<pdfrwt beam="2">  1       21 0.10112401E+00 0.54169401E+02</pdfrwt>
<totfact> 0.22258823E+06</totfact>
</mgrwt>
</event>
<event>
 4    1  0.2821610E+004  0.2262445E+02  0.7546771E-02  0.1697671E+00
         21   -1    0    0  501  502  0.00000000000E+00  0.00000000000E+00  0.85870829011E+03  0.85870829011E+03  0.00000000000E+00 0. -1.
         21   -1    0    0  502  503 -0.00000000000E+00 -0.00000000000E+00 -0.92169047086E+00  0.92169047086E+00  0.00000000000E+00 0.  1.
          2    1    1    2  501    0  0.19540391741E+02  0.11403454352E+02  0.68435916327E+03  0.68473303560E+03  0.00000000000E+00 0. -1.
         -2    1    1    2    0  503 -0.19540391741E+02 -0.11403454352E+02  0.17342743637E+03  0.17489694499E+03  0.00000000000E+00 0.  1.
<mgrwt>
<rscale>  2 0.22624449E+02</rscale>
<asrwt>0</asrwt>
<pdfrwt beam="1">  1       21 0.13210833E+00 0.22624449E+02</pdfrwt>
<pdfrwt beam="2">  1       21 0.14179922E-03 0.22624449E+02</pdfrwt>
<totfact> 0.25738600E+07</totfact>
</mgrwt>
</event>
<event>
 4    1  0.2821610E+004  0.2246698E+02  0.7546771E-02  0.1700299E+00
         21   -1    0    0  503  502  0.00000000000E+00  0.00000000000E+00  0.24004456817E+01  0.24004456817E+01  0.00000000000E+00 0.  1.
         21   -1    0    0  501  503 -0.00000000000E+00 -0.00000000000E+00 -0.21030108253E+03  0.21030108253E+03  0.00000000000E+00 0. -1.
          2    1    1    2  501    0  0.17062522488E+02 -0.14616278866E+02 -0.10501973225E+03  0.10739604017E+03  0.00000000000E+00 0. -1.
         -2    1    1    2    0  502 -0.17062522488E+02  0.14616278866E+02 -0.10288090460E+03  0.10530548805E+03  0.00000000000E+00 0.  1.
<mgrwt>
<rscale>  2 0.22466982E+02</rscale>
<asrwt>0</asrwt>
<pdfrwt beam="1">  1       21 0.36929940E-03 0.22466982E+02</pdfrwt>
<pdfrwt beam="2">  1       21 0.32354007E-01 0.22466982E+02</pdfrwt>
<totfact> 0.11341849E+08</totfact>
</mgrwt>
</event>
<event>
 4    1  0.2821610E+004  0.2695103E+02  0.7546771E-02  0.1634463E+00
         21   -1    0    0  503  502  0.00000000000E+00  0.00000000000E+00  0.18904731904E+03  0.18904731904E+03  0.00000000000E+00 0.  1.
         21   -1    0    0  501  503 -0.00000000000E+00 -0.00000000000E+00 -0.14467686573E+02  0.14467686573E+02  0.00000000000E+00 0. -1.
          2    1    1    2  501    0 -0.11454975436E+02 -0.24395523620E+02  0.84841190421E-01  0.26951163851E+02  0.00000000000E+00 0. -1.
         -2    1    1    2    0  502  0.11454975436E+02  0.24395523620E+02  0.17449479127E+03  0.17656384176E+03  0.00000000000E+00 0.  1.
<mgrwt>
<rscale>  2 0.26951030E+02</rscale>
<asrwt>0</asrwt>
<pdfrwt beam="1">  1       21 0.29084201E-01 0.26951030E+02</pdfrwt>
<pdfrwt beam="2">  1       21 0.22257981E-02 0.26951030E+02</pdfrwt>
<totfact> 0.96453129E+06</totfact>
</mgrwt>
</event>
<event>
 4    1  0.2821610E+004  0.2947010E+02  0.7546771E-02  0.1604021E+00
         21   -1    0    0  503  502  0.00000000000E+00  0.00000000000E+00  0.67925539375E+02  0.67925539375E+02  0.00000000000E+00 0. -1.
         21   -1    0    0  501  503 -0.00000000000E+00 -0.00000000000E+00 -0.13588920346E+02  0.13588920346E+02  0.00000000000E+00 0.  1.
          2    1    1    2  501    0 -0.29044237664E+02  0.49918911292E+01  0.17260328820E+02  0.34152681732E+02  0.00000000000E+00 0.  1.
         -2    1    1    2    0  502  0.29044237664E+02 -0.49918911292E+01  0.37076290210E+02  0.47361777989E+02  0.00000000000E+00 0. -1.
<mgrwt>
<rscale>  2 0.29470099E+02</rscale>
<asrwt>0</asrwt>
<pdfrwt beam="1">  1       21 0.10450083E-01 0.29470099E+02</pdfrwt>
<pdfrwt beam="2">  1       21 0.20906032E-02 0.29470099E+02</pdfrwt>
<totfact> 0.64397304E+07</totfact>
</mgrwt>
</event>
<event>
 4    1  0.2821610E+004  0.3270118E+02  0.7546771E-02  0.1570017E+00
         21   -1    0    0  503  502  0.00000000000E+00  0.00000000000E+00  0.18283690178E+03  0.18283690178E+03  0.00000000000E+00 0. -1.
         21   -1    0    0  501  503 -0.00000000000E+00 -0.00000000000E+00 -0.72638620267E+01  0.72638620267E+01  0.00000000000E+00 0.  1.
          2    1    1    2  501    0 -0.19711563912E+02 -0.26092554838E+02  0.45833269132E+02  0.56303247945E+02  0.00000000000E+00 0. -1.
         -2    1    1    2    0  502  0.19711563912E+02  0.26092554838E+02  0.12973977062E+03  0.13379751586E+03  0.00000000000E+00 0.  1.
<mgrwt>
<rscale>  2 0.32701180E+02</rscale>
<asrwt>0</asrwt>
<pdfrwt beam="1">  1       21 0.28128751E-01 0.32701180E+02</pdfrwt>
<pdfrwt beam="2">  1       21 0.11175174E-02 0.32701180E+02</pdfrwt>
<totfact> 0.30579006E+07</totfact>
</mgrwt>
</event>
<event>
 4    1  0.2821610E+004  0.2111962E+02  0.7546771E-02  0.1723938E+00
         21   -1    0    0  501  502  0.00000000000E+00  0.00000000000E+00  0.92408175360E+01  0.92408175360E+01  0.00000000000E+00 0.  1.
         21   -1    0    0  502  503 -0.00000000000E+00 -0.00000000000E+00 -0.50841821198E+02  0.50841821198E+02  0.00000000000E+00 0. -1.
          2    1    1    2  501    0  0.18899357170E+02  0.94261656058E+01 -0.14041623270E+02  0.25361496082E+02  0.00000000000E+00 0.  1.
         -2    1    1    2    0  503 -0.18899357170E+02 -0.94261656058E+01 -0.27559380392E+02  0.34721142652E+02  0.00000000000E+00 0. -1.
<mgrwt>
<rscale>  2 0.21119619E+02</rscale>
<asrwt>0</asrwt>
<pdfrwt beam="1">  1       21 0.14216642E-02 0.21119619E+02</pdfrwt>
<pdfrwt beam="2">  1       21 0.78218186E-02 0.21119619E+02</pdfrwt>
<totfact> 0.17108012E+08</totfact>
</mgrwt>
</event>
<event>
 4    1  0.2821610E+004  0.2478796E+02  0.7546771E-02  0.1664066E+00
         21   -1    0    0  503  502  0.00000000000E+00  0.00000000000E+00  0.57144063397E+03  0.57144063397E+03  0.00000000000E+00 0.  1.
         21   -1    0    0  501  503 -0.00000000000E+00 -0.00000000000E+00 -0.10762825560E+01  0.10762825560E+01  0.00000000000E+00 0. -1.
          2    1    1    2  501    0 -0.24640586003E+02  0.26989832721E+01  0.27632656389E+03  0.27743614202E+03  0.00000000000E+00 0.  1.
         -2    1    1    2    0  502  0.24640586003E+02 -0.26989832721E+01  0.29403778753E+03  0.29508077451E+03  0.00000000000E+00 0. -1.
<mgrwt>
<rscale>  2 0.24787961E+02</rscale>
<asrwt>0</asrwt>
<pdfrwt beam="1">  1       21 0.87913701E-01 0.24787961E+02</pdfrwt>
<pdfrwt beam="2">  1       21 0.16558239E-03 0.24787961E+02</pdfrwt>
<totfact> 0.51860749E+07</totfact>
</mgrwt>
</event>
<event>
 4    1  0.2821610E+004  0.2094584E+02  0.7546771E-02  0.1727148E+00
         21   -1    0    0  501  502  0.00000000000E+00  0.00000000000E+00  0.10676378827E+03  0.10676378827E+03  0.00000000000E+00 0.  1.
         21   -1    0    0  502  503 -0.00000000000E+00 -0.00000000000E+00 -0.65961860507E+01  0.65961860507E+01  0.00000000000E+00 0. -1.
          2    1    1    2  501    0 -0.43745199281E+01 -0.20483943516E+02  0.84886107221E+02  0.87432142634E+02  0.00000000000E+00 0.  1.
         -2    1    1    2    0  503  0.43745199281E+01  0.20483943516E+02  0.15281494999E+02  0.25927831687E+02  0.00000000000E+00 0. -1.
<mgrwt>
<rscale>  2 0.20945844E+02</rscale>
<asrwt>0</asrwt>
<pdfrwt beam="1">  1       21 0.16425197E-01 0.20945844E+02</pdfrwt>
<pdfrwt beam="2">  1       21 0.10147979E-02 0.20945844E+02</pdfrwt>
<totfact> 0.82539582E+07</totfact>
</mgrwt>
</event>
<event>
 4    1  0.2821610E+004  0.8126589E+02  0.7546771E-02  0.1325497E+00
         21   -1    0    0  503  502  0.00000000000E+00  0.00000000000E+00  0.10971902656E+03  0.10971902656E+03  0.00000000000E+00 0.  1.
         21   -1    0    0  501  503 -0.00000000000E+00 -0.00000000000E+00 -0.12938775813E+03  0.12938775813E+03  0.00000000000E+00 0. -1.
          2    1    1    2  501    0 -0.55145470170E+02  0.59691896670E+02 -0.97263630480E+02  0.12674525325E+03  0.00000000000E+00 0. -1.
         -2    1    1    2    0  502  0.55145470170E+02 -0.59691896670E+02  0.77594898912E+02  0.11236153143E+03  0.00000000000E+00 0.  1.
<mgrwt>
<rscale>  2 0.81265893E+02</rscale>
<asrwt>0</asrwt>
<pdfrwt beam="1">  1       21 0.16879850E-01 0.81265893E+02</pdfrwt>
<pdfrwt beam="2">  1       21 0.19905809E-01 0.81265893E+02</pdfrwt>
<totfact> 0.73648779E+05</totfact>
</mgrwt>
</event>
<event>
 4    1  0.2821610E+004  0.2127839E+02  0.7546771E-02  0.1721039E+00
         21   -1    0    0  501  502  0.00000000000E+00  0.00000000000E+00  0.35867426378E+01  0.35867426378E+01  0.00000000000E+00 0. -1.
         21   -1    0    0  502  503 -0.00000000000E+00 -0.00000000000E+00 -0.62315744532E+03  0.62315744532E+03  0.00000000000E+00 0.  1.
          2    1    1    2  501    0 -0.19250068327E+02 -0.90666886400E+01 -0.29947772330E+02  0.36737433784E+02  0.00000000000E+00 0. -1.
         -2    1    1    2    0  503  0.19250068327E+02  0.90666886400E+01 -0.58962293036E+03  0.59000675418E+03  0.00000000000E+00 0.  1.
<mgrwt>
<rscale>  2 0.21278392E+02</rscale>
<asrwt>0</asrwt>
<pdfrwt beam="1">  1       21 0.55180640E-03 0.21278392E+02</pdfrwt>
<pdfrwt beam="2">  1       21 0.95870405E-01 0.21278392E+02</pdfrwt>
<totfact> 0.72354174E+06</totfact>
</mgrwt>
</event>
<event>
 4    1  0.2821610E+004  0.2452024E+02  0.7546771E-02  0.1667990E+00
         21   -1    0    0  501  502  0.00000000000E+00  0.00000000000E+00  0.38440020038E+01  0.38440020038E+01  0.00000000000E+00 0. -1.
         21   -1    0    0  502  503 -0.00000000000E+00 -0.00000000000E+00 -0.15658615244E+03  0.15658615244E+03  0.00000000000E+00 0.  1.
          2    1    1    2  501    0  0.24169385485E+02  0.41331259504E+01 -0.73683756728E+02  0.77656538234E+02  0.00000000000E+00 0. -1.
         -2    1    1    2    0  503 -0.24169385485E+02 -0.41331259504E+01 -0.79058393709E+02  0.82773616211E+02  0.00000000000E+00 0.  1.
<mgrwt>
<rscale>  2 0.24520235E+02</rscale>
<asrwt>0</asrwt>
<pdfrwt beam="1">  1       21 0.59138492E-03 0.24520235E+02</pdfrwt>
<pdfrwt beam="2">  1       21 0.24090177E-01 0.24520235E+02</pdfrwt>
<totfact> 0.98855405E+07</totfact>
</mgrwt>
</event>
<event>
 4    1  0.2821610E+004  0.3117850E+02  0.7546771E-02  0.1585416E+00
         21   -1    0    0  503  502  0.00000000000E+00  0.00000000000E+00  0.22164244873E+02  0.22164244873E+02  0.00000000000E+00 0. -1.
         21   -1    0    0  501  503 -0.00000000000E+00 -0.00000000000E+00 -0.12089965909E+03  0.12089965909E+03  0.00000000000E+00 0.  1.
          2    1    1    2  501    0  0.21636628599E+02  0.22448950031E+02 -0.10646925205E+03  0.11094052770E+03  0.00000000000E+00 0.  1.
         -2    1    1    2    0  502 -0.21636628599E+02 -0.22448950031E+02  0.77338378347E+01  0.32123376259E+02  0.00000000000E+00 0. -1.
<mgrwt>
<rscale>  2 0.31178503E+02</rscale>
<asrwt>0</asrwt>
<pdfrwt beam="1">  1       21 0.34098838E-02 0.31178503E+02</pdfrwt>
<pdfrwt beam="2">  1       21 0.18599948E-01 0.31178503E+02</pdfrwt>
<totfact> 0.11268137E+07</totfact>
</mgrwt>
</event>
<event>
 4    1  0.2821610E+004  0.4147121E+02  0.7546771E-02  0.1497656E+00
         21   -1    0    0  503  502  0.00000000000E+00  0.00000000000E+00  0.21547258936E+01  0.21547258936E+01  0.00000000000E+00 0.  1.
         21   -1    0    0  501  503 -0.00000000000E+00 -0.00000000000E+00 -0.82897133903E+03  0.82897133903E+03  0.00000000000E+00 0. -1.
          2    1    1    2  501    0 -0.55523627743E+01 -0.41097838055E+02 -0.49349773252E+03  0.49523718865E+03  0.00000000000E+00 0. -1.
         -2    1    1    2    0  502  0.55523627743E+01  0.41097838055E+02 -0.33331888062E+03  0.33588887627E+03  0.00000000000E+00 0.  1.
<mgrwt>
<rscale>  2 0.41471207E+02</rscale>
<asrwt>0</asrwt>
<pdfrwt beam="1">  1       21 0.33149653E-03 0.41471207E+02</pdfrwt>
<pdfrwt beam="2">  1       21 0.12753396E+00 0.41471207E+02</pdfrwt>
<totfact> 0.88015179E+06</totfact>
</mgrwt>
</event>
<event>
 4    1  0.2821610E+004  0.2977295E+02  0.7546771E-02  0.1600612E+00
         21   -1    0    0  501  502  0.00000000000E+00  0.00000000000E+00  0.11179479321E+03  0.11179479321E+03  0.00000000000E+00 0.  1.
         21   -1    0    0  502  503 -0.00000000000E+00 -0.00000000000E+00 -0.12459428046E+02  0.12459428046E+02  0.00000000000E+00 0. -1.
          2    1    1    2  501    0 -0.26008906409E+02 -0.14490178625E+02  0.87130330809E+02  0.92076723639E+02  0.00000000000E+00 0.  1.
         -2    1    1    2    0  503  0.26008906409E+02  0.14490178625E+02  0.12205034353E+02  0.32177497614E+02  0.00000000000E+00 0. -1.
<mgrwt>
<rscale>  2 0.29772949E+02</rscale>
<asrwt>0</asrwt>
<pdfrwt beam="1">  1       21 0.17199198E-01 0.29772949E+02</pdfrwt>
<pdfrwt beam="2">  1       21 0.19168352E-02 0.29772949E+02</pdfrwt>
<totfact> 0.31546526E+07</totfact>
</mgrwt>
</event>
<event>
 4    1  0.2821610E+004  0.2002845E+02  0.7546771E-02  0.1744763E+00
         21   -1    0    0  501  502  0.00000000000E+00  0.00000000000E+00  0.63925835353E+03  0.63925835353E+03  0.00000000000E+00 0.  1.
         21   -1    0    0  502  503 -0.00000000000E+00 -0.00000000000E+00 -0.64064277873E+00  0.64064277873E+00  0.00000000000E+00 0. -1.
          2    1    1    2  501    0  0.12672298707E+02  0.15509726875E+02  0.36512403335E+03  0.36567293927E+03  0.00000000000E+00 0.  1.
         -2    1    1    2    0  503 -0.12672298707E+02 -0.15509726875E+02  0.27349367740E+03  0.27422605704E+03  0.00000000000E+00 0. -1.
<mgrwt>
<rscale>  2 0.20028449E+02</rscale>
<asrwt>0</asrwt>
<pdfrwt beam="1">  1       21 0.98346929E-01 0.20028449E+02</pdfrwt>
<pdfrwt beam="2">  1       21 0.98560939E-04 0.20028449E+02</pdfrwt>
<totfact> 0.81356082E+07</totfact>
</mgrwt>
</event>
<event>
 4    1  0.2821610E+004  0.3050603E+02  0.7546771E-02  0.1592562E+00
         21   -1    0    0  501  502  0.00000000000E+00  0.00000000000E+00  0.11701512729E+02  0.11701512729E+02  0.00000000000E+00 0.  1.
         21   -1    0    0  502  503 -0.00000000000E+00 -0.00000000000E+00 -0.94711575797E+02  0.94711575797E+02  0.00000000000E+00 0. -1.
          2    1    1    2  501    0 -0.24792863497E+02  0.17774470621E+02 -0.20202749546E+02  0.36589192058E+02  0.00000000000E+00 0. -1.
         -2    1    1    2    0  503  0.24792863497E+02 -0.17774470621E+02 -0.62807313522E+02  0.69823896469E+02  0.00000000000E+00 0.  1.
<mgrwt>
<rscale>  2 0.30506030E+02</rscale>
<asrwt>0</asrwt>
<pdfrwt beam="1">  1       21 0.18002327E-02 0.30506030E+02</pdfrwt>
<pdfrwt beam="2">  1       21 0.14571012E-01 0.30506030E+02</pdfrwt>
<totfact> 0.46529180E+07</totfact>
</mgrwt>
</event>
<event>
 4    1  0.2821610E+004  0.2003512E+02  0.7546771E-02  0.1744631E+00
         21   -1    0    0  503  502  0.00000000000E+00  0.00000000000E+00  0.29184548572E+02  0.29184548572E+02  0.00000000000E+00 0.  1.
         21   -1    0    0  501  503 -0.00000000000E+00 -0.00000000000E+00 -0.14044618963E+02  0.14044618963E+02  0.00000000000E+00 0. -1.
          2    1    1    2  501    0  0.19680207946E+02 -0.37543742697E+01  0.44610262577E+01  0.20525756167E+02  0.00000000000E+00 0. -1.
         -2    1    1    2    0  502 -0.19680207946E+02  0.37543742697E+01  0.10678903351E+02  0.22703411368E+02  0.00000000000E+00 0.  1.
<mgrwt>
<rscale>  2 0.20035117E+02</rscale>
<asrwt>0</asrwt>
<pdfrwt beam="1">  1       21 0.44899306E-02 0.20035117E+02</pdfrwt>
<pdfrwt beam="2">  1       21 0.21607106E-02 0.20035117E+02</pdfrwt>
<totfact> 0.21604746E+08</totfact>
</mgrwt>
</event>
<event>
 4    1  0.2821610E+004  0.2156969E+02  0.7546771E-02  0.1715802E+00
         21   -1    0    0  503  502  0.00000000000E+00  0.00000000000E+00  0.34355556382E+02  0.34355556382E+02  0.00000000000E+00 0. -1.
         21   -1    0    0  501  503 -0.00000000000E+00 -0.00000000000E+00 -0.89955554148E+03  0.89955554148E+03  0.00000000000E+00 0.  1.
          2    1    1    2  501    0 -0.21528203247E+02  0.13371081200E+01 -0.89602735061E+03  0.89628693198E+03  0.00000000000E+00 0.  1.
         -2    1    1    2    0  502  0.21528203247E+02 -0.13371081200E+01  0.30827365518E+02  0.37624165877E+02  0.00000000000E+00 0. -1.
<mgrwt>
<rscale>  2 0.21569687E+02</rscale>
<asrwt>0</asrwt>
<pdfrwt beam="1">  1       21 0.52854704E-02 0.21569687E+02</pdfrwt>
<pdfrwt beam="2">  1       21 0.13839316E+00 0.21569687E+02</pdfrwt>
<totfact> 0.10127233E+05</totfact>
</mgrwt>
</event>
<event>
 4    1  0.2821610E+004  0.2707182E+02  0.7546771E-02  0.1632911E+00
         21   -1    0    0  503  502  0.00000000000E+00  0.00000000000E+00  0.18410897776E+03  0.18410897776E+03  0.00000000000E+00 0.  1.
         21   -1    0    0  501  503 -0.00000000000E+00 -0.00000000000E+00 -0.59665302068E+01  0.59665302068E+01  0.00000000000E+00 0. -1.
          2    1    1    2  501    0  0.25335574484E+02  0.95389740523E+01  0.34242788548E+02  0.43651482540E+02  0.00000000000E+00 0. -1.
         -2    1    1    2    0  502 -0.25335574484E+02 -0.95389740523E+01  0.14389965901E+03  0.14642402543E+03  0.00000000000E+00 0.  1.
<mgrwt>
<rscale>  2 0.27071819E+02</rscale>
<asrwt>0</asrwt>
<pdfrwt beam="1">  1       21 0.28324454E-01 0.27071819E+02</pdfrwt>
<pdfrwt beam="2">  1       21 0.91792787E-03 0.27071819E+02</pdfrwt>
<totfact> 0.39175271E+07</totfact>
</mgrwt>
</event>
<event>
 4    1  0.2821610E+004  0.2353033E+02  0.7546771E-02  0.1683055E+00
         21   -1    0    0  503  502  0.00000000000E+00  0.00000000000E+00  0.16303886148E+03  0.16303886148E+03  0.00000000000E+00 0. -1.
         21   -1    0    0  501  503 -0.00000000000E+00 -0.00000000000E+00 -0.13424598945E+02  0.13424598945E+02  0.00000000000E+00 0.  1.
          2    1    1    2  501    0 -0.15267180018E+02  0.17905012786E+02 -0.14525102835E+01  0.23575115158E+02  0.00000000000E+00 0.  1.
         -2    1    1    2    0  502  0.15267180018E+02 -0.17905012786E+02  0.15106677282E+03  0.15288834526E+03  0.00000000000E+00 0. -1.
<mgrwt>
<rscale>  2 0.23530327E+02</rscale>
<asrwt>0</asrwt>
<pdfrwt beam="1">  1       21 0.25082900E-01 0.23530327E+02</pdfrwt>
<pdfrwt beam="2">  1       21 0.20653230E-02 0.23530327E+02</pdfrwt>
<totfact> 0.13798295E+07</totfact>
</mgrwt>
</event>
<event>
 4    1  0.2821610E+004  0.3026380E+02  0.7546771E-02  0.1595191E+00
         21   -1    0    0  501  502  0.00000000000E+00  0.00000000000E+00  0.91762952415E+02  0.91762952415E+02  0.00000000000E+00 0.  1.
         21   -1    0    0  502  503 -0.00000000000E+00 -0.00000000000E+00 -0.13901587927E+02  0.13901587927E+02  0.00000000000E+00 0. -1.
          2    1    1    2  501    0 -0.18628950170E+02 -0.23850784432E+02  0.66987319650E+02  0.73506453434E+02  0.00000000000E+00 0.  1.
         -2    1    1    2    0  503  0.18628950170E+02  0.23850784432E+02  0.10874044838E+02  0.32158086908E+02  0.00000000000E+00 0. -1.
<mgrwt>
<rscale>  2 0.30263802E+02</rscale>
<asrwt>0</asrwt>
<pdfrwt beam="1">  1       21 0.14117377E-01 0.30263802E+02</pdfrwt>
<pdfrwt beam="2">  1       21 0.21387059E-02 0.30263802E+02</pdfrwt>
<totfact> 0.37558737E+07</totfact>
</mgrwt>
</event>
<event>
 4    1  0.2821610E+004  0.6526655E+02  0.7546771E-02  0.1376972E+00
         21   -1    0    0  503  502  0.00000000000E+00  0.00000000000E+00  0.20912303491E+02  0.20912303491E+02  0.00000000000E+00 0.  1.
         21   -1    0    0  501  503 -0.00000000000E+00 -0.00000000000E+00 -0.26298135205E+03  0.26298135205E+03  0.00000000000E+00 0. -1.
          2    1    1    2  501    0  0.60799824481E+02  0.23729806849E+02 -0.18843177828E+03  0.19941478745E+03  0.00000000000E+00 0. -1.
         -2    1    1    2    0  502 -0.60799824481E+02 -0.23729806849E+02 -0.53637270277E+02  0.84478868084E+02  0.00000000000E+00 0.  1.
<mgrwt>
<rscale>  2 0.65266549E+02</rscale>
<asrwt>0</asrwt>
<pdfrwt beam="1">  1       21 0.32172774E-02 0.65266549E+02</pdfrwt>
<pdfrwt beam="2">  1       21 0.40458671E-01 0.65266549E+02</pdfrwt>
<totfact> 0.31786566E+06</totfact>
</mgrwt>
</event>
<event>
 4    1  0.2821610E+004  0.2596024E+02  0.7546771E-02  0.1647581E+00
         21   -1    0    0  501  502  0.00000000000E+00  0.00000000000E+00  0.12611254266E+03  0.12611254266E+03  0.00000000000E+00 0. -1.
         21   -1    0    0  502  503 -0.00000000000E+00 -0.00000000000E+00 -0.23067806593E+02  0.23067806593E+02  0.00000000000E+00 0.  1.
          2    1    1    2  501    0  0.98281874674E+01 -0.24027918944E+02  0.11690434815E+03  0.11975208046E+03  0.00000000000E+00 0. -1.
         -2    1    1    2    0  503 -0.98281874674E+01  0.24027918944E+02 -0.13859612077E+02  0.29428268801E+02  0.00000000000E+00 0.  1.
<mgrwt>
<rscale>  2 0.25960242E+02</rscale>
<asrwt>0</asrwt>
<pdfrwt beam="1">  1       21 0.19401929E-01 0.25960242E+02</pdfrwt>
<pdfrwt beam="2">  1       21 0.35488934E-02 0.25960242E+02</pdfrwt>
<totfact> 0.95280832E+06</totfact>
</mgrwt>
</event>
<event>
 4    1  0.2821610E+004  0.2519758E+02  0.7546771E-02  0.1658180E+00
         21   -1    0    0  503  502  0.00000000000E+00  0.00000000000E+00  0.59626519201E+03  0.59626519201E+03  0.00000000000E+00 0.  1.
         21   -1    0    0  501  503 -0.00000000000E+00 -0.00000000000E+00 -0.36495999868E+01  0.36495999868E+01  0.00000000000E+00 0. -1.
          2    1    1    2  501    0 -0.25130126940E+02 -0.18425530611E+01  0.43873542792E+02  0.50594525781E+02  0.00000000000E+00 0. -1.
         -2    1    1    2    0  502  0.25130126940E+02  0.18425530611E+01  0.54874204923E+03  0.54932026621E+03  0.00000000000E+00 0.  1.
<mgrwt>
<rscale>  2 0.25197585E+02</rscale>
<asrwt>0</asrwt>
<pdfrwt beam="1">  1       21 0.91733029E-01 0.25197585E+02</pdfrwt>
<pdfrwt beam="2">  1       21 0.56147739E-03 0.25197585E+02</pdfrwt>
<totfact> 0.79641639E+06</totfact>
</mgrwt>
</event>
<event>
 4    1  0.2821610E+004  0.2089415E+02  0.7546771E-02  0.1728110E+00
         21   -1    0    0  501  502  0.00000000000E+00  0.00000000000E+00  0.48012892462E+01  0.48012892462E+01  0.00000000000E+00 0. -1.
         21   -1    0    0  502  503 -0.00000000000E+00 -0.00000000000E+00 -0.12696317108E+03  0.12696317108E+03  0.00000000000E+00 0.  1.
          2    1    1    2  501    0  0.25569762783E+01  0.20737102447E+02 -0.25981488587E+02  0.33340715271E+02  0.00000000000E+00 0. -1.
         -2    1    1    2    0  503 -0.25569762783E+01 -0.20737102447E+02 -0.96180393246E+02  0.98423745055E+02  0.00000000000E+00 0.  1.
<mgrwt>
<rscale>  2 0.20894151E+02</rscale>
<asrwt>0</asrwt>
<pdfrwt beam="1">  1       21 0.73865999E-03 0.20894151E+02</pdfrwt>
<pdfrwt beam="2">  1       21 0.19532793E-01 0.20894151E+02</pdfrwt>
<totfact> 0.98295192E+07</totfact>
</mgrwt>
</event>
<event>
 4    1  0.2821610E+004  0.2452055E+02  0.7546771E-02  0.1667985E+00
         21   -1    0    0  501  502  0.00000000000E+00  0.00000000000E+00  0.33225813445E+02  0.33225813445E+02  0.00000000000E+00 0.  1.
         21   -1    0    0  502  503 -0.00000000000E+00 -0.00000000000E+00 -0.25816650470E+02  0.25816650470E+02  0.00000000000E+00 0. -1.
          2    1    1    2  501    0  0.17569203325E+02 -0.17104986529E+02  0.19848494521E+02  0.31547110872E+02  0.00000000000E+00 0.  1.
         -2    1    1    2    0  503 -0.17569203325E+02  0.17104986529E+02 -0.12439331547E+02  0.27495353043E+02  0.00000000000E+00 0. -1.
<mgrwt>
<rscale>  2 0.24520552E+02</rscale>
<asrwt>0</asrwt>
<pdfrwt beam="1">  1       21 0.51116636E-02 0.24520552E+02</pdfrwt>
<pdfrwt beam="2">  1       21 0.39717924E-02 0.24520552E+02</pdfrwt>
<totfact> 0.72562562E+07</totfact>
</mgrwt>
</event>
<event>
 4    1  0.2821610E+004  0.2599993E+02  0.7546771E-02  0.1647041E+00
         21   -1    0    0  501  502  0.00000000000E+00  0.00000000000E+00  0.16582608404E+03  0.16582608404E+03  0.00000000000E+00 0.  1.
         21   -1    0    0  502  503 -0.00000000000E+00 -0.00000000000E+00 -0.81145930398E+01  0.81145930398E+01  0.00000000000E+00 0. -1.
          2    1    1    2  501    0  0.12404495943E+02 -0.22850048410E+02  0.14020706935E+03  0.14259740014E+03  0.00000000000E+00 0.  1.
         -2    1    1    2    0  503 -0.12404495943E+02  0.22850048410E+02  0.17504421656E+02  0.31343276942E+02  0.00000000000E+00 0. -1.
<mgrwt>
<rscale>  2 0.25999928E+02</rscale>
<asrwt>0</asrwt>
<pdfrwt beam="1">  1       21 0.25511703E-01 0.25999928E+02</pdfrwt>
<pdfrwt beam="2">  1       21 0.12483991E-02 0.25999928E+02</pdfrwt>
<totfact> 0.29472809E+07</totfact>
</mgrwt>
</event>
<event>
 4    1  0.2821610E+004  0.3072831E+02  0.7546771E-02  0.1590175E+00
         21   -1    0    0  503  502  0.00000000000E+00  0.00000000000E+00  0.80871954356E+01  0.80871954356E+01  0.00000000000E+00 0.  1.
         21   -1    0    0  501  503 -0.00000000000E+00 -0.00000000000E+00 -0.13589977680E+03  0.13589977680E+03  0.00000000000E+00 0. -1.
          2    1    1    2  501    0 -0.76296590571E+01  0.29766039731E+02 -0.90927035930E+02  0.95978928321E+02  0.00000000000E+00 0. -1.
         -2    1    1    2    0  502  0.76296590571E+01 -0.29766039731E+02 -0.36885545439E+02  0.48008043919E+02  0.00000000000E+00 0.  1.
<mgrwt>
<rscale>  2 0.30728306E+02</rscale>
<asrwt>0</asrwt>
<pdfrwt beam="1">  1       21 0.12441840E-02 0.30728306E+02</pdfrwt>
<pdfrwt beam="2">  1       21 0.20907657E-01 0.30728306E+02</pdfrwt>
<totfact> 0.43763869E+07</totfact>
</mgrwt>
</event>
<event>
 4    1  0.2821610E+004  0.3512414E+02  0.7546771E-02  0.1547501E+00
         21   -1    0    0  503  502  0.00000000000E+00  0.00000000000E+00  0.13500075059E+03  0.13500075059E+03  0.00000000000E+00 0.  1.
         21   -1    0    0  501  503 -0.00000000000E+00 -0.00000000000E+00 -0.14223612047E+02  0.14223612047E+02  0.00000000000E+00 0. -1.
          2    1    1    2  501    0  0.33476785318E+02 -0.10630624666E+02  0.15776256100E+02  0.38504487953E+02  0.00000000000E+00 0. -1.
         -2    1    1    2    0  502 -0.33476785318E+02  0.10630624666E+02  0.10500088244E+03  0.11071987468E+03  0.00000000000E+00 0.  1.
<mgrwt>
<rscale>  2 0.35124142E+02</rscale>
<asrwt>0</asrwt>
<pdfrwt beam="1">  1       21 0.20769345E-01 0.35124142E+02</pdfrwt>
<pdfrwt beam="2">  1       21 0.21882481E-02 0.35124142E+02</pdfrwt>
<totfact> 0.18992404E+07</totfact>
</mgrwt>
</event>
<event>
 4    1  0.2821610E+004  0.2025349E+02  0.7546771E-02  0.1740334E+00
         21   -1    0    0  503  502  0.00000000000E+00  0.00000000000E+00  0.85864258263E+02  0.85864258263E+02  0.00000000000E+00 0. -1.
         21   -1    0    0  501  503 -0.00000000000E+00 -0.00000000000E+00 -0.55134677836E+01  0.55134677836E+01  0.00000000000E+00 0.  1.
          2    1    1    2  501    0  0.18730191675E+02 -0.77060809555E+01  0.23480985408E+02  0.31009038031E+02  0.00000000000E+00 0.  1.
         -2    1    1    2    0  502 -0.18730191675E+02  0.77060809555E+01  0.56869805072E+02  0.60368688016E+02  0.00000000000E+00 0. -1.
<mgrwt>
<rscale>  2 0.20253488E+02</rscale>
<asrwt>0</asrwt>
<pdfrwt beam="1">  1       21 0.13209885E-01 0.20253488E+02</pdfrwt>
<pdfrwt beam="2">  1       21 0.84822588E-03 0.20253488E+02</pdfrwt>
<totfact> 0.15443552E+08</totfact>
</mgrwt>
</event>
<event>
 4    1  0.2821610E+004  0.2878674E+02  0.7546771E-02  0.1611900E+00
         21   -1    0    0  503  502  0.00000000000E+00  0.00000000000E+00  0.26907306037E+03  0.26907306037E+03  0.00000000000E+00 0. -1.
         21   -1    0    0  501  503 -0.00000000000E+00 -0.00000000000E+00 -0.10257147792E+02  0.10257147792E+02  0.00000000000E+00 0.  1.
          2    1    1    2  501    0  0.61370274809E+01 -0.28124962712E+02  0.12576917686E+02  0.31414256196E+02  0.00000000000E+00 0.  1.
         -2    1    1    2    0  502 -0.61370274809E+01  0.28124962712E+02  0.24623899490E+03  0.24791595197E+03  0.00000000000E+00 0. -1.
<mgrwt>
<rscale>  2 0.28786744E+02</rscale>
<asrwt>0</asrwt>
<pdfrwt beam="1">  1       21 0.41395850E-01 0.28786744E+02</pdfrwt>
<pdfrwt beam="2">  1       21 0.15780229E-02 0.28786744E+02</pdfrwt>
<totfact> 0.85734025E+06</totfact>
</mgrwt>
</event>
<event>
 4    1  0.2821610E+004  0.2403604E+02  0.7546771E-02  0.1675246E+00
         21   -1    0    0  501  502  0.00000000000E+00  0.00000000000E+00  0.30428064638E+02  0.30428064638E+02  0.00000000000E+00 0.  1.
         21   -1    0    0  502  503 -0.00000000000E+00 -0.00000000000E+00 -0.74877680815E+02  0.74877680815E+02  0.00000000000E+00 0. -1.
          2    1    1    2  501    0  0.22947907297E+02  0.71501618142E+01  0.23265240008E+02  0.33451497065E+02  0.00000000000E+00 0.  1.
         -2    1    1    2    0  503 -0.22947907297E+02 -0.71501618142E+01 -0.67714856185E+02  0.71854248388E+02  0.00000000000E+00 0. -1.
<mgrwt>
<rscale>  2 0.24036041E+02</rscale>
<asrwt>0</asrwt>
<pdfrwt beam="1">  1       21 0.46812407E-02 0.24036041E+02</pdfrwt>
<pdfrwt beam="2">  1       21 0.11519643E-01 0.24036041E+02</pdfrwt>
<totfact> 0.14771385E+07</totfact>
</mgrwt>
</event>
<event>
 4    1  0.2821610E+004  0.2370037E+02  0.7546771E-02  0.1680403E+00
         21   -1    0    0  503  502  0.00000000000E+00  0.00000000000E+00  0.80171497033E+02  0.80171497033E+02  0.00000000000E+00 0.  1.
         21   -1    0    0  501  503 -0.00000000000E+00 -0.00000000000E+00 -0.97744534438E+01  0.97744534438E+01  0.00000000000E+00 0. -1.
          2    1    1    2  501    0  0.23697650144E+02 -0.35917072330E+00  0.11265450372E+02  0.26241531930E+02  0.00000000000E+00 0. -1.
         -2    1    1    2    0  502 -0.23697650144E+02  0.35917072330E+00  0.59131593217E+02  0.63704418547E+02  0.00000000000E+00 0.  1.
<mgrwt>
<rscale>  2 0.23700372E+02</rscale>
<asrwt>0</asrwt>
<pdfrwt beam="1">  1       21 0.12334076E-01 0.23700372E+02</pdfrwt>
<pdfrwt beam="2">  1       21 0.15037621E-02 0.23700372E+02</pdfrwt>
<totfact> 0.76611007E+07</totfact>
</mgrwt>
</event>
<event>
 4    1  0.2821610E+004  0.2866271E+02  0.7546771E-02  0.1613359E+00
         21   -1    0    0  503  502  0.00000000000E+00  0.00000000000E+00  0.60857994914E+01  0.60857994914E+01  0.00000000000E+00 0.  1.
         21   -1    0    0  501  503 -0.00000000000E+00 -0.00000000000E+00 -0.33388505740E+03  0.33388505740E+03  0.00000000000E+00 0. -1.
          2    1    1    2  501    0  0.22956950304E+02 -0.17161857348E+02 -0.29509545670E+03  0.29648419769E+03  0.00000000000E+00 0. -1.
         -2    1    1    2    0  502 -0.22956950304E+02  0.17161857348E+02 -0.32703801203E+02  0.43486659196E+02  0.00000000000E+00 0.  1.
<mgrwt>
<rscale>  2 0.28662709E+02</rscale>
<asrwt>0</asrwt>
<pdfrwt beam="1">  1       21 0.93627677E-03 0.28662709E+02</pdfrwt>
<pdfrwt beam="2">  1       21 0.51366936E-01 0.28662709E+02</pdfrwt>
<totfact> 0.12478048E+07</totfact>
</mgrwt>
</event>
<event>
 4    1  0.2821610E+004  0.2430300E+02  0.7546771E-02  0.1671220E+00
         21   -1    0    0  501  502  0.00000000000E+00  0.00000000000E+00  0.65977695304E+03  0.65977695304E+03  0.00000000000E+00 0. -1.
         21   -1    0    0  502  503 -0.00000000000E+00 -0.00000000000E+00 -0.18596525323E+01  0.18596525323E+01  0.00000000000E+00 0.  1.
          2    1    1    2  501    0  0.19368283572E+02  0.14680102478E+02  0.56719765415E+03  0.56771807677E+03  0.00000000000E+00 0. -1.
         -2    1    1    2    0  503 -0.19368283572E+02 -0.14680102478E+02  0.90719646357E+02  0.93918528802E+02  0.00000000000E+00 0.  1.
<mgrwt>
<rscale>  2 0.24303000E+02</rscale>
<asrwt>0</asrwt>
<pdfrwt beam="1">  1       21 0.10150396E+00 0.24303000E+02</pdfrwt>
<pdfrwt beam="2">  1       21 0.28610092E-03 0.24303000E+02</pdfrwt>
<totfact> 0.17118897E+07</totfact>
</mgrwt>
</event>
<event>
 4    1  0.2821610E+004  0.2019844E+02  0.7546771E-02  0.1741410E+00
         21   -1    0    0  501  502  0.00000000000E+00  0.00000000000E+00  0.20752603106E+02  0.20752603106E+02  0.00000000000E+00 0.  1.
         21   -1    0    0  502  503 -0.00000000000E+00 -0.00000000000E+00 -0.20456213601E+02  0.20456213601E+02  0.00000000000E+00 0. -1.
          2    1    1    2  501    0  0.17481694330E+02  0.10117665182E+02  0.42155959325E+01  0.20633662652E+02  0.00000000000E+00 0.  1.
         -2    1    1    2    0  503 -0.17481694330E+02 -0.10117665182E+02 -0.39192064269E+01  0.20575154055E+02  0.00000000000E+00 0. -1.
<mgrwt>
<rscale>  2 0.20198435E+02</rscale>
<asrwt>0</asrwt>
<pdfrwt beam="1">  1       21 0.31927082E-02 0.20198435E+02</pdfrwt>
<pdfrwt beam="2">  1       21 0.31471098E-02 0.20198435E+02</pdfrwt>
<totfact> 0.20686105E+08</totfact>
</mgrwt>
</event>
<event>
 4    1  0.2821610E+004  0.2255861E+02  0.7546771E-02  0.1698766E+00
         21   -1    0    0  501  502  0.00000000000E+00  0.00000000000E+00  0.84984396216E+02  0.84984396216E+02  0.00000000000E+00 0.  1.
         21   -1    0    0  502  503 -0.00000000000E+00 -0.00000000000E+00 -0.62799432260E+01  0.62799432260E+01  0.00000000000E+00 0. -1.
          2    1    1    2  501    0  0.16169552485E+02 -0.15730118836E+02  0.49190141342E+02  0.54116181234E+02  0.00000000000E+00 0.  1.
         -2    1    1    2    0  503 -0.16169552485E+02  0.15730118836E+02  0.29514311649E+02  0.37148158208E+02  0.00000000000E+00 0. -1.
<mgrwt>
<rscale>  2 0.22558614E+02</rscale>
<asrwt>0</asrwt>
<pdfrwt beam="1">  1       21 0.13074522E-01 0.22558614E+02</pdfrwt>
<pdfrwt beam="2">  1       21 0.96614518E-03 0.22558614E+02</pdfrwt>
<totfact> 0.13361690E+08</totfact>
</mgrwt>
</event>
<event>
 4    1  0.2821610E+004  0.3615935E+02  0.7546771E-02  0.1538540E+00
         21   -1    0    0  503  502  0.00000000000E+00  0.00000000000E+00  0.65138328780E+02  0.65138328780E+02  0.00000000000E+00 0.  1.
         21   -1    0    0  501  503 -0.00000000000E+00 -0.00000000000E+00 -0.44345742196E+02  0.44345742196E+02  0.00000000000E+00 0. -1.
          2    1    1    2  501    0 -0.58753844842E+01  0.35678825049E+02 -0.30103942786E+02  0.47050463026E+02  0.00000000000E+00 0. -1.
         -2    1    1    2    0  502  0.58753844842E+01 -0.35678825049E+02  0.50896529370E+02  0.62433607950E+02  0.00000000000E+00 0.  1.
<mgrwt>
<rscale>  2 0.36159351E+02</rscale>
<asrwt>0</asrwt>
<pdfrwt beam="1">  1       21 0.10021281E-01 0.36159351E+02</pdfrwt>
<pdfrwt beam="2">  1       21 0.68224218E-02 0.36159351E+02</pdfrwt>
<totfact> 0.10898918E+07</totfact>
</mgrwt>
</event>
<event>
 4    1  0.2821610E+004  0.3097060E+02  0.7546771E-02  0.1587601E+00
         21   -1    0    0  501  502  0.00000000000E+00  0.00000000000E+00  0.19870875872E+04  0.19870875872E+04  0.00000000000E+00 0.  1.
         21   -1    0    0  502  503 -0.00000000000E+00 -0.00000000000E+00 -0.29680537933E+01  0.29680537933E+01  0.00000000000E+00 0. -1.
          2    1    1    2  501    0 -0.30928172917E+02 -0.16205149374E+01  0.19025870759E+04  0.19028391312E+04  0.00000000000E+00 0.  1.
         -2    1    1    2    0  503  0.30928172917E+02  0.16205149374E+01  0.81532457502E+02  0.87216509761E+02  0.00000000000E+00 0. -1.
<mgrwt>
<rscale>  2 0.30970598E+02</rscale>
<asrwt>0</asrwt>
<pdfrwt beam="1">  1       21 0.30570472E+00 0.30970598E+02</pdfrwt>
<pdfrwt beam="2">  1       21 0.45662525E-03 0.30970598E+02</pdfrwt>
<totfact> 0.49526333E+05</totfact>
</mgrwt>
</event>
<event>
 4    1  0.2821610E+004  0.2219044E+02  0.7546771E-02  0.1704979E+00
         21   -1    0    0  503  502  0.00000000000E+00  0.00000000000E+00  0.11919795256E+02  0.11919795256E+02  0.00000000000E+00 0.  1.
         21   -1    0    0  501  503 -0.00000000000E+00 -0.00000000000E+00 -0.33570121496E+03  0.33570121496E+03  0.00000000000E+00 0. -1.
          2    1    1    2  501    0 -0.19363296373E+02 -0.10838745612E+02 -0.32465586507E+03  0.32541334695E+03  0.00000000000E+00 0. -1.
         -2    1    1    2    0  502  0.19363296373E+02  0.10838745612E+02  0.87444536369E+00  0.22207663262E+02  0.00000000000E+00 0.  1.
<mgrwt>
<rscale>  2 0.22190441E+02</rscale>
<asrwt>0</asrwt>
<pdfrwt beam="1">  1       21 0.18338147E-02 0.22190441E+02</pdfrwt>
<pdfrwt beam="2">  1       21 0.51646340E-01 0.22190441E+02</pdfrwt>
<totfact> 0.42716544E+06</totfact>
</mgrwt>
</event>
<event>
 4    1  0.2821610E+004  0.3401406E+02  0.7546771E-02  0.1557534E+00
         21   -1    0    0  501  502  0.00000000000E+00  0.00000000000E+00  0.48479653235E+02  0.48479653235E+02  0.00000000000E+00 0.  1.
         21   -1    0    0  502  503 -0.00000000000E+00 -0.00000000000E+00 -0.29368521040E+02  0.29368521040E+02  0.00000000000E+00 0. -1.
          2    1    1    2  501    0  0.28028808635E+02  0.19270234619E+02  0.26405824252E+02  0.43060696815E+02  0.00000000000E+00 0.  1.
         -2    1    1    2    0  503 -0.28028808635E+02 -0.19270234619E+02 -0.72946920573E+01  0.34787477460E+02  0.00000000000E+00 0. -1.
<mgrwt>
<rscale>  2 0.34014057E+02</rscale>
<asrwt>0</asrwt>
<pdfrwt beam="1">  1       21 0.74584082E-02 0.34014057E+02</pdfrwt>
<pdfrwt beam="2">  1       21 0.45182340E-02 0.34014057E+02</pdfrwt>
<totfact> 0.34472569E+07</totfact>
</mgrwt>
</event>
<event>
 4    1  0.2821610E+004  0.3196062E+02  0.7546771E-02  0.1577376E+00
         21   -1    0    0  501  502  0.00000000000E+00  0.00000000000E+00  0.38010538941E+02  0.38010538941E+02  0.00000000000E+00 0. -1.
         21   -1    0    0  502  503 -0.00000000000E+00 -0.00000000000E+00 -0.63578722415E+02  0.63578722415E+02  0.00000000000E+00 0.  1.
          2    1    1    2  501    0  0.33385493049E+01 -0.31785769656E+02  0.25810378535E+02  0.41081099112E+02  0.00000000000E+00 0. -1.
         -2    1    1    2    0  503 -0.33385493049E+01  0.31785769656E+02 -0.51378562009E+02  0.60508162244E+02  0.00000000000E+00 0.  1.
<mgrwt>
<rscale>  2 0.31960617E+02</rscale>
<asrwt>0</asrwt>
<pdfrwt beam="1">  1       21 0.58477753E-02 0.31960617E+02</pdfrwt>
<pdfrwt beam="2">  1       21 0.97813418E-02 0.31960617E+02</pdfrwt>
<totfact> 0.14317545E+07</totfact>
</mgrwt>
</event>
<event>
 4    1  0.2821610E+004  0.2343025E+02  0.7546771E-02  0.1684629E+00
         21   -1    0    0  503  502  0.00000000000E+00  0.00000000000E+00  0.18392029138E+02  0.18392029138E+02  0.00000000000E+00 0.  1.
         21   -1    0    0  501  503 -0.00000000000E+00 -0.00000000000E+00 -0.60501817384E+02  0.60501817384E+02  0.00000000000E+00 0. -1.
          2    1    1    2  501    0 -0.10154788615E+02 -0.21115320301E+02 -0.49132941020E+02  0.54433651140E+02  0.00000000000E+00 0.  1.
         -2    1    1    2    0  502  0.10154788615E+02  0.21115320301E+02  0.70231527739E+01  0.24460195382E+02  0.00000000000E+00 0. -1.
<mgrwt>
<rscale>  2 0.23430247E+02</rscale>
<asrwt>0</asrwt>
<pdfrwt beam="1">  1       21 0.28295430E-02 0.23430247E+02</pdfrwt>
<pdfrwt beam="2">  1       21 0.93079718E-02 0.23430247E+02</pdfrwt>
<totfact> 0.46152160E+07</totfact>
</mgrwt>
</event>
<event>
 4    1  0.2821610E+004  0.4297497E+02  0.7546771E-02  0.1487394E+00
         21   -1    0    0  501  502  0.00000000000E+00  0.00000000000E+00  0.18137655154E+02  0.18137655154E+02  0.00000000000E+00 0.  1.
         21   -1    0    0  502  503 -0.00000000000E+00 -0.00000000000E+00 -0.11623678474E+03  0.11623678474E+03  0.00000000000E+00 0. -1.
          2    1    1    2  501    0  0.27434958616E+02 -0.33078262725E+02 -0.25390968357E+02  0.49915425404E+02  0.00000000000E+00 0.  1.
         -2    1    1    2    0  503 -0.27434958616E+02  0.33078262725E+02 -0.72708161230E+02  0.84459014490E+02  0.00000000000E+00 0. -1.
<mgrwt>
<rscale>  2 0.42974974E+02</rscale>
<asrwt>0</asrwt>
<pdfrwt beam="1">  1       21 0.27904085E-02 0.42974974E+02</pdfrwt>
<pdfrwt beam="2">  1       21 0.17882582E-01 0.42974974E+02</pdfrwt>
<totfact> 0.17437873E+07</totfact>
</mgrwt>
</event>
<event>
 4    1  0.2821610E+004  0.2010785E+02  0.7546771E-02  0.1743192E+00
         21   -1    0    0  501  502  0.00000000000E+00  0.00000000000E+00  0.16172583679E+03  0.16172583679E+03  0.00000000000E+00 0. -1.
         21   -1    0    0  502  503 -0.00000000000E+00 -0.00000000000E+00 -0.33752255889E+01  0.33752255889E+01  0.00000000000E+00 0.  1.
          2    1    1    2  501    0  0.19997376897E+02 -0.21048637848E+01  0.12121036695E+03  0.12286691414E+03  0.00000000000E+00 0. -1.
         -2    1    1    2    0  503 -0.19997376897E+02  0.21048637848E+01  0.37140244247E+02  0.42234148234E+02  0.00000000000E+00 0.  1.
<mgrwt>
<rscale>  2 0.20107848E+02</rscale>
<asrwt>0</asrwt>
<pdfrwt beam="1">  1       21 0.24880892E-01 0.20107848E+02</pdfrwt>
<pdfrwt beam="2">  1       21 0.51926560E-03 0.20107848E+02</pdfrwt>
<totfact> 0.10706127E+08</totfact>
</mgrwt>
</event>
<event>
 4    1  0.2821610E+004  0.2746574E+02  0.7546771E-02  0.1627919E+00
         21   -1    0    0  503  502  0.00000000000E+00  0.00000000000E+00  0.14391770813E+03  0.14391770813E+03  0.00000000000E+00 0.  1.
         21   -1    0    0  501  503 -0.00000000000E+00 -0.00000000000E+00 -0.78734027836E+01  0.78734027836E+01  0.00000000000E+00 0. -1.
          2    1    1    2  501    0 -0.80025437359E+01 -0.26274056866E+02  0.24143088267E+02  0.36568503955E+02  0.00000000000E+00 0. -1.
         -2    1    1    2    0  502  0.80025437359E+01  0.26274056866E+02  0.11190121708E+03  0.11522260696E+03  0.00000000000E+00 0.  1.
<mgrwt>
<rscale>  2 0.27465738E+02</rscale>
<asrwt>0</asrwt>
<pdfrwt beam="1">  1       21 0.22141184E-01 0.27465738E+02</pdfrwt>
<pdfrwt beam="2">  1       21 0.12112928E-02 0.27465738E+02</pdfrwt>
<totfact> 0.40205003E+07</totfact>
</mgrwt>
</event>
<event>
 4    1  0.2821610E+004  0.2929006E+02  0.7546771E-02  0.1606071E+00
         21   -1    0    0  501  502  0.00000000000E+00  0.00000000000E+00  0.55423073956E+01  0.55423073956E+01  0.00000000000E+00 0.  1.
         21   -1    0    0  502  503 -0.00000000000E+00 -0.00000000000E+00 -0.19418147998E+03  0.19418147998E+03  0.00000000000E+00 0. -1.
          2    1    1    2  501    0 -0.66892883441E+01  0.28515981166E+02 -0.49343349054E+02  0.57381825139E+02  0.00000000000E+00 0.  1.
         -2    1    1    2    0  503  0.66892883441E+01 -0.28515981166E+02 -0.13929582353E+03  0.14234196223E+03  0.00000000000E+00 0. -1.
<mgrwt>
<rscale>  2 0.29290062E+02</rscale>
<asrwt>0</asrwt>
<pdfrwt beam="1">  1       21 0.85266260E-03 0.29290062E+02</pdfrwt>
<pdfrwt beam="2">  1       21 0.29874077E-01 0.29290062E+02</pdfrwt>
<totfact> 0.40392393E+07</totfact>
</mgrwt>
</event>
<event>
 4    1  0.2821610E+004  0.2489910E+02  0.7546771E-02  0.1662455E+00
         21   -1    0    0  501  502  0.00000000000E+00  0.00000000000E+00  0.30704152964E+02  0.30704152964E+02  0.00000000000E+00 0.  1.
         21   -1    0    0  502  503 -0.00000000000E+00 -0.00000000000E+00 -0.20191782603E+02  0.20191782603E+02  0.00000000000E+00 0. -1.
          2    1    1    2  501    0 -0.16803914520E+02 -0.18373715557E+02  0.51730593636E+01  0.25430798448E+02  0.00000000000E+00 0.  1.
         -2    1    1    2    0  503  0.16803914520E+02  0.18373715557E+02  0.53393109969E+01  0.25465137119E+02  0.00000000000E+00 0. -1.
<mgrwt>
<rscale>  2 0.24899096E+02</rscale>
<asrwt>0</asrwt>
<pdfrwt beam="1">  1       21 0.47237158E-02 0.24899096E+02</pdfrwt>
<pdfrwt beam="2">  1       21 0.31064281E-02 0.24899096E+02</pdfrwt>
<totfact> 0.12158341E+08</totfact>
</mgrwt>
</event>
<event>
 4    1  0.2821610E+004  0.2573384E+02  0.7546771E-02  0.1650680E+00
         21   -1    0    0  503  502  0.00000000000E+00  0.00000000000E+00  0.25551659216E+03  0.25551659216E+03  0.00000000000E+00 0.  1.
         21   -1    0    0  501  503 -0.00000000000E+00 -0.00000000000E+00 -0.26374389125E+01  0.26374389125E+01  0.00000000000E+00 0. -1.
          2    1    1    2  501    0  0.24328125663E+02  0.83888402340E+01  0.14343187713E+03  0.14572211128E+03  0.00000000000E+00 0. -1.
         -2    1    1    2    0  502 -0.24328125663E+02 -0.83888402340E+01  0.10944727611E+03  0.11243191979E+03  0.00000000000E+00 0.  1.
<mgrwt>
<rscale>  2 0.25733836E+02</rscale>
<asrwt>0</asrwt>
<pdfrwt beam="1">  1       21 0.39310225E-01 0.25733836E+02</pdfrwt>
<pdfrwt beam="2">  1       21 0.40576004E-03 0.25733836E+02</pdfrwt>
<totfact> 0.71177901E+07</totfact>
</mgrwt>
</event>
<event>
 4    1  0.2821610E+004  0.2450499E+02  0.7546771E-02  0.1668215E+00
         21   -1    0    0  503  502  0.00000000000E+00  0.00000000000E+00  0.28171420315E+01  0.28171420315E+01  0.00000000000E+00 0.  1.
         21   -1    0    0  501  503 -0.00000000000E+00 -0.00000000000E+00 -0.29200967574E+03  0.29200967574E+03  0.00000000000E+00 0. -1.
          2    1    1    2  501    0  0.24184724599E+02 -0.39488492828E+01 -0.22119927641E+03  0.22255249763E+03  0.00000000000E+00 0. -1.
         -2    1    1    2    0  502 -0.24184724599E+02  0.39488492828E+01 -0.67993257294E+02  0.72274320143E+02  0.00000000000E+00 0.  1.
<mgrwt>
<rscale>  2 0.24504986E+02</rscale>
<asrwt>0</asrwt>
<pdfrwt beam="1">  1       21 0.43340633E-03 0.24504986E+02</pdfrwt>
<pdfrwt beam="2">  1       21 0.44924579E-01 0.24504986E+02</pdfrwt>
<totfact> 0.49536948E+07</totfact>
</mgrwt>
</event>
<event>
 4    1  0.2821610E+004  0.4183448E+02  0.7546771E-02  0.1495130E+00
         21   -1    0    0  501  502  0.00000000000E+00  0.00000000000E+00  0.51517994496E+02  0.51517994496E+02  0.00000000000E+00 0. -1.
         21   -1    0    0  502  503 -0.00000000000E+00 -0.00000000000E+00 -0.51801076826E+02  0.51801076826E+02  0.00000000000E+00 0.  1.
          2    1    1    2  501    0 -0.36401384438E+02 -0.20617050392E+02  0.30166393945E+02  0.51576495417E+02  0.00000000000E+00 0. -1.
         -2    1    1    2    0  503  0.36401384438E+02  0.20617050392E+02 -0.30449476276E+02  0.51742575905E+02  0.00000000000E+00 0.  1.
<mgrwt>
<rscale>  2 0.41834478E+02</rscale>
<asrwt>0</asrwt>
<pdfrwt beam="1">  1       21 0.79258453E-02 0.41834478E+02</pdfrwt>
<pdfrwt beam="2">  1       21 0.79693965E-02 0.41834478E+02</pdfrwt>
<totfact> 0.12747607E+07</totfact>
</mgrwt>
</event>
<event>
 4    1  0.2821610E+004  0.2453518E+02  0.7546771E-02  0.1667769E+00
         21   -1    0    0  503  502  0.00000000000E+00  0.00000000000E+00  0.27693954648E+03  0.27693954648E+03  0.00000000000E+00 0. -1.
         21   -1    0    0  501  503 -0.00000000000E+00 -0.00000000000E+00 -0.21869465389E+01  0.21869465389E+01  0.00000000000E+00 0.  1.
          2    1    1    2  501    0 -0.23903979686E+02  0.55294407699E+01  0.12650184148E+03  0.12885919004E+03  0.00000000000E+00 0.  1.
         -2    1    1    2    0  502  0.23903979686E+02 -0.55294407699E+01  0.14825075846E+03  0.15026730298E+03  0.00000000000E+00 0. -1.
<mgrwt>
<rscale>  2 0.24535178E+02</rscale>
<asrwt>0</asrwt>
<pdfrwt beam="1">  1       21 0.42606056E-01 0.24535178E+02</pdfrwt>
<pdfrwt beam="2">  1       21 0.33645353E-03 0.24535178E+02</pdfrwt>
<totfact> 0.79533782E+07</totfact>
</mgrwt>
</event>
<event>
 4    1  0.2821610E+004  0.2981111E+02  0.7546771E-02  0.1600186E+00
         21   -1    0    0  501  502  0.00000000000E+00  0.00000000000E+00  0.40459541092E+02  0.40459541092E+02  0.00000000000E+00 0. -1.
         21   -1    0    0  502  503 -0.00000000000E+00 -0.00000000000E+00 -0.24395804674E+02  0.24395804674E+02  0.00000000000E+00 0.  1.
          2    1    1    2  501    0  0.78100002866E+01  0.28769886494E+02  0.18267487742E+02  0.34962888636E+02  0.00000000000E+00 0. -1.
         -2    1    1    2    0  503 -0.78100002866E+01 -0.28769886494E+02 -0.22037513247E+01  0.29892457130E+02  0.00000000000E+00 0.  1.
<mgrwt>
<rscale>  2 0.29811113E+02</rscale>
<asrwt>0</asrwt>
<pdfrwt beam="1">  1       21 0.62245448E-02 0.29811113E+02</pdfrwt>
<pdfrwt beam="2">  1       21 0.37532007E-02 0.29811113E+02</pdfrwt>
<totfact> 0.60627646E+07</totfact>
</mgrwt>
</event>
<event>
 4    1  0.2821610E+004  0.4015715E+02  0.7546771E-02  0.1507058E+00
         21   -1    0    0  501  502  0.00000000000E+00  0.00000000000E+00  0.34386855008E+02  0.34386855008E+02  0.00000000000E+00 0.  1.
         21   -1    0    0  502  503 -0.00000000000E+00 -0.00000000000E+00 -0.19544410812E+03  0.19544410812E+03  0.00000000000E+00 0. -1.
          2    1    1    2  501    0  0.40033266738E+02  0.31518320702E+01  0.19656030242E+02  0.44709685930E+02  0.00000000000E+00 0.  1.
         -2    1    1    2    0  503 -0.40033266738E+02 -0.31518320702E+01 -0.18071328335E+03  0.18512127720E+03  0.00000000000E+00 0. -1.
<mgrwt>
<rscale>  2 0.40157147E+02</rscale>
<asrwt>0</asrwt>
<pdfrwt beam="1">  1       21 0.52902853E-02 0.40157147E+02</pdfrwt>
<pdfrwt beam="2">  1       21 0.30068325E-01 0.40157147E+02</pdfrwt>
<totfact> 0.24125430E+06</totfact>
</mgrwt>
</event>
<event>
 4    1  0.2821610E+004  0.2455203E+02  0.7546771E-02  0.1667521E+00
         21   -1    0    0  503  502  0.00000000000E+00  0.00000000000E+00  0.12941344374E+02  0.12941344374E+02  0.00000000000E+00 0.  1.
         21   -1    0    0  501  503 -0.00000000000E+00 -0.00000000000E+00 -0.13690274558E+03  0.13690274558E+03  0.00000000000E+00 0. -1.
          2    1    1    2  501    0  0.51713261418E+01 -0.24001235841E+02 -0.12283667245E+03  0.12526631644E+03  0.00000000000E+00 0. -1.
         -2    1    1    2    0  502 -0.51713261418E+01  0.24001235841E+02 -0.11247287517E+01  0.24577773510E+02  0.00000000000E+00 0.  1.
<mgrwt>
<rscale>  2 0.24552025E+02</rscale>
<asrwt>0</asrwt>
<pdfrwt beam="1">  1       21 0.19909761E-02 0.24552025E+02</pdfrwt>
<pdfrwt beam="2">  1       21 0.21061960E-01 0.24552025E+02</pdfrwt>
<totfact> 0.20069535E+07</totfact>
</mgrwt>
</event>
<event>
 4    1  0.2821610E+004  0.1045649E+03  0.7546771E-02  0.1270979E+00
         21   -1    0    0  501  502  0.00000000000E+00  0.00000000000E+00  0.42149545586E+03  0.42149545586E+03  0.00000000000E+00 0. -1.
         21   -1    0    0  502  503 -0.00000000000E+00 -0.00000000000E+00 -0.26185927390E+02  0.26185927390E+02  0.00000000000E+00 0.  1.
          2    1    1    2  501    0  0.83483141896E+02 -0.62963297699E+02  0.17598532096E+03  0.20470624082E+03  0.00000000000E+00 0.  1.
         -2    1    1    2    0  503 -0.83483141896E+02  0.62963297699E+02  0.21932420751E+03  0.24297514243E+03  0.00000000000E+00 0. -1.
<mgrwt>
<rscale>  2 0.10456487E+03</rscale>
<asrwt>0</asrwt>
<pdfrwt beam="1">  1       21 0.64845450E-01 0.10456487E+03</pdfrwt>
<pdfrwt beam="2">  1       21 0.40286045E-02 0.10456487E+03</pdfrwt>
<totfact> 0.85163898E+05</totfact>
</mgrwt>
</event>
<event>
 4    1  0.2821610E+004  0.2177050E+02  0.7546771E-02  0.1712252E+00
         21   -1    0    0  501  502  0.00000000000E+00  0.00000000000E+00  0.25678497449E+02  0.25678497449E+02  0.00000000000E+00 0. -1.
         21   -1    0    0  502  503 -0.00000000000E+00 -0.00000000000E+00 -0.18720438117E+02  0.18720438117E+02  0.00000000000E+00 0.  1.
          2    1    1    2  501    0 -0.17292488663E+02  0.13225899639E+02  0.84686381093E+00  0.21786963160E+02  0.00000000000E+00 0.  1.
         -2    1    1    2    0  503  0.17292488663E+02 -0.13225899639E+02  0.61111955219E+01  0.22611972406E+02  0.00000000000E+00 0. -1.
<mgrwt>
<rscale>  2 0.21770498E+02</rscale>
<asrwt>0</asrwt>
<pdfrwt beam="1">  1       21 0.39505381E-02 0.21770498E+02</pdfrwt>
<pdfrwt beam="2">  1       21 0.28800674E-02 0.21770498E+02</pdfrwt>
<totfact> 0.17432801E+08</totfact>
</mgrwt>
</event>
<event>
 4    1  0.2821610E+004  0.2605339E+02  0.7546771E-02  0.1646317E+00
         21   -1    0    0  503  502  0.00000000000E+00  0.00000000000E+00  0.21088441509E+01  0.21088441509E+01  0.00000000000E+00 0. -1.
         21   -1    0    0  501  503 -0.00000000000E+00 -0.00000000000E+00 -0.83794023356E+03  0.83794023356E+03  0.00000000000E+00 0.  1.
          2    1    1    2  501    0 -0.22244627775E+02  0.13563029645E+02 -0.74754167576E+03  0.74799554560E+03  0.00000000000E+00 0.  1.
         -2    1    1    2    0  502  0.22244627775E+02 -0.13563029645E+02 -0.88289713648E+02  0.92053532111E+02  0.00000000000E+00 0. -1.
<mgrwt>
<rscale>  2 0.26053392E+02</rscale>
<asrwt>0</asrwt>
<pdfrwt beam="1">  1       21 0.32443742E-03 0.26053392E+02</pdfrwt>
<pdfrwt beam="2">  1       21 0.12891394E+00 0.26053392E+02</pdfrwt>
<totfact> 0.83983099E+06</totfact>
</mgrwt>
</event>
<event>
 4    1  0.2821610E+004  0.3614615E+02  0.7546771E-02  0.1538652E+00
         21   -1    0    0  503  502  0.00000000000E+00  0.00000000000E+00  0.29751422648E+01  0.29751422648E+01  0.00000000000E+00 0.  1.
         21   -1    0    0  501  503 -0.00000000000E+00 -0.00000000000E+00 -0.54170505891E+03  0.54170505891E+03  0.00000000000E+00 0. -1.
          2    1    1    2  501    0  0.35997569205E+02 -0.32740004665E+01 -0.38786031472E+03  0.38954097064E+03  0.00000000000E+00 0. -1.
         -2    1    1    2    0  502 -0.35997569205E+02  0.32740004665E+01 -0.15086960192E+03  0.15513923053E+03  0.00000000000E+00 0.  1.
<mgrwt>
<rscale>  2 0.36146149E+02</rscale>
<asrwt>0</asrwt>
<pdfrwt beam="1">  1       21 0.45771391E-03 0.36146149E+02</pdfrwt>
<pdfrwt beam="2">  1       21 0.83339292E-01 0.36146149E+02</pdfrwt>
<totfact> 0.13972207E+07</totfact>
</mgrwt>
</event>
<event>
 4    1  0.2821610E+004  0.2199146E+02  0.7546771E-02  0.1708400E+00
         21   -1    0    0  503  502  0.00000000000E+00  0.00000000000E+00  0.80381882938E+02  0.80381882938E+02  0.00000000000E+00 0.  1.
         21   -1    0    0  501  503 -0.00000000000E+00 -0.00000000000E+00 -0.18327628767E+02  0.18327628767E+02  0.00000000000E+00 0. -1.
          2    1    1    2  501    0 -0.12434157064E+02  0.18138805590E+02 -0.94233160866E+01  0.23925371808E+02  0.00000000000E+00 0. -1.
         -2    1    1    2    0  502  0.12434157064E+02 -0.18138805590E+02  0.71477570258E+02  0.74784139897E+02  0.00000000000E+00 0.  1.
<mgrwt>
<rscale>  2 0.21991465E+02</rscale>
<asrwt>0</asrwt>
<pdfrwt beam="1">  1       21 0.12366443E-01 0.21991465E+02</pdfrwt>
<pdfrwt beam="2">  1       21 0.28196352E-02 0.21991465E+02</pdfrwt>
<totfact> 0.28497481E+07</totfact>
</mgrwt>
</event>
<event>
 4    1  0.2821610E+004  0.2596021E+02  0.7546771E-02  0.1647581E+00
         21   -1    0    0  501  502  0.00000000000E+00  0.00000000000E+00  0.66489972882E+02  0.66489972882E+02  0.00000000000E+00 0.  1.
         21   -1    0    0  502  503 -0.00000000000E+00 -0.00000000000E+00 -0.17028901915E+02  0.17028901915E+02  0.00000000000E+00 0. -1.
          2    1    1    2  501    0  0.20470527321E+02 -0.15965271506E+02  0.51299039154E+02  0.57493684881E+02  0.00000000000E+00 0.  1.
         -2    1    1    2    0  503 -0.20470527321E+02  0.15965271506E+02 -0.18379681873E+01  0.26025189915E+02  0.00000000000E+00 0. -1.
<mgrwt>
<rscale>  2 0.25960208E+02</rscale>
<asrwt>0</asrwt>
<pdfrwt beam="1">  1       21 0.10229226E-01 0.25960208E+02</pdfrwt>
<pdfrwt beam="2">  1       21 0.26198311E-02 0.25960208E+02</pdfrwt>
<totfact> 0.45615847E+07</totfact>
</mgrwt>
</event>
<event>
 4    1  0.2821610E+004  0.3029365E+02  0.7546771E-02  0.1594865E+00
         21   -1    0    0  501  502  0.00000000000E+00  0.00000000000E+00  0.85631295291E+01  0.85631295291E+01  0.00000000000E+00 0. -1.
         21   -1    0    0  502  503 -0.00000000000E+00 -0.00000000000E+00 -0.18401273580E+03  0.18401273580E+03  0.00000000000E+00 0.  1.
          2    1    1    2  501    0 -0.77815110525E+01 -0.29277184934E+02 -0.25501792564E+02  0.39598571892E+02  0.00000000000E+00 0. -1.
         -2    1    1    2    0  503  0.77815110525E+01  0.29277184934E+02 -0.14994781371E+03  0.15297729344E+03  0.00000000000E+00 0.  1.
<mgrwt>
<rscale>  2 0.30293654E+02</rscale>
<asrwt>0</asrwt>
<pdfrwt beam="1">  1       21 0.13174044E-02 0.30293654E+02</pdfrwt>
<pdfrwt beam="2">  1       21 0.28309654E-01 0.30293654E+02</pdfrwt>
<totfact> 0.23181466E+07</totfact>
</mgrwt>
</event>
<event>
 4    1  0.2821610E+004  0.3032895E+02  0.7546771E-02  0.1594481E+00
         21   -1    0    0  501  502  0.00000000000E+00  0.00000000000E+00  0.10279569004E+02  0.10279569004E+02  0.00000000000E+00 0. -1.
         21   -1    0    0  502  503 -0.00000000000E+00 -0.00000000000E+00 -0.94090381514E+02  0.94090381514E+02  0.00000000000E+00 0.  1.
          2    1    1    2  501    0  0.14525449160E+02  0.26624357515E+02 -0.30357394158E+02  0.42911728775E+02  0.00000000000E+00 0. -1.
         -2    1    1    2    0  503 -0.14525449160E+02 -0.26624357515E+02 -0.53453418351E+02  0.61458221743E+02  0.00000000000E+00 0.  1.
<mgrwt>
<rscale>  2 0.30328948E+02</rscale>
<asrwt>0</asrwt>
<pdfrwt beam="1">  1       21 0.15814722E-02 0.30328948E+02</pdfrwt>
<pdfrwt beam="2">  1       21 0.14475443E-01 0.30328948E+02</pdfrwt>
<totfact> 0.57384185E+07</totfact>
</mgrwt>
</event>
<event>
 4    1  0.2821610E+004  0.2207207E+02  0.7546771E-02  0.1707009E+00
         21   -1    0    0  501  502  0.00000000000E+00  0.00000000000E+00  0.47786691796E+02  0.47786691796E+02  0.00000000000E+00 0. -1.
         21   -1    0    0  502  503 -0.00000000000E+00 -0.00000000000E+00 -0.10392531318E+02  0.10392531318E+02  0.00000000000E+00 0.  1.
          2    1    1    2  501    0  0.22641817000E+01  0.21955633211E+02  0.22709455880E+02  0.31668529091E+02  0.00000000000E+00 0. -1.
         -2    1    1    2    0  503 -0.22641817000E+01 -0.21955633211E+02  0.14684704598E+02  0.26510694023E+02  0.00000000000E+00 0.  1.
<mgrwt>
<rscale>  2 0.22072072E+02</rscale>
<asrwt>0</asrwt>
<pdfrwt beam="1">  1       21 0.73517986E-02 0.22072072E+02</pdfrwt>
<pdfrwt beam="2">  1       21 0.15988510E-02 0.22072072E+02</pdfrwt>
<totfact> 0.16048129E+08</totfact>
</mgrwt>
</event>
<event>
 4    1  0.2821610E+004  0.2023381E+02  0.7546771E-02  0.1740718E+00
         21   -1    0    0  503  502  0.00000000000E+00  0.00000000000E+00  0.10277659383E+01  0.10277659383E+01  0.00000000000E+00 0.  1.
         21   -1    0    0  501  503 -0.00000000000E+00 -0.00000000000E+00 -0.39842056990E+03  0.39842056990E+03  0.00000000000E+00 0. -1.
          2    1    1    2  501    0 -0.69817983034E+01  0.18991087179E+02 -0.19597204086E+03  0.19701382616E+03  0.00000000000E+00 0. -1.
         -2    1    1    2    0  502  0.69817983034E+01 -0.18991087179E+02 -0.20142076310E+03  0.20243450967E+03  0.00000000000E+00 0.  1.
<mgrwt>
<rscale>  2 0.20233806E+02</rscale>
<asrwt>0</asrwt>
<pdfrwt beam="1">  1       21 0.15811756E-03 0.20233806E+02</pdfrwt>
<pdfrwt beam="2">  1       21 0.61295580E-01 0.20233806E+02</pdfrwt>
<totfact> 0.11106802E+08</totfact>
</mgrwt>
</event>
<event>
 4    1  0.2821610E+004  0.2736348E+02  0.7546771E-02  0.1629205E+00
         21   -1    0    0  503  502  0.00000000000E+00  0.00000000000E+00  0.90977683507E+01  0.90977683507E+01  0.00000000000E+00 0. -1.
         21   -1    0    0  501  503 -0.00000000000E+00 -0.00000000000E+00 -0.96412568359E+02  0.96412568359E+02  0.00000000000E+00 0.  1.
          2    1    1    2  501    0 -0.27285542704E+02  0.20637525217E+01 -0.63840052749E+02  0.69457269239E+02  0.00000000000E+00 0.  1.
         -2    1    1    2    0  502  0.27285542704E+02 -0.20637525217E+01 -0.23474747259E+02  0.36053067470E+02  0.00000000000E+00 0. -1.
<mgrwt>
<rscale>  2 0.27363478E+02</rscale>
<asrwt>0</asrwt>
<pdfrwt beam="1">  1       21 0.13996566E-02 0.27363478E+02</pdfrwt>
<pdfrwt beam="2">  1       21 0.14832703E-01 0.27363478E+02</pdfrwt>
<totfact> 0.64792433E+07</totfact>
</mgrwt>
</event>
<event>
 4    1  0.2821610E+004  0.5259462E+02  0.7546771E-02  0.1431829E+00
         21   -1    0    0  501  502  0.00000000000E+00  0.00000000000E+00  0.17558340537E+03  0.17558340537E+03  0.00000000000E+00 0. -1.
         21   -1    0    0  502  503 -0.00000000000E+00 -0.00000000000E+00 -0.97035068465E+02  0.97035068465E+02  0.00000000000E+00 0.  1.
          2    1    1    2  501    0  0.51355717361E+02 -0.11348329016E+02  0.16402826604E+03  0.17225407495E+03  0.00000000000E+00 0. -1.
         -2    1    1    2    0  503 -0.51355717361E+02  0.11348329016E+02 -0.85479929139E+02  0.10036439888E+03  0.00000000000E+00 0.  1.
<mgrwt>
<rscale>  2 0.52594622E+02</rscale>
<asrwt>0</asrwt>
<pdfrwt beam="1">  1       21 0.27012832E-01 0.52594622E+02</pdfrwt>
<pdfrwt beam="2">  1       21 0.14928472E-01 0.52594622E+02</pdfrwt>
<totfact> 0.51877910E+05</totfact>
</mgrwt>
</event>
<event>
 4    1  0.2821610E+004  0.2509277E+02  0.7546771E-02  0.1659673E+00
         21   -1    0    0  503  502  0.00000000000E+00  0.00000000000E+00  0.12593567374E+02  0.12593567374E+02  0.00000000000E+00 0. -1.
         21   -1    0    0  501  503 -0.00000000000E+00 -0.00000000000E+00 -0.50597522324E+02  0.50597522324E+02  0.00000000000E+00 0.  1.
          2    1    1    2  501    0 -0.24551053744E+02  0.51858205615E+01 -0.22442642087E+02  0.33664805935E+02  0.00000000000E+00 0.  1.
         -2    1    1    2    0  502  0.24551053744E+02 -0.51858205615E+01 -0.15561312862E+02  0.29526283763E+02  0.00000000000E+00 0. -1.
<mgrwt>
<rscale>  2 0.25092767E+02</rscale>
<asrwt>0</asrwt>
<pdfrwt beam="1">  1       21 0.19374719E-02 0.25092767E+02</pdfrwt>
<pdfrwt beam="2">  1       21 0.77842342E-02 0.25092767E+02</pdfrwt>
<totfact> 0.11318031E+08</totfact>
</mgrwt>
</event>
<event>
 4    1  0.2821610E+004  0.2646718E+02  0.7546771E-02  0.1640781E+00
         21   -1    0    0  501  502  0.00000000000E+00  0.00000000000E+00  0.10752232948E+03  0.10752232948E+03  0.00000000000E+00 0.  1.
         21   -1    0    0  502  503 -0.00000000000E+00 -0.00000000000E+00 -0.13992557415E+02  0.13992557415E+02  0.00000000000E+00 0. -1.
          2    1    1    2  501    0 -0.25199082988E+02  0.80943022968E+01  0.91179906399E+02  0.94943598226E+02  0.00000000000E+00 0.  1.
         -2    1    1    2    0  503  0.25199082988E+02 -0.80943022968E+01  0.23498656698E+01  0.26571288673E+02  0.00000000000E+00 0. -1.
<mgrwt>
<rscale>  2 0.26467178E+02</rscale>
<asrwt>0</asrwt>
<pdfrwt beam="1">  1       21 0.16541896E-01 0.26467178E+02</pdfrwt>
<pdfrwt beam="2">  1       21 0.21527012E-02 0.26467178E+02</pdfrwt>
<totfact> 0.27520341E+07</totfact>
</mgrwt>
</event>
<event>
 4    1  0.2821610E+004  0.2186881E+02  0.7546771E-02  0.1710531E+00
         21   -1    0    0  501  502  0.00000000000E+00  0.00000000000E+00  0.12120419852E+02  0.12120419852E+02  0.00000000000E+00 0.  1.
         21   -1    0    0  502  503 -0.00000000000E+00 -0.00000000000E+00 -0.18872519104E+03  0.18872519104E+03  0.00000000000E+00 0. -1.
          2    1    1    2  501    0  0.20053196651E+02 -0.87243459566E+01  0.10075769700E+01  0.21892010406E+02  0.00000000000E+00 0.  1.
         -2    1    1    2    0  503 -0.20053196651E+02  0.87243459566E+01 -0.17761234815E+03  0.17895360048E+03  0.00000000000E+00 0. -1.
<mgrwt>
<rscale>  2 0.21868811E+02</rscale>
<asrwt>0</asrwt>
<pdfrwt beam="1">  1       21 0.18646802E-02 0.21868811E+02</pdfrwt>
<pdfrwt beam="2">  1       21 0.29034642E-01 0.21868811E+02</pdfrwt>
<totfact> 0.12227611E+07</totfact>
</mgrwt>
</event>
<event>
 4    1  0.2821610E+004  0.2524309E+02  0.7546771E-02  0.1657535E+00
         21   -1    0    0  503  502  0.00000000000E+00  0.00000000000E+00  0.72177663040E+02  0.72177663040E+02  0.00000000000E+00 0.  1.
         21   -1    0    0  501  503 -0.00000000000E+00 -0.00000000000E+00 -0.10566697567E+02  0.10566697567E+02  0.00000000000E+00 0. -1.
          2    1    1    2  501    0 -0.23079953480E+02  0.10223967815E+02  0.14025172617E+02  0.28877659833E+02  0.00000000000E+00 0. -1.
         -2    1    1    2    0  502  0.23079953480E+02 -0.10223967815E+02  0.47585792857E+02  0.53866700775E+02  0.00000000000E+00 0.  1.
<mgrwt>
<rscale>  2 0.25243094E+02</rscale>
<asrwt>0</asrwt>
<pdfrwt beam="1">  1       21 0.11104256E-01 0.25243094E+02</pdfrwt>
<pdfrwt beam="2">  1       21 0.16256458E-02 0.25243094E+02</pdfrwt>
<totfact> 0.82471199E+07</totfact>
</mgrwt>
</event>
<event>
 4    1  0.2821610E+004  0.2184216E+02  0.7546771E-02  0.1710996E+00
         21   -1    0    0  503  502  0.00000000000E+00  0.00000000000E+00  0.13776293787E+02  0.13776293787E+02  0.00000000000E+00 0.  1.
         21   -1    0    0  501  503 -0.00000000000E+00 -0.00000000000E+00 -0.44520612773E+02  0.44520612773E+02  0.00000000000E+00 0. -1.
          2    1    1    2  501    0 -0.17965295607E+02  0.12422886034E+02 -0.29110540833E+02  0.36393729285E+02  0.00000000000E+00 0. -1.
         -2    1    1    2    0  502  0.17965295607E+02 -0.12422886034E+02 -0.16337781531E+01  0.21903177275E+02  0.00000000000E+00 0.  1.
<mgrwt>
<rscale>  2 0.21842160E+02</rscale>
<asrwt>0</asrwt>
<pdfrwt beam="1">  1       21 0.21194298E-02 0.21842160E+02</pdfrwt>
<pdfrwt beam="2">  1       21 0.68493250E-02 0.21842160E+02</pdfrwt>
<totfact> 0.11662913E+08</totfact>
</mgrwt>
</event>
<event>
 4    1  0.2821610E+004  0.2031579E+02  0.7546771E-02  0.1739120E+00
         21   -1    0    0  501  502  0.00000000000E+00  0.00000000000E+00  0.64549702516E+01  0.64549702516E+01  0.00000000000E+00 0. -1.
         21   -1    0    0  502  503 -0.00000000000E+00 -0.00000000000E+00 -0.79324715691E+02  0.79324715691E+02  0.00000000000E+00 0.  1.
          2    1    1    2  501    0  0.18606309334E+02 -0.81569854063E+01 -0.17546517388E+02  0.26844206645E+02  0.00000000000E+00 0. -1.
         -2    1    1    2    0  503 -0.18606309334E+02  0.81569854063E+01 -0.55323228052E+02  0.58935479298E+02  0.00000000000E+00 0.  1.
<mgrwt>
<rscale>  2 0.20315786E+02</rscale>
<asrwt>0</asrwt>
<pdfrwt beam="1">  1       21 0.99307236E-03 0.20315786E+02</pdfrwt>
<pdfrwt beam="2">  1       21 0.12203802E-01 0.20315786E+02</pdfrwt>
<totfact> 0.13949447E+08</totfact>
</mgrwt>
</event>
<event>
 4    1  0.2821610E+004  0.2014355E+02  0.7546771E-02  0.1742488E+00
         21   -1    0    0  501  502  0.00000000000E+00  0.00000000000E+00  0.90783841244E+02  0.90783841244E+02  0.00000000000E+00 0.  1.
         21   -1    0    0  502  503 -0.00000000000E+00 -0.00000000000E+00 -0.52488559299E+01  0.52488559299E+01  0.00000000000E+00 0. -1.
          2    1    1    2  501    0  0.17827688019E+02  0.93774381223E+01  0.61269171510E+02  0.64495536151E+02  0.00000000000E+00 0.  1.
         -2    1    1    2    0  503 -0.17827688019E+02 -0.93774381223E+01  0.24265813804E+02  0.31537161023E+02  0.00000000000E+00 0. -1.
<mgrwt>
<rscale>  2 0.20143555E+02</rscale>
<asrwt>0</asrwt>
<pdfrwt beam="1">  1       21 0.13966744E-01 0.20143555E+02</pdfrwt>
<pdfrwt beam="2">  1       21 0.80751637E-03 0.20143555E+02</pdfrwt>
<totfact> 0.15104155E+08</totfact>
</mgrwt>
</event>
<event>
 4    1  0.2821610E+004  0.2670150E+02  0.7546771E-02  0.1637700E+00
         21   -1    0    0  503  502  0.00000000000E+00  0.00000000000E+00  0.70166945487E+01  0.70166945487E+01  0.00000000000E+00 0.  1.
         21   -1    0    0  501  503 -0.00000000000E+00 -0.00000000000E+00 -0.14538834184E+03  0.14538834184E+03  0.00000000000E+00 0. -1.
          2    1    1    2  501    0 -0.75711650479E+01 -0.25605611767E+02 -0.11100078197E+03  0.11416717345E+03  0.00000000000E+00 0. -1.
         -2    1    1    2    0  502  0.75711650479E+01  0.25605611767E+02 -0.27370865319E+02  0.38237862943E+02  0.00000000000E+00 0.  1.
<mgrwt>
<rscale>  2 0.26701496E+02</rscale>
<asrwt>0</asrwt>
<pdfrwt beam="1">  1       21 0.10794915E-02 0.26701496E+02</pdfrwt>
<pdfrwt beam="2">  1       21 0.22367437E-01 0.26701496E+02</pdfrwt>
<totfact> 0.46728502E+07</totfact>
</mgrwt>
</event>
<event>
 4    1  0.2821610E+004  0.2362921E+02  0.7546771E-02  0.1681509E+00
         21   -1    0    0  501  502  0.00000000000E+00  0.00000000000E+00  0.27959017881E+02  0.27959017881E+02  0.00000000000E+00 0. -1.
         21   -1    0    0  502  503 -0.00000000000E+00 -0.00000000000E+00 -0.23503721420E+02  0.23503721420E+02  0.00000000000E+00 0.  1.
          2    1    1    2  501    0 -0.23488980943E+02  0.25704582297E+01  0.12205001994E+02  0.26595141566E+02  0.00000000000E+00 0. -1.
         -2    1    1    2    0  503  0.23488980943E+02 -0.25704582297E+01 -0.77497055335E+01  0.24867597735E+02  0.00000000000E+00 0.  1.
<mgrwt>
<rscale>  2 0.23629208E+02</rscale>
<asrwt>0</asrwt>
<pdfrwt beam="1">  1       21 0.43013874E-02 0.23629208E+02</pdfrwt>
<pdfrwt beam="2">  1       21 0.36159571E-02 0.23629208E+02</pdfrwt>
<totfact> 0.10954512E+08</totfact>
</mgrwt>
</event>
<event>
 4    1  0.2821610E+004  0.2404848E+02  0.7546771E-02  0.1675057E+00
         21   -1    0    0  501  502  0.00000000000E+00  0.00000000000E+00  0.36617303095E+01  0.36617303095E+01  0.00000000000E+00 0. -1.
         21   -1    0    0  502  503 -0.00000000000E+00 -0.00000000000E+00 -0.23480814994E+03  0.23480814994E+03  0.00000000000E+00 0.  1.
          2    1    1    2  501    0  0.11923159532E+02  0.20884632320E+02 -0.47351386841E+02  0.53108223809E+02  0.00000000000E+00 0. -1.
         -2    1    1    2    0  503 -0.11923159532E+02 -0.20884632320E+02 -0.18379503278E+03  0.18536165644E+03  0.00000000000E+00 0.  1.
<mgrwt>
<rscale>  2 0.24048484E+02</rscale>
<asrwt>0</asrwt>
<pdfrwt beam="1">  1       21 0.56334299E-03 0.24048484E+02</pdfrwt>
<pdfrwt beam="2">  1       21 0.36124340E-01 0.24048484E+02</pdfrwt>
<totfact> 0.50562537E+07</totfact>
</mgrwt>
</event>
<event>
 4    1  0.2821610E+004  0.2577061E+02  0.7546771E-02  0.1650174E+00
         21   -1    0    0  503  502  0.00000000000E+00  0.00000000000E+00  0.36869964210E+01  0.36869964210E+01  0.00000000000E+00 0.  1.
         21   -1    0    0  501  503 -0.00000000000E+00 -0.00000000000E+00 -0.20323155705E+03  0.20323155705E+03  0.00000000000E+00 0. -1.
          2    1    1    2  501    0  0.19381473134E+02 -0.16984779984E+02 -0.64887882179E+02  0.69818060025E+02  0.00000000000E+00 0.  1.
         -2    1    1    2    0  502 -0.19381473134E+02  0.16984779984E+02 -0.13465667845E+03  0.13710049345E+03  0.00000000000E+00 0. -1.
<mgrwt>
<rscale>  2 0.25770608E+02</rscale>
<asrwt>0</asrwt>
<pdfrwt beam="1">  1       21 0.56723016E-03 0.25770608E+02</pdfrwt>
<pdfrwt beam="2">  1       21 0.31266397E-01 0.25770608E+02</pdfrwt>
<totfact> 0.66440438E+07</totfact>
</mgrwt>
</event>
<event>
 4    1  0.2821610E+004  0.2067833E+02  0.7546771E-02  0.1732166E+00
         21   -1    0    0  501  502  0.00000000000E+00  0.00000000000E+00  0.11462365678E+01  0.11462365678E+01  0.00000000000E+00 0. -1.
         21   -1    0    0  502  503 -0.00000000000E+00 -0.00000000000E+00 -0.40138691453E+03  0.40138691453E+03  0.00000000000E+00 0.  1.
          2    1    1    2  501    0  0.44858653058E+01 -0.20185897991E+02 -0.14663512305E+03  0.14808596414E+03  0.00000000000E+00 0.  1.
         -2    1    1    2    0  503 -0.44858653058E+01  0.20185897991E+02 -0.25360555491E+03  0.25444718695E+03  0.00000000000E+00 0. -1.
<mgrwt>
<rscale>  2 0.20678333E+02</rscale>
<asrwt>0</asrwt>
<pdfrwt beam="1">  1       21 0.17634404E-03 0.20678333E+02</pdfrwt>
<pdfrwt beam="2">  1       21 0.61751849E-01 0.20678333E+02</pdfrwt>
<totfact> 0.94148512E+07</totfact>
</mgrwt>
</event>
<event>
 4    1  0.2821610E+004  0.3451568E+02  0.7546771E-02  0.1552944E+00
         21   -1    0    0  503  502  0.00000000000E+00  0.00000000000E+00  0.20224479639E+02  0.20224479639E+02  0.00000000000E+00 0.  1.
         21   -1    0    0  501  503 -0.00000000000E+00 -0.00000000000E+00 -0.12993715088E+03  0.12993715088E+03  0.00000000000E+00 0. -1.
          2    1    1    2  501    0 -0.44772366044E+00 -0.34512776514E+02 -0.11036853036E+03  0.11563971936E+03  0.00000000000E+00 0. -1.
         -2    1    1    2    0  502  0.44772366044E+00  0.34512776514E+02  0.65585911828E+00  0.34521911163E+02  0.00000000000E+00 0.  1.
<mgrwt>
<rscale>  2 0.34515680E+02</rscale>
<asrwt>0</asrwt>
<pdfrwt beam="1">  1       21 0.31114585E-02 0.34515680E+02</pdfrwt>
<pdfrwt beam="2">  1       21 0.19990330E-01 0.34515680E+02</pdfrwt>
<totfact> 0.11655276E+07</totfact>
</mgrwt>
</event>
<event>
 4    1  0.2821610E+004  0.2000673E+02  0.7546771E-02  0.1745194E+00
         21   -1    0    0  501  502  0.00000000000E+00  0.00000000000E+00  0.31985012365E+03  0.31985012365E+03  0.00000000000E+00 0.  1.
         21   -1    0    0  502  503 -0.00000000000E+00 -0.00000000000E+00 -0.15414353506E+01  0.15414353506E+01  0.00000000000E+00 0. -1.
          2    1    1    2  501    0  0.19952683621E+02 -0.14695581071E+01  0.22885659801E+03  0.22972943137E+03  0.00000000000E+00 0.  1.
         -2    1    1    2    0  503 -0.19952683621E+02  0.14695581071E+01  0.89452090294E+02  0.91662127636E+02  0.00000000000E+00 0. -1.
<mgrwt>
<rscale>  2 0.20006728E+02</rscale>
<asrwt>0</asrwt>
<pdfrwt beam="1">  1       21 0.49207659E-01 0.20006728E+02</pdfrwt>
<pdfrwt beam="2">  1       21 0.23714415E-03 0.20006728E+02</pdfrwt>
<totfact> 0.95138553E+07</totfact>
</mgrwt>
</event>
<event>
 4    1  0.2821610E+004  0.2633919E+02  0.7546771E-02  0.1642480E+00
         21   -1    0    0  501  502  0.00000000000E+00  0.00000000000E+00  0.15161551931E+03  0.15161551931E+03  0.00000000000E+00 0.  1.
         21   -1    0    0  502  503 -0.00000000000E+00 -0.00000000000E+00 -0.88135957086E+01  0.88135957086E+01  0.00000000000E+00 0. -1.
          2    1    1    2  501    0 -0.15235081292E+02 -0.21485936849E+02  0.12702336086E+03  0.12972543077E+03  0.00000000000E+00 0.  1.
         -2    1    1    2    0  503  0.15235081292E+02  0.21485936849E+02  0.15778562741E+02  0.30703684248E+02  0.00000000000E+00 0. -1.
<mgrwt>
<rscale>  2 0.26339195E+02</rscale>
<asrwt>0</asrwt>
<pdfrwt beam="1">  1       21 0.23325463E-01 0.26339195E+02</pdfrwt>
<pdfrwt beam="2">  1       21 0.13559379E-02 0.26339195E+02</pdfrwt>
<totfact> 0.30593145E+07</totfact>
</mgrwt>
</event>
<event>
 4    1  0.2821610E+004  0.2252012E+02  0.7546771E-02  0.1699409E+00
         21   -1    0    0  501  502  0.00000000000E+00  0.00000000000E+00  0.43005199959E+00  0.43005199959E+00  0.00000000000E+00 0. -1.
         21   -1    0    0  502  503 -0.00000000000E+00 -0.00000000000E+00 -0.11809534836E+04  0.11809534836E+04  0.00000000000E+00 0.  1.
          2    1    1    2  501    0 -0.17157751248E+02  0.14586555384E+02 -0.56809237410E+03  0.56853856644E+03  0.00000000000E+00 0.  1.
         -2    1    1    2    0  503  0.17157751248E+02 -0.14586555384E+02 -0.61243105747E+03  0.61284496912E+03  0.00000000000E+00 0. -1.
<mgrwt>
<rscale>  2 0.22520125E+02</rscale>
<asrwt>0</asrwt>
<pdfrwt beam="1">  1       21 0.66162047E-04 0.22520125E+02</pdfrwt>
<pdfrwt beam="2">  1       21 0.18168460E+00 0.22520125E+02</pdfrwt>
<totfact> 0.35503885E+07</totfact>
</mgrwt>
</event>
<event>
 4    1  0.2821610E+004  0.3267857E+02  0.7546771E-02  0.1570238E+00
         21   -1    0    0  501  502  0.00000000000E+00  0.00000000000E+00  0.84146243974E+01  0.84146243974E+01  0.00000000000E+00 0.  1.
         21   -1    0    0  502  503 -0.00000000000E+00 -0.00000000000E+00 -0.17503043153E+03  0.17503043153E+03  0.00000000000E+00 0. -1.
          2    1    1    2  501    0 -0.29032707511E+02 -0.14999690043E+02 -0.35214004922E+02  0.48040763415E+02  0.00000000000E+00 0.  1.
         -2    1    1    2    0  503  0.29032707511E+02  0.14999690043E+02 -0.13140180221E+03  0.13540429251E+03  0.00000000000E+00 0. -1.
<mgrwt>
<rscale>  2 0.32678568E+02</rscale>
<asrwt>0</asrwt>
<pdfrwt beam="1">  1       21 0.12945576E-02 0.32678568E+02</pdfrwt>
<pdfrwt beam="2">  1       21 0.26927758E-01 0.32678568E+02</pdfrwt>
<totfact> 0.26449281E+07</totfact>
</mgrwt>
</event>
<event>
 4    1  0.2821610E+004  0.3333986E+02  0.7546771E-02  0.1563857E+00
         21   -1    0    0  503  502  0.00000000000E+00  0.00000000000E+00  0.52007634259E+03  0.52007634259E+03  0.00000000000E+00 0.  1.
         21   -1    0    0  501  503 -0.00000000000E+00 -0.00000000000E+00 -0.25719066776E+01  0.25719066776E+01  0.00000000000E+00 0. -1.
          2    1    1    2  501    0  0.30206483058E+02 -0.14110807151E+02  0.15132550922E+03  0.15495469092E+03  0.00000000000E+00 0. -1.
         -2    1    1    2    0  502 -0.30206483058E+02  0.14110807151E+02  0.36617892669E+03  0.36769355834E+03  0.00000000000E+00 0.  1.
<mgrwt>
<rscale>  2 0.33339863E+02</rscale>
<asrwt>0</asrwt>
<pdfrwt beam="1">  1       21 0.80011661E-01 0.33339863E+02</pdfrwt>
<pdfrwt beam="2">  1       21 0.39567837E-03 0.33339863E+02</pdfrwt>
<totfact> 0.18718415E+07</totfact>
</mgrwt>
</event>
<event>
 4    1  0.2821610E+004  0.2208595E+02  0.7546771E-02  0.1706770E+00
         21   -1    0    0  501  502  0.00000000000E+00  0.00000000000E+00  0.28745443381E+01  0.28745443381E+01  0.00000000000E+00 0. -1.
         21   -1    0    0  502  503 -0.00000000000E+00 -0.00000000000E+00 -0.49225941206E+03  0.49225941206E+03  0.00000000000E+00 0.  1.
          2    1    1    2  501    0 -0.36568832514E+01 -0.21781105891E+02 -0.44288873375E+02  0.49490339196E+02  0.00000000000E+00 0. -1.
         -2    1    1    2    0  503  0.36568832514E+01  0.21781105891E+02 -0.44509599435E+03  0.44564361720E+03  0.00000000000E+00 0.  1.
<mgrwt>
<rscale>  2 0.22085954E+02</rscale>
<asrwt>0</asrwt>
<pdfrwt beam="1">  1       21 0.44223771E-03 0.22085954E+02</pdfrwt>
<pdfrwt beam="2">  1       21 0.75732197E-01 0.22085954E+02</pdfrwt>
<totfact> 0.16612506E+07</totfact>
</mgrwt>
</event>
<event>
 4    1  0.2821610E+004  0.2250184E+02  0.7546771E-02  0.1699715E+00
         21   -1    0    0  501  502  0.00000000000E+00  0.00000000000E+00  0.44319539548E+02  0.44319539548E+02  0.00000000000E+00 0.  1.
         21   -1    0    0  502  503 -0.00000000000E+00 -0.00000000000E+00 -0.11867791560E+02  0.11867791560E+02  0.00000000000E+00 0. -1.
          2    1    1    2  501    0 -0.19359664429E+02 -0.11468922534E+02  0.21654896384E+02  0.31229270377E+02  0.00000000000E+00 0.  1.
         -2    1    1    2    0  503  0.19359664429E+02  0.11468922534E+02  0.10796851604E+02  0.24958060731E+02  0.00000000000E+00 0. -1.
<mgrwt>
<rscale>  2 0.22501840E+02</rscale>
<asrwt>0</asrwt>
<pdfrwt beam="1">  1       21 0.68183906E-02 0.22501840E+02</pdfrwt>
<pdfrwt beam="2">  1       21 0.18258141E-02 0.22501840E+02</pdfrwt>
<totfact> 0.14894855E+08</totfact>
</mgrwt>
</event>
<event>
 4    1  0.2821610E+004  0.2658043E+02  0.7546771E-02  0.1639287E+00
         21   -1    0    0  503  502  0.00000000000E+00  0.00000000000E+00  0.11226261836E+03  0.11226261836E+03  0.00000000000E+00 0.  1.
         21   -1    0    0  501  503 -0.00000000000E+00 -0.00000000000E+00 -0.83946574521E+01  0.83946574521E+01  0.00000000000E+00 0. -1.
          2    1    1    2  501    0  0.11224937691E+02 -0.24093986494E+02  0.21751406082E+02  0.34345932480E+02  0.00000000000E+00 0. -1.
         -2    1    1    2    0  502 -0.11224937691E+02  0.24093986494E+02  0.82116554824E+02  0.86311343330E+02  0.00000000000E+00 0.  1.
<mgrwt>
<rscale>  2 0.26580433E+02</rscale>
<asrwt>0</asrwt>
<pdfrwt beam="1">  1       21 0.17271171E-01 0.26580433E+02</pdfrwt>
<pdfrwt beam="2">  1       21 0.12914858E-02 0.26580433E+02</pdfrwt>
<totfact> 0.55958430E+07</totfact>
</mgrwt>
</event>
<event>
 4    1  0.2821610E+004  0.3901034E+02  0.7546771E-02  0.1515623E+00
         21   -1    0    0  501  502  0.00000000000E+00  0.00000000000E+00  0.11183995534E+02  0.11183995534E+02  0.00000000000E+00 0.  1.
         21   -1    0    0  502  503 -0.00000000000E+00 -0.00000000000E+00 -0.15902004708E+03  0.15902004708E+03  0.00000000000E+00 0. -1.
          2    1    1    2  501    0  0.38005671966E+02  0.87963385192E+01 -0.41588049347E+02  0.57020807793E+02  0.00000000000E+00 0.  1.
         -2    1    1    2    0  503 -0.38005671966E+02 -0.87963385192E+01 -0.10624800220E+03  0.11318323482E+03  0.00000000000E+00 0. -1.
<mgrwt>
<rscale>  2 0.39010341E+02</rscale>
<asrwt>0</asrwt>
<pdfrwt beam="1">  1       21 0.17206148E-02 0.39010341E+02</pdfrwt>
<pdfrwt beam="2">  1       21 0.24464621E-01 0.39010341E+02</pdfrwt>
<totfact> 0.20925117E+07</totfact>
</mgrwt>
</event>
<event>
 4    1  0.2821610E+004  0.2454510E+02  0.7546771E-02  0.1667623E+00
         21   -1    0    0  503  502  0.00000000000E+00  0.00000000000E+00  0.43439221148E+01  0.43439221148E+01  0.00000000000E+00 0.  1.
         21   -1    0    0  501  503 -0.00000000000E+00 -0.00000000000E+00 -0.15403413506E+03  0.15403413506E+03  0.00000000000E+00 0. -1.
          2    1    1    2  501    0 -0.13982046473E+02  0.20173357612E+02 -0.99838002544E+02  0.10281093683E+03  0.00000000000E+00 0. -1.
         -2    1    1    2    0  502  0.13982046473E+02 -0.20173357612E+02 -0.49852210399E+02  0.55567120337E+02  0.00000000000E+00 0.  1.
<mgrwt>
<rscale>  2 0.24545101E+02</rscale>
<asrwt>0</asrwt>
<pdfrwt beam="1">  1       21 0.66829580E-03 0.24545101E+02</pdfrwt>
<pdfrwt beam="2">  1       21 0.23697556E-01 0.24545101E+02</pdfrwt>
<totfact> 0.84894033E+07</totfact>
</mgrwt>
</event>
<event>
 4    1  0.2821610E+004  0.2854996E+02  0.7546771E-02  0.1614693E+00
         21   -1    0    0  503  502  0.00000000000E+00  0.00000000000E+00  0.17935383904E+01  0.17935383904E+01  0.00000000000E+00 0.  1.
         21   -1    0    0  501  503 -0.00000000000E+00 -0.00000000000E+00 -0.45729103642E+03  0.45729103642E+03  0.00000000000E+00 0. -1.
          2    1    1    2  501    0 -0.28418836612E+02 -0.27330813451E+01 -0.20970307592E+03  0.21163761494E+03  0.00000000000E+00 0.  1.
         -2    1    1    2    0  502  0.28418836612E+02  0.27330813451E+01 -0.24579442211E+03  0.24744695986E+03  0.00000000000E+00 0. -1.
<mgrwt>
<rscale>  2 0.28549956E+02</rscale>
<asrwt>0</asrwt>
<pdfrwt beam="1">  1       21 0.27592911E-03 0.28549956E+02</pdfrwt>
<pdfrwt beam="2">  1       21 0.70352434E-01 0.28549956E+02</pdfrwt>
<totfact> 0.40627469E+07</totfact>
</mgrwt>
</event>
<event>
 4    1  0.2821610E+004  0.3306829E+02  0.7546771E-02  0.1566456E+00
         21   -1    0    0  503  502  0.00000000000E+00  0.00000000000E+00  0.51664984576E+03  0.51664984576E+03  0.00000000000E+00 0.  1.
         21   -1    0    0  501  503 -0.00000000000E+00 -0.00000000000E+00 -0.22029341987E+01  0.22029341987E+01  0.00000000000E+00 0. -1.
          2    1    1    2  501    0  0.26832037537E+02 -0.19327529649E+02  0.20584890797E+03  0.20848809211E+03  0.00000000000E+00 0. -1.
         -2    1    1    2    0  502 -0.26832037537E+02  0.19327529649E+02  0.30859800359E+03  0.31036468784E+03  0.00000000000E+00 0.  1.
<mgrwt>
<rscale>  2 0.33068288E+02</rscale>
<asrwt>0</asrwt>
<pdfrwt beam="1">  1       21 0.79484495E-01 0.33068288E+02</pdfrwt>
<pdfrwt beam="2">  1       21 0.33891337E-03 0.33068288E+02</pdfrwt>
<totfact> 0.23846885E+07</totfact>
</mgrwt>
</event>
<event>
 4    1  0.2821610E+004  0.2283755E+02  0.7546771E-02  0.1694157E+00
         21   -1    0    0  503  502  0.00000000000E+00  0.00000000000E+00  0.28821179538E+03  0.28821179538E+03  0.00000000000E+00 0.  1.
         21   -1    0    0  501  503 -0.00000000000E+00 -0.00000000000E+00 -0.31515337496E+01  0.31515337496E+01  0.00000000000E+00 0. -1.
          2    1    1    2  501    0 -0.33331018722E+01  0.22593008020E+02  0.47468260315E+02  0.52676269010E+02  0.00000000000E+00 0. -1.
         -2    1    1    2    0  502  0.33331018722E+01 -0.22593008020E+02  0.23759200131E+03  0.23868706012E+03  0.00000000000E+00 0.  1.
<mgrwt>
<rscale>  2 0.22837548E+02</rscale>
<asrwt>0</asrwt>
<pdfrwt beam="1">  1       21 0.44340255E-01 0.22837548E+02</pdfrwt>
<pdfrwt beam="2">  1       21 0.48485158E-03 0.22837548E+02</pdfrwt>
<totfact> 0.42357647E+07</totfact>
</mgrwt>
</event>
<event>
 4    1  0.2821610E+004  0.2790652E+02  0.7546771E-02  0.1622453E+00
         21   -1    0    0  501  502  0.00000000000E+00  0.00000000000E+00  0.23983722037E+02  0.23983722037E+02  0.00000000000E+00 0. -1.
         21   -1    0    0  502  503 -0.00000000000E+00 -0.00000000000E+00 -0.32485129707E+02  0.32485129707E+02  0.00000000000E+00 0.  1.
          2    1    1    2  501    0 -0.25095748774E+02 -0.12205616914E+02 -0.36603395187E+01  0.28145546294E+02  0.00000000000E+00 0. -1.
         -2    1    1    2    0  503  0.25095748774E+02  0.12205616914E+02 -0.48410681521E+01  0.28323305450E+02  0.00000000000E+00 0.  1.
<mgrwt>
<rscale>  2 0.27906517E+02</rscale>
<asrwt>0</asrwt>
<pdfrwt beam="1">  1       21 0.36898034E-02 0.27906517E+02</pdfrwt>
<pdfrwt beam="2">  1       21 0.49977123E-02 0.27906517E+02</pdfrwt>
<totfact> 0.87354262E+07</totfact>
</mgrwt>
</event>
<event>
 4    1  0.2821610E+004  0.2351026E+02  0.7546771E-02  0.1683370E+00
         21   -1    0    0  501  502  0.00000000000E+00  0.00000000000E+00  0.50730891899E+03  0.50730891899E+03  0.00000000000E+00 0.  1.
         21   -1    0    0  502  503 -0.00000000000E+00 -0.00000000000E+00 -0.14819924654E+01  0.14819924654E+01  0.00000000000E+00 0. -1.
          2    1    1    2  501    0  0.12753983281E+02  0.19750150574E+02  0.38382586158E+03  0.38454521782E+03  0.00000000000E+00 0.  1.
         -2    1    1    2    0  503 -0.12753983281E+02 -0.19750150574E+02  0.12200106495E+03  0.12424569363E+03  0.00000000000E+00 0. -1.
<mgrwt>
<rscale>  2 0.23510265E+02</rscale>
<asrwt>0</asrwt>
<pdfrwt beam="1">  1       21 0.78047388E-01 0.23510265E+02</pdfrwt>
<pdfrwt beam="2">  1       21 0.22799925E-03 0.23510265E+02</pdfrwt>
<totfact> 0.41539788E+07</totfact>
</mgrwt>
</event>
<event>
 4    1  0.2821610E+004  0.2160738E+02  0.7546771E-02  0.1715132E+00
         21   -1    0    0  503  502  0.00000000000E+00  0.00000000000E+00  0.28889587242E+03  0.28889587242E+03  0.00000000000E+00 0.  1.
         21   -1    0    0  501  503 -0.00000000000E+00 -0.00000000000E+00 -0.23906293527E+01  0.23906293527E+01  0.00000000000E+00 0. -1.
          2    1    1    2  501    0  0.20007160922E+02  0.81604070160E+01  0.60351788331E+02  0.64103175316E+02  0.00000000000E+00 0. -1.
         -2    1    1    2    0  502 -0.20007160922E+02 -0.81604070160E+01  0.22615345473E+03  0.22718332645E+03  0.00000000000E+00 0.  1.
<mgrwt>
<rscale>  2 0.21607377E+02</rscale>
<asrwt>0</asrwt>
<pdfrwt beam="1">  1       21 0.44445491E-01 0.21607377E+02</pdfrwt>
<pdfrwt beam="2">  1       21 0.36778936E-03 0.21607377E+02</pdfrwt>
<totfact> 0.62403378E+07</totfact>
</mgrwt>
</event>
<event>
 4    1  0.2821610E+004  0.2045767E+02  0.7546771E-02  0.1736377E+00
         21   -1    0    0  503  502  0.00000000000E+00  0.00000000000E+00  0.15118582377E+04  0.15118582377E+04  0.00000000000E+00 0.  1.
         21   -1    0    0  501  503 -0.00000000000E+00 -0.00000000000E+00 -0.13331510785E+01  0.13331510785E+01  0.00000000000E+00 0. -1.
          2    1    1    2  501    0  0.87581305245E+01  0.18488141319E+02  0.81784071905E+02  0.84303918279E+02  0.00000000000E+00 0. -1.
         -2    1    1    2    0  502 -0.87581305245E+01 -0.18488141319E+02  0.14287410147E+04  0.14288874705E+04  0.00000000000E+00 0.  1.
<mgrwt>
<rscale>  2 0.20457669E+02</rscale>
<asrwt>0</asrwt>
<pdfrwt beam="1">  1       21 0.23259220E+00 0.20457669E+02</pdfrwt>
<pdfrwt beam="2">  1       21 0.20510138E-03 0.20457669E+02</pdfrwt>
<totfact> 0.36891843E+06</totfact>
</mgrwt>
</event>
<event>
 4    1  0.2821610E+004  0.2006365E+02  0.7546771E-02  0.1744065E+00
         21   -1    0    0  501  502  0.00000000000E+00  0.00000000000E+00  0.52241327983E+00  0.52241327983E+00  0.00000000000E+00 0.  1.
         21   -1    0    0  502  503 -0.00000000000E+00 -0.00000000000E+00 -0.10097647978E+04  0.10097647978E+04  0.00000000000E+00 0. -1.
          2    1    1    2  501    0 -0.12174603559E+02  0.15947693215E+02 -0.25875929443E+03  0.25953597505E+03  0.00000000000E+00 0.  1.
         -2    1    1    2    0  503  0.12174603559E+02 -0.15947693215E+02 -0.75048309008E+03  0.75075123602E+03  0.00000000000E+00 0. -1.
<mgrwt>
<rscale>  2 0.20063646E+02</rscale>
<asrwt>0</asrwt>
<pdfrwt beam="1">  1       21 0.80372006E-04 0.20063646E+02</pdfrwt>
<pdfrwt beam="2">  1       21 0.15534701E+00 0.20063646E+02</pdfrwt>
<totfact> 0.38594492E+07</totfact>
</mgrwt>
</event>
<event>
 4    1  0.2821610E+004  0.2990260E+02  0.7546771E-02  0.1599168E+00
         21   -1    0    0  501  502  0.00000000000E+00  0.00000000000E+00  0.69438747537E+01  0.69438747537E+01  0.00000000000E+00 0. -1.
         21   -1    0    0  502  503 -0.00000000000E+00 -0.00000000000E+00 -0.53973539463E+03  0.53973539463E+03  0.00000000000E+00 0.  1.
          2    1    1    2  501    0  0.20752452380E+02  0.21529080687E+02 -0.27881378347E+02  0.40884432899E+02  0.00000000000E+00 0. -1.
         -2    1    1    2    0  503 -0.20752452380E+02 -0.21529080687E+02 -0.50491014153E+03  0.50579483648E+03  0.00000000000E+00 0.  1.
<mgrwt>
<rscale>  2 0.29902602E+02</rscale>
<asrwt>0</asrwt>
<pdfrwt beam="1">  1       21 0.10682883E-02 0.29902602E+02</pdfrwt>
<pdfrwt beam="2">  1       21 0.83036227E-01 0.29902602E+02</pdfrwt>
<totfact> 0.38412811E+06</totfact>
</mgrwt>
</event>
<event>
 4    1  0.2821610E+004  0.2207850E+02  0.7546771E-02  0.1706898E+00
         21   -1    0    0  503  502  0.00000000000E+00  0.00000000000E+00  0.11839684541E+02  0.11839684541E+02  0.00000000000E+00 0. -1.
         21   -1    0    0  501  503 -0.00000000000E+00 -0.00000000000E+00 -0.71359035985E+02  0.71359035985E+02  0.00000000000E+00 0.  1.
          2    1    1    2  501    0 -0.15717953239E+02  0.15505040910E+02 -0.56816343635E+02  0.60955370983E+02  0.00000000000E+00 0.  1.
         -2    1    1    2    0  502  0.15717953239E+02 -0.15505040910E+02 -0.27030078097E+01  0.22243349543E+02  0.00000000000E+00 0. -1.
<mgrwt>
<rscale>  2 0.22078504E+02</rscale>
<asrwt>0</asrwt>
<pdfrwt beam="1">  1       21 0.18214899E-02 0.22078504E+02</pdfrwt>
<pdfrwt beam="2">  1       21 0.10978313E-01 0.22078504E+02</pdfrwt>
<totfact> 0.68152936E+07</totfact>
</mgrwt>
</event>
<event>
 4    1  0.2821610E+004  0.2167421E+02  0.7546771E-02  0.1713948E+00
         21   -1    0    0  503  502  0.00000000000E+00  0.00000000000E+00  0.20570061543E+02  0.20570061543E+02  0.00000000000E+00 0.  1.
         21   -1    0    0  501  503 -0.00000000000E+00 -0.00000000000E+00 -0.26981850024E+02  0.26981850024E+02  0.00000000000E+00 0. -1.
          2    1    1    2  501    0  0.14104585805E+02  0.16456975595E+02 -0.12523915530E+02  0.25032375969E+02  0.00000000000E+00 0. -1.
         -2    1    1    2    0  502 -0.14104585805E+02 -0.16456975595E+02  0.61121270500E+01  0.22519535598E+02  0.00000000000E+00 0.  1.
<mgrwt>
<rscale>  2 0.21674210E+02</rscale>
<asrwt>0</asrwt>
<pdfrwt beam="1">  1       21 0.31646249E-02 0.21674210E+02</pdfrwt>
<pdfrwt beam="2">  1       21 0.41510538E-02 0.21674210E+02</pdfrwt>
<totfact> 0.13910714E+08</totfact>
</mgrwt>
</event>
<event>
 4    1  0.2821610E+004  0.3250269E+02  0.7546771E-02  0.1571966E+00
         21   -1    0    0  501  502  0.00000000000E+00  0.00000000000E+00  0.22987569311E+02  0.22987569311E+02  0.00000000000E+00 0.  1.
         21   -1    0    0  502  503 -0.00000000000E+00 -0.00000000000E+00 -0.94723205406E+02  0.94723205406E+02  0.00000000000E+00 0. -1.
          2    1    1    2  501    0  0.27547236598E+02 -0.17250342595E+02  0.63621203127E+01  0.33119497863E+02  0.00000000000E+00 0.  1.
         -2    1    1    2    0  503 -0.27547236598E+02  0.17250342595E+02 -0.78097756408E+02  0.84591276854E+02  0.00000000000E+00 0. -1.
<mgrwt>
<rscale>  2 0.32502685E+02</rscale>
<asrwt>0</asrwt>
<pdfrwt beam="1">  1       21 0.35365492E-02 0.32502685E+02</pdfrwt>
<pdfrwt beam="2">  1       21 0.14572800E-01 0.32502685E+02</pdfrwt>
<totfact> 0.16365122E+07</totfact>
</mgrwt>
</event>
<event>
 4    1  0.2821610E+004  0.3499055E+02  0.7546771E-02  0.1548684E+00
         21   -1    0    0  501  502  0.00000000000E+00  0.00000000000E+00  0.10544214611E+03  0.10544214611E+03  0.00000000000E+00 0.  1.
         21   -1    0    0  502  503 -0.00000000000E+00 -0.00000000000E+00 -0.12041064008E+02  0.12041064008E+02  0.00000000000E+00 0. -1.
          2    1    1    2  501    0  0.34544212374E+02 -0.55709946713E+01  0.57795895267E+02  0.67562593940E+02  0.00000000000E+00 0.  1.
         -2    1    1    2    0  503 -0.34544212374E+02  0.55709946713E+01  0.35605186838E+02  0.49920616181E+02  0.00000000000E+00 0. -1.
<mgrwt>
<rscale>  2 0.34990550E+02</rscale>
<asrwt>0</asrwt>
<pdfrwt beam="1">  1       21 0.16221868E-01 0.34990550E+02</pdfrwt>
<pdfrwt beam="2">  1       21 0.18524715E-02 0.34990550E+02</pdfrwt>
<totfact> 0.38014634E+07</totfact>
</mgrwt>
</event>
<event>
 4    1  0.2821610E+004  0.2187216E+02  0.7546771E-02  0.1710472E+00
         21   -1    0    0  501  502  0.00000000000E+00  0.00000000000E+00  0.66638882664E+02  0.66638882664E+02  0.00000000000E+00 0. -1.
         21   -1    0    0  502  503 -0.00000000000E+00 -0.00000000000E+00 -0.75185988655E+01  0.75185988655E+01  0.00000000000E+00 0.  1.
          2    1    1    2  501    0 -0.18127949182E+02  0.12238006909E+02  0.37441984184E+02  0.43362351577E+02  0.00000000000E+00 0.  1.
         -2    1    1    2    0  503  0.18127949182E+02 -0.12238006909E+02  0.21678299615E+02  0.30795129953E+02  0.00000000000E+00 0. -1.
<mgrwt>
<rscale>  2 0.21872159E+02</rscale>
<asrwt>0</asrwt>
<pdfrwt beam="1">  1       21 0.10252135E-01 0.21872159E+02</pdfrwt>
<pdfrwt beam="2">  1       21 0.11567076E-02 0.21872159E+02</pdfrwt>
<totfact> 0.15154676E+08</totfact>
</mgrwt>
</event>
<event>
 4    1  0.2821610E+004  0.2112821E+02  0.7546771E-02  0.1723780E+00
         21   -1    0    0  501  502  0.00000000000E+00  0.00000000000E+00  0.40299038325E+02  0.40299038325E+02  0.00000000000E+00 0.  1.
         21   -1    0    0  502  503 -0.00000000000E+00 -0.00000000000E+00 -0.11688098814E+02  0.11688098814E+02  0.00000000000E+00 0. -1.
          2    1    1    2  501    0 -0.21002303210E+02 -0.23031460747E+01  0.83629271184E+01  0.22723110966E+02  0.00000000000E+00 0. -1.
         -2    1    1    2    0  503  0.21002303210E+02  0.23031460747E+01  0.20248012393E+02  0.29264026173E+02  0.00000000000E+00 0.  1.
<mgrwt>
<rscale>  2 0.21128209E+02</rscale>
<asrwt>0</asrwt>
<pdfrwt beam="1">  1       21 0.61998520E-02 0.21128209E+02</pdfrwt>
<pdfrwt beam="2">  1       21 0.17981691E-02 0.21128209E+02</pdfrwt>
<totfact> 0.17425125E+08</totfact>
</mgrwt>
</event>
<event>
 4    1  0.2821610E+004  0.2621389E+02  0.7546771E-02  0.1644155E+00
         21   -1    0    0  503  502  0.00000000000E+00  0.00000000000E+00  0.36089896488E+02  0.36089896488E+02  0.00000000000E+00 0. -1.
         21   -1    0    0  501  503 -0.00000000000E+00 -0.00000000000E+00 -0.67264966713E+02  0.67264966713E+02  0.00000000000E+00 0.  1.
          2    1    1    2  501    0  0.16783231067E+02 -0.20136805970E+02 -0.59343816421E+02  0.64875699203E+02  0.00000000000E+00 0.  1.
         -2    1    1    2    0  502 -0.16783231067E+02  0.20136805970E+02  0.28168746196E+02  0.38479163998E+02  0.00000000000E+00 0. -1.
<mgrwt>
<rscale>  2 0.26213886E+02</rscale>
<asrwt>0</asrwt>
<pdfrwt beam="1">  1       21 0.55522918E-02 0.26213886E+02</pdfrwt>
<pdfrwt beam="2">  1       21 0.10348456E-01 0.26213886E+02</pdfrwt>
<totfact> 0.13675324E+07</totfact>
</mgrwt>
</event>
<event>
 4    1  0.2821610E+004  0.2095305E+02  0.7546771E-02  0.1727014E+00
         21   -1    0    0  501  502  0.00000000000E+00  0.00000000000E+00  0.80590206409E+01  0.80590206409E+01  0.00000000000E+00 0.  1.
         21   -1    0    0  502  503 -0.00000000000E+00 -0.00000000000E+00 -0.87459413513E+02  0.87459413513E+02  0.00000000000E+00 0. -1.
          2    1    1    2  501    0 -0.20056524421E+02  0.60635171475E+01 -0.10371292483E+02  0.23379352425E+02  0.00000000000E+00 0.  1.
         -2    1    1    2    0  503  0.20056524421E+02 -0.60635171475E+01 -0.69029100390E+02  0.72139081729E+02  0.00000000000E+00 0. -1.
<mgrwt>
<rscale>  2 0.20953053E+02</rscale>
<asrwt>0</asrwt>
<pdfrwt beam="1">  1       21 0.12398494E-02 0.20953053E+02</pdfrwt>
<pdfrwt beam="2">  1       21 0.13455294E-01 0.20953053E+02</pdfrwt>
<totfact> 0.85675601E+07</totfact>
</mgrwt>
</event>
<event>
 4    1  0.2821610E+004  0.2530356E+02  0.7546771E-02  0.1656680E+00
         21   -1    0    0  501  502  0.00000000000E+00  0.00000000000E+00  0.23569443683E+03  0.23569443683E+03  0.00000000000E+00 0. -1.
         21   -1    0    0  502  503 -0.00000000000E+00 -0.00000000000E+00 -0.37779654232E+01  0.37779654232E+01  0.00000000000E+00 0.  1.
          2    1    1    2  501    0 -0.31510104260E+01  0.25106602787E+02  0.17942463041E+03  0.18120007828E+03  0.00000000000E+00 0. -1.
         -2    1    1    2    0  503  0.31510104260E+01 -0.25106602787E+02  0.52491840996E+02  0.58272323974E+02  0.00000000000E+00 0.  1.
<mgrwt>
<rscale>  2 0.25303564E+02</rscale>
<asrwt>0</asrwt>
<pdfrwt beam="1">  1       21 0.36260671E-01 0.25303564E+02</pdfrwt>
<pdfrwt beam="2">  1       21 0.58122564E-03 0.25303564E+02</pdfrwt>
<totfact> 0.48495968E+07</totfact>
</mgrwt>
</event>
<event>
 4    1  0.2821610E+004  0.2954384E+02  0.7546771E-02  0.1603186E+00
         21   -1    0    0  503  502  0.00000000000E+00  0.00000000000E+00  0.83543918094E+00  0.83543918094E+00  0.00000000000E+00 0. -1.
         21   -1    0    0  501  503 -0.00000000000E+00 -0.00000000000E+00 -0.14458054260E+04  0.14458054260E+04  0.00000000000E+00 0.  1.
          2    1    1    2  501    0  0.27087287482E+02 -0.11794797289E+02 -0.11034362280E+04  0.11038316664E+04  0.00000000000E+00 0.  1.
         -2    1    1    2    0  502 -0.27087287482E+02  0.11794797289E+02 -0.34153375878E+03  0.34280919879E+03  0.00000000000E+00 0. -1.
<mgrwt>
<rscale>  2 0.29543838E+02</rscale>
<asrwt>0</asrwt>
<pdfrwt beam="1">  1       21 0.12853067E-03 0.29543838E+02</pdfrwt>
<pdfrwt beam="2">  1       21 0.22242889E+00 0.29543838E+02</pdfrwt>
<totfact> 0.83894824E+06</totfact>
</mgrwt>
</event>
<event>
 4    1  0.2821610E+004  0.2288273E+02  0.7546771E-02  0.1693418E+00
         21   -1    0    0  501  502  0.00000000000E+00  0.00000000000E+00  0.72009551903E+02  0.72009551903E+02  0.00000000000E+00 0.  1.
         21   -1    0    0  502  503 -0.00000000000E+00 -0.00000000000E+00 -0.77602324692E+01  0.77602324692E+01  0.00000000000E+00 0. -1.
          2    1    1    2  501    0 -0.22841656278E+02 -0.13704870113E+01  0.42133737602E+02  0.47946546701E+02  0.00000000000E+00 0.  1.
         -2    1    1    2    0  503  0.22841656278E+02  0.13704870113E+01  0.22115581831E+02  0.31823237672E+02  0.00000000000E+00 0. -1.
<mgrwt>
<rscale>  2 0.22882734E+02</rscale>
<asrwt>0</asrwt>
<pdfrwt beam="1">  1       21 0.11078392E-01 0.22882734E+02</pdfrwt>
<pdfrwt beam="2">  1       21 0.11938820E-02 0.22882734E+02</pdfrwt>
<totfact> 0.12877717E+08</totfact>
</mgrwt>
</event>
<event>
 4    1  0.2821610E+004  0.2407777E+02  0.7546771E-02  0.1674613E+00
         21   -1    0    0  501  502  0.00000000000E+00  0.00000000000E+00  0.24339687190E+01  0.24339687190E+01  0.00000000000E+00 0. -1.
         21   -1    0    0  502  503 -0.00000000000E+00 -0.00000000000E+00 -0.24869885795E+03  0.24869885795E+03  0.00000000000E+00 0.  1.
          2    1    1    2  501    0 -0.22586597990E+02 -0.83417477316E+01 -0.97316920507E+02  0.10025129516E+03  0.00000000000E+00 0. -1.
         -2    1    1    2    0  503  0.22586597990E+02  0.83417477316E+01 -0.14894796873E+03  0.15088153151E+03  0.00000000000E+00 0.  1.
<mgrwt>
<rscale>  2 0.24077773E+02</rscale>
<asrwt>0</asrwt>
<pdfrwt beam="1">  1       21 0.37445692E-03 0.24077773E+02</pdfrwt>
<pdfrwt beam="2">  1       21 0.38261343E-01 0.24077773E+02</pdfrwt>
<totfact> 0.82936769E+07</totfact>
</mgrwt>
</event>
<event>
 4    1  0.2821610E+004  0.3910573E+02  0.7546771E-02  0.1514897E+00
         21   -1    0    0  503  502  0.00000000000E+00  0.00000000000E+00  0.59855558233E+01  0.59855558233E+01  0.00000000000E+00 0. -1.
         21   -1    0    0  501  503 -0.00000000000E+00 -0.00000000000E+00 -0.25988750015E+03  0.25988750015E+03  0.00000000000E+00 0.  1.
          2    1    1    2  501    0 -0.38956594258E+02  0.34120012336E+01 -0.14424060716E+03  0.14944768563E+03  0.00000000000E+00 0.  1.
         -2    1    1    2    0  502  0.38956594258E+02 -0.34120012336E+01 -0.10966133718E+03  0.11642537034E+03  0.00000000000E+00 0. -1.
<mgrwt>
<rscale>  2 0.39105728E+02</rscale>
<asrwt>0</asrwt>
<pdfrwt beam="1">  1       21 0.92085490E-03 0.39105728E+02</pdfrwt>
<pdfrwt beam="2">  1       21 0.39982686E-01 0.39105728E+02</pdfrwt>
<totfact> 0.21885735E+07</totfact>
</mgrwt>
</event>
<event>
 4    1  0.2821610E+004  0.2732262E+02  0.7546771E-02  0.1629721E+00
         21   -1    0    0  503  502  0.00000000000E+00  0.00000000000E+00  0.53501841544E+03  0.53501841544E+03  0.00000000000E+00 0. -1.
         21   -1    0    0  501  503 -0.00000000000E+00 -0.00000000000E+00 -0.14536074474E+01  0.14536074474E+01  0.00000000000E+00 0.  1.
          2    1    1    2  501    0  0.27159685705E+02  0.29793927983E+01  0.21307214334E+03  0.21481681400E+03  0.00000000000E+00 0.  1.
         -2    1    1    2    0  502 -0.27159685705E+02 -0.29793927983E+01  0.32049266465E+03  0.32165520889E+03  0.00000000000E+00 0. -1.
<mgrwt>
<rscale>  2 0.27322615E+02</rscale>
<asrwt>0</asrwt>
<pdfrwt beam="1">  1       21 0.82310369E-01 0.27322615E+02</pdfrwt>
<pdfrwt beam="2">  1       21 0.22363234E-03 0.27322615E+02</pdfrwt>
<totfact> 0.39386377E+07</totfact>
</mgrwt>
</event>
<event>
 4    1  0.2821610E+004  0.2101280E+02  0.7546771E-02  0.1725906E+00
         21   -1    0    0  503  502  0.00000000000E+00  0.00000000000E+00  0.10045898575E+02  0.10045898575E+02  0.00000000000E+00 0.  1.
         21   -1    0    0  501  503 -0.00000000000E+00 -0.00000000000E+00 -0.10042946967E+04  0.10042946967E+04  0.00000000000E+00 0. -1.
          2    1    1    2  501    0 -0.20192939324E+02  0.58123030991E+01 -0.99307262153E+03  0.99329490551E+03  0.00000000000E+00 0. -1.
         -2    1    1    2    0  502  0.20192939324E+02 -0.58123030991E+01 -0.11761765763E+01  0.21045689753E+02  0.00000000000E+00 0.  1.
<mgrwt>
<rscale>  2 0.21012798E+02</rscale>
<asrwt>0</asrwt>
<pdfrwt beam="1">  1       21 0.15455220E-02 0.21012798E+02</pdfrwt>
<pdfrwt beam="2">  1       21 0.15450696E+00 0.21012798E+02</pdfrwt>
<totfact> 0.52645928E+05</totfact>
</mgrwt>
</event>
<event>
 4    1  0.2821610E+004  0.2324347E+02  0.7546771E-02  0.1687594E+00
         21   -1    0    0  503  502  0.00000000000E+00  0.00000000000E+00  0.22877239117E+02  0.22877239117E+02  0.00000000000E+00 0. -1.
         21   -1    0    0  501  503 -0.00000000000E+00 -0.00000000000E+00 -0.81630032930E+02  0.81630032930E+02  0.00000000000E+00 0.  1.
          2    1    1    2  501    0  0.13105523939E+02  0.19196462202E+02 -0.73427794154E+02  0.77018828043E+02  0.00000000000E+00 0.  1.
         -2    1    1    2    0  502 -0.13105523939E+02 -0.19196462202E+02  0.14675000340E+02  0.27488444005E+02  0.00000000000E+00 0. -1.
<mgrwt>
<rscale>  2 0.23243470E+02</rscale>
<asrwt>0</asrwt>
<pdfrwt beam="1">  1       21 0.35195753E-02 0.23243470E+02</pdfrwt>
<pdfrwt beam="2">  1       21 0.12558467E-01 0.23243470E+02</pdfrwt>
<totfact> 0.19904730E+07</totfact>
</mgrwt>
</event>
<event>
 4    1  0.2821610E+004  0.2114312E+02  0.7546771E-02  0.1723507E+00
         21   -1    0    0  503  502  0.00000000000E+00  0.00000000000E+00  0.79885557477E+02  0.79885557477E+02  0.00000000000E+00 0.  1.
         21   -1    0    0  501  503 -0.00000000000E+00 -0.00000000000E+00 -0.68234320821E+01  0.68234320821E+01  0.00000000000E+00 0. -1.
          2    1    1    2  501    0  0.18038146353E+02  0.11029813584E+02  0.18142436063E+02  0.27859998167E+02  0.00000000000E+00 0. -1.
         -2    1    1    2    0  502 -0.18038146353E+02 -0.11029813584E+02  0.54919689332E+02  0.58848991392E+02  0.00000000000E+00 0.  1.
<mgrwt>
<rscale>  2 0.21143120E+02</rscale>
<asrwt>0</asrwt>
<pdfrwt beam="1">  1       21 0.12290085E-01 0.21143120E+02</pdfrwt>
<pdfrwt beam="2">  1       21 0.10497588E-02 0.21143120E+02</pdfrwt>
<totfact> 0.12839831E+08</totfact>
</mgrwt>
</event>
<event>
 4    1  0.2821610E+004  0.3250437E+02  0.7546771E-02  0.1571949E+00
         21   -1    0    0  503  502  0.00000000000E+00  0.00000000000E+00  0.56539123031E+02  0.56539123031E+02  0.00000000000E+00 0.  1.
         21   -1    0    0  501  503 -0.00000000000E+00 -0.00000000000E+00 -0.39667478698E+03  0.39667478698E+03  0.00000000000E+00 0. -1.
          2    1    1    2  501    0 -0.21192801250E+02 -0.24645468520E+02 -0.39127283684E+03  0.39262063980E+03  0.00000000000E+00 0. -1.
         -2    1    1    2    0  502  0.21192801250E+02  0.24645468520E+02  0.51137172895E+02  0.60593270213E+02  0.00000000000E+00 0.  1.
<mgrwt>
<rscale>  2 0.32504368E+02</rscale>
<asrwt>0</asrwt>
<pdfrwt beam="1">  1       21 0.86983267E-02 0.32504368E+02</pdfrwt>
<pdfrwt beam="2">  1       21 0.61026890E-01 0.32504368E+02</pdfrwt>
<totfact> 0.26674733E+05</totfact>
</mgrwt>
</event>
<event>
 4    1  0.2821610E+004  0.2220805E+02  0.7546771E-02  0.1704679E+00
         21   -1    0    0  503  502  0.00000000000E+00  0.00000000000E+00  0.15943261903E+01  0.15943261903E+01  0.00000000000E+00 0.  1.
         21   -1    0    0  501  503 -0.00000000000E+00 -0.00000000000E+00 -0.63670808365E+03  0.63670808365E+03  0.00000000000E+00 0. -1.
          2    1    1    2  501    0  0.70297644883E+01  0.21066081178E+02 -0.54640162035E+03  0.54685274809E+03  0.00000000000E+00 0. -1.
         -2    1    1    2    0  502 -0.70297644883E+01 -0.21066081178E+02 -0.88712137110E+02  0.91449661757E+02  0.00000000000E+00 0.  1.
<mgrwt>
<rscale>  2 0.22208047E+02</rscale>
<asrwt>0</asrwt>
<pdfrwt beam="1">  1       21 0.24528062E-03 0.22208047E+02</pdfrwt>
<pdfrwt beam="2">  1       21 0.97955224E-01 0.22208047E+02</pdfrwt>
<totfact> 0.22758647E+07</totfact>
</mgrwt>
</event>
<event>
 4    1  0.2821610E+004  0.3139212E+02  0.7546771E-02  0.1583191E+00
         21   -1    0    0  503  502  0.00000000000E+00  0.00000000000E+00  0.12901332286E+02  0.12901332286E+02  0.00000000000E+00 0.  1.
         21   -1    0    0  501  503 -0.00000000000E+00 -0.00000000000E+00 -0.12521214131E+03  0.12521214131E+03  0.00000000000E+00 0. -1.
          2    1    1    2  501    0 -0.22295293047E+02  0.22099432229E+02 -0.99278964630E+02  0.10412385805E+03  0.00000000000E+00 0. -1.
         -2    1    1    2    0  502  0.22295293047E+02 -0.22099432229E+02 -0.13031844398E+02  0.33989615551E+02  0.00000000000E+00 0.  1.
<mgrwt>
<rscale>  2 0.31392117E+02</rscale>
<asrwt>0</asrwt>
<pdfrwt beam="1">  1       21 0.19848203E-02 0.31392117E+02</pdfrwt>
<pdfrwt beam="2">  1       21 0.19263407E-01 0.31392117E+02</pdfrwt>
<totfact> 0.24759123E+07</totfact>
</mgrwt>
</event>
<event>
 4    1  0.2821610E+004  0.2340415E+02  0.7546771E-02  0.1685042E+00
         21   -1    0    0  503  502  0.00000000000E+00  0.00000000000E+00  0.10396420677E+03  0.10396420677E+03  0.00000000000E+00 0. -1.
         21   -1    0    0  501  503 -0.00000000000E+00 -0.00000000000E+00 -0.74025381131E+01  0.74025381131E+01  0.00000000000E+00 0.  1.
          2    1    1    2  501    0  0.22407242643E+02 -0.67579259150E+01  0.18384494341E+02  0.29761446835E+02  0.00000000000E+00 0.  1.
         -2    1    1    2    0  502 -0.22407242643E+02  0.67579259150E+01  0.78177174317E+02  0.81605298049E+02  0.00000000000E+00 0. -1.
<mgrwt>
<rscale>  2 0.23404147E+02</rscale>
<asrwt>0</asrwt>
<pdfrwt beam="1">  1       21 0.15994492E-01 0.23404147E+02</pdfrwt>
<pdfrwt beam="2">  1       21 0.11388521E-02 0.23404147E+02</pdfrwt>
<totfact> 0.74867412E+07</totfact>
</mgrwt>
</event>
<event>
 4    1  0.2821610E+004  0.2892487E+02  0.7546771E-02  0.1610286E+00
         21   -1    0    0  501  502  0.00000000000E+00  0.00000000000E+00  0.50795348843E+01  0.50795348843E+01  0.00000000000E+00 0.  1.
         21   -1    0    0  502  503 -0.00000000000E+00 -0.00000000000E+00 -0.42783767587E+03  0.42783767587E+03  0.00000000000E+00 0. -1.
          2    1    1    2  501    0 -0.17103625740E+02  0.23326258800E+02 -0.41625505121E+02  0.50688569122E+02  0.00000000000E+00 0.  1.
         -2    1    1    2    0  503  0.17103625740E+02 -0.23326258800E+02 -0.38113263587E+03  0.38222864164E+03  0.00000000000E+00 0. -1.
<mgrwt>
<rscale>  2 0.28924874E+02</rscale>
<asrwt>0</asrwt>
<pdfrwt beam="1">  1       21 0.78146676E-03 0.28924874E+02</pdfrwt>
<pdfrwt beam="2">  1       21 0.65821193E-01 0.28924874E+02</pdfrwt>
<totfact> 0.99717067E+06</totfact>
</mgrwt>
</event>
<event>
 4    1  0.2821610E+004  0.2086314E+02  0.7546771E-02  0.1728689E+00
         21   -1    0    0  503  502  0.00000000000E+00  0.00000000000E+00  0.17759151263E+02  0.17759151263E+02  0.00000000000E+00 0.  1.
         21   -1    0    0  501  503 -0.00000000000E+00 -0.00000000000E+00 -0.28676450333E+02  0.28676450333E+02  0.00000000000E+00 0. -1.
          2    1    1    2  501    0 -0.18326294524E+02  0.99708388263E+01 -0.14308978001E+02  0.25298568128E+02  0.00000000000E+00 0. -1.
         -2    1    1    2    0  502  0.18326294524E+02 -0.99708388263E+01  0.33916789312E+01  0.21137033468E+02  0.00000000000E+00 0.  1.
<mgrwt>
<rscale>  2 0.20863142E+02</rscale>
<asrwt>0</asrwt>
<pdfrwt beam="1">  1       21 0.27321771E-02 0.20863142E+02</pdfrwt>
<pdfrwt beam="2">  1       21 0.44117616E-02 0.20863142E+02</pdfrwt>
<totfact> 0.15687322E+08</totfact>
</mgrwt>
</event>
<event>
 4    1  0.2821610E+004  0.3008208E+02  0.7546771E-02  0.1597183E+00
         21   -1    0    0  503  502  0.00000000000E+00  0.00000000000E+00  0.10174674514E+03  0.10174674514E+03  0.00000000000E+00 0. -1.
         21   -1    0    0  501  503 -0.00000000000E+00 -0.00000000000E+00 -0.12553987474E+02  0.12553987474E+02  0.00000000000E+00 0.  1.
          2    1    1    2  501    0  0.28561985958E+02  0.94416234335E+01  0.13738188439E+02  0.33070668522E+02  0.00000000000E+00 0.  1.
         -2    1    1    2    0  502 -0.28561985958E+02 -0.94416234335E+01  0.75454569229E+02  0.81230064092E+02  0.00000000000E+00 0. -1.
<mgrwt>
<rscale>  2 0.30082076E+02</rscale>
<asrwt>0</asrwt>
<pdfrwt beam="1">  1       21 0.15653345E-01 0.30082076E+02</pdfrwt>
<pdfrwt beam="2">  1       21 0.19313828E-02 0.30082076E+02</pdfrwt>
<totfact> 0.36784425E+07</totfact>
</mgrwt>
</event>
<event>
 4    1  0.2821610E+004  0.2102416E+02  0.7546771E-02  0.1725696E+00
         21   -1    0    0  501  502  0.00000000000E+00  0.00000000000E+00  0.11435104665E+02  0.11435104665E+02  0.00000000000E+00 0. -1.
         21   -1    0    0  502  503 -0.00000000000E+00 -0.00000000000E+00 -0.38776742314E+02  0.38776742314E+02  0.00000000000E+00 0.  1.
          2    1    1    2  501    0  0.11092936332E+02 -0.17859514117E+02 -0.15081833566E+02  0.25874257182E+02  0.00000000000E+00 0. -1.
         -2    1    1    2    0  503 -0.11092936332E+02  0.17859514117E+02 -0.12259804083E+02  0.24337589797E+02  0.00000000000E+00 0.  1.
<mgrwt>
<rscale>  2 0.21024164E+02</rscale>
<asrwt>0</asrwt>
<pdfrwt beam="1">  1       21 0.17592468E-02 0.21024164E+02</pdfrwt>
<pdfrwt beam="2">  1       21 0.59656528E-02 0.21024164E+02</pdfrwt>
<totfact> 0.19131947E+08</totfact>
</mgrwt>
</event>
<event>
 4    1  0.2821610E+004  0.4866004E+02  0.7546771E-02  0.1452706E+00
         21   -1    0    0  501  502  0.00000000000E+00  0.00000000000E+00  0.18792204781E+02  0.18792204781E+02  0.00000000000E+00 0. -1.
         21   -1    0    0  502  503 -0.00000000000E+00 -0.00000000000E+00 -0.27398098074E+03  0.27398098074E+03  0.00000000000E+00 0.  1.
          2    1    1    2  501    0 -0.22703570815E+02  0.43038905848E+02 -0.20010937088E+02  0.52614039452E+02  0.00000000000E+00 0. -1.
         -2    1    1    2    0  503  0.22703570815E+02 -0.43038905848E+02 -0.23517783887E+03  0.24015914607E+03  0.00000000000E+00 0.  1.
<mgrwt>
<rscale>  2 0.48660041E+02</rscale>
<asrwt>0</asrwt>
<pdfrwt beam="1">  1       21 0.28911086E-02 0.48660041E+02</pdfrwt>
<pdfrwt beam="2">  1       21 0.42150917E-01 0.48660041E+02</pdfrwt>
<totfact> 0.34101930E+06</totfact>
</mgrwt>
</event>
<event>
 4    1  0.2821610E+004  0.4496789E+02  0.7546771E-02  0.1474542E+00
         21   -1    0    0  503  502  0.00000000000E+00  0.00000000000E+00  0.10777852589E+02  0.10777852589E+02  0.00000000000E+00 0.  1.
         21   -1    0    0  501  503 -0.00000000000E+00 -0.00000000000E+00 -0.18870721752E+03  0.18870721752E+03  0.00000000000E+00 0. -1.
          2    1    1    2  501    0 -0.21066961754E+02 -0.39727755981E+02 -0.96544964417E+02  0.10650371649E+03  0.00000000000E+00 0.  1.
         -2    1    1    2    0  502  0.21066961754E+02  0.39727755981E+02 -0.81384400513E+02  0.92981353613E+02  0.00000000000E+00 0. -1.
<mgrwt>
<rscale>  2 0.44967894E+02</rscale>
<asrwt>0</asrwt>
<pdfrwt beam="1">  1       21 0.16581312E-02 0.44967894E+02</pdfrwt>
<pdfrwt beam="2">  1       21 0.29031879E-01 0.44967894E+02</pdfrwt>
<totfact> 0.16526961E+07</totfact>
</mgrwt>
</event>
<event>
 4    1  0.2821610E+004  0.3603873E+02  0.7546771E-02  0.1539565E+00
         21   -1    0    0  503  502  0.00000000000E+00  0.00000000000E+00  0.27823965860E+02  0.27823965860E+02  0.00000000000E+00 0.  1.
         21   -1    0    0  501  503 -0.00000000000E+00 -0.00000000000E+00 -0.20432869182E+03  0.20432869182E+03  0.00000000000E+00 0. -1.
          2    1    1    2  501    0  0.85105947938E+01 -0.35019425970E+02 -0.19021141101E+03  0.19359538037E+03  0.00000000000E+00 0. -1.
         -2    1    1    2    0  502 -0.85105947938E+01  0.35019425970E+02  0.13706685052E+02  0.38557277317E+02  0.00000000000E+00 0.  1.
<mgrwt>
<rscale>  2 0.36038735E+02</rscale>
<asrwt>0</asrwt>
<pdfrwt beam="1">  1       21 0.42806102E-02 0.36038735E+02</pdfrwt>
<pdfrwt beam="2">  1       21 0.31435183E-01 0.36038735E+02</pdfrwt>
<totfact> 0.30979092E+06</totfact>
</mgrwt>
</event>
<event>
 4    1  0.2821610E+004  0.4449238E+02  0.7546771E-02  0.1477536E+00
         21   -1    0    0  501  502  0.00000000000E+00  0.00000000000E+00  0.96722657239E+02  0.96722657239E+02  0.00000000000E+00 0.  1.
         21   -1    0    0  502  503 -0.00000000000E+00 -0.00000000000E+00 -0.29977208253E+02  0.29977208253E+02  0.00000000000E+00 0. -1.
          2    1    1    2  501    0 -0.55871105260E+01  0.44140191538E+02  0.69055403741E+02  0.82147556865E+02  0.00000000000E+00 0. -1.
         -2    1    1    2    0  503  0.55871105260E+01 -0.44140191538E+02 -0.23099547546E+01  0.44552308627E+02  0.00000000000E+00 0.  1.
<mgrwt>
<rscale>  2 0.44492385E+02</rscale>
<asrwt>0</asrwt>
<pdfrwt beam="1">  1       21 0.14880409E-01 0.44492385E+02</pdfrwt>
<pdfrwt beam="2">  1       21 0.46118782E-02 0.44492385E+02</pdfrwt>
<totfact> 0.10804271E+07</totfact>
</mgrwt>
</event>
<event>
 4    1  0.2821610E+004  0.2031101E+02  0.7546771E-02  0.1739213E+00
         21   -1    0    0  501  502  0.00000000000E+00  0.00000000000E+00  0.62461394751E+01  0.62461394751E+01  0.00000000000E+00 0. -1.
         21   -1    0    0  502  503 -0.00000000000E+00 -0.00000000000E+00 -0.32116954077E+03  0.32116954077E+03  0.00000000000E+00 0.  1.
          2    1    1    2  501    0  0.12626434941E+02 -0.15909442740E+02 -0.11554431298E+02  0.23367543950E+02  0.00000000000E+00 0. -1.
         -2    1    1    2    0  503 -0.12626434941E+02  0.15909442740E+02 -0.30336897000E+03  0.30404813630E+03  0.00000000000E+00 0.  1.
<mgrwt>
<rscale>  2 0.20311012E+02</rscale>
<asrwt>0</asrwt>
<pdfrwt beam="1">  1       21 0.96094425E-03 0.20311012E+02</pdfrwt>
<pdfrwt beam="2">  1       21 0.49410713E-01 0.20311012E+02</pdfrwt>
<totfact> 0.12163407E+07</totfact>
</mgrwt>
</event>
<event>
 4    1  0.2821610E+004  0.2042978E+02  0.7546771E-02  0.1736914E+00
         21   -1    0    0  501  502  0.00000000000E+00  0.00000000000E+00  0.81610835272E+01  0.81610835272E+01  0.00000000000E+00 0.  1.
         21   -1    0    0  502  503 -0.00000000000E+00 -0.00000000000E+00 -0.13066267642E+03  0.13066267642E+03  0.00000000000E+00 0. -1.
          2    1    1    2  501    0 -0.48971790225E+01 -0.19834146332E+02 -0.71009121189E+01  0.21628654050E+02  0.00000000000E+00 0.  1.
         -2    1    1    2    0  503  0.48971790225E+01  0.19834146332E+02 -0.11540068077E+03  0.11719510590E+03  0.00000000000E+00 0. -1.
<mgrwt>
<rscale>  2 0.20429775E+02</rscale>
<asrwt>0</asrwt>
<pdfrwt beam="1">  1       21 0.12555513E-02 0.20429775E+02</pdfrwt>
<pdfrwt beam="2">  1       21 0.20101951E-01 0.20429775E+02</pdfrwt>
<totfact> 0.42064521E+07</totfact>
</mgrwt>
</event>
<event>
 4    1  0.2821610E+004  0.2245051E+02  0.7546771E-02  0.1700575E+00
         21   -1    0    0  501  502  0.00000000000E+00  0.00000000000E+00  0.75535259446E+01  0.75535259446E+01  0.00000000000E+00 0.  1.
         21   -1    0    0  502  503 -0.00000000000E+00 -0.00000000000E+00 -0.77557180244E+03  0.77557180244E+03  0.00000000000E+00 0. -1.
          2    1    1    2  501    0  0.17317071631E+02  0.14287907433E+02 -0.96695118562E+01  0.24444318936E+02  0.00000000000E+00 0.  1.
         -2    1    1    2    0  503 -0.17317071631E+02 -0.14287907433E+02 -0.75834876464E+03  0.75868100945E+03  0.00000000000E+00 0. -1.
<mgrwt>
<rscale>  2 0.22450507E+02</rscale>
<asrwt>0</asrwt>
<pdfrwt beam="1">  1       21 0.11620807E-02 0.22450507E+02</pdfrwt>
<pdfrwt beam="2">  1       21 0.11931876E+00 0.22450507E+02</pdfrwt>
<totfact> 0.14806390E+06</totfact>
</mgrwt>
</event>
<event>
 4    1  0.2821610E+004  0.2142919E+02  0.7546771E-02  0.1718315E+00
         21   -1    0    0  501  502  0.00000000000E+00  0.00000000000E+00  0.52481012410E+02  0.52481012410E+02  0.00000000000E+00 0. -1.
         21   -1    0    0  502  503 -0.00000000000E+00 -0.00000000000E+00 -0.97835000837E+01  0.97835000837E+01  0.00000000000E+00 0.  1.
          2    1    1    2  501    0  0.17674753473E+02  0.12116647584E+02  0.31467204580E+02  0.38070920964E+02  0.00000000000E+00 0.  1.
         -2    1    1    2    0  503 -0.17674753473E+02 -0.12116647584E+02  0.11230307747E+02  0.24193591530E+02  0.00000000000E+00 0. -1.
<mgrwt>
<rscale>  2 0.21429187E+02</rscale>
<asrwt>0</asrwt>
<pdfrwt beam="1">  1       21 0.80740017E-02 0.21429187E+02</pdfrwt>
<pdfrwt beam="2">  1       21 0.15051539E-02 0.21429187E+02</pdfrwt>
<totfact> 0.14969647E+08</totfact>
</mgrwt>
</event>
<event>
 4    1  0.2821610E+004  0.2541276E+02  0.7546771E-02  0.1655143E+00
         21   -1    0    0  503  502  0.00000000000E+00  0.00000000000E+00  0.62487268694E+01  0.62487268694E+01  0.00000000000E+00 0.  1.
         21   -1    0    0  501  503 -0.00000000000E+00 -0.00000000000E+00 -0.29634223348E+03  0.29634223348E+03  0.00000000000E+00 0. -1.
          2    1    1    2  501    0  0.55662770477E+01  0.24795661448E+02 -0.26714197648E+03  0.26834799023E+03  0.00000000000E+00 0. -1.
         -2    1    1    2    0  502 -0.55662770477E+01 -0.24795661448E+02 -0.22951530133E+02  0.34242970115E+02  0.00000000000E+00 0.  1.
<mgrwt>
<rscale>  2 0.25412758E+02</rscale>
<asrwt>0</asrwt>
<pdfrwt beam="1">  1       21 0.96134230E-03 0.25412758E+02</pdfrwt>
<pdfrwt beam="2">  1       21 0.45591127E-01 0.25412758E+02</pdfrwt>
<totfact> 0.14816279E+07</totfact>
</mgrwt>
</event>
<event>
 4    1  0.2821610E+004  0.2183946E+02  0.7546771E-02  0.1711043E+00
         21   -1    0    0  501  502  0.00000000000E+00  0.00000000000E+00  0.24017446308E+01  0.24017446308E+01  0.00000000000E+00 0. -1.
         21   -1    0    0  502  503 -0.00000000000E+00 -0.00000000000E+00 -0.21788888544E+03  0.21788888544E+03  0.00000000000E+00 0.  1.
          2    1    1    2  501    0 -0.12445636066E+02 -0.17946259931E+02 -0.74963014943E+02  0.78079547334E+02  0.00000000000E+00 0.  1.
         -2    1    1    2    0  503  0.12445636066E+02  0.17946259931E+02 -0.14052412586E+03  0.14221108273E+03  0.00000000000E+00 0. -1.
<mgrwt>
<rscale>  2 0.21839462E+02</rscale>
<asrwt>0</asrwt>
<pdfrwt beam="1">  1       21 0.36949917E-03 0.21839462E+02</pdfrwt>
<pdfrwt beam="2">  1       21 0.33521367E-01 0.21839462E+02</pdfrwt>
<totfact> 0.10536932E+08</totfact>
</mgrwt>
</event>
<event>
 4    1  0.2821610E+004  0.2358113E+02  0.7546771E-02  0.1682260E+00
         21   -1    0    0  501  502  0.00000000000E+00  0.00000000000E+00  0.18922510052E+02  0.18922510052E+02  0.00000000000E+00 0. -1.
         21   -1    0    0  502  503 -0.00000000000E+00 -0.00000000000E+00 -0.58322308086E+02  0.58322308086E+02  0.00000000000E+00 0.  1.
          2    1    1    2  501    0 -0.18456984389E+02 -0.14676829410E+02  0.75044617612E+01  0.24746445009E+02  0.00000000000E+00 0. -1.
         -2    1    1    2    0  503  0.18456984389E+02  0.14676829410E+02 -0.46904259795E+02  0.52498373129E+02  0.00000000000E+00 0.  1.
<mgrwt>
<rscale>  2 0.23581128E+02</rscale>
<asrwt>0</asrwt>
<pdfrwt beam="1">  1       21 0.29111554E-02 0.23581128E+02</pdfrwt>
<pdfrwt beam="2">  1       21 0.89726627E-02 0.23581128E+02</pdfrwt>
<totfact> 0.46981582E+07</totfact>
</mgrwt>
</event>
<event>
 4    1  0.2821610E+004  0.3569664E+02  0.7546771E-02  0.1542500E+00
         21   -1    0    0  501  502  0.00000000000E+00  0.00000000000E+00  0.26619756754E+02  0.26619756754E+02  0.00000000000E+00 0. -1.
         21   -1    0    0  502  503 -0.00000000000E+00 -0.00000000000E+00 -0.55531837163E+02  0.55531837163E+02  0.00000000000E+00 0.  1.
          2    1    1    2  501    0  0.92609679549E+01 -0.34474406710E+02  0.80279452619E+00  0.35705667961E+02  0.00000000000E+00 0. -1.
         -2    1    1    2    0  503 -0.92609679549E+01  0.34474406710E+02 -0.29714874935E+02  0.46445925956E+02  0.00000000000E+00 0.  1.
<mgrwt>
<rscale>  2 0.35696642E+02</rscale>
<asrwt>0</asrwt>
<pdfrwt beam="1">  1       21 0.40953472E-02 0.35696642E+02</pdfrwt>
<pdfrwt beam="2">  1       21 0.85433595E-02 0.35696642E+02</pdfrwt>
<totfact> 0.32533309E+07</totfact>
</mgrwt>
</event>
<event>
 4    1  0.2821610E+004  0.3083297E+02  0.7546771E-02  0.1589060E+00
         21   -1    0    0  503  502  0.00000000000E+00  0.00000000000E+00  0.19535611794E+03  0.19535611794E+03  0.00000000000E+00 0.  1.
         21   -1    0    0  501  503 -0.00000000000E+00 -0.00000000000E+00 -0.57385675012E+01  0.57385675012E+01  0.00000000000E+00 0. -1.
          2    1    1    2  501    0  0.18608992080E+02  0.24584090571E+02  0.55609308016E+02  0.63585118019E+02  0.00000000000E+00 0. -1.
         -2    1    1    2    0  502 -0.18608992080E+02 -0.24584090571E+02  0.13400824242E+03  0.13750956742E+03  0.00000000000E+00 0.  1.
<mgrwt>
<rscale>  2 0.30832971E+02</rscale>
<asrwt>0</asrwt>
<pdfrwt beam="1">  1       21 0.30054782E-01 0.30832971E+02</pdfrwt>
<pdfrwt beam="2">  1       21 0.88285669E-03 0.30832971E+02</pdfrwt>
<totfact> 0.38291774E+07</totfact>
</mgrwt>
</event>
<event>
 4    1  0.2821610E+004  0.2994870E+02  0.7546771E-02  0.1598656E+00
         21   -1    0    0  503  502  0.00000000000E+00  0.00000000000E+00  0.92317240076E+03  0.92317240076E+03  0.00000000000E+00 0.  1.
         21   -1    0    0  501  503 -0.00000000000E+00 -0.00000000000E+00 -0.39486339759E+01  0.39486339759E+01  0.00000000000E+00 0. -1.
          2    1    1    2  501    0  0.29544460562E+02  0.49039997523E+01  0.57101339727E+02  0.64478580646E+02  0.00000000000E+00 0. -1.
         -2    1    1    2    0  502 -0.29544460562E+02 -0.49039997523E+01  0.86212242705E+03  0.86264245409E+03  0.00000000000E+00 0.  1.
<mgrwt>
<rscale>  2 0.29948696E+02</rscale>
<asrwt>0</asrwt>
<pdfrwt beam="1">  1       21 0.14202635E+00 0.29948696E+02</pdfrwt>
<pdfrwt beam="2">  1       21 0.60748288E-03 0.29948696E+02</pdfrwt>
<totfact> 0.26851120E+06</totfact>
</mgrwt>
</event>
<event>
 4    1  0.2821610E+004  0.6004644E+02  0.7546771E-02  0.1397637E+00
         21   -1    0    0  501  502  0.00000000000E+00  0.00000000000E+00  0.41846875360E+02  0.41846875360E+02  0.00000000000E+00 0. -1.
         21   -1    0    0  502  503 -0.00000000000E+00 -0.00000000000E+00 -0.10414915824E+03  0.10414915824E+03  0.00000000000E+00 0.  1.
          2    1    1    2  501    0  0.54488950780E+02  0.25229523246E+02 -0.81398953801E+00  0.60051954000E+02  0.00000000000E+00 0. -1.
         -2    1    1    2    0  503 -0.54488950780E+02 -0.25229523246E+02 -0.61488293345E+02  0.85944079603E+02  0.00000000000E+00 0.  1.
<mgrwt>
<rscale>  2 0.60046437E+02</rscale>
<asrwt>0</asrwt>
<pdfrwt beam="1">  1       21 0.64379809E-02 0.60046437E+02</pdfrwt>
<pdfrwt beam="2">  1       21 0.16022947E-01 0.60046437E+02</pdfrwt>
<totfact> 0.56616475E+06</totfact>
</mgrwt>
</event>
<event>
 4    1  0.2821610E+004  0.2862522E+02  0.7546771E-02  0.1613802E+00
         21   -1    0    0  503  502  0.00000000000E+00  0.00000000000E+00  0.42685406467E+02  0.42685406467E+02  0.00000000000E+00 0.  1.
         21   -1    0    0  501  503 -0.00000000000E+00 -0.00000000000E+00 -0.50795014294E+02  0.50795014294E+02  0.00000000000E+00 0. -1.
          2    1    1    2  501    0 -0.22778202282E+02 -0.17336569625E+02 -0.40919836305E+02  0.49938323448E+02  0.00000000000E+00 0. -1.
         -2    1    1    2    0  502  0.22778202282E+02  0.17336569625E+02  0.32810228478E+02  0.43542097312E+02  0.00000000000E+00 0.  1.
<mgrwt>
<rscale>  2 0.28625219E+02</rscale>
<asrwt>0</asrwt>
<pdfrwt beam="1">  1       21 0.65669856E-02 0.28625219E+02</pdfrwt>
<pdfrwt beam="2">  1       21 0.78146176E-02 0.28625219E+02</pdfrwt>
<totfact> 0.16870277E+07</totfact>
</mgrwt>
</event>
<event>
 4    1  0.2821610E+004  0.2010668E+02  0.7546771E-02  0.1743215E+00
         21   -1    0    0  501  502  0.00000000000E+00  0.00000000000E+00  0.91322693196E+01  0.91322693196E+01  0.00000000000E+00 0.  1.
         21   -1    0    0  502  503 -0.00000000000E+00 -0.00000000000E+00 -0.44624832618E+02  0.44624832618E+02  0.00000000000E+00 0. -1.
          2    1    1    2  501    0 -0.85820726968E+00 -0.20088356740E+02 -0.20145643007E+02  0.28462704165E+02  0.00000000000E+00 0. -1.
         -2    1    1    2    0  503  0.85820726968E+00  0.20088356740E+02 -0.15346920292E+02  0.25294397773E+02  0.00000000000E+00 0.  1.
<mgrwt>
<rscale>  2 0.20106680E+02</rscale>
<asrwt>0</asrwt>
<pdfrwt beam="1">  1       21 0.14049645E-02 0.20106680E+02</pdfrwt>
<pdfrwt beam="2">  1       21 0.68653588E-02 0.20106680E+02</pdfrwt>
<totfact> 0.21166846E+08</totfact>
</mgrwt>
</event>
<event>
 4    1  0.2821610E+004  0.2943099E+02  0.7546771E-02  0.1604465E+00
         21   -1    0    0  503  502  0.00000000000E+00  0.00000000000E+00  0.78071553701E+02  0.78071553701E+02  0.00000000000E+00 0.  1.
         21   -1    0    0  501  503 -0.00000000000E+00 -0.00000000000E+00 -0.24142794955E+02  0.24142794955E+02  0.00000000000E+00 0. -1.
          2    1    1    2  501    0 -0.28128039368E+02  0.86600657149E+01 -0.10607337360E+02  0.31284164408E+02  0.00000000000E+00 0. -1.
         -2    1    1    2    0  502  0.28128039368E+02 -0.86600657149E+01  0.64536096106E+02  0.70930184248E+02  0.00000000000E+00 0.  1.
<mgrwt>
<rscale>  2 0.29430993E+02</rscale>
<asrwt>0</asrwt>
<pdfrwt beam="1">  1       21 0.12011008E-01 0.29430993E+02</pdfrwt>
<pdfrwt beam="2">  1       21 0.37142762E-02 0.29430993E+02</pdfrwt>
<totfact> 0.20690515E+07</totfact>
</mgrwt>
</event>
<event>
 4    1  0.2821610E+004  0.8947029E+02  0.7546771E-02  0.1304140E+00
         21   -1    0    0  501  502  0.00000000000E+00  0.00000000000E+00  0.29311841415E+03  0.29311841415E+03  0.00000000000E+00 0.  1.
         21   -1    0    0  502  503 -0.00000000000E+00 -0.00000000000E+00 -0.32227297071E+02  0.32227297071E+02  0.00000000000E+00 0. -1.
          2    1    1    2  501    0  0.64884236864E+02 -0.61603315952E+02  0.19399125320E+03  0.21362944331E+03  0.00000000000E+00 0.  1.
         -2    1    1    2    0  503 -0.64884236864E+02  0.61603315952E+02  0.66899863880E+02  0.11171626791E+03  0.00000000000E+00 0. -1.
<mgrwt>
<rscale>  2 0.89470290E+02</rscale>
<asrwt>0</asrwt>
<pdfrwt beam="1">  1       21 0.45095139E-01 0.89470290E+02</pdfrwt>
<pdfrwt beam="2">  1       21 0.49580459E-02 0.89470290E+02</pdfrwt>
<totfact> 0.12783954E+06</totfact>
</mgrwt>
</event>
<event>
 4    1  0.2821610E+004  0.2239017E+02  0.7546771E-02  0.1701590E+00
         21   -1    0    0  501  502  0.00000000000E+00  0.00000000000E+00  0.33839403438E+03  0.33839403438E+03  0.00000000000E+00 0.  1.
         21   -1    0    0  502  503 -0.00000000000E+00 -0.00000000000E+00 -0.15051624991E+01  0.15051624991E+01  0.00000000000E+00 0. -1.
          2    1    1    2  501    0  0.21876588380E+02  0.47680797097E+01  0.18976793368E+03  0.19108424413E+03  0.00000000000E+00 0. -1.
         -2    1    1    2    0  503 -0.21876588380E+02 -0.47680797097E+01  0.14712093820E+03  0.14881495274E+03  0.00000000000E+00 0.  1.
<mgrwt>
<rscale>  2 0.22390170E+02</rscale>
<asrwt>0</asrwt>
<pdfrwt beam="1">  1       21 0.52060560E-01 0.22390170E+02</pdfrwt>
<pdfrwt beam="2">  1       21 0.23156373E-03 0.22390170E+02</pdfrwt>
<totfact> 0.90949894E+07</totfact>
</mgrwt>
</event>
<event>
 4    1  0.2821610E+004  0.2138723E+02  0.7546771E-02  0.1719070E+00
         21   -1    0    0  503  502  0.00000000000E+00  0.00000000000E+00  0.14928530179E+03  0.14928530179E+03  0.00000000000E+00 0. -1.
         21   -1    0    0  501  503 -0.00000000000E+00 -0.00000000000E+00 -0.58824816252E+01  0.58824816252E+01  0.00000000000E+00 0.  1.
          2    1    1    2  501    0  0.67768174186E+01  0.20285179027E+02  0.17998597900E+02  0.27952875860E+02  0.00000000000E+00 0.  1.
         -2    1    1    2    0  502 -0.67768174186E+01 -0.20285179027E+02  0.12540422227E+03  0.12721490756E+03  0.00000000000E+00 0. -1.
<mgrwt>
<rscale>  2 0.21387233E+02</rscale>
<asrwt>0</asrwt>
<pdfrwt beam="1">  1       21 0.22966967E-01 0.21387233E+02</pdfrwt>
<pdfrwt beam="2">  1       21 0.90499729E-03 0.21387233E+02</pdfrwt>
<totfact> 0.55078304E+07</totfact>
</mgrwt>
</event>
<event>
 4    1  0.2821610E+004  0.2102083E+02  0.7546771E-02  0.1725758E+00
         21   -1    0    0  503  502  0.00000000000E+00  0.00000000000E+00  0.97922470387E+02  0.97922470387E+02  0.00000000000E+00 0. -1.
         21   -1    0    0  501  503 -0.00000000000E+00 -0.00000000000E+00 -0.16690498777E+02  0.16690498777E+02  0.00000000000E+00 0.  1.
          2    1    1    2  501    0 -0.20951770504E+02 -0.17024729549E+01 -0.83345084968E+01  0.22612809054E+02  0.00000000000E+00 0.  1.
         -2    1    1    2    0  502  0.20951770504E+02  0.17024729549E+01  0.89566480107E+02  0.92000160110E+02  0.00000000000E+00 0. -1.
<mgrwt>
<rscale>  2 0.21020825E+02</rscale>
<asrwt>0</asrwt>
<pdfrwt beam="1">  1       21 0.15064995E-01 0.21020825E+02</pdfrwt>
<pdfrwt beam="2">  1       21 0.25677691E-02 0.21020825E+02</pdfrwt>
<totfact> 0.23364937E+07</totfact>
</mgrwt>
</event>
<event>
 4    1  0.2821610E+004  0.2846819E+02  0.7546771E-02  0.1615665E+00
         21   -1    0    0  503  502  0.00000000000E+00  0.00000000000E+00  0.20734652142E+02  0.20734652142E+02  0.00000000000E+00 0. -1.
         21   -1    0    0  501  503 -0.00000000000E+00 -0.00000000000E+00 -0.39167781947E+02  0.39167781947E+02  0.00000000000E+00 0.  1.
          2    1    1    2  501    0  0.28455040814E+02 -0.86515503391E+00 -0.10583868747E+02  0.30371962706E+02  0.00000000000E+00 0. -1.
         -2    1    1    2    0  502 -0.28455040814E+02  0.86515503391E+00 -0.78492610585E+01  0.29530471383E+02  0.00000000000E+00 0.  1.
<mgrwt>
<rscale>  2 0.28468190E+02</rscale>
<asrwt>0</asrwt>
<pdfrwt beam="1">  1       21 0.31899465E-02 0.28468190E+02</pdfrwt>
<pdfrwt beam="2">  1       21 0.60258126E-02 0.28468190E+02</pdfrwt>
<totfact> 0.81710874E+07</totfact>
</mgrwt>
</event>
<event>
 4    1  0.2821610E+004  0.2672319E+02  0.7546771E-02  0.1637417E+00
         21   -1    0    0  501  502  0.00000000000E+00  0.00000000000E+00  0.65872534492E+02  0.65872534492E+02  0.00000000000E+00 0.  1.
         21   -1    0    0  502  503 -0.00000000000E+00 -0.00000000000E+00 -0.11166757220E+02  0.11166757220E+02  0.00000000000E+00 0. -1.
          2    1    1    2  501    0 -0.22903196106E+02  0.13768525799E+02  0.33931280566E+02  0.43190977014E+02  0.00000000000E+00 0.  1.
         -2    1    1    2    0  503  0.22903196106E+02 -0.13768525799E+02  0.20774496706E+02  0.33848314698E+02  0.00000000000E+00 0. -1.
<mgrwt>
<rscale>  2 0.26723186E+02</rscale>
<asrwt>0</asrwt>
<pdfrwt beam="1">  1       21 0.10134236E-01 0.26723186E+02</pdfrwt>
<pdfrwt beam="2">  1       21 0.17179627E-02 0.26723186E+02</pdfrwt>
<totfact> 0.89561731E+07</totfact>
</mgrwt>
</event>
<event>
 4    1  0.2821610E+004  0.2282796E+02  0.7546771E-02  0.1694314E+00
         21   -1    0    0  501  502  0.00000000000E+00  0.00000000000E+00  0.20324476059E+03  0.20324476059E+03  0.00000000000E+00 0. -1.
         21   -1    0    0  502  503 -0.00000000000E+00 -0.00000000000E+00 -0.70288050462E+01  0.70288050462E+01  0.00000000000E+00 0.  1.
          2    1    1    2  501    0 -0.20157602350E+02 -0.10713855935E+02  0.18190259548E+03  0.18332940267E+03  0.00000000000E+00 0. -1.
         -2    1    1    2    0  503  0.20157602350E+02  0.10713855935E+02  0.14313360062E+02  0.26944162963E+02  0.00000000000E+00 0.  1.
<mgrwt>
<rscale>  2 0.22827957E+02</rscale>
<asrwt>0</asrwt>
<pdfrwt beam="1">  1       21 0.31268420E-01 0.22827957E+02</pdfrwt>
<pdfrwt beam="2">  1       21 0.10813548E-02 0.22827957E+02</pdfrwt>
<totfact> 0.24631576E+07</totfact>
</mgrwt>
</event>
<event>
 4    1  0.2821610E+004  0.2183009E+02  0.7546771E-02  0.1711207E+00
         21   -1    0    0  501  502  0.00000000000E+00  0.00000000000E+00  0.10946339563E+02  0.10946339563E+02  0.00000000000E+00 0. -1.
         21   -1    0    0  502  503 -0.00000000000E+00 -0.00000000000E+00 -0.82854895857E+02  0.82854895857E+02  0.00000000000E+00 0.  1.
          2    1    1    2  501    0  0.13808959292E+01 -0.21786370367E+02 -0.36452660210E+01  0.22132346728E+02  0.00000000000E+00 0. -1.
         -2    1    1    2    0  503 -0.13808959292E+01  0.21786370367E+02 -0.68263290273E+02  0.71668888691E+02  0.00000000000E+00 0.  1.
<mgrwt>
<rscale>  2 0.21830089E+02</rscale>
<asrwt>0</asrwt>
<pdfrwt beam="1">  1       21 0.16840523E-02 0.21830089E+02</pdfrwt>
<pdfrwt beam="2">  1       21 0.12746907E-01 0.21830089E+02</pdfrwt>
<totfact> 0.59678797E+07</totfact>
</mgrwt>
</event>
<event>
 4    1  0.2821610E+004  0.2008249E+02  0.7546771E-02  0.1743693E+00
         21   -1    0    0  501  502  0.00000000000E+00  0.00000000000E+00  0.93814486100E+02  0.93814486100E+02  0.00000000000E+00 0. -1.
         21   -1    0    0  502  503 -0.00000000000E+00 -0.00000000000E+00 -0.53666727321E+01  0.53666727321E+01  0.00000000000E+00 0.  1.
          2    1    1    2  501    0  0.66826521587E+01 -0.18938018028E+02  0.66343150427E+02  0.69316087421E+02  0.00000000000E+00 0. -1.
         -2    1    1    2    0  503 -0.66826521587E+01  0.18938018028E+02  0.22104662940E+02  0.29865071411E+02  0.00000000000E+00 0.  1.
<mgrwt>
<rscale>  2 0.20082489E+02</rscale>
<asrwt>0</asrwt>
<pdfrwt beam="1">  1       21 0.14432997E-01 0.20082489E+02</pdfrwt>
<pdfrwt beam="2">  1       21 0.82564203E-03 0.20082489E+02</pdfrwt>
<totfact> 0.13813515E+08</totfact>
</mgrwt>
</event>
<event>
 4    1  0.2821610E+004  0.3450896E+02  0.7546771E-02  0.1553005E+00
         21   -1    0    0  503  502  0.00000000000E+00  0.00000000000E+00  0.34924757245E+01  0.34924757245E+01  0.00000000000E+00 0. -1.
         21   -1    0    0  501  503 -0.00000000000E+00 -0.00000000000E+00 -0.38254714774E+03  0.38254714774E+03  0.00000000000E+00 0.  1.
          2    1    1    2  501    0  0.31537691243E+02 -0.14008660237E+02 -0.25315240942E+03  0.25549366123E+03  0.00000000000E+00 0.  1.
         -2    1    1    2    0  502 -0.31537691243E+02  0.14008660237E+02 -0.12590226259E+03  0.13054596224E+03  0.00000000000E+00 0. -1.
<mgrwt>
<rscale>  2 0.34508963E+02</rscale>
<asrwt>0</asrwt>
<pdfrwt beam="1">  1       21 0.53730408E-03 0.34508963E+02</pdfrwt>
<pdfrwt beam="2">  1       21 0.58853394E-01 0.34508963E+02</pdfrwt>
<totfact> 0.22579601E+07</totfact>
</mgrwt>
</event>
<event>
 4    1  0.2821610E+004  0.2081374E+02  0.7546771E-02  0.1729614E+00
         21   -1    0    0  501  502  0.00000000000E+00  0.00000000000E+00  0.11596612942E+02  0.11596612942E+02  0.00000000000E+00 0. -1.
         21   -1    0    0  502  503 -0.00000000000E+00 -0.00000000000E+00 -0.39887375304E+02  0.39887375304E+02  0.00000000000E+00 0.  1.
          2    1    1    2  501    0 -0.11511449929E+01  0.20781886153E+02 -0.76614675185E+01  0.22179044420E+02  0.00000000000E+00 0. -1.
         -2    1    1    2    0  503  0.11511449929E+01 -0.20781886153E+02 -0.20629294844E+02  0.29304943825E+02  0.00000000000E+00 0.  1.
<mgrwt>
<rscale>  2 0.20813744E+02</rscale>
<asrwt>0</asrwt>
<pdfrwt beam="1">  1       21 0.17840943E-02 0.20813744E+02</pdfrwt>
<pdfrwt beam="2">  1       21 0.61365193E-02 0.20813744E+02</pdfrwt>
<totfact> 0.17843029E+08</totfact>
</mgrwt>
</event>
<event>
 4    1  0.2821610E+004  0.2226802E+02  0.7546771E-02  0.1703658E+00
         21   -1    0    0  501  502  0.00000000000E+00  0.00000000000E+00  0.82865342711E+01  0.82865342711E+01  0.00000000000E+00 0. -1.
         21   -1    0    0  502  503 -0.00000000000E+00 -0.00000000000E+00 -0.10942089215E+03  0.10942089215E+03  0.00000000000E+00 0.  1.
          2    1    1    2  501    0  0.22267803535E+02 -0.98152260728E-01 -0.10950167973E+02  0.24814731245E+02  0.00000000000E+00 0. -1.
         -2    1    1    2    0  503 -0.22267803535E+02  0.98152260728E-01 -0.90184189909E+02  0.92892695179E+02  0.00000000000E+00 0.  1.
<mgrwt>
<rscale>  2 0.22268020E+02</rscale>
<asrwt>0</asrwt>
<pdfrwt beam="1">  1       21 0.12748515E-02 0.22268020E+02</pdfrwt>
<pdfrwt beam="2">  1       21 0.16833982E-01 0.22268020E+02</pdfrwt>
<totfact> 0.57086063E+07</totfact>
</mgrwt>
</event>
<event>
 4    1  0.2821610E+004  0.2349297E+02  0.7546771E-02  0.1683642E+00
         21   -1    0    0  503  502  0.00000000000E+00  0.00000000000E+00  0.15313465273E+01  0.15313465273E+01  0.00000000000E+00 0.  1.
         21   -1    0    0  501  503 -0.00000000000E+00 -0.00000000000E+00 -0.39057199480E+03  0.39057199480E+03  0.00000000000E+00 0. -1.
          2    1    1    2  501    0 -0.23491987495E+02 -0.21454336500E+00 -0.24899787443E+03  0.25010370045E+03  0.00000000000E+00 0. -1.
         -2    1    1    2    0  502  0.23491987495E+02  0.21454336500E+00 -0.14004277384E+03  0.14199964088E+03  0.00000000000E+00 0.  1.
<mgrwt>
<rscale>  2 0.23492967E+02</rscale>
<asrwt>0</asrwt>
<pdfrwt beam="1">  1       21 0.23559215E-03 0.23492967E+02</pdfrwt>
<pdfrwt beam="2">  1       21 0.60087904E-01 0.23492967E+02</pdfrwt>
<totfact> 0.67614439E+07</totfact>
</mgrwt>
</event>
<event>
 4    1  0.2821610E+004  0.2054094E+02  0.7546771E-02  0.1734780E+00
         21   -1    0    0  501  502  0.00000000000E+00  0.00000000000E+00  0.10105878547E+03  0.10105878547E+03  0.00000000000E+00 0.  1.
         21   -1    0    0  502  503 -0.00000000000E+00 -0.00000000000E+00 -0.45919243936E+01  0.45919243936E+01  0.00000000000E+00 0. -1.
          2    1    1    2  501    0  0.16637053522E+02 -0.12047355288E+02  0.64149020280E+02  0.67357457807E+02  0.00000000000E+00 0.  1.
         -2    1    1    2    0  503 -0.16637053522E+02  0.12047355288E+02  0.32317840795E+02  0.38293252056E+02  0.00000000000E+00 0. -1.
<mgrwt>
<rscale>  2 0.20540943E+02</rscale>
<asrwt>0</asrwt>
<pdfrwt beam="1">  1       21 0.15547504E-01 0.20540943E+02</pdfrwt>
<pdfrwt beam="2">  1       21 0.70644998E-03 0.20540943E+02</pdfrwt>
<totfact> 0.15457283E+08</totfact>
</mgrwt>
</event>
<event>
 4    1  0.2821610E+004  0.2507637E+02  0.7546771E-02  0.1659907E+00
         21   -1    0    0  501  502  0.00000000000E+00  0.00000000000E+00  0.75716846911E+01  0.75716846911E+01  0.00000000000E+00 0. -1.
         21   -1    0    0  502  503 -0.00000000000E+00 -0.00000000000E+00 -0.99133168123E+02  0.99133168123E+02  0.00000000000E+00 0.  1.
          2    1    1    2  501    0  0.80873827096E+01  0.23736436769E+02 -0.24290662548E+02  0.34912182352E+02  0.00000000000E+00 0. -1.
         -2    1    1    2    0  503 -0.80873827096E+01 -0.23736436769E+02 -0.67270820884E+02  0.71792670462E+02  0.00000000000E+00 0.  1.
<mgrwt>
<rscale>  2 0.25076367E+02</rscale>
<asrwt>0</asrwt>
<pdfrwt beam="1">  1       21 0.11648745E-02 0.25076367E+02</pdfrwt>
<pdfrwt beam="2">  1       21 0.15251257E-01 0.25076367E+02</pdfrwt>
<totfact> 0.79926049E+07</totfact>
</mgrwt>
</event>
<event>
 4    1  0.2821610E+004  0.2398334E+02  0.7546771E-02  0.1676049E+00
         21   -1    0    0  503  502  0.00000000000E+00  0.00000000000E+00  0.19955814388E+03  0.19955814388E+03  0.00000000000E+00 0. -1.
         21   -1    0    0  501  503 -0.00000000000E+00 -0.00000000000E+00 -0.31310162254E+01  0.31310162254E+01  0.00000000000E+00 0.  1.
          2    1    1    2  501    0 -0.16235189272E+01  0.23928325405E+02  0.12677289874E+03  0.12902158124E+03  0.00000000000E+00 0. -1.
         -2    1    1    2    0  502  0.16235189272E+01 -0.23928325405E+02  0.69654228916E+02  0.73667578868E+02  0.00000000000E+00 0.  1.
<mgrwt>
<rscale>  2 0.23983339E+02</rscale>
<asrwt>0</asrwt>
<pdfrwt beam="1">  1       21 0.30701243E-01 0.23983339E+02</pdfrwt>
<pdfrwt beam="2">  1       21 0.48169496E-03 0.23983339E+02</pdfrwt>
<totfact> 0.85980277E+07</totfact>
</mgrwt>
</event>
<event>
 4    1  0.2821610E+004  0.3148292E+02  0.7546771E-02  0.1582253E+00
         21   -1    0    0  503  502  0.00000000000E+00  0.00000000000E+00  0.81319926166E+01  0.81319926166E+01  0.00000000000E+00 0.  1.
         21   -1    0    0  501  503 -0.00000000000E+00 -0.00000000000E+00 -0.12199592446E+03  0.12199592446E+03  0.00000000000E+00 0. -1.
          2    1    1    2  501    0  0.30425890952E+02  0.80894596387E+01 -0.54976883673E+02  0.63353231456E+02  0.00000000000E+00 0.  1.
         -2    1    1    2    0  502 -0.30425890952E+02 -0.80894596387E+01 -0.58887048166E+02  0.66774685617E+02  0.00000000000E+00 0. -1.
<mgrwt>
<rscale>  2 0.31482919E+02</rscale>
<asrwt>0</asrwt>
<pdfrwt beam="1">  1       21 0.12510759E-02 0.31482919E+02</pdfrwt>
<pdfrwt beam="2">  1       21 0.18768602E-01 0.31482919E+02</pdfrwt>
<totfact> 0.52768492E+07</totfact>
</mgrwt>
</event>
<event>
 4    1  0.2821610E+004  0.2045788E+02  0.7546771E-02  0.1736373E+00
         21   -1    0    0  501  502  0.00000000000E+00  0.00000000000E+00  0.16793893497E+01  0.16793893497E+01  0.00000000000E+00 0. -1.
         21   -1    0    0  502  503 -0.00000000000E+00 -0.00000000000E+00 -0.35280060120E+03  0.35280060120E+03  0.00000000000E+00 0.  1.
          2    1    1    2  501    0 -0.97791794791E+01 -0.17969215078E+02 -0.79520699388E+02  0.82110088741E+02  0.00000000000E+00 0. -1.
         -2    1    1    2    0  503  0.97791794791E+01  0.17969215078E+02 -0.27160051247E+03  0.27236990181E+03  0.00000000000E+00 0.  1.
<mgrwt>
<rscale>  2 0.20457885E+02</rscale>
<asrwt>0</asrwt>
<pdfrwt beam="1">  1       21 0.25836727E-03 0.20457885E+02</pdfrwt>
<pdfrwt beam="2">  1       21 0.54277083E-01 0.20457885E+02</pdfrwt>
<totfact> 0.69902240E+07</totfact>
</mgrwt>
</event>
<event>
 4    1  0.2821610E+004  0.2124910E+02  0.7546771E-02  0.1721571E+00
         21   -1    0    0  503  502  0.00000000000E+00  0.00000000000E+00  0.16222843032E+01  0.16222843032E+01  0.00000000000E+00 0.  1.
         21   -1    0    0  501  503 -0.00000000000E+00 -0.00000000000E+00 -0.90789575110E+03  0.90789575110E+03  0.00000000000E+00 0. -1.
          2    1    1    2  501    0 -0.31307297541E+01 -0.21017205187E+02 -0.83182788023E+03  0.83209924090E+03  0.00000000000E+00 0. -1.
         -2    1    1    2    0  502  0.31307297541E+01  0.21017205187E+02 -0.74445586571E+02  0.77418794505E+02  0.00000000000E+00 0.  1.
<mgrwt>
<rscale>  2 0.21249103E+02</rscale>
<asrwt>0</asrwt>
<pdfrwt beam="1">  1       21 0.24958243E-03 0.21249103E+02</pdfrwt>
<pdfrwt beam="2">  1       21 0.13967614E+00 0.21249103E+02</pdfrwt>
<totfact> 0.99169495E+06</totfact>
</mgrwt>
</event>
<event>
 4    1  0.2821610E+004  0.2218541E+02  0.7546771E-02  0.1705065E+00
         21   -1    0    0  501  502  0.00000000000E+00  0.00000000000E+00  0.47833591722E+01  0.47833591722E+01  0.00000000000E+00 0.  1.
         21   -1    0    0  502  503 -0.00000000000E+00 -0.00000000000E+00 -0.17892024515E+03  0.17892024515E+03  0.00000000000E+00 0. -1.
          2    1    1    2  501    0 -0.15373789933E+02  0.15994974635E+02 -0.27195370332E+02  0.35096734862E+02  0.00000000000E+00 0.  1.
         -2    1    1    2    0  503  0.15373789933E+02 -0.15994974635E+02 -0.14694151564E+03  0.14860686946E+03  0.00000000000E+00 0. -1.
<mgrwt>
<rscale>  2 0.22185415E+02</rscale>
<asrwt>0</asrwt>
<pdfrwt beam="1">  1       21 0.73590141E-03 0.22185415E+02</pdfrwt>
<pdfrwt beam="2">  1       21 0.27526191E-01 0.22185415E+02</pdfrwt>
<totfact> 0.54825296E+07</totfact>
</mgrwt>
</event>
<event>
 4    1  0.2821610E+004  0.2173626E+02  0.7546771E-02  0.1712854E+00
         21   -1    0    0  503  502  0.00000000000E+00  0.00000000000E+00  0.22189165545E+02  0.22189165545E+02  0.00000000000E+00 0.  1.
         21   -1    0    0  501  503 -0.00000000000E+00 -0.00000000000E+00 -0.23324296898E+02  0.23324296898E+02  0.00000000000E+00 0. -1.
          2    1    1    2  501    0  0.21204727627E+02 -0.47774946686E+01 -0.72839498055E+01  0.22924241619E+02  0.00000000000E+00 0. -1.
         -2    1    1    2    0  502 -0.21204727627E+02  0.47774946686E+01  0.61488184517E+01  0.22589220823E+02  0.00000000000E+00 0.  1.
<mgrwt>
<rscale>  2 0.21736258E+02</rscale>
<asrwt>0</asrwt>
<pdfrwt beam="1">  1       21 0.34137178E-02 0.21736258E+02</pdfrwt>
<pdfrwt beam="2">  1       21 0.35883534E-02 0.21736258E+02</pdfrwt>
<totfact> 0.15549768E+08</totfact>
</mgrwt>
</event>
<event>
 4    1  0.2821610E+004  0.2525447E+02  0.7546771E-02  0.1657373E+00
         21   -1    0    0  503  502  0.00000000000E+00  0.00000000000E+00  0.47014720941E+01  0.47014720941E+01  0.00000000000E+00 0.  1.
         21   -1    0    0  501  503 -0.00000000000E+00 -0.00000000000E+00 -0.19474496615E+03  0.19474496615E+03  0.00000000000E+00 0. -1.
          2    1    1    2  501    0 -0.22111469861E+02  0.12201283177E+02 -0.14995205779E+03  0.15206382886E+03  0.00000000000E+00 0. -1.
         -2    1    1    2    0  502  0.22111469861E+02 -0.12201283177E+02 -0.40091436257E+02  0.47382609381E+02  0.00000000000E+00 0.  1.
<mgrwt>
<rscale>  2 0.25254473E+02</rscale>
<asrwt>0</asrwt>
<pdfrwt beam="1">  1       21 0.72330346E-03 0.25254473E+02</pdfrwt>
<pdfrwt beam="2">  1       21 0.29960761E-01 0.25254473E+02</pdfrwt>
<totfact> 0.49786944E+07</totfact>
</mgrwt>
</event>
<event>
 4    1  0.2821610E+004  0.2260262E+02  0.7546771E-02  0.1698034E+00
         21   -1    0    0  501  502  0.00000000000E+00  0.00000000000E+00  0.22377259252E+02  0.22377259252E+02  0.00000000000E+00 0.  1.
         21   -1    0    0  502  503 -0.00000000000E+00 -0.00000000000E+00 -0.25391331557E+02  0.25391331557E+02  0.00000000000E+00 0. -1.
          2    1    1    2  501    0 -0.16655957957E+02  0.15279308802E+02  0.60784286264E+01  0.23405672549E+02  0.00000000000E+00 0.  1.
         -2    1    1    2    0  503  0.16655957957E+02 -0.15279308802E+02 -0.90925009318E+01  0.24362918259E+02  0.00000000000E+00 0. -1.
<mgrwt>
<rscale>  2 0.22602615E+02</rscale>
<asrwt>0</asrwt>
<pdfrwt beam="1">  1       21 0.34426553E-02 0.22602615E+02</pdfrwt>
<pdfrwt beam="2">  1       21 0.39063587E-02 0.22602615E+02</pdfrwt>
<totfact> 0.13593188E+08</totfact>
</mgrwt>
</event>
<event>
 4    1  0.2821610E+004  0.2168195E+02  0.7546771E-02  0.1713811E+00
         21   -1    0    0  503  502  0.00000000000E+00  0.00000000000E+00  0.25327897008E+01  0.25327897008E+01  0.00000000000E+00 0.  1.
         21   -1    0    0  501  503 -0.00000000000E+00 -0.00000000000E+00 -0.18600763615E+03  0.18600763615E+03  0.00000000000E+00 0. -1.
          2    1    1    2  501    0  0.20971535011E+02  0.55047014462E+01 -0.96104888290E+02  0.98520335830E+02  0.00000000000E+00 0. -1.
         -2    1    1    2    0  502 -0.20971535011E+02 -0.55047014462E+01 -0.87369958162E+02  0.90020090024E+02  0.00000000000E+00 0.  1.
<mgrwt>
<rscale>  2 0.21681951E+02</rscale>
<asrwt>0</asrwt>
<pdfrwt beam="1">  1       21 0.38965997E-03 0.21681951E+02</pdfrwt>
<pdfrwt beam="2">  1       21 0.28616558E-01 0.21681951E+02</pdfrwt>
<totfact> 0.12978643E+08</totfact>
</mgrwt>
</event>
<event>
 4    1  0.2821610E+004  0.2784923E+02  0.7546771E-02  0.1623156E+00
         21   -1    0    0  501  502  0.00000000000E+00  0.00000000000E+00  0.48800453762E+03  0.48800453762E+03  0.00000000000E+00 0. -1.
         21   -1    0    0  502  503 -0.00000000000E+00 -0.00000000000E+00 -0.17914112725E+01  0.17914112725E+01  0.00000000000E+00 0.  1.
          2    1    1    2  501    0  0.20568882383E+01  0.27773168170E+02  0.32536792860E+03  0.32655760384E+03  0.00000000000E+00 0. -1.
         -2    1    1    2    0  503 -0.20568882383E+01 -0.27773168170E+02  0.16084519775E+03  0.16323834506E+03  0.00000000000E+00 0.  1.
<mgrwt>
<rscale>  2 0.27849231E+02</rscale>
<asrwt>0</asrwt>
<pdfrwt beam="1">  1       21 0.75077516E-01 0.27849231E+02</pdfrwt>
<pdfrwt beam="2">  1       21 0.27560212E-03 0.27849231E+02</pdfrwt>
<totfact> 0.35376627E+07</totfact>
</mgrwt>
</event>
<event>
 4    1  0.2821610E+004  0.2728282E+02  0.7546771E-02  0.1630224E+00
         21   -1    0    0  501  502  0.00000000000E+00  0.00000000000E+00  0.25070029590E+03  0.25070029590E+03  0.00000000000E+00 0. -1.
         21   -1    0    0  502  503 -0.00000000000E+00 -0.00000000000E+00 -0.66254638617E+01  0.66254638617E+01  0.00000000000E+00 0.  1.
          2    1    1    2  501    0  0.22982299385E+02  0.14702598669E+02  0.21761812403E+03  0.21932168246E+03  0.00000000000E+00 0. -1.
         -2    1    1    2    0  503 -0.22982299385E+02 -0.14702598669E+02  0.26456708011E+02  0.38004077301E+02  0.00000000000E+00 0.  1.
<mgrwt>
<rscale>  2 0.27282824E+02</rscale>
<asrwt>0</asrwt>
<pdfrwt beam="1">  1       21 0.38569269E-01 0.27282824E+02</pdfrwt>
<pdfrwt beam="2">  1       21 0.10193023E-02 0.27282824E+02</pdfrwt>
<totfact> 0.18904812E+07</totfact>
</mgrwt>
</event>
<event>
 4    1  0.2821610E+004  0.4192063E+02  0.7546771E-02  0.1494535E+00
         21   -1    0    0  503  502  0.00000000000E+00  0.00000000000E+00  0.30198462985E+03  0.30198462985E+03  0.00000000000E+00 0.  1.
         21   -1    0    0  501  503 -0.00000000000E+00 -0.00000000000E+00 -0.92008570022E+01  0.92008570022E+01  0.00000000000E+00 0. -1.
          2    1    1    2  501    0  0.99210579448E+01 -0.40729739965E+02  0.52065420251E+02  0.66844200154E+02  0.00000000000E+00 0. -1.
         -2    1    1    2    0  502 -0.99210579448E+01  0.40729739965E+02  0.24071835260E+03  0.24434128670E+03  0.00000000000E+00 0.  1.
<mgrwt>
<rscale>  2 0.41920629E+02</rscale>
<asrwt>0</asrwt>
<pdfrwt beam="1">  1       21 0.46459166E-01 0.41920629E+02</pdfrwt>
<pdfrwt beam="2">  1       21 0.14155167E-02 0.41920629E+02</pdfrwt>
<totfact> 0.85226335E+06</totfact>
</mgrwt>
</event>
<event>
 4    1  0.2821610E+004  0.2011386E+02  0.7546771E-02  0.1743073E+00
         21   -1    0    0  503  502  0.00000000000E+00  0.00000000000E+00  0.47004575725E+02  0.47004575725E+02  0.00000000000E+00 0. -1.
         21   -1    0    0  501  503 -0.00000000000E+00 -0.00000000000E+00 -0.92008558527E+01  0.92008558527E+01  0.00000000000E+00 0.  1.
          2    1    1    2  501    0 -0.20104127673E+02  0.62549799002E+00  0.11762094819E+02  0.23300516555E+02  0.00000000000E+00 0. -1.
         -2    1    1    2    0  502  0.20104127673E+02 -0.62549799002E+00  0.26041625054E+02  0.32904915023E+02  0.00000000000E+00 0.  1.
<mgrwt>
<rscale>  2 0.20113856E+02</rscale>
<asrwt>0</asrwt>
<pdfrwt beam="1">  1       21 0.72314730E-02 0.20113856E+02</pdfrwt>
<pdfrwt beam="2">  1       21 0.14155163E-02 0.20113856E+02</pdfrwt>
<totfact> 0.19250939E+08</totfact>
</mgrwt>
</event>
<event>
 4    1  0.2821610E+004  0.9837533E+02  0.7546771E-02  0.1283750E+00
         21   -1    0    0  501  502  0.00000000000E+00  0.00000000000E+00  0.64332662790E+03  0.64332662790E+03  0.00000000000E+00 0. -1.
         21   -1    0    0  502  503 -0.00000000000E+00 -0.00000000000E+00 -0.17480465790E+02  0.17480465790E+02  0.00000000000E+00 0.  1.
          2    1    1    2  501    0  0.93911200460E+02 -0.29298342611E+02  0.43629534224E+03  0.44724862449E+03  0.00000000000E+00 0.  1.
         -2    1    1    2    0  503 -0.93911200460E+02  0.29298342611E+02  0.18955081987E+03  0.21355846920E+03  0.00000000000E+00 0. -1.
<mgrwt>
<rscale>  2 0.98375335E+02</rscale>
<asrwt>0</asrwt>
<pdfrwt beam="1">  1       21 0.98973309E-01 0.98375335E+02</pdfrwt>
<pdfrwt beam="2">  1       21 0.26893029E-02 0.98375335E+02</pdfrwt>
<totfact> 0.64535959E+05</totfact>
</mgrwt>
</event>
<event>
 4    1  0.2821610E+004  0.2186004E+02  0.7546771E-02  0.1710684E+00
         21   -1    0    0  503  502  0.00000000000E+00  0.00000000000E+00  0.23683238141E+02  0.23683238141E+02  0.00000000000E+00 0.  1.
         21   -1    0    0  501  503 -0.00000000000E+00 -0.00000000000E+00 -0.28058168015E+02  0.28058168015E+02  0.00000000000E+00 0. -1.
          2    1    1    2  501    0  0.12597544607E+02 -0.17865135612E+02 -0.15898449069E+02  0.27030018190E+02  0.00000000000E+00 0. -1.
         -2    1    1    2    0  502 -0.12597544607E+02  0.17865135612E+02  0.11523519195E+02  0.24711387966E+02  0.00000000000E+00 0.  1.
<mgrwt>
<rscale>  2 0.21860037E+02</rscale>
<asrwt>0</asrwt>
<pdfrwt beam="1">  1       21 0.36435751E-02 0.21860037E+02</pdfrwt>
<pdfrwt beam="2">  1       21 0.43166412E-02 0.21860037E+02</pdfrwt>
<totfact> 0.10522041E+08</totfact>
</mgrwt>
</event>
<event>
 4    1  0.2821610E+004  0.2061667E+02  0.7546771E-02  0.1733336E+00
         21   -1    0    0  503  502  0.00000000000E+00  0.00000000000E+00  0.57728153326E+01  0.57728153326E+01  0.00000000000E+00 0. -1.
         21   -1    0    0  501  503 -0.00000000000E+00 -0.00000000000E+00 -0.86167214878E+02  0.86167214878E+02  0.00000000000E+00 0.  1.
          2    1    1    2  501    0 -0.13291983432E+02  0.15759772153E+02 -0.57732758475E+02  0.61303496173E+02  0.00000000000E+00 0.  1.
         -2    1    1    2    0  502  0.13291983432E+02 -0.15759772153E+02 -0.22661641071E+02  0.30636534038E+02  0.00000000000E+00 0. -1.
<mgrwt>
<rscale>  2 0.20616674E+02</rscale>
<asrwt>0</asrwt>
<pdfrwt beam="1">  1       21 0.88812540E-03 0.20616674E+02</pdfrwt>
<pdfrwt beam="2">  1       21 0.13256495E-01 0.20616674E+02</pdfrwt>
<totfact> 0.14414274E+08</totfact>
</mgrwt>
</event>
<event>
 4    1  0.2821610E+004  0.2576845E+02  0.7546771E-02  0.1650203E+00
         21   -1    0    0  503  502  0.00000000000E+00  0.00000000000E+00  0.28255469658E+03  0.28255469658E+03  0.00000000000E+00 0.  1.
         21   -1    0    0  501  503 -0.00000000000E+00 -0.00000000000E+00 -0.38114026742E+01  0.38114026742E+01  0.00000000000E+00 0. -1.
          2    1    1    2  501    0 -0.22778702304E+02  0.12047567866E+02  0.50711371975E+02  0.56882830605E+02  0.00000000000E+00 0. -1.
         -2    1    1    2    0  502  0.22778702304E+02 -0.12047567866E+02  0.22803192193E+03  0.22948326865E+03  0.00000000000E+00 0.  1.
<mgrwt>
<rscale>  2 0.25768453E+02</rscale>
<asrwt>0</asrwt>
<pdfrwt beam="1">  1       21 0.43469937E-01 0.25768453E+02</pdfrwt>
<pdfrwt beam="2">  1       21 0.58636986E-03 0.25768453E+02</pdfrwt>
<totfact> 0.34103444E+07</totfact>
</mgrwt>
</event>
<event>
 4    1  0.2821610E+004  0.2781151E+02  0.7546771E-02  0.1623621E+00
         21   -1    0    0  501  502  0.00000000000E+00  0.00000000000E+00  0.62134007815E+01  0.62134007815E+01  0.00000000000E+00 0. -1.
         21   -1    0    0  502  503 -0.00000000000E+00 -0.00000000000E+00 -0.16826418514E+03  0.16826418514E+03  0.00000000000E+00 0.  1.
          2    1    1    2  501    0 -0.12883823242E+02  0.24647254058E+02 -0.36527055283E+02  0.45909757150E+02  0.00000000000E+00 0. -1.
         -2    1    1    2    0  503  0.12883823242E+02 -0.24647254058E+02 -0.12552372907E+03  0.12856782877E+03  0.00000000000E+00 0.  1.
<mgrwt>
<rscale>  2 0.27811509E+02</rscale>
<asrwt>0</asrwt>
<pdfrwt beam="1">  1       21 0.95590780E-03 0.27811509E+02</pdfrwt>
<pdfrwt beam="2">  1       21 0.25886798E-01 0.27811509E+02</pdfrwt>
<totfact> 0.43631857E+07</totfact>
</mgrwt>
</event>
<event>
 4    1  0.2821610E+004  0.2520018E+02  0.7546771E-02  0.1658143E+00
         21   -1    0    0  501  502  0.00000000000E+00  0.00000000000E+00  0.92406509916E+02  0.92406509916E+02  0.00000000000E+00 0. -1.
         21   -1    0    0  502  503 -0.00000000000E+00 -0.00000000000E+00 -0.15642232753E+02  0.15642232753E+02  0.00000000000E+00 0.  1.
          2    1    1    2  501    0  0.10575794944E+01 -0.25177983279E+02  0.78833895994E+02  0.82763714718E+02  0.00000000000E+00 0. -1.
         -2    1    1    2    0  503 -0.10575794944E+01  0.25177983279E+02 -0.20696188307E+01  0.25285027951E+02  0.00000000000E+00 0.  1.
<mgrwt>
<rscale>  2 0.25200185E+02</rscale>
<asrwt>0</asrwt>
<pdfrwt beam="1">  1       21 0.14216386E-01 0.25200185E+02</pdfrwt>
<pdfrwt beam="2">  1       21 0.24064974E-02 0.25200185E+02</pdfrwt>
<totfact> 0.29713560E+07</totfact>
</mgrwt>
</event>
<event>
 4    1  0.2821610E+004  0.3980065E+02  0.7546771E-02  0.1509684E+00
         21   -1    0    0  501  502  0.00000000000E+00  0.00000000000E+00  0.10826800246E+02  0.10826800246E+02  0.00000000000E+00 0. -1.
         21   -1    0    0  502  503 -0.00000000000E+00 -0.00000000000E+00 -0.14923244521E+03  0.14923244521E+03  0.00000000000E+00 0.  1.
          2    1    1    2  501    0  0.42829788240E+01  0.39569531618E+02 -0.80398160243E+02  0.89710400236E+02  0.00000000000E+00 0.  1.
         -2    1    1    2    0  503 -0.42829788240E+01 -0.39569531618E+02 -0.58007484716E+02  0.70348845216E+02  0.00000000000E+00 0. -1.
<mgrwt>
<rscale>  2 0.39800650E+02</rscale>
<asrwt>0</asrwt>
<pdfrwt beam="1">  1       21 0.16656615E-02 0.39800650E+02</pdfrwt>
<pdfrwt beam="2">  1       21 0.22958839E-01 0.39800650E+02</pdfrwt>
<totfact> 0.24771560E+07</totfact>
</mgrwt>
</event>
<event>
 4    1  0.2821610E+004  0.2387048E+02  0.7546771E-02  0.1677776E+00
         21   -1    0    0  501  502  0.00000000000E+00  0.00000000000E+00  0.21507970541E+03  0.21507970541E+03  0.00000000000E+00 0.  1.
         21   -1    0    0  502  503 -0.00000000000E+00 -0.00000000000E+00 -0.10358207417E+02  0.10358207417E+02  0.00000000000E+00 0. -1.
          2    1    1    2  501    0  0.23504533402E+02 -0.41637633669E+01  0.19960243208E+03  0.20102470223E+03  0.00000000000E+00 0.  1.
         -2    1    1    2    0  503 -0.23504533402E+02  0.41637633669E+01  0.51190659176E+01  0.24413210598E+02  0.00000000000E+00 0. -1.
<mgrwt>
<rscale>  2 0.23870484E+02</rscale>
<asrwt>0</asrwt>
<pdfrwt beam="1">  1       21 0.33089182E-01 0.23870484E+02</pdfrwt>
<pdfrwt beam="2">  1       21 0.15935705E-02 0.23870484E+02</pdfrwt>
<totfact> 0.12454324E+07</totfact>
</mgrwt>
</event>
<event>
 4    1  0.2821610E+004  0.2001027E+02  0.7546771E-02  0.1745124E+00
         21   -1    0    0  503  502  0.00000000000E+00  0.00000000000E+00  0.43437952181E+01  0.43437952181E+01  0.00000000000E+00 0.  1.
         21   -1    0    0  501  503 -0.00000000000E+00 -0.00000000000E+00 -0.27230644996E+03  0.27230644996E+03  0.00000000000E+00 0. -1.
          2    1    1    2  501    0 -0.73005219607E+00  0.19996948230E+02 -0.24648349237E+03  0.24729440537E+03  0.00000000000E+00 0. -1.
         -2    1    1    2    0  502  0.73005219607E+00 -0.19996948230E+02 -0.21479162365E+02  0.29355839805E+02  0.00000000000E+00 0.  1.
<mgrwt>
<rscale>  2 0.20010270E+02</rscale>
<asrwt>0</asrwt>
<pdfrwt beam="1">  1       21 0.66827600E-03 0.20010270E+02</pdfrwt>
<pdfrwt beam="2">  1       21 0.41893312E-01 0.20010270E+02</pdfrwt>
<totfact> 0.28488028E+07</totfact>
</mgrwt>
</event>
<event>
 4    1  0.2821610E+004  0.2194917E+02  0.7546771E-02  0.1709133E+00
         21   -1    0    0  503  502  0.00000000000E+00  0.00000000000E+00  0.10788304024E+03  0.10788304024E+03  0.00000000000E+00 0. -1.
         21   -1    0    0  501  503 -0.00000000000E+00 -0.00000000000E+00 -0.16671528520E+02  0.16671528520E+02  0.00000000000E+00 0.  1.
          2    1    1    2  501    0  0.21724589933E+02  0.31318188863E+01 -0.76819195931E+01  0.23254633645E+02  0.00000000000E+00 0.  1.
         -2    1    1    2    0  502 -0.21724589933E+02 -0.31318188863E+01  0.98893431311E+02  0.10129993511E+03  0.00000000000E+00 0. -1.
<mgrwt>
<rscale>  2 0.21949171E+02</rscale>
<asrwt>0</asrwt>
<pdfrwt beam="1">  1       21 0.16597390E-01 0.21949171E+02</pdfrwt>
<pdfrwt beam="2">  1       21 0.25648506E-02 0.21949171E+02</pdfrwt>
<totfact> 0.20038463E+07</totfact>
</mgrwt>
</event>
<event>
 4    1  0.2821610E+004  0.2230176E+02  0.7546771E-02  0.1703085E+00
         21   -1    0    0  501  502  0.00000000000E+00  0.00000000000E+00  0.24003383054E+02  0.24003383054E+02  0.00000000000E+00 0.  1.
         21   -1    0    0  502  503 -0.00000000000E+00 -0.00000000000E+00 -0.53803502556E+02  0.53803502556E+02  0.00000000000E+00 0. -1.
          2    1    1    2  501    0  0.18464840659E+01 -0.22225185693E+02  0.15605816413E+02  0.27219659962E+02  0.00000000000E+00 0.  1.
         -2    1    1    2    0  503 -0.18464840659E+01  0.22225185693E+02 -0.45405935915E+02  0.50587225648E+02  0.00000000000E+00 0. -1.
<mgrwt>
<rscale>  2 0.22301757E+02</rscale>
<asrwt>0</asrwt>
<pdfrwt beam="1">  1       21 0.36928282E-02 0.22301757E+02</pdfrwt>
<pdfrwt beam="2">  1       21 0.82774619E-02 0.22301757E+02</pdfrwt>
<totfact> 0.36456579E+07</totfact>
</mgrwt>
</event>
<event>
 4    1  0.2821610E+004  0.2315160E+02  0.7546771E-02  0.1689064E+00
         21   -1    0    0  503  502  0.00000000000E+00  0.00000000000E+00  0.94927073990E+02  0.94927073990E+02  0.00000000000E+00 0.  1.
         21   -1    0    0  501  503 -0.00000000000E+00 -0.00000000000E+00 -0.77298794261E+01  0.77298794261E+01  0.00000000000E+00 0. -1.
          2    1    1    2  501    0 -0.46089225964E+01  0.22688203187E+02  0.16950508032E+02  0.28693491490E+02  0.00000000000E+00 0. -1.
         -2    1    1    2    0  502  0.46089225964E+01 -0.22688203187E+02  0.70246686533E+02  0.73963461926E+02  0.00000000000E+00 0.  1.
<mgrwt>
<rscale>  2 0.23151603E+02</rscale>
<asrwt>0</asrwt>
<pdfrwt beam="1">  1       21 0.14604164E-01 0.23151603E+02</pdfrwt>
<pdfrwt beam="2">  1       21 0.11892123E-02 0.23151603E+02</pdfrwt>
<totfact> 0.81664764E+07</totfact>
</mgrwt>
</event>
<event>
 4    1  0.2821610E+004  0.2294279E+02  0.7546771E-02  0.1692439E+00
         21   -1    0    0  501  502  0.00000000000E+00  0.00000000000E+00  0.29014008208E+03  0.29014008208E+03  0.00000000000E+00 0. -1.
         21   -1    0    0  502  503 -0.00000000000E+00 -0.00000000000E+00 -0.18147906557E+01  0.18147906557E+01  0.00000000000E+00 0.  1.
          2    1    1    2  501    0 -0.18173757979E+02 -0.14003078934E+02  0.14679954883E+03  0.14858155752E+03  0.00000000000E+00 0. -1.
         -2    1    1    2    0  503  0.18173757979E+02  0.14003078934E+02  0.14152574259E+03  0.14337331521E+03  0.00000000000E+00 0.  1.
<mgrwt>
<rscale>  2 0.22942792E+02</rscale>
<asrwt>0</asrwt>
<pdfrwt beam="1">  1       21 0.44636899E-01 0.22942792E+02</pdfrwt>
<pdfrwt beam="2">  1       21 0.27919879E-03 0.22942792E+02</pdfrwt>
<totfact> 0.93922615E+07</totfact>
</mgrwt>
</event>
<event>
 4    1  0.2821610E+004  0.4139218E+02  0.7546771E-02  0.1498209E+00
         21   -1    0    0  503  502  0.00000000000E+00  0.00000000000E+00  0.13034983721E+04  0.13034983721E+04  0.00000000000E+00 0.  1.
         21   -1    0    0  501  503 -0.00000000000E+00 -0.00000000000E+00 -0.22390450639E+01  0.22390450639E+01  0.00000000000E+00 0. -1.
          2    1    1    2  501    0  0.18607153199E+02 -0.36974128237E+02  0.23108032903E+03  0.23475823899E+03  0.00000000000E+00 0. -1.
         -2    1    1    2    0  502 -0.18607153199E+02  0.36974128237E+02  0.10701789980E+04  0.10709791782E+04  0.00000000000E+00 0.  1.
<mgrwt>
<rscale>  2 0.41392177E+02</rscale>
<asrwt>0</asrwt>
<pdfrwt beam="1">  1       21 0.20053760E+00 0.41392177E+02</pdfrwt>
<pdfrwt beam="2">  1       21 0.34446951E-03 0.41392177E+02</pdfrwt>
<totfact> 0.26703766E+06</totfact>
</mgrwt>
</event>
<event>
 4    1  0.2821610E+004  0.2047297E+02  0.7546771E-02  0.1736083E+00
         21   -1    0    0  501  502  0.00000000000E+00  0.00000000000E+00  0.15529039295E+03  0.15529039295E+03  0.00000000000E+00 0.  1.
         21   -1    0    0  502  503 -0.00000000000E+00 -0.00000000000E+00 -0.12195533397E+02  0.12195533397E+02  0.00000000000E+00 0. -1.
          2    1    1    2  501    0  0.27774656619E+01 -0.20283693074E+02  0.14544470912E+03  0.14687854143E+03  0.00000000000E+00 0.  1.
         -2    1    1    2    0  503 -0.27774656619E+01  0.20283693074E+02 -0.23498495690E+01  0.20607384920E+02  0.00000000000E+00 0. -1.
<mgrwt>
<rscale>  2 0.20472970E+02</rscale>
<asrwt>0</asrwt>
<pdfrwt beam="1">  1       21 0.23890828E-01 0.20472970E+02</pdfrwt>
<pdfrwt beam="2">  1       21 0.18762360E-02 0.20472970E+02</pdfrwt>
<totfact> 0.16927792E+07</totfact>
</mgrwt>
</event>
<event>
 4    1  0.2821610E+004  0.2002966E+02  0.7546771E-02  0.1744739E+00
         21   -1    0    0  503  502  0.00000000000E+00  0.00000000000E+00  0.89350748490E+01  0.89350748490E+01  0.00000000000E+00 0. -1.
         21   -1    0    0  501  503 -0.00000000000E+00 -0.00000000000E+00 -0.59712476361E+02  0.59712476361E+02  0.00000000000E+00 0.  1.
          2    1    1    2  501    0  0.73059228756E+01 -0.18649683426E+02 -0.42483834717E+02  0.46968749326E+02  0.00000000000E+00 0. -1.
         -2    1    1    2    0  502 -0.73059228756E+01  0.18649683426E+02 -0.82935667953E+01  0.21678801885E+02  0.00000000000E+00 0.  1.
<mgrwt>
<rscale>  2 0.20029658E+02</rscale>
<asrwt>0</asrwt>
<pdfrwt beam="1">  1       21 0.13746269E-02 0.20029658E+02</pdfrwt>
<pdfrwt beam="2">  1       21 0.91865349E-02 0.20029658E+02</pdfrwt>
<totfact> 0.13622601E+08</totfact>
</mgrwt>
</event>
<event>
 4    1  0.2821610E+004  0.3383129E+02  0.7546771E-02  0.1559231E+00
         21   -1    0    0  503  502  0.00000000000E+00  0.00000000000E+00  0.12980841468E+03  0.12980841468E+03  0.00000000000E+00 0.  1.
         21   -1    0    0  501  503 -0.00000000000E+00 -0.00000000000E+00 -0.12356235241E+02  0.12356235241E+02  0.00000000000E+00 0. -1.
          2    1    1    2  501    0  0.33802494615E+02 -0.13956511520E+01  0.20684699084E+02  0.39653666420E+02  0.00000000000E+00 0. -1.
         -2    1    1    2    0  502 -0.33802494615E+02  0.13956511520E+01  0.96767480359E+02  0.10251098351E+03  0.00000000000E+00 0.  1.
<mgrwt>
<rscale>  2 0.33831294E+02</rscale>
<asrwt>0</asrwt>
<pdfrwt beam="1">  1       21 0.19970524E-01 0.33831294E+02</pdfrwt>
<pdfrwt beam="2">  1       21 0.19009594E-02 0.33831294E+02</pdfrwt>
<totfact> 0.25184966E+07</totfact>
</mgrwt>
</event>
<event>
 4    1  0.2821610E+004  0.2151734E+02  0.7546771E-02  0.1716736E+00
         21   -1    0    0  501  502  0.00000000000E+00  0.00000000000E+00  0.18333172513E+03  0.18333172513E+03  0.00000000000E+00 0. -1.
         21   -1    0    0  502  503 -0.00000000000E+00 -0.00000000000E+00 -0.42191941648E+01  0.42191941648E+01  0.00000000000E+00 0.  1.
          2    1    1    2  501    0 -0.21493423853E+02 -0.10142386256E+01  0.14897149261E+03  0.15051744603E+03  0.00000000000E+00 0. -1.
         -2    1    1    2    0  503  0.21493423853E+02  0.10142386256E+01  0.30141038354E+02  0.37033473263E+02  0.00000000000E+00 0.  1.
<mgrwt>
<rscale>  2 0.21517341E+02</rscale>
<asrwt>0</asrwt>
<pdfrwt beam="1">  1       21 0.28204875E-01 0.21517341E+02</pdfrwt>
<pdfrwt beam="2">  1       21 0.64910694E-03 0.21517341E+02</pdfrwt>
<totfact> 0.62725313E+07</totfact>
</mgrwt>
</event>
<event>
 4    1  0.2821610E+004  0.2874300E+02  0.7546771E-02  0.1612414E+00
         21   -1    0    0  501  502  0.00000000000E+00  0.00000000000E+00  0.31442429613E+02  0.31442429613E+02  0.00000000000E+00 0. -1.
         21   -1    0    0  502  503 -0.00000000000E+00 -0.00000000000E+00 -0.26556361948E+02  0.26556361948E+02  0.00000000000E+00 0.  1.
          2    1    1    2  501    0  0.28229093746E+02 -0.54109251985E+01  0.54262970308E+01  0.29250718704E+02  0.00000000000E+00 0.  1.
         -2    1    1    2    0  503 -0.28229093746E+02  0.54109251985E+01 -0.54022936592E+00  0.28748072857E+02  0.00000000000E+00 0. -1.
<mgrwt>
<rscale>  2 0.28742996E+02</rscale>
<asrwt>0</asrwt>
<pdfrwt beam="1">  1       21 0.48372969E-02 0.28742996E+02</pdfrwt>
<pdfrwt beam="2">  1       21 0.40855942E-02 0.28742996E+02</pdfrwt>
<totfact> 0.78898049E+07</totfact>
</mgrwt>
</event>
<event>
 4    1  0.2821610E+004  0.2093169E+02  0.7546771E-02  0.1727411E+00
         21   -1    0    0  501  502  0.00000000000E+00  0.00000000000E+00  0.11715458687E+03  0.11715458687E+03  0.00000000000E+00 0. -1.
         21   -1    0    0  502  503 -0.00000000000E+00 -0.00000000000E+00 -0.86011951166E+01  0.86011951166E+01  0.00000000000E+00 0.  1.
          2    1    1    2  501    0  0.20326305117E+02  0.49977068071E+01  0.10154811436E+03  0.10368295561E+03  0.00000000000E+00 0. -1.
         -2    1    1    2    0  503 -0.20326305117E+02 -0.49977068071E+01  0.70052773922E+01  0.22072826380E+02  0.00000000000E+00 0.  1.
<mgrwt>
<rscale>  2 0.20931693E+02</rscale>
<asrwt>0</asrwt>
<pdfrwt beam="1">  1       21 0.18023781E-01 0.20931693E+02</pdfrwt>
<pdfrwt beam="2">  1       21 0.13232609E-02 0.20931693E+02</pdfrwt>
<totfact> 0.47224078E+07</totfact>
</mgrwt>
</event>
<event>
 4    1  0.2821610E+004  0.2944666E+02  0.7546771E-02  0.1604287E+00
         21   -1    0    0  501  502  0.00000000000E+00  0.00000000000E+00  0.14129379876E+02  0.14129379876E+02  0.00000000000E+00 0.  1.
         21   -1    0    0  502  503 -0.00000000000E+00 -0.00000000000E+00 -0.34998022301E+03  0.34998022301E+03  0.00000000000E+00 0. -1.
          2    1    1    2  501    0  0.23239529216E+02 -0.18083974781E+02 -0.26010060858E+01  0.29561310775E+02  0.00000000000E+00 0.  1.
         -2    1    1    2    0  503 -0.23239529216E+02  0.18083974781E+02 -0.33324983704E+03  0.33454829211E+03  0.00000000000E+00 0. -1.
<mgrwt>
<rscale>  2 0.29446661E+02</rscale>
<asrwt>0</asrwt>
<pdfrwt beam="1">  1       21 0.21737508E-02 0.29446661E+02</pdfrwt>
<pdfrwt beam="2">  1       21 0.53843109E-01 0.29446661E+02</pdfrwt>
<totfact> 0.31439566E+06</totfact>
</mgrwt>
</event>
<event>
 4    1  0.2821610E+004  0.2452516E+02  0.7546771E-02  0.1667917E+00
         21   -1    0    0  503  502  0.00000000000E+00  0.00000000000E+00  0.70488149086E+02  0.70488149086E+02  0.00000000000E+00 0.  1.
         21   -1    0    0  501  503 -0.00000000000E+00 -0.00000000000E+00 -0.15457619276E+02  0.15457619276E+02  0.00000000000E+00 0. -1.
          2    1    1    2  501    0 -0.12344055869E+02  0.21192163106E+02 -0.12466329182E+01  0.24556823615E+02  0.00000000000E+00 0. -1.
         -2    1    1    2    0  502  0.12344055869E+02 -0.21192163106E+02  0.56277162729E+02  0.61388944747E+02  0.00000000000E+00 0.  1.
<mgrwt>
<rscale>  2 0.24525160E+02</rscale>
<asrwt>0</asrwt>
<pdfrwt beam="1">  1       21 0.10844330E-01 0.24525160E+02</pdfrwt>
<pdfrwt beam="2">  1       21 0.23780953E-02 0.24525160E+02</pdfrwt>
<totfact> 0.47458540E+07</totfact>
</mgrwt>
</event>
<event>
 4    1  0.2821610E+004  0.2345542E+02  0.7546771E-02  0.1684233E+00
         21   -1    0    0  501  502  0.00000000000E+00  0.00000000000E+00  0.71087411270E+03  0.71087411270E+03  0.00000000000E+00 0. -1.
         21   -1    0    0  502  503 -0.00000000000E+00 -0.00000000000E+00 -0.10475629193E+01  0.10475629193E+01  0.00000000000E+00 0.  1.
          2    1    1    2  501    0 -0.13236401670E+02 -0.19363736031E+02  0.53684469921E+03  0.53735685320E+03  0.00000000000E+00 0. -1.
         -2    1    1    2    0  503  0.13236401670E+02  0.19363736031E+02  0.17298185056E+03  0.17456482242E+03  0.00000000000E+00 0.  1.
<mgrwt>
<rscale>  2 0.23455417E+02</rscale>
<asrwt>0</asrwt>
<pdfrwt beam="1">  1       21 0.10936486E+00 0.23455417E+02</pdfrwt>
<pdfrwt beam="2">  1       21 0.16116409E-03 0.23455417E+02</pdfrwt>
<totfact> 0.33089365E+07</totfact>
</mgrwt>
</event>
<event>
 4    1  0.2821610E+004  0.2825587E+02  0.7546771E-02  0.1618208E+00
         21   -1    0    0  503  502  0.00000000000E+00  0.00000000000E+00  0.83872824622E+01  0.83872824622E+01  0.00000000000E+00 0.  1.
         21   -1    0    0  501  503 -0.00000000000E+00 -0.00000000000E+00 -0.24272044626E+03  0.24272044626E+03  0.00000000000E+00 0. -1.
          2    1    1    2  501    0  0.25874745083E+02  0.11353041319E+02 -0.21505160071E+03  0.21689994225E+03  0.00000000000E+00 0. -1.
         -2    1    1    2    0  502 -0.25874745083E+02 -0.11353041319E+02 -0.19281563092E+02  0.34207786476E+02  0.00000000000E+00 0.  1.
<mgrwt>
<rscale>  2 0.28255866E+02</rscale>
<asrwt>0</asrwt>
<pdfrwt beam="1">  1       21 0.12903510E-02 0.28255866E+02</pdfrwt>
<pdfrwt beam="2">  1       21 0.37341611E-01 0.28255866E+02</pdfrwt>
<totfact> 0.14138240E+07</totfact>
</mgrwt>
</event>
<event>
 4    1  0.2821610E+004  0.2537483E+02  0.7546771E-02  0.1655676E+00
         21   -1    0    0  501  502  0.00000000000E+00  0.00000000000E+00  0.10030004319E+03  0.10030004319E+03  0.00000000000E+00 0. -1.
         21   -1    0    0  502  503 -0.00000000000E+00 -0.00000000000E+00 -0.20077549635E+02  0.20077549635E+02  0.00000000000E+00 0.  1.
          2    1    1    2  501    0  0.25354058386E+02  0.10265165856E+01  0.89753754854E+02  0.93271745579E+02  0.00000000000E+00 0. -1.
         -2    1    1    2    0  503 -0.25354058386E+02 -0.10265165856E+01 -0.95312612991E+01  0.27105847246E+02  0.00000000000E+00 0.  1.
<mgrwt>
<rscale>  2 0.25374830E+02</rscale>
<asrwt>0</asrwt>
<pdfrwt beam="1">  1       21 0.15430776E-01 0.25374830E+02</pdfrwt>
<pdfrwt beam="2">  1       21 0.30888538E-02 0.25374830E+02</pdfrwt>
<totfact> 0.17537724E+07</totfact>
</mgrwt>
</event>
<event>
 4    1  0.2821610E+004  0.2273262E+02  0.7546771E-02  0.1695881E+00
         21   -1    0    0  501  502  0.00000000000E+00  0.00000000000E+00  0.10010722285E+04  0.10010722285E+04  0.00000000000E+00 0. -1.
         21   -1    0    0  502  503 -0.00000000000E+00 -0.00000000000E+00 -0.56700481728E+00  0.56700481728E+00  0.00000000000E+00 0.  1.
          2    1    1    2  501    0 -0.16275393404E+02 -0.15870840160E+02  0.65013870689E+03  0.65053601760E+03  0.00000000000E+00 0. -1.
         -2    1    1    2    0  503  0.16275393404E+02  0.15870840160E+02  0.35036651682E+03  0.35110321575E+03  0.00000000000E+00 0.  1.
<mgrwt>
<rscale>  2 0.22732620E+02</rscale>
<asrwt>0</asrwt>
<pdfrwt beam="1">  1       21 0.15400970E+00 0.22732620E+02</pdfrwt>
<pdfrwt beam="2">  1       21 0.87232312E-04 0.22732620E+02</pdfrwt>
<totfact> 0.35956687E+07</totfact>
</mgrwt>
</event>
<event>
 4    1  0.2821610E+004  0.2074850E+02  0.7546771E-02  0.1730840E+00
         21   -1    0    0  501  502  0.00000000000E+00  0.00000000000E+00  0.36526273697E+02  0.36526273697E+02  0.00000000000E+00 0.  1.
         21   -1    0    0  502  503 -0.00000000000E+00 -0.00000000000E+00 -0.22518825644E+02  0.22518825644E+02  0.00000000000E+00 0. -1.
          2    1    1    2  501    0 -0.15178002365E+02  0.14146673881E+02  0.27385274203E+02  0.34357726654E+02  0.00000000000E+00 0.  1.
         -2    1    1    2    0  503  0.15178002365E+02 -0.14146673881E+02 -0.13377826150E+02  0.24687372686E+02  0.00000000000E+00 0. -1.
<mgrwt>
<rscale>  2 0.20748497E+02</rscale>
<asrwt>0</asrwt>
<pdfrwt beam="1">  1       21 0.56194267E-02 0.20748497E+02</pdfrwt>
<pdfrwt beam="2">  1       21 0.34644347E-02 0.20748497E+02</pdfrwt>
<totfact> 0.73813325E+07</totfact>
</mgrwt>
</event>
<event>
 4    1  0.2821610E+004  0.3376722E+02  0.7546771E-02  0.1559829E+00
         21   -1    0    0  503  502  0.00000000000E+00  0.00000000000E+00  0.23057114941E+03  0.23057114941E+03  0.00000000000E+00 0. -1.
         21   -1    0    0  501  503 -0.00000000000E+00 -0.00000000000E+00 -0.14177764502E+02  0.14177764502E+02  0.00000000000E+00 0.  1.
          2    1    1    2  501    0  0.99832668677E+00 -0.33752454195E+02  0.94442996110E+01  0.35063080520E+02  0.00000000000E+00 0.  1.
         -2    1    1    2    0  502 -0.99832668677E+00  0.33752454195E+02  0.20694908530E+03  0.20968583339E+03  0.00000000000E+00 0. -1.
<mgrwt>
<rscale>  2 0.33767215E+02</rscale>
<asrwt>0</asrwt>
<pdfrwt beam="1">  1       21 0.35472482E-01 0.33767215E+02</pdfrwt>
<pdfrwt beam="2">  1       21 0.21811947E-02 0.33767215E+02</pdfrwt>
<totfact> 0.71241803E+06</totfact>
</mgrwt>
</event>
<event>
 4    1  0.2821610E+004  0.2019140E+02  0.7546771E-02  0.1741548E+00
         21   -1    0    0  501  502  0.00000000000E+00  0.00000000000E+00  0.24618608022E+02  0.24618608022E+02  0.00000000000E+00 0. -1.
         21   -1    0    0  502  503 -0.00000000000E+00 -0.00000000000E+00 -0.18356297228E+02  0.18356297228E+02  0.00000000000E+00 0.  1.
          2    1    1    2  501    0 -0.17726362278E+02  0.96679160317E+01  0.98522557825E+01  0.22466852562E+02  0.00000000000E+00 0. -1.
         -2    1    1    2    0  503  0.17726362278E+02 -0.96679160317E+01 -0.35899449884E+01  0.20508052688E+02  0.00000000000E+00 0.  1.
<mgrwt>
<rscale>  2 0.20191397E+02</rscale>
<asrwt>0</asrwt>
<pdfrwt beam="1">  1       21 0.37874781E-02 0.20191397E+02</pdfrwt>
<pdfrwt beam="2">  1       21 0.28240457E-02 0.20191397E+02</pdfrwt>
<totfact> 0.18744146E+08</totfact>
</mgrwt>
</event>
<event>
 4    1  0.2821610E+004  0.2950393E+02  0.7546771E-02  0.1603638E+00
         21   -1    0    0  503  502  0.00000000000E+00  0.00000000000E+00  0.81701214794E+03  0.81701214794E+03  0.00000000000E+00 0. -1.
         21   -1    0    0  501  503 -0.00000000000E+00 -0.00000000000E+00 -0.10675068099E+01  0.10675068099E+01  0.00000000000E+00 0.  1.
          2    1    1    2  501    0 -0.14157966947E+02  0.25885016055E+02  0.42594572240E+03  0.42696632246E+03  0.00000000000E+00 0.  1.
         -2    1    1    2    0  502  0.14157966947E+02 -0.25885016055E+02  0.38999891873E+03  0.39111333229E+03  0.00000000000E+00 0. -1.
<mgrwt>
<rscale>  2 0.29503933E+02</rscale>
<asrwt>0</asrwt>
<pdfrwt beam="1">  1       21 0.12569368E+00 0.29503933E+02</pdfrwt>
<pdfrwt beam="2">  1       21 0.16423247E-03 0.29503933E+02</pdfrwt>
<totfact> 0.24457714E+07</totfact>
</mgrwt>
</event>
<event>
 4    1  0.2821610E+004  0.2087976E+02  0.7546771E-02  0.1728378E+00
         21   -1    0    0  501  502  0.00000000000E+00  0.00000000000E+00  0.10077665975E+01  0.10077665975E+01  0.00000000000E+00 0.  1.
         21   -1    0    0  502  503 -0.00000000000E+00 -0.00000000000E+00 -0.50442246174E+03  0.50442246174E+03  0.00000000000E+00 0. -1.
          2    1    1    2  501    0  0.20472982929E+02 -0.41013835270E+01 -0.15635080190E+03  0.15773882728E+03  0.00000000000E+00 0.  1.
         -2    1    1    2    0  503 -0.20472982929E+02  0.41013835270E+01 -0.34706389325E+03  0.34769140106E+03  0.00000000000E+00 0. -1.
<mgrwt>
<rscale>  2 0.20879760E+02</rscale>
<asrwt>0</asrwt>
<pdfrwt beam="1">  1       21 0.15504054E-03 0.20879760E+02</pdfrwt>
<pdfrwt beam="2">  1       21 0.77603693E-01 0.20879760E+02</pdfrwt>
<totfact> 0.71258930E+07</totfact>
</mgrwt>
</event>
<event>
 4    1  0.2821610E+004  0.2342217E+02  0.7546771E-02  0.1684757E+00
         21   -1    0    0  503  502  0.00000000000E+00  0.00000000000E+00  0.88206140600E+01  0.88206140600E+01  0.00000000000E+00 0. -1.
         21   -1    0    0  501  503 -0.00000000000E+00 -0.00000000000E+00 -0.69065791722E+02  0.69065791722E+02  0.00000000000E+00 0.  1.
          2    1    1    2  501    0  0.32730026472E+01 -0.23192354763E+02 -0.17839591135E+02  0.29442297425E+02  0.00000000000E+00 0.  1.
         -2    1    1    2    0  502 -0.32730026472E+01  0.23192354763E+02 -0.42405586527E+02  0.48444108357E+02  0.00000000000E+00 0. -1.
<mgrwt>
<rscale>  2 0.23422166E+02</rscale>
<asrwt>0</asrwt>
<pdfrwt beam="1">  1       21 0.13570175E-02 0.23422166E+02</pdfrwt>
<pdfrwt beam="2">  1       21 0.10625507E-01 0.23422166E+02</pdfrwt>
<totfact> 0.11449565E+08</totfact>
</mgrwt>
</event>
<event>
 4    1  0.2821610E+004  0.2568507E+02  0.7546771E-02  0.1651353E+00
         21   -1    0    0  501  502  0.00000000000E+00  0.00000000000E+00  0.72308520716E+03  0.72308520716E+03  0.00000000000E+00 0. -1.
         21   -1    0    0  502  503 -0.00000000000E+00 -0.00000000000E+00 -0.45124198022E+01  0.45124198022E+01  0.00000000000E+00 0.  1.
          2    1    1    2  501    0  0.23697055843E+02 -0.99081842235E+01  0.68423200392E+03  0.68471392402E+03  0.00000000000E+00 0. -1.
         -2    1    1    2    0  503 -0.23697055843E+02  0.99081842235E+01  0.34340783441E+02  0.42883702937E+02  0.00000000000E+00 0.  1.
<mgrwt>
<rscale>  2 0.25685065E+02</rscale>
<asrwt>0</asrwt>
<pdfrwt beam="1">  1       21 0.11124379E+00 0.25685065E+02</pdfrwt>
<pdfrwt beam="2">  1       21 0.69421901E-03 0.25685065E+02</pdfrwt>
<totfact> 0.38073168E+06</totfact>
</mgrwt>
</event>
<event>
 4    1  0.2821610E+004  0.2143671E+02  0.7546771E-02  0.1718180E+00
         21   -1    0    0  503  502  0.00000000000E+00  0.00000000000E+00  0.17644960975E+02  0.17644960975E+02  0.00000000000E+00 0. -1.
         21   -1    0    0  501  503 -0.00000000000E+00 -0.00000000000E+00 -0.37974087127E+02  0.37974087127E+02  0.00000000000E+00 0.  1.
          2    1    1    2  501    0  0.16565860131E+01 -0.21372604130E+02 -0.25752368558E+02  0.33506968989E+02  0.00000000000E+00 0.  1.
         -2    1    1    2    0  502 -0.16565860131E+01  0.21372604130E+02  0.54232424064E+01  0.22112079113E+02  0.00000000000E+00 0. -1.
<mgrwt>
<rscale>  2 0.21436709E+02</rscale>
<asrwt>0</asrwt>
<pdfrwt beam="1">  1       21 0.27146094E-02 0.21436709E+02</pdfrwt>
<pdfrwt beam="2">  1       21 0.58421672E-02 0.21436709E+02</pdfrwt>
<totfact> 0.10228081E+08</totfact>
</mgrwt>
</event>
<event>
 4    1  0.2821610E+004  0.2269840E+02  0.7546771E-02  0.1696446E+00
         21   -1    0    0  501  502  0.00000000000E+00  0.00000000000E+00  0.12359477859E+02  0.12359477859E+02  0.00000000000E+00 0. -1.
         21   -1    0    0  502  503 -0.00000000000E+00 -0.00000000000E+00 -0.72085926473E+02  0.72085926473E+02  0.00000000000E+00 0.  1.
          2    1    1    2  501    0 -0.15374906783E+02 -0.16698192394E+02 -0.24438881396E+01  0.22829585564E+02  0.00000000000E+00 0. -1.
         -2    1    1    2    0  503  0.15374906783E+02  0.16698192394E+02 -0.57282560475E+02  0.61615818767E+02  0.00000000000E+00 0.  1.
<mgrwt>
<rscale>  2 0.22698401E+02</rscale>
<asrwt>0</asrwt>
<pdfrwt beam="1">  1       21 0.19014582E-02 0.22698401E+02</pdfrwt>
<pdfrwt beam="2">  1       21 0.11090142E-01 0.22698401E+02</pdfrwt>
<totfact> 0.63223838E+07</totfact>
</mgrwt>
</event>
<event>
 4    1  0.2821610E+004  0.2687128E+02  0.7546771E-02  0.1635493E+00
         21   -1    0    0  503  502  0.00000000000E+00  0.00000000000E+00  0.49589608840E+02  0.49589608840E+02  0.00000000000E+00 0.  1.
         21   -1    0    0  501  503 -0.00000000000E+00 -0.00000000000E+00 -0.25313196590E+02  0.25313196590E+02  0.00000000000E+00 0. -1.
          2    1    1    2  501    0 -0.23366972989E+02 -0.13268387876E+02 -0.12270612172E+02  0.29540370116E+02  0.00000000000E+00 0.  1.
         -2    1    1    2    0  502  0.23366972989E+02  0.13268387876E+02  0.36547024422E+02  0.45362435314E+02  0.00000000000E+00 0. -1.
<mgrwt>
<rscale>  2 0.26871277E+02</rscale>
<asrwt>0</asrwt>
<pdfrwt beam="1">  1       21 0.76291706E-02 0.26871277E+02</pdfrwt>
<pdfrwt beam="2">  1       21 0.38943379E-02 0.26871277E+02</pdfrwt>
<totfact> 0.40051337E+07</totfact>
</mgrwt>
</event>
<event>
 4    1  0.2821610E+004  0.5428420E+02  0.7546771E-02  0.1423515E+00
         21   -1    0    0  503  502  0.00000000000E+00  0.00000000000E+00  0.39443392780E+03  0.39443392780E+03  0.00000000000E+00 0.  1.
         21   -1    0    0  501  503 -0.00000000000E+00 -0.00000000000E+00 -0.20792497518E+02  0.20792497518E+02  0.00000000000E+00 0. -1.
          2    1    1    2  501    0 -0.19275111976E+02  0.50746861197E+02  0.20640269219E+02  0.58075765828E+02  0.00000000000E+00 0. -1.
         -2    1    1    2    0  502  0.19275111976E+02 -0.50746861197E+02  0.35300116106E+03  0.35715065949E+03  0.00000000000E+00 0.  1.
<mgrwt>
<rscale>  2 0.54284195E+02</rscale>
<asrwt>0</asrwt>
<pdfrwt beam="1">  1       21 0.60682137E-01 0.54284195E+02</pdfrwt>
<pdfrwt beam="2">  1       21 0.31988461E-02 0.54284195E+02</pdfrwt>
<totfact> 0.14040409E+06</totfact>
</mgrwt>
</event>
<event>
 4    1  0.2821610E+004  0.2260331E+02  0.7546771E-02  0.1698022E+00
         21   -1    0    0  501  502  0.00000000000E+00  0.00000000000E+00  0.34556204322E+02  0.34556204322E+02  0.00000000000E+00 0.  1.
         21   -1    0    0  502  503 -0.00000000000E+00 -0.00000000000E+00 -0.59880140444E+02  0.59880140444E+02  0.00000000000E+00 0. -1.
          2    1    1    2  501    0 -0.17838162263E+02 -0.13881984875E+02  0.28314374300E+02  0.36230005920E+02  0.00000000000E+00 0.  1.
         -2    1    1    2    0  503  0.17838162263E+02  0.13881984875E+02 -0.53638310422E+02  0.58206338846E+02  0.00000000000E+00 0. -1.
<mgrwt>
<rscale>  2 0.22603308E+02</rscale>
<asrwt>0</asrwt>
<pdfrwt beam="1">  1       21 0.53163392E-02 0.22603308E+02</pdfrwt>
<pdfrwt beam="2">  1       21 0.92123291E-02 0.22603308E+02</pdfrwt>
<totfact> 0.17246020E+07</totfact>
</mgrwt>
</event>
<event>
 4    1  0.2821610E+004  0.2365979E+02  0.7546771E-02  0.1681033E+00
         21   -1    0    0  503  502  0.00000000000E+00  0.00000000000E+00  0.17196737511E+02  0.17196737511E+02  0.00000000000E+00 0. -1.
         21   -1    0    0  501  503 -0.00000000000E+00 -0.00000000000E+00 -0.11335114521E+03  0.11335114521E+03  0.00000000000E+00 0.  1.
          2    1    1    2  501    0  0.23025130948E+02 -0.54432325317E+01 -0.10318724001E+03  0.10586497030E+03  0.00000000000E+00 0.  1.
         -2    1    1    2    0  502 -0.23025130948E+02  0.54432325317E+01  0.70328323058E+01  0.24682912426E+02  0.00000000000E+00 0. -1.
<mgrwt>
<rscale>  2 0.23659785E+02</rscale>
<asrwt>0</asrwt>
<pdfrwt beam="1">  1       21 0.26456518E-02 0.23659785E+02</pdfrwt>
<pdfrwt beam="2">  1       21 0.17438638E-01 0.23659785E+02</pdfrwt>
<totfact> 0.17832561E+07</totfact>
</mgrwt>
</event>
<event>
 4    1  0.2821610E+004  0.2153940E+02  0.7546771E-02  0.1716342E+00
         21   -1    0    0  503  502  0.00000000000E+00  0.00000000000E+00  0.55850072373E+03  0.55850072373E+03  0.00000000000E+00 0.  1.
         21   -1    0    0  501  503 -0.00000000000E+00 -0.00000000000E+00 -0.98784131398E+00  0.98784131398E+00  0.00000000000E+00 0. -1.
          2    1    1    2  501    0 -0.14473337399E+02  0.15952060890E+02  0.16718197486E+03  0.16856381124E+03  0.00000000000E+00 0. -1.
         -2    1    1    2    0  502  0.14473337399E+02 -0.15952060890E+02  0.39033090755E+03  0.39092475380E+03  0.00000000000E+00 0.  1.
<mgrwt>
<rscale>  2 0.21539400E+02</rscale>
<asrwt>0</asrwt>
<pdfrwt beam="1">  1       21 0.85922936E-01 0.21539400E+02</pdfrwt>
<pdfrwt beam="2">  1       21 0.15197603E-03 0.21539400E+02</pdfrwt>
<totfact> 0.59672826E+07</totfact>
</mgrwt>
</event>
<event>
 4    1  0.2821610E+004  0.2427472E+02  0.7546771E-02  0.1671643E+00
         21   -1    0    0  501  502  0.00000000000E+00  0.00000000000E+00  0.19482678508E+03  0.19482678508E+03  0.00000000000E+00 0.  1.
         21   -1    0    0  502  503 -0.00000000000E+00 -0.00000000000E+00 -0.65882594413E+01  0.65882594413E+01  0.00000000000E+00 0. -1.
          2    1    1    2  501    0  0.61612196350E+01  0.23479807573E+02  0.16818683922E+03  0.16992961743E+03  0.00000000000E+00 0.  1.
         -2    1    1    2    0  503 -0.61612196350E+01 -0.23479807573E+02  0.20051686410E+02  0.31485427089E+02  0.00000000000E+00 0. -1.
<mgrwt>
<rscale>  2 0.24274719E+02</rscale>
<asrwt>0</asrwt>
<pdfrwt beam="1">  1       21 0.29973347E-01 0.24274719E+02</pdfrwt>
<pdfrwt beam="2">  1       21 0.10135785E-02 0.24274719E+02</pdfrwt>
<totfact> 0.29735518E+07</totfact>
</mgrwt>
</event>
<event>
 4    1  0.2821610E+004  0.2400496E+02  0.7546771E-02  0.1675719E+00
         21   -1    0    0  501  502  0.00000000000E+00  0.00000000000E+00  0.85107242164E+01  0.85107242164E+01  0.00000000000E+00 0. -1.
         21   -1    0    0  502  503 -0.00000000000E+00 -0.00000000000E+00 -0.69828332142E+02  0.69828332142E+02  0.00000000000E+00 0.  1.
          2    1    1    2  501    0 -0.23223898052E+02  0.60736139147E+01 -0.23832190692E+02  0.33826196060E+02  0.00000000000E+00 0. -1.
         -2    1    1    2    0  503  0.23223898052E+02 -0.60736139147E+01 -0.37485417234E+02  0.44512860298E+02  0.00000000000E+00 0.  1.
<mgrwt>
<rscale>  2 0.24004963E+02</rscale>
<asrwt>0</asrwt>
<pdfrwt beam="1">  1       21 0.13093422E-02 0.24004963E+02</pdfrwt>
<pdfrwt beam="2">  1       21 0.10742821E-01 0.24004963E+02</pdfrwt>
<totfact> 0.11953125E+08</totfact>
</mgrwt>
</event>
<event>
 4    1  0.2821610E+004  0.2046712E+02  0.7546771E-02  0.1736195E+00
         21   -1    0    0  503  502  0.00000000000E+00  0.00000000000E+00  0.12009101450E+01  0.12009101450E+01  0.00000000000E+00 0.  1.
         21   -1    0    0  501  503 -0.00000000000E+00 -0.00000000000E+00 -0.58177412983E+03  0.58177412983E+03  0.00000000000E+00 0. -1.
          2    1    1    2  501    0  0.10890507682E+02  0.17329159830E+02 -0.47473583510E+03  0.47517682611E+03  0.00000000000E+00 0. -1.
         -2    1    1    2    0  502 -0.10890507682E+02 -0.17329159830E+02 -0.10583738458E+03  0.10779821386E+03  0.00000000000E+00 0.  1.
<mgrwt>
<rscale>  2 0.20467118E+02</rscale>
<asrwt>0</asrwt>
<pdfrwt beam="1">  1       21 0.18475538E-03 0.20467118E+02</pdfrwt>
<pdfrwt beam="2">  1       21 0.89503726E-01 0.20467118E+02</pdfrwt>
<totfact> 0.40864430E+07</totfact>
</mgrwt>
</event>
<event>
 4    1  0.2821610E+004  0.2747297E+02  0.7546771E-02  0.1627828E+00
         21   -1    0    0  501  502  0.00000000000E+00  0.00000000000E+00  0.30999979203E+01  0.30999979203E+01  0.00000000000E+00 0.  1.
         21   -1    0    0  502  503 -0.00000000000E+00 -0.00000000000E+00 -0.27687994431E+03  0.27687994431E+03  0.00000000000E+00 0. -1.
          2    1    1    2  501    0  0.24868201749E+02  0.11676326762E+02 -0.88263454779E+02  0.92440259164E+02  0.00000000000E+00 0.  1.
         -2    1    1    2    0  503 -0.24868201749E+02 -0.11676326762E+02 -0.18551649161E+03  0.18753968306E+03  0.00000000000E+00 0. -1.
<mgrwt>
<rscale>  2 0.27472970E+02</rscale>
<asrwt>0</asrwt>
<pdfrwt beam="1">  1       21 0.47692253E-03 0.27472970E+02</pdfrwt>
<pdfrwt beam="2">  1       21 0.42596935E-01 0.27472970E+02</pdfrwt>
<totfact> 0.48832772E+07</totfact>
</mgrwt>
</event>
<event>
 4    1  0.2821610E+004  0.2515919E+02  0.7546771E-02  0.1658726E+00
         21   -1    0    0  501  502  0.00000000000E+00  0.00000000000E+00  0.83297404119E+02  0.83297404119E+02  0.00000000000E+00 0.  1.
         21   -1    0    0  502  503 -0.00000000000E+00 -0.00000000000E+00 -0.13601242903E+02  0.13601242903E+02  0.00000000000E+00 0. -1.
          2    1    1    2  501    0 -0.23949968779E+02  0.77060821915E+01  0.67032956866E+02  0.71598896734E+02  0.00000000000E+00 0.  1.
         -2    1    1    2    0  503  0.23949968779E+02 -0.77060821915E+01  0.26632043500E+01  0.25299750289E+02  0.00000000000E+00 0. -1.
<mgrwt>
<rscale>  2 0.25159187E+02</rscale>
<asrwt>0</asrwt>
<pdfrwt beam="1">  1       21 0.12814985E-01 0.25159187E+02</pdfrwt>
<pdfrwt beam="2">  1       21 0.20924990E-02 0.25159187E+02</pdfrwt>
<totfact> 0.43961291E+07</totfact>
</mgrwt>
</event>
<event>
 4    1  0.2821610E+004  0.2274925E+02  0.7546771E-02  0.1695607E+00
         21   -1    0    0  503  502  0.00000000000E+00  0.00000000000E+00  0.15806485592E+03  0.15806485592E+03  0.00000000000E+00 0. -1.
         21   -1    0    0  501  503 -0.00000000000E+00 -0.00000000000E+00 -0.48004879099E+01  0.48004879099E+01  0.00000000000E+00 0.  1.
          2    1    1    2  501    0  0.16586350031E+02  0.15569886930E+02  0.30714387861E+02  0.38221747841E+02  0.00000000000E+00 0.  1.
         -2    1    1    2    0  502 -0.16586350031E+02 -0.15569886930E+02  0.12254998015E+03  0.12464359599E+03  0.00000000000E+00 0. -1.
<mgrwt>
<rscale>  2 0.22749250E+02</rscale>
<asrwt>0</asrwt>
<pdfrwt beam="1">  1       21 0.24317666E-01 0.22749250E+02</pdfrwt>
<pdfrwt beam="2">  1       21 0.73853672E-03 0.22749250E+02</pdfrwt>
<totfact> 0.68498387E+07</totfact>
</mgrwt>
</event>
<event>
 4    1  0.2821610E+004  0.3004621E+02  0.7546771E-02  0.1597578E+00
         21   -1    0    0  503  502  0.00000000000E+00  0.00000000000E+00  0.51353313285E+02  0.51353313285E+02  0.00000000000E+00 0. -1.
         21   -1    0    0  501  503 -0.00000000000E+00 -0.00000000000E+00 -0.29806084009E+02  0.29806084009E+02  0.00000000000E+00 0.  1.
          2    1    1    2  501    0  0.17391356668E+02 -0.24501339825E+02 -0.15216349773E+02  0.33679552259E+02  0.00000000000E+00 0.  1.
         -2    1    1    2    0  502 -0.17391356668E+02  0.24501339825E+02  0.36763579050E+02  0.47479845035E+02  0.00000000000E+00 0. -1.
<mgrwt>
<rscale>  2 0.30046213E+02</rscale>
<asrwt>0</asrwt>
<pdfrwt beam="1">  1       21 0.79005098E-02 0.30046213E+02</pdfrwt>
<pdfrwt beam="2">  1       21 0.45855514E-02 0.30046213E+02</pdfrwt>
<totfact> 0.29871383E+07</totfact>
</mgrwt>
</event>
<event>
 4    1  0.2821610E+004  0.2018548E+02  0.7546771E-02  0.1741665E+00
         21   -1    0    0  501  502  0.00000000000E+00  0.00000000000E+00  0.38347919083E+02  0.38347919083E+02  0.00000000000E+00 0. -1.
         21   -1    0    0  502  503 -0.00000000000E+00 -0.00000000000E+00 -0.10643171087E+02  0.10643171087E+02  0.00000000000E+00 0.  1.
          2    1    1    2  501    0 -0.10273125695E+02 -0.17375739636E+02  0.12845180670E+02  0.23925971368E+02  0.00000000000E+00 0. -1.
         -2    1    1    2    0  503  0.10273125695E+02  0.17375739636E+02  0.14859567326E+02  0.25065118802E+02  0.00000000000E+00 0.  1.
<mgrwt>
<rscale>  2 0.20185476E+02</rscale>
<asrwt>0</asrwt>
<pdfrwt beam="1">  1       21 0.58996798E-02 0.20185476E+02</pdfrwt>
<pdfrwt beam="2">  1       21 0.16374110E-02 0.20185476E+02</pdfrwt>
<totfact> 0.21435413E+08</totfact>
</mgrwt>
</event>
<event>
 4    1  0.2821610E+004  0.2208131E+02  0.7546771E-02  0.1706850E+00
         21   -1    0    0  501  502  0.00000000000E+00  0.00000000000E+00  0.32227594787E+03  0.32227594787E+03  0.00000000000E+00 0. -1.
         21   -1    0    0  502  503 -0.00000000000E+00 -0.00000000000E+00 -0.99514510853E+01  0.99514510853E+01  0.00000000000E+00 0.  1.
          2    1    1    2  501    0  0.20100593726E+02 -0.91405963030E+01  0.30912832969E+03  0.30991597020E+03  0.00000000000E+00 0. -1.
         -2    1    1    2    0  503 -0.20100593726E+02  0.91405963030E+01  0.31961670936E+01  0.22311428753E+02  0.00000000000E+00 0.  1.
<mgrwt>
<rscale>  2 0.22081313E+02</rscale>
<asrwt>0</asrwt>
<pdfrwt beam="1">  1       21 0.49580907E-01 0.22081313E+02</pdfrwt>
<pdfrwt beam="2">  1       21 0.15309927E-02 0.22081313E+02</pdfrwt>
<totfact> 0.60828494E+06</totfact>
</mgrwt>
</event>
<event>
 4    1  0.2821610E+004  0.2268441E+02  0.7546771E-02  0.1696677E+00
         21   -1    0    0  501  502  0.00000000000E+00  0.00000000000E+00  0.71863253394E+01  0.71863253394E+01  0.00000000000E+00 0.  1.
         21   -1    0    0  502  503 -0.00000000000E+00 -0.00000000000E+00 -0.89995383179E+02  0.89995383179E+02  0.00000000000E+00 0. -1.
          2    1    1    2  501    0 -0.22066334493E+02 -0.52592333069E+01 -0.19439578169E+02  0.29874401288E+02  0.00000000000E+00 0.  1.
         -2    1    1    2    0  503  0.22066334493E+02  0.52592333069E+01 -0.63369479671E+02  0.67307307231E+02  0.00000000000E+00 0. -1.
<mgrwt>
<rscale>  2 0.22684414E+02</rscale>
<asrwt>0</asrwt>
<pdfrwt beam="1">  1       21 0.11055886E-02 0.22684414E+02</pdfrwt>
<pdfrwt beam="2">  1       21 0.13845443E-01 0.22684414E+02</pdfrwt>
<totfact> 0.99219801E+07</totfact>
</mgrwt>
</event>
<event>
 4    1  0.2821610E+004  0.2131713E+02  0.7546771E-02  0.1720337E+00
         21   -1    0    0  501  502  0.00000000000E+00  0.00000000000E+00  0.27479398884E+01  0.27479398884E+01  0.00000000000E+00 0. -1.
         21   -1    0    0  502  503 -0.00000000000E+00 -0.00000000000E+00 -0.17056771443E+03  0.17056771443E+03  0.00000000000E+00 0.  1.
          2    1    1    2  501    0  0.16491189370E+02 -0.13507806291E+02 -0.68778914712E+02  0.72006661265E+02  0.00000000000E+00 0.  1.
         -2    1    1    2    0  503 -0.16491189370E+02  0.13507806291E+02 -0.99040859827E+02  0.10130899305E+03  0.00000000000E+00 0. -1.
<mgrwt>
<rscale>  2 0.21317133E+02</rscale>
<asrwt>0</asrwt>
<pdfrwt beam="1">  1       21 0.42275994E-03 0.21317133E+02</pdfrwt>
<pdfrwt beam="2">  1       21 0.26241189E-01 0.21317133E+02</pdfrwt>
<totfact> 0.13392004E+08</totfact>
</mgrwt>
</event>
<event>
 4    1  0.2821610E+004  0.2106413E+02  0.7546771E-02  0.1724959E+00
         21   -1    0    0  503  502  0.00000000000E+00  0.00000000000E+00  0.36222999034E+01  0.36222999034E+01  0.00000000000E+00 0.  1.
         21   -1    0    0  501  503 -0.00000000000E+00 -0.00000000000E+00 -0.12538155367E+03  0.12538155367E+03  0.00000000000E+00 0. -1.
          2    1    1    2  501    0 -0.16444470171E+02  0.13163469321E+02 -0.70674072232E+02  0.73746335567E+02  0.00000000000E+00 0. -1.
         -2    1    1    2    0  502  0.16444470171E+02 -0.13163469321E+02 -0.51085181537E+02  0.55257518008E+02  0.00000000000E+00 0.  1.
<mgrwt>
<rscale>  2 0.21064129E+02</rscale>
<asrwt>0</asrwt>
<pdfrwt beam="1">  1       21 0.55727684E-03 0.21064129E+02</pdfrwt>
<pdfrwt beam="2">  1       21 0.19289472E-01 0.21064129E+02</pdfrwt>
<totfact> 0.15276713E+08</totfact>
</mgrwt>
</event>
<event>
 4    1  0.2821610E+004  0.2067615E+02  0.7546771E-02  0.1732207E+00
         21   -1    0    0  503  502  0.00000000000E+00  0.00000000000E+00  0.23754355731E+02  0.23754355731E+02  0.00000000000E+00 0.  1.
         21   -1    0    0  501  503 -0.00000000000E+00 -0.00000000000E+00 -0.17999252492E+02  0.17999252492E+02  0.00000000000E+00 0. -1.
          2    1    1    2  501    0 -0.20510747197E+02 -0.26100286898E+01  0.26351415482E+01  0.20843391550E+02  0.00000000000E+00 0. -1.
         -2    1    1    2    0  502  0.20510747197E+02  0.26100286898E+01  0.31199616899E+01  0.20910216672E+02  0.00000000000E+00 0.  1.
<mgrwt>
<rscale>  2 0.20676146E+02</rscale>
<asrwt>0</asrwt>
<pdfrwt beam="1">  1       21 0.36545163E-02 0.20676146E+02</pdfrwt>
<pdfrwt beam="2">  1       21 0.27691158E-02 0.20676146E+02</pdfrwt>
<totfact> 0.20590266E+08</totfact>
</mgrwt>
</event>
<event>
 4    1  0.2821610E+004  0.2223245E+02  0.7546771E-02  0.1704263E+00
         21   -1    0    0  501  502  0.00000000000E+00  0.00000000000E+00  0.17017789576E+02  0.17017789576E+02  0.00000000000E+00 0. -1.
         21   -1    0    0  502  503 -0.00000000000E+00 -0.00000000000E+00 -0.13981768665E+03  0.13981768665E+03  0.00000000000E+00 0.  1.
          2    1    1    2  501    0 -0.20951380549E+02 -0.74378361369E+01  0.83991145942E+01  0.23766086747E+02  0.00000000000E+00 0. -1.
         -2    1    1    2    0  503  0.20951380549E+02  0.74378361369E+01 -0.13119901167E+03  0.13306938948E+03  0.00000000000E+00 0.  1.
<mgrwt>
<rscale>  2 0.22232448E+02</rscale>
<asrwt>0</asrwt>
<pdfrwt beam="1">  1       21 0.26181215E-02 0.22232448E+02</pdfrwt>
<pdfrwt beam="2">  1       21 0.21510413E-01 0.22232448E+02</pdfrwt>
<totfact> 0.12419010E+07</totfact>
</mgrwt>
</event>
<event>
 4    1  0.2821610E+004  0.2172945E+02  0.7546771E-02  0.1712973E+00
         21   -1    0    0  503  502  0.00000000000E+00  0.00000000000E+00  0.80120575591E+01  0.80120575591E+01  0.00000000000E+00 0.  1.
         21   -1    0    0  501  503 -0.00000000000E+00 -0.00000000000E+00 -0.13912137266E+03  0.13912137266E+03  0.00000000000E+00 0. -1.
          2    1    1    2  501    0  0.19799089847E+02 -0.89534864123E+01 -0.12140708684E+03  0.12333632723E+03  0.00000000000E+00 0. -1.
         -2    1    1    2    0  502 -0.19799089847E+02  0.89534864123E+01 -0.97022282563E+01  0.23797102992E+02  0.00000000000E+00 0.  1.
<mgrwt>
<rscale>  2 0.21729447E+02</rscale>
<asrwt>0</asrwt>
<pdfrwt beam="1">  1       21 0.12326243E-02 0.21729447E+02</pdfrwt>
<pdfrwt beam="2">  1       21 0.21403287E-01 0.21729447E+02</pdfrwt>
<totfact> 0.39367194E+07</totfact>
</mgrwt>
</event>
<event>
 4    1  0.2821610E+004  0.2413513E+02  0.7546771E-02  0.1673744E+00
         21   -1    0    0  501  502  0.00000000000E+00  0.00000000000E+00  0.58139734606E+02  0.58139734606E+02  0.00000000000E+00 0.  1.
         21   -1    0    0  502  503 -0.00000000000E+00 -0.00000000000E+00 -0.10348429316E+02  0.10348429316E+02  0.00000000000E+00 0. -1.
          2    1    1    2  501    0 -0.11747129417E+02 -0.21083387976E+02  0.30005120538E+02  0.38507292252E+02  0.00000000000E+00 0.  1.
         -2    1    1    2    0  503  0.11747129417E+02  0.21083387976E+02  0.17786184752E+02  0.29980871671E+02  0.00000000000E+00 0. -1.
<mgrwt>
<rscale>  2 0.24135126E+02</rscale>
<asrwt>0</asrwt>
<pdfrwt beam="1">  1       21 0.89445744E-02 0.24135126E+02</pdfrwt>
<pdfrwt beam="2">  1       21 0.15920661E-02 0.24135126E+02</pdfrwt>
<totfact> 0.12042852E+08</totfact>
</mgrwt>
</event>
<event>
 4    1  0.2821610E+004  0.2353553E+02  0.7546771E-02  0.1682974E+00
         21   -1    0    0  501  502  0.00000000000E+00  0.00000000000E+00  0.43059045087E+03  0.43059045087E+03  0.00000000000E+00 0. -1.
         21   -1    0    0  502  503 -0.00000000000E+00 -0.00000000000E+00 -0.37185669179E+01  0.37185669179E+01  0.00000000000E+00 0.  1.
          2    1    1    2  501    0  0.23124516617E+02 -0.43792638506E+01  0.38905665463E+03  0.38976788187E+03  0.00000000000E+00 0. -1.
         -2    1    1    2    0  503 -0.23124516617E+02  0.43792638506E+01  0.37815229317E+02  0.44541135919E+02  0.00000000000E+00 0.  1.
<mgrwt>
<rscale>  2 0.23535531E+02</rscale>
<asrwt>0</asrwt>
<pdfrwt beam="1">  1       21 0.66244645E-01 0.23535531E+02</pdfrwt>
<pdfrwt beam="2">  1       21 0.57208756E-03 0.23535531E+02</pdfrwt>
<totfact> 0.15142334E+07</totfact>
</mgrwt>
</event>
<event>
 4    1  0.2821610E+004  0.2117564E+02  0.7546771E-02  0.1722912E+00
         21   -1    0    0  501  502  0.00000000000E+00  0.00000000000E+00  0.15573645133E+04  0.15573645133E+04  0.00000000000E+00 0. -1.
         21   -1    0    0  502  503 -0.00000000000E+00 -0.00000000000E+00 -0.32090626717E+00  0.32090626717E+00  0.00000000000E+00 0.  1.
          2    1    1    2  501    0  0.92522157348E+01  0.19047421918E+02  0.10281991313E+04  0.10284171631E+04  0.00000000000E+00 0. -1.
         -2    1    1    2    0  503 -0.92522157348E+01 -0.19047421918E+02  0.52884447571E+03  0.52926825643E+03  0.00000000000E+00 0.  1.
<mgrwt>
<rscale>  2 0.21175641E+02</rscale>
<asrwt>0</asrwt>
<pdfrwt beam="1">  1       21 0.23958849E+00 0.21175641E+02</pdfrwt>
<pdfrwt beam="2">  1       21 0.49371442E-04 0.21175641E+02</pdfrwt>
<totfact> 0.25798819E+07</totfact>
</mgrwt>
</event>
<event>
 4    1  0.2821610E+004  0.2467811E+02  0.7546771E-02  0.1665669E+00
         21   -1    0    0  501  502  0.00000000000E+00  0.00000000000E+00  0.14219927431E+02  0.14219927431E+02  0.00000000000E+00 0.  1.
         21   -1    0    0  502  503 -0.00000000000E+00 -0.00000000000E+00 -0.43711494754E+02  0.43711494754E+02  0.00000000000E+00 0. -1.
          2    1    1    2  501    0 -0.16170202143E+02 -0.18642261182E+02 -0.10627483905E+02  0.26869178503E+02  0.00000000000E+00 0. -1.
         -2    1    1    2    0  503  0.16170202143E+02  0.18642261182E+02 -0.18864083419E+02  0.31062243681E+02  0.00000000000E+00 0.  1.
<mgrwt>
<rscale>  2 0.24678115E+02</rscale>
<asrwt>0</asrwt>
<pdfrwt beam="1">  1       21 0.21876812E-02 0.24678115E+02</pdfrwt>
<pdfrwt beam="2">  1       21 0.67248453E-02 0.24678115E+02</pdfrwt>
<totfact> 0.11856913E+08</totfact>
</mgrwt>
</event>
<event>
 4    1  0.2821610E+004  0.3028767E+02  0.7546771E-02  0.1594930E+00
         21   -1    0    0  503  502  0.00000000000E+00  0.00000000000E+00  0.29215795093E+03  0.29215795093E+03  0.00000000000E+00 0. -1.
         21   -1    0    0  501  503 -0.00000000000E+00 -0.00000000000E+00 -0.93201331928E+01  0.93201331928E+01  0.00000000000E+00 0.  1.
          2    1    1    2  501    0 -0.11348338753E+01  0.30266406091E+02  0.18670025132E+02  0.35579671500E+02  0.00000000000E+00 0.  1.
         -2    1    1    2    0  502  0.11348338753E+01 -0.30266406091E+02  0.26416779261E+03  0.26589841262E+03  0.00000000000E+00 0. -1.
<mgrwt>
<rscale>  2 0.30287674E+02</rscale>
<asrwt>0</asrwt>
<pdfrwt beam="1">  1       21 0.44947370E-01 0.30287674E+02</pdfrwt>
<pdfrwt beam="2">  1       21 0.14338669E-02 0.30287674E+02</pdfrwt>
<totfact> 0.85402407E+06</totfact>
</mgrwt>
</event>
<event>
 4    1  0.2821610E+004  0.2779750E+02  0.7546771E-02  0.1623793E+00
         21   -1    0    0  503  502  0.00000000000E+00  0.00000000000E+00  0.28788244660E+02  0.28788244660E+02  0.00000000000E+00 0. -1.
         21   -1    0    0  501  503 -0.00000000000E+00 -0.00000000000E+00 -0.48643617802E+02  0.48643617802E+02  0.00000000000E+00 0.  1.
          2    1    1    2  501    0  0.59196546772E+01 -0.27159868224E+02 -0.35847547148E+02  0.45362400620E+02  0.00000000000E+00 0.  1.
         -2    1    1    2    0  502 -0.59196546772E+01  0.27159868224E+02  0.15992174006E+02  0.32069461843E+02  0.00000000000E+00 0. -1.
<mgrwt>
<rscale>  2 0.27797495E+02</rscale>
<asrwt>0</asrwt>
<pdfrwt beam="1">  1       21 0.44289607E-02 0.27797495E+02</pdfrwt>
<pdfrwt beam="2">  1       21 0.74836335E-02 0.27797495E+02</pdfrwt>
<totfact> 0.33950730E+07</totfact>
</mgrwt>
</event>
<event>
 4    1  0.2821610E+004  0.2119274E+02  0.7546771E-02  0.1722599E+00
         21   -1    0    0  503  502  0.00000000000E+00  0.00000000000E+00  0.37427526946E+02  0.37427526946E+02  0.00000000000E+00 0.  1.
         21   -1    0    0  501  503 -0.00000000000E+00 -0.00000000000E+00 -0.25131717992E+02  0.25131717992E+02  0.00000000000E+00 0. -1.
          2    1    1    2  501    0 -0.12483464059E+02  0.17125865995E+02 -0.16462606425E+02  0.26835602682E+02  0.00000000000E+00 0. -1.
         -2    1    1    2    0  502  0.12483464059E+02 -0.17125865995E+02  0.28758415379E+02  0.35723642257E+02  0.00000000000E+00 0.  1.
<mgrwt>
<rscale>  2 0.21192738E+02</rscale>
<asrwt>0</asrwt>
<pdfrwt beam="1">  1       21 0.57580811E-02 0.21192738E+02</pdfrwt>
<pdfrwt beam="2">  1       21 0.38664181E-02 0.21192738E+02</pdfrwt>
<totfact> 0.60148103E+07</totfact>
</mgrwt>
</event>
<event>
 4    1  0.2821610E+004  0.2576838E+02  0.7546771E-02  0.1650205E+00
         21   -1    0    0  503  502  0.00000000000E+00  0.00000000000E+00  0.47326772126E+03  0.47326772126E+03  0.00000000000E+00 0. -1.
         21   -1    0    0  501  503 -0.00000000000E+00 -0.00000000000E+00 -0.15445989185E+01  0.15445989185E+01  0.00000000000E+00 0.  1.
          2    1    1    2  501    0  0.19945869157E+02  0.16314765535E+02  0.16398842644E+03  0.16600064240E+03  0.00000000000E+00 0.  1.
         -2    1    1    2    0  502 -0.19945869157E+02 -0.16314765535E+02  0.30773469591E+03  0.30881167778E+03  0.00000000000E+00 0. -1.
<mgrwt>
<rscale>  2 0.25768377E+02</rscale>
<asrwt>0</asrwt>
<pdfrwt beam="1">  1       21 0.72810303E-01 0.25768377E+02</pdfrwt>
<pdfrwt beam="2">  1       21 0.23763098E-03 0.25768377E+02</pdfrwt>
<totfact> 0.46093852E+07</totfact>
</mgrwt>
</event>
<event>
 4    1  0.2821610E+004  0.2637007E+02  0.7546771E-02  0.1642069E+00
         21   -1    0    0  503  502  0.00000000000E+00  0.00000000000E+00  0.60544505330E+02  0.60544505330E+02  0.00000000000E+00 0.  1.
         21   -1    0    0  501  503 -0.00000000000E+00 -0.00000000000E+00 -0.11539629671E+02  0.11539629671E+02  0.00000000000E+00 0. -1.
          2    1    1    2  501    0  0.24141602771E+02  0.10609594946E+02  0.22032657172E+02  0.34363039320E+02  0.00000000000E+00 0. -1.
         -2    1    1    2    0  502 -0.24141602771E+02 -0.10609594946E+02  0.26972218487E+02  0.37721095681E+02  0.00000000000E+00 0.  1.
<mgrwt>
<rscale>  2 0.26370068E+02</rscale>
<asrwt>0</asrwt>
<pdfrwt beam="1">  1       21 0.93145391E-02 0.26370068E+02</pdfrwt>
<pdfrwt beam="2">  1       21 0.17753277E-02 0.26370068E+02</pdfrwt>
<totfact> 0.97626456E+07</totfact>
</mgrwt>
</event>
<event>
 4    1  0.2821610E+004  0.3033727E+02  0.7546771E-02  0.1594390E+00
         21   -1    0    0  501  502  0.00000000000E+00  0.00000000000E+00  0.19233640205E+01  0.19233640205E+01  0.00000000000E+00 0.  1.
         21   -1    0    0  502  503 -0.00000000000E+00 -0.00000000000E+00 -0.18446545583E+04  0.18446545583E+04  0.00000000000E+00 0. -1.
          2    1    1    2  501    0  0.13112843264E+02  0.27356958858E+02 -0.12680253944E+03  0.13038111008E+03  0.00000000000E+00 0.  1.
         -2    1    1    2    0  503 -0.13112843264E+02 -0.27356958858E+02 -0.17159286548E+04  0.17161968122E+04  0.00000000000E+00 0. -1.
<mgrwt>
<rscale>  2 0.30337268E+02</rscale>
<asrwt>0</asrwt>
<pdfrwt beam="1">  1       21 0.29590285E-03 0.30337268E+02</pdfrwt>
<pdfrwt beam="2">  1       21 0.28379234E+00 0.30337268E+02</pdfrwt>
<totfact> 0.12104981E+06</totfact>
</mgrwt>
</event>
<event>
 4    1  0.2821610E+004  0.4081513E+02  0.7546771E-02  0.1502297E+00
         21   -1    0    0  501  502  0.00000000000E+00  0.00000000000E+00  0.25500519183E+03  0.25500519183E+03  0.00000000000E+00 0.  1.
         21   -1    0    0  502  503 -0.00000000000E+00 -0.00000000000E+00 -0.68624132099E+01  0.68624132099E+01  0.00000000000E+00 0. -1.
          2    1    1    2  501    0  0.35997419875E+02 -0.19236956582E+02  0.15277096866E+03  0.15812919908E+03  0.00000000000E+00 0. -1.
         -2    1    1    2    0  503 -0.35997419875E+02  0.19236956582E+02  0.95371809959E+02  0.10373840596E+03  0.00000000000E+00 0.  1.
<mgrwt>
<rscale>  2 0.40815129E+02</rscale>
<asrwt>0</asrwt>
<pdfrwt beam="1">  1       21 0.39231561E-01 0.40815129E+02</pdfrwt>
<pdfrwt beam="2">  1       21 0.10557561E-02 0.40815129E+02</pdfrwt>
<totfact> 0.18537642E+07</totfact>
</mgrwt>
</event>
<event>
 4    1  0.2821610E+004  0.4062179E+02  0.7546771E-02  0.1503685E+00
         21   -1    0    0  501  502  0.00000000000E+00  0.00000000000E+00  0.37458751437E+02  0.37458751437E+02  0.00000000000E+00 0. -1.
         21   -1    0    0  502  503 -0.00000000000E+00 -0.00000000000E+00 -0.45230552555E+02  0.45230552555E+02  0.00000000000E+00 0.  1.
          2    1    1    2  501    0 -0.28094878950E+02 -0.29339529471E+02  0.27881759100E+01  0.40717368993E+02  0.00000000000E+00 0. -1.
         -2    1    1    2    0  503  0.28094878950E+02  0.29339529471E+02 -0.10559977028E+02  0.41971935000E+02  0.00000000000E+00 0.  1.
<mgrwt>
<rscale>  2 0.40621795E+02</rscale>
<asrwt>0</asrwt>
<pdfrwt beam="1">  1       21 0.57628848E-02 0.40621795E+02</pdfrwt>
<pdfrwt beam="2">  1       21 0.69585466E-02 0.40621795E+02</pdfrwt>
<totfact> 0.26906401E+07</totfact>
</mgrwt>
</event>
<event>
 4    1  0.2821610E+004  0.2375500E+02  0.7546771E-02  0.1679556E+00
         21   -1    0    0  501  502  0.00000000000E+00  0.00000000000E+00  0.28640618038E+03  0.28640618038E+03  0.00000000000E+00 0.  1.
         21   -1    0    0  502  503 -0.00000000000E+00 -0.00000000000E+00 -0.10587602890E+02  0.10587602890E+02  0.00000000000E+00 0. -1.
          2    1    1    2  501    0  0.16542823602E+02  0.17048026397E+02  0.27187841891E+03  0.27291422625E+03  0.00000000000E+00 0.  1.
         -2    1    1    2    0  503 -0.16542823602E+02 -0.17048026397E+02  0.39401585742E+01  0.24079557021E+02  0.00000000000E+00 0. -1.
<mgrwt>
<rscale>  2 0.23755004E+02</rscale>
<asrwt>0</asrwt>
<pdfrwt beam="1">  1       21 0.44062483E-01 0.23755004E+02</pdfrwt>
<pdfrwt beam="2">  1       21 0.16288622E-02 0.23755004E+02</pdfrwt>
<totfact> 0.70317925E+06</totfact>
</mgrwt>
</event>
<event>
 4    1  0.2821610E+004  0.2030508E+02  0.7546771E-02  0.1739328E+00
         21   -1    0    0  503  502  0.00000000000E+00  0.00000000000E+00  0.12961151521E+02  0.12961151521E+02  0.00000000000E+00 0. -1.
         21   -1    0    0  501  503 -0.00000000000E+00 -0.00000000000E+00 -0.62086173875E+02  0.62086173875E+02  0.00000000000E+00 0.  1.
          2    1    1    2  501    0 -0.19184411200E+02 -0.66524154904E+01 -0.50765880873E+02  0.54676054409E+02  0.00000000000E+00 0.  1.
         -2    1    1    2    0  502  0.19184411200E+02  0.66524154904E+01  0.16408585194E+01  0.20371270987E+02  0.00000000000E+00 0. -1.
<mgrwt>
<rscale>  2 0.20305080E+02</rscale>
<asrwt>0</asrwt>
<pdfrwt beam="1">  1       21 0.19940233E-02 0.20305080E+02</pdfrwt>
<pdfrwt beam="2">  1       21 0.95517190E-02 0.20305080E+02</pdfrwt>
<totfact> 0.72983821E+07</totfact>
</mgrwt>
</event>
<event>
 4    1  0.2821610E+004  0.2427848E+02  0.7546771E-02  0.1671587E+00
         21   -1    0    0  503  502  0.00000000000E+00  0.00000000000E+00  0.35944083209E+03  0.35944083209E+03  0.00000000000E+00 0. -1.
         21   -1    0    0  501  503 -0.00000000000E+00 -0.00000000000E+00 -0.40405659728E+01  0.40405659728E+01  0.00000000000E+00 0.  1.
          2    1    1    2  501    0  0.13768757761E+02  0.19996641870E+02  0.37613200145E+02  0.44768261095E+02  0.00000000000E+00 0.  1.
         -2    1    1    2    0  502 -0.13768757761E+02 -0.19996641870E+02  0.31778706597E+03  0.31871313697E+03  0.00000000000E+00 0. -1.
<mgrwt>
<rscale>  2 0.24278476E+02</rscale>
<asrwt>0</asrwt>
<pdfrwt beam="1">  1       21 0.55298564E-01 0.24278476E+02</pdfrwt>
<pdfrwt beam="2">  1       21 0.62162582E-03 0.24278476E+02</pdfrwt>
<totfact> 0.19346803E+07</totfact>
</mgrwt>
</event>
<event>
 4    1  0.2821610E+004  0.2075282E+02  0.7546771E-02  0.1730759E+00
         21   -1    0    0  501  502  0.00000000000E+00  0.00000000000E+00  0.13807528744E+03  0.13807528744E+03  0.00000000000E+00 0. -1.
         21   -1    0    0  502  503 -0.00000000000E+00 -0.00000000000E+00 -0.62559874007E+01  0.62559874007E+01  0.00000000000E+00 0.  1.
          2    1    1    2  501    0 -0.70890153246E+01 -0.19504496689E+02  0.11701042917E+03  0.11883652664E+03  0.00000000000E+00 0. -1.
         -2    1    1    2    0  503  0.70890153246E+01  0.19504496689E+02  0.14808870869E+02  0.25494748200E+02  0.00000000000E+00 0.  1.
<mgrwt>
<rscale>  2 0.20752820E+02</rscale>
<asrwt>0</asrwt>
<pdfrwt beam="1">  1       21 0.21242350E-01 0.20752820E+02</pdfrwt>
<pdfrwt beam="2">  1       21 0.96245970E-03 0.20752820E+02</pdfrwt>
<totfact> 0.57161590E+07</totfact>
</mgrwt>
</event>
<event>
 4    1  0.2821610E+004  0.2493097E+02  0.7546771E-02  0.1661995E+00
         21   -1    0    0  503  502  0.00000000000E+00  0.00000000000E+00  0.71625710631E+00  0.71625710631E+00  0.00000000000E+00 0.  1.
         21   -1    0    0  501  503 -0.00000000000E+00 -0.00000000000E+00 -0.11073236876E+04  0.11073236876E+04  0.00000000000E+00 0. -1.
          2    1    1    2  501    0  0.16392153314E+02 -0.18784317042E+02 -0.81098383588E+03  0.81136695479E+03  0.00000000000E+00 0. -1.
         -2    1    1    2    0  502 -0.16392153314E+02  0.18784317042E+02 -0.29562359458E+03  0.29667298989E+03  0.00000000000E+00 0.  1.
<mgrwt>
<rscale>  2 0.24930970E+02</rscale>
<asrwt>0</asrwt>
<pdfrwt beam="1">  1       21 0.11019358E-03 0.24930970E+02</pdfrwt>
<pdfrwt beam="2">  1       21 0.17035721E+00 0.24930970E+02</pdfrwt>
<totfact> 0.20501448E+07</totfact>
</mgrwt>
</event>
<event>
 4    1  0.2821610E+004  0.2742674E+02  0.7546771E-02  0.1628409E+00
         21   -1    0    0  501  502  0.00000000000E+00  0.00000000000E+00  0.41264574826E+03  0.41264574826E+03  0.00000000000E+00 0. -1.
         21   -1    0    0  502  503 -0.00000000000E+00 -0.00000000000E+00 -0.37636292631E+01  0.37636292631E+01  0.00000000000E+00 0.  1.
          2    1    1    2  501    0 -0.97954468229E+01  0.25617866285E+02  0.35394952732E+03  0.35501055441E+03  0.00000000000E+00 0. -1.
         -2    1    1    2    0  503  0.97954468229E+01 -0.25617866285E+02  0.54932591673E+02  0.61398823110E+02  0.00000000000E+00 0.  1.
<mgrwt>
<rscale>  2 0.27426736E+02</rscale>
<asrwt>0</asrwt>
<pdfrwt beam="1">  1       21 0.63483926E-01 0.27426736E+02</pdfrwt>
<pdfrwt beam="2">  1       21 0.57902021E-03 0.27426736E+02</pdfrwt>
<totfact> 0.16667480E+07</totfact>
</mgrwt>
</event>
<event>
 4    1  0.2821610E+004  0.3586624E+02  0.7546771E-02  0.1541040E+00
         21   -1    0    0  501  502  0.00000000000E+00  0.00000000000E+00  0.29696439199E+02  0.29696439199E+02  0.00000000000E+00 0. -1.
         21   -1    0    0  502  503 -0.00000000000E+00 -0.00000000000E+00 -0.62092801360E+02  0.62092801360E+02  0.00000000000E+00 0.  1.
          2    1    1    2  501    0 -0.35220078106E+02  0.67773939414E+01  0.90383784034E+01  0.36987555401E+02  0.00000000000E+00 0. -1.
         -2    1    1    2    0  503  0.35220078106E+02 -0.67773939414E+01 -0.41434740565E+02  0.54801685157E+02  0.00000000000E+00 0.  1.
<mgrwt>
<rscale>  2 0.35866237E+02</rscale>
<asrwt>0</asrwt>
<pdfrwt beam="1">  1       21 0.45686829E-02 0.35866237E+02</pdfrwt>
<pdfrwt beam="2">  1       21 0.95527387E-02 0.35866237E+02</pdfrwt>
<totfact> 0.22659878E+07</totfact>
</mgrwt>
</event>
<event>
 4    1  0.2821610E+004  0.2018622E+02  0.7546771E-02  0.1741650E+00
         21   -1    0    0  501  502  0.00000000000E+00  0.00000000000E+00  0.60041814287E+01  0.60041814287E+01  0.00000000000E+00 0.  1.
         21   -1    0    0  502  503 -0.00000000000E+00 -0.00000000000E+00 -0.12304524942E+03  0.12304524942E+03  0.00000000000E+00 0. -1.
          2    1    1    2  501    0  0.53435407449E+01 -0.19466128773E+02 -0.15311051716E+02  0.25335980378E+02  0.00000000000E+00 0.  1.
         -2    1    1    2    0  503 -0.53435407449E+01  0.19466128773E+02 -0.10173001627E+03  0.10371345047E+03  0.00000000000E+00 0. -1.
<mgrwt>
<rscale>  2 0.20186223E+02</rscale>
<asrwt>0</asrwt>
<pdfrwt beam="1">  1       21 0.92372026E-03 0.20186223E+02</pdfrwt>
<pdfrwt beam="2">  1       21 0.18930038E-01 0.20186223E+02</pdfrwt>
<totfact> 0.73690451E+07</totfact>
</mgrwt>
</event>
<event>
 4    1  0.2821610E+004  0.2290902E+02  0.7546771E-02  0.1692989E+00
         21   -1    0    0  503  502  0.00000000000E+00  0.00000000000E+00  0.35007217078E+03  0.35007217078E+03  0.00000000000E+00 0.  1.
         21   -1    0    0  501  503 -0.00000000000E+00 -0.00000000000E+00 -0.16603927027E+01  0.16603927027E+01  0.00000000000E+00 0. -1.
          2    1    1    2  501    0 -0.11146903715E+02  0.20014239219E+02  0.11940735186E+03  0.12158510974E+03  0.00000000000E+00 0.  1.
         -2    1    1    2    0  502  0.11146903715E+02 -0.20014239219E+02  0.22900442622E+03  0.23014745374E+03  0.00000000000E+00 0. -1.
<mgrwt>
<rscale>  2 0.22909021E+02</rscale>
<asrwt>0</asrwt>
<pdfrwt beam="1">  1       21 0.53857198E-01 0.22909021E+02</pdfrwt>
<pdfrwt beam="2">  1       21 0.25544531E-03 0.22909021E+02</pdfrwt>
<totfact> 0.74245054E+07</totfact>
</mgrwt>
</event>
<event>
 4    1  0.2821610E+004  0.2211172E+02  0.7546771E-02  0.1706327E+00
         21   -1    0    0  501  502  0.00000000000E+00  0.00000000000E+00  0.11785419404E+02  0.11785419404E+02  0.00000000000E+00 0. -1.
         21   -1    0    0  502  503 -0.00000000000E+00 -0.00000000000E+00 -0.51431459079E+02  0.51431459079E+02  0.00000000000E+00 0.  1.
          2    1    1    2  501    0  0.17171063570E+02  0.13931352532E+02 -0.59233472584E+01  0.22891353176E+02  0.00000000000E+00 0. -1.
         -2    1    1    2    0  503 -0.17171063570E+02 -0.13931352532E+02 -0.33722692416E+02  0.40325525307E+02  0.00000000000E+00 0.  1.
<mgrwt>
<rscale>  2 0.22111717E+02</rscale>
<asrwt>0</asrwt>
<pdfrwt beam="1">  1       21 0.18131415E-02 0.22111717E+02</pdfrwt>
<pdfrwt beam="2">  1       21 0.79125321E-02 0.22111717E+02</pdfrwt>
<totfact> 0.11764146E+08</totfact>
</mgrwt>
</event>
<event>
 4    1  0.2821610E+004  0.3723645E+02  0.7546771E-02  0.1529592E+00
         21   -1    0    0  501  502  0.00000000000E+00  0.00000000000E+00  0.40759548428E+01  0.40759548428E+01  0.00000000000E+00 0. -1.
         21   -1    0    0  502  503 -0.00000000000E+00 -0.00000000000E+00 -0.57082885782E+03  0.57082885782E+03  0.00000000000E+00 0.  1.
          2    1    1    2  501    0  0.10184314132E+02 -0.35816653433E+02 -0.10065485126E+03  0.10732172194E+03  0.00000000000E+00 0. -1.
         -2    1    1    2    0  503 -0.10184314132E+02  0.35816653433E+02 -0.46609805172E+03  0.46758309072E+03  0.00000000000E+00 0.  1.
<mgrwt>
<rscale>  2 0.37236446E+02</rscale>
<asrwt>0</asrwt>
<pdfrwt beam="1">  1       21 0.62707050E-03 0.37236446E+02</pdfrwt>
<pdfrwt beam="2">  1       21 0.87819751E-01 0.37236446E+02</pdfrwt>
<totfact> 0.78089532E+06</totfact>
</mgrwt>
</event>
<event>
 4    1  0.2821610E+004  0.2529814E+02  0.7546771E-02  0.1656756E+00
         21   -1    0    0  501  502  0.00000000000E+00  0.00000000000E+00  0.25772402158E+01  0.25772402158E+01  0.00000000000E+00 0. -1.
         21   -1    0    0  502  503 -0.00000000000E+00 -0.00000000000E+00 -0.43461022570E+03  0.43461022570E+03  0.00000000000E+00 0.  1.
          2    1    1    2  501    0 -0.21114156725E+02 -0.13935153012E+02 -0.72904635214E+02  0.77169177392E+02  0.00000000000E+00 0. -1.
         -2    1    1    2    0  503  0.21114156725E+02  0.13935153012E+02 -0.35912835027E+03  0.36001828853E+03  0.00000000000E+00 0.  1.
<mgrwt>
<rscale>  2 0.25298144E+02</rscale>
<asrwt>0</asrwt>
<pdfrwt beam="1">  1       21 0.39649809E-03 0.25298144E+02</pdfrwt>
<pdfrwt beam="2">  1       21 0.66863180E-01 0.25298144E+02</pdfrwt>
<totfact> 0.25879490E+07</totfact>
</mgrwt>
</event>
<event>
 4    1  0.2821610E+004  0.2234784E+02  0.7546771E-02  0.1702305E+00
         21   -1    0    0  503  502  0.00000000000E+00  0.00000000000E+00  0.10588398072E+02  0.10588398072E+02  0.00000000000E+00 0.  1.
         21   -1    0    0  501  503 -0.00000000000E+00 -0.00000000000E+00 -0.13511604995E+03  0.13511604995E+03  0.00000000000E+00 0. -1.
          2    1    1    2  501    0 -0.16884837073E+02  0.14639959587E+02 -0.12104038824E+03  0.12308615570E+03  0.00000000000E+00 0. -1.
         -2    1    1    2    0  502  0.16884837073E+02 -0.14639959587E+02 -0.34872636331E+01  0.22618292317E+02  0.00000000000E+00 0.  1.
<mgrwt>
<rscale>  2 0.22347844E+02</rscale>
<asrwt>0</asrwt>
<pdfrwt beam="1">  1       21 0.16289844E-02 0.22347844E+02</pdfrwt>
<pdfrwt beam="2">  1       21 0.20787084E-01 0.22347844E+02</pdfrwt>
<totfact> 0.27339752E+07</totfact>
</mgrwt>
</event>
<event>
 4    1  0.2821610E+004  0.5406897E+02  0.7546771E-02  0.1424554E+00
         21   -1    0    0  501  502  0.00000000000E+00  0.00000000000E+00  0.70440184656E+01  0.70440184656E+01  0.00000000000E+00 0.  1.
         21   -1    0    0  502  503 -0.00000000000E+00 -0.00000000000E+00 -0.42307545718E+03  0.42307545718E+03  0.00000000000E+00 0. -1.
          2    1    1    2  501    0 -0.22237631481E+02 -0.49284292882E+02 -0.23767920040E+03  0.24375162785E+03  0.00000000000E+00 0. -1.
         -2    1    1    2    0  503  0.22237631481E+02  0.49284292882E+02 -0.17835223832E+03  0.18636784780E+03  0.00000000000E+00 0.  1.
<mgrwt>
<rscale>  2 0.54068972E+02</rscale>
<asrwt>0</asrwt>
<pdfrwt beam="1">  1       21 0.10836948E-02 0.54068972E+02</pdfrwt>
<pdfrwt beam="2">  1       21 0.65088552E-01 0.54068972E+02</pdfrwt>
<totfact> 0.66704716E+06</totfact>
</mgrwt>
</event>
<event>
 4    1  0.2821610E+004  0.2017787E+02  0.7546771E-02  0.1741814E+00
         21   -1    0    0  503  502  0.00000000000E+00  0.00000000000E+00  0.35304658364E+01  0.35304658364E+01  0.00000000000E+00 0.  1.
         21   -1    0    0  501  503 -0.00000000000E+00 -0.00000000000E+00 -0.45684249470E+03  0.45684249470E+03  0.00000000000E+00 0. -1.
          2    1    1    2  501    0  0.20003650652E+02  0.26457886697E+01 -0.42567930200E+03  0.42615726486E+03  0.00000000000E+00 0. -1.
         -2    1    1    2    0  502 -0.20003650652E+02 -0.26457886697E+01 -0.27632726865E+02  0.34215695683E+02  0.00000000000E+00 0.  1.
<mgrwt>
<rscale>  2 0.20177865E+02</rscale>
<asrwt>0</asrwt>
<pdfrwt beam="1">  1       21 0.54314871E-03 0.20177865E+02</pdfrwt>
<pdfrwt beam="2">  1       21 0.70283445E-01 0.20177865E+02</pdfrwt>
<totfact> 0.14069108E+07</totfact>
</mgrwt>
</event>
<event>
 4    1  0.2821610E+004  0.2192876E+02  0.7546771E-02  0.1709487E+00
         21   -1    0    0  501  502  0.00000000000E+00  0.00000000000E+00  0.11557153971E+02  0.11557153971E+02  0.00000000000E+00 0. -1.
         21   -1    0    0  502  503 -0.00000000000E+00 -0.00000000000E+00 -0.22831345453E+03  0.22831345453E+03  0.00000000000E+00 0.  1.
          2    1    1    2  501    0  0.71497548029E+01 -0.20730449147E+02  0.79388775594E-01  0.21928903715E+02  0.00000000000E+00 0. -1.
         -2    1    1    2    0  503 -0.71497548029E+01  0.20730449147E+02 -0.21683568933E+03  0.21794170478E+03  0.00000000000E+00 0.  1.
<mgrwt>
<rscale>  2 0.21928760E+02</rscale>
<asrwt>0</asrwt>
<pdfrwt beam="1">  1       21 0.17780239E-02 0.21928760E+02</pdfrwt>
<pdfrwt beam="2">  1       21 0.35125143E-01 0.21928760E+02</pdfrwt>
<totfact> 0.92878694E+06</totfact>
</mgrwt>
</event>
<event>
 4    1  0.2821610E+004  0.2179826E+02  0.7546771E-02  0.1711765E+00
         21   -1    0    0  503  502  0.00000000000E+00  0.00000000000E+00  0.41031054889E+02  0.41031054889E+02  0.00000000000E+00 0.  1.
         21   -1    0    0  501  503 -0.00000000000E+00 -0.00000000000E+00 -0.38261482220E+02  0.38261482220E+02  0.00000000000E+00 0. -1.
          2    1    1    2  501    0  0.17246281703E+02 -0.13331537227E+02 -0.31722344063E+02  0.38489884778E+02  0.00000000000E+00 0. -1.
         -2    1    1    2    0  502 -0.17246281703E+02  0.13331537227E+02  0.34491916731E+02  0.40802652331E+02  0.00000000000E+00 0.  1.
<mgrwt>
<rscale>  2 0.21798260E+02</rscale>
<asrwt>0</asrwt>
<pdfrwt beam="1">  1       21 0.63124700E-02 0.21798260E+02</pdfrwt>
<pdfrwt beam="2">  1       21 0.58863819E-02 0.21798260E+02</pdfrwt>
<totfact> 0.26864836E+07</totfact>
</mgrwt>
</event>
<event>
 4    1  0.2821610E+004  0.2280667E+02  0.7546771E-02  0.1694663E+00
         21   -1    0    0  503  502  0.00000000000E+00  0.00000000000E+00  0.30666256178E+01  0.30666256178E+01  0.00000000000E+00 0.  1.
         21   -1    0    0  501  503 -0.00000000000E+00 -0.00000000000E+00 -0.10244844985E+04  0.10244844985E+04  0.00000000000E+00 0. -1.
          2    1    1    2  501    0  0.20878402571E+02 -0.91780567744E+01 -0.98003077636E+03  0.98029611192E+03  0.00000000000E+00 0. -1.
         -2    1    1    2    0  502 -0.20878402571E+02  0.91780567744E+01 -0.41387096537E+02  0.47255012219E+02  0.00000000000E+00 0.  1.
<mgrwt>
<rscale>  2 0.22806675E+02</rscale>
<asrwt>0</asrwt>
<pdfrwt beam="1">  1       21 0.47178793E-03 0.22806675E+02</pdfrwt>
<pdfrwt beam="2">  1       21 0.15761321E+00 0.22806675E+02</pdfrwt>
<totfact> 0.29717239E+06</totfact>
</mgrwt>
</event>
<event>
 4    1  0.2821610E+004  0.3226429E+02  0.7546771E-02  0.1574329E+00
         21   -1    0    0  503  502  0.00000000000E+00  0.00000000000E+00  0.40870667230E+03  0.40870667230E+03  0.00000000000E+00 0. -1.
         21   -1    0    0  501  503 -0.00000000000E+00 -0.00000000000E+00 -0.28507527368E+01  0.28507527368E+01  0.00000000000E+00 0.  1.
          2    1    1    2  501    0 -0.32052752860E+02  0.36885203916E+01  0.13575935422E+03  0.13954062636E+03  0.00000000000E+00 0.  1.
         -2    1    1    2    0  502  0.32052752860E+02 -0.36885203916E+01  0.27009656535E+03  0.27201679867E+03  0.00000000000E+00 0. -1.
<mgrwt>
<rscale>  2 0.32264286E+02</rscale>
<asrwt>0</asrwt>
<pdfrwt beam="1">  1       21 0.62877903E-01 0.32264286E+02</pdfrwt>
<pdfrwt beam="2">  1       21 0.43857767E-03 0.32264286E+02</pdfrwt>
<totfact> 0.26419017E+07</totfact>
</mgrwt>
</event>
<event>
 4    1  0.2821610E+004  0.2066671E+02  0.7546771E-02  0.1732386E+00
         21   -1    0    0  501  502  0.00000000000E+00  0.00000000000E+00  0.24453324066E+03  0.24453324066E+03  0.00000000000E+00 0. -1.
         21   -1    0    0  502  503 -0.00000000000E+00 -0.00000000000E+00 -0.20100477644E+01  0.20100477644E+01  0.00000000000E+00 0.  1.
          2    1    1    2  501    0 -0.77238318714E+01 -0.19169122521E+02  0.16588574183E+03  0.16716815540E+03  0.00000000000E+00 0. -1.
         -2    1    1    2    0  503  0.77238318714E+01  0.19169122521E+02  0.76637451071E+02  0.79375133031E+02  0.00000000000E+00 0.  1.
<mgrwt>
<rscale>  2 0.20666708E+02</rscale>
<asrwt>0</asrwt>
<pdfrwt beam="1">  1       21 0.37620475E-01 0.20666708E+02</pdfrwt>
<pdfrwt beam="2">  1       21 0.30923831E-03 0.20666708E+02</pdfrwt>
<totfact> 0.10867731E+08</totfact>
</mgrwt>
</event>
<event>
 4    1  0.2821610E+004  0.3310960E+02  0.7546771E-02  0.1566058E+00
         21   -1    0    0  503  502  0.00000000000E+00  0.00000000000E+00  0.23841888034E+02  0.23841888034E+02  0.00000000000E+00 0.  1.
         21   -1    0    0  501  503 -0.00000000000E+00 -0.00000000000E+00 -0.46303979965E+02  0.46303979965E+02  0.00000000000E+00 0. -1.
          2    1    1    2  501    0  0.28329462557E+02  0.17137303604E+02 -0.14165621838E+02  0.36012643136E+02  0.00000000000E+00 0.  1.
         -2    1    1    2    0  502 -0.28329462557E+02 -0.17137303604E+02 -0.82964700933E+01  0.34133224863E+02  0.00000000000E+00 0. -1.
<mgrwt>
<rscale>  2 0.33109600E+02</rscale>
<asrwt>0</asrwt>
<pdfrwt beam="1">  1       21 0.36679828E-02 0.33109600E+02</pdfrwt>
<pdfrwt beam="2">  1       21 0.71236892E-02 0.33109600E+02</pdfrwt>
<totfact> 0.51605053E+07</totfact>
</mgrwt>
</event>
<event>
 4    1  0.2821610E+004  0.5144671E+02  0.7546771E-02  0.1437691E+00
         21   -1    0    0  501  502  0.00000000000E+00  0.00000000000E+00  0.11703064370E+03  0.11703064370E+03  0.00000000000E+00 0. -1.
         21   -1    0    0  502  503 -0.00000000000E+00 -0.00000000000E+00 -0.23059793068E+02  0.23059793068E+02  0.00000000000E+00 0.  1.
          2    1    1    2  501    0 -0.30322891359E+01 -0.51357273287E+02  0.56702692556E+02  0.76563435398E+02  0.00000000000E+00 0. -1.
         -2    1    1    2    0  503  0.30322891359E+01  0.51357273287E+02  0.37268158079E+02  0.63527001373E+02  0.00000000000E+00 0.  1.
<mgrwt>
<rscale>  2 0.51446713E+02</rscale>
<asrwt>0</asrwt>
<pdfrwt beam="1">  1       21 0.18004714E-01 0.51446713E+02</pdfrwt>
<pdfrwt beam="2">  1       21 0.35476605E-02 0.51446713E+02</pdfrwt>
<totfact> 0.12021001E+07</totfact>
</mgrwt>
</event>
<event>
 4    1  0.2821610E+004  0.3799980E+02  0.7546771E-02  0.1523469E+00
         21   -1    0    0  501  502  0.00000000000E+00  0.00000000000E+00  0.10360450705E+02  0.10360450705E+02  0.00000000000E+00 0.  1.
         21   -1    0    0  502  503 -0.00000000000E+00 -0.00000000000E+00 -0.13940165117E+03  0.13940165117E+03  0.00000000000E+00 0. -1.
          2    1    1    2  501    0  0.28469386506E+02 -0.25169006473E+02 -0.63479690166E+02  0.73984159916E+02  0.00000000000E+00 0. -1.
         -2    1    1    2    0  503 -0.28469386506E+02  0.25169006473E+02 -0.65561510301E+02  0.75777941961E+02  0.00000000000E+00 0.  1.
<mgrwt>
<rscale>  2 0.37999801E+02</rscale>
<asrwt>0</asrwt>
<pdfrwt beam="1">  1       21 0.15939154E-02 0.37999801E+02</pdfrwt>
<pdfrwt beam="2">  1       21 0.21446409E-01 0.37999801E+02</pdfrwt>
<totfact> 0.29750538E+07</totfact>
</mgrwt>
</event>
<event>
 4    1  0.2821610E+004  0.2033025E+02  0.7546771E-02  0.1738839E+00
         21   -1    0    0  503  502  0.00000000000E+00  0.00000000000E+00  0.92735858752E+02  0.92735858752E+02  0.00000000000E+00 0. -1.
         21   -1    0    0  501  503 -0.00000000000E+00 -0.00000000000E+00 -0.52774935483E+01  0.52774935483E+01  0.00000000000E+00 0.  1.
          2    1    1    2  501    0  0.12333003702E+02  0.16162182374E+02  0.24405401312E+02  0.31763858906E+02  0.00000000000E+00 0.  1.
         -2    1    1    2    0  502 -0.12333003702E+02 -0.16162182374E+02  0.63052963893E+02  0.66249493395E+02  0.00000000000E+00 0. -1.
<mgrwt>
<rscale>  2 0.20330251E+02</rscale>
<asrwt>0</asrwt>
<pdfrwt beam="1">  1       21 0.14267054E-01 0.20330251E+02</pdfrwt>
<pdfrwt beam="2">  1       21 0.81192215E-03 0.20330251E+02</pdfrwt>
<totfact> 0.14496599E+08</totfact>
</mgrwt>
</event>
<event>
 4    1  0.2821610E+004  0.2466687E+02  0.7546771E-02  0.1665833E+00
         21   -1    0    0  501  502  0.00000000000E+00  0.00000000000E+00  0.62061981336E+00  0.62061981336E+00  0.00000000000E+00 0. -1.
         21   -1    0    0  502  503 -0.00000000000E+00 -0.00000000000E+00 -0.98308574652E+03  0.98308574652E+03  0.00000000000E+00 0.  1.
          2    1    1    2  501    0 -0.13516795212E+02 -0.20633726936E+02 -0.51695024529E+03  0.51753841456E+03  0.00000000000E+00 0. -1.
         -2    1    1    2    0  503  0.13516795212E+02  0.20633726936E+02 -0.46551488142E+03  0.46616795178E+03  0.00000000000E+00 0.  1.
<mgrwt>
<rscale>  2 0.24666869E+02</rscale>
<asrwt>0</asrwt>
<pdfrwt beam="1">  1       21 0.95479952E-04 0.24666869E+02</pdfrwt>
<pdfrwt beam="2">  1       21 0.15124399E+00 0.24666869E+02</pdfrwt>
<totfact> 0.33506507E+07</totfact>
</mgrwt>
</event>
<event>
 4    1  0.2821610E+004  0.2655359E+02  0.7546771E-02  0.1639640E+00
         21   -1    0    0  503  502  0.00000000000E+00  0.00000000000E+00  0.13544912008E+03  0.13544912008E+03  0.00000000000E+00 0. -1.
         21   -1    0    0  501  503 -0.00000000000E+00 -0.00000000000E+00 -0.14305389800E+02  0.14305389800E+02  0.00000000000E+00 0.  1.
          2    1    1    2  501    0 -0.13252348067E+02  0.23010178351E+02  0.85240052969E+00  0.26567266019E+02  0.00000000000E+00 0.  1.
         -2    1    1    2    0  502  0.13252348067E+02 -0.23010178351E+02  0.12029132975E+03  0.12318724386E+03  0.00000000000E+00 0. -1.
<mgrwt>
<rscale>  2 0.26553588E+02</rscale>
<asrwt>0</asrwt>
<pdfrwt beam="1">  1       21 0.20838325E-01 0.26553588E+02</pdfrwt>
<pdfrwt beam="2">  1       21 0.22008293E-02 0.26553588E+02</pdfrwt>
<totfact> 0.17792478E+07</totfact>
</mgrwt>
</event>
<event>
 4    1  0.2821610E+004  0.2523165E+02  0.7546771E-02  0.1657697E+00
         21   -1    0    0  501  502  0.00000000000E+00  0.00000000000E+00  0.16373008212E+01  0.16373008212E+01  0.00000000000E+00 0. -1.
         21   -1    0    0  502  503 -0.00000000000E+00 -0.00000000000E+00 -0.42524406196E+03  0.42524406196E+03  0.00000000000E+00 0.  1.
          2    1    1    2  501    0 -0.25231542211E+02  0.74719765928E-01 -0.14934714851E+03  0.15146355031E+03  0.00000000000E+00 0.  1.
         -2    1    1    2    0  503  0.25231542211E+02 -0.74719765928E-01 -0.27425961263E+03  0.27541781247E+03  0.00000000000E+00 0. -1.
<mgrwt>
<rscale>  2 0.25231653E+02</rscale>
<asrwt>0</asrwt>
<pdfrwt beam="1">  1       21 0.25189236E-03 0.25231653E+02</pdfrwt>
<pdfrwt beam="2">  1       21 0.65422183E-01 0.25231653E+02</pdfrwt>
<totfact> 0.52522425E+07</totfact>
</mgrwt>
</event>
<event>
 4    1  0.2821610E+004  0.2123867E+02  0.7546771E-02  0.1721761E+00
         21   -1    0    0  501  502  0.00000000000E+00  0.00000000000E+00  0.82647165635E+01  0.82647165635E+01  0.00000000000E+00 0. -1.
         21   -1    0    0  502  503 -0.00000000000E+00 -0.00000000000E+00 -0.63946232113E+02  0.63946232113E+02  0.00000000000E+00 0.  1.
          2    1    1    2  501    0  0.95862782476E+01 -0.18952161481E+02 -0.14022035843E+02  0.25449924256E+02  0.00000000000E+00 0. -1.
         -2    1    1    2    0  503 -0.95862782476E+01  0.18952161481E+02 -0.41659479707E+02  0.46761024421E+02  0.00000000000E+00 0.  1.
<mgrwt>
<rscale>  2 0.21238671E+02</rscale>
<asrwt>0</asrwt>
<pdfrwt beam="1">  1       21 0.12714949E-02 0.21238671E+02</pdfrwt>
<pdfrwt beam="2">  1       21 0.98378816E-02 0.21238671E+02</pdfrwt>
<totfact> 0.13942168E+08</totfact>
</mgrwt>
</event>
<event>
 4    1  0.2821610E+004  0.2350534E+02  0.7546771E-02  0.1683447E+00
         21   -1    0    0  501  502  0.00000000000E+00  0.00000000000E+00  0.69748490689E+03  0.69748490689E+03  0.00000000000E+00 0. -1.
         21   -1    0    0  502  503 -0.00000000000E+00 -0.00000000000E+00 -0.24212171155E+01  0.24212171155E+01  0.00000000000E+00 0.  1.
          2    1    1    2  501    0  0.65270250614E+01 -0.22580938222E+02  0.63458655794E+03  0.63502173218E+03  0.00000000000E+00 0. -1.
         -2    1    1    2    0  503 -0.65270250614E+01  0.22580938222E+02  0.60477131830E+02  0.64884391818E+02  0.00000000000E+00 0.  1.
<mgrwt>
<rscale>  2 0.23505336E+02</rscale>
<asrwt>0</asrwt>
<pdfrwt beam="1">  1       21 0.10730521E+00 0.23505336E+02</pdfrwt>
<pdfrwt beam="2">  1       21 0.37249550E-03 0.23505336E+02</pdfrwt>
<totfact> 0.10234733E+07</totfact>
</mgrwt>
</event>
<event>
 4    1  0.2821610E+004  0.2116014E+02  0.7546771E-02  0.1723195E+00
         21   -1    0    0  501  502  0.00000000000E+00  0.00000000000E+00  0.16712119030E+03  0.16712119030E+03  0.00000000000E+00 0.  1.
         21   -1    0    0  502  503 -0.00000000000E+00 -0.00000000000E+00 -0.27931093532E+01  0.27931093532E+01  0.00000000000E+00 0. -1.
          2    1    1    2  501    0  0.20662423275E+02 -0.45624417304E+01  0.99320582527E+02  0.10154964167E+03  0.00000000000E+00 0.  1.
         -2    1    1    2    0  503 -0.20662423275E+02  0.45624417304E+01  0.65007498421E+02  0.68364657983E+02  0.00000000000E+00 0. -1.
<mgrwt>
<rscale>  2 0.21160142E+02</rscale>
<asrwt>0</asrwt>
<pdfrwt beam="1">  1       21 0.25710945E-01 0.21160142E+02</pdfrwt>
<pdfrwt beam="2">  1       21 0.42970926E-03 0.21160142E+02</pdfrwt>
<totfact> 0.13531858E+08</totfact>
</mgrwt>
</event>
<event>
 4    1  0.2821610E+004  0.2278982E+02  0.7546771E-02  0.1694940E+00
         21   -1    0    0  503  502  0.00000000000E+00  0.00000000000E+00  0.20487115012E+03  0.20487115012E+03  0.00000000000E+00 0.  1.
         21   -1    0    0  501  503 -0.00000000000E+00 -0.00000000000E+00 -0.53566227680E+01  0.53566227680E+01  0.00000000000E+00 0. -1.
          2    1    1    2  501    0 -0.19117013035E+01 -0.22709493410E+02  0.23469695273E+02  0.32713946399E+02  0.00000000000E+00 0. -1.
         -2    1    1    2    0  502  0.19117013035E+01  0.22709493410E+02  0.17604483208E+03  0.17751382649E+03  0.00000000000E+00 0.  1.
<mgrwt>
<rscale>  2 0.22789816E+02</rscale>
<asrwt>0</asrwt>
<pdfrwt beam="1">  1       21 0.31518632E-01 0.22789816E+02</pdfrwt>
<pdfrwt beam="2">  1       21 0.82409597E-03 0.22789816E+02</pdfrwt>
<totfact> 0.36465311E+07</totfact>
</mgrwt>
</event>
<event>
 4    1  0.2821610E+004  0.2308791E+02  0.7546771E-02  0.1690089E+00
         21   -1    0    0  501  502  0.00000000000E+00  0.00000000000E+00  0.35704391179E+03  0.35704391179E+03  0.00000000000E+00 0. -1.
         21   -1    0    0  502  503 -0.00000000000E+00 -0.00000000000E+00 -0.33624867812E+01  0.33624867812E+01  0.00000000000E+00 0.  1.
          2    1    1    2  501    0 -0.11196501844E+01  0.23060746341E+02  0.31120945658E+03  0.31206470083E+03  0.00000000000E+00 0. -1.
         -2    1    1    2    0  503  0.11196501844E+01 -0.23060746341E+02  0.42471968422E+02  0.48341697736E+02  0.00000000000E+00 0.  1.
<mgrwt>
<rscale>  2 0.23087911E+02</rscale>
<asrwt>0</asrwt>
<pdfrwt beam="1">  1       21 0.54929803E-01 0.23087911E+02</pdfrwt>
<pdfrwt beam="2">  1       21 0.51730594E-03 0.23087911E+02</pdfrwt>
<totfact> 0.25470103E+07</totfact>
</mgrwt>
</event>
<event>
 4    1  0.2821610E+004  0.2385506E+02  0.7546771E-02  0.1678013E+00
         21   -1    0    0  501  502  0.00000000000E+00  0.00000000000E+00  0.13021323644E+03  0.13021323644E+03  0.00000000000E+00 0.  1.
         21   -1    0    0  502  503 -0.00000000000E+00 -0.00000000000E+00 -0.45341559340E+01  0.45341559340E+01  0.00000000000E+00 0. -1.
          2    1    1    2  501    0  0.99449444410E+01 -0.21683213257E+02  0.75649477721E+02  0.79321542702E+02  0.00000000000E+00 0. -1.
         -2    1    1    2    0  503 -0.99449444410E+01  0.21683213257E+02  0.50029602785E+02  0.55425849673E+02  0.00000000000E+00 0.  1.
<mgrwt>
<rscale>  2 0.23855055E+02</rscale>
<asrwt>0</asrwt>
<pdfrwt beam="1">  1       21 0.20032803E-01 0.23855055E+02</pdfrwt>
<pdfrwt beam="2">  1       21 0.69756255E-03 0.23855055E+02</pdfrwt>
<totfact> 0.10628480E+08</totfact>
</mgrwt>
</event>
<event>
 4    1  0.2821610E+004  0.2006875E+02  0.7546771E-02  0.1743964E+00
         21   -1    0    0  501  502  0.00000000000E+00  0.00000000000E+00  0.12785691356E+01  0.12785691356E+01  0.00000000000E+00 0. -1.
         21   -1    0    0  502  503 -0.00000000000E+00 -0.00000000000E+00 -0.37661519853E+03  0.37661519853E+03  0.00000000000E+00 0.  1.
          2    1    1    2  501    0  0.13766151375E+02 -0.14603006680E+02 -0.11124608303E+03  0.11304178748E+03  0.00000000000E+00 0.  1.
         -2    1    1    2    0  503 -0.13766151375E+02  0.14603006680E+02 -0.26409054637E+03  0.26485198018E+03  0.00000000000E+00 0. -1.
<mgrwt>
<rscale>  2 0.20068750E+02</rscale>
<asrwt>0</asrwt>
<pdfrwt beam="1">  1       21 0.19670291E-03 0.20068750E+02</pdfrwt>
<pdfrwt beam="2">  1       21 0.57940811E-01 0.20068750E+02</pdfrwt>
<totfact> 0.90614837E+07</totfact>
</mgrwt>
</event>
<event>
 4    1  0.2821610E+004  0.2441497E+02  0.7546771E-02  0.1669550E+00
         21   -1    0    0  503  502  0.00000000000E+00  0.00000000000E+00  0.13428114834E+02  0.13428114834E+02  0.00000000000E+00 0.  1.
         21   -1    0    0  501  503 -0.00000000000E+00 -0.00000000000E+00 -0.10546803045E+03  0.10546803045E+03  0.00000000000E+00 0. -1.
          2    1    1    2  501    0  0.20630912447E+02 -0.13055895251E+02 -0.91259207163E+02  0.94468692387E+02  0.00000000000E+00 0. -1.
         -2    1    1    2    0  502 -0.20630912447E+02  0.13055895251E+02 -0.78070844952E+00  0.24427452894E+02  0.00000000000E+00 0.  1.
<mgrwt>
<rscale>  2 0.24414974E+02</rscale>
<asrwt>0</asrwt>
<pdfrwt beam="1">  1       21 0.20658638E-02 0.24414974E+02</pdfrwt>
<pdfrwt beam="2">  1       21 0.16225851E-01 0.24414974E+02</pdfrwt>
<totfact> 0.29797754E+07</totfact>
</mgrwt>
</event>
<event>
 4    1  0.2821610E+004  0.2206175E+02  0.7546771E-02  0.1707186E+00
         21   -1    0    0  503  502  0.00000000000E+00  0.00000000000E+00  0.30450295131E+02  0.30450295131E+02  0.00000000000E+00 0.  1.
         21   -1    0    0  501  503 -0.00000000000E+00 -0.00000000000E+00 -0.33665620044E+02  0.33665620044E+02  0.00000000000E+00 0. -1.
          2    1    1    2  501    0  0.21972647728E+02  0.19808349114E+01 -0.24840496043E+02  0.33223052220E+02  0.00000000000E+00 0. -1.
         -2    1    1    2    0  502 -0.21972647728E+02 -0.19808349114E+01  0.21625171130E+02  0.30892862955E+02  0.00000000000E+00 0.  1.
<mgrwt>
<rscale>  2 0.22061753E+02</rscale>
<asrwt>0</asrwt>
<pdfrwt beam="1">  1       21 0.46846608E-02 0.22061753E+02</pdfrwt>
<pdfrwt beam="2">  1       21 0.51793262E-02 0.22061753E+02</pdfrwt>
<totfact> 0.53194345E+07</totfact>
</mgrwt>
</event>
<event>
 4    1  0.2821610E+004  0.3431645E+02  0.7546771E-02  0.1554756E+00
         21   -1    0    0  501  502  0.00000000000E+00  0.00000000000E+00  0.89893449707E+01  0.89893449707E+01  0.00000000000E+00 0. -1.
         21   -1    0    0  502  503 -0.00000000000E+00 -0.00000000000E+00 -0.14219682428E+03  0.14219682428E+03  0.00000000000E+00 0.  1.
          2    1    1    2  501    0  0.14858056095E+02 -0.30933099940E+02 -0.45393104598E+02  0.56904766477E+02  0.00000000000E+00 0. -1.
         -2    1    1    2    0  503 -0.14858056095E+02  0.30933099940E+02 -0.87814374710E+02  0.94281402772E+02  0.00000000000E+00 0.  1.
<mgrwt>
<rscale>  2 0.34316447E+02</rscale>
<asrwt>0</asrwt>
<pdfrwt beam="1">  1       21 0.13829761E-02 0.34316447E+02</pdfrwt>
<pdfrwt beam="2">  1       21 0.21876435E-01 0.34316447E+02</pdfrwt>
<totfact> 0.35094007E+07</totfact>
</mgrwt>
</event>
<event>
 4    1  0.2821610E+004  0.2403453E+02  0.7546771E-02  0.1675269E+00
         21   -1    0    0  503  502  0.00000000000E+00  0.00000000000E+00  0.28300836363E+02  0.28300836363E+02  0.00000000000E+00 0.  1.
         21   -1    0    0  501  503 -0.00000000000E+00 -0.00000000000E+00 -0.25052356731E+03  0.25052356731E+03  0.00000000000E+00 0. -1.
          2    1    1    2  501    0  0.18693359095E+02 -0.15106844167E+02 -0.24472363064E+03  0.24590102442E+03  0.00000000000E+00 0. -1.
         -2    1    1    2    0  502 -0.18693359095E+02  0.15106844167E+02  0.22500899691E+02  0.32923379259E+02  0.00000000000E+00 0.  1.
<mgrwt>
<rscale>  2 0.24034525E+02</rscale>
<asrwt>0</asrwt>
<pdfrwt beam="1">  1       21 0.43539749E-02 0.24034525E+02</pdfrwt>
<pdfrwt beam="2">  1       21 0.38542087E-01 0.24034525E+02</pdfrwt>
<totfact> 0.19711609E+06</totfact>
</mgrwt>
</event>
<event>
 4    1  0.2821610E+004  0.2442248E+02  0.7546771E-02  0.1669438E+00
         21   -1    0    0  503  502  0.00000000000E+00  0.00000000000E+00  0.23039642650E+03  0.23039642650E+03  0.00000000000E+00 0. -1.
         21   -1    0    0  501  503 -0.00000000000E+00 -0.00000000000E+00 -0.27551372949E+01  0.27551372949E+01  0.00000000000E+00 0.  1.
          2    1    1    2  501    0  0.14471142725E+02 -0.19673419908E+02  0.85179458876E+02  0.88611498334E+02  0.00000000000E+00 0. -1.
         -2    1    1    2    0  502 -0.14471142725E+02  0.19673419908E+02  0.14246183033E+03  0.14454006547E+03  0.00000000000E+00 0.  1.
<mgrwt>
<rscale>  2 0.24422478E+02</rscale>
<asrwt>0</asrwt>
<pdfrwt beam="1">  1       21 0.35445589E-01 0.24422478E+02</pdfrwt>
<pdfrwt beam="2">  1       21 0.42386746E-03 0.24422478E+02</pdfrwt>
<totfact> 0.80028834E+07</totfact>
</mgrwt>
</event>
<event>
 4    1  0.2821610E+004  0.2597993E+02  0.7546771E-02  0.1647313E+00
         21   -1    0    0  501  502  0.00000000000E+00  0.00000000000E+00  0.92795297119E+02  0.92795297119E+02  0.00000000000E+00 0.  1.
         21   -1    0    0  502  503 -0.00000000000E+00 -0.00000000000E+00 -0.75783581971E+01  0.75783581971E+01  0.00000000000E+00 0. -1.
          2    1    1    2  501    0  0.25966510911E+02  0.83499741278E+00  0.52672499386E+02  0.58731159542E+02  0.00000000000E+00 0.  1.
         -2    1    1    2    0  503 -0.25966510911E+02 -0.83499741278E+00  0.32544439537E+02  0.41642495775E+02  0.00000000000E+00 0. -1.
<mgrwt>
<rscale>  2 0.25979933E+02</rscale>
<asrwt>0</asrwt>
<pdfrwt beam="1">  1       21 0.14276199E-01 0.25979933E+02</pdfrwt>
<pdfrwt beam="2">  1       21 0.11659013E-02 0.25979933E+02</pdfrwt>
<totfact> 0.90157475E+07</totfact>
</mgrwt>
</event>
<event>
 4    1  0.2821610E+004  0.2227914E+02  0.7546771E-02  0.1703469E+00
         21   -1    0    0  503  502  0.00000000000E+00  0.00000000000E+00  0.10813288527E+04  0.10813288527E+04  0.00000000000E+00 0. -1.
         21   -1    0    0  501  503 -0.00000000000E+00 -0.00000000000E+00 -0.91091388199E+00  0.91091388199E+00  0.00000000000E+00 0.  1.
          2    1    1    2  501    0 -0.52659465811E+01 -0.21647860757E+02  0.15908234711E+03  0.16063484439E+03  0.00000000000E+00 0.  1.
         -2    1    1    2    0  502  0.52659465811E+01  0.21647860757E+02  0.92133559175E+03  0.92160492223E+03  0.00000000000E+00 0. -1.
<mgrwt>
<rscale>  2 0.22279140E+02</rscale>
<asrwt>0</asrwt>
<pdfrwt beam="1">  1       21 0.16635726E+00 0.22279140E+02</pdfrwt>
<pdfrwt beam="2">  1       21 0.14014146E-03 0.22279140E+02</pdfrwt>
<totfact> 0.15142184E+07</totfact>
</mgrwt>
</event>
<event>
 4    1  0.2821610E+004  0.3071964E+02  0.7546771E-02  0.1590268E+00
         21   -1    0    0  503  502  0.00000000000E+00  0.00000000000E+00  0.61867672291E+03  0.61867672291E+03  0.00000000000E+00 0.  1.
         21   -1    0    0  501  503 -0.00000000000E+00 -0.00000000000E+00 -0.38798458040E+01  0.38798458040E+01  0.00000000000E+00 0. -1.
          2    1    1    2  501    0  0.28471612929E+02 -0.11535304495E+02  0.64910059034E+02  0.71812337077E+02  0.00000000000E+00 0. -1.
         -2    1    1    2    0  502 -0.28471612929E+02  0.11535304495E+02  0.54988681808E+03  0.55074423164E+03  0.00000000000E+00 0.  1.
<mgrwt>
<rscale>  2 0.30719635E+02</rscale>
<asrwt>0</asrwt>
<pdfrwt beam="1">  1       21 0.95180956E-01 0.30719635E+02</pdfrwt>
<pdfrwt beam="2">  1       21 0.59689984E-03 0.30719635E+02</pdfrwt>
<totfact> 0.68932854E+06</totfact>
</mgrwt>
</event>
<event>
 4    1  0.2821610E+004  0.2193932E+02  0.7546771E-02  0.1709303E+00
         21   -1    0    0  503  502  0.00000000000E+00  0.00000000000E+00  0.22310721598E+03  0.22310721598E+03  0.00000000000E+00 0.  1.
         21   -1    0    0  501  503 -0.00000000000E+00 -0.00000000000E+00 -0.31811896574E+01  0.31811896574E+01  0.00000000000E+00 0. -1.
          2    1    1    2  501    0  0.21762532600E+02 -0.27795906438E+01  0.45776974439E+02  0.50762834220E+02  0.00000000000E+00 0. -1.
         -2    1    1    2    0  502 -0.21762532600E+02  0.27795906438E+01  0.17414905188E+03  0.17552557141E+03  0.00000000000E+00 0.  1.
<mgrwt>
<rscale>  2 0.21939324E+02</rscale>
<asrwt>0</asrwt>
<pdfrwt beam="1">  1       21 0.34324175E-01 0.21939324E+02</pdfrwt>
<pdfrwt beam="2">  1       21 0.48941397E-03 0.21939324E+02</pdfrwt>
<totfact> 0.66879796E+07</totfact>
</mgrwt>
</event>
<event>
 4    1  0.2821610E+004  0.2248112E+02  0.7546771E-02  0.1700062E+00
         21   -1    0    0  503  502  0.00000000000E+00  0.00000000000E+00  0.17170704182E+02  0.17170704182E+02  0.00000000000E+00 0. -1.
         21   -1    0    0  501  503 -0.00000000000E+00 -0.00000000000E+00 -0.11683754612E+03  0.11683754612E+03  0.00000000000E+00 0.  1.
          2    1    1    2  501    0 -0.17763840505E+02 -0.13778491975E+02 -0.10778630998E+03  0.11010581042E+03  0.00000000000E+00 0.  1.
         -2    1    1    2    0  502  0.17763840505E+02  0.13778491975E+02  0.81194680431E+01  0.23902439873E+02  0.00000000000E+00 0. -1.
<mgrwt>
<rscale>  2 0.22481123E+02</rscale>
<asrwt>0</asrwt>
<pdfrwt beam="1">  1       21 0.26416468E-02 0.22481123E+02</pdfrwt>
<pdfrwt beam="2">  1       21 0.17975007E-01 0.22481123E+02</pdfrwt>
<totfact> 0.16779164E+07</totfact>
</mgrwt>
</event>
<event>
 4    1  0.2821610E+004  0.2003888E+02  0.7546771E-02  0.1744556E+00
         21   -1    0    0  503  502  0.00000000000E+00  0.00000000000E+00  0.37465650151E+01  0.37465650151E+01  0.00000000000E+00 0.  1.
         21   -1    0    0  501  503 -0.00000000000E+00 -0.00000000000E+00 -0.26646633737E+03  0.26646633737E+03  0.00000000000E+00 0. -1.
          2    1    1    2  501    0  0.15656521191E+02 -0.12507200315E+02 -0.23581849032E+03  0.23666836944E+03  0.00000000000E+00 0. -1.
         -2    1    1    2    0  502 -0.15656521191E+02  0.12507200315E+02 -0.26901282033E+02  0.33544532946E+02  0.00000000000E+00 0.  1.
<mgrwt>
<rscale>  2 0.20038880E+02</rscale>
<asrwt>0</asrwt>
<pdfrwt beam="1">  1       21 0.57639443E-03 0.20038880E+02</pdfrwt>
<pdfrwt beam="2">  1       21 0.40994834E-01 0.20038880E+02</pdfrwt>
<totfact> 0.36925204E+07</totfact>
</mgrwt>
</event>
<event>
 4    1  0.2821610E+004  0.2572136E+02  0.7546771E-02  0.1650852E+00
         21   -1    0    0  503  502  0.00000000000E+00  0.00000000000E+00  0.57621009888E+01  0.57621009888E+01  0.00000000000E+00 0.  1.
         21   -1    0    0  501  503 -0.00000000000E+00 -0.00000000000E+00 -0.16534543498E+03  0.16534543498E+03  0.00000000000E+00 0. -1.
          2    1    1    2  501    0 -0.45551847511E+01  0.25314793029E+02 -0.12708609609E+03  0.12966288703E+03  0.00000000000E+00 0. -1.
         -2    1    1    2    0  502  0.45551847511E+01 -0.25314793029E+02 -0.32497237900E+02  0.41444648935E+02  0.00000000000E+00 0.  1.
<mgrwt>
<rscale>  2 0.25721362E+02</rscale>
<asrwt>0</asrwt>
<pdfrwt beam="1">  1       21 0.88647712E-03 0.25721362E+02</pdfrwt>
<pdfrwt beam="2">  1       21 0.25437758E-01 0.25721362E+02</pdfrwt>
<totfact> 0.49570437E+07</totfact>
</mgrwt>
</event>
<event>
 4    1  0.2821610E+004  0.2212033E+02  0.7546771E-02  0.1706179E+00
         21   -1    0    0  501  502  0.00000000000E+00  0.00000000000E+00  0.28981328479E+02  0.28981328479E+02  0.00000000000E+00 0. -1.
         21   -1    0    0  502  503 -0.00000000000E+00 -0.00000000000E+00 -0.57376500237E+02  0.57376500237E+02  0.00000000000E+00 0.  1.
          2    1    1    2  501    0 -0.13955887689E+02 -0.17162231681E+02  0.22076306733E+02  0.31251757013E+02  0.00000000000E+00 0. -1.
         -2    1    1    2    0  503  0.13955887689E+02  0.17162231681E+02 -0.50471478491E+02  0.55106071703E+02  0.00000000000E+00 0.  1.
<mgrwt>
<rscale>  2 0.22120330E+02</rscale>
<asrwt>0</asrwt>
<pdfrwt beam="1">  1       21 0.44586660E-02 0.22120330E+02</pdfrwt>
<pdfrwt beam="2">  1       21 0.88271537E-02 0.22120330E+02</pdfrwt>
<totfact> 0.24342811E+07</totfact>
</mgrwt>
</event>
<event>
 4    1  0.2821610E+004  0.2959701E+02  0.7546771E-02  0.1602586E+00
         21   -1    0    0  501  502  0.00000000000E+00  0.00000000000E+00  0.24329074171E+01  0.24329074171E+01  0.00000000000E+00 0. -1.
         21   -1    0    0  502  503 -0.00000000000E+00 -0.00000000000E+00 -0.10088250355E+04  0.10088250355E+04  0.00000000000E+00 0.  1.
          2    1    1    2  501    0 -0.29590587157E+02  0.61644456592E+00 -0.97716389127E+02  0.10210032104E+03  0.00000000000E+00 0. -1.
         -2    1    1    2    0  503  0.29590587157E+02 -0.61644456592E+00 -0.90867573897E+03  0.90915762190E+03  0.00000000000E+00 0.  1.
<mgrwt>
<rscale>  2 0.29597007E+02</rscale>
<asrwt>0</asrwt>
<pdfrwt beam="1">  1       21 0.37429443E-03 0.29597007E+02</pdfrwt>
<pdfrwt beam="2">  1       21 0.15520344E+00 0.29597007E+02</pdfrwt>
<totfact> 0.44508784E+06</totfact>
</mgrwt>
</event>
<event>
 4    1  0.2821610E+004  0.2172602E+02  0.7546771E-02  0.1713034E+00
         21   -1    0    0  503  502  0.00000000000E+00  0.00000000000E+00  0.23999527454E+01  0.23999527454E+01  0.00000000000E+00 0.  1.
         21   -1    0    0  501  503 -0.00000000000E+00 -0.00000000000E+00 -0.25611298452E+03  0.25611298452E+03  0.00000000000E+00 0. -1.
          2    1    1    2  501    0 -0.70414259759E+01 -0.20553302994E+02 -0.18912301707E+03  0.19036684461E+03  0.00000000000E+00 0. -1.
         -2    1    1    2    0  502  0.70414259759E+01  0.20553302994E+02 -0.64590014706E+02  0.68146092650E+02  0.00000000000E+00 0.  1.
<mgrwt>
<rscale>  2 0.21726020E+02</rscale>
<asrwt>0</asrwt>
<pdfrwt beam="1">  1       21 0.36922364E-03 0.21726020E+02</pdfrwt>
<pdfrwt beam="2">  1       21 0.39401982E-01 0.21726020E+02</pdfrwt>
<totfact> 0.78030428E+07</totfact>
</mgrwt>
</event>
<event>
 4    1  0.2821610E+004  0.2208135E+02  0.7546771E-02  0.1706849E+00
         21   -1    0    0  503  502  0.00000000000E+00  0.00000000000E+00  0.48264516307E+01  0.48264516307E+01  0.00000000000E+00 0. -1.
         21   -1    0    0  501  503 -0.00000000000E+00 -0.00000000000E+00 -0.87671468290E+03  0.87671468290E+03  0.00000000000E+00 0.  1.
          2    1    1    2  501    0  0.65201177558E+01 -0.21096775556E+02 -0.85054271003E+03  0.85082929396E+03  0.00000000000E+00 0.  1.
         -2    1    1    2    0  502 -0.65201177558E+01  0.21096775556E+02 -0.21345521246E+02  0.30711840578E+02  0.00000000000E+00 0. -1.
<mgrwt>
<rscale>  2 0.22081347E+02</rscale>
<asrwt>0</asrwt>
<pdfrwt beam="1">  1       21 0.74253157E-03 0.22081347E+02</pdfrwt>
<pdfrwt beam="2">  1       21 0.13487908E+00 0.22081347E+02</pdfrwt>
<totfact> 0.21839198E+06</totfact>
</mgrwt>
</event>
<event>
 4    1  0.2821610E+004  0.2189991E+02  0.7546771E-02  0.1709989E+00
         21   -1    0    0  503  502  0.00000000000E+00  0.00000000000E+00  0.22182472644E+02  0.22182472644E+02  0.00000000000E+00 0.  1.
         21   -1    0    0  501  503 -0.00000000000E+00 -0.00000000000E+00 -0.54555114142E+02  0.54555114142E+02  0.00000000000E+00 0. -1.
          2    1    1    2  501    0  0.14462450886E+02  0.16445162981E+02 -0.45997819325E+02  0.50945120019E+02  0.00000000000E+00 0. -1.
         -2    1    1    2    0  502 -0.14462450886E+02 -0.16445162981E+02  0.13625177827E+02  0.25792466767E+02  0.00000000000E+00 0.  1.
<mgrwt>
<rscale>  2 0.21899906E+02</rscale>
<asrwt>0</asrwt>
<pdfrwt beam="1">  1       21 0.34126881E-02 0.21899906E+02</pdfrwt>
<pdfrwt beam="2">  1       21 0.83930944E-02 0.21899906E+02</pdfrwt>
<totfact> 0.40140833E+07</totfact>
</mgrwt>
</event>
<event>
 4    1  0.2821610E+004  0.4564451E+02  0.7546771E-02  0.1470358E+00
         21   -1    0    0  503  502  0.00000000000E+00  0.00000000000E+00  0.89631149532E+02  0.89631149532E+02  0.00000000000E+00 0. -1.
         21   -1    0    0  501  503 -0.00000000000E+00 -0.00000000000E+00 -0.28351886615E+02  0.28351886615E+02  0.00000000000E+00 0.  1.
          2    1    1    2  501    0  0.65414873011E+01  0.45173337762E+02  0.56014614073E+01  0.45986931520E+02  0.00000000000E+00 0. -1.
         -2    1    1    2    0  502 -0.65414873011E+01 -0.45173337762E+02  0.55677801509E+02  0.71996104628E+02  0.00000000000E+00 0.  1.
<mgrwt>
<rscale>  2 0.45644512E+02</rscale>
<asrwt>0</asrwt>
<pdfrwt beam="1">  1       21 0.13789407E-01 0.45644512E+02</pdfrwt>
<pdfrwt beam="2">  1       21 0.43618288E-02 0.45644512E+02</pdfrwt>
<totfact> 0.13548056E+07</totfact>
</mgrwt>
</event>
<event>
 4    1  0.2821610E+004  0.2885081E+02  0.7546771E-02  0.1611150E+00
         21   -1    0    0  503  502  0.00000000000E+00  0.00000000000E+00  0.11902313991E+04  0.11902313991E+04  0.00000000000E+00 0. -1.
         21   -1    0    0  501  503 -0.00000000000E+00 -0.00000000000E+00 -0.16052345972E+01  0.16052345972E+01  0.00000000000E+00 0.  1.
          2    1    1    2  501    0  0.95268462991E+01  0.27232484091E+02  0.14664326818E+03  0.14945439804E+03  0.00000000000E+00 0.  1.
         -2    1    1    2    0  502 -0.95268462991E+01 -0.27232484091E+02  0.10419828963E+04  0.10423822357E+04  0.00000000000E+00 0. -1.
<mgrwt>
<rscale>  2 0.28850806E+02</rscale>
<asrwt>0</asrwt>
<pdfrwt beam="1">  1       21 0.18311182E+00 0.28850806E+02</pdfrwt>
<pdfrwt beam="2">  1       21 0.24696012E-03 0.28850806E+02</pdfrwt>
<totfact> 0.54231271E+06</totfact>
</mgrwt>
</event>
<event>
 4    1  0.2821610E+004  0.2286887E+02  0.7546771E-02  0.1693645E+00
         21   -1    0    0  501  502  0.00000000000E+00  0.00000000000E+00  0.53306174999E+01  0.53306174999E+01  0.00000000000E+00 0.  1.
         21   -1    0    0  502  503 -0.00000000000E+00 -0.00000000000E+00 -0.98825387450E+02  0.98825387450E+02  0.00000000000E+00 0. -1.
          2    1    1    2  501    0  0.18931673487E+02 -0.12828747677E+02 -0.42315420059E+02  0.48099686098E+02  0.00000000000E+00 0.  1.
         -2    1    1    2    0  503 -0.18931673487E+02  0.12828747677E+02 -0.51179349891E+02  0.56056318852E+02  0.00000000000E+00 0. -1.
<mgrwt>
<rscale>  2 0.22868866E+02</rscale>
<asrwt>0</asrwt>
<pdfrwt beam="1">  1       21 0.82009498E-03 0.22868866E+02</pdfrwt>
<pdfrwt beam="2">  1       21 0.15203906E-01 0.22868866E+02</pdfrwt>
<totfact> 0.13277558E+08</totfact>
</mgrwt>
</event>
<event>
 4    1  0.2821610E+004  0.2493532E+02  0.7546771E-02  0.1661933E+00
         21   -1    0    0  503  502  0.00000000000E+00  0.00000000000E+00  0.22158078868E+02  0.22158078868E+02  0.00000000000E+00 0. -1.
         21   -1    0    0  501  503 -0.00000000000E+00 -0.00000000000E+00 -0.36362979284E+02  0.36362979284E+02  0.00000000000E+00 0.  1.
          2    1    1    2  501    0  0.18601091923E+02  0.16606317331E+02 -0.21083895512E+02  0.32654265356E+02  0.00000000000E+00 0.  1.
         -2    1    1    2    0  502 -0.18601091923E+02 -0.16606317331E+02  0.68789950964E+01  0.25866792796E+02  0.00000000000E+00 0. -1.
<mgrwt>
<rscale>  2 0.24935324E+02</rscale>
<asrwt>0</asrwt>
<pdfrwt beam="1">  1       21 0.34089352E-02 0.24935324E+02</pdfrwt>
<pdfrwt beam="2">  1       21 0.55943045E-02 0.24935324E+02</pdfrwt>
<totfact> 0.80227155E+07</totfact>
</mgrwt>
</event>
<event>
 4    1  0.2821610E+004  0.3926275E+02  0.7546771E-02  0.1513708E+00
         21   -1    0    0  503  502  0.00000000000E+00  0.00000000000E+00  0.12178108511E+04  0.12178108511E+04  0.00000000000E+00 0.  1.
         21   -1    0    0  501  503 -0.00000000000E+00 -0.00000000000E+00 -0.21458875392E+01  0.21458875392E+01  0.00000000000E+00 0. -1.
          2    1    1    2  501    0  0.32331371347E+02 -0.22276586490E+02  0.21720575255E+03  0.22072585444E+03  0.00000000000E+00 0. -1.
         -2    1    1    2    0  502 -0.32331371347E+02  0.22276586490E+02  0.99845921097E+03  0.99923088415E+03  0.00000000000E+00 0.  1.
<mgrwt>
<rscale>  2 0.39262754E+02</rscale>
<asrwt>0</asrwt>
<pdfrwt beam="1">  1       21 0.18735496E+00 0.39262754E+02</pdfrwt>
<pdfrwt beam="2">  1       21 0.33013752E-03 0.39262754E+02</pdfrwt>
<totfact> 0.34016631E+06</totfact>
</mgrwt>
</event>
<event>
 4    1  0.2821610E+004  0.2163698E+02  0.7546771E-02  0.1714607E+00
         21   -1    0    0  501  502  0.00000000000E+00  0.00000000000E+00  0.25289736083E+00  0.25289736083E+00  0.00000000000E+00 0. -1.
         21   -1    0    0  502  503 -0.00000000000E+00 -0.00000000000E+00 -0.20820469376E+04  0.20820469376E+04  0.00000000000E+00 0.  1.
          2    1    1    2  501    0  0.21636837317E+02 -0.77921120150E-01 -0.69420176426E+03  0.69453887458E+03  0.00000000000E+00 0. -1.
         -2    1    1    2    0  503 -0.21636837317E+02  0.77921120150E-01 -0.13875922760E+04  0.13877609604E+04  0.00000000000E+00 0.  1.
<mgrwt>
<rscale>  2 0.21636978E+02</rscale>
<asrwt>0</asrwt>
<pdfrwt beam="1">  1       21 0.38908926E-04 0.21636978E+02</pdfrwt>
<pdfrwt beam="2">  1       21 0.32030141E+00 0.21636978E+02</pdfrwt>
<totfact> 0.14693132E+07</totfact>
</mgrwt>
</event>
<event>
 4    1  0.2821610E+004  0.2118883E+02  0.7546771E-02  0.1722670E+00
         21   -1    0    0  501  502  0.00000000000E+00  0.00000000000E+00  0.20730980753E+01  0.20730980753E+01  0.00000000000E+00 0.  1.
         21   -1    0    0  502  503 -0.00000000000E+00 -0.00000000000E+00 -0.24606392302E+03  0.24606392302E+03  0.00000000000E+00 0. -1.
          2    1    1    2  501    0 -0.95762795212E+00  0.21167181978E+02 -0.79039909904E+02  0.81830764397E+02  0.00000000000E+00 0.  1.
         -2    1    1    2    0  503  0.95762795212E+00 -0.21167181978E+02 -0.16495091504E+03  0.16630625669E+03  0.00000000000E+00 0. -1.
<mgrwt>
<rscale>  2 0.21188833E+02</rscale>
<asrwt>0</asrwt>
<pdfrwt beam="1">  1       21 0.31893802E-03 0.21188833E+02</pdfrwt>
<pdfrwt beam="2">  1       21 0.37856006E-01 0.21188833E+02</pdfrwt>
<totfact> 0.10341318E+08</totfact>
</mgrwt>
</event>
<event>
 4    1  0.2821610E+004  0.3183474E+02  0.7546771E-02  0.1578651E+00
         21   -1    0    0  501  502  0.00000000000E+00  0.00000000000E+00  0.72963385196E+02  0.72963385196E+02  0.00000000000E+00 0.  1.
         21   -1    0    0  502  503 -0.00000000000E+00 -0.00000000000E+00 -0.13891803633E+02  0.13891803633E+02  0.00000000000E+00 0. -1.
          2    1    1    2  501    0  0.15744170799E+02 -0.27668969746E+02  0.29021377596E+02  0.43077733907E+02  0.00000000000E+00 0.  1.
         -2    1    1    2    0  503 -0.15744170799E+02  0.27668969746E+02  0.30050203967E+02  0.43777454921E+02  0.00000000000E+00 0. -1.
<mgrwt>
<rscale>  2 0.31834742E+02</rscale>
<asrwt>0</asrwt>
<pdfrwt beam="1">  1       21 0.11225136E-01 0.31834742E+02</pdfrwt>
<pdfrwt beam="2">  1       21 0.21372006E-02 0.31834742E+02</pdfrwt>
<totfact> 0.56119678E+07</totfact>
</mgrwt>
</event>
<event>
 4    1  0.2821610E+004  0.2082393E+02  0.7546771E-02  0.1729423E+00
         21   -1    0    0  503  502  0.00000000000E+00  0.00000000000E+00  0.43919870321E+00  0.43919870321E+00  0.00000000000E+00 0.  1.
         21   -1    0    0  501  503 -0.00000000000E+00 -0.00000000000E+00 -0.98753099571E+03  0.98753099571E+03  0.00000000000E+00 0. -1.
          2    1    1    2  501    0 -0.20820149631E+02 -0.39672718910E+00 -0.50051436911E+03  0.50094737219E+03  0.00000000000E+00 0.  1.
         -2    1    1    2    0  502  0.20820149631E+02  0.39672718910E+00 -0.48657742789E+03  0.48702282222E+03  0.00000000000E+00 0. -1.
<mgrwt>
<rscale>  2 0.20823929E+02</rscale>
<asrwt>0</asrwt>
<pdfrwt beam="1">  1       21 0.67569282E-04 0.20823929E+02</pdfrwt>
<pdfrwt beam="2">  1       21 0.15192728E+00 0.20823929E+02</pdfrwt>
<totfact> 0.52370358E+07</totfact>
</mgrwt>
</event>
<event>
 4    1  0.2821610E+004  0.2126429E+02  0.7546771E-02  0.1721295E+00
         21   -1    0    0  503  502  0.00000000000E+00  0.00000000000E+00  0.44773344733E+03  0.44773344733E+03  0.00000000000E+00 0. -1.
         21   -1    0    0  501  503 -0.00000000000E+00 -0.00000000000E+00 -0.20897685706E+02  0.20897685706E+02  0.00000000000E+00 0.  1.
          2    1    1    2  501    0  0.34876110860E+01 -0.20976336570E+02 -0.15165767647E+02  0.26118396491E+02  0.00000000000E+00 0.  1.
         -2    1    1    2    0  502 -0.34876110860E+01  0.20976336570E+02  0.44200152927E+03  0.44251273655E+03  0.00000000000E+00 0. -1.
<mgrwt>
<rscale>  2 0.21264292E+02</rscale>
<asrwt>0</asrwt>
<pdfrwt beam="1">  1       21 0.68882061E-01 0.21264292E+02</pdfrwt>
<pdfrwt beam="2">  1       21 0.32150289E-02 0.21264292E+02</pdfrwt>
<totfact> 0.10073730E+06</totfact>
</mgrwt>
</event>
<event>
 4    1  0.2821610E+004  0.2178715E+02  0.7546771E-02  0.1711959E+00
         21   -1    0    0  501  502  0.00000000000E+00  0.00000000000E+00  0.33511480653E+02  0.33511480653E+02  0.00000000000E+00 0.  1.
         21   -1    0    0  502  503 -0.00000000000E+00 -0.00000000000E+00 -0.19608321380E+02  0.19608321380E+02  0.00000000000E+00 0. -1.
          2    1    1    2  501    0  0.73926246637E+01 -0.20494614201E+02  0.20945846491E+02  0.30222650378E+02  0.00000000000E+00 0.  1.
         -2    1    1    2    0  503 -0.73926246637E+01  0.20494614201E+02 -0.70426872183E+01  0.22897151655E+02  0.00000000000E+00 0. -1.
<mgrwt>
<rscale>  2 0.21787155E+02</rscale>
<asrwt>0</asrwt>
<pdfrwt beam="1">  1       21 0.51556124E-02 0.21787155E+02</pdfrwt>
<pdfrwt beam="2">  1       21 0.30166648E-02 0.21787155E+02</pdfrwt>
<totfact> 0.10651568E+08</totfact>
</mgrwt>
</event>
<event>
 4    1  0.2821610E+004  0.2014254E+02  0.7546771E-02  0.1742508E+00
         21   -1    0    0  503  502  0.00000000000E+00  0.00000000000E+00  0.19387842587E+02  0.19387842587E+02  0.00000000000E+00 0. -1.
         21   -1    0    0  501  503 -0.00000000000E+00 -0.00000000000E+00 -0.27879497441E+02  0.27879497441E+02  0.00000000000E+00 0.  1.
          2    1    1    2  501    0 -0.18145385540E+02  0.87445441450E+01 -0.16048242841E+02  0.25753993224E+02  0.00000000000E+00 0.  1.
         -2    1    1    2    0  502  0.18145385540E+02 -0.87445441450E+01  0.75565879864E+01  0.21513346804E+02  0.00000000000E+00 0. -1.
<mgrwt>
<rscale>  2 0.20142544E+02</rscale>
<asrwt>0</asrwt>
<pdfrwt beam="1">  1       21 0.29827450E-02 0.20142544E+02</pdfrwt>
<pdfrwt beam="2">  1       21 0.42891535E-02 0.20142544E+02</pdfrwt>
<totfact> 0.14160199E+08</totfact>
</mgrwt>
</event>
<event>
 4    1  0.2821610E+004  0.2675851E+02  0.7546771E-02  0.1636957E+00
         21   -1    0    0  501  502  0.00000000000E+00  0.00000000000E+00  0.61333491680E+02  0.61333491680E+02  0.00000000000E+00 0.  1.
         21   -1    0    0  502  503 -0.00000000000E+00 -0.00000000000E+00 -0.60089928541E+02  0.60089928541E+02  0.00000000000E+00 0. -1.
          2    1    1    2  501    0 -0.12790903126E+02 -0.23503421415E+02  0.55117823748E+02  0.61269833652E+02  0.00000000000E+00 0.  1.
         -2    1    1    2    0  503  0.12790903126E+02  0.23503421415E+02 -0.53874260609E+02  0.60153586569E+02  0.00000000000E+00 0. -1.
<mgrwt>
<rscale>  2 0.26758513E+02</rscale>
<asrwt>0</asrwt>
<pdfrwt beam="1">  1       21 0.94359217E-02 0.26758513E+02</pdfrwt>
<pdfrwt beam="2">  1       21 0.92446045E-02 0.26758513E+02</pdfrwt>
<totfact> 0.69659436E+06</totfact>
</mgrwt>
</event>
<event>
 4    1  0.2821610E+004  0.2176983E+02  0.7546771E-02  0.1712263E+00
         21   -1    0    0  503  502  0.00000000000E+00  0.00000000000E+00  0.90228039137E+01  0.90228039137E+01  0.00000000000E+00 0.  1.
         21   -1    0    0  501  503 -0.00000000000E+00 -0.00000000000E+00 -0.89233001470E+02  0.89233001470E+02  0.00000000000E+00 0. -1.
          2    1    1    2  501    0  0.47340754910E+01  0.21248859500E+02 -0.71614783446E+02  0.74850535795E+02  0.00000000000E+00 0. -1.
         -2    1    1    2    0  502 -0.47340754910E+01 -0.21248859500E+02 -0.85954141100E+01  0.23405269588E+02  0.00000000000E+00 0.  1.
<mgrwt>
<rscale>  2 0.21769830E+02</rscale>
<asrwt>0</asrwt>
<pdfrwt beam="1">  1       21 0.13881236E-02 0.21769830E+02</pdfrwt>
<pdfrwt beam="2">  1       21 0.13728155E-01 0.21769830E+02</pdfrwt>
<totfact> 0.70584472E+07</totfact>
</mgrwt>
</event>
<event>
 4    1  0.2821610E+004  0.4502023E+02  0.7546771E-02  0.1474215E+00
         21   -1    0    0  503  502  0.00000000000E+00  0.00000000000E+00  0.45595425571E+01  0.45595425571E+01  0.00000000000E+00 0. -1.
         21   -1    0    0  501  503 -0.00000000000E+00 -0.00000000000E+00 -0.46860979331E+03  0.46860979331E+03  0.00000000000E+00 0.  1.
          2    1    1    2  501    0 -0.12998893320E+01  0.45001462323E+02 -0.17838734107E+03  0.18398060979E+03  0.00000000000E+00 0. -1.
         -2    1    1    2    0  502  0.12998893320E+01 -0.45001462323E+02 -0.28566290968E+03  0.28918872608E+03  0.00000000000E+00 0.  1.
<mgrwt>
<rscale>  2 0.45020232E+02</rscale>
<asrwt>0</asrwt>
<pdfrwt beam="1">  1       21 0.70146820E-03 0.45020232E+02</pdfrwt>
<pdfrwt beam="2">  1       21 0.72093803E-01 0.45020232E+02</pdfrwt>
<totfact> 0.10284572E+07</totfact>
</mgrwt>
</event>
<event>
 4    1  0.2821610E+004  0.2006071E+02  0.7546771E-02  0.1744123E+00
         21   -1    0    0  503  502  0.00000000000E+00  0.00000000000E+00  0.59872259741E+03  0.59872259741E+03  0.00000000000E+00 0. -1.
         21   -1    0    0  501  503 -0.00000000000E+00 -0.00000000000E+00 -0.73488876516E+00  0.73488876516E+00  0.00000000000E+00 0.  1.
          2    1    1    2  501    0 -0.18730511303E+02  0.71833200707E+01  0.21141863106E+03  0.21236824080E+03  0.00000000000E+00 0.  1.
         -2    1    1    2    0  502  0.18730511303E+02 -0.71833200707E+01  0.38656907759E+03  0.38708924538E+03  0.00000000000E+00 0. -1.
<mgrwt>
<rscale>  2 0.20060711E+02</rscale>
<asrwt>0</asrwt>
<pdfrwt beam="1">  1       21 0.92110779E-01 0.20060711E+02</pdfrwt>
<pdfrwt beam="2">  1       21 0.11306029E-03 0.20060711E+02</pdfrwt>
<totfact> 0.77123893E+07</totfact>
</mgrwt>
</event>
<event>
 4    1  0.2821610E+004  0.2665585E+02  0.7546771E-02  0.1638297E+00
         21   -1    0    0  503  502  0.00000000000E+00  0.00000000000E+00  0.51568147242E+01  0.51568147242E+01  0.00000000000E+00 0. -1.
         21   -1    0    0  501  503 -0.00000000000E+00 -0.00000000000E+00 -0.13914774878E+03  0.13914774878E+03  0.00000000000E+00 0.  1.
          2    1    1    2  501    0 -0.26636418727E+02 -0.10175778345E+01 -0.59856406638E+02  0.65523459027E+02  0.00000000000E+00 0.  1.
         -2    1    1    2    0  502  0.26636418727E+02  0.10175778345E+01 -0.74134527420E+02  0.78781104480E+02  0.00000000000E+00 0. -1.
<mgrwt>
<rscale>  2 0.26655849E+02</rscale>
<asrwt>0</asrwt>
<pdfrwt beam="1">  1       21 0.79335629E-03 0.26655849E+02</pdfrwt>
<pdfrwt beam="2">  1       21 0.21407341E-01 0.26655849E+02</pdfrwt>
<totfact> 0.80283545E+07</totfact>
</mgrwt>
</event>
<event>
 4    1  0.2821610E+004  0.5225757E+02  0.7546771E-02  0.1433532E+00
         21   -1    0    0  503  502  0.00000000000E+00  0.00000000000E+00  0.13769955498E+03  0.13769955498E+03  0.00000000000E+00 0. -1.
         21   -1    0    0  501  503 -0.00000000000E+00 -0.00000000000E+00 -0.22964039964E+02  0.22964039964E+02  0.00000000000E+00 0.  1.
          2    1    1    2  501    0  0.45910326379E+02  0.24961883945E+02  0.27700395799E+02  0.59145292676E+02  0.00000000000E+00 0.  1.
         -2    1    1    2    0  502 -0.45910326379E+02 -0.24961883945E+02  0.87035119211E+02  0.10151830226E+03  0.00000000000E+00 0. -1.
<mgrwt>
<rscale>  2 0.52257571E+02</rscale>
<asrwt>0</asrwt>
<pdfrwt beam="1">  1       21 0.21184546E-01 0.52257571E+02</pdfrwt>
<pdfrwt beam="2">  1       21 0.35329293E-02 0.52257571E+02</pdfrwt>
<totfact> 0.90533520E+06</totfact>
</mgrwt>
</event>
<event>
 4    1  0.2821610E+004  0.3866380E+02  0.7546771E-02  0.1518281E+00
         21   -1    0    0  501  502  0.00000000000E+00  0.00000000000E+00  0.10301803615E+02  0.10301803615E+02  0.00000000000E+00 0. -1.
         21   -1    0    0  502  503 -0.00000000000E+00 -0.00000000000E+00 -0.15414013262E+03  0.15414013262E+03  0.00000000000E+00 0.  1.
          2    1    1    2  501    0 -0.38663304288E+02 -0.19595126763E+00 -0.52017748063E+02  0.64813082081E+02  0.00000000000E+00 0. -1.
         -2    1    1    2    0  503  0.38663304288E+02  0.19595126763E+00 -0.91820580939E+02  0.99628854150E+02  0.00000000000E+00 0.  1.
<mgrwt>
<rscale>  2 0.38663801E+02</rscale>
<asrwt>0</asrwt>
<pdfrwt beam="1">  1       21 0.15848928E-02 0.38663801E+02</pdfrwt>
<pdfrwt beam="2">  1       21 0.23713867E-01 0.38663801E+02</pdfrwt>
<totfact> 0.25117111E+07</totfact>
</mgrwt>
</event>
<event>
 4    1  0.2821610E+004  0.2696019E+02  0.7546771E-02  0.1634345E+00
         21   -1    0    0  503  502  0.00000000000E+00  0.00000000000E+00  0.17969575918E+02  0.17969575918E+02  0.00000000000E+00 0. -1.
         21   -1    0    0  501  503 -0.00000000000E+00 -0.00000000000E+00 -0.46735455761E+02  0.46735455761E+02  0.00000000000E+00 0.  1.
          2    1    1    2  501    0 -0.68275744107E+01 -0.26081332838E+02 -0.26248469783E+02  0.37627567832E+02  0.00000000000E+00 0.  1.
         -2    1    1    2    0  502  0.68275744107E+01  0.26081332838E+02 -0.25174100593E+01  0.27077463847E+02  0.00000000000E+00 0. -1.
<mgrwt>
<rscale>  2 0.26960187E+02</rscale>
<asrwt>0</asrwt>
<pdfrwt beam="1">  1       21 0.27645502E-02 0.26960187E+02</pdfrwt>
<pdfrwt beam="2">  1       21 0.71900700E-02 0.26960187E+02</pdfrwt>
<totfact> 0.75684483E+07</totfact>
</mgrwt>
</event>
<event>
 4    1  0.2821610E+004  0.2176817E+02  0.7546771E-02  0.1712292E+00
         21   -1    0    0  501  502  0.00000000000E+00  0.00000000000E+00  0.59265044607E+02  0.59265044607E+02  0.00000000000E+00 0.  1.
         21   -1    0    0  502  503 -0.00000000000E+00 -0.00000000000E+00 -0.80946650202E+01  0.80946650202E+01  0.00000000000E+00 0. -1.
          2    1    1    2  501    0 -0.61373266922E+01 -0.20885078215E+02  0.29313092334E+02  0.36511787865E+02  0.00000000000E+00 0.  1.
         -2    1    1    2    0  503  0.61373266922E+01  0.20885078215E+02  0.21857287253E+02  0.30847921762E+02  0.00000000000E+00 0. -1.
<mgrwt>
<rscale>  2 0.21768171E+02</rscale>
<asrwt>0</asrwt>
<pdfrwt beam="1">  1       21 0.91176989E-02 0.21768171E+02</pdfrwt>
<pdfrwt beam="2">  1       21 0.12453331E-02 0.21768171E+02</pdfrwt>
<totfact> 0.16424153E+08</totfact>
</mgrwt>
</event>
<event>
 4    1  0.2821610E+004  0.2230248E+02  0.7546771E-02  0.1703073E+00
         21   -1    0    0  503  502  0.00000000000E+00  0.00000000000E+00  0.49954671432E+02  0.49954671432E+02  0.00000000000E+00 0. -1.
         21   -1    0    0  501  503 -0.00000000000E+00 -0.00000000000E+00 -0.10547806697E+02  0.10547806697E+02  0.00000000000E+00 0.  1.
          2    1    1    2  501    0 -0.19451611452E+02  0.10910342130E+02  0.12544151291E+02  0.25588209884E+02  0.00000000000E+00 0.  1.
         -2    1    1    2    0  502  0.19451611452E+02 -0.10910342130E+02  0.26862713445E+02  0.34914268245E+02  0.00000000000E+00 0. -1.
<mgrwt>
<rscale>  2 0.22302483E+02</rscale>
<asrwt>0</asrwt>
<pdfrwt beam="1">  1       21 0.76853340E-02 0.22302483E+02</pdfrwt>
<pdfrwt beam="2">  1       21 0.16227395E-02 0.22302483E+02</pdfrwt>
<totfact> 0.14645968E+08</totfact>
</mgrwt>
</event>
<event>
 4    1  0.2821610E+004  0.2692978E+02  0.7546771E-02  0.1634737E+00
         21   -1    0    0  503  502  0.00000000000E+00  0.00000000000E+00  0.48393313616E+02  0.48393313616E+02  0.00000000000E+00 0. -1.
         21   -1    0    0  501  503 -0.00000000000E+00 -0.00000000000E+00 -0.33576491412E+02  0.33576491412E+02  0.00000000000E+00 0.  1.
          2    1    1    2  501    0  0.27757333338E+01 -0.26786351078E+02 -0.23088358087E+02  0.35472321305E+02  0.00000000000E+00 0.  1.
         -2    1    1    2    0  502 -0.27757333338E+01  0.26786351078E+02  0.37905180292E+02  0.46497483723E+02  0.00000000000E+00 0. -1.
<mgrwt>
<rscale>  2 0.26929785E+02</rscale>
<asrwt>0</asrwt>
<pdfrwt beam="1">  1       21 0.74451252E-02 0.26929785E+02</pdfrwt>
<pdfrwt beam="2">  1       21 0.51656141E-02 0.26929785E+02</pdfrwt>
<totfact> 0.26586478E+07</totfact>
</mgrwt>
</event>
<event>
 4    1  0.2821610E+004  0.2072636E+02  0.7546771E-02  0.1731258E+00
         21   -1    0    0  501  502  0.00000000000E+00  0.00000000000E+00  0.15773699718E+04  0.15773699718E+04  0.00000000000E+00 0. -1.
         21   -1    0    0  502  503 -0.00000000000E+00 -0.00000000000E+00 -0.28131167760E+00  0.28131167760E+00  0.00000000000E+00 0.  1.
          2    1    1    2  501    0  0.14707960449E+02  0.14603355661E+02  0.92941033043E+03  0.92964140635E+03  0.00000000000E+00 0. -1.
         -2    1    1    2    0  503 -0.14707960449E+02 -0.14603355661E+02  0.64767832971E+03  0.64800987714E+03  0.00000000000E+00 0.  1.
<mgrwt>
<rscale>  2 0.20726362E+02</rscale>
<asrwt>0</asrwt>
<pdfrwt beam="1">  1       21 0.24266522E+00 0.20726362E+02</pdfrwt>
<pdfrwt beam="2">  1       21 0.43279983E-04 0.20726362E+02</pdfrwt>
<totfact> 0.29870006E+07</totfact>
</mgrwt>
</event>
<event>
 4    1  0.2821610E+004  0.2435315E+02  0.7546771E-02  0.1670470E+00
         21   -1    0    0  501  502  0.00000000000E+00  0.00000000000E+00  0.89701374517E+01  0.89701374517E+01  0.00000000000E+00 0. -1.
         21   -1    0    0  502  503 -0.00000000000E+00 -0.00000000000E+00 -0.71168340338E+02  0.71168340338E+02  0.00000000000E+00 0.  1.
          2    1    1    2  501    0  0.22942324025E+02  0.81685918820E+01 -0.20423736167E+02  0.31783724200E+02  0.00000000000E+00 0. -1.
         -2    1    1    2    0  503 -0.22942324025E+02 -0.81685918820E+01 -0.41774466720E+02  0.48354753590E+02  0.00000000000E+00 0.  1.
<mgrwt>
<rscale>  2 0.24353154E+02</rscale>
<asrwt>0</asrwt>
<pdfrwt beam="1">  1       21 0.13800212E-02 0.24353154E+02</pdfrwt>
<pdfrwt beam="2">  1       21 0.10948975E-01 0.24353154E+02</pdfrwt>
<totfact> 0.10736493E+08</totfact>
</mgrwt>
</event>
<event>
 4    1  0.2821610E+004  0.2843041E+02  0.7546771E-02  0.1616116E+00
         21   -1    0    0  501  502  0.00000000000E+00  0.00000000000E+00  0.26022842451E+03  0.26022842451E+03  0.00000000000E+00 0. -1.
         21   -1    0    0  502  503 -0.00000000000E+00 -0.00000000000E+00 -0.59369834543E+01  0.59369834543E+01  0.00000000000E+00 0.  1.
          2    1    1    2  501    0  0.98485391457E+01 -0.26670108945E+02  0.21904281438E+03  0.22088015521E+03  0.00000000000E+00 0.  1.
         -2    1    1    2    0  503 -0.98485391457E+01  0.26670108945E+02  0.35248626676E+02  0.45285252754E+02  0.00000000000E+00 0. -1.
<mgrwt>
<rscale>  2 0.28430414E+02</rscale>
<asrwt>0</asrwt>
<pdfrwt beam="1">  1       21 0.40035133E-01 0.28430414E+02</pdfrwt>
<pdfrwt beam="2">  1       21 0.91338227E-03 0.28430414E+02</pdfrwt>
<totfact> 0.20949900E+07</totfact>
</mgrwt>
</event>
<event>
 4    1  0.2821610E+004  0.2389779E+02  0.7546771E-02  0.1677357E+00
         21   -1    0    0  503  502  0.00000000000E+00  0.00000000000E+00  0.34776168666E+01  0.34776168666E+01  0.00000000000E+00 0.  1.
         21   -1    0    0  501  503 -0.00000000000E+00 -0.00000000000E+00 -0.17121828406E+03  0.17121828406E+03  0.00000000000E+00 0. -1.
          2    1    1    2  501    0 -0.12438861731E+02  0.20405366662E+02 -0.10152599293E+03  0.10430067838E+03  0.00000000000E+00 0. -1.
         -2    1    1    2    0  502  0.12438861731E+02 -0.20405366662E+02 -0.66214674262E+02  0.70395222547E+02  0.00000000000E+00 0.  1.
<mgrwt>
<rscale>  2 0.23897788E+02</rscale>
<asrwt>0</asrwt>
<pdfrwt beam="1">  1       21 0.53501789E-03 0.23897788E+02</pdfrwt>
<pdfrwt beam="2">  1       21 0.26341279E-01 0.23897788E+02</pdfrwt>
<totfact> 0.97075596E+07</totfact>
</mgrwt>
</event>
<event>
 4    1  0.2821610E+004  0.2108905E+02  0.7546771E-02  0.1724500E+00
         21   -1    0    0  501  502  0.00000000000E+00  0.00000000000E+00  0.84875225089E+02  0.84875225089E+02  0.00000000000E+00 0.  1.
         21   -1    0    0  502  503 -0.00000000000E+00 -0.00000000000E+00 -0.54158035027E+01  0.54158035027E+01  0.00000000000E+00 0. -1.
          2    1    1    2  501    0  0.17507771137E+02  0.11756963418E+02  0.47863013629E+02  0.52303119531E+02  0.00000000000E+00 0.  1.
         -2    1    1    2    0  503 -0.17507771137E+02 -0.11756963418E+02  0.31596407957E+02  0.37987909061E+02  0.00000000000E+00 0. -1.
<mgrwt>
<rscale>  2 0.21089055E+02</rscale>
<asrwt>0</asrwt>
<pdfrwt beam="1">  1       21 0.13057726E-01 0.21089055E+02</pdfrwt>
<pdfrwt beam="2">  1       21 0.83320060E-03 0.21089055E+02</pdfrwt>
<totfact> 0.16372743E+08</totfact>
</mgrwt>
</event>
<event>
 4    1  0.2821610E+004  0.2504003E+02  0.7546771E-02  0.1660428E+00
         21   -1    0    0  501  502  0.00000000000E+00  0.00000000000E+00  0.51221005573E+03  0.51221005573E+03  0.00000000000E+00 0.  1.
         21   -1    0    0  502  503 -0.00000000000E+00 -0.00000000000E+00 -0.17788135114E+01  0.17788135114E+01  0.00000000000E+00 0. -1.
          2    1    1    2  501    0  0.83153316050E+01 -0.23619023011E+02  0.39872748073E+03  0.39951296209E+03  0.00000000000E+00 0. -1.
         -2    1    1    2    0  503 -0.83153316050E+01  0.23619023011E+02  0.11170376148E+03  0.11447590715E+03  0.00000000000E+00 0.  1.
<mgrwt>
<rscale>  2 0.25040028E+02</rscale>
<asrwt>0</asrwt>
<pdfrwt beam="1">  1       21 0.78801429E-01 0.25040028E+02</pdfrwt>
<pdfrwt beam="2">  1       21 0.27366403E-03 0.25040028E+02</pdfrwt>
<totfact> 0.31633667E+07</totfact>
</mgrwt>
</event>
<event>
 4    1  0.2821610E+004  0.3431997E+02  0.7546771E-02  0.1554724E+00
         21   -1    0    0  501  502  0.00000000000E+00  0.00000000000E+00  0.10114953977E+02  0.10114953977E+02  0.00000000000E+00 0.  1.
         21   -1    0    0  502  503 -0.00000000000E+00 -0.00000000000E+00 -0.23393375192E+03  0.23393375192E+03  0.00000000000E+00 0. -1.
          2    1    1    2  501    0 -0.63170002051E+01 -0.33733599886E+02 -0.25433765876E+02  0.42716936916E+02  0.00000000000E+00 0.  1.
         -2    1    1    2    0  503  0.63170002051E+01  0.33733599886E+02 -0.19838503207E+03  0.20133176898E+03  0.00000000000E+00 0. -1.
<mgrwt>
<rscale>  2 0.34319969E+02</rscale>
<asrwt>0</asrwt>
<pdfrwt beam="1">  1       21 0.15561469E-02 0.34319969E+02</pdfrwt>
<pdfrwt beam="2">  1       21 0.35989806E-01 0.34319969E+02</pdfrwt>
<totfact> 0.11731569E+07</totfact>
</mgrwt>
</event>
<event>
 4    1  0.2821610E+004  0.2314824E+02  0.7546771E-02  0.1689118E+00
         21   -1    0    0  503  502  0.00000000000E+00  0.00000000000E+00  0.69931188924E+01  0.69931188924E+01  0.00000000000E+00 0.  1.
         21   -1    0    0  501  503 -0.00000000000E+00 -0.00000000000E+00 -0.77353061090E+02  0.77353061090E+02  0.00000000000E+00 0. -1.
          2    1    1    2  501    0 -0.13562731313E+00  0.23147847660E+02 -0.39274058984E+02  0.45588298445E+02  0.00000000000E+00 0.  1.
         -2    1    1    2    0  502  0.13562731313E+00 -0.23147847660E+02 -0.31085883214E+02  0.38757881537E+02  0.00000000000E+00 0. -1.
<mgrwt>
<rscale>  2 0.23148245E+02</rscale>
<asrwt>0</asrwt>
<pdfrwt beam="1">  1       21 0.10758643E-02 0.23148245E+02</pdfrwt>
<pdfrwt beam="2">  1       21 0.11900472E-01 0.23148245E+02</pdfrwt>
<totfact> 0.13413768E+08</totfact>
</mgrwt>
</event>
<event>
 4    1  0.2821610E+004  0.2089781E+02  0.7546771E-02  0.1728042E+00
         21   -1    0    0  501  502  0.00000000000E+00  0.00000000000E+00  0.58825013414E+03  0.58825013414E+03  0.00000000000E+00 0.  1.
         21   -1    0    0  502  503 -0.00000000000E+00 -0.00000000000E+00 -0.76738544385E+00  0.76738544385E+00  0.00000000000E+00 0. -1.
          2    1    1    2  501    0  0.20699777283E+02  0.28701479630E+01  0.34688007120E+03  0.34750899603E+03  0.00000000000E+00 0.  1.
         -2    1    1    2    0  503 -0.20699777283E+02 -0.28701479630E+01  0.24060267750E+03  0.24150852355E+03  0.00000000000E+00 0. -1.
<mgrwt>
<rscale>  2 0.20897812E+02</rscale>
<asrwt>0</asrwt>
<pdfrwt beam="1">  1       21 0.90499660E-01 0.20897812E+02</pdfrwt>
<pdfrwt beam="2">  1       21 0.11805977E-03 0.20897812E+02</pdfrwt>
<totfact> 0.76082607E+07</totfact>
</mgrwt>
</event>
<event>
 4    1  0.2821610E+004  0.2278107E+02  0.7546771E-02  0.1695084E+00
         21   -1    0    0  501  502  0.00000000000E+00  0.00000000000E+00  0.32408627154E+01  0.32408627154E+01  0.00000000000E+00 0.  1.
         21   -1    0    0  502  503 -0.00000000000E+00 -0.00000000000E+00 -0.24850354993E+03  0.24850354993E+03  0.00000000000E+00 0. -1.
          2    1    1    2  501    0 -0.21406330052E+02  0.77939957440E+01 -0.47570912060E+02  0.52744374204E+02  0.00000000000E+00 0.  1.
         -2    1    1    2    0  503  0.21406330052E+02 -0.77939957440E+01 -0.19769177515E+03  0.19900003844E+03  0.00000000000E+00 0. -1.
<mgrwt>
<rscale>  2 0.22781074E+02</rscale>
<asrwt>0</asrwt>
<pdfrwt beam="1">  1       21 0.49859430E-03 0.22781074E+02</pdfrwt>
<pdfrwt beam="2">  1       21 0.38231312E-01 0.22781074E+02</pdfrwt>
<totfact> 0.53768403E+07</totfact>
</mgrwt>
</event>
<event>
 4    1  0.2821610E+004  0.3475095E+02  0.7546771E-02  0.1550823E+00
         21   -1    0    0  503  502  0.00000000000E+00  0.00000000000E+00  0.19177941327E+02  0.19177941327E+02  0.00000000000E+00 0.  1.
         21   -1    0    0  501  503 -0.00000000000E+00 -0.00000000000E+00 -0.23728393291E+03  0.23728393291E+03  0.00000000000E+00 0. -1.
          2    1    1    2  501    0  0.71258786710E+01  0.34012502067E+02 -0.21895993782E+03  0.22170043485E+03  0.00000000000E+00 0. -1.
         -2    1    1    2    0  502 -0.71258786710E+01 -0.34012502067E+02  0.85394624041E+00  0.34761439382E+02  0.00000000000E+00 0.  1.
<mgrwt>
<rscale>  2 0.34750949E+02</rscale>
<asrwt>0</asrwt>
<pdfrwt beam="1">  1       21 0.29504525E-02 0.34750949E+02</pdfrwt>
<pdfrwt beam="2">  1       21 0.36505221E-01 0.34750949E+02</pdfrwt>
<totfact> 0.42155570E+06</totfact>
</mgrwt>
</event>
<event>
 4    1  0.2821610E+004  0.2000361E+02  0.7546771E-02  0.1745256E+00
         21   -1    0    0  501  502  0.00000000000E+00  0.00000000000E+00  0.72907843161E+00  0.72907843161E+00  0.00000000000E+00 0. -1.
         21   -1    0    0  502  503 -0.00000000000E+00 -0.00000000000E+00 -0.57731802334E+03  0.57731802334E+03  0.00000000000E+00 0.  1.
          2    1    1    2  501    0  0.19810438063E+02 -0.27732511179E+01 -0.22409783729E+03  0.22498885540E+03  0.00000000000E+00 0. -1.
         -2    1    1    2    0  503 -0.19810438063E+02  0.27732511179E+01 -0.35249110762E+03  0.35305824637E+03  0.00000000000E+00 0.  1.
<mgrwt>
<rscale>  2 0.20003609E+02</rscale>
<asrwt>0</asrwt>
<pdfrwt beam="1">  1       21 0.11216592E-03 0.20003609E+02</pdfrwt>
<pdfrwt beam="2">  1       21 0.88818149E-01 0.20003609E+02</pdfrwt>
<totfact> 0.84224940E+07</totfact>
</mgrwt>
</event>
<event>
 4    1  0.2821610E+004  0.2257418E+02  0.7546771E-02  0.1698507E+00
         21   -1    0    0  501  502  0.00000000000E+00  0.00000000000E+00  0.75250568977E+01  0.75250568977E+01  0.00000000000E+00 0.  1.
         21   -1    0    0  502  503 -0.00000000000E+00 -0.00000000000E+00 -0.74856596569E+02  0.74856596569E+02  0.00000000000E+00 0. -1.
          2    1    1    2  501    0  0.66914435026E+01  0.21559647648E+02 -0.20947053081E+02  0.30795662936E+02  0.00000000000E+00 0.  1.
         -2    1    1    2    0  503 -0.66914435026E+01 -0.21559647648E+02 -0.46384486590E+02  0.51585990531E+02  0.00000000000E+00 0. -1.
<mgrwt>
<rscale>  2 0.22574185E+02</rscale>
<asrwt>0</asrwt>
<pdfrwt beam="1">  1       21 0.11577010E-02 0.22574185E+02</pdfrwt>
<pdfrwt beam="2">  1       21 0.11516400E-01 0.22574185E+02</pdfrwt>
<totfact> 0.12595117E+08</totfact>
</mgrwt>
</event>
<event>
 4    1  0.2821610E+004  0.2238260E+02  0.7546771E-02  0.1701718E+00
         21   -1    0    0  501  502  0.00000000000E+00  0.00000000000E+00  0.99703450773E+01  0.99703450773E+01  0.00000000000E+00 0. -1.
         21   -1    0    0  502  503 -0.00000000000E+00 -0.00000000000E+00 -0.51927890180E+02  0.51927890180E+02  0.00000000000E+00 0.  1.
          2    1    1    2  501    0 -0.55577973754E+01 -0.21681597487E+02 -0.26546866588E+02  0.34723434550E+02  0.00000000000E+00 0.  1.
         -2    1    1    2    0  503  0.55577973754E+01  0.21681597487E+02 -0.15410678515E+02  0.27174800708E+02  0.00000000000E+00 0. -1.
<mgrwt>
<rscale>  2 0.22382600E+02</rscale>
<asrwt>0</asrwt>
<pdfrwt beam="1">  1       21 0.15338992E-02 0.22382600E+02</pdfrwt>
<pdfrwt beam="2">  1       21 0.79889062E-02 0.22382600E+02</pdfrwt>
<totfact> 0.14996599E+08</totfact>
</mgrwt>
</event>
<event>
 4    1  0.2821610E+004  0.2667255E+02  0.7546771E-02  0.1638079E+00
         21   -1    0    0  501  502  0.00000000000E+00  0.00000000000E+00  0.63288301178E+02  0.63288301178E+02  0.00000000000E+00 0. -1.
         21   -1    0    0  502  503 -0.00000000000E+00 -0.00000000000E+00 -0.11635594247E+02  0.11635594247E+02  0.00000000000E+00 0.  1.
          2    1    1    2  501    0  0.26528647360E+02  0.27668876992E+01  0.18927725776E+02  0.32706017815E+02  0.00000000000E+00 0.  1.
         -2    1    1    2    0  503 -0.26528647360E+02 -0.27668876992E+01  0.32724981154E+02  0.42217877609E+02  0.00000000000E+00 0. -1.
<mgrwt>
<rscale>  2 0.26672548E+02</rscale>
<asrwt>0</asrwt>
<pdfrwt beam="1">  1       21 0.97366615E-02 0.26672548E+02</pdfrwt>
<pdfrwt beam="2">  1       21 0.17900915E-02 0.26672548E+02</pdfrwt>
<totfact> 0.89824173E+07</totfact>
</mgrwt>
</event>
<event>
 4    1  0.2821610E+004  0.2166286E+02  0.7546771E-02  0.1714149E+00
         21   -1    0    0  501  502  0.00000000000E+00  0.00000000000E+00  0.21377062093E+01  0.21377062093E+01  0.00000000000E+00 0.  1.
         21   -1    0    0  502  503 -0.00000000000E+00 -0.00000000000E+00 -0.34708636962E+03  0.34708636962E+03  0.00000000000E+00 0. -1.
          2    1    1    2  501    0 -0.10287559523E+02  0.19064247099E+02 -0.66618343176E+02  0.70052002441E+02  0.00000000000E+00 0.  1.
         -2    1    1    2    0  503  0.10287559523E+02 -0.19064247099E+02 -0.27833032023E+03  0.27917207339E+03  0.00000000000E+00 0. -1.
<mgrwt>
<rscale>  2 0.21662858E+02</rscale>
<asrwt>0</asrwt>
<pdfrwt beam="1">  1       21 0.32887770E-03 0.21662858E+02</pdfrwt>
<pdfrwt beam="2">  1       21 0.53397932E-01 0.21662858E+02</pdfrwt>
<totfact> 0.51572754E+07</totfact>
</mgrwt>
</event>
<event>
 4    1  0.2821610E+004  0.3740662E+02  0.7546771E-02  0.1528212E+00
         21   -1    0    0  501  502  0.00000000000E+00  0.00000000000E+00  0.81179272916E+01  0.81179272916E+01  0.00000000000E+00 0. -1.
         21   -1    0    0  502  503 -0.00000000000E+00 -0.00000000000E+00 -0.24998465347E+03  0.24998465347E+03  0.00000000000E+00 0.  1.
          2    1    1    2  501    0 -0.18720681314E+02 -0.32385047039E+02 -0.49023485653E+02  0.61664879195E+02  0.00000000000E+00 0. -1.
         -2    1    1    2    0  503  0.18720681314E+02  0.32385047039E+02 -0.19284324052E+03  0.19643770156E+03  0.00000000000E+00 0.  1.
<mgrwt>
<rscale>  2 0.37406619E+02</rscale>
<asrwt>0</asrwt>
<pdfrwt beam="1">  1       21 0.12489120E-02 0.37406619E+02</pdfrwt>
<pdfrwt beam="2">  1       21 0.38459173E-01 0.37406619E+02</pdfrwt>
<totfact> 0.14693429E+07</totfact>
</mgrwt>
</event>
<event>
 4    1  0.2821610E+004  0.2300845E+02  0.7546771E-02  0.1691373E+00
         21   -1    0    0  501  502  0.00000000000E+00  0.00000000000E+00  0.69652139565E+01  0.69652139565E+01  0.00000000000E+00 0.  1.
         21   -1    0    0  502  503 -0.00000000000E+00 -0.00000000000E+00 -0.17736705583E+03  0.17736705583E+03  0.00000000000E+00 0. -1.
          2    1    1    2  501    0 -0.21143483359E+02  0.90742398859E+01 -0.15526506040E+02  0.27757181195E+02  0.00000000000E+00 0.  1.
         -2    1    1    2    0  503  0.21143483359E+02 -0.90742398859E+01 -0.15487533583E+03  0.15657508859E+03  0.00000000000E+00 0. -1.
<mgrwt>
<rscale>  2 0.23008449E+02</rscale>
<asrwt>0</asrwt>
<pdfrwt beam="1">  1       21 0.10715714E-02 0.23008449E+02</pdfrwt>
<pdfrwt beam="2">  1       21 0.27287238E-01 0.23008449E+02</pdfrwt>
<totfact> 0.32022896E+07</totfact>
</mgrwt>
</event>
<event>
 4    1  0.2821610E+004  0.2095453E+02  0.7546771E-02  0.1726986E+00
         21   -1    0    0  501  502  0.00000000000E+00  0.00000000000E+00  0.13277913160E+02  0.13277913160E+02  0.00000000000E+00 0. -1.
         21   -1    0    0  502  503 -0.00000000000E+00 -0.00000000000E+00 -0.36540123841E+02  0.36540123841E+02  0.00000000000E+00 0.  1.
          2    1    1    2  501    0 -0.14831358304E+02  0.14802807794E+02 -0.39542542679E+01  0.21324362465E+02  0.00000000000E+00 0. -1.
         -2    1    1    2    0  503  0.14831358304E+02 -0.14802807794E+02 -0.19307956413E+02  0.28493674536E+02  0.00000000000E+00 0.  1.
<mgrwt>
<rscale>  2 0.20954530E+02</rscale>
<asrwt>0</asrwt>
<pdfrwt beam="1">  1       21 0.20427559E-02 0.20954530E+02</pdfrwt>
<pdfrwt beam="2">  1       21 0.56215575E-02 0.20954530E+02</pdfrwt>
<totfact> 0.16729286E+08</totfact>
</mgrwt>
</event>
<event>
 4    1  0.2821610E+004  0.2562872E+02  0.7546771E-02  0.1652132E+00
         21   -1    0    0  501  502  0.00000000000E+00  0.00000000000E+00  0.14006529304E+03  0.14006529304E+03  0.00000000000E+00 0. -1.
         21   -1    0    0  502  503 -0.00000000000E+00 -0.00000000000E+00 -0.14041625206E+02  0.14041625206E+02  0.00000000000E+00 0.  1.
          2    1    1    2  501    0  0.16170181616E+02 -0.19883569776E+02  0.12589573104E+03  0.12847788220E+03  0.00000000000E+00 0. -1.
         -2    1    1    2    0  503 -0.16170181616E+02  0.19883569776E+02  0.12793678937E+00  0.25629036041E+02  0.00000000000E+00 0.  1.
<mgrwt>
<rscale>  2 0.25628717E+02</rscale>
<asrwt>0</asrwt>
<pdfrwt beam="1">  1       21 0.21548506E-01 0.25628717E+02</pdfrwt>
<pdfrwt beam="2">  1       21 0.21602501E-02 0.25628717E+02</pdfrwt>
<totfact> 0.17143523E+07</totfact>
</mgrwt>
</event>
<event>
 4    1  0.2821610E+004  0.3449339E+02  0.7546771E-02  0.1553146E+00
         21   -1    0    0  501  502  0.00000000000E+00  0.00000000000E+00  0.14660845938E+01  0.14660845938E+01  0.00000000000E+00 0. -1.
         21   -1    0    0  502  503 -0.00000000000E+00 -0.00000000000E+00 -0.81924516536E+03  0.81924516536E+03  0.00000000000E+00 0.  1.
          2    1    1    2  501    0 -0.23741552798E+02 -0.25022638715E+02 -0.36910627063E+03  0.37071448959E+03  0.00000000000E+00 0. -1.
         -2    1    1    2    0  503  0.23741552798E+02  0.25022638715E+02 -0.44867281014E+03  0.44999676036E+03  0.00000000000E+00 0.  1.
<mgrwt>
<rscale>  2 0.34493387E+02</rscale>
<asrwt>0</asrwt>
<pdfrwt beam="1">  1       21 0.22555100E-03 0.34493387E+02</pdfrwt>
<pdfrwt beam="2">  1       21 0.12603798E+00 0.34493387E+02</pdfrwt>
<totfact> 0.15649863E+07</totfact>
</mgrwt>
</event>
<event>
 4    1  0.2821610E+004  0.2684145E+02  0.7546771E-02  0.1635879E+00
         21   -1    0    0  503  502  0.00000000000E+00  0.00000000000E+00  0.54471415112E+03  0.54471415112E+03  0.00000000000E+00 0. -1.
         21   -1    0    0  501  503 -0.00000000000E+00 -0.00000000000E+00 -0.15426093386E+01  0.15426093386E+01  0.00000000000E+00 0.  1.
          2    1    1    2  501    0 -0.17945174374E+02 -0.19960820176E+02  0.16844872953E+03  0.17057384942E+03  0.00000000000E+00 0.  1.
         -2    1    1    2    0  502  0.17945174374E+02  0.19960820176E+02  0.37472281225E+03  0.37568291104E+03  0.00000000000E+00 0. -1.
<mgrwt>
<rscale>  2 0.26841453E+02</rscale>
<asrwt>0</asrwt>
<pdfrwt beam="1">  1       21 0.83802024E-01 0.26841453E+02</pdfrwt>
<pdfrwt beam="2">  1       21 0.23732495E-03 0.26841453E+02</pdfrwt>
<totfact> 0.34648662E+07</totfact>
</mgrwt>
</event>
<event>
 4    1  0.2821610E+004  0.2115159E+02  0.7546771E-02  0.1723352E+00
         21   -1    0    0  501  502  0.00000000000E+00  0.00000000000E+00  0.20416491536E+02  0.20416491536E+02  0.00000000000E+00 0.  1.
         21   -1    0    0  502  503 -0.00000000000E+00 -0.00000000000E+00 -0.37789162275E+02  0.37789162275E+02  0.00000000000E+00 0. -1.
          2    1    1    2  501    0  0.17839944575E+02 -0.11363365916E+02  0.10177161874E+02  0.23472629405E+02  0.00000000000E+00 0.  1.
         -2    1    1    2    0  503 -0.17839944575E+02  0.11363365916E+02 -0.27549832613E+02  0.34733024406E+02  0.00000000000E+00 0. -1.
<mgrwt>
<rscale>  2 0.21151589E+02</rscale>
<asrwt>0</asrwt>
<pdfrwt beam="1">  1       21 0.31409987E-02 0.21151589E+02</pdfrwt>
<pdfrwt beam="2">  1       21 0.58137173E-02 0.21151589E+02</pdfrwt>
<totfact> 0.81890551E+07</totfact>
</mgrwt>
</event>
<event>
 4    1  0.2821610E+004  0.2509654E+02  0.7546771E-02  0.1659619E+00
         21   -1    0    0  503  502  0.00000000000E+00  0.00000000000E+00  0.56450655297E+02  0.56450655297E+02  0.00000000000E+00 0. -1.
         21   -1    0    0  501  503 -0.00000000000E+00 -0.00000000000E+00 -0.53926512562E+02  0.53926512562E+02  0.00000000000E+00 0.  1.
          2    1    1    2  501    0  0.12256191084E+02 -0.21900270691E+02 -0.47886826564E+02  0.54064630162E+02  0.00000000000E+00 0.  1.
         -2    1    1    2    0  502 -0.12256191084E+02  0.21900270691E+02  0.50410969299E+02  0.56312537697E+02  0.00000000000E+00 0. -1.
<mgrwt>
<rscale>  2 0.25096535E+02</rscale>
<asrwt>0</asrwt>
<pdfrwt beam="1">  1       21 0.86847162E-02 0.25096535E+02</pdfrwt>
<pdfrwt beam="2">  1       21 0.82963866E-02 0.25096535E+02</pdfrwt>
<totfact> 0.94472481E+06</totfact>
</mgrwt>
</event>
<event>
 4    1  0.2821610E+004  0.2338495E+02  0.7546771E-02  0.1685345E+00
         21   -1    0    0  503  502  0.00000000000E+00  0.00000000000E+00  0.11126792440E+03  0.11126792440E+03  0.00000000000E+00 0. -1.
         21   -1    0    0  501  503 -0.00000000000E+00 -0.00000000000E+00 -0.49726828241E+01  0.49726828241E+01  0.00000000000E+00 0.  1.
          2    1    1    2  501    0  0.15348946231E+02  0.17642723328E+02  0.59420024716E+02  0.63856050411E+02  0.00000000000E+00 0.  1.
         -2    1    1    2    0  502 -0.15348946231E+02 -0.17642723328E+02  0.46875216857E+02  0.52384556810E+02  0.00000000000E+00 0. -1.
<mgrwt>
<rscale>  2 0.23384949E+02</rscale>
<asrwt>0</asrwt>
<pdfrwt beam="1">  1       21 0.17118140E-01 0.23384949E+02</pdfrwt>
<pdfrwt beam="2">  1       21 0.76502821E-03 0.23384949E+02</pdfrwt>
<totfact> 0.12098860E+08</totfact>
</mgrwt>
</event>
<event>
 4    1  0.2821610E+004  0.2225113E+02  0.7546771E-02  0.1703945E+00
         21   -1    0    0  501  502  0.00000000000E+00  0.00000000000E+00  0.15875266146E+02  0.15875266146E+02  0.00000000000E+00 0.  1.
         21   -1    0    0  502  503 -0.00000000000E+00 -0.00000000000E+00 -0.47869030962E+02  0.47869030962E+02  0.00000000000E+00 0. -1.
          2    1    1    2  501    0 -0.11973824981E+02 -0.18754742876E+02  0.28179136141E+01  0.22428854232E+02  0.00000000000E+00 0.  1.
         -2    1    1    2    0  503  0.11973824981E+02  0.18754742876E+02 -0.34811678429E+02  0.41315442876E+02  0.00000000000E+00 0. -1.
<mgrwt>
<rscale>  2 0.22251132E+02</rscale>
<asrwt>0</asrwt>
<pdfrwt beam="1">  1       21 0.24423487E-02 0.22251132E+02</pdfrwt>
<pdfrwt beam="2">  1       21 0.73644663E-02 0.22251132E+02</pdfrwt>
<totfact> 0.83831220E+07</totfact>
</mgrwt>
</event>
<event>
 4    1  0.2821610E+004  0.3089084E+02  0.7546771E-02  0.1588445E+00
         21   -1    0    0  503  502  0.00000000000E+00  0.00000000000E+00  0.15502301368E+02  0.15502301368E+02  0.00000000000E+00 0.  1.
         21   -1    0    0  501  503 -0.00000000000E+00 -0.00000000000E+00 -0.62342106744E+02  0.62342106744E+02  0.00000000000E+00 0. -1.
          2    1    1    2  501    0 -0.16954820874E+02  0.25822040766E+02 -0.27793421396E+02  0.41553796615E+02  0.00000000000E+00 0. -1.
         -2    1    1    2    0  502  0.16954820874E+02 -0.25822040766E+02 -0.19046383979E+02  0.36290611498E+02  0.00000000000E+00 0.  1.
<mgrwt>
<rscale>  2 0.30890836E+02</rscale>
<asrwt>0</asrwt>
<pdfrwt beam="1">  1       21 0.23849695E-02 0.30890836E+02</pdfrwt>
<pdfrwt beam="2">  1       21 0.95910933E-02 0.30890836E+02</pdfrwt>
<totfact> 0.61196778E+07</totfact>
</mgrwt>
</event>
<event>
 4    1  0.2821610E+004  0.2629040E+02  0.7546771E-02  0.1643130E+00
         21   -1    0    0  503  502  0.00000000000E+00  0.00000000000E+00  0.72705646321E+02  0.72705646321E+02  0.00000000000E+00 0. -1.
         21   -1    0    0  501  503 -0.00000000000E+00 -0.00000000000E+00 -0.96297807926E+01  0.96297807926E+01  0.00000000000E+00 0.  1.
          2    1    1    2  501    0  0.33481198169E+01 -0.26076336628E+02  0.26882309514E+02  0.37601114386E+02  0.00000000000E+00 0. -1.
         -2    1    1    2    0  502 -0.33481198169E+01  0.26076336628E+02  0.36193556015E+02  0.44734312728E+02  0.00000000000E+00 0.  1.
<mgrwt>
<rscale>  2 0.26290402E+02</rscale>
<asrwt>0</asrwt>
<pdfrwt beam="1">  1       21 0.11185484E-01 0.26290402E+02</pdfrwt>
<pdfrwt beam="2">  1       21 0.14815048E-02 0.26290402E+02</pdfrwt>
<totfact> 0.94872678E+07</totfact>
</mgrwt>
</event>
<event>
 4    1  0.2821610E+004  0.2065536E+02  0.7546771E-02  0.1732601E+00
         21   -1    0    0  501  502  0.00000000000E+00  0.00000000000E+00  0.25497160652E+02  0.25497160652E+02  0.00000000000E+00 0.  1.
         21   -1    0    0  502  503 -0.00000000000E+00 -0.00000000000E+00 -0.51697079248E+02  0.51697079248E+02  0.00000000000E+00 0. -1.
          2    1    1    2  501    0 -0.60882029531E+01 -0.19737723901E+02  0.18641943034E+02  0.27823838701E+02  0.00000000000E+00 0.  1.
         -2    1    1    2    0  503  0.60882029531E+01  0.19737723901E+02 -0.44841861630E+02  0.49370401198E+02  0.00000000000E+00 0. -1.
<mgrwt>
<rscale>  2 0.20655362E+02</rscale>
<asrwt>0</asrwt>
<pdfrwt beam="1">  1       21 0.39226402E-02 0.20655362E+02</pdfrwt>
<pdfrwt beam="2">  1       21 0.79533967E-02 0.20655362E+02</pdfrwt>
<totfact> 0.34719651E+07</totfact>
</mgrwt>
</event>
<event>
 4    1  0.2821610E+004  0.2272436E+02  0.7546771E-02  0.1696018E+00
         21   -1    0    0  501  502  0.00000000000E+00  0.00000000000E+00  0.39797762156E+03  0.39797762156E+03  0.00000000000E+00 0. -1.
         21   -1    0    0  502  503 -0.00000000000E+00 -0.00000000000E+00 -0.15540080218E+01  0.15540080218E+01  0.00000000000E+00 0.  1.
          2    1    1    2  501    0 -0.12503439820E+02 -0.18975259819E+02  0.27936420286E+03  0.28028691431E+03  0.00000000000E+00 0. -1.
         -2    1    1    2    0  503  0.12503439820E+02  0.18975259819E+02  0.11705941068E+03  0.11924471528E+03  0.00000000000E+00 0.  1.
<mgrwt>
<rscale>  2 0.22724359E+02</rscale>
<asrwt>0</asrwt>
<pdfrwt beam="1">  1       21 0.61227245E-01 0.22724359E+02</pdfrwt>
<pdfrwt beam="2">  1       21 0.23907847E-03 0.22724359E+02</pdfrwt>
<totfact> 0.63238271E+07</totfact>
</mgrwt>
</event>
<event>
 4    1  0.2821610E+004  0.2947321E+02  0.7546771E-02  0.1603986E+00
         21   -1    0    0  503  502  0.00000000000E+00  0.00000000000E+00  0.13654386734E+03  0.13654386734E+03  0.00000000000E+00 0.  1.
         21   -1    0    0  501  503 -0.00000000000E+00 -0.00000000000E+00 -0.66073602480E+01  0.66073602480E+01  0.00000000000E+00 0. -1.
          2    1    1    2  501    0  0.62966006842E+01 -0.28792757705E+02  0.78765606849E+02  0.84099291904E+02  0.00000000000E+00 0. -1.
         -2    1    1    2    0  502 -0.62966006842E+01  0.28792757705E+02  0.51170900247E+02  0.59051935688E+02  0.00000000000E+00 0.  1.
<mgrwt>
<rscale>  2 0.29473209E+02</rscale>
<asrwt>0</asrwt>
<pdfrwt beam="1">  1       21 0.21006747E-01 0.29473209E+02</pdfrwt>
<pdfrwt beam="2">  1       21 0.10165171E-02 0.29473209E+02</pdfrwt>
<totfact> 0.58501799E+07</totfact>
</mgrwt>
</event>
<event>
 4    1  0.2821610E+004  0.5117897E+02  0.7546771E-02  0.1439084E+00
         21   -1    0    0  501  502  0.00000000000E+00  0.00000000000E+00  0.23442443825E+02  0.23442443825E+02  0.00000000000E+00 0.  1.
         21   -1    0    0  502  503 -0.00000000000E+00 -0.00000000000E+00 -0.18370635638E+03  0.18370635638E+03  0.00000000000E+00 0. -1.
          2    1    1    2  501    0  0.47762121942E+02  0.18386594888E+02 -0.15301785341E+02  0.53417523329E+02  0.00000000000E+00 0. -1.
         -2    1    1    2    0  503 -0.47762121942E+02 -0.18386594888E+02 -0.14496212721E+03  0.15373127688E+03  0.00000000000E+00 0.  1.
<mgrwt>
<rscale>  2 0.51178972E+02</rscale>
<asrwt>0</asrwt>
<pdfrwt beam="1">  1       21 0.36065297E-02 0.51178972E+02</pdfrwt>
<pdfrwt beam="2">  1       21 0.28262517E-01 0.51178972E+02</pdfrwt>
<totfact> 0.51483771E+06</totfact>
</mgrwt>
</event>
<event>
 4    1  0.2821610E+004  0.4368049E+02  0.7546771E-02  0.1482751E+00
         21   -1    0    0  503  502  0.00000000000E+00  0.00000000000E+00  0.11962077779E+03  0.11962077779E+03  0.00000000000E+00 0.  1.
         21   -1    0    0  501  503 -0.00000000000E+00 -0.00000000000E+00 -0.21171354022E+02  0.21171354022E+02  0.00000000000E+00 0. -1.
          2    1    1    2  501    0  0.10201194693E+02  0.42472586328E+02  0.14266116442E+02  0.45951137537E+02  0.00000000000E+00 0. -1.
         -2    1    1    2    0  502 -0.10201194693E+02 -0.42472586328E+02  0.84183307323E+02  0.94840994272E+02  0.00000000000E+00 0.  1.
<mgrwt>
<rscale>  2 0.43680487E+02</rscale>
<asrwt>0</asrwt>
<pdfrwt beam="1">  1       21 0.18403196E-01 0.43680487E+02</pdfrwt>
<pdfrwt beam="2">  1       21 0.32571315E-02 0.43680487E+02</pdfrwt>
<totfact> 0.12984353E+07</totfact>
</mgrwt>
</event>
<event>
 4    1  0.2821610E+004  0.2354775E+02  0.7546771E-02  0.1682782E+00
         21   -1    0    0  501  502  0.00000000000E+00  0.00000000000E+00  0.74622310417E+02  0.74622310417E+02  0.00000000000E+00 0. -1.
         21   -1    0    0  502  503 -0.00000000000E+00 -0.00000000000E+00 -0.75421543776E+01  0.75421543776E+01  0.00000000000E+00 0.  1.
          2    1    1    2  501    0 -0.31947959473E+01 -0.23330023623E+02  0.38533934496E+02  0.45159282890E+02  0.00000000000E+00 0. -1.
         -2    1    1    2    0  503  0.31947959473E+01  0.23330023623E+02  0.28546221544E+02  0.37005181905E+02  0.00000000000E+00 0.  1.
<mgrwt>
<rscale>  2 0.23547754E+02</rscale>
<asrwt>0</asrwt>
<pdfrwt beam="1">  1       21 0.11480355E-01 0.23547754E+02</pdfrwt>
<pdfrwt beam="2">  1       21 0.11603315E-02 0.23547754E+02</pdfrwt>
<totfact> 0.12774465E+08</totfact>
</mgrwt>
</event>
<event>
 4    1  0.2821610E+004  0.2017160E+02  0.7546771E-02  0.1741937E+00
         21   -1    0    0  501  502  0.00000000000E+00  0.00000000000E+00  0.22638121070E+02  0.22638121070E+02  0.00000000000E+00 0. -1.
         21   -1    0    0  502  503 -0.00000000000E+00 -0.00000000000E+00 -0.27438222492E+02  0.27438222492E+02  0.00000000000E+00 0.  1.
          2    1    1    2  501    0  0.19558221682E+02 -0.49365523659E+01  0.12305156762E+02  0.23628594278E+02  0.00000000000E+00 0. -1.
         -2    1    1    2    0  503 -0.19558221682E+02  0.49365523659E+01 -0.17105258185E+02  0.26447749284E+02  0.00000000000E+00 0.  1.
<mgrwt>
<rscale>  2 0.20171603E+02</rscale>
<asrwt>0</asrwt>
<pdfrwt beam="1">  1       21 0.34827878E-02 0.20171603E+02</pdfrwt>
<pdfrwt beam="2">  1       21 0.42212650E-02 0.20171603E+02</pdfrwt>
<totfact> 0.11417968E+08</totfact>
</mgrwt>
</event>
<event>
 4    1  0.2821610E+004  0.2314400E+02  0.7546771E-02  0.1689186E+00
         21   -1    0    0  501  502  0.00000000000E+00  0.00000000000E+00  0.27417784916E+02  0.27417784916E+02  0.00000000000E+00 0.  1.
         21   -1    0    0  502  503 -0.00000000000E+00 -0.00000000000E+00 -0.49637117030E+02  0.49637117030E+02  0.00000000000E+00 0. -1.
          2    1    1    2  501    0 -0.90365861819E+01 -0.21306921525E+02  0.18892694588E+02  0.29876055688E+02  0.00000000000E+00 0.  1.
         -2    1    1    2    0  503  0.90365861819E+01  0.21306921525E+02 -0.41112026702E+02  0.47178846258E+02  0.00000000000E+00 0. -1.
<mgrwt>
<rscale>  2 0.23144001E+02</rscale>
<asrwt>0</asrwt>
<pdfrwt beam="1">  1       21 0.42181208E-02 0.23144001E+02</pdfrwt>
<pdfrwt beam="2">  1       21 0.76364795E-02 0.23144001E+02</pdfrwt>
<totfact> 0.34033244E+07</totfact>
</mgrwt>
</event>
<event>
 4    1  0.2821610E+004  0.2162678E+02  0.7546771E-02  0.1714788E+00
         21   -1    0    0  501  502  0.00000000000E+00  0.00000000000E+00  0.18942242983E+02  0.18942242983E+02  0.00000000000E+00 0. -1.
         21   -1    0    0  502  503 -0.00000000000E+00 -0.00000000000E+00 -0.49402432775E+02  0.49402432775E+02  0.00000000000E+00 0.  1.
          2    1    1    2  501    0  0.19798609170E+02  0.87024648163E+01  0.89380088260E+01  0.23400979055E+02  0.00000000000E+00 0. -1.
         -2    1    1    2    0  503 -0.19798609170E+02 -0.87024648163E+01 -0.39398198619E+02  0.44943696703E+02  0.00000000000E+00 0.  1.
<mgrwt>
<rscale>  2 0.21626785E+02</rscale>
<asrwt>0</asrwt>
<pdfrwt beam="1">  1       21 0.29141913E-02 0.21626785E+02</pdfrwt>
<pdfrwt beam="2">  1       21 0.76003742E-02 0.21626785E+02</pdfrwt>
<totfact> 0.60127415E+07</totfact>
</mgrwt>
</event>
<event>
 4    1  0.2821610E+004  0.4873831E+02  0.7546771E-02  0.1452268E+00
         21   -1    0    0  501  502  0.00000000000E+00  0.00000000000E+00  0.40027684164E+01  0.40027684164E+01  0.00000000000E+00 0. -1.
         21   -1    0    0  502  503 -0.00000000000E+00 -0.00000000000E+00 -0.77573690263E+03  0.77573690263E+03  0.00000000000E+00 0.  1.
          2    1    1    2  501    0  0.26095755549E+02  0.41163503457E+02 -0.19687384672E+03  0.20281699632E+03  0.00000000000E+00 0. -1.
         -2    1    1    2    0  503 -0.26095755549E+02 -0.41163503457E+02 -0.57486028749E+03  0.57692267472E+03  0.00000000000E+00 0.  1.
<mgrwt>
<rscale>  2 0.48738306E+02</rscale>
<asrwt>0</asrwt>
<pdfrwt beam="1">  1       21 0.61581075E-03 0.48738306E+02</pdfrwt>
<pdfrwt beam="2">  1       21 0.11934409E+00 0.48738306E+02</pdfrwt>
<totfact> 0.41142990E+06</totfact>
</mgrwt>
</event>
<event>
 4    1  0.2821610E+004  0.2146283E+02  0.7546771E-02  0.1717711E+00
         21   -1    0    0  501  502  0.00000000000E+00  0.00000000000E+00  0.92244865145E+01  0.92244865145E+01  0.00000000000E+00 0.  1.
         21   -1    0    0  502  503 -0.00000000000E+00 -0.00000000000E+00 -0.59779274090E+02  0.59779274090E+02  0.00000000000E+00 0. -1.
          2    1    1    2  501    0 -0.15042683116E+02 -0.15309167613E+02 -0.11278559784E+02  0.24245800443E+02  0.00000000000E+00 0.  1.
         -2    1    1    2    0  503  0.15042683116E+02  0.15309167613E+02 -0.39276227792E+02  0.44757960162E+02  0.00000000000E+00 0. -1.
<mgrwt>
<rscale>  2 0.21462827E+02</rscale>
<asrwt>0</asrwt>
<pdfrwt beam="1">  1       21 0.14191518E-02 0.21462827E+02</pdfrwt>
<pdfrwt beam="2">  1       21 0.91968112E-02 0.21462827E+02</pdfrwt>
<totfact> 0.13235057E+08</totfact>
</mgrwt>
</event>
<event>
 4    1  0.2821610E+004  0.2809646E+02  0.7546771E-02  0.1620136E+00
         21   -1    0    0  501  502  0.00000000000E+00  0.00000000000E+00  0.29933212312E+02  0.29933212312E+02  0.00000000000E+00 0.  1.
         21   -1    0    0  502  503 -0.00000000000E+00 -0.00000000000E+00 -0.28739275231E+02  0.28739275231E+02  0.00000000000E+00 0. -1.
          2    1    1    2  501    0 -0.67006618543E+01 -0.27285750993E+02  0.90158223870E+01  0.29507560554E+02  0.00000000000E+00 0.  1.
         -2    1    1    2    0  503  0.67006618543E+01  0.27285750993E+02 -0.78218853064E+01  0.29164926989E+02  0.00000000000E+00 0. -1.
<mgrwt>
<rscale>  2 0.28096460E+02</rscale>
<asrwt>0</asrwt>
<pdfrwt beam="1">  1       21 0.46051096E-02 0.28096460E+02</pdfrwt>
<pdfrwt beam="2">  1       21 0.44214269E-02 0.28096460E+02</pdfrwt>
<totfact> 0.74840507E+07</totfact>
</mgrwt>
</event>
<event>
 4    1  0.2821610E+004  0.3191648E+02  0.7546771E-02  0.1577822E+00
         21   -1    0    0  503  502  0.00000000000E+00  0.00000000000E+00  0.10116231246E+04  0.10116231246E+04  0.00000000000E+00 0.  1.
         21   -1    0    0  501  503 -0.00000000000E+00 -0.00000000000E+00 -0.12892956400E+01  0.12892956400E+01  0.00000000000E+00 0. -1.
          2    1    1    2  501    0  0.19076805482E+02 -0.25587828433E+02  0.26816577477E+03  0.27005840892E+03  0.00000000000E+00 0. -1.
         -2    1    1    2    0  502 -0.19076805482E+02  0.25587828433E+02  0.74216805416E+03  0.74285401129E+03  0.00000000000E+00 0.  1.
<mgrwt>
<rscale>  2 0.31916476E+02</rscale>
<asrwt>0</asrwt>
<pdfrwt beam="1">  1       21 0.15563369E+00 0.31916476E+02</pdfrwt>
<pdfrwt beam="2">  1       21 0.19835398E-03 0.31916476E+02</pdfrwt>
<totfact> 0.11312986E+07</totfact>
</mgrwt>
</event>
<event>
 4    1  0.2821610E+004  0.3199901E+02  0.7546771E-02  0.1576988E+00
         21   -1    0    0  503  502  0.00000000000E+00  0.00000000000E+00  0.25405953542E+01  0.25405953542E+01  0.00000000000E+00 0.  1.
         21   -1    0    0  501  503 -0.00000000000E+00 -0.00000000000E+00 -0.55164261138E+03  0.55164261138E+03  0.00000000000E+00 0. -1.
          2    1    1    2  501    0  0.31841287738E+02 -0.31731872645E+01 -0.41837189537E+03  0.41959382688E+03  0.00000000000E+00 0. -1.
         -2    1    1    2    0  502 -0.31841287738E+02  0.31731872645E+01 -0.13073012065E+03  0.13458937985E+03  0.00000000000E+00 0.  1.
<mgrwt>
<rscale>  2 0.31999011E+02</rscale>
<asrwt>0</asrwt>
<pdfrwt beam="1">  1       21 0.39086071E-03 0.31999011E+02</pdfrwt>
<pdfrwt beam="2">  1       21 0.84868119E-01 0.31999011E+02</pdfrwt>
<totfact> 0.16698640E+07</totfact>
</mgrwt>
</event>
<event>
 4    1  0.2821610E+004  0.3178999E+02  0.7546771E-02  0.1579106E+00
         21   -1    0    0  503  502  0.00000000000E+00  0.00000000000E+00  0.21554532023E+02  0.21554532023E+02  0.00000000000E+00 0. -1.
         21   -1    0    0  501  503 -0.00000000000E+00 -0.00000000000E+00 -0.50746581125E+02  0.50746581125E+02  0.00000000000E+00 0.  1.
          2    1    1    2  501    0 -0.15959494450E+02  0.27493601449E+02 -0.24567138711E+02  0.40176459378E+02  0.00000000000E+00 0.  1.
         -2    1    1    2    0  502  0.15959494450E+02 -0.27493601449E+02 -0.46249103917E+01  0.32124653770E+02  0.00000000000E+00 0. -1.
<mgrwt>
<rscale>  2 0.31789992E+02</rscale>
<asrwt>0</asrwt>
<pdfrwt beam="1">  1       21 0.33160819E-02 0.31789992E+02</pdfrwt>
<pdfrwt beam="2">  1       21 0.78071663E-02 0.31789992E+02</pdfrwt>
<totfact> 0.51626348E+07</totfact>
</mgrwt>
</event>
<event>
 4    1  0.2821610E+004  0.2128008E+02  0.7546771E-02  0.1721008E+00
         21   -1    0    0  501  502  0.00000000000E+00  0.00000000000E+00  0.74726004529E+02  0.74726004529E+02  0.00000000000E+00 0. -1.
         21   -1    0    0  502  503 -0.00000000000E+00 -0.00000000000E+00 -0.60764893356E+01  0.60764893356E+01  0.00000000000E+00 0.  1.
          2    1    1    2  501    0 -0.19801522913E+02 -0.77936963333E+01  0.32222227390E+02  0.38614944648E+02  0.00000000000E+00 0.  1.
         -2    1    1    2    0  503  0.19801522913E+02  0.77936963333E+01  0.36427287803E+02  0.42187549217E+02  0.00000000000E+00 0. -1.
<mgrwt>
<rscale>  2 0.21280085E+02</rscale>
<asrwt>0</asrwt>
<pdfrwt beam="1">  1       21 0.11496308E-01 0.21280085E+02</pdfrwt>
<pdfrwt beam="2">  1       21 0.93484456E-03 0.21280085E+02</pdfrwt>
<totfact> 0.17105854E+08</totfact>
</mgrwt>
</event>
<event>
 4    1  0.2821610E+004  0.2011829E+02  0.7546771E-02  0.1742986E+00
         21   -1    0    0  501  502  0.00000000000E+00  0.00000000000E+00  0.64275662727E+01  0.64275662727E+01  0.00000000000E+00 0.  1.
         21   -1    0    0  502  503 -0.00000000000E+00 -0.00000000000E+00 -0.87839446961E+02  0.87839446961E+02  0.00000000000E+00 0. -1.
          2    1    1    2  501    0  0.16355234612E+02  0.11715449117E+02 -0.15626615160E+02  0.25474233033E+02  0.00000000000E+00 0.  1.
         -2    1    1    2    0  503 -0.16355234612E+02 -0.11715449117E+02 -0.65785265528E+02  0.68792780201E+02  0.00000000000E+00 0. -1.
<mgrwt>
<rscale>  2 0.20118286E+02</rscale>
<asrwt>0</asrwt>
<pdfrwt beam="1">  1       21 0.98885627E-03 0.20118286E+02</pdfrwt>
<pdfrwt beam="2">  1       21 0.13513762E-01 0.20118286E+02</pdfrwt>
<totfact> 0.11800569E+08</totfact>
</mgrwt>
</event>
<event>
 4    1  0.2821610E+004  0.2561577E+02  0.7546771E-02  0.1652312E+00
         21   -1    0    0  503  502  0.00000000000E+00  0.00000000000E+00  0.11708166332E+03  0.11708166332E+03  0.00000000000E+00 0. -1.
         21   -1    0    0  501  503 -0.00000000000E+00 -0.00000000000E+00 -0.10368326990E+03  0.10368326990E+03  0.00000000000E+00 0.  1.
          2    1    1    2  501    0  0.14596099637E+02 -0.21050457305E+02 -0.10065859394E+03  0.10386683981E+03  0.00000000000E+00 0.  1.
         -2    1    1    2    0  502 -0.14596099637E+02  0.21050457305E+02  0.11405698736E+03  0.11689809341E+03  0.00000000000E+00 0. -1.
<mgrwt>
<rscale>  2 0.25615774E+02</rscale>
<asrwt>0</asrwt>
<pdfrwt beam="1">  1       21 0.18012564E-01 0.25615774E+02</pdfrwt>
<pdfrwt beam="2">  1       21 0.15951272E-01 0.25615774E+02</pdfrwt>
<totfact> 0.92351658E+05</totfact>
</mgrwt>
</event>
<event>
 4    1  0.2821610E+004  0.2387752E+02  0.7546771E-02  0.1677668E+00
         21   -1    0    0  501  502  0.00000000000E+00  0.00000000000E+00  0.59511769167E+03  0.59511769167E+03  0.00000000000E+00 0.  1.
         21   -1    0    0  502  503 -0.00000000000E+00 -0.00000000000E+00 -0.11870546086E+01  0.11870546086E+01  0.00000000000E+00 0. -1.
          2    1    1    2  501    0  0.18351490573E+02  0.15276085415E+02  0.42792914056E+03  0.42859477987E+03  0.00000000000E+00 0.  1.
         -2    1    1    2    0  503 -0.18351490573E+02 -0.15276085415E+02  0.16600149650E+03  0.16770996641E+03  0.00000000000E+00 0. -1.
<mgrwt>
<rscale>  2 0.23877521E+02</rscale>
<asrwt>0</asrwt>
<pdfrwt beam="1">  1       21 0.91556330E-01 0.23877521E+02</pdfrwt>
<pdfrwt beam="2">  1       21 0.18262426E-03 0.23877521E+02</pdfrwt>
<totfact> 0.40945710E+07</totfact>
</mgrwt>
</event>
<event>
 4    1  0.2821610E+004  0.3252951E+02  0.7546771E-02  0.1571701E+00
         21   -1    0    0  503  502  0.00000000000E+00  0.00000000000E+00  0.22452421712E+02  0.22452421712E+02  0.00000000000E+00 0. -1.
         21   -1    0    0  501  503 -0.00000000000E+00 -0.00000000000E+00 -0.56776682820E+02  0.56776682820E+02  0.00000000000E+00 0.  1.
          2    1    1    2  501    0 -0.27159564758E+02  0.17903274343E+02 -0.33491605589E+02  0.46688936965E+02  0.00000000000E+00 0.  1.
         -2    1    1    2    0  502  0.27159564758E+02 -0.17903274343E+02 -0.83265551852E+00  0.32540167566E+02  0.00000000000E+00 0. -1.
<mgrwt>
<rscale>  2 0.32529513E+02</rscale>
<asrwt>0</asrwt>
<pdfrwt beam="1">  1       21 0.34542187E-02 0.32529513E+02</pdfrwt>
<pdfrwt beam="2">  1       21 0.87348743E-02 0.32529513E+02</pdfrwt>
<totfact> 0.40377195E+07</totfact>
</mgrwt>
</event>
<event>
 4    1  0.2821610E+004  0.6826863E+02  0.7546771E-02  0.1366082E+00
         21   -1    0    0  501  502  0.00000000000E+00  0.00000000000E+00  0.45808121603E+02  0.45808121603E+02  0.00000000000E+00 0. -1.
         21   -1    0    0  502  503 -0.00000000000E+00 -0.00000000000E+00 -0.34206415831E+03  0.34206415831E+03  0.00000000000E+00 0.  1.
          2    1    1    2  501    0  0.68080793451E+02 -0.50607565923E+01  0.14427588150E+02  0.69776507465E+02  0.00000000000E+00 0. -1.
         -2    1    1    2    0  503 -0.68080793451E+02  0.50607565923E+01 -0.31068362486E+03  0.31809577245E+03  0.00000000000E+00 0.  1.
<mgrwt>
<rscale>  2 0.68268629E+02</rscale>
<asrwt>0</asrwt>
<pdfrwt beam="1">  1       21 0.70474038E-02 0.68268629E+02</pdfrwt>
<pdfrwt beam="2">  1       21 0.52625252E-01 0.68268629E+02</pdfrwt>
<totfact> 0.51710429E+05</totfact>
</mgrwt>
</event>
<event>
 4    1  0.2821610E+004  0.2488461E+02  0.7546771E-02  0.1662665E+00
         21   -1    0    0  501  502  0.00000000000E+00  0.00000000000E+00  0.95062228849E+03  0.95062228849E+03  0.00000000000E+00 0.  1.
         21   -1    0    0  502  503 -0.00000000000E+00 -0.00000000000E+00 -0.65794989536E+00  0.65794989536E+00  0.00000000000E+00 0. -1.
          2    1    1    2  501    0 -0.71031426019E+01  0.23849305923E+02  0.52240600792E+03  0.52299835672E+03  0.00000000000E+00 0.  1.
         -2    1    1    2    0  503  0.71031426019E+01 -0.23849305923E+02  0.42755833068E+03  0.42828188166E+03  0.00000000000E+00 0. -1.
<mgrwt>
<rscale>  2 0.24884614E+02</rscale>
<asrwt>0</asrwt>
<pdfrwt beam="1">  1       21 0.14624848E+00 0.24884614E+02</pdfrwt>
<pdfrwt beam="2">  1       21 0.10122382E-03 0.24884614E+02</pdfrwt>
<totfact> 0.33440344E+07</totfact>
</mgrwt>
</event>
<event>
 4    1  0.2821610E+004  0.2107117E+02  0.7546771E-02  0.1724829E+00
         21   -1    0    0  501  502  0.00000000000E+00  0.00000000000E+00  0.70818328618E+01  0.70818328618E+01  0.00000000000E+00 0. -1.
         21   -1    0    0  502  503 -0.00000000000E+00 -0.00000000000E+00 -0.82922345516E+02  0.82922345516E+02  0.00000000000E+00 0.  1.
          2    1    1    2  501    0 -0.15084491768E+01 -0.21017102880E+02 -0.15693884501E+02  0.26273409431E+02  0.00000000000E+00 0. -1.
         -2    1    1    2    0  503  0.15084491768E+01  0.21017102880E+02 -0.60146628153E+02  0.63730768947E+02  0.00000000000E+00 0.  1.
<mgrwt>
<rscale>  2 0.21071166E+02</rscale>
<asrwt>0</asrwt>
<pdfrwt beam="1">  1       21 0.10895128E-02 0.21071166E+02</pdfrwt>
<pdfrwt beam="2">  1       21 0.12757284E-01 0.21071166E+02</pdfrwt>
<totfact> 0.11397091E+08</totfact>
</mgrwt>
</event>
<event>
 4    1  0.2821610E+004  0.2171906E+02  0.7546771E-02  0.1713156E+00
         21   -1    0    0  501  502  0.00000000000E+00  0.00000000000E+00  0.15355525904E+02  0.15355525904E+02  0.00000000000E+00 0. -1.
         21   -1    0    0  502  503 -0.00000000000E+00 -0.00000000000E+00 -0.20378542818E+03  0.20378542818E+03  0.00000000000E+00 0.  1.
          2    1    1    2  501    0  0.24871823932E+01 -0.21576179778E+02  0.67597295980E+01  0.22746682270E+02  0.00000000000E+00 0. -1.
         -2    1    1    2    0  503 -0.24871823932E+01  0.21576179778E+02 -0.19518963187E+03  0.19639427181E+03  0.00000000000E+00 0.  1.
<mgrwt>
<rscale>  2 0.21719061E+02</rscale>
<asrwt>0</asrwt>
<pdfrwt beam="1">  1       21 0.23623886E-02 0.21719061E+02</pdfrwt>
<pdfrwt beam="2">  1       21 0.31351605E-01 0.21719061E+02</pdfrwt>
<totfact> 0.73898097E+06</totfact>
</mgrwt>
</event>
<event>
 4    1  0.2821610E+004  0.2443875E+02  0.7546771E-02  0.1669197E+00
         21   -1    0    0  503  502  0.00000000000E+00  0.00000000000E+00  0.33275311796E+02  0.33275311796E+02  0.00000000000E+00 0.  1.
         21   -1    0    0  501  503 -0.00000000000E+00 -0.00000000000E+00 -0.70352447883E+02  0.70352447883E+02  0.00000000000E+00 0. -1.
          2    1    1    2  501    0  0.20439270891E+02 -0.13397335289E+02 -0.63257066066E+02  0.67813780271E+02  0.00000000000E+00 0. -1.
         -2    1    1    2    0  502 -0.20439270891E+02  0.13397335289E+02  0.26179929979E+02  0.35813979409E+02  0.00000000000E+00 0.  1.
<mgrwt>
<rscale>  2 0.24438748E+02</rscale>
<asrwt>0</asrwt>
<pdfrwt beam="1">  1       21 0.51192787E-02 0.24438748E+02</pdfrwt>
<pdfrwt beam="2">  1       21 0.10823454E-01 0.24438748E+02</pdfrwt>
<totfact> 0.14263255E+07</totfact>
</mgrwt>
</event>
<event>
 4    1  0.2821610E+004  0.2530889E+02  0.7546771E-02  0.1656604E+00
         21   -1    0    0  501  502  0.00000000000E+00  0.00000000000E+00  0.47231137032E+01  0.47231137032E+01  0.00000000000E+00 0.  1.
         21   -1    0    0  502  503 -0.00000000000E+00 -0.00000000000E+00 -0.15163797635E+03  0.15163797635E+03  0.00000000000E+00 0. -1.
          2    1    1    2  501    0 -0.16583454459E+02 -0.19118817397E+02 -0.48046356312E+02  0.54304626831E+02  0.00000000000E+00 0.  1.
         -2    1    1    2    0  503  0.16583454459E+02  0.19118817397E+02 -0.98868506339E+02  0.10205646323E+03  0.00000000000E+00 0. -1.
<mgrwt>
<rscale>  2 0.25308894E+02</rscale>
<asrwt>0</asrwt>
<pdfrwt beam="1">  1       21 0.72663283E-03 0.25308894E+02</pdfrwt>
<pdfrwt beam="2">  1       21 0.23328921E-01 0.25308894E+02</pdfrwt>
<totfact> 0.77636701E+07</totfact>
</mgrwt>
</event>
<event>
 4    1  0.2821610E+004  0.2464850E+02  0.7546771E-02  0.1666103E+00
         21   -1    0    0  503  502  0.00000000000E+00  0.00000000000E+00  0.46692840804E+03  0.46692840804E+03  0.00000000000E+00 0. -1.
         21   -1    0    0  501  503 -0.00000000000E+00 -0.00000000000E+00 -0.14548285661E+01  0.14548285661E+01  0.00000000000E+00 0.  1.
          2    1    1    2  501    0 -0.42183957517E+01  0.24284842823E+02  0.30884969531E+03  0.30983170068E+03  0.00000000000E+00 0. -1.
         -2    1    1    2    0  502  0.42183957517E+01 -0.24284842823E+02  0.15662388416E+03  0.15855153592E+03  0.00000000000E+00 0.  1.
<mgrwt>
<rscale>  2 0.24648498E+02</rscale>
<asrwt>0</asrwt>
<pdfrwt beam="1">  1       21 0.71835020E-01 0.24648498E+02</pdfrwt>
<pdfrwt beam="2">  1       21 0.22382015E-03 0.24648498E+02</pdfrwt>
<totfact> 0.51221735E+07</totfact>
</mgrwt>
</event>
<event>
 4    1  0.2821610E+004  0.2112258E+02  0.7546771E-02  0.1723884E+00
         21   -1    0    0  503  502  0.00000000000E+00  0.00000000000E+00  0.93043938378E+01  0.93043938378E+01  0.00000000000E+00 0. -1.
         21   -1    0    0  501  503 -0.00000000000E+00 -0.00000000000E+00 -0.79392797555E+02  0.79392797555E+02  0.00000000000E+00 0.  1.
          2    1    1    2  501    0  0.11046594119E+02  0.18003781692E+02 -0.62952719027E+02  0.66401869174E+02  0.00000000000E+00 0.  1.
         -2    1    1    2    0  502 -0.11046594119E+02 -0.18003781692E+02 -0.71356846895E+01  0.22295322219E+02  0.00000000000E+00 0. -1.
<mgrwt>
<rscale>  2 0.21122580E+02</rscale>
<asrwt>0</asrwt>
<pdfrwt beam="1">  1       21 0.14314452E-02 0.21122580E+02</pdfrwt>
<pdfrwt beam="2">  1       21 0.12214276E-01 0.21122580E+02</pdfrwt>
<totfact> 0.81296618E+07</totfact>
</mgrwt>
</event>
<event>
 4    1  0.2821610E+004  0.2505623E+02  0.7546771E-02  0.1660196E+00
         21   -1    0    0  501  502  0.00000000000E+00  0.00000000000E+00  0.15900138008E+03  0.15900138008E+03  0.00000000000E+00 0. -1.
         21   -1    0    0  502  503 -0.00000000000E+00 -0.00000000000E+00 -0.16805781566E+02  0.16805781566E+02  0.00000000000E+00 0.  1.
          2    1    1    2  501    0 -0.22286839869E+02  0.11450393451E+02  0.14798464092E+03  0.15009086810E+03  0.00000000000E+00 0. -1.
         -2    1    1    2    0  503  0.22286839869E+02 -0.11450393451E+02 -0.57890424021E+01  0.25716293541E+02  0.00000000000E+00 0.  1.
<mgrwt>
<rscale>  2 0.25056232E+02</rscale>
<asrwt>0</asrwt>
<pdfrwt beam="1">  1       21 0.24461750E-01 0.25056232E+02</pdfrwt>
<pdfrwt beam="2">  1       21 0.25855050E-02 0.25056232E+02</pdfrwt>
<totfact> 0.10319602E+07</totfact>
</mgrwt>
</event>
<event>
 4    1  0.2821610E+004  0.4634661E+02  0.7546771E-02  0.1466106E+00
         21   -1    0    0  503  502  0.00000000000E+00  0.00000000000E+00  0.39261453926E+01  0.39261453926E+01  0.00000000000E+00 0. -1.
         21   -1    0    0  501  503 -0.00000000000E+00 -0.00000000000E+00 -0.55754178334E+03  0.55754178334E+03  0.00000000000E+00 0.  1.
          2    1    1    2  501    0  0.15687361219E+02 -0.43610951843E+02 -0.31521990957E+03  0.31860885081E+03  0.00000000000E+00 0.  1.
         -2    1    1    2    0  502 -0.15687361219E+02  0.43610951843E+02 -0.23839572837E+03  0.24285907792E+03  0.00000000000E+00 0. -1.
<mgrwt>
<rscale>  2 0.46346612E+02</rscale>
<asrwt>0</asrwt>
<pdfrwt beam="1">  1       21 0.60402246E-03 0.46346612E+02</pdfrwt>
<pdfrwt beam="2">  1       21 0.85775646E-01 0.46346612E+02</pdfrwt>
<totfact> 0.89061436E+06</totfact>
</mgrwt>
</event>
<event>
 4    1  0.2821610E+004  0.2222545E+02  0.7546771E-02  0.1704382E+00
         21   -1    0    0  503  502  0.00000000000E+00  0.00000000000E+00  0.14952077605E+03  0.14952077605E+03  0.00000000000E+00 0. -1.
         21   -1    0    0  501  503 -0.00000000000E+00 -0.00000000000E+00 -0.10637358380E+02  0.10637358380E+02  0.00000000000E+00 0.  1.
          2    1    1    2  501    0 -0.15518264943E+02 -0.15910809624E+02  0.29507308522E+01  0.22420464364E+02  0.00000000000E+00 0.  1.
         -2    1    1    2    0  502  0.15518264943E+02  0.15910809624E+02  0.13593268682E+03  0.13773767006E+03  0.00000000000E+00 0. -1.
<mgrwt>
<rscale>  2 0.22225445E+02</rscale>
<asrwt>0</asrwt>
<pdfrwt beam="1">  1       21 0.23003195E-01 0.22225445E+02</pdfrwt>
<pdfrwt beam="2">  1       21 0.16365168E-02 0.22225445E+02</pdfrwt>
<totfact> 0.22693343E+07</totfact>
</mgrwt>
</event>
<event>
 4    1  0.2821610E+004  0.2516829E+02  0.7546771E-02  0.1658596E+00
         21   -1    0    0  503  502  0.00000000000E+00  0.00000000000E+00  0.76607163282E+00  0.76607163282E+00  0.00000000000E+00 0.  1.
         21   -1    0    0  501  503 -0.00000000000E+00 -0.00000000000E+00 -0.14629887857E+04  0.14629887857E+04  0.00000000000E+00 0. -1.
          2    1    1    2  501    0  0.28485956405E+00 -0.25166682084E+02 -0.12137102821E+04  0.12139712072E+04  0.00000000000E+00 0. -1.
         -2    1    1    2    0  502 -0.28485956405E+00  0.25166682084E+02 -0.24851243195E+03  0.24978365012E+03  0.00000000000E+00 0.  1.
<mgrwt>
<rscale>  2 0.25168294E+02</rscale>
<asrwt>0</asrwt>
<pdfrwt beam="1">  1       21 0.11785736E-03 0.25168294E+02</pdfrwt>
<pdfrwt beam="2">  1       21 0.22507484E+00 0.25168294E+02</pdfrwt>
<totfact> 0.90847635E+06</totfact>
</mgrwt>
</event>
<event>
 4    1  0.2821610E+004  0.2615124E+02  0.7546771E-02  0.1644996E+00
         21   -1    0    0  501  502  0.00000000000E+00  0.00000000000E+00  0.15135030997E+01  0.15135030997E+01  0.00000000000E+00 0.  1.
         21   -1    0    0  502  503 -0.00000000000E+00 -0.00000000000E+00 -0.45784341513E+03  0.45784341513E+03  0.00000000000E+00 0. -1.
          2    1    1    2  501    0 -0.18142631513E+02  0.18834331671E+02 -0.20190213240E+03  0.20358869859E+03  0.00000000000E+00 0. -1.
         -2    1    1    2    0  503  0.18142631513E+02 -0.18834331671E+02 -0.25442777964E+03  0.25576821964E+03  0.00000000000E+00 0.  1.
<mgrwt>
<rscale>  2 0.26151236E+02</rscale>
<asrwt>0</asrwt>
<pdfrwt beam="1">  1       21 0.23284687E-03 0.26151236E+02</pdfrwt>
<pdfrwt beam="2">  1       21 0.70437375E-01 0.26151236E+02</pdfrwt>
<totfact> 0.51004210E+07</totfact>
</mgrwt>
</event>
<event>
 4    1  0.2821610E+004  0.2229424E+02  0.7546771E-02  0.1703212E+00
         21   -1    0    0  503  502  0.00000000000E+00  0.00000000000E+00  0.13489100306E+02  0.13489100306E+02  0.00000000000E+00 0.  1.
         21   -1    0    0  501  503 -0.00000000000E+00 -0.00000000000E+00 -0.65393854967E+02  0.65393854967E+02  0.00000000000E+00 0. -1.
          2    1    1    2  501    0 -0.27363767820E+00 -0.22292563709E+02 -0.52011729707E+02  0.56588455549E+02  0.00000000000E+00 0. -1.
         -2    1    1    2    0  502  0.27363767820E+00  0.22292563709E+02  0.10697504549E+00  0.22294499725E+02  0.00000000000E+00 0.  1.
<mgrwt>
<rscale>  2 0.22294243E+02</rscale>
<asrwt>0</asrwt>
<pdfrwt beam="1">  1       21 0.20752462E-02 0.22294243E+02</pdfrwt>
<pdfrwt beam="2">  1       21 0.10060593E-01 0.22294243E+02</pdfrwt>
<totfact> 0.64675775E+07</totfact>
</mgrwt>
</event>
<event>
 4    1  0.2821610E+004  0.2526661E+02  0.7546771E-02  0.1657202E+00
         21   -1    0    0  501  502  0.00000000000E+00  0.00000000000E+00  0.17971755434E+01  0.17971755434E+01  0.00000000000E+00 0.  1.
         21   -1    0    0  502  503 -0.00000000000E+00 -0.00000000000E+00 -0.36362250088E+03  0.36362250088E+03  0.00000000000E+00 0. -1.
          2    1    1    2  501    0  0.18277224159E+02  0.17445474107E+02 -0.20867872911E+03  0.21020279131E+03  0.00000000000E+00 0. -1.
         -2    1    1    2    0  503 -0.18277224159E+02 -0.17445474107E+02 -0.15314659623E+03  0.15521688512E+03  0.00000000000E+00 0.  1.
<mgrwt>
<rscale>  2 0.25266608E+02</rscale>
<asrwt>0</asrwt>
<pdfrwt beam="1">  1       21 0.27648867E-03 0.25266608E+02</pdfrwt>
<pdfrwt beam="2">  1       21 0.55941897E-01 0.25266608E+02</pdfrwt>
<totfact> 0.62830669E+07</totfact>
</mgrwt>
</event>
<event>
 4    1  0.2821610E+004  0.2833988E+02  0.7546771E-02  0.1617199E+00
         21   -1    0    0  501  502  0.00000000000E+00  0.00000000000E+00  0.16017746330E+01  0.16017746330E+01  0.00000000000E+00 0.  1.
         21   -1    0    0  502  503 -0.00000000000E+00 -0.00000000000E+00 -0.61592343488E+03  0.61592343488E+03  0.00000000000E+00 0. -1.
          2    1    1    2  501    0  0.21345346442E+01  0.28259381405E+02 -0.17402776412E+03  0.17632019612E+03  0.00000000000E+00 0.  1.
         -2    1    1    2    0  503 -0.21345346442E+01 -0.28259381405E+02 -0.44029389613E+03  0.44120501339E+03  0.00000000000E+00 0. -1.
<mgrwt>
<rscale>  2 0.28339881E+02</rscale>
<asrwt>0</asrwt>
<pdfrwt beam="1">  1       21 0.24642656E-03 0.28339881E+02</pdfrwt>
<pdfrwt beam="2">  1       21 0.94757569E-01 0.28339881E+02</pdfrwt>
<totfact> 0.25418230E+07</totfact>
</mgrwt>
</event>
<event>
 4    1  0.2821610E+004  0.2015401E+02  0.7546771E-02  0.1742283E+00
         21   -1    0    0  503  502  0.00000000000E+00  0.00000000000E+00  0.63369567868E+01  0.63369567868E+01  0.00000000000E+00 0. -1.
         21   -1    0    0  501  503 -0.00000000000E+00 -0.00000000000E+00 -0.21912488559E+03  0.21912488559E+03  0.00000000000E+00 0.  1.
          2    1    1    2  501    0 -0.44868179315E+01 -0.19648223217E+02 -0.20121423011E+03  0.20222104393E+03  0.00000000000E+00 0.  1.
         -2    1    1    2    0  502  0.44868179315E+01  0.19648223217E+02 -0.11573698689E+02  0.23240798439E+02  0.00000000000E+00 0. -1.
<mgrwt>
<rscale>  2 0.20154012E+02</rscale>
<asrwt>0</asrwt>
<pdfrwt beam="1">  1       21 0.97491664E-03 0.20154012E+02</pdfrwt>
<pdfrwt beam="2">  1       21 0.33711514E-01 0.20154012E+02</pdfrwt>
<totfact> 0.24380289E+07</totfact>
</mgrwt>
</event>
<event>
 4    1  0.2821610E+004  0.2107701E+02  0.7546771E-02  0.1724721E+00
         21   -1    0    0  501  502  0.00000000000E+00  0.00000000000E+00  0.59264382836E+02  0.59264382836E+02  0.00000000000E+00 0.  1.
         21   -1    0    0  502  503 -0.00000000000E+00 -0.00000000000E+00 -0.11809486072E+02  0.11809486072E+02  0.00000000000E+00 0. -1.
          2    1    1    2  501    0  0.18564486853E+02  0.99799903879E+01  0.45204926119E+02  0.49877106227E+02  0.00000000000E+00 0.  1.
         -2    1    1    2    0  503 -0.18564486853E+02 -0.99799903879E+01  0.22499706449E+01  0.21196762681E+02  0.00000000000E+00 0. -1.
<mgrwt>
<rscale>  2 0.21077011E+02</rscale>
<asrwt>0</asrwt>
<pdfrwt beam="1">  1       21 0.91175972E-02 0.21077011E+02</pdfrwt>
<pdfrwt beam="2">  1       21 0.18168440E-02 0.21077011E+02</pdfrwt>
<totfact> 0.91749704E+07</totfact>
</mgrwt>
</event>
<event>
 4    1  0.2821610E+004  0.4104236E+02  0.7546771E-02  0.1500678E+00
         21   -1    0    0  503  502  0.00000000000E+00  0.00000000000E+00  0.65795324528E+02  0.65795324528E+02  0.00000000000E+00 0.  1.
         21   -1    0    0  501  503 -0.00000000000E+00 -0.00000000000E+00 -0.25604311768E+02  0.25604311768E+02  0.00000000000E+00 0. -1.
          2    1    1    2  501    0  0.37187656735E+02  0.17365304364E+02  0.19638605128E+02  0.45498905706E+02  0.00000000000E+00 0. -1.
         -2    1    1    2    0  502 -0.37187656735E+02 -0.17365304364E+02  0.20552407632E+02  0.45900730589E+02  0.00000000000E+00 0.  1.
<mgrwt>
<rscale>  2 0.41042364E+02</rscale>
<asrwt>0</asrwt>
<pdfrwt beam="1">  1       21 0.10122358E-01 0.41042364E+02</pdfrwt>
<pdfrwt beam="2">  1       21 0.39391249E-02 0.41042364E+02</pdfrwt>
<totfact> 0.26695546E+07</totfact>
</mgrwt>
</event>
<event>
 4    1  0.2821610E+004  0.3278729E+02  0.7546771E-02  0.1569176E+00
         21   -1    0    0  503  502  0.00000000000E+00  0.00000000000E+00  0.22772052631E+01  0.22772052631E+01  0.00000000000E+00 0.  1.
         21   -1    0    0  501  503 -0.00000000000E+00 -0.00000000000E+00 -0.91620493328E+03  0.91620493328E+03  0.00000000000E+00 0. -1.
          2    1    1    2  501    0 -0.25043516815E+02  0.21161963920E+02 -0.77670649942E+03  0.77739822015E+03  0.00000000000E+00 0. -1.
         -2    1    1    2    0  502  0.25043516815E+02 -0.21161963920E+02 -0.13722122859E+03  0.14108391839E+03  0.00000000000E+00 0.  1.
<mgrwt>
<rscale>  2 0.32787291E+02</rscale>
<asrwt>0</asrwt>
<pdfrwt beam="1">  1       21 0.35033907E-03 0.32787291E+02</pdfrwt>
<pdfrwt beam="2">  1       21 0.14095469E+00 0.32787291E+02</pdfrwt>
<totfact> 0.62487619E+06</totfact>
</mgrwt>
</event>
<event>
 4    1  0.2821610E+004  0.2958905E+02  0.7546771E-02  0.1602676E+00
         21   -1    0    0  501  502  0.00000000000E+00  0.00000000000E+00  0.90173696424E+01  0.90173696424E+01  0.00000000000E+00 0. -1.
         21   -1    0    0  502  503 -0.00000000000E+00 -0.00000000000E+00 -0.25555484254E+03  0.25555484254E+03  0.00000000000E+00 0.  1.
          2    1    1    2  501    0  0.29008272328E+02  0.58336833085E+01 -0.19100260238E+02  0.35218342743E+02  0.00000000000E+00 0. -1.
         -2    1    1    2    0  503 -0.29008272328E+02 -0.58336833085E+01 -0.22743721266E+03  0.22935386944E+03  0.00000000000E+00 0.  1.
<mgrwt>
<rscale>  2 0.29589047E+02</rscale>
<asrwt>0</asrwt>
<pdfrwt beam="1">  1       21 0.13872878E-02 0.29589047E+02</pdfrwt>
<pdfrwt beam="2">  1       21 0.39316125E-01 0.29589047E+02</pdfrwt>
<totfact> 0.11572830E+07</totfact>
</mgrwt>
</event>
<event>
 4    1  0.2821610E+004  0.2190608E+02  0.7546771E-02  0.1709881E+00
         21   -1    0    0  503  502  0.00000000000E+00  0.00000000000E+00  0.46236012633E+02  0.46236012633E+02  0.00000000000E+00 0. -1.
         21   -1    0    0  501  503 -0.00000000000E+00 -0.00000000000E+00 -0.32320778512E+02  0.32320778512E+02  0.00000000000E+00 0.  1.
          2    1    1    2  501    0 -0.21805763619E+02  0.20940466778E+01 -0.25405496052E+02  0.33545723842E+02  0.00000000000E+00 0.  1.
         -2    1    1    2    0  502  0.21805763619E+02 -0.20940466778E+01  0.39320730172E+02  0.45011067303E+02  0.00000000000E+00 0. -1.
<mgrwt>
<rscale>  2 0.21906080E+02</rscale>
<asrwt>0</asrwt>
<pdfrwt beam="1">  1       21 0.71132327E-02 0.21906080E+02</pdfrwt>
<pdfrwt beam="2">  1       21 0.49724275E-02 0.21906080E+02</pdfrwt>
<totfact> 0.29035245E+07</totfact>
</mgrwt>
</event>
<event>
 4    1  0.2821610E+004  0.2043201E+02  0.7546771E-02  0.1736871E+00
         21   -1    0    0  503  502  0.00000000000E+00  0.00000000000E+00  0.28629355504E+03  0.28629355504E+03  0.00000000000E+00 0. -1.
         21   -1    0    0  501  503 -0.00000000000E+00 -0.00000000000E+00 -0.16122471392E+01  0.16122471392E+01  0.00000000000E+00 0.  1.
          2    1    1    2  501    0 -0.15525048359E+02  0.13283061792E+02  0.97840351176E+02  0.99950993869E+02  0.00000000000E+00 0.  1.
         -2    1    1    2    0  502  0.15525048359E+02 -0.13283061792E+02  0.18684095672E+03  0.18795480831E+03  0.00000000000E+00 0. -1.
<mgrwt>
<rscale>  2 0.20432006E+02</rscale>
<asrwt>0</asrwt>
<pdfrwt beam="1">  1       21 0.44045122E-01 0.20432006E+02</pdfrwt>
<pdfrwt beam="2">  1       21 0.24803825E-03 0.20432006E+02</pdfrwt>
<totfact> 0.11087454E+08</totfact>
</mgrwt>
</event>
<event>
 4    1  0.2821610E+004  0.2981655E+02  0.7546771E-02  0.1600125E+00
         21   -1    0    0  501  502  0.00000000000E+00  0.00000000000E+00  0.44610224425E+03  0.44610224425E+03  0.00000000000E+00 0.  1.
         21   -1    0    0  502  503 -0.00000000000E+00 -0.00000000000E+00 -0.20272542157E+01  0.20272542157E+01  0.00000000000E+00 0. -1.
          2    1    1    2  501    0  0.29791466170E+02  0.12226886259E+01  0.25121590021E+03  0.25297915911E+03  0.00000000000E+00 0. -1.
         -2    1    1    2    0  503 -0.29791466170E+02 -0.12226886259E+01  0.19285908982E+03  0.19515033935E+03  0.00000000000E+00 0.  1.
<mgrwt>
<rscale>  2 0.29816546E+02</rscale>
<asrwt>0</asrwt>
<pdfrwt beam="1">  1       21 0.68631036E-01 0.29816546E+02</pdfrwt>
<pdfrwt beam="2">  1       21 0.31188562E-03 0.29816546E+02</pdfrwt>
<totfact> 0.36025820E+07</totfact>
</mgrwt>
</event>
<event>
 4    1  0.2821610E+004  0.5596306E+02  0.7546771E-02  0.1415599E+00
         21   -1    0    0  501  502  0.00000000000E+00  0.00000000000E+00  0.99880782225E+02  0.99880782225E+02  0.00000000000E+00 0.  1.
         21   -1    0    0  502  503 -0.00000000000E+00 -0.00000000000E+00 -0.33964739974E+02  0.33964739974E+02  0.00000000000E+00 0. -1.
          2    1    1    2  501    0 -0.55151979704E+02 -0.94933368279E+01  0.51504993073E+02  0.76056746058E+02  0.00000000000E+00 0.  1.
         -2    1    1    2    0  503  0.55151979704E+02  0.94933368279E+01  0.14411049178E+02  0.57788776141E+02  0.00000000000E+00 0. -1.
<mgrwt>
<rscale>  2 0.55963062E+02</rscale>
<asrwt>0</asrwt>
<pdfrwt beam="1">  1       21 0.15366274E-01 0.55963062E+02</pdfrwt>
<pdfrwt beam="2">  1       21 0.52253447E-02 0.55963062E+02</pdfrwt>
<totfact> 0.85536971E+06</totfact>
</mgrwt>
</event>
<event>
 4    1  0.2821610E+004  0.2218167E+02  0.7546771E-02  0.1705129E+00
         21   -1    0    0  501  502  0.00000000000E+00  0.00000000000E+00  0.27317771576E+02  0.27317771576E+02  0.00000000000E+00 0. -1.
         21   -1    0    0  502  503 -0.00000000000E+00 -0.00000000000E+00 -0.27476028478E+02  0.27476028478E+02  0.00000000000E+00 0.  1.
          2    1    1    2  501    0  0.14163104842E+02  0.17071411625E+02  0.16000653667E+02  0.27350457975E+02  0.00000000000E+00 0. -1.
         -2    1    1    2    0  503 -0.14163104842E+02 -0.17071411625E+02 -0.16158910570E+02  0.27443342079E+02  0.00000000000E+00 0.  1.
<mgrwt>
<rscale>  2 0.22181673E+02</rscale>
<asrwt>0</asrwt>
<pdfrwt beam="1">  1       21 0.42027341E-02 0.22181673E+02</pdfrwt>
<pdfrwt beam="2">  1       21 0.42270813E-02 0.22181673E+02</pdfrwt>
<totfact> 0.87269000E+07</totfact>
</mgrwt>
</event>
<event>
 4    1  0.2821610E+004  0.2063565E+02  0.7546771E-02  0.1732975E+00
         21   -1    0    0  501  502  0.00000000000E+00  0.00000000000E+00  0.20437861787E+01  0.20437861787E+01  0.00000000000E+00 0.  1.
         21   -1    0    0  502  503 -0.00000000000E+00 -0.00000000000E+00 -0.44742061733E+03  0.44742061733E+03  0.00000000000E+00 0. -1.
          2    1    1    2  501    0 -0.19883635620E+02  0.55200728872E+01 -0.58415048545E+02  0.61952789014E+02  0.00000000000E+00 0.  1.
         -2    1    1    2    0  503  0.19883635620E+02 -0.55200728872E+01 -0.38696178260E+03  0.38751161449E+03  0.00000000000E+00 0. -1.
<mgrwt>
<rscale>  2 0.20635653E+02</rscale>
<asrwt>0</asrwt>
<pdfrwt beam="1">  1       21 0.31442811E-03 0.20635653E+02</pdfrwt>
<pdfrwt beam="2">  1       21 0.68834058E-01 0.20635653E+02</pdfrwt>
<totfact> 0.32798915E+07</totfact>
</mgrwt>
</event>
<event>
 4    1  0.2821610E+004  0.2241979E+02  0.7546771E-02  0.1701092E+00
         21   -1    0    0  501  502  0.00000000000E+00  0.00000000000E+00  0.30487483693E+03  0.30487483693E+03  0.00000000000E+00 0.  1.
         21   -1    0    0  502  503 -0.00000000000E+00 -0.00000000000E+00 -0.20053149540E+01  0.20053149540E+01  0.00000000000E+00 0. -1.
          2    1    1    2  501    0 -0.19802537869E+02  0.10512200072E+02  0.21614125328E+03  0.21730091631E+03  0.00000000000E+00 0.  1.
         -2    1    1    2    0  503  0.19802537869E+02 -0.10512200072E+02  0.86728268695E+02  0.89579235581E+02  0.00000000000E+00 0. -1.
<mgrwt>
<rscale>  2 0.22419787E+02</rscale>
<asrwt>0</asrwt>
<pdfrwt beam="1">  1       21 0.46903784E-01 0.22419787E+02</pdfrwt>
<pdfrwt beam="2">  1       21 0.30851024E-03 0.22419787E+02</pdfrwt>
<totfact> 0.73422627E+07</totfact>
</mgrwt>
</event>
<event>
 4    1  0.2821610E+004  0.2563635E+02  0.7546771E-02  0.1652027E+00
         21   -1    0    0  501  502  0.00000000000E+00  0.00000000000E+00  0.15007276504E+02  0.15007276504E+02  0.00000000000E+00 0. -1.
         21   -1    0    0  502  503 -0.00000000000E+00 -0.00000000000E+00 -0.43968804993E+02  0.43968804993E+02  0.00000000000E+00 0.  1.
          2    1    1    2  501    0  0.11203198655E+01  0.25611858000E+02 -0.16342292961E+02  0.30402186205E+02  0.00000000000E+00 0.  1.
         -2    1    1    2    0  503 -0.11203198655E+01 -0.25611858000E+02 -0.12619235528E+02  0.28573895292E+02  0.00000000000E+00 0. -1.
<mgrwt>
<rscale>  2 0.25636349E+02</rscale>
<asrwt>0</asrwt>
<pdfrwt beam="1">  1       21 0.23088118E-02 0.25636349E+02</pdfrwt>
<pdfrwt beam="2">  1       21 0.67644315E-02 0.25636349E+02</pdfrwt>
<totfact> 0.10917423E+08</totfact>
</mgrwt>
</event>
<event>
 4    1  0.2821610E+004  0.2272840E+02  0.7546771E-02  0.1695951E+00
         21   -1    0    0  501  502  0.00000000000E+00  0.00000000000E+00  0.48761008519E+01  0.48761008519E+01  0.00000000000E+00 0.  1.
         21   -1    0    0  502  503 -0.00000000000E+00 -0.00000000000E+00 -0.37698104707E+03  0.37698104707E+03  0.00000000000E+00 0. -1.
          2    1    1    2  501    0  0.19295284310E+02 -0.12011341012E+02 -0.24159616012E+02  0.33170278193E+02  0.00000000000E+00 0.  1.
         -2    1    1    2    0  503 -0.19295284310E+02  0.12011341012E+02 -0.34794533020E+03  0.34868686973E+03  0.00000000000E+00 0. -1.
<mgrwt>
<rscale>  2 0.22728403E+02</rscale>
<asrwt>0</asrwt>
<pdfrwt beam="1">  1       21 0.75016953E-03 0.22728403E+02</pdfrwt>
<pdfrwt beam="2">  1       21 0.57997071E-01 0.22728403E+02</pdfrwt>
<totfact> 0.13140460E+07</totfact>
</mgrwt>
</event>
<event>
 4    1  0.2821610E+004  0.2638811E+02  0.7546771E-02  0.1641829E+00
         21   -1    0    0  501  502  0.00000000000E+00  0.00000000000E+00  0.67114503390E+01  0.67114503390E+01  0.00000000000E+00 0. -1.
         21   -1    0    0  502  503 -0.00000000000E+00 -0.00000000000E+00 -0.26004540296E+03  0.26004540296E+03  0.00000000000E+00 0.  1.
          2    1    1    2  501    0 -0.26076657476E+02 -0.40423220968E+01 -0.23264706198E+02  0.35179240860E+02  0.00000000000E+00 0. -1.
         -2    1    1    2    0  503  0.26076657476E+02  0.40423220968E+01 -0.23006924643E+03  0.23157761244E+03  0.00000000000E+00 0.  1.
<mgrwt>
<rscale>  2 0.26388112E+02</rscale>
<asrwt>0</asrwt>
<pdfrwt beam="1">  1       21 0.10325307E-02 0.26388112E+02</pdfrwt>
<pdfrwt beam="2">  1       21 0.40006988E-01 0.26388112E+02</pdfrwt>
<totfact> 0.17193195E+07</totfact>
</mgrwt>
</event>
<event>
 4    1  0.2821610E+004  0.3455831E+02  0.7546771E-02  0.1552558E+00
         21   -1    0    0  501  502  0.00000000000E+00  0.00000000000E+00  0.11456406854E+04  0.11456406854E+04  0.00000000000E+00 0. -1.
         21   -1    0    0  502  503 -0.00000000000E+00 -0.00000000000E+00 -0.13450768030E+01  0.13450768030E+01  0.00000000000E+00 0.  1.
          2    1    1    2  501    0  0.56990352339E+01 -0.34085157197E+02  0.84417091188E+03  0.84487798255E+03  0.00000000000E+00 0. -1.
         -2    1    1    2    0  503 -0.56990352339E+01  0.34085157197E+02  0.30012469672E+03  0.30210777965E+03  0.00000000000E+00 0.  1.
<mgrwt>
<rscale>  2 0.34558312E+02</rscale>
<asrwt>0</asrwt>
<pdfrwt beam="1">  1       21 0.17625163E+00 0.34558312E+02</pdfrwt>
<pdfrwt beam="2">  1       21 0.20693581E-03 0.34558312E+02</pdfrwt>
<totfact> 0.78618688E+06</totfact>
</mgrwt>
</event>
<event>
 4    1  0.2821610E+004  0.2868186E+02  0.7546771E-02  0.1613133E+00
         21   -1    0    0  501  502  0.00000000000E+00  0.00000000000E+00  0.45783077057E+02  0.45783077057E+02  0.00000000000E+00 0.  1.
         21   -1    0    0  502  503 -0.00000000000E+00 -0.00000000000E+00 -0.19607579730E+02  0.19607579730E+02  0.00000000000E+00 0. -1.
          2    1    1    2  501    0  0.19587595443E+02  0.20951739111E+02  0.22541086689E+02  0.36479444296E+02  0.00000000000E+00 0. -1.
         -2    1    1    2    0  503 -0.19587595443E+02 -0.20951739111E+02  0.36344106386E+01  0.28911212491E+02  0.00000000000E+00 0.  1.
<mgrwt>
<rscale>  2 0.28681863E+02</rscale>
<asrwt>0</asrwt>
<pdfrwt beam="1">  1       21 0.70435503E-02 0.28681863E+02</pdfrwt>
<pdfrwt beam="2">  1       21 0.30165507E-02 0.28681863E+02</pdfrwt>
<totfact> 0.69337250E+07</totfact>
</mgrwt>
</event>
<event>
 4    1  0.2821610E+004  0.2252693E+02  0.7546771E-02  0.1699295E+00
         21   -1    0    0  503  502  0.00000000000E+00  0.00000000000E+00  0.31510274920E+01  0.31510274920E+01  0.00000000000E+00 0. -1.
         21   -1    0    0  501  503 -0.00000000000E+00 -0.00000000000E+00 -0.23811951967E+03  0.23811951967E+03  0.00000000000E+00 0.  1.
          2    1    1    2  501    0  0.22515639224E+02  0.71302464648E+00 -0.18611639328E+03  0.18747472966E+03  0.00000000000E+00 0.  1.
         -2    1    1    2    0  502 -0.22515639224E+02 -0.71302464648E+00 -0.48852098893E+02  0.53795817496E+02  0.00000000000E+00 0. -1.
<mgrwt>
<rscale>  2 0.22526926E+02</rscale>
<asrwt>0</asrwt>
<pdfrwt beam="1">  1       21 0.48477331E-03 0.22526926E+02</pdfrwt>
<pdfrwt beam="2">  1       21 0.36633784E-01 0.22526926E+02</pdfrwt>
<totfact> 0.60521484E+07</totfact>
</mgrwt>
</event>
<event>
 4    1  0.2821610E+004  0.3512071E+02  0.7546771E-02  0.1547531E+00
         21   -1    0    0  503  502  0.00000000000E+00  0.00000000000E+00  0.55322051357E+01  0.55322051357E+01  0.00000000000E+00 0. -1.
         21   -1    0    0  501  503 -0.00000000000E+00 -0.00000000000E+00 -0.33971123933E+03  0.33971123933E+03  0.00000000000E+00 0.  1.
          2    1    1    2  501    0 -0.21322596475E+02  0.27907183664E+02 -0.26828707658E+03  0.27057608816E+03  0.00000000000E+00 0.  1.
         -2    1    1    2    0  502  0.21322596475E+02 -0.27907183664E+02 -0.65891957616E+02  0.74667356314E+02  0.00000000000E+00 0. -1.
<mgrwt>
<rscale>  2 0.35120706E+02</rscale>
<asrwt>0</asrwt>
<pdfrwt beam="1">  1       21 0.85110839E-03 0.35120706E+02</pdfrwt>
<pdfrwt beam="2">  1       21 0.52263274E-01 0.35120706E+02</pdfrwt>
<totfact> 0.14373926E+07</totfact>
</mgrwt>
</event>
<event>
 4    1  0.2821610E+004  0.2944491E+02  0.7546771E-02  0.1604307E+00
         21   -1    0    0  501  502  0.00000000000E+00  0.00000000000E+00  0.50116797954E+01  0.50116797954E+01  0.00000000000E+00 0. -1.
         21   -1    0    0  502  503 -0.00000000000E+00 -0.00000000000E+00 -0.17355448240E+03  0.17355448240E+03  0.00000000000E+00 0.  1.
          2    1    1    2  501    0 -0.18960782114E+02 -0.22527570278E+02 -0.79208596088E+02  0.84504463641E+02  0.00000000000E+00 0. -1.
         -2    1    1    2    0  503  0.18960782114E+02  0.22527570278E+02 -0.89334206521E+02  0.94061698559E+02  0.00000000000E+00 0.  1.
<mgrwt>
<rscale>  2 0.29444909E+02</rscale>
<asrwt>0</asrwt>
<pdfrwt beam="1">  1       21 0.77102753E-03 0.29444909E+02</pdfrwt>
<pdfrwt beam="2">  1       21 0.26700694E-01 0.29444909E+02</pdfrwt>
<totfact> 0.57760339E+07</totfact>
</mgrwt>
</event>
<event>
 4    1  0.2821610E+004  0.2485690E+02  0.7546771E-02  0.1663066E+00
         21   -1    0    0  501  502  0.00000000000E+00  0.00000000000E+00  0.15307167690E+03  0.15307167690E+03  0.00000000000E+00 0.  1.
         21   -1    0    0  502  503 -0.00000000000E+00 -0.00000000000E+00 -0.40413914531E+01  0.40413914531E+01  0.00000000000E+00 0. -1.
          2    1    1    2  501    0 -0.23786286445E+02 -0.72165035743E+01  0.77263546185E+02  0.81163544254E+02  0.00000000000E+00 0.  1.
         -2    1    1    2    0  503  0.23786286445E+02  0.72165035743E+01  0.71766739260E+02  0.75949524098E+02  0.00000000000E+00 0. -1.
<mgrwt>
<rscale>  2 0.24856897E+02</rscale>
<asrwt>0</asrwt>
<pdfrwt beam="1">  1       21 0.23549484E-01 0.24856897E+02</pdfrwt>
<pdfrwt beam="2">  1       21 0.62175265E-03 0.24856897E+02</pdfrwt>
<totfact> 0.95883359E+07</totfact>
</mgrwt>
</event>
<event>
 4    1  0.2821610E+004  0.2098038E+02  0.7546771E-02  0.1726507E+00
         21   -1    0    0  501  502  0.00000000000E+00  0.00000000000E+00  0.15690500913E+02  0.15690500913E+02  0.00000000000E+00 0. -1.
         21   -1    0    0  502  503 -0.00000000000E+00 -0.00000000000E+00 -0.35684342700E+02  0.35684342700E+02  0.00000000000E+00 0.  1.
          2    1    1    2  501    0  0.36495177663E+01 -0.20660524884E+02  0.18816128830E+01  0.21064584863E+02  0.00000000000E+00 0. -1.
         -2    1    1    2    0  503 -0.36495177663E+01  0.20660524884E+02 -0.21875454670E+02  0.30310258749E+02  0.00000000000E+00 0.  1.
<mgrwt>
<rscale>  2 0.20980378E+02</rscale>
<asrwt>0</asrwt>
<pdfrwt beam="1">  1       21 0.24139232E-02 0.20980378E+02</pdfrwt>
<pdfrwt beam="2">  1       21 0.54898988E-02 0.20980378E+02</pdfrwt>
<totfact> 0.13451815E+08</totfact>
</mgrwt>
</event>
<event>
 4    1  0.2821610E+004  0.3595285E+02  0.7546771E-02  0.1540298E+00
         21   -1    0    0  503  502  0.00000000000E+00  0.00000000000E+00  0.36858495850E+03  0.36858495850E+03  0.00000000000E+00 0.  1.
         21   -1    0    0  501  503 -0.00000000000E+00 -0.00000000000E+00 -0.38876879400E+01  0.38876879400E+01  0.00000000000E+00 0. -1.
          2    1    1    2  501    0 -0.32541828361E+02  0.15285189771E+02  0.12406670383E+03  0.12917102856E+03  0.00000000000E+00 0. -1.
         -2    1    1    2    0  502  0.32541828361E+02 -0.15285189771E+02  0.24063056672E+03  0.24330161787E+03  0.00000000000E+00 0.  1.
<mgrwt>
<rscale>  2 0.35952853E+02</rscale>
<asrwt>0</asrwt>
<pdfrwt beam="1">  1       21 0.56705351E-01 0.35952853E+02</pdfrwt>
<pdfrwt beam="2">  1       21 0.59810613E-03 0.35952853E+02</pdfrwt>
<totfact> 0.20862673E+07</totfact>
</mgrwt>
</event>
<event>
 4    1  0.2821610E+004  0.2048412E+02  0.7546771E-02  0.1735869E+00
         21   -1    0    0  503  502  0.00000000000E+00  0.00000000000E+00  0.69856663395E+02  0.69856663395E+02  0.00000000000E+00 0.  1.
         21   -1    0    0  501  503 -0.00000000000E+00 -0.00000000000E+00 -0.64015450510E+01  0.64015450510E+01  0.00000000000E+00 0. -1.
          2    1    1    2  501    0  0.90423017791E+01  0.18380311800E+02  0.22256514339E+02  0.30248165462E+02  0.00000000000E+00 0. -1.
         -2    1    1    2    0  502 -0.90423017791E+01 -0.18380311800E+02  0.41198604005E+02  0.46010042983E+02  0.00000000000E+00 0.  1.
<mgrwt>
<rscale>  2 0.20484118E+02</rscale>
<asrwt>0</asrwt>
<pdfrwt beam="1">  1       21 0.10747178E-01 0.20484118E+02</pdfrwt>
<pdfrwt beam="2">  1       21 0.98485313E-03 0.20484118E+02</pdfrwt>
<totfact> 0.17487079E+08</totfact>
</mgrwt>
</event>
<event>
 4    1  0.2821610E+004  0.2279613E+02  0.7546771E-02  0.1694836E+00
         21   -1    0    0  503  502  0.00000000000E+00  0.00000000000E+00  0.76303024821E+01  0.76303024821E+01  0.00000000000E+00 0. -1.
         21   -1    0    0  501  503 -0.00000000000E+00 -0.00000000000E+00 -0.74275475051E+02  0.74275475051E+02  0.00000000000E+00 0.  1.
          2    1    1    2  501    0  0.32239156659E+01 -0.22567011179E+02 -0.45126131668E+02  0.50557209032E+02  0.00000000000E+00 0.  1.
         -2    1    1    2    0  502 -0.32239156659E+01  0.22567011179E+02 -0.21519040900E+02  0.31348568501E+02  0.00000000000E+00 0. -1.
<mgrwt>
<rscale>  2 0.22796132E+02</rscale>
<asrwt>0</asrwt>
<pdfrwt beam="1">  1       21 0.11738927E-02 0.22796132E+02</pdfrwt>
<pdfrwt beam="2">  1       21 0.11426996E-01 0.22796132E+02</pdfrwt>
<totfact> 0.12531333E+08</totfact>
</mgrwt>
</event>
<event>
 4    1  0.2821610E+004  0.2902491E+02  0.7546771E-02  0.1609124E+00
         21   -1    0    0  501  502  0.00000000000E+00  0.00000000000E+00  0.34692621486E+01  0.34692621486E+01  0.00000000000E+00 0. -1.
         21   -1    0    0  502  503 -0.00000000000E+00 -0.00000000000E+00 -0.36646810954E+03  0.36646810954E+03  0.00000000000E+00 0.  1.
          2    1    1    2  501    0 -0.26104456521E+02 -0.12688678534E+02 -0.74062361212E+02  0.79546706793E+02  0.00000000000E+00 0. -1.
         -2    1    1    2    0  503  0.26104456521E+02  0.12688678534E+02 -0.28893648618E+03  0.29039066490E+03  0.00000000000E+00 0.  1.
<mgrwt>
<rscale>  2 0.29024907E+02</rscale>
<asrwt>0</asrwt>
<pdfrwt beam="1">  1       21 0.53373255E-03 0.29024907E+02</pdfrwt>
<pdfrwt beam="2">  1       21 0.56379718E-01 0.29024907E+02</pdfrwt>
<totfact> 0.24144373E+07</totfact>
</mgrwt>
</event>
<event>
 4    1  0.2821610E+004  0.2999290E+02  0.7546771E-02  0.1598167E+00
         21   -1    0    0  503  502  0.00000000000E+00  0.00000000000E+00  0.35118384314E+03  0.35118384314E+03  0.00000000000E+00 0. -1.
         21   -1    0    0  501  503 -0.00000000000E+00 -0.00000000000E+00 -0.39678603451E+01  0.39678603451E+01  0.00000000000E+00 0.  1.
          2    1    1    2  501    0 -0.23504668014E+02 -0.18630748392E+02  0.67890550552E+02  0.74220624211E+02  0.00000000000E+00 0.  1.
         -2    1    1    2    0  502  0.23504668014E+02  0.18630748392E+02  0.27932543224E+03  0.28093107927E+03  0.00000000000E+00 0. -1.
<mgrwt>
<rscale>  2 0.29992903E+02</rscale>
<asrwt>0</asrwt>
<pdfrwt beam="1">  1       21 0.54028259E-01 0.29992903E+02</pdfrwt>
<pdfrwt beam="2">  1       21 0.61044033E-03 0.29992903E+02</pdfrwt>
<totfact> 0.21637728E+07</totfact>
</mgrwt>
</event>
<event>
 4    1  0.2821610E+004  0.2122124E+02  0.7546771E-02  0.1722079E+00
         21   -1    0    0  501  502  0.00000000000E+00  0.00000000000E+00  0.37921345510E+02  0.37921345510E+02  0.00000000000E+00 0.  1.
         21   -1    0    0  502  503 -0.00000000000E+00 -0.00000000000E+00 -0.29066305473E+02  0.29066305473E+02  0.00000000000E+00 0. -1.
          2    1    1    2  501    0  0.16627075231E+02  0.13186402231E+02  0.30185748166E+02  0.36898783542E+02  0.00000000000E+00 0.  1.
         -2    1    1    2    0  503 -0.16627075231E+02 -0.13186402231E+02 -0.21330708130E+02  0.30088867441E+02  0.00000000000E+00 0. -1.
<mgrwt>
<rscale>  2 0.21221235E+02</rscale>
<asrwt>0</asrwt>
<pdfrwt beam="1">  1       21 0.58340532E-02 0.21221235E+02</pdfrwt>
<pdfrwt beam="2">  1       21 0.44717393E-02 0.21221235E+02</pdfrwt>
<totfact> 0.46869696E+07</totfact>
</mgrwt>
</event>
<event>
 4    1  0.2821610E+004  0.3138152E+02  0.7546771E-02  0.1583301E+00
         21   -1    0    0  501  502  0.00000000000E+00  0.00000000000E+00  0.27115307665E+03  0.27115307665E+03  0.00000000000E+00 0.  1.
         21   -1    0    0  502  503 -0.00000000000E+00 -0.00000000000E+00 -0.36819344975E+01  0.36819344975E+01  0.00000000000E+00 0. -1.
          2    1    1    2  501    0 -0.19183509536E+02 -0.24835313545E+02  0.14975529996E+03  0.15300800536E+03  0.00000000000E+00 0.  1.
         -2    1    1    2    0  503  0.19183509536E+02  0.24835313545E+02  0.11771584219E+03  0.12182700579E+03  0.00000000000E+00 0. -1.
<mgrwt>
<rscale>  2 0.31381521E+02</rscale>
<asrwt>0</asrwt>
<pdfrwt beam="1">  1       21 0.41715842E-01 0.31381521E+02</pdfrwt>
<pdfrwt beam="2">  1       21 0.56645167E-03 0.31381521E+02</pdfrwt>
<totfact> 0.40428606E+07</totfact>
</mgrwt>
</event>
<event>
 4    1  0.2821610E+004  0.7706361E+02  0.7546771E-02  0.1337597E+00
         21   -1    0    0  503  502  0.00000000000E+00  0.00000000000E+00  0.37488247966E+03  0.37488247966E+03  0.00000000000E+00 0. -1.
         21   -1    0    0  501  503 -0.00000000000E+00 -0.00000000000E+00 -0.45303885164E+02  0.45303885164E+02  0.00000000000E+00 0.  1.
          2    1    1    2  501    0 -0.34723637241E+02  0.68797304216E+02 -0.46352118144E+01  0.77202883620E+02  0.00000000000E+00 0.  1.
         -2    1    1    2    0  502  0.34723637241E+02 -0.68797304216E+02  0.33421380631E+03  0.34298348121E+03  0.00000000000E+00 0. -1.
<mgrwt>
<rscale>  2 0.77063610E+02</rscale>
<asrwt>0</asrwt>
<pdfrwt beam="1">  1       21 0.57674226E-01 0.77063610E+02</pdfrwt>
<pdfrwt beam="2">  1       21 0.69698287E-02 0.77063610E+02</pdfrwt>
<totfact> 0.43645152E+05</totfact>
</mgrwt>
</event>
<event>
 4    1  0.2821610E+004  0.2118066E+02  0.7546771E-02  0.1722820E+00
         21   -1    0    0  503  502  0.00000000000E+00  0.00000000000E+00  0.45017008031E+03  0.45017008031E+03  0.00000000000E+00 0.  1.
         21   -1    0    0  501  503 -0.00000000000E+00 -0.00000000000E+00 -0.82252452088E+01  0.82252452088E+01  0.00000000000E+00 0. -1.
          2    1    1    2  501    0  0.51683786489E+00  0.21174351718E+02  0.61075082971E+01  0.22043637396E+02  0.00000000000E+00 0. -1.
         -2    1    1    2    0  502 -0.51683786489E+00 -0.21174351718E+02  0.43583732681E+03  0.43635168813E+03  0.00000000000E+00 0.  1.
<mgrwt>
<rscale>  2 0.21180658E+02</rscale>
<asrwt>0</asrwt>
<pdfrwt beam="1">  1       21 0.69256916E-01 0.21180658E+02</pdfrwt>
<pdfrwt beam="2">  1       21 0.12654227E-02 0.21180658E+02</pdfrwt>
<totfact> 0.41503248E+06</totfact>
</mgrwt>
</event>
<event>
 4    1  0.2821610E+004  0.2005785E+02  0.7546771E-02  0.1744180E+00
         21   -1    0    0  501  502  0.00000000000E+00  0.00000000000E+00  0.15889069615E+02  0.15889069615E+02  0.00000000000E+00 0. -1.
         21   -1    0    0  502  503 -0.00000000000E+00 -0.00000000000E+00 -0.28480939139E+02  0.28480939139E+02  0.00000000000E+00 0.  1.
          2    1    1    2  501    0 -0.21375569224E+01 -0.19943624117E+02  0.10944027777E+01  0.20087683041E+02  0.00000000000E+00 0. -1.
         -2    1    1    2    0  503  0.21375569224E+01  0.19943624117E+02 -0.13686272302E+02  0.24282325713E+02  0.00000000000E+00 0.  1.
<mgrwt>
<rscale>  2 0.20057849E+02</rscale>
<asrwt>0</asrwt>
<pdfrwt beam="1">  1       21 0.24444723E-02 0.20057849E+02</pdfrwt>
<pdfrwt beam="2">  1       21 0.43816829E-02 0.20057849E+02</pdfrwt>
<totfact> 0.18587347E+08</totfact>
</mgrwt>
</event>
<event>
 4    1  0.2821610E+004  0.2587977E+02  0.7546771E-02  0.1648678E+00
         21   -1    0    0  503  502  0.00000000000E+00  0.00000000000E+00  0.19058249884E+01  0.19058249884E+01  0.00000000000E+00 0. -1.
         21   -1    0    0  501  503 -0.00000000000E+00 -0.00000000000E+00 -0.53181553898E+03  0.53181553898E+03  0.00000000000E+00 0.  1.
          2    1    1    2  501    0 -0.87725845760E+01 -0.24347572213E+02 -0.42037450699E+03  0.42117037958E+03  0.00000000000E+00 0.  1.
         -2    1    1    2    0  502  0.87725845760E+01  0.24347572213E+02 -0.10953520701E+03  0.11255098439E+03  0.00000000000E+00 0. -1.
<mgrwt>
<rscale>  2 0.25879770E+02</rscale>
<asrwt>0</asrwt>
<pdfrwt beam="1">  1       21 0.29320411E-03 0.25879770E+02</pdfrwt>
<pdfrwt beam="2">  1       21 0.81817701E-01 0.25879770E+02</pdfrwt>
<totfact> 0.26593347E+07</totfact>
</mgrwt>
</event>
<event>
 4    1  0.2821610E+004  0.2242377E+02  0.7546771E-02  0.1701025E+00
         21   -1    0    0  503  502  0.00000000000E+00  0.00000000000E+00  0.93393037216E+02  0.93393037216E+02  0.00000000000E+00 0.  1.
         21   -1    0    0  501  503 -0.00000000000E+00 -0.00000000000E+00 -0.51409687790E+02  0.51409687790E+02  0.00000000000E+00 0. -1.
          2    1    1    2  501    0  0.19264720067E+02  0.11475885029E+02 -0.47513682892E+02  0.52539275199E+02  0.00000000000E+00 0. -1.
         -2    1    1    2    0  502 -0.19264720067E+02 -0.11475885029E+02  0.89497032318E+02  0.92263449807E+02  0.00000000000E+00 0.  1.
<mgrwt>
<rscale>  2 0.22423768E+02</rscale>
<asrwt>0</asrwt>
<pdfrwt beam="1">  1       21 0.14368160E-01 0.22423768E+02</pdfrwt>
<pdfrwt beam="2">  1       21 0.79091828E-02 0.22423768E+02</pdfrwt>
<totfact> 0.43239606E+06</totfact>
</mgrwt>
</event>
<event>
 4    1  0.2821610E+004  0.2274244E+02  0.7546771E-02  0.1695719E+00
         21   -1    0    0  503  502  0.00000000000E+00  0.00000000000E+00  0.87664644082E+01  0.87664644082E+01  0.00000000000E+00 0.  1.
         21   -1    0    0  501  503 -0.00000000000E+00 -0.00000000000E+00 -0.97823087970E+02  0.97823087970E+02  0.00000000000E+00 0. -1.
          2    1    1    2  501    0 -0.88863384695E+01  0.20934453815E+02 -0.78102918276E+02  0.81346691458E+02  0.00000000000E+00 0. -1.
         -2    1    1    2    0  502  0.88863384695E+01 -0.20934453815E+02 -0.10953705286E+02  0.25242860920E+02  0.00000000000E+00 0.  1.
<mgrwt>
<rscale>  2 0.22742435E+02</rscale>
<asrwt>0</asrwt>
<pdfrwt beam="1">  1       21 0.13486869E-02 0.22742435E+02</pdfrwt>
<pdfrwt beam="2">  1       21 0.15049706E-01 0.22742435E+02</pdfrwt>
<totfact> 0.63843232E+07</totfact>
</mgrwt>
</event>
<event>
 4    1  0.2821610E+004  0.2758481E+02  0.7546771E-02  0.1626430E+00
         21   -1    0    0  503  502  0.00000000000E+00  0.00000000000E+00  0.16228926572E+02  0.16228926572E+02  0.00000000000E+00 0.  1.
         21   -1    0    0  501  503 -0.00000000000E+00 -0.00000000000E+00 -0.11013666166E+03  0.11013666166E+03  0.00000000000E+00 0. -1.
          2    1    1    2  501    0 -0.31625734051E+01  0.27402919199E+02 -0.94834820650E+02  0.98765201659E+02  0.00000000000E+00 0. -1.
         -2    1    1    2    0  502  0.31625734051E+01 -0.27402919199E+02  0.92708556461E+00  0.27600386570E+02  0.00000000000E+00 0.  1.
<mgrwt>
<rscale>  2 0.27584812E+02</rscale>
<asrwt>0</asrwt>
<pdfrwt beam="1">  1       21 0.24967580E-02 0.27584812E+02</pdfrwt>
<pdfrwt beam="2">  1       21 0.16944101E-01 0.27584812E+02</pdfrwt>
<totfact> 0.21153784E+07</totfact>
</mgrwt>
</event>
<event>
 4    1  0.2821610E+004  0.3452558E+02  0.7546771E-02  0.1552854E+00
         21   -1    0    0  501  502  0.00000000000E+00  0.00000000000E+00  0.37430438615E+03  0.37430438615E+03  0.00000000000E+00 0.  1.
         21   -1    0    0  502  503 -0.00000000000E+00 -0.00000000000E+00 -0.49125361094E+01  0.49125361094E+01  0.00000000000E+00 0. -1.
          2    1    1    2  501    0 -0.34369809683E+01 -0.34354077261E+02  0.29714781453E+03  0.29914685214E+03  0.00000000000E+00 0.  1.
         -2    1    1    2    0  503  0.34369809683E+01  0.34354077261E+02  0.72244035503E+02  0.80070070116E+02  0.00000000000E+00 0. -1.
<mgrwt>
<rscale>  2 0.34525577E+02</rscale>
<asrwt>0</asrwt>
<pdfrwt beam="1">  1       21 0.57585268E-01 0.34525577E+02</pdfrwt>
<pdfrwt beam="2">  1       21 0.75577508E-03 0.34525577E+02</pdfrwt>
<totfact> 0.14128968E+07</totfact>
</mgrwt>
</event>
<event>
 4    1  0.2821610E+004  0.2062815E+02  0.7546771E-02  0.1733118E+00
         21   -1    0    0  501  502  0.00000000000E+00  0.00000000000E+00  0.67792880536E+01  0.67792880536E+01  0.00000000000E+00 0.  1.
         21   -1    0    0  502  503 -0.00000000000E+00 -0.00000000000E+00 -0.65840564742E+02  0.65840564742E+02  0.00000000000E+00 0. -1.
          2    1    1    2  501    0  0.11025752810E+02 -0.17434256268E+02 -0.21686445641E+02  0.29930293036E+02  0.00000000000E+00 0. -1.
         -2    1    1    2    0  503 -0.11025752810E+02  0.17434256268E+02 -0.37374831047E+02  0.42689559760E+02  0.00000000000E+00 0.  1.
<mgrwt>
<rscale>  2 0.20628149E+02</rscale>
<asrwt>0</asrwt>
<pdfrwt beam="1">  1       21 0.10429674E-02 0.20628149E+02</pdfrwt>
<pdfrwt beam="2">  1       21 0.10129317E-01 0.20628149E+02</pdfrwt>
<totfact> 0.17736100E+08</totfact>
</mgrwt>
</event>
<event>
 4    1  0.2821610E+004  0.3220975E+02  0.7546771E-02  0.1574873E+00
         21   -1    0    0  503  502  0.00000000000E+00  0.00000000000E+00  0.44034854301E+01  0.44034854301E+01  0.00000000000E+00 0.  1.
         21   -1    0    0  501  503 -0.00000000000E+00 -0.00000000000E+00 -0.53529071348E+03  0.53529071348E+03  0.00000000000E+00 0. -1.
          2    1    1    2  501    0  0.22850025003E+02 -0.22701192797E+02 -0.46735390361E+03  0.46846252680E+03  0.00000000000E+00 0. -1.
         -2    1    1    2    0  502 -0.22850025003E+02  0.22701192797E+02 -0.63533324439E+02  0.71231672108E+02  0.00000000000E+00 0.  1.
<mgrwt>
<rscale>  2 0.32209747E+02</rscale>
<asrwt>0</asrwt>
<pdfrwt beam="1">  1       21 0.67745980E-03 0.32209747E+02</pdfrwt>
<pdfrwt beam="2">  1       21 0.82352356E-01 0.32209747E+02</pdfrwt>
<totfact> 0.78472510E+06</totfact>
</mgrwt>
</event>
<event>
 4    1  0.2821610E+004  0.2907304E+02  0.7546771E-02  0.1608567E+00
         21   -1    0    0  501  502  0.00000000000E+00  0.00000000000E+00  0.20845187633E+02  0.20845187633E+02  0.00000000000E+00 0.  1.
         21   -1    0    0  502  503 -0.00000000000E+00 -0.00000000000E+00 -0.47333528665E+02  0.47333528665E+02  0.00000000000E+00 0. -1.
          2    1    1    2  501    0  0.26148748514E+02  0.12707659323E+02 -0.33764449358E+00  0.29075000570E+02  0.00000000000E+00 0.  1.
         -2    1    1    2    0  503 -0.26148748514E+02 -0.12707659323E+02 -0.26150696539E+02  0.39103715729E+02  0.00000000000E+00 0. -1.
<mgrwt>
<rscale>  2 0.29073040E+02</rscale>
<asrwt>0</asrwt>
<pdfrwt beam="1">  1       21 0.32069519E-02 0.29073040E+02</pdfrwt>
<pdfrwt beam="2">  1       21 0.72820814E-02 0.29073040E+02</pdfrwt>
<totfact> 0.59830456E+07</totfact>
</mgrwt>
</event>
<event>
 4    1  0.2821610E+004  0.2008509E+02  0.7546771E-02  0.1743641E+00
         21   -1    0    0  503  502  0.00000000000E+00  0.00000000000E+00  0.10994299182E+01  0.10994299182E+01  0.00000000000E+00 0.  1.
         21   -1    0    0  501  503 -0.00000000000E+00 -0.00000000000E+00 -0.50472267494E+03  0.50472267494E+03  0.00000000000E+00 0. -1.
          2    1    1    2  501    0  0.19646834085E+02  0.41728616756E+01 -0.38395904691E+03  0.38448401861E+03  0.00000000000E+00 0. -1.
         -2    1    1    2    0  502 -0.19646834085E+02 -0.41728616756E+01 -0.11966419811E+03  0.12133808624E+03  0.00000000000E+00 0.  1.
<mgrwt>
<rscale>  2 0.20085091E+02</rscale>
<asrwt>0</asrwt>
<pdfrwt beam="1">  1       21 0.16914317E-03 0.20085091E+02</pdfrwt>
<pdfrwt beam="2">  1       21 0.77649592E-01 0.20085091E+02</pdfrwt>
<totfact> 0.62225083E+07</totfact>
</mgrwt>
</event>
<event>
 4    1  0.2821610E+004  0.2283500E+02  0.7546771E-02  0.1694199E+00
         21   -1    0    0  503  502  0.00000000000E+00  0.00000000000E+00  0.19195381699E+04  0.19195381699E+04  0.00000000000E+00 0. -1.
         21   -1    0    0  501  503 -0.00000000000E+00 -0.00000000000E+00 -0.44813947888E+00  0.44813947888E+00  0.00000000000E+00 0.  1.
          2    1    1    2  501    0 -0.19265635194E+02  0.12258563991E+02  0.35709025584E+03  0.35781963041E+03  0.00000000000E+00 0.  1.
         -2    1    1    2    0  502  0.19265635194E+02 -0.12258563991E+02  0.15619997745E+04  0.15621666789E+04  0.00000000000E+00 0. -1.
<mgrwt>
<rscale>  2 0.22834997E+02</rscale>
<asrwt>0</asrwt>
<pdfrwt beam="1">  1       21 0.29530698E+00 0.22834997E+02</pdfrwt>
<pdfrwt beam="2">  1       21 0.68946072E-04 0.22834997E+02</pdfrwt>
<totfact> 0.86786596E+06</totfact>
</mgrwt>
</event>
<event>
 4    1  0.2821610E+004  0.2025781E+02  0.7546771E-02  0.1740249E+00
         21   -1    0    0  503  502  0.00000000000E+00  0.00000000000E+00  0.13922078538E+03  0.13922078538E+03  0.00000000000E+00 0. -1.
         21   -1    0    0  501  503 -0.00000000000E+00 -0.00000000000E+00 -0.29481630104E+01  0.29481630104E+01  0.00000000000E+00 0.  1.
          2    1    1    2  501    0  0.15677683637E+02 -0.12829235101E+02  0.69041341165E+02  0.71951968892E+02  0.00000000000E+00 0. -1.
         -2    1    1    2    0  502 -0.15677683637E+02  0.12829235101E+02  0.67231281201E+02  0.70216979496E+02  0.00000000000E+00 0.  1.
<mgrwt>
<rscale>  2 0.20257814E+02</rscale>
<asrwt>0</asrwt>
<pdfrwt beam="1">  1       21 0.21418577E-01 0.20257814E+02</pdfrwt>
<pdfrwt beam="2">  1       21 0.45356365E-03 0.20257814E+02</pdfrwt>
<totfact> 0.17032035E+08</totfact>
</mgrwt>
</event>
<event>
 4    1  0.2821610E+004  0.2200689E+02  0.7546771E-02  0.1708133E+00
         21   -1    0    0  503  502  0.00000000000E+00  0.00000000000E+00  0.77338090203E+02  0.77338090203E+02  0.00000000000E+00 0. -1.
         21   -1    0    0  501  503 -0.00000000000E+00 -0.00000000000E+00 -0.68924676550E+01  0.68924676550E+01  0.00000000000E+00 0.  1.
          2    1    1    2  501    0  0.10617329093E+02 -0.19276294012E+02  0.22486901563E+02  0.31463692247E+02  0.00000000000E+00 0.  1.
         -2    1    1    2    0  502 -0.10617329093E+02  0.19276294012E+02  0.47958720985E+02  0.52766865611E+02  0.00000000000E+00 0. -1.
<mgrwt>
<rscale>  2 0.22006890E+02</rscale>
<asrwt>0</asrwt>
<pdfrwt beam="1">  1       21 0.11898167E-01 0.22006890E+02</pdfrwt>
<pdfrwt beam="2">  1       21 0.10603797E-02 0.22006890E+02</pdfrwt>
<totfact> 0.13510743E+08</totfact>
</mgrwt>
</event>
<event>
 4    1  0.2821610E+004  0.2326116E+02  0.7546771E-02  0.1687311E+00
         21   -1    0    0  503  502  0.00000000000E+00  0.00000000000E+00  0.21074021203E+03  0.21074021203E+03  0.00000000000E+00 0.  1.
         21   -1    0    0  501  503 -0.00000000000E+00 -0.00000000000E+00 -0.31776897102E+02  0.31776897102E+02  0.00000000000E+00 0. -1.
          2    1    1    2  501    0  0.17305580848E+02  0.15543434552E+02 -0.26774972179E+02  0.35468022518E+02  0.00000000000E+00 0. -1.
         -2    1    1    2    0  502 -0.17305580848E+02 -0.15543434552E+02  0.20573828711E+03  0.20704908662E+03  0.00000000000E+00 0.  1.
<mgrwt>
<rscale>  2 0.23261158E+02</rscale>
<asrwt>0</asrwt>
<pdfrwt beam="1">  1       21 0.32421570E-01 0.23261158E+02</pdfrwt>
<pdfrwt beam="2">  1       21 0.48887535E-02 0.23261158E+02</pdfrwt>
<totfact> 0.22516491E+06</totfact>
</mgrwt>
</event>
<event>
 4    1  0.2821610E+004  0.3247881E+02  0.7546771E-02  0.1572201E+00
         21   -1    0    0  503  502  0.00000000000E+00  0.00000000000E+00  0.24089845565E+02  0.24089845565E+02  0.00000000000E+00 0. -1.
         21   -1    0    0  501  503 -0.00000000000E+00 -0.00000000000E+00 -0.45539699843E+02  0.45539699843E+02  0.00000000000E+00 0.  1.
          2    1    1    2  501    0 -0.30711228258E+02 -0.10568515545E+02 -0.17550825808E+02  0.36917537140E+02  0.00000000000E+00 0.  1.
         -2    1    1    2    0  502  0.30711228258E+02  0.10568515545E+02 -0.38990284708E+01  0.32712008268E+02  0.00000000000E+00 0. -1.
<mgrwt>
<rscale>  2 0.32478809E+02</rscale>
<asrwt>0</asrwt>
<pdfrwt beam="1">  1       21 0.37061301E-02 0.32478809E+02</pdfrwt>
<pdfrwt beam="2">  1       21 0.70061076E-02 0.32478809E+02</pdfrwt>
<totfact> 0.51954696E+07</totfact>
</mgrwt>
</event>
<event>
 4    1  0.2821610E+004  0.2425064E+02  0.7546771E-02  0.1672004E+00
         21   -1    0    0  503  502  0.00000000000E+00  0.00000000000E+00  0.58963713300E+01  0.58963713300E+01  0.00000000000E+00 0. -1.
         21   -1    0    0  501  503 -0.00000000000E+00 -0.00000000000E+00 -0.10617690334E+03  0.10617690334E+03  0.00000000000E+00 0.  1.
          2    1    1    2  501    0 -0.17697521177E+02  0.16579853011E+02 -0.63939482351E+02  0.68383851785E+02  0.00000000000E+00 0.  1.
         -2    1    1    2    0  502  0.17697521177E+02 -0.16579853011E+02 -0.36341049657E+02  0.43689422883E+02  0.00000000000E+00 0. -1.
<mgrwt>
<rscale>  2 0.24250645E+02</rscale>
<asrwt>0</asrwt>
<pdfrwt beam="1">  1       21 0.90713411E-03 0.24250645E+02</pdfrwt>
<pdfrwt beam="2">  1       21 0.16334907E-01 0.24250645E+02</pdfrwt>
<totfact> 0.10267173E+08</totfact>
</mgrwt>
</event>
<event>
 4    1  0.2821610E+004  0.2135896E+02  0.7546771E-02  0.1719580E+00
         21   -1    0    0  503  502  0.00000000000E+00  0.00000000000E+00  0.11179721042E+03  0.11179721042E+03  0.00000000000E+00 0.  1.
         21   -1    0    0  501  503 -0.00000000000E+00 -0.00000000000E+00 -0.58238868957E+01  0.58238868957E+01  0.00000000000E+00 0. -1.
          2    1    1    2  501    0 -0.17742856760E+02 -0.11891009709E+02  0.20811021159E+02  0.29821195140E+02  0.00000000000E+00 0. -1.
         -2    1    1    2    0  502  0.17742856760E+02  0.11891009709E+02  0.85162302367E+02  0.87799902178E+02  0.00000000000E+00 0.  1.
<mgrwt>
<rscale>  2 0.21358958E+02</rscale>
<asrwt>0</asrwt>
<pdfrwt beam="1">  1       21 0.17199569E-01 0.21358958E+02</pdfrwt>
<pdfrwt beam="2">  1       21 0.89598268E-03 0.21358958E+02</pdfrwt>
<totfact> 0.92396507E+07</totfact>
</mgrwt>
</event>
<event>
 4    1  0.2821610E+004  0.2467895E+02  0.7546771E-02  0.1665657E+00
         21   -1    0    0  503  502  0.00000000000E+00  0.00000000000E+00  0.19164707834E+01  0.19164707834E+01  0.00000000000E+00 0. -1.
         21   -1    0    0  501  503 -0.00000000000E+00 -0.00000000000E+00 -0.87988877129E+03  0.87988877129E+03  0.00000000000E+00 0.  1.
          2    1    1    2  501    0 -0.37138123951E+01 -0.24397908342E+02 -0.79138304294E+03  0.79176775066E+03  0.00000000000E+00 0.  1.
         -2    1    1    2    0  502  0.37138123951E+01  0.24397908342E+02 -0.86589257574E+02  0.90037491420E+02  0.00000000000E+00 0. -1.
<mgrwt>
<rscale>  2 0.24678945E+02</rscale>
<asrwt>0</asrwt>
<pdfrwt beam="1">  1       21 0.29484101E-03 0.24678945E+02</pdfrwt>
<pdfrwt beam="2">  1       21 0.13536780E+00 0.24678945E+02</pdfrwt>
<totfact> 0.85618692E+06</totfact>
</mgrwt>
</event>
<event>
 4    1  0.2821610E+004  0.2169317E+02  0.7546771E-02  0.1713613E+00
         21   -1    0    0  501  502  0.00000000000E+00  0.00000000000E+00  0.10670409700E+01  0.10670409700E+01  0.00000000000E+00 0. -1.
         21   -1    0    0  502  503 -0.00000000000E+00 -0.00000000000E+00 -0.51311557581E+03  0.51311557581E+03  0.00000000000E+00 0.  1.
          2    1    1    2  501    0 -0.15681590924E+02 -0.14989373078E+02 -0.15966049237E+03  0.16112748501E+03  0.00000000000E+00 0. -1.
         -2    1    1    2    0  503  0.15681590924E+02  0.14989373078E+02 -0.35238804247E+03  0.35305513177E+03  0.00000000000E+00 0.  1.
<mgrwt>
<rscale>  2 0.21693169E+02</rscale>
<asrwt>0</asrwt>
<pdfrwt beam="1">  1       21 0.16416036E-03 0.21693169E+02</pdfrwt>
<pdfrwt beam="2">  1       21 0.78940758E-01 0.21693169E+02</pdfrwt>
<totfact> 0.63954446E+07</totfact>
</mgrwt>
</event>
<event>
 4    1  0.2821610E+004  0.2214983E+02  0.7546771E-02  0.1705674E+00
         21   -1    0    0  503  502  0.00000000000E+00  0.00000000000E+00  0.51491667447E+03  0.51491667447E+03  0.00000000000E+00 0. -1.
         21   -1    0    0  501  503 -0.00000000000E+00 -0.00000000000E+00 -0.11745676429E+01  0.11745676429E+01  0.00000000000E+00 0.  1.
          2    1    1    2  501    0 -0.13912764453E+02 -0.17235136050E+02  0.14474613190E+03  0.14643106784E+03  0.00000000000E+00 0.  1.
         -2    1    1    2    0  502  0.13912764453E+02  0.17235136050E+02  0.36899597492E+03  0.36966017427E+03  0.00000000000E+00 0. -1.
<mgrwt>
<rscale>  2 0.22149829E+02</rscale>
<asrwt>0</asrwt>
<pdfrwt beam="1">  1       21 0.79217770E-01 0.22149829E+02</pdfrwt>
<pdfrwt beam="2">  1       21 0.18070313E-03 0.22149829E+02</pdfrwt>
<totfact> 0.55579694E+07</totfact>
</mgrwt>
</event>
<event>
 4    1  0.2821610E+004  0.2087379E+02  0.7546771E-02  0.1728490E+00
         21   -1    0    0  501  502  0.00000000000E+00  0.00000000000E+00  0.90161354265E+02  0.90161354265E+02  0.00000000000E+00 0.  1.
         21   -1    0    0  502  503 -0.00000000000E+00 -0.00000000000E+00 -0.24982151492E+02  0.24982151492E+02  0.00000000000E+00 0. -1.
          2    1    1    2  501    0  0.14882750606E+02 -0.14636221691E+02  0.84293947179E+02  0.86839995290E+02  0.00000000000E+00 0.  1.
         -2    1    1    2    0  503 -0.14882750606E+02  0.14636221691E+02 -0.19114744406E+02  0.28303510466E+02  0.00000000000E+00 0. -1.
<mgrwt>
<rscale>  2 0.20873793E+02</rscale>
<asrwt>0</asrwt>
<pdfrwt beam="1">  1       21 0.13870977E-01 0.20873793E+02</pdfrwt>
<pdfrwt beam="2">  1       21 0.38434080E-02 0.20873793E+02</pdfrwt>
<totfact> 0.14329767E+07</totfact>
</mgrwt>
</event>
<event>
 4    1  0.2821610E+004  0.2236462E+02  0.7546771E-02  0.1702021E+00
         21   -1    0    0  503  502  0.00000000000E+00  0.00000000000E+00  0.72679918596E+02  0.72679918596E+02  0.00000000000E+00 0. -1.
         21   -1    0    0  501  503 -0.00000000000E+00 -0.00000000000E+00 -0.16090852855E+02  0.16090852855E+02  0.00000000000E+00 0.  1.
          2    1    1    2  501    0  0.15147570069E+02  0.16453797192E+02 -0.52835166478E+01  0.22980249546E+02  0.00000000000E+00 0.  1.
         -2    1    1    2    0  502 -0.15147570069E+02 -0.16453797192E+02  0.61872582389E+02  0.65790521905E+02  0.00000000000E+00 0. -1.
<mgrwt>
<rscale>  2 0.22364622E+02</rscale>
<asrwt>0</asrwt>
<pdfrwt beam="1">  1       21 0.11181526E-01 0.22364622E+02</pdfrwt>
<pdfrwt beam="2">  1       21 0.24755159E-02 0.22364622E+02</pdfrwt>
<totfact> 0.41409670E+07</totfact>
</mgrwt>
</event>
<event>
 4    1  0.2821610E+004  0.2390917E+02  0.7546771E-02  0.1677183E+00
         21   -1    0    0  503  502  0.00000000000E+00  0.00000000000E+00  0.12464779750E+04  0.12464779750E+04  0.00000000000E+00 0. -1.
         21   -1    0    0  501  503 -0.00000000000E+00 -0.00000000000E+00 -0.46232720580E+00  0.46232720580E+00  0.00000000000E+00 0.  1.
          2    1    1    2  501    0  0.23908253913E+02  0.20903349124E+00  0.67890639230E+03  0.67932726856E+03  0.00000000000E+00 0. -1.
         -2    1    1    2    0  502 -0.23908253913E+02 -0.20903349124E+00  0.56710925553E+03  0.56761303369E+03  0.00000000000E+00 0.  1.
<mgrwt>
<rscale>  2 0.23909168E+02</rscale>
<asrwt>0</asrwt>
<pdfrwt beam="1">  1       21 0.19176315E+00 0.23909168E+02</pdfrwt>
<pdfrwt beam="2">  1       21 0.71128260E-04 0.23909168E+02</pdfrwt>
<totfact> 0.28243832E+07</totfact>
</mgrwt>
</event>
<event>
 4    1  0.2821610E+004  0.2147732E+02  0.7546771E-02  0.1717451E+00
         21   -1    0    0  503  502  0.00000000000E+00  0.00000000000E+00  0.84751929294E+03  0.84751929294E+03  0.00000000000E+00 0. -1.
         21   -1    0    0  501  503 -0.00000000000E+00 -0.00000000000E+00 -0.10205112496E+01  0.10205112496E+01  0.00000000000E+00 0.  1.
          2    1    1    2  501    0 -0.15998316511E+02  0.14329308996E+02  0.13341558821E+03  0.13513324685E+03  0.00000000000E+00 0.  1.
         -2    1    1    2    0  502  0.15998316511E+02 -0.14329308996E+02  0.71308319348E+03  0.71340655734E+03  0.00000000000E+00 0. -1.
<mgrwt>
<rscale>  2 0.21477319E+02</rscale>
<asrwt>0</asrwt>
<pdfrwt beam="1">  1       21 0.13038702E+00 0.21477319E+02</pdfrwt>
<pdfrwt beam="2">  1       21 0.15700241E-03 0.21477319E+02</pdfrwt>
<totfact> 0.22700204E+07</totfact>
</mgrwt>
</event>
<event>
 4    1  0.2821610E+004  0.2589843E+02  0.7546771E-02  0.1648423E+00
         21   -1    0    0  503  502  0.00000000000E+00  0.00000000000E+00  0.26380123328E+02  0.26380123328E+02  0.00000000000E+00 0.  1.
         21   -1    0    0  501  503 -0.00000000000E+00 -0.00000000000E+00 -0.29137201818E+02  0.29137201818E+02  0.00000000000E+00 0. -1.
          2    1    1    2  501    0  0.25892155472E+02  0.57002850825E+00 -0.11285930951E+02  0.28250679371E+02  0.00000000000E+00 0. -1.
         -2    1    1    2    0  502 -0.25892155472E+02 -0.57002850825E+00  0.85288524608E+01  0.27266645775E+02  0.00000000000E+00 0.  1.
<mgrwt>
<rscale>  2 0.25898429E+02</rscale>
<asrwt>0</asrwt>
<pdfrwt beam="1">  1       21 0.40584805E-02 0.25898429E+02</pdfrwt>
<pdfrwt beam="2">  1       21 0.44826464E-02 0.25898429E+02</pdfrwt>
<totfact> 0.87682979E+07</totfact>
</mgrwt>
</event>
<event>
 4    1  0.2821610E+004  0.2802550E+02  0.7546771E-02  0.1620999E+00
         21   -1    0    0  501  502  0.00000000000E+00  0.00000000000E+00  0.90205023207E+02  0.90205023207E+02  0.00000000000E+00 0.  1.
         21   -1    0    0  502  503 -0.00000000000E+00 -0.00000000000E+00 -0.12145294204E+02  0.12145294204E+02  0.00000000000E+00 0. -1.
          2    1    1    2  501    0 -0.27324636914E+02  0.62283961141E+01  0.66257955884E+02  0.71941263671E+02  0.00000000000E+00 0.  1.
         -2    1    1    2    0  503  0.27324636914E+02 -0.62283961141E+01  0.11801773119E+02  0.30409053740E+02  0.00000000000E+00 0. -1.
<mgrwt>
<rscale>  2 0.28025501E+02</rscale>
<asrwt>0</asrwt>
<pdfrwt beam="1">  1       21 0.13877695E-01 0.28025501E+02</pdfrwt>
<pdfrwt beam="2">  1       21 0.18685069E-02 0.28025501E+02</pdfrwt>
<totfact> 0.46872815E+07</totfact>
</mgrwt>
</event>
<event>
 4    1  0.2821610E+004  0.2203620E+02  0.7546771E-02  0.1707627E+00
         21   -1    0    0  503  502  0.00000000000E+00  0.00000000000E+00  0.30577425022E+01  0.30577425022E+01  0.00000000000E+00 0.  1.
         21   -1    0    0  501  503 -0.00000000000E+00 -0.00000000000E+00 -0.22281836607E+03  0.22281836607E+03  0.00000000000E+00 0. -1.
          2    1    1    2  501    0  0.15309285784E+02 -0.15849912679E+02 -0.17041300169E+03  0.17183185127E+03  0.00000000000E+00 0. -1.
         -2    1    1    2    0  502 -0.15309285784E+02  0.15849912679E+02 -0.49347621871E+02  0.54044257303E+02  0.00000000000E+00 0.  1.
<mgrwt>
<rscale>  2 0.22036197E+02</rscale>
<asrwt>0</asrwt>
<pdfrwt beam="1">  1       21 0.47042169E-03 0.22036197E+02</pdfrwt>
<pdfrwt beam="2">  1       21 0.34279765E-01 0.22036197E+02</pdfrwt>
<totfact> 0.71139899E+07</totfact>
</mgrwt>
</event>
<event>
 4    1  0.2821610E+004  0.3396319E+02  0.7546771E-02  0.1558005E+00
         21   -1    0    0  503  502  0.00000000000E+00  0.00000000000E+00  0.27736726093E+03  0.27736726093E+03  0.00000000000E+00 0.  1.
         21   -1    0    0  501  503 -0.00000000000E+00 -0.00000000000E+00 -0.82029417756E+01  0.82029417756E+01  0.00000000000E+00 0. -1.
          2    1    1    2  501    0 -0.80970175772E+01 -0.32983888603E+02  0.34325222247E+02  0.48287881330E+02  0.00000000000E+00 0. -1.
         -2    1    1    2    0  502  0.80970175772E+01  0.32983888603E+02  0.23483909691E+03  0.23728232138E+03  0.00000000000E+00 0.  1.
<mgrwt>
<rscale>  2 0.33963195E+02</rscale>
<asrwt>0</asrwt>
<pdfrwt beam="1">  1       21 0.42671879E-01 0.33963195E+02</pdfrwt>
<pdfrwt beam="2">  1       21 0.12619913E-02 0.33963195E+02</pdfrwt>
<totfact> 0.11676529E+07</totfact>
</mgrwt>
</event>
<event>
 4    1  0.2821610E+004  0.2171244E+02  0.7546771E-02  0.1713273E+00
         21   -1    0    0  501  502  0.00000000000E+00  0.00000000000E+00  0.47695352555E+02  0.47695352555E+02  0.00000000000E+00 0.  1.
         21   -1    0    0  502  503 -0.00000000000E+00 -0.00000000000E+00 -0.10563178106E+02  0.10563178106E+02  0.00000000000E+00 0. -1.
          2    1    1    2  501    0  0.21405626397E+02 -0.36371951843E+01  0.25951293320E+02  0.33836365870E+02  0.00000000000E+00 0.  1.
         -2    1    1    2    0  503 -0.21405626397E+02  0.36371951843E+01  0.11180881129E+02  0.24422164791E+02  0.00000000000E+00 0. -1.
<mgrwt>
<rscale>  2 0.21712440E+02</rscale>
<asrwt>0</asrwt>
<pdfrwt beam="1">  1       21 0.73377464E-02 0.21712440E+02</pdfrwt>
<pdfrwt beam="2">  1       21 0.16251044E-02 0.21712440E+02</pdfrwt>
<totfact> 0.15625058E+08</totfact>
</mgrwt>
</event>
<event>
 4    1  0.2821610E+004  0.2024528E+02  0.7546771E-02  0.1740494E+00
         21   -1    0    0  501  502  0.00000000000E+00  0.00000000000E+00  0.38772823387E+01  0.38772823387E+01  0.00000000000E+00 0. -1.
         21   -1    0    0  502  503 -0.00000000000E+00 -0.00000000000E+00 -0.11181027118E+03  0.11181027118E+03  0.00000000000E+00 0.  1.
          2    1    1    2  501    0  0.14626941810E+02 -0.13997277982E+02 -0.40456462488E+02  0.45239325533E+02  0.00000000000E+00 0.  1.
         -2    1    1    2    0  503 -0.14626941810E+02  0.13997277982E+02 -0.67476526349E+02  0.70448227981E+02  0.00000000000E+00 0. -1.
<mgrwt>
<rscale>  2 0.20245276E+02</rscale>
<asrwt>0</asrwt>
<pdfrwt beam="1">  1       21 0.59650487E-03 0.20245276E+02</pdfrwt>
<pdfrwt beam="2">  1       21 0.17201583E-01 0.20245276E+02</pdfrwt>
<totfact> 0.16631743E+08</totfact>
</mgrwt>
</event>
<event>
 4    1  0.2821610E+004  0.2149749E+02  0.7546771E-02  0.1717090E+00
         21   -1    0    0  503  502  0.00000000000E+00  0.00000000000E+00  0.32134632940E+02  0.32134632940E+02  0.00000000000E+00 0.  1.
         21   -1    0    0  501  503 -0.00000000000E+00 -0.00000000000E+00 -0.31196429996E+02  0.31196429996E+02  0.00000000000E+00 0. -1.
          2    1    1    2  501    0  0.21496809450E+02 -0.17063563682E+00 -0.22778748000E+02  0.31321131741E+02  0.00000000000E+00 0. -1.
         -2    1    1    2    0  502 -0.21496809450E+02  0.17063563682E+00  0.23716950944E+02  0.32009931195E+02  0.00000000000E+00 0.  1.
<mgrwt>
<rscale>  2 0.21497487E+02</rscale>
<asrwt>0</asrwt>
<pdfrwt beam="1">  1       21 0.49437897E-02 0.21497487E+02</pdfrwt>
<pdfrwt beam="2">  1       21 0.47994508E-02 0.21497487E+02</pdfrwt>
<totfact> 0.54742944E+07</totfact>
</mgrwt>
</event>
<event>
 4    1  0.2821610E+004  0.2229116E+02  0.7546771E-02  0.1703265E+00
         21   -1    0    0  501  502  0.00000000000E+00  0.00000000000E+00  0.38639823044E+01  0.38639823044E+01  0.00000000000E+00 0.  1.
         21   -1    0    0  502  503 -0.00000000000E+00 -0.00000000000E+00 -0.15401743693E+03  0.15401743693E+03  0.00000000000E+00 0. -1.
          2    1    1    2  501    0 -0.16011935668E+02 -0.15508500620E+02 -0.43005950431E+02  0.48439730055E+02  0.00000000000E+00 0. -1.
         -2    1    1    2    0  503  0.16011935668E+02  0.15508500620E+02 -0.10714750419E+03  0.10944168918E+03  0.00000000000E+00 0.  1.
<mgrwt>
<rscale>  2 0.22291157E+02</rscale>
<asrwt>0</asrwt>
<pdfrwt beam="1">  1       21 0.59445887E-03 0.22291157E+02</pdfrwt>
<pdfrwt beam="2">  1       21 0.23694988E-01 0.22291157E+02</pdfrwt>
<totfact> 0.98444846E+07</totfact>
</mgrwt>
</event>
<event>
 4    1  0.2821610E+004  0.2101240E+02  0.7546771E-02  0.1725914E+00
         21   -1    0    0  503  502  0.00000000000E+00  0.00000000000E+00  0.82380948870E+01  0.82380948870E+01  0.00000000000E+00 0.  1.
         21   -1    0    0  501  503 -0.00000000000E+00 -0.00000000000E+00 -0.76178912873E+02  0.76178912873E+02  0.00000000000E+00 0. -1.
          2    1    1    2  501    0 -0.18138834932E+02 -0.10606771696E+02 -0.56952094874E+02  0.60704711918E+02  0.00000000000E+00 0. -1.
         -2    1    1    2    0  502  0.18138834932E+02  0.10606771696E+02 -0.10988723112E+02  0.23712295842E+02  0.00000000000E+00 0.  1.
<mgrwt>
<rscale>  2 0.21012400E+02</rscale>
<asrwt>0</asrwt>
<pdfrwt beam="1">  1       21 0.12673992E-02 0.21012400E+02</pdfrwt>
<pdfrwt beam="2">  1       21 0.11719833E-01 0.21012400E+02</pdfrwt>
<totfact> 0.10451558E+08</totfact>
</mgrwt>
</event>
<event>
 4    1  0.2821610E+004  0.2509498E+02  0.7546771E-02  0.1659641E+00
         21   -1    0    0  501  502  0.00000000000E+00  0.00000000000E+00  0.76561178867E+01  0.76561178867E+01  0.00000000000E+00 0. -1.
         21   -1    0    0  502  503 -0.00000000000E+00 -0.00000000000E+00 -0.12529531307E+03  0.12529531307E+03  0.00000000000E+00 0.  1.
          2    1    1    2  501    0  0.23503783678E+02 -0.87937695581E+01 -0.19858559897E+02  0.32001884810E+02  0.00000000000E+00 0. -1.
         -2    1    1    2    0  503 -0.23503783678E+02  0.87937695581E+01 -0.97780635286E+02  0.10094954615E+03  0.00000000000E+00 0.  1.
<mgrwt>
<rscale>  2 0.25094984E+02</rscale>
<asrwt>0</asrwt>
<pdfrwt beam="1">  1       21 0.11778644E-02 0.25094984E+02</pdfrwt>
<pdfrwt beam="2">  1       21 0.19276201E-01 0.25094984E+02</pdfrwt>
<totfact> 0.52450089E+07</totfact>
</mgrwt>
</event>
<event>
 4    1  0.2821610E+004  0.2552145E+02  0.7546771E-02  0.1653623E+00
         21   -1    0    0  503  502  0.00000000000E+00  0.00000000000E+00  0.69861888879E+03  0.69861888879E+03  0.00000000000E+00 0.  1.
         21   -1    0    0  501  503 -0.00000000000E+00 -0.00000000000E+00 -0.10294554919E+01  0.10294554919E+01  0.00000000000E+00 0. -1.
          2    1    1    2  501    0  0.16634904199E+02  0.19355210372E+02  0.24134385598E+03  0.24268951569E+03  0.00000000000E+00 0. -1.
         -2    1    1    2    0  502 -0.16634904199E+02 -0.19355210372E+02  0.45624557732E+03  0.45695882859E+03  0.00000000000E+00 0.  1.
<mgrwt>
<rscale>  2 0.25521446E+02</rscale>
<asrwt>0</asrwt>
<pdfrwt beam="1">  1       21 0.10747945E+00 0.25521446E+02</pdfrwt>
<pdfrwt beam="2">  1       21 0.15837833E-03 0.25521446E+02</pdfrwt>
<totfact> 0.35856825E+07</totfact>
</mgrwt>
</event>
<event>
 4    1  0.2821610E+004  0.2077288E+02  0.7546771E-02  0.1730381E+00
         21   -1    0    0  501  502  0.00000000000E+00  0.00000000000E+00  0.33157615764E+01  0.33157615764E+01  0.00000000000E+00 0. -1.
         21   -1    0    0  502  503 -0.00000000000E+00 -0.00000000000E+00 -0.37816119918E+03  0.37816119918E+03  0.00000000000E+00 0.  1.
          2    1    1    2  501    0  0.11452871476E+02  0.17330439038E+02 -0.32952608921E+02  0.38953649598E+02  0.00000000000E+00 0. -1.
         -2    1    1    2    0  503 -0.11452871476E+02 -0.17330439038E+02 -0.34189282868E+03  0.34252331116E+03  0.00000000000E+00 0.  1.
<mgrwt>
<rscale>  2 0.20772876E+02</rscale>
<asrwt>0</asrwt>
<pdfrwt beam="1">  1       21 0.51011753E-03 0.20772876E+02</pdfrwt>
<pdfrwt beam="2">  1       21 0.58178604E-01 0.20772876E+02</pdfrwt>
<totfact> 0.22694352E+07</totfact>
</mgrwt>
</event>
<event>
 4    1  0.2821610E+004  0.4270678E+02  0.7546771E-02  0.1489187E+00
         21   -1    0    0  503  502  0.00000000000E+00  0.00000000000E+00  0.19414405189E+02  0.19414405189E+02  0.00000000000E+00 0. -1.
         21   -1    0    0  501  503 -0.00000000000E+00 -0.00000000000E+00 -0.96516068688E+02  0.96516068688E+02  0.00000000000E+00 0.  1.
          2    1    1    2  501    0  0.18908076932E+02 -0.38293001084E+02 -0.48013171606E+02  0.64258337614E+02  0.00000000000E+00 0. -1.
         -2    1    1    2    0  502 -0.18908076932E+02  0.38293001084E+02 -0.29088491893E+02  0.51672136262E+02  0.00000000000E+00 0.  1.
<mgrwt>
<rscale>  2 0.42706783E+02</rscale>
<asrwt>0</asrwt>
<pdfrwt beam="1">  1       21 0.29868316E-02 0.42706783E+02</pdfrwt>
<pdfrwt beam="2">  1       21 0.14848626E-01 0.42706783E+02</pdfrwt>
<totfact> 0.21671917E+07</totfact>
</mgrwt>
</event>
<event>
 4    1  0.2821610E+004  0.2788167E+02  0.7546771E-02  0.1622758E+00
         21   -1    0    0  501  502  0.00000000000E+00  0.00000000000E+00  0.58614170503E+02  0.58614170503E+02  0.00000000000E+00 0. -1.
         21   -1    0    0  502  503 -0.00000000000E+00 -0.00000000000E+00 -0.18845000969E+02  0.18845000969E+02  0.00000000000E+00 0.  1.
          2    1    1    2  501    0  0.25402743685E+02  0.11492956335E+02  0.40963482366E+02  0.49551935579E+02  0.00000000000E+00 0.  1.
         -2    1    1    2    0  503 -0.25402743685E+02 -0.11492956335E+02 -0.11943128331E+01  0.27907235893E+02  0.00000000000E+00 0. -1.
<mgrwt>
<rscale>  2 0.27881668E+02</rscale>
<asrwt>0</asrwt>
<pdfrwt beam="1">  1       21 0.90175646E-02 0.27881668E+02</pdfrwt>
<pdfrwt beam="2">  1       21 0.28992309E-02 0.27881668E+02</pdfrwt>
<totfact> 0.48815405E+07</totfact>
</mgrwt>
</event>
<event>
 4    1  0.2821610E+004  0.2350099E+02  0.7546771E-02  0.1683516E+00
         21   -1    0    0  501  502  0.00000000000E+00  0.00000000000E+00  0.14849262496E+02  0.14849262496E+02  0.00000000000E+00 0.  1.
         21   -1    0    0  502  503 -0.00000000000E+00 -0.00000000000E+00 -0.83427973757E+02  0.83427973757E+02  0.00000000000E+00 0. -1.
          2    1    1    2  501    0  0.18544409778E+02  0.14436119416E+02  0.22911623103E+01  0.23612414162E+02  0.00000000000E+00 0.  1.
         -2    1    1    2    0  503 -0.18544409778E+02 -0.14436119416E+02 -0.70869873572E+02  0.74664822091E+02  0.00000000000E+00 0. -1.
<mgrwt>
<rscale>  2 0.23500993E+02</rscale>
<asrwt>0</asrwt>
<pdfrwt beam="1">  1       21 0.22845019E-02 0.23500993E+02</pdfrwt>
<pdfrwt beam="2">  1       21 0.12835073E-01 0.23500993E+02</pdfrwt>
<totfact> 0.37672639E+07</totfact>
</mgrwt>
</event>
<event>
 4    1  0.2821610E+004  0.4196411E+02  0.7546771E-02  0.1494236E+00
         21   -1    0    0  501  502  0.00000000000E+00  0.00000000000E+00  0.25772227859E+01  0.25772227859E+01  0.00000000000E+00 0.  1.
         21   -1    0    0  502  503 -0.00000000000E+00 -0.00000000000E+00 -0.20618427230E+04  0.20618427230E+04  0.00000000000E+00 0. -1.
          2    1    1    2  501    0  0.35520911358E+02 -0.22343924831E+02 -0.18561370788E+03  0.19029827817E+03  0.00000000000E+00 0.  1.
         -2    1    1    2    0  503 -0.35520911358E+02  0.22343924831E+02 -0.18736517923E+04  0.18741216676E+04  0.00000000000E+00 0. -1.
<mgrwt>
<rscale>  2 0.41964105E+02</rscale>
<asrwt>0</asrwt>
<pdfrwt beam="1">  1       21 0.39649564E-03 0.41964105E+02</pdfrwt>
<pdfrwt beam="2">  1       21 0.31720671E+00 0.41964105E+02</pdfrwt>
<totfact> 0.51891887E+05</totfact>
</mgrwt>
</event>
<event>
 4    1  0.2821610E+004  0.3293885E+02  0.7546771E-02  0.1567705E+00
         21   -1    0    0  501  502  0.00000000000E+00  0.00000000000E+00  0.26283191921E+02  0.26283191921E+02  0.00000000000E+00 0.  1.
         21   -1    0    0  502  503 -0.00000000000E+00 -0.00000000000E+00 -0.58087923843E+02  0.58087923843E+02  0.00000000000E+00 0. -1.
          2    1    1    2  501    0 -0.81866974736E+01 -0.31905263492E+02  0.67899614017E+01  0.33631405410E+02  0.00000000000E+00 0.  1.
         -2    1    1    2    0  503  0.81866974736E+01  0.31905263492E+02 -0.38594693324E+02  0.50739710354E+02  0.00000000000E+00 0. -1.
<mgrwt>
<rscale>  2 0.32938850E+02</rscale>
<asrwt>0</asrwt>
<pdfrwt beam="1">  1       21 0.40435680E-02 0.32938850E+02</pdfrwt>
<pdfrwt beam="2">  1       21 0.89366036E-02 0.32938850E+02</pdfrwt>
<totfact> 0.30326560E+07</totfact>
</mgrwt>
</event>
<event>
 4    1  0.2821610E+004  0.2406443E+02  0.7546771E-02  0.1674815E+00
         21   -1    0    0  503  502  0.00000000000E+00  0.00000000000E+00  0.21318830204E+03  0.21318830204E+03  0.00000000000E+00 0.  1.
         21   -1    0    0  501  503 -0.00000000000E+00 -0.00000000000E+00 -0.33283683996E+01  0.33283683996E+01  0.00000000000E+00 0. -1.
          2    1    1    2  501    0  0.13516521679E+02 -0.19909806173E+02  0.58508014421E+02  0.63263611117E+02  0.00000000000E+00 0. -1.
         -2    1    1    2    0  502 -0.13516521679E+02  0.19909806173E+02  0.15135191922E+03  0.15325305932E+03  0.00000000000E+00 0.  1.
<mgrwt>
<rscale>  2 0.24064429E+02</rscale>
<asrwt>0</asrwt>
<pdfrwt beam="1">  1       21 0.32798190E-01 0.24064429E+02</pdfrwt>
<pdfrwt beam="2">  1       21 0.51205684E-03 0.24064429E+02</pdfrwt>
<totfact> 0.69652867E+07</totfact>
</mgrwt>
</event>
<event>
 4    1  0.2821610E+004  0.2092827E+02  0.7546771E-02  0.1727474E+00
         21   -1    0    0  503  502  0.00000000000E+00  0.00000000000E+00  0.15754627858E+03  0.15754627858E+03  0.00000000000E+00 0.  1.
         21   -1    0    0  501  503 -0.00000000000E+00 -0.00000000000E+00 -0.58336678591E+01  0.58336678591E+01  0.00000000000E+00 0. -1.
          2    1    1    2  501    0  0.20001422863E+02  0.61591830012E+01  0.16754251194E+02  0.26808531941E+02  0.00000000000E+00 0. -1.
         -2    1    1    2    0  502 -0.20001422863E+02 -0.61591830012E+01  0.13495835953E+03  0.13657141450E+03  0.00000000000E+00 0.  1.
<mgrwt>
<rscale>  2 0.20928269E+02</rscale>
<asrwt>0</asrwt>
<pdfrwt beam="1">  1       21 0.24237886E-01 0.20928269E+02</pdfrwt>
<pdfrwt beam="2">  1       21 0.89748748E-03 0.20928269E+02</pdfrwt>
<totfact> 0.50425965E+07</totfact>
</mgrwt>
</event>
<event>
 4    1  0.2821610E+004  0.3115354E+02  0.7546771E-02  0.1585677E+00
         21   -1    0    0  503  502  0.00000000000E+00  0.00000000000E+00  0.97716893107E+02  0.97716893107E+02  0.00000000000E+00 0.  1.
         21   -1    0    0  501  503 -0.00000000000E+00 -0.00000000000E+00 -0.12868686610E+02  0.12868686610E+02  0.00000000000E+00 0. -1.
          2    1    1    2  501    0  0.28252785211E+02 -0.13127189210E+02  0.16011209989E+02  0.35027158235E+02  0.00000000000E+00 0. -1.
         -2    1    1    2    0  502 -0.28252785211E+02  0.13127189210E+02  0.68836996508E+02  0.75558421482E+02  0.00000000000E+00 0.  1.
<mgrwt>
<rscale>  2 0.31153539E+02</rscale>
<asrwt>0</asrwt>
<pdfrwt beam="1">  1       21 0.15033368E-01 0.31153539E+02</pdfrwt>
<pdfrwt beam="2">  1       21 0.19797980E-02 0.31153539E+02</pdfrwt>
<totfact> 0.38226284E+07</totfact>
</mgrwt>
</event>
<event>
 4    1  0.2821610E+004  0.5834519E+02  0.7546771E-02  0.1404910E+00
         21   -1    0    0  501  502  0.00000000000E+00  0.00000000000E+00  0.47727267502E+02  0.47727267502E+02  0.00000000000E+00 0.  1.
         21   -1    0    0  502  503 -0.00000000000E+00 -0.00000000000E+00 -0.17366609642E+03  0.17366609642E+03  0.00000000000E+00 0. -1.
          2    1    1    2  501    0  0.21062553006E+02 -0.54410750859E+02  0.22007608189E+02  0.62357804374E+02  0.00000000000E+00 0.  1.
         -2    1    1    2    0  503 -0.21062553006E+02  0.54410750859E+02 -0.14794643710E+03  0.15903555954E+03  0.00000000000E+00 0. -1.
<mgrwt>
<rscale>  2 0.58345188E+02</rscale>
<asrwt>0</asrwt>
<pdfrwt beam="1">  1       21 0.73426565E-02 0.58345188E+02</pdfrwt>
<pdfrwt beam="2">  1       21 0.26717861E-01 0.58345188E+02</pdfrwt>
<totfact> 0.17935368E+06</totfact>
</mgrwt>
</event>
<event>
 4    1  0.2821610E+004  0.3038340E+02  0.7546771E-02  0.1593889E+00
         21   -1    0    0  501  502  0.00000000000E+00  0.00000000000E+00  0.28144002284E+02  0.28144002284E+02  0.00000000000E+00 0. -1.
         21   -1    0    0  502  503 -0.00000000000E+00 -0.00000000000E+00 -0.35818519553E+02  0.35818519553E+02  0.00000000000E+00 0.  1.
          2    1    1    2  501    0 -0.30091980848E+02  0.41980875862E+01  0.54452902108E+01  0.30867498056E+02  0.00000000000E+00 0. -1.
         -2    1    1    2    0  503  0.30091980848E+02 -0.41980875862E+01 -0.13119807480E+02  0.33095023781E+02  0.00000000000E+00 0.  1.
<mgrwt>
<rscale>  2 0.30383404E+02</rscale>
<asrwt>0</asrwt>
<pdfrwt beam="1">  1       21 0.43298465E-02 0.30383404E+02</pdfrwt>
<pdfrwt beam="2">  1       21 0.55105415E-02 0.30383404E+02</pdfrwt>
<totfact> 0.59080459E+07</totfact>
</mgrwt>
</event>
<event>
 4    1  0.2821610E+004  0.2028246E+02  0.7546771E-02  0.1739769E+00
         21   -1    0    0  503  502  0.00000000000E+00  0.00000000000E+00  0.41688208772E+03  0.41688208772E+03  0.00000000000E+00 0.  1.
         21   -1    0    0  501  503 -0.00000000000E+00 -0.00000000000E+00 -0.17472551618E+01  0.17472551618E+01  0.00000000000E+00 0. -1.
          2    1    1    2  501    0  0.19208099944E+02 -0.65135921250E+01  0.69478388422E+02  0.72378342365E+02  0.00000000000E+00 0. -1.
         -2    1    1    2    0  502 -0.19208099944E+02  0.65135921250E+01  0.34565644413E+03  0.34625100051E+03  0.00000000000E+00 0.  1.
<mgrwt>
<rscale>  2 0.20282455E+02</rscale>
<asrwt>0</asrwt>
<pdfrwt beam="1">  1       21 0.64135626E-01 0.20282455E+02</pdfrwt>
<pdfrwt beam="2">  1       21 0.26880882E-03 0.20282455E+02</pdfrwt>
<totfact> 0.47306473E+07</totfact>
</mgrwt>
</event>
<event>
 4    1  0.2821610E+004  0.2286472E+02  0.7546771E-02  0.1693712E+00
         21   -1    0    0  501  502  0.00000000000E+00  0.00000000000E+00  0.49549405658E+03  0.49549405658E+03  0.00000000000E+00 0. -1.
         21   -1    0    0  502  503 -0.00000000000E+00 -0.00000000000E+00 -0.10791107291E+01  0.10791107291E+01  0.00000000000E+00 0.  1.
          2    1    1    2  501    0  0.19685971331E+02  0.11630037005E+02  0.28424423229E+03  0.28516237273E+03  0.00000000000E+00 0.  1.
         -2    1    1    2    0  503 -0.19685971331E+02 -0.11630037005E+02  0.21017071356E+03  0.21141079458E+03  0.00000000000E+00 0. -1.
<mgrwt>
<rscale>  2 0.22864716E+02</rscale>
<asrwt>0</asrwt>
<pdfrwt beam="1">  1       21 0.76229673E-01 0.22864716E+02</pdfrwt>
<pdfrwt beam="2">  1       21 0.16601743E-03 0.22864716E+02</pdfrwt>
<totfact> 0.68537046E+07</totfact>
</mgrwt>
</event>
<event>
 4    1  0.2821610E+004  0.2189752E+02  0.7546771E-02  0.1710030E+00
         21   -1    0    0  503  502  0.00000000000E+00  0.00000000000E+00  0.24758875370E+03  0.24758875370E+03  0.00000000000E+00 0. -1.
         21   -1    0    0  501  503 -0.00000000000E+00 -0.00000000000E+00 -0.54339183349E+01  0.54339183349E+01  0.00000000000E+00 0.  1.
          2    1    1    2  501    0 -0.21353343686E+02  0.48513939479E+01  0.19584620462E+02  0.29377860175E+02  0.00000000000E+00 0.  1.
         -2    1    1    2    0  502  0.21353343686E+02 -0.48513939479E+01  0.22257021491E+03  0.22364481186E+03  0.00000000000E+00 0. -1.
<mgrwt>
<rscale>  2 0.21897518E+02</rscale>
<asrwt>0</asrwt>
<pdfrwt beam="1">  1       21 0.38090569E-01 0.21897518E+02</pdfrwt>
<pdfrwt beam="2">  1       21 0.83598763E-03 0.21897518E+02</pdfrwt>
<totfact> 0.24926701E+07</totfact>
</mgrwt>
</event>
<event>
 4    1  0.2821610E+004  0.2383126E+02  0.7546771E-02  0.1678379E+00
         21   -1    0    0  501  502  0.00000000000E+00  0.00000000000E+00  0.51643852788E+03  0.51643852788E+03  0.00000000000E+00 0. -1.
         21   -1    0    0  502  503 -0.00000000000E+00 -0.00000000000E+00 -0.16664980899E+01  0.16664980899E+01  0.00000000000E+00 0.  1.
          2    1    1    2  501    0 -0.14358308913E+02  0.19020199627E+02  0.40846303731E+03  0.40915764918E+03  0.00000000000E+00 0. -1.
         -2    1    1    2    0  503  0.14358308913E+02 -0.19020199627E+02  0.10630899248E+03  0.10894737680E+03  0.00000000000E+00 0.  1.
<mgrwt>
<rscale>  2 0.23831262E+02</rscale>
<asrwt>0</asrwt>
<pdfrwt beam="1">  1       21 0.79451953E-01 0.23831262E+02</pdfrwt>
<pdfrwt beam="2">  1       21 0.25638473E-03 0.23831262E+02</pdfrwt>
<totfact> 0.33848084E+07</totfact>
</mgrwt>
</event>
<event>
 4    1  0.2821610E+004  0.2494078E+02  0.7546771E-02  0.1661854E+00
         21   -1    0    0  501  502  0.00000000000E+00  0.00000000000E+00  0.28447843888E+03  0.28447843888E+03  0.00000000000E+00 0.  1.
         21   -1    0    0  502  503 -0.00000000000E+00 -0.00000000000E+00 -0.73758252871E+01  0.73758252871E+01  0.00000000000E+00 0. -1.
          2    1    1    2  501    0 -0.24913388216E+02  0.11686526791E+01  0.26095138345E+03  0.26214054854E+03  0.00000000000E+00 0.  1.
         -2    1    1    2    0  503  0.24913388216E+02 -0.11686526791E+01  0.16151230140E+02  0.29713715630E+02  0.00000000000E+00 0. -1.
<mgrwt>
<rscale>  2 0.24940783E+02</rscale>
<asrwt>0</asrwt>
<pdfrwt beam="1">  1       21 0.43765905E-01 0.24940783E+02</pdfrwt>
<pdfrwt beam="2">  1       21 0.11347426E-02 0.24940783E+02</pdfrwt>
<totfact> 0.12437284E+07</totfact>
</mgrwt>
</event>
<event>
 4    1  0.2821610E+004  0.2870615E+02  0.7546771E-02  0.1612847E+00
         21   -1    0    0  503  502  0.00000000000E+00  0.00000000000E+00  0.39939469026E+02  0.39939469026E+02  0.00000000000E+00 0.  1.
         21   -1    0    0  501  503 -0.00000000000E+00 -0.00000000000E+00 -0.12266047278E+03  0.12266047278E+03  0.00000000000E+00 0. -1.
          2    1    1    2  501    0  0.21930400367E+02  0.18522967543E+02 -0.11550828048E+03  0.11902187046E+03  0.00000000000E+00 0. -1.
         -2    1    1    2    0  502 -0.21930400367E+02 -0.18522967543E+02  0.32787276731E+02  0.43578071347E+02  0.00000000000E+00 0.  1.
<mgrwt>
<rscale>  2 0.28706145E+02</rscale>
<asrwt>0</asrwt>
<pdfrwt beam="1">  1       21 0.61445337E-02 0.28706145E+02</pdfrwt>
<pdfrwt beam="2">  1       21 0.18870842E-01 0.28706145E+02</pdfrwt>
<totfact> 0.42263985E+06</totfact>
</mgrwt>
</event>
<event>
 4    1  0.2821610E+004  0.2947611E+02  0.7546771E-02  0.1603953E+00
         21   -1    0    0  501  502  0.00000000000E+00  0.00000000000E+00  0.66124848745E+02  0.66124848745E+02  0.00000000000E+00 0. -1.
         21   -1    0    0  502  503 -0.00000000000E+00 -0.00000000000E+00 -0.20330311949E+02  0.20330311949E+02  0.00000000000E+00 0.  1.
          2    1    1    2  501    0 -0.29050385059E+02 -0.49916394664E+01  0.48606000753E+02  0.56845269336E+02  0.00000000000E+00 0. -1.
         -2    1    1    2    0  503  0.29050385059E+02  0.49916394664E+01 -0.28114639578E+01  0.29609891358E+02  0.00000000000E+00 0.  1.
<mgrwt>
<rscale>  2 0.29476115E+02</rscale>
<asrwt>0</asrwt>
<pdfrwt beam="1">  1       21 0.10173054E-01 0.29476115E+02</pdfrwt>
<pdfrwt beam="2">  1       21 0.31277403E-02 0.29476115E+02</pdfrwt>
<totfact> 0.35903100E+07</totfact>
</mgrwt>
</event>
<event>
 4    1  0.2821610E+004  0.3207344E+02  0.7546771E-02  0.1576239E+00
         21   -1    0    0  501  502  0.00000000000E+00  0.00000000000E+00  0.92725092311E+02  0.92725092311E+02  0.00000000000E+00 0.  1.
         21   -1    0    0  502  503 -0.00000000000E+00 -0.00000000000E+00 -0.26211292103E+02  0.26211292103E+02  0.00000000000E+00 0. -1.
          2    1    1    2  501    0  0.32057507050E+02  0.10106809308E+01  0.78419142825E+02  0.84724655181E+02  0.00000000000E+00 0.  1.
         -2    1    1    2    0  503 -0.32057507050E+02 -0.10106809308E+01 -0.11905342616E+02  0.34211729232E+02  0.00000000000E+00 0. -1.
<mgrwt>
<rscale>  2 0.32073435E+02</rscale>
<asrwt>0</asrwt>
<pdfrwt beam="1">  1       21 0.14265399E-01 0.32073435E+02</pdfrwt>
<pdfrwt beam="2">  1       21 0.40325065E-02 0.32073435E+02</pdfrwt>
<totfact> 0.13745358E+07</totfact>
</mgrwt>
</event>
<event>
 4    1  0.2821610E+004  0.3172976E+02  0.7546771E-02  0.1579720E+00
         21   -1    0    0  503  502  0.00000000000E+00  0.00000000000E+00  0.25501765979E+03  0.25501765979E+03  0.00000000000E+00 0.  1.
         21   -1    0    0  501  503 -0.00000000000E+00 -0.00000000000E+00 -0.40630506506E+01  0.40630506506E+01  0.00000000000E+00 0. -1.
          2    1    1    2  501    0 -0.11282933159E+02 -0.29655909738E+02  0.10366701775E+03  0.10841415098E+03  0.00000000000E+00 0.  1.
         -2    1    1    2    0  502  0.11282933159E+02  0.29655909738E+02  0.14728759139E+03  0.15066655947E+03  0.00000000000E+00 0. -1.
<mgrwt>
<rscale>  2 0.31729758E+02</rscale>
<asrwt>0</asrwt>
<pdfrwt beam="1">  1       21 0.39233474E-01 0.31729758E+02</pdfrwt>
<pdfrwt beam="2">  1       21 0.62508492E-03 0.31729758E+02</pdfrwt>
<totfact> 0.39312939E+07</totfact>
</mgrwt>
</event>
<event>
 4    1  0.2821610E+004  0.3591429E+02  0.7546771E-02  0.1540628E+00
         21   -1    0    0  503  502  0.00000000000E+00  0.00000000000E+00  0.13824171929E+01  0.13824171929E+01  0.00000000000E+00 0.  1.
         21   -1    0    0  501  503 -0.00000000000E+00 -0.00000000000E+00 -0.23977559894E+04  0.23977559894E+04  0.00000000000E+00 0. -1.
          2    1    1    2  501    0 -0.11784068840E+01  0.35894948225E+02 -0.21357511479E+04  0.21360530896E+04  0.00000000000E+00 0. -1.
         -2    1    1    2    0  502  0.11784068840E+01 -0.35894948225E+02 -0.26062242426E+03  0.26308531691E+03  0.00000000000E+00 0.  1.
<mgrwt>
<rscale>  2 0.35914286E+02</rscale>
<asrwt>0</asrwt>
<pdfrwt beam="1">  1       21 0.21267953E-03 0.35914286E+02</pdfrwt>
<pdfrwt beam="2">  1       21 0.36888560E+00 0.35914286E+02</pdfrwt>
<totfact> 0.71103186E+05</totfact>
</mgrwt>
</event>
<event>
 4    1  0.2821610E+004  0.2385100E+02  0.7546771E-02  0.1678076E+00
         21   -1    0    0  501  502  0.00000000000E+00  0.00000000000E+00  0.13182237020E+02  0.13182237020E+02  0.00000000000E+00 0.  1.
         21   -1    0    0  502  503 -0.00000000000E+00 -0.00000000000E+00 -0.56424641321E+02  0.56424641321E+02  0.00000000000E+00 0. -1.
          2    1    1    2  501    0 -0.14068604435E+02  0.19259916327E+02 -0.47428883392E+01  0.24317997398E+02  0.00000000000E+00 0.  1.
         -2    1    1    2    0  503  0.14068604435E+02 -0.19259916327E+02 -0.38499515963E+02  0.45288880942E+02  0.00000000000E+00 0. -1.
<mgrwt>
<rscale>  2 0.23850996E+02</rscale>
<asrwt>0</asrwt>
<pdfrwt beam="1">  1       21 0.20280365E-02 0.23850996E+02</pdfrwt>
<pdfrwt beam="2">  1       21 0.86807140E-02 0.23850996E+02</pdfrwt>
<totfact> 0.87033713E+07</totfact>
</mgrwt>
</event>
<event>
 4    1  0.2821610E+004  0.2114761E+02  0.7546771E-02  0.1723425E+00
         21   -1    0    0  501  502  0.00000000000E+00  0.00000000000E+00  0.14948071295E+01  0.14948071295E+01  0.00000000000E+00 0.  1.
         21   -1    0    0  502  503 -0.00000000000E+00 -0.00000000000E+00 -0.41123853290E+03  0.41123853290E+03  0.00000000000E+00 0. -1.
          2    1    1    2  501    0 -0.98048849493E+01 -0.18737276258E+02 -0.97148778917E+02  0.99423873066E+02  0.00000000000E+00 0.  1.
         -2    1    1    2    0  503  0.98048849493E+01  0.18737276258E+02 -0.31259494686E+03  0.31330946697E+03  0.00000000000E+00 0. -1.
<mgrwt>
<rscale>  2 0.21147607E+02</rscale>
<asrwt>0</asrwt>
<pdfrwt beam="1">  1       21 0.22997022E-03 0.21147607E+02</pdfrwt>
<pdfrwt beam="2">  1       21 0.63267497E-01 0.21147607E+02</pdfrwt>
<totfact> 0.61548168E+07</totfact>
</mgrwt>
</event>
<event>
 4    1  0.2821610E+004  0.2135019E+02  0.7546771E-02  0.1719739E+00
         21   -1    0    0  503  502  0.00000000000E+00  0.00000000000E+00  0.45419136909E+03  0.45419136909E+03  0.00000000000E+00 0.  1.
         21   -1    0    0  501  503 -0.00000000000E+00 -0.00000000000E+00 -0.40517555236E+01  0.40517555236E+01  0.00000000000E+00 0. -1.
          2    1    1    2  501    0  0.90087447731E+01  0.19356471478E+02  0.26340335490E+02  0.33906396804E+02  0.00000000000E+00 0. -1.
         -2    1    1    2    0  502 -0.90087447731E+01 -0.19356471478E+02  0.42379927807E+03  0.42433672781E+03  0.00000000000E+00 0.  1.
<mgrwt>
<rscale>  2 0.21350187E+02</rscale>
<asrwt>0</asrwt>
<pdfrwt beam="1">  1       21 0.69875555E-01 0.21350187E+02</pdfrwt>
<pdfrwt beam="2">  1       21 0.62334736E-03 0.21350187E+02</pdfrwt>
<totfact> 0.11746024E+07</totfact>
</mgrwt>
</event>
<event>
 4    1  0.2821610E+004  0.3366779E+02  0.7546771E-02  0.1560759E+00
         21   -1    0    0  503  502  0.00000000000E+00  0.00000000000E+00  0.92525955157E+02  0.92525955157E+02  0.00000000000E+00 0.  1.
         21   -1    0    0  501  503 -0.00000000000E+00 -0.00000000000E+00 -0.12305580582E+02  0.12305580582E+02  0.00000000000E+00 0. -1.
          2    1    1    2  501    0 -0.47105537685E+01  0.33336628709E+02  0.43606327472E+02  0.55091123841E+02  0.00000000000E+00 0. -1.
         -2    1    1    2    0  502  0.47105537685E+01 -0.33336628709E+02  0.36614047103E+02  0.49740411898E+02  0.00000000000E+00 0.  1.
<mgrwt>
<rscale>  2 0.33667791E+02</rscale>
<asrwt>0</asrwt>
<pdfrwt beam="1">  1       21 0.14234762E-01 0.33667791E+02</pdfrwt>
<pdfrwt beam="2">  1       21 0.18931663E-02 0.33667791E+02</pdfrwt>
<totfact> 0.45731377E+07</totfact>
</mgrwt>
</event>
<event>
 4    1  0.2821610E+004  0.2379401E+02  0.7546771E-02  0.1678954E+00
         21   -1    0    0  503  502  0.00000000000E+00  0.00000000000E+00  0.30618250011E+01  0.30618250011E+01  0.00000000000E+00 0.  1.
         21   -1    0    0  501  503 -0.00000000000E+00 -0.00000000000E+00 -0.22180370106E+03  0.22180370106E+03  0.00000000000E+00 0. -1.
          2    1    1    2  501    0  0.62647432862E+01  0.22954478309E+02 -0.15522713299E+03  0.15704017925E+03  0.00000000000E+00 0. -1.
         -2    1    1    2    0  502 -0.62647432862E+01 -0.22954478309E+02 -0.63514743074E+02  0.67825346815E+02  0.00000000000E+00 0.  1.
<mgrwt>
<rscale>  2 0.23794014E+02</rscale>
<asrwt>0</asrwt>
<pdfrwt beam="1">  1       21 0.47105014E-03 0.23794014E+02</pdfrwt>
<pdfrwt beam="2">  1       21 0.34123636E-01 0.23794014E+02</pdfrwt>
<totfact> 0.73023432E+07</totfact>
</mgrwt>
</event>
<event>
 4    1  0.2821610E+004  0.2331514E+02  0.7546771E-02  0.1686452E+00
         21   -1    0    0  501  502  0.00000000000E+00  0.00000000000E+00  0.18944200175E+01  0.18944200175E+01  0.00000000000E+00 0. -1.
         21   -1    0    0  502  503 -0.00000000000E+00 -0.00000000000E+00 -0.31085901884E+03  0.31085901884E+03  0.00000000000E+00 0.  1.
          2    1    1    2  501    0 -0.11903705631E+02 -0.20047384168E+02 -0.11111028335E+03  0.11353013206E+03  0.00000000000E+00 0. -1.
         -2    1    1    2    0  503  0.11903705631E+02  0.20047384168E+02 -0.19785431547E+03  0.19922330680E+03  0.00000000000E+00 0.  1.
<mgrwt>
<rscale>  2 0.23315141E+02</rscale>
<asrwt>0</asrwt>
<pdfrwt beam="1">  1       21 0.29144912E-03 0.23315141E+02</pdfrwt>
<pdfrwt beam="2">  1       21 0.47824482E-01 0.23315141E+02</pdfrwt>
<totfact> 0.77592598E+07</totfact>
</mgrwt>
</event>
<event>
 4    1  0.2821610E+004  0.2602627E+02  0.7546771E-02  0.1646684E+00
         21   -1    0    0  501  502  0.00000000000E+00  0.00000000000E+00  0.86076245642E+02  0.86076245642E+02  0.00000000000E+00 0.  1.
         21   -1    0    0  502  503 -0.00000000000E+00 -0.00000000000E+00 -0.78708056275E+01  0.78708056275E+01  0.00000000000E+00 0. -1.
          2    1    1    2  501    0 -0.16192276534E+02 -0.20375888123E+02  0.39735036740E+02  0.47499892430E+02  0.00000000000E+00 0.  1.
         -2    1    1    2    0  503  0.16192276534E+02  0.20375888123E+02  0.38470403274E+02  0.46447158839E+02  0.00000000000E+00 0. -1.
<mgrwt>
<rscale>  2 0.26026268E+02</rscale>
<asrwt>0</asrwt>
<pdfrwt beam="1">  1       21 0.13242499E-01 0.26026268E+02</pdfrwt>
<pdfrwt beam="2">  1       21 0.12108932E-02 0.26026268E+02</pdfrwt>
<totfact> 0.96775638E+07</totfact>
</mgrwt>
</event>
<event>
 4    1  0.2821610E+004  0.2024287E+02  0.7546771E-02  0.1740541E+00
         21   -1    0    0  503  502  0.00000000000E+00  0.00000000000E+00  0.32461639313E+00  0.32461639313E+00  0.00000000000E+00 0.  1.
         21   -1    0    0  501  503 -0.00000000000E+00 -0.00000000000E+00 -0.13089373055E+04  0.13089373055E+04  0.00000000000E+00 0. -1.
          2    1    1    2  501    0 -0.19783419108E+02  0.42883735521E+01 -0.77783067897E+03  0.77809404249E+03  0.00000000000E+00 0. -1.
         -2    1    1    2    0  502  0.19783419108E+02 -0.42883735521E+01 -0.53078201012E+03  0.53116787938E+03  0.00000000000E+00 0.  1.
<mgrwt>
<rscale>  2 0.20242871E+02</rscale>
<asrwt>0</asrwt>
<pdfrwt beam="1">  1       21 0.49940486E-04 0.20242871E+02</pdfrwt>
<pdfrwt beam="2">  1       21 0.20137698E+00 0.20242871E+02</pdfrwt>
<totfact> 0.39926989E+07</totfact>
</mgrwt>
</event>
<event>
 4    1  0.2821610E+004  0.2242897E+02  0.7546771E-02  0.1700937E+00
         21   -1    0    0  501  502  0.00000000000E+00  0.00000000000E+00  0.42536168079E+02  0.42536168079E+02  0.00000000000E+00 0. -1.
         21   -1    0    0  502  503 -0.00000000000E+00 -0.00000000000E+00 -0.56514790413E+02  0.56514790413E+02  0.00000000000E+00 0.  1.
          2    1    1    2  501    0 -0.17119901638E+02 -0.14490263051E+02  0.37050348312E+02  0.43310357484E+02  0.00000000000E+00 0. -1.
         -2    1    1    2    0  503  0.17119901638E+02  0.14490263051E+02 -0.51028970647E+02  0.55740601007E+02  0.00000000000E+00 0.  1.
<mgrwt>
<rscale>  2 0.22428971E+02</rscale>
<asrwt>0</asrwt>
<pdfrwt beam="1">  1       21 0.65440259E-02 0.22428971E+02</pdfrwt>
<pdfrwt beam="2">  1       21 0.86945831E-02 0.22428971E+02</pdfrwt>
<totfact> 0.13567653E+07</totfact>
</mgrwt>
</event>
<event>
 4    1  0.2821610E+004  0.2129143E+02  0.7546771E-02  0.1720803E+00
         21   -1    0    0  503  502  0.00000000000E+00  0.00000000000E+00  0.14674805729E+03  0.14674805729E+03  0.00000000000E+00 0. -1.
         21   -1    0    0  501  503 -0.00000000000E+00 -0.00000000000E+00 -0.30906896111E+01  0.30906896111E+01  0.00000000000E+00 0.  1.
          2    1    1    2  501    0  0.11789843656E+02  0.17729198631E+02  0.73507703472E+02  0.76529127575E+02  0.00000000000E+00 0.  1.
         -2    1    1    2    0  502 -0.11789843656E+02 -0.17729198631E+02  0.70149664208E+02  0.73309619328E+02  0.00000000000E+00 0. -1.
<mgrwt>
<rscale>  2 0.21291428E+02</rscale>
<asrwt>0</asrwt>
<pdfrwt beam="1">  1       21 0.22576619E-01 0.21291428E+02</pdfrwt>
<pdfrwt beam="2">  1       21 0.47549082E-03 0.21291428E+02</pdfrwt>
<totfact> 0.14708443E+08</totfact>
</mgrwt>
</event>
<event>
 4    1  0.2821610E+004  0.2165718E+02  0.7546771E-02  0.1714249E+00
         21   -1    0    0  503  502  0.00000000000E+00  0.00000000000E+00  0.50164441090E+01  0.50164441090E+01  0.00000000000E+00 0. -1.
         21   -1    0    0  501  503 -0.00000000000E+00 -0.00000000000E+00 -0.22805634903E+03  0.22805634903E+03  0.00000000000E+00 0.  1.
          2    1    1    2  501    0  0.12685504774E+02  0.17553104855E+02 -0.20103455475E+03  0.20219773917E+03  0.00000000000E+00 0.  1.
         -2    1    1    2    0  502 -0.12685504774E+02 -0.17553104855E+02 -0.22005350166E+02  0.30875053965E+02  0.00000000000E+00 0. -1.
<mgrwt>
<rscale>  2 0.21657182E+02</rscale>
<asrwt>0</asrwt>
<pdfrwt beam="1">  1       21 0.77176061E-03 0.21657182E+02</pdfrwt>
<pdfrwt beam="2">  1       21 0.35085593E-01 0.21657182E+02</pdfrwt>
<totfact> 0.32629396E+07</totfact>
</mgrwt>
</event>
<event>
 4    1  0.2821610E+004  0.2195162E+02  0.7546771E-02  0.1709090E+00
         21   -1    0    0  501  502  0.00000000000E+00  0.00000000000E+00  0.22996786430E+01  0.22996786430E+01  0.00000000000E+00 0. -1.
         21   -1    0    0  502  503 -0.00000000000E+00 -0.00000000000E+00 -0.32201642121E+03  0.32201642121E+03  0.00000000000E+00 0.  1.
          2    1    1    2  501    0 -0.14531722724E+02  0.16453042077E+02 -0.64021820470E+02  0.67680625405E+02  0.00000000000E+00 0. -1.
         -2    1    1    2    0  503  0.14531722724E+02 -0.16453042077E+02 -0.25569492210E+03  0.25663547445E+03  0.00000000000E+00 0.  1.
<mgrwt>
<rscale>  2 0.21951619E+02</rscale>
<asrwt>0</asrwt>
<pdfrwt beam="1">  1       21 0.35379653E-03 0.21951619E+02</pdfrwt>
<pdfrwt beam="2">  1       21 0.49541013E-01 0.21951619E+02</pdfrwt>
<totfact> 0.53819164E+07</totfact>
</mgrwt>
</event>
<event>
 4    1  0.2821610E+004  0.2534973E+02  0.7546771E-02  0.1656029E+00
         21   -1    0    0  503  502  0.00000000000E+00  0.00000000000E+00  0.30105777284E+01  0.30105777284E+01  0.00000000000E+00 0.  1.
         21   -1    0    0  501  503 -0.00000000000E+00 -0.00000000000E+00 -0.40846908480E+03  0.40846908480E+03  0.00000000000E+00 0. -1.
          2    1    1    2  501    0  0.14478340258E+02 -0.20808330154E+02 -0.34488909299E+03  0.34581945493E+03  0.00000000000E+00 0. -1.
         -2    1    1    2    0  502 -0.14478340258E+02  0.20808330154E+02 -0.60569414075E+02  0.65660207598E+02  0.00000000000E+00 0.  1.
<mgrwt>
<rscale>  2 0.25349733E+02</rscale>
<asrwt>0</asrwt>
<pdfrwt beam="1">  1       21 0.46316621E-03 0.25349733E+02</pdfrwt>
<pdfrwt beam="2">  1       21 0.62841343E-01 0.25349733E+02</pdfrwt>
<totfact> 0.23356177E+07</totfact>
</mgrwt>
</event>
<event>
 4    1  0.2821610E+004  0.2504588E+02  0.7546771E-02  0.1660344E+00
         21   -1    0    0  503  502  0.00000000000E+00  0.00000000000E+00  0.18690725884E+01  0.18690725884E+01  0.00000000000E+00 0.  1.
         21   -1    0    0  501  503 -0.00000000000E+00 -0.00000000000E+00 -0.60956124472E+03  0.60956124472E+03  0.00000000000E+00 0. -1.
          2    1    1    2  501    0 -0.20358864411E+02  0.14588105935E+02 -0.50879132703E+03  0.50940741127E+03  0.00000000000E+00 0. -1.
         -2    1    1    2    0  502  0.20358864411E+02 -0.14588105935E+02 -0.98900845100E+02  0.10202290604E+03  0.00000000000E+00 0.  1.
<mgrwt>
<rscale>  2 0.25045882E+02</rscale>
<asrwt>0</asrwt>
<pdfrwt beam="1">  1       21 0.28754936E-03 0.25045882E+02</pdfrwt>
<pdfrwt beam="2">  1       21 0.93778739E-01 0.25045882E+02</pdfrwt>
<totfact> 0.20306915E+07</totfact>
</mgrwt>
</event>
<event>
 4    1  0.2821610E+004  0.2350639E+02  0.7546771E-02  0.1683431E+00
         21   -1    0    0  501  502  0.00000000000E+00  0.00000000000E+00  0.32358630610E+03  0.32358630610E+03  0.00000000000E+00 0. -1.
         21   -1    0    0  502  503 -0.00000000000E+00 -0.00000000000E+00 -0.20439929557E+01  0.20439929557E+01  0.00000000000E+00 0.  1.
          2    1    1    2  501    0 -0.20745230048E+02  0.11053760053E+02  0.22682378771E+03  0.22803855124E+03  0.00000000000E+00 0. -1.
         -2    1    1    2    0  503  0.20745230048E+02 -0.11053760053E+02  0.94718525437E+02  0.97591747817E+02  0.00000000000E+00 0.  1.
<mgrwt>
<rscale>  2 0.23506386E+02</rscale>
<asrwt>0</asrwt>
<pdfrwt beam="1">  1       21 0.49782468E-01 0.23506386E+02</pdfrwt>
<pdfrwt beam="2">  1       21 0.31446071E-03 0.23506386E+02</pdfrwt>
<totfact> 0.64385973E+07</totfact>
</mgrwt>
</event>
<event>
 4    1  0.2821610E+004  0.6974602E+02  0.7546771E-02  0.1360959E+00
         21   -1    0    0  503  502  0.00000000000E+00  0.00000000000E+00  0.77918095755E+02  0.77918095755E+02  0.00000000000E+00 0. -1.
         21   -1    0    0  501  503 -0.00000000000E+00 -0.00000000000E+00 -0.62493763352E+02  0.62493763352E+02  0.00000000000E+00 0.  1.
          2    1    1    2  501    0 -0.68060761024E+02 -0.15239430325E+02  0.54879114712E+01  0.69961593751E+02  0.00000000000E+00 0. -1.
         -2    1    1    2    0  502  0.68060761024E+02  0.15239430325E+02  0.99364209320E+01  0.70450265356E+02  0.00000000000E+00 0.  1.
<mgrwt>
<rscale>  2 0.69746021E+02</rscale>
<asrwt>0</asrwt>
<pdfrwt beam="1">  1       21 0.11987399E-01 0.69746021E+02</pdfrwt>
<pdfrwt beam="2">  1       21 0.96144252E-02 0.69746021E+02</pdfrwt>
<totfact> 0.48446243E+06</totfact>
</mgrwt>
</event>
<event>
 4    1  0.2821610E+004  0.2816490E+02  0.7546771E-02  0.1619306E+00
         21   -1    0    0  503  502  0.00000000000E+00  0.00000000000E+00  0.27355510970E+02  0.27355510970E+02  0.00000000000E+00 0. -1.
         21   -1    0    0  501  503 -0.00000000000E+00 -0.00000000000E+00 -0.32002764103E+02  0.32002764103E+02  0.00000000000E+00 0.  1.
          2    1    1    2  501    0 -0.24398776195E+02  0.14069876591E+02 -0.11417424207E+02  0.30391105320E+02  0.00000000000E+00 0. -1.
         -2    1    1    2    0  502  0.24398776195E+02 -0.14069876591E+02  0.67701710742E+01  0.28967169752E+02  0.00000000000E+00 0.  1.
<mgrwt>
<rscale>  2 0.28164902E+02</rscale>
<asrwt>0</asrwt>
<pdfrwt beam="1">  1       21 0.42085402E-02 0.28164902E+02</pdfrwt>
<pdfrwt beam="2">  1       21 0.49235022E-02 0.28164902E+02</pdfrwt>
<totfact> 0.72790454E+07</totfact>
</mgrwt>
</event>
<event>
 4    1  0.2821610E+004  0.2246568E+02  0.7546771E-02  0.1700321E+00
         21   -1    0    0  503  502  0.00000000000E+00  0.00000000000E+00  0.50832671287E+03  0.50832671287E+03  0.00000000000E+00 0. -1.
         21   -1    0    0  501  503 -0.00000000000E+00 -0.00000000000E+00 -0.17456759378E+01  0.17456759378E+01  0.00000000000E+00 0.  1.
          2    1    1    2  501    0 -0.66295167730E+01 -0.21465236947E+02  0.85812063960E+02  0.88704099178E+02  0.00000000000E+00 0.  1.
         -2    1    1    2    0  502  0.66295167730E+01  0.21465236947E+02  0.42076897297E+03  0.42136828963E+03  0.00000000000E+00 0. -1.
<mgrwt>
<rscale>  2 0.22465682E+02</rscale>
<asrwt>0</asrwt>
<pdfrwt beam="1">  1       21 0.78203992E-01 0.22465682E+02</pdfrwt>
<pdfrwt beam="2">  1       21 0.26856593E-03 0.22465682E+02</pdfrwt>
<totfact> 0.32301366E+07</totfact>
</mgrwt>
</event>
<event>
 4    1  0.2821610E+004  0.3224144E+02  0.7546771E-02  0.1574557E+00
         21   -1    0    0  503  502  0.00000000000E+00  0.00000000000E+00  0.85079031394E+00  0.85079031394E+00  0.00000000000E+00 0.  1.
         21   -1    0    0  501  503 -0.00000000000E+00 -0.00000000000E+00 -0.13766079773E+04  0.13766079773E+04  0.00000000000E+00 0. -1.
          2    1    1    2  501    0  0.15764691116E+01 -0.32202877935E+02 -0.91882723559E+03  0.91939273407E+03  0.00000000000E+00 0. -1.
         -2    1    1    2    0  502 -0.15764691116E+01  0.32202877935E+02 -0.45692995138E+03  0.45806603353E+03  0.00000000000E+00 0.  1.
<mgrwt>
<rscale>  2 0.32241442E+02</rscale>
<asrwt>0</asrwt>
<pdfrwt beam="1">  1       21 0.13089188E-03 0.32241442E+02</pdfrwt>
<pdfrwt beam="2">  1       21 0.21178413E+00 0.32241442E+02</pdfrwt>
<totfact> 0.94036938E+06</totfact>
</mgrwt>
</event>
<event>
 4    1  0.2821610E+004  0.2004203E+02  0.7546771E-02  0.1744494E+00
         21   -1    0    0  501  502  0.00000000000E+00  0.00000000000E+00  0.70880202848E+01  0.70880202848E+01  0.00000000000E+00 0. -1.
         21   -1    0    0  502  503 -0.00000000000E+00 -0.00000000000E+00 -0.71948460501E+02  0.71948460501E+02  0.00000000000E+00 0.  1.
          2    1    1    2  501    0 -0.14361862853E+02 -0.13979261623E+02 -0.14219919379E+02  0.24574152422E+02  0.00000000000E+00 0. -1.
         -2    1    1    2    0  503  0.14361862853E+02  0.13979261623E+02 -0.50640520837E+02  0.54462328363E+02  0.00000000000E+00 0.  1.
<mgrwt>
<rscale>  2 0.20042027E+02</rscale>
<asrwt>0</asrwt>
<pdfrwt beam="1">  1       21 0.10904647E-02 0.20042027E+02</pdfrwt>
<pdfrwt beam="2">  1       21 0.11068994E-01 0.20042027E+02</pdfrwt>
<totfact> 0.14200448E+08</totfact>
</mgrwt>
</event>
<event>
 4    1  0.2821610E+004  0.2200925E+02  0.7546771E-02  0.1708092E+00
         21   -1    0    0  503  502  0.00000000000E+00  0.00000000000E+00  0.25908620568E+02  0.25908620568E+02  0.00000000000E+00 0. -1.
         21   -1    0    0  501  503 -0.00000000000E+00 -0.00000000000E+00 -0.23616199762E+02  0.23616199762E+02  0.00000000000E+00 0.  1.
          2    1    1    2  501    0  0.11969257114E+02 -0.18470082154E+02 -0.10155549780E+02  0.24239270656E+02  0.00000000000E+00 0.  1.
         -2    1    1    2    0  502 -0.11969257114E+02  0.18470082154E+02  0.12447970586E+02  0.25285549674E+02  0.00000000000E+00 0. -1.
<mgrwt>
<rscale>  2 0.22009249E+02</rscale>
<asrwt>0</asrwt>
<pdfrwt beam="1">  1       21 0.39859416E-02 0.22009249E+02</pdfrwt>
<pdfrwt beam="2">  1       21 0.36332615E-02 0.22009249E+02</pdfrwt>
<totfact> 0.12006959E+08</totfact>
</mgrwt>
</event>
<event>
 4    1  0.2821610E+004  0.3607066E+02  0.7546771E-02  0.1539293E+00
         21   -1    0    0  503  502  0.00000000000E+00  0.00000000000E+00  0.23100182224E+02  0.23100182224E+02  0.00000000000E+00 0. -1.
         21   -1    0    0  501  503 -0.00000000000E+00 -0.00000000000E+00 -0.56718131409E+02  0.56718131409E+02  0.00000000000E+00 0.  1.
          2    1    1    2  501    0 -0.33430480006E+02 -0.13546043959E+02 -0.13481701294E+02  0.38507772853E+02  0.00000000000E+00 0. -1.
         -2    1    1    2    0  502  0.33430480006E+02  0.13546043959E+02 -0.20136247891E+02  0.41310540779E+02  0.00000000000E+00 0.  1.
<mgrwt>
<rscale>  2 0.36070657E+02</rscale>
<asrwt>0</asrwt>
<pdfrwt beam="1">  1       21 0.35538742E-02 0.36070657E+02</pdfrwt>
<pdfrwt beam="2">  1       21 0.87258664E-02 0.36070657E+02</pdfrwt>
<totfact> 0.39472052E+07</totfact>
</mgrwt>
</event>
<event>
 4    1  0.2821610E+004  0.2438125E+02  0.7546771E-02  0.1670052E+00
         21   -1    0    0  501  502  0.00000000000E+00  0.00000000000E+00  0.43332460469E+01  0.43332460469E+01  0.00000000000E+00 0. -1.
         21   -1    0    0  502  503 -0.00000000000E+00 -0.00000000000E+00 -0.15971243386E+03  0.15971243386E+03  0.00000000000E+00 0.  1.
          2    1    1    2  501    0 -0.23614429570E+02 -0.60666229976E+01 -0.46882826855E+02  0.52843586673E+02  0.00000000000E+00 0.  1.
         -2    1    1    2    0  503  0.23614429570E+02  0.60666229976E+01 -0.10849636096E+03  0.11120209323E+03  0.00000000000E+00 0. -1.
<mgrwt>
<rscale>  2 0.24381247E+02</rscale>
<asrwt>0</asrwt>
<pdfrwt beam="1">  1       21 0.66665317E-03 0.24381247E+02</pdfrwt>
<pdfrwt beam="2">  1       21 0.24571146E-01 0.24381247E+02</pdfrwt>
<totfact> 0.79750030E+07</totfact>
</mgrwt>
</event>
<event>
 4    1  0.2821610E+004  0.2787122E+02  0.7546771E-02  0.1622886E+00
         21   -1    0    0  503  502  0.00000000000E+00  0.00000000000E+00  0.10990298732E+04  0.10990298732E+04  0.00000000000E+00 0.  1.
         21   -1    0    0  501  503 -0.00000000000E+00 -0.00000000000E+00 -0.11826641589E+01  0.11826641589E+01  0.00000000000E+00 0. -1.
          2    1    1    2  501    0 -0.20778819792E+02 -0.18575404221E+02  0.19998185044E+03  0.20191469857E+03  0.00000000000E+00 0. -1.
         -2    1    1    2    0  502  0.20778819792E+02  0.18575404221E+02  0.89786535856E+03  0.89829783874E+03  0.00000000000E+00 0.  1.
<mgrwt>
<rscale>  2 0.27871222E+02</rscale>
<asrwt>0</asrwt>
<pdfrwt beam="1">  1       21 0.16908070E+00 0.27871222E+02</pdfrwt>
<pdfrwt beam="2">  1       21 0.18194921E-03 0.27871222E+02</pdfrwt>
<totfact> 0.10298122E+07</totfact>
</mgrwt>
</event>
<event>
 4    1  0.2821610E+004  0.2648381E+02  0.7546771E-02  0.1640561E+00
         21   -1    0    0  503  502  0.00000000000E+00  0.00000000000E+00  0.44984078937E+00  0.44984078937E+00  0.00000000000E+00 0. -1.
         21   -1    0    0  501  503 -0.00000000000E+00 -0.00000000000E+00 -0.21680483797E+04  0.21680483797E+04  0.00000000000E+00 0.  1.
          2    1    1    2  501    0 -0.26304578291E+02  0.30759605129E+01 -0.16583768561E+04  0.16585883122E+04  0.00000000000E+00 0.  1.
         -2    1    1    2    0  502  0.26304578291E+02 -0.30759605129E+01 -0.50922168281E+03  0.50990990833E+03  0.00000000000E+00 0. -1.
<mgrwt>
<rscale>  2 0.26483813E+02</rscale>
<asrwt>0</asrwt>
<pdfrwt beam="1">  1       21 0.69204982E-04 0.26483813E+02</pdfrwt>
<pdfrwt beam="2">  1       21 0.33355214E+00 0.26483813E+02</pdfrwt>
<totfact> 0.56131417E+06</totfact>
</mgrwt>
</event>
<event>
 4    1  0.2821610E+004  0.2286813E+02  0.7546771E-02  0.1693657E+00
         21   -1    0    0  501  502  0.00000000000E+00  0.00000000000E+00  0.74784668216E+00  0.74784668216E+00  0.00000000000E+00 0.  1.
         21   -1    0    0  502  503 -0.00000000000E+00 -0.00000000000E+00 -0.70112613281E+03  0.70112613281E+03  0.00000000000E+00 0. -1.
          2    1    1    2  501    0 -0.22999567050E+01 -0.22752175118E+02 -0.33216200743E+03  0.33294826993E+03  0.00000000000E+00 0.  1.
         -2    1    1    2    0  503  0.22999567050E+01  0.22752175118E+02 -0.36821627870E+03  0.36892570956E+03  0.00000000000E+00 0. -1.
<mgrwt>
<rscale>  2 0.22868128E+02</rscale>
<asrwt>0</asrwt>
<pdfrwt beam="1">  1       21 0.11505340E-03 0.22868128E+02</pdfrwt>
<pdfrwt beam="2">  1       21 0.10786550E+00 0.22868128E+02</pdfrwt>
<totfact> 0.55003600E+07</totfact>
</mgrwt>
</event>
<event>
 4    1  0.2821610E+004  0.2769773E+02  0.7546771E-02  0.1625027E+00
         21   -1    0    0  501  502  0.00000000000E+00  0.00000000000E+00  0.17384314809E+02  0.17384314809E+02  0.00000000000E+00 0. -1.
         21   -1    0    0  502  503 -0.00000000000E+00 -0.00000000000E+00 -0.49657338699E+02  0.49657338699E+02  0.00000000000E+00 0.  1.
          2    1    1    2  501    0  0.19056453011E+02 -0.20100145809E+02 -0.49526040708E+01  0.28137031649E+02  0.00000000000E+00 0. -1.
         -2    1    1    2    0  503 -0.19056453011E+02  0.20100145809E+02 -0.27320419819E+02  0.38904621859E+02  0.00000000000E+00 0.  1.
<mgrwt>
<rscale>  2 0.27697730E+02</rscale>
<asrwt>0</asrwt>
<pdfrwt beam="1">  1       21 0.26745100E-02 0.27697730E+02</pdfrwt>
<pdfrwt beam="2">  1       21 0.76395904E-02 0.27697730E+02</pdfrwt>
<totfact> 0.72661709E+07</totfact>
</mgrwt>
</event>
<event>
 4    1  0.2821610E+004  0.2515964E+02  0.7546771E-02  0.1658719E+00
         21   -1    0    0  503  502  0.00000000000E+00  0.00000000000E+00  0.22932772621E+03  0.22932772621E+03  0.00000000000E+00 0.  1.
         21   -1    0    0  501  503 -0.00000000000E+00 -0.00000000000E+00 -0.90600687621E+01  0.90600687621E+01  0.00000000000E+00 0. -1.
          2    1    1    2  501    0 -0.22537527285E+02  0.11183351356E+02  0.10741822727E+02  0.27356795119E+02  0.00000000000E+00 0. -1.
         -2    1    1    2    0  502  0.22537527285E+02 -0.11183351356E+02  0.20952583472E+03  0.21103099985E+03  0.00000000000E+00 0.  1.
<mgrwt>
<rscale>  2 0.25159640E+02</rscale>
<asrwt>0</asrwt>
<pdfrwt beam="1">  1       21 0.35281184E-01 0.25159640E+02</pdfrwt>
<pdfrwt beam="2">  1       21 0.13938569E-02 0.25159640E+02</pdfrwt>
<totfact> 0.13694896E+07</totfact>
</mgrwt>
</event>
<event>
 4    1  0.2821610E+004  0.3646144E+02  0.7546771E-02  0.1535993E+00
         21   -1    0    0  503  502  0.00000000000E+00  0.00000000000E+00  0.49656819248E+03  0.49656819248E+03  0.00000000000E+00 0.  1.
         21   -1    0    0  501  503 -0.00000000000E+00 -0.00000000000E+00 -0.21509103899E+02  0.21509103899E+02  0.00000000000E+00 0. -1.
          2    1    1    2  501    0  0.32989906425E+02  0.15527490039E+02 -0.48522252872E+01  0.36782889542E+02  0.00000000000E+00 0. -1.
         -2    1    1    2    0  502 -0.32989906425E+02 -0.15527490039E+02  0.47991131387E+03  0.48129440684E+03  0.00000000000E+00 0.  1.
<mgrwt>
<rscale>  2 0.36461444E+02</rscale>
<asrwt>0</asrwt>
<pdfrwt beam="1">  1       21 0.76395098E-01 0.36461444E+02</pdfrwt>
<pdfrwt beam="2">  1       21 0.33090933E-02 0.36461444E+02</pdfrwt>
<totfact> 0.80608817E+05</totfact>
</mgrwt>
</event>
<event>
 4    1  0.2821610E+004  0.2470102E+02  0.7546771E-02  0.1665334E+00
         21   -1    0    0  501  502  0.00000000000E+00  0.00000000000E+00  0.13298104414E+02  0.13298104414E+02  0.00000000000E+00 0. -1.
         21   -1    0    0  502  503 -0.00000000000E+00 -0.00000000000E+00 -0.11742607029E+03  0.11742607029E+03  0.00000000000E+00 0.  1.
          2    1    1    2  501    0 -0.22079790620E+02  0.11073534326E+02 -0.10450669068E+01  0.24723116332E+02  0.00000000000E+00 0. -1.
         -2    1    1    2    0  503  0.22079790620E+02 -0.11073534326E+02 -0.10308289897E+03  0.10600105838E+03  0.00000000000E+00 0.  1.
<mgrwt>
<rscale>  2 0.24701019E+02</rscale>
<asrwt>0</asrwt>
<pdfrwt beam="1">  1       21 0.20458622E-02 0.24701019E+02</pdfrwt>
<pdfrwt beam="2">  1       21 0.18065549E-01 0.24701019E+02</pdfrwt>
<totfact> 0.25192658E+07</totfact>
</mgrwt>
</event>
<event>
 4    1  0.2821610E+004  0.2745143E+02  0.7546771E-02  0.1628098E+00
         21   -1    0    0  501  502  0.00000000000E+00  0.00000000000E+00  0.30725670507E+02  0.30725670507E+02  0.00000000000E+00 0.  1.
         21   -1    0    0  502  503 -0.00000000000E+00 -0.00000000000E+00 -0.18713239174E+03  0.18713239174E+03  0.00000000000E+00 0. -1.
          2    1    1    2  501    0  0.26459736379E+02 -0.73118476544E+01  0.23336797172E+02  0.36030360359E+02  0.00000000000E+00 0.  1.
         -2    1    1    2    0  503 -0.26459736379E+02  0.73118476544E+01 -0.17974351841E+03  0.18182770189E+03  0.00000000000E+00 0. -1.
<mgrwt>
<rscale>  2 0.27451426E+02</rscale>
<asrwt>0</asrwt>
<pdfrwt beam="1">  1       21 0.47270263E-02 0.27451426E+02</pdfrwt>
<pdfrwt beam="2">  1       21 0.28789599E-01 0.27451426E+02</pdfrwt>
<totfact> 0.30141022E+06</totfact>
</mgrwt>
</event>
<event>
 4    1  0.2821610E+004  0.5082075E+02  0.7546771E-02  0.1440964E+00
         21   -1    0    0  501  502  0.00000000000E+00  0.00000000000E+00  0.31508833469E+02  0.31508833469E+02  0.00000000000E+00 0. -1.
         21   -1    0    0  502  503 -0.00000000000E+00 -0.00000000000E+00 -0.31556805061E+03  0.31556805061E+03  0.00000000000E+00 0.  1.
          2    1    1    2  501    0 -0.31741346457E+02 -0.39689242861E+02  0.72789397722E+01  0.51339380967E+02  0.00000000000E+00 0. -1.
         -2    1    1    2    0  503  0.31741346457E+02  0.39689242861E+02 -0.29133815691E+03  0.29573750311E+03  0.00000000000E+00 0.  1.
<mgrwt>
<rscale>  2 0.50820754E+02</rscale>
<asrwt>0</asrwt>
<pdfrwt beam="1">  1       21 0.48475128E-02 0.50820754E+02</pdfrwt>
<pdfrwt beam="2">  1       21 0.48548931E-01 0.50820754E+02</pdfrwt>
<totfact> 0.11232921E+06</totfact>
</mgrwt>
</event>
<event>
 4    1  0.2821610E+004  0.2976421E+02  0.7546771E-02  0.1600710E+00
         21   -1    0    0  501  502  0.00000000000E+00  0.00000000000E+00  0.19083867235E+03  0.19083867235E+03  0.00000000000E+00 0. -1.
         21   -1    0    0  502  503 -0.00000000000E+00 -0.00000000000E+00 -0.50681094253E+01  0.50681094253E+01  0.00000000000E+00 0.  1.
          2    1    1    2  501    0  0.10211175375E+02  0.27957827638E+02  0.12128168067E+03  0.12488056011E+03  0.00000000000E+00 0.  1.
         -2    1    1    2    0  503 -0.10211175375E+02 -0.27957827638E+02  0.64488882260E+02  0.71026221664E+02  0.00000000000E+00 0. -1.
<mgrwt>
<rscale>  2 0.29764211E+02</rscale>
<asrwt>0</asrwt>
<pdfrwt beam="1">  1       21 0.29359790E-01 0.29764211E+02</pdfrwt>
<pdfrwt beam="2">  1       21 0.77970929E-03 0.29764211E+02</pdfrwt>
<totfact> 0.47872488E+07</totfact>
</mgrwt>
</event>
<event>
 4    1  0.2821610E+004  0.3141569E+02  0.7546771E-02  0.1582947E+00
         21   -1    0    0  501  502  0.00000000000E+00  0.00000000000E+00  0.86055479434E+03  0.86055479434E+03  0.00000000000E+00 0. -1.
         21   -1    0    0  502  503 -0.00000000000E+00 -0.00000000000E+00 -0.14626713644E+01  0.14626713644E+01  0.00000000000E+00 0.  1.
          2    1    1    2  501    0  0.10465299401E+02  0.29621323896E+02  0.62981749978E+03  0.63060052993E+03  0.00000000000E+00 0. -1.
         -2    1    1    2    0  503 -0.10465299401E+02 -0.29621323896E+02  0.22927462319E+03  0.23141693577E+03  0.00000000000E+00 0.  1.
<mgrwt>
<rscale>  2 0.31415686E+02</rscale>
<asrwt>0</asrwt>
<pdfrwt beam="1">  1       21 0.13239264E+00 0.31415686E+02</pdfrwt>
<pdfrwt beam="2">  1       21 0.22502705E-03 0.31415686E+02</pdfrwt>
<totfact> 0.13826591E+07</totfact>
</mgrwt>
</event>
<event>
 4    1  0.2821610E+004  0.2356256E+02  0.7546771E-02  0.1682550E+00
         21   -1    0    0  501  502  0.00000000000E+00  0.00000000000E+00  0.33810430499E+02  0.33810430499E+02  0.00000000000E+00 0.  1.
         21   -1    0    0  502  503 -0.00000000000E+00 -0.00000000000E+00 -0.28959577158E+02  0.28959577158E+02  0.00000000000E+00 0. -1.
          2    1    1    2  501    0  0.17949813059E+02 -0.15264279044E+02  0.23077032652E+02  0.32980955710E+02  0.00000000000E+00 0.  1.
         -2    1    1    2    0  503 -0.17949813059E+02  0.15264279044E+02 -0.18226179311E+02  0.29789051946E+02  0.00000000000E+00 0. -1.
<mgrwt>
<rscale>  2 0.23562555E+02</rscale>
<asrwt>0</asrwt>
<pdfrwt beam="1">  1       21 0.52016047E-02 0.23562555E+02</pdfrwt>
<pdfrwt beam="2">  1       21 0.44553196E-02 0.23562555E+02</pdfrwt>
<totfact> 0.58216512E+07</totfact>
</mgrwt>
</event>
<event>
 4    1  0.2821610E+004  0.2721584E+02  0.7546771E-02  0.1631074E+00
         21   -1    0    0  501  502  0.00000000000E+00  0.00000000000E+00  0.32321568248E+01  0.32321568248E+01  0.00000000000E+00 0.  1.
         21   -1    0    0  502  503 -0.00000000000E+00 -0.00000000000E+00 -0.36943321645E+03  0.36943321645E+03  0.00000000000E+00 0. -1.
          2    1    1    2  501    0 -0.25271384745E+02 -0.10102436122E+02 -0.68285597641E+02  0.73509352791E+02  0.00000000000E+00 0.  1.
         -2    1    1    2    0  503  0.25271384745E+02  0.10102436122E+02 -0.29791546198E+03  0.29915602048E+03  0.00000000000E+00 0. -1.
<mgrwt>
<rscale>  2 0.27215843E+02</rscale>
<asrwt>0</asrwt>
<pdfrwt beam="1">  1       21 0.49725500E-03 0.27215843E+02</pdfrwt>
<pdfrwt beam="2">  1       21 0.56835867E-01 0.27215843E+02</pdfrwt>
<totfact> 0.26078223E+07</totfact>
</mgrwt>
</event>
<event>
 4    1  0.2821610E+004  0.2229946E+02  0.7546771E-02  0.1703124E+00
         21   -1    0    0  503  502  0.00000000000E+00  0.00000000000E+00  0.35637735515E+03  0.35637735515E+03  0.00000000000E+00 0.  1.
         21   -1    0    0  501  503 -0.00000000000E+00 -0.00000000000E+00 -0.21345711183E+01  0.21345711183E+01  0.00000000000E+00 0. -1.
          2    1    1    2  501    0 -0.21319931999E+02  0.65365540983E+01  0.71631782203E+02  0.75022518363E+02  0.00000000000E+00 0. -1.
         -2    1    1    2    0  502  0.21319931999E+02 -0.65365540983E+01  0.28261100182E+03  0.28348940790E+03  0.00000000000E+00 0.  1.
<mgrwt>
<rscale>  2 0.22299463E+02</rscale>
<asrwt>0</asrwt>
<pdfrwt beam="1">  1       21 0.54827238E-01 0.22299463E+02</pdfrwt>
<pdfrwt beam="2">  1       21 0.32839584E-03 0.22299463E+02</pdfrwt>
<totfact> 0.49412601E+07</totfact>
</mgrwt>
</event>
<event>
 4    1  0.2821610E+004  0.2149026E+02  0.7546771E-02  0.1717220E+00
         21   -1    0    0  501  502  0.00000000000E+00  0.00000000000E+00  0.92118021273E+02  0.92118021273E+02  0.00000000000E+00 0.  1.
         21   -1    0    0  502  503 -0.00000000000E+00 -0.00000000000E+00 -0.63315334847E+01  0.63315334847E+01  0.00000000000E+00 0. -1.
          2    1    1    2  501    0  0.68901829167E+01  0.20355754958E+02  0.65352567679E+02  0.68795272242E+02  0.00000000000E+00 0.  1.
         -2    1    1    2    0  503 -0.68901829167E+01 -0.20355754958E+02  0.20433920109E+02  0.29654282517E+02  0.00000000000E+00 0. -1.
<mgrwt>
<rscale>  2 0.21490262E+02</rscale>
<asrwt>0</asrwt>
<pdfrwt beam="1">  1       21 0.14172002E-01 0.21490262E+02</pdfrwt>
<pdfrwt beam="2">  1       21 0.97408214E-03 0.21490262E+02</pdfrwt>
<totfact> 0.11358802E+08</totfact>
</mgrwt>
</event>
<event>
 4    1  0.2821610E+004  0.2184176E+02  0.7546771E-02  0.1711003E+00
         21   -1    0    0  501  502  0.00000000000E+00  0.00000000000E+00  0.12225422870E+04  0.12225422870E+04  0.00000000000E+00 0.  1.
         21   -1    0    0  502  503 -0.00000000000E+00 -0.00000000000E+00 -0.45430133115E+00  0.45430133115E+00  0.00000000000E+00 0. -1.
          2    1    1    2  501    0  0.21612113904E+02  0.31589756372E+01  0.84070278001E+03  0.84098646060E+03  0.00000000000E+00 0.  1.
         -2    1    1    2    0  503 -0.21612113904E+02 -0.31589756372E+01  0.38138520569E+03  0.38201012776E+03  0.00000000000E+00 0. -1.
<mgrwt>
<rscale>  2 0.21841763E+02</rscale>
<asrwt>0</asrwt>
<pdfrwt beam="1">  1       21 0.18808080E+00 0.21841763E+02</pdfrwt>
<pdfrwt beam="2">  1       21 0.69893491E-04 0.21841763E+02</pdfrwt>
<totfact> 0.29974000E+07</totfact>
</mgrwt>
</event>
<event>
 4    1  0.2821610E+004  0.2759352E+02  0.7546771E-02  0.1626321E+00
         21   -1    0    0  503  502  0.00000000000E+00  0.00000000000E+00  0.49829717558E+01  0.49829717558E+01  0.00000000000E+00 0.  1.
         21   -1    0    0  501  503 -0.00000000000E+00 -0.00000000000E+00 -0.16897383247E+03  0.16897383247E+03  0.00000000000E+00 0. -1.
          2    1    1    2  501    0 -0.21529289487E+02 -0.17259548092E+02 -0.10890438288E+03  0.11234574721E+03  0.00000000000E+00 0. -1.
         -2    1    1    2    0  502  0.21529289487E+02  0.17259548092E+02 -0.55086477834E+02  0.61611057014E+02  0.00000000000E+00 0.  1.
<mgrwt>
<rscale>  2 0.27593519E+02</rscale>
<asrwt>0</asrwt>
<pdfrwt beam="1">  1       21 0.76661104E-03 0.27593519E+02</pdfrwt>
<pdfrwt beam="2">  1       21 0.25995974E-01 0.27593519E+02</pdfrwt>
<totfact> 0.60252809E+07</totfact>
</mgrwt>
</event>
<event>
 4    1  0.2821610E+004  0.3106495E+02  0.7546771E-02  0.1586607E+00
         21   -1    0    0  501  502  0.00000000000E+00  0.00000000000E+00  0.36610749728E+01  0.36610749728E+01  0.00000000000E+00 0.  1.
         21   -1    0    0  502  503 -0.00000000000E+00 -0.00000000000E+00 -0.49710246237E+03  0.49710246237E+03  0.00000000000E+00 0. -1.
          2    1    1    2  501    0  0.11523700025E+02  0.28848487661E+02 -0.75114599328E+02  0.81284893645E+02  0.00000000000E+00 0.  1.
         -2    1    1    2    0  503 -0.11523700025E+02 -0.28848487661E+02 -0.41832678807E+03  0.41947864370E+03  0.00000000000E+00 0. -1.
<mgrwt>
<rscale>  2 0.31064947E+02</rscale>
<asrwt>0</asrwt>
<pdfrwt beam="1">  1       21 0.56324263E-03 0.31064947E+02</pdfrwt>
<pdfrwt beam="2">  1       21 0.76477258E-01 0.31064947E+02</pdfrwt>
<totfact> 0.12049933E+07</totfact>
</mgrwt>
</event>
<event>
 4    1  0.2821610E+004  0.2193536E+02  0.7546771E-02  0.1709372E+00
         21   -1    0    0  501  502  0.00000000000E+00  0.00000000000E+00  0.97514901725E+02  0.97514901725E+02  0.00000000000E+00 0.  1.
         21   -1    0    0  502  503 -0.00000000000E+00 -0.00000000000E+00 -0.64218132992E+01  0.64218132992E+01  0.00000000000E+00 0. -1.
          2    1    1    2  501    0 -0.78043578852E+01 -0.20500051772E+02  0.70558752759E+02  0.73889767327E+02  0.00000000000E+00 0.  1.
         -2    1    1    2    0  503  0.78043578852E+01  0.20500051772E+02  0.20534335667E+02  0.30046947698E+02  0.00000000000E+00 0. -1.
<mgrwt>
<rscale>  2 0.21935362E+02</rscale>
<asrwt>0</asrwt>
<pdfrwt beam="1">  1       21 0.15002291E-01 0.21935362E+02</pdfrwt>
<pdfrwt beam="2">  1       21 0.98797135E-03 0.21935362E+02</pdfrwt>
<totfact> 0.10157197E+08</totfact>
</mgrwt>
</event>
<event>
 4    1  0.2821610E+004  0.2364720E+02  0.7546771E-02  0.1681229E+00
         21   -1    0    0  503  502  0.00000000000E+00  0.00000000000E+00  0.37648493635E+00  0.37648493635E+00  0.00000000000E+00 0.  1.
         21   -1    0    0  501  503 -0.00000000000E+00 -0.00000000000E+00 -0.15529224708E+04  0.15529224708E+04  0.00000000000E+00 0. -1.
          2    1    1    2  501    0 -0.98800858206E+01  0.21484268915E+02 -0.93835048782E+03  0.93864840483E+03  0.00000000000E+00 0. -1.
         -2    1    1    2    0  502  0.98800858206E+01 -0.21484268915E+02 -0.61419549806E+03  0.61465055092E+03  0.00000000000E+00 0.  1.
<mgrwt>
<rscale>  2 0.23647197E+02</rscale>
<asrwt>0</asrwt>
<pdfrwt beam="1">  1       21 0.57920610E-04 0.23647197E+02</pdfrwt>
<pdfrwt beam="2">  1       21 0.23891177E+00 0.23647197E+02</pdfrwt>
<totfact> 0.21035740E+07</totfact>
</mgrwt>
</event>
<event>
 4    1  0.2821610E+004  0.3968828E+02  0.7546771E-02  0.1510518E+00
         21   -1    0    0  503  502  0.00000000000E+00  0.00000000000E+00  0.12440076191E+03  0.12440076191E+03  0.00000000000E+00 0. -1.
         21   -1    0    0  501  503 -0.00000000000E+00 -0.00000000000E+00 -0.22719415262E+02  0.22719415262E+02  0.00000000000E+00 0.  1.
          2    1    1    2  501    0  0.37965328572E+02 -0.11566902344E+02  0.18980337351E+01  0.39733637330E+02  0.00000000000E+00 0.  1.
         -2    1    1    2    0  502 -0.37965328572E+02  0.11566902344E+02  0.99783312916E+02  0.10738653984E+03  0.00000000000E+00 0. -1.
<mgrwt>
<rscale>  2 0.39688278E+02</rscale>
<asrwt>0</asrwt>
<pdfrwt beam="1">  1       21 0.19138578E-01 0.39688278E+02</pdfrwt>
<pdfrwt beam="2">  1       21 0.34952947E-02 0.39688278E+02</pdfrwt>
<totfact> 0.10677595E+07</totfact>
</mgrwt>
</event>
<event>
 4    1  0.2821610E+004  0.2054679E+02  0.7546771E-02  0.1734668E+00
         21   -1    0    0  503  502  0.00000000000E+00  0.00000000000E+00  0.47839737159E+03  0.47839737159E+03  0.00000000000E+00 0. -1.
         21   -1    0    0  501  503 -0.00000000000E+00 -0.00000000000E+00 -0.23562813519E+01  0.23562813519E+01  0.00000000000E+00 0.  1.
          2    1    1    2  501    0  0.11755234617E+02  0.16851854754E+02  0.47912624035E+02  0.52132428406E+02  0.00000000000E+00 0.  1.
         -2    1    1    2    0  502 -0.11755234617E+02 -0.16851854754E+02  0.42812846620E+03  0.42862122454E+03  0.00000000000E+00 0. -1.
<mgrwt>
<rscale>  2 0.20546789E+02</rscale>
<asrwt>0</asrwt>
<pdfrwt beam="1">  1       21 0.73599519E-01 0.20546789E+02</pdfrwt>
<pdfrwt beam="2">  1       21 0.36250520E-03 0.20546789E+02</pdfrwt>
<totfact> 0.23228953E+07</totfact>
</mgrwt>
</event>
<event>
 4    1  0.2821610E+004  0.2652649E+02  0.7546771E-02  0.1639997E+00
         21   -1    0    0  503  502  0.00000000000E+00  0.00000000000E+00  0.47243239423E+03  0.47243239423E+03  0.00000000000E+00 0. -1.
         21   -1    0    0  501  503 -0.00000000000E+00 -0.00000000000E+00 -0.29448815199E+01  0.29448815199E+01  0.00000000000E+00 0.  1.
          2    1    1    2  501    0  0.42379091733E+01  0.26185776965E+02  0.67644914074E+02  0.72660093514E+02  0.00000000000E+00 0.  1.
         -2    1    1    2    0  502 -0.42379091733E+01 -0.26185776965E+02  0.40184259864E+03  0.40271718224E+03  0.00000000000E+00 0. -1.
<mgrwt>
<rscale>  2 0.26526492E+02</rscale>
<asrwt>0</asrwt>
<pdfrwt beam="1">  1       21 0.72681847E-01 0.26526492E+02</pdfrwt>
<pdfrwt beam="2">  1       21 0.45305907E-03 0.26526492E+02</pdfrwt>
<totfact> 0.18059325E+07</totfact>
</mgrwt>
</event>
<event>
 4    1  0.2821610E+004  0.2881593E+02  0.7546771E-02  0.1611558E+00
         21   -1    0    0  501  502  0.00000000000E+00  0.00000000000E+00  0.67407874465E+02  0.67407874465E+02  0.00000000000E+00 0.  1.
         21   -1    0    0  502  503 -0.00000000000E+00 -0.00000000000E+00 -0.87613563246E+02  0.87613563246E+02  0.00000000000E+00 0. -1.
          2    1    1    2  501    0  0.43528975807E+00 -0.28812637267E+02  0.61752589502E+02  0.68144991406E+02  0.00000000000E+00 0.  1.
         -2    1    1    2    0  503 -0.43528975807E+00  0.28812637267E+02 -0.81958278284E+02  0.86876446305E+02  0.00000000000E+00 0. -1.
<mgrwt>
<rscale>  2 0.28815925E+02</rscale>
<asrwt>0</asrwt>
<pdfrwt beam="1">  1       21 0.10370442E-01 0.28815925E+02</pdfrwt>
<pdfrwt beam="2">  1       21 0.13479010E-01 0.28815925E+02</pdfrwt>
<totfact> 0.31936926E+06</totfact>
</mgrwt>
</event>
<event>
 4    1  0.2821610E+004  0.2383770E+02  0.7546771E-02  0.1678280E+00
         21   -1    0    0  503  502  0.00000000000E+00  0.00000000000E+00  0.62461044218E+00  0.62461044218E+00  0.00000000000E+00 0.  1.
         21   -1    0    0  501  503 -0.00000000000E+00 -0.00000000000E+00 -0.11875373540E+04  0.11875373540E+04  0.00000000000E+00 0. -1.
          2    1    1    2  501    0  0.23719190655E+02 -0.23739643613E+01 -0.88078757955E+03  0.88111009301E+03  0.00000000000E+00 0. -1.
         -2    1    1    2    0  502 -0.23719190655E+02  0.23739643613E+01 -0.30612516405E+03  0.30705187147E+03  0.00000000000E+00 0.  1.
<mgrwt>
<rscale>  2 0.23837695E+02</rscale>
<asrwt>0</asrwt>
<pdfrwt beam="1">  1       21 0.96095426E-04 0.23837695E+02</pdfrwt>
<pdfrwt beam="2">  1       21 0.18269518E+00 0.23837695E+02</pdfrwt>
<totfact> 0.20808743E+07</totfact>
</mgrwt>
</event>
<event>
 4    1  0.2821610E+004  0.2868225E+02  0.7546771E-02  0.1613129E+00
         21   -1    0    0  503  502  0.00000000000E+00  0.00000000000E+00  0.16164942359E+02  0.16164942359E+02  0.00000000000E+00 0.  1.
         21   -1    0    0  501  503 -0.00000000000E+00 -0.00000000000E+00 -0.53288197508E+02  0.53288197508E+02  0.00000000000E+00 0. -1.
          2    1    1    2  501    0 -0.12991640552E+02 -0.25571243067E+02 -0.25925053623E+02  0.38662379668E+02  0.00000000000E+00 0. -1.
         -2    1    1    2    0  502  0.12991640552E+02  0.25571243067E+02 -0.11198201527E+02  0.30790760199E+02  0.00000000000E+00 0.  1.
<mgrwt>
<rscale>  2 0.28682245E+02</rscale>
<asrwt>0</asrwt>
<pdfrwt beam="1">  1       21 0.24869142E-02 0.28682245E+02</pdfrwt>
<pdfrwt beam="2">  1       21 0.81981842E-02 0.28682245E+02</pdfrwt>
<totfact> 0.73105369E+07</totfact>
</mgrwt>
</event>
<event>
 4    1  0.2821610E+004  0.2386496E+02  0.7546771E-02  0.1677861E+00
         21   -1    0    0  501  502  0.00000000000E+00  0.00000000000E+00  0.65255569023E+03  0.65255569023E+03  0.00000000000E+00 0. -1.
         21   -1    0    0  502  503 -0.00000000000E+00 -0.00000000000E+00 -0.15054743899E+01  0.15054743899E+01  0.00000000000E+00 0.  1.
          2    1    1    2  501    0 -0.14598632003E+02  0.18878991402E+02  0.53753166606E+03  0.53806117532E+03  0.00000000000E+00 0. -1.
         -2    1    1    2    0  503  0.14598632003E+02 -0.18878991402E+02  0.11351854978E+03  0.11599998930E+03  0.00000000000E+00 0.  1.
<mgrwt>
<rscale>  2 0.23864961E+02</rscale>
<asrwt>0</asrwt>
<pdfrwt beam="1">  1       21 0.10039296E+00 0.23864961E+02</pdfrwt>
<pdfrwt beam="2">  1       21 0.23161197E-03 0.23864961E+02</pdfrwt>
<totfact> 0.23767597E+07</totfact>
</mgrwt>
</event>
<event>
 4    1  0.2821610E+004  0.2410317E+02  0.7546771E-02  0.1674228E+00
         21   -1    0    0  503  502  0.00000000000E+00  0.00000000000E+00  0.51349562399E+02  0.51349562399E+02  0.00000000000E+00 0. -1.
         21   -1    0    0  501  503 -0.00000000000E+00 -0.00000000000E+00 -0.38536970390E+02  0.38536970390E+02  0.00000000000E+00 0.  1.
          2    1    1    2  501    0 -0.24098057580E+02  0.49662977801E+00 -0.31367838696E+02  0.39558871631E+02  0.00000000000E+00 0.  1.
         -2    1    1    2    0  502  0.24098057580E+02 -0.49662977801E+00  0.44180430705E+02  0.50327661157E+02  0.00000000000E+00 0. -1.
<mgrwt>
<rscale>  2 0.24103174E+02</rscale>
<asrwt>0</asrwt>
<pdfrwt beam="1">  1       21 0.78999327E-02 0.24103174E+02</pdfrwt>
<pdfrwt beam="2">  1       21 0.59287647E-02 0.24103174E+02</pdfrwt>
<totfact> 0.18895321E+07</totfact>
</mgrwt>
</event>
<event>
 4    1  0.2821610E+004  0.2421032E+02  0.7546771E-02  0.1672610E+00
         21   -1    0    0  501  502  0.00000000000E+00  0.00000000000E+00  0.11418196898E+02  0.11418196898E+02  0.00000000000E+00 0. -1.
         21   -1    0    0  502  503 -0.00000000000E+00 -0.00000000000E+00 -0.89821195467E+02  0.89821195467E+02  0.00000000000E+00 0.  1.
          2    1    1    2  501    0 -0.23578439507E+02 -0.54951564773E+01 -0.60663202559E+01  0.24958761904E+02  0.00000000000E+00 0. -1.
         -2    1    1    2    0  503  0.23578439507E+02  0.54951564773E+01 -0.72336678312E+02  0.76280630461E+02  0.00000000000E+00 0.  1.
<mgrwt>
<rscale>  2 0.24210319E+02</rscale>
<asrwt>0</asrwt>
<pdfrwt beam="1">  1       21 0.17566457E-02 0.24210319E+02</pdfrwt>
<pdfrwt beam="2">  1       21 0.13818645E-01 0.24210319E+02</pdfrwt>
<totfact> 0.50164301E+07</totfact>
</mgrwt>
</event>
<event>
 4    1  0.2821610E+004  0.4197169E+02  0.7546771E-02  0.1494184E+00
         21   -1    0    0  501  502  0.00000000000E+00  0.00000000000E+00  0.16274606317E+03  0.16274606317E+03  0.00000000000E+00 0.  1.
         21   -1    0    0  502  503 -0.00000000000E+00 -0.00000000000E+00 -0.21241301808E+02  0.21241301808E+02  0.00000000000E+00 0. -1.
          2    1    1    2  501    0  0.36447484163E+02  0.20813535125E+02  0.13517487127E+03  0.14154104765E+03  0.00000000000E+00 0.  1.
         -2    1    1    2    0  503 -0.36447484163E+02 -0.20813535125E+02  0.63298900907E+01  0.42446317329E+02  0.00000000000E+00 0. -1.
<mgrwt>
<rscale>  2 0.41971685E+02</rscale>
<asrwt>0</asrwt>
<pdfrwt beam="1">  1       21 0.25037855E-01 0.41971685E+02</pdfrwt>
<pdfrwt beam="2">  1       21 0.32678927E-02 0.41971685E+02</pdfrwt>
<totfact> 0.73832345E+06</totfact>
</mgrwt>
</event>
<event>
 4    1  0.2821610E+004  0.3194936E+02  0.7546771E-02  0.1577489E+00
         21   -1    0    0  501  502  0.00000000000E+00  0.00000000000E+00  0.42092970376E+02  0.42092970376E+02  0.00000000000E+00 0.  1.
         21   -1    0    0  502  503 -0.00000000000E+00 -0.00000000000E+00 -0.51488728363E+02  0.51488728363E+02  0.00000000000E+00 0. -1.
          2    1    1    2  501    0  0.10220125887E+01 -0.31933005999E+02  0.29334864682E+02  0.43373905378E+02  0.00000000000E+00 0.  1.
         -2    1    1    2    0  503 -0.10220125887E+01  0.31933005999E+02 -0.38730622668E+02  0.50207793360E+02  0.00000000000E+00 0. -1.
<mgrwt>
<rscale>  2 0.31949357E+02</rscale>
<asrwt>0</asrwt>
<pdfrwt beam="1">  1       21 0.64758416E-02 0.31949357E+02</pdfrwt>
<pdfrwt beam="2">  1       21 0.79213429E-02 0.31949357E+02</pdfrwt>
<totfact> 0.17216527E+07</totfact>
</mgrwt>
</event>
<event>
 4    1  0.2821610E+004  0.3167995E+02  0.7546771E-02  0.1580228E+00
         21   -1    0    0  503  502  0.00000000000E+00  0.00000000000E+00  0.96445610753E+01  0.96445610753E+01  0.00000000000E+00 0. -1.
         21   -1    0    0  501  503 -0.00000000000E+00 -0.00000000000E+00 -0.61439656180E+03  0.61439656180E+03  0.00000000000E+00 0.  1.
          2    1    1    2  501    0  0.29755052789E+02  0.10874567437E+02 -0.58674803599E+03  0.58760265241E+03  0.00000000000E+00 0.  1.
         -2    1    1    2    0  502 -0.29755052789E+02 -0.10874567437E+02 -0.18003964732E+02  0.36438470461E+02  0.00000000000E+00 0. -1.
<mgrwt>
<rscale>  2 0.31679952E+02</rscale>
<asrwt>0</asrwt>
<pdfrwt beam="1">  1       21 0.14837781E-02 0.31679952E+02</pdfrwt>
<pdfrwt beam="2">  1       21 0.94522585E-01 0.31679952E+02</pdfrwt>
<totfact> 0.17667024E+06</totfact>
</mgrwt>
</event>
<event>
 4    1  0.2821610E+004  0.3351512E+02  0.7546771E-02  0.1562196E+00
         21   -1    0    0  501  502  0.00000000000E+00  0.00000000000E+00  0.20585905225E+03  0.20585905225E+03  0.00000000000E+00 0.  1.
         21   -1    0    0  502  503 -0.00000000000E+00 -0.00000000000E+00 -0.55357289390E+01  0.55357289390E+01  0.00000000000E+00 0. -1.
          2    1    1    2  501    0 -0.56790059085E+01  0.33030472656E+02  0.11280925178E+03  0.11768258375E+03  0.00000000000E+00 0. -1.
         -2    1    1    2    0  503  0.56790059085E+01 -0.33030472656E+02  0.87514071528E+02  0.93712197431E+02  0.00000000000E+00 0.  1.
<mgrwt>
<rscale>  2 0.33515119E+02</rscale>
<asrwt>0</asrwt>
<pdfrwt beam="1">  1       21 0.31670617E-01 0.33515119E+02</pdfrwt>
<pdfrwt beam="2">  1       21 0.85165077E-03 0.33515119E+02</pdfrwt>
<totfact> 0.37294916E+07</totfact>
</mgrwt>
</event>
<event>
 4    1  0.2821610E+004  0.2011663E+02  0.7546771E-02  0.1743019E+00
         21   -1    0    0  501  502  0.00000000000E+00  0.00000000000E+00  0.11002251490E+01  0.11002251490E+01  0.00000000000E+00 0.  1.
         21   -1    0    0  502  503 -0.00000000000E+00 -0.00000000000E+00 -0.38629890155E+03  0.38629890155E+03  0.00000000000E+00 0. -1.
          2    1    1    2  501    0  0.18933538296E+02 -0.67970648537E+01 -0.15022845981E+03  0.15156935410E+03  0.00000000000E+00 0.  1.
         -2    1    1    2    0  503 -0.18933538296E+02  0.67970648537E+01 -0.23497021658E+03  0.23582977260E+03  0.00000000000E+00 0. -1.
<mgrwt>
<rscale>  2 0.20116634E+02</rscale>
<asrwt>0</asrwt>
<pdfrwt beam="1">  1       21 0.16926528E-03 0.20116634E+02</pdfrwt>
<pdfrwt beam="2">  1       21 0.59430645E-01 0.20116634E+02</pdfrwt>
<totfact> 0.10696284E+08</totfact>
</mgrwt>
</event>
<event>
 4    1  0.2821610E+004  0.3116692E+02  0.7546771E-02  0.1585537E+00
         21   -1    0    0  503  502  0.00000000000E+00  0.00000000000E+00  0.56527682608E+00  0.56527682608E+00  0.00000000000E+00 0.  1.
         21   -1    0    0  501  503 -0.00000000000E+00 -0.00000000000E+00 -0.18875168555E+04  0.18875168555E+04  0.00000000000E+00 0. -1.
          2    1    1    2  501    0 -0.33923135629E+01  0.30981758095E+02 -0.12260461363E+04  0.12264422145E+04  0.00000000000E+00 0. -1.
         -2    1    1    2    0  502  0.33923135629E+01 -0.30981758095E+02 -0.66090544233E+03  0.66163991780E+03  0.00000000000E+00 0.  1.
<mgrwt>
<rscale>  2 0.31166924E+02</rscale>
<asrwt>0</asrwt>
<pdfrwt beam="1">  1       21 0.86964593E-04 0.31166924E+02</pdfrwt>
<pdfrwt beam="2">  1       21 0.29039079E+00 0.31166924E+02</pdfrwt>
<totfact> 0.66277965E+06</totfact>
</mgrwt>
</event>
<event>
 4    1  0.2821610E+004  0.2325508E+02  0.7546771E-02  0.1687408E+00
         21   -1    0    0  503  502  0.00000000000E+00  0.00000000000E+00  0.89477764586E+03  0.89477764586E+03  0.00000000000E+00 0.  1.
         21   -1    0    0  501  503 -0.00000000000E+00 -0.00000000000E+00 -0.61761334997E+00  0.61761334997E+00  0.00000000000E+00 0. -1.
          2    1    1    2  501    0 -0.19864876881E+02 -0.12090722281E+02  0.38158331574E+03  0.38229128391E+03  0.00000000000E+00 0. -1.
         -2    1    1    2    0  502  0.19864876881E+02  0.12090722281E+02  0.51257671677E+03  0.51310397531E+03  0.00000000000E+00 0.  1.
<mgrwt>
<rscale>  2 0.23255083E+02</rscale>
<asrwt>0</asrwt>
<pdfrwt beam="1">  1       21 0.13765706E+00 0.23255083E+02</pdfrwt>
<pdfrwt beam="2">  1       21 0.95018154E-04 0.23255083E+02</pdfrwt>
<totfact> 0.41662243E+07</totfact>
</mgrwt>
</event>
<event>
 4    1  0.2821610E+004  0.2210748E+02  0.7546771E-02  0.1706400E+00
         21   -1    0    0  503  502  0.00000000000E+00  0.00000000000E+00  0.25130946706E+01  0.25130946706E+01  0.00000000000E+00 0. -1.
         21   -1    0    0  501  503 -0.00000000000E+00 -0.00000000000E+00 -0.21062048329E+03  0.21062048329E+03  0.00000000000E+00 0.  1.
          2    1    1    2  501    0  0.27162975887E+01  0.21939973313E+02 -0.74550998943E+02  0.77759836323E+02  0.00000000000E+00 0. -1.
         -2    1    1    2    0  502 -0.27162975887E+01 -0.21939973313E+02 -0.13355638968E+03  0.13537374164E+03  0.00000000000E+00 0.  1.
<mgrwt>
<rscale>  2 0.22107481E+02</rscale>
<asrwt>0</asrwt>
<pdfrwt beam="1">  1       21 0.38662987E-03 0.22107481E+02</pdfrwt>
<pdfrwt beam="2">  1       21 0.32403158E-01 0.22107481E+02</pdfrwt>
<totfact> 0.10529627E+08</totfact>
</mgrwt>
</event>
<event>
 4    1  0.2821610E+004  0.2435739E+02  0.7546771E-02  0.1670407E+00
         21   -1    0    0  501  502  0.00000000000E+00  0.00000000000E+00  0.12550636710E+02  0.12550636710E+02  0.00000000000E+00 0. -1.
         21   -1    0    0  502  503 -0.00000000000E+00 -0.00000000000E+00 -0.61465531445E+02  0.61465531445E+02  0.00000000000E+00 0.  1.
          2    1    1    2  501    0 -0.19836947419E+02  0.14134284796E+02 -0.66730285700E+01  0.25254936149E+02  0.00000000000E+00 0. -1.
         -2    1    1    2    0  503  0.19836947419E+02 -0.14134284796E+02 -0.42241866165E+02  0.48761232006E+02  0.00000000000E+00 0.  1.
<mgrwt>
<rscale>  2 0.24357391E+02</rscale>
<asrwt>0</asrwt>
<pdfrwt beam="1">  1       21 0.19308672E-02 0.24357391E+02</pdfrwt>
<pdfrwt beam="2">  1       21 0.94562355E-02 0.24357391E+02</pdfrwt>
<totfact> 0.81990535E+07</totfact>
</mgrwt>
</event>
<event>
 4    1  0.2821610E+004  0.3720342E+02  0.7546771E-02  0.1529861E+00
         21   -1    0    0  503  502  0.00000000000E+00  0.00000000000E+00  0.43265160300E+03  0.43265160300E+03  0.00000000000E+00 0.  1.
         21   -1    0    0  501  503 -0.00000000000E+00 -0.00000000000E+00 -0.45474752394E+01  0.45474752394E+01  0.00000000000E+00 0. -1.
          2    1    1    2  501    0 -0.36329957707E+02 -0.80142993513E+01  0.95018400930E+02  0.10204210570E+03  0.00000000000E+00 0. -1.
         -2    1    1    2    0  502  0.36329957707E+02  0.80142993513E+01  0.33308572683E+03  0.33515697253E+03  0.00000000000E+00 0.  1.
<mgrwt>
<rscale>  2 0.37203425E+02</rscale>
<asrwt>0</asrwt>
<pdfrwt beam="1">  1       21 0.66561753E-01 0.37203425E+02</pdfrwt>
<pdfrwt beam="2">  1       21 0.69961192E-03 0.37203425E+02</pdfrwt>
<totfact> 0.11926524E+07</totfact>
</mgrwt>
</event>
<event>
 4    1  0.2821610E+004  0.2671920E+02  0.7546771E-02  0.1637469E+00
         21   -1    0    0  501  502  0.00000000000E+00  0.00000000000E+00  0.21967620535E+02  0.21967620535E+02  0.00000000000E+00 0. -1.
         21   -1    0    0  502  503 -0.00000000000E+00 -0.00000000000E+00 -0.50603766036E+03  0.50603766036E+03  0.00000000000E+00 0.  1.
          2    1    1    2  501    0 -0.23472179292E+02 -0.12766072093E+02  0.13349623036E+02  0.29868515741E+02  0.00000000000E+00 0. -1.
         -2    1    1    2    0  503  0.23472179292E+02  0.12766072093E+02 -0.49741966286E+03  0.49813676516E+03  0.00000000000E+00 0.  1.
<mgrwt>
<rscale>  2 0.26719203E+02</rscale>
<asrwt>0</asrwt>
<pdfrwt beam="1">  1       21 0.33796343E-02 0.26719203E+02</pdfrwt>
<pdfrwt beam="2">  1       21 0.77851939E-01 0.26719203E+02</pdfrwt>
<totfact> 0.73642048E+05</totfact>
</mgrwt>
</event>
<event>
 4    1  0.2821610E+004  0.2412989E+02  0.7546771E-02  0.1673823E+00
         21   -1    0    0  503  502  0.00000000000E+00  0.00000000000E+00  0.22529396443E+02  0.22529396443E+02  0.00000000000E+00 0.  1.
         21   -1    0    0  501  503 -0.00000000000E+00 -0.00000000000E+00 -0.41805999805E+02  0.41805999805E+02  0.00000000000E+00 0. -1.
          2    1    1    2  501    0 -0.13188556924E+01  0.24093822070E+02 -0.29514950664E+02  0.38123273141E+02  0.00000000000E+00 0. -1.
         -2    1    1    2    0  502  0.13188556924E+01 -0.24093822070E+02  0.10238347303E+02  0.26212123107E+02  0.00000000000E+00 0.  1.
<mgrwt>
<rscale>  2 0.24129891E+02</rscale>
<asrwt>0</asrwt>
<pdfrwt beam="1">  1       21 0.34660611E-02 0.24129891E+02</pdfrwt>
<pdfrwt beam="2">  1       21 0.64316921E-02 0.24129891E+02</pdfrwt>
<totfact> 0.61905229E+07</totfact>
</mgrwt>
</event>
<event>
 4    1  0.2821610E+004  0.2246116E+02  0.7546771E-02  0.1700396E+00
         21   -1    0    0  501  502  0.00000000000E+00  0.00000000000E+00  0.87230484616E+03  0.87230484616E+03  0.00000000000E+00 0.  1.
         21   -1    0    0  502  503 -0.00000000000E+00 -0.00000000000E+00 -0.11603450393E+01  0.11603450393E+01  0.00000000000E+00 0. -1.
          2    1    1    2  501    0 -0.22318088951E+02  0.25311419452E+01  0.74487159038E+03  0.74521016494E+03  0.00000000000E+00 0. -1.
         -2    1    1    2    0  503  0.22318088951E+02 -0.25311419452E+01  0.12627291074E+03  0.12825502626E+03  0.00000000000E+00 0.  1.
<mgrwt>
<rscale>  2 0.22461161E+02</rscale>
<asrwt>0</asrwt>
<pdfrwt beam="1">  1       21 0.13420022E+00 0.22461161E+02</pdfrwt>
<pdfrwt beam="2">  1       21 0.17851532E-03 0.22461161E+02</pdfrwt>
<totfact> 0.17811277E+07</totfact>
</mgrwt>
</event>
<event>
 4    1  0.2821610E+004  0.2336200E+02  0.7546771E-02  0.1685709E+00
         21   -1    0    0  501  502  0.00000000000E+00  0.00000000000E+00  0.18999939874E+02  0.18999939874E+02  0.00000000000E+00 0. -1.
         21   -1    0    0  502  503 -0.00000000000E+00 -0.00000000000E+00 -0.72810308588E+02  0.72810308588E+02  0.00000000000E+00 0.  1.
          2    1    1    2  501    0  0.15696009043E+02 -0.17303703636E+02  0.88146296202E+01  0.24969592602E+02  0.00000000000E+00 0. -1.
         -2    1    1    2    0  503 -0.15696009043E+02  0.17303703636E+02 -0.62624998334E+02  0.66840655859E+02  0.00000000000E+00 0.  1.
<mgrwt>
<rscale>  2 0.23361996E+02</rscale>
<asrwt>0</asrwt>
<pdfrwt beam="1">  1       21 0.29230677E-02 0.23361996E+02</pdfrwt>
<pdfrwt beam="2">  1       21 0.11201586E-01 0.23361996E+02</pdfrwt>
<totfact> 0.32254540E+07</totfact>
</mgrwt>
</event>
<event>
 4    1  0.2821610E+004  0.2004854E+02  0.7546771E-02  0.1744364E+00
         21   -1    0    0  501  502  0.00000000000E+00  0.00000000000E+00  0.12959949273E+03  0.12959949273E+03  0.00000000000E+00 0. -1.
         21   -1    0    0  502  503 -0.00000000000E+00 -0.00000000000E+00 -0.31105465708E+01  0.31105465708E+01  0.00000000000E+00 0.  1.
          2    1    1    2  501    0  0.71383088469E+00  0.20035828913E+02  0.59652549702E+02  0.62931476073E+02  0.00000000000E+00 0. -1.
         -2    1    1    2    0  503 -0.71383088469E+00 -0.20035828913E+02  0.66836396459E+02  0.69778563229E+02  0.00000000000E+00 0.  1.
<mgrwt>
<rscale>  2 0.20048541E+02</rscale>
<asrwt>0</asrwt>
<pdfrwt beam="1">  1       21 0.19938379E-01 0.20048541E+02</pdfrwt>
<pdfrwt beam="2">  1       21 0.47854573E-03 0.20048541E+02</pdfrwt>
<totfact> 0.17775360E+08</totfact>
</mgrwt>
</event>
<event>
 4    1  0.2821610E+004  0.6955289E+02  0.7546771E-02  0.1361620E+00
         21   -1    0    0  503  502  0.00000000000E+00  0.00000000000E+00  0.32878750638E+03  0.32878750638E+03  0.00000000000E+00 0.  1.
         21   -1    0    0  501  503 -0.00000000000E+00 -0.00000000000E+00 -0.27553459386E+02  0.27553459386E+02  0.00000000000E+00 0. -1.
          2    1    1    2  501    0 -0.21404364118E+02  0.66177475405E+02  0.28990014798E+02  0.75352677539E+02  0.00000000000E+00 0. -1.
         -2    1    1    2    0  502  0.21404364118E+02 -0.66177475405E+02  0.27224403220E+03  0.28098828823E+03  0.00000000000E+00 0.  1.
<mgrwt>
<rscale>  2 0.69552894E+02</rscale>
<asrwt>0</asrwt>
<pdfrwt beam="1">  1       21 0.50582690E-01 0.69552894E+02</pdfrwt>
<pdfrwt beam="2">  1       21 0.42389940E-02 0.69552894E+02</pdfrwt>
<totfact> 0.13036030E+06</totfact>
</mgrwt>
</event>
<event>
 4    1  0.2821610E+004  0.2013042E+02  0.7546771E-02  0.1742747E+00
         21   -1    0    0  501  502  0.00000000000E+00  0.00000000000E+00  0.11066510567E+02  0.11066510567E+02  0.00000000000E+00 0.  1.
         21   -1    0    0  502  503 -0.00000000000E+00 -0.00000000000E+00 -0.13849996056E+03  0.13849996056E+03  0.00000000000E+00 0. -1.
          2    1    1    2  501    0  0.20130179973E+02 -0.99251543526E-01  0.42313012419E+00  0.20134871137E+02  0.00000000000E+00 0.  1.
         -2    1    1    2    0  503 -0.20130179973E+02  0.99251543526E-01 -0.12785658012E+03  0.12943159999E+03  0.00000000000E+00 0. -1.
<mgrwt>
<rscale>  2 0.20130425E+02</rscale>
<asrwt>0</asrwt>
<pdfrwt beam="1">  1       21 0.17025400E-02 0.20130425E+02</pdfrwt>
<pdfrwt beam="2">  1       21 0.21307688E-01 0.20130425E+02</pdfrwt>
<totfact> 0.23896509E+07</totfact>
</mgrwt>
</event>
<event>
 4    1  0.2821610E+004  0.2345697E+02  0.7546771E-02  0.1684208E+00
         21   -1    0    0  501  502  0.00000000000E+00  0.00000000000E+00  0.48502154139E+01  0.48502154139E+01  0.00000000000E+00 0.  1.
         21   -1    0    0  502  503 -0.00000000000E+00 -0.00000000000E+00 -0.17648044858E+03  0.17648044858E+03  0.00000000000E+00 0. -1.
          2    1    1    2  501    0  0.16394125086E+02 -0.16776825758E+02 -0.31629022898E+02  0.39377967309E+02  0.00000000000E+00 0.  1.
         -2    1    1    2    0  503 -0.16394125086E+02  0.16776825758E+02 -0.14000121027E+03  0.14195269668E+03  0.00000000000E+00 0. -1.
<mgrwt>
<rscale>  2 0.23456965E+02</rscale>
<asrwt>0</asrwt>
<pdfrwt beam="1">  1       21 0.74618690E-03 0.23456965E+02</pdfrwt>
<pdfrwt beam="2">  1       21 0.27150841E-01 0.23456965E+02</pdfrwt>
<totfact> 0.55824012E+07</totfact>
</mgrwt>
</event>
<event>
 4    1  0.2821610E+004  0.2243378E+02  0.7546771E-02  0.1700856E+00
         21   -1    0    0  501  502  0.00000000000E+00  0.00000000000E+00  0.21510451585E+03  0.21510451585E+03  0.00000000000E+00 0. -1.
         21   -1    0    0  502  503 -0.00000000000E+00 -0.00000000000E+00 -0.43747402606E+01  0.43747402606E+01  0.00000000000E+00 0.  1.
          2    1    1    2  501    0 -0.18589196361E+02  0.12558507944E+02  0.18021228010E+03  0.18160324954E+03  0.00000000000E+00 0. -1.
         -2    1    1    2    0  503  0.18589196361E+02 -0.12558507944E+02  0.30517495490E+02  0.37876006575E+02  0.00000000000E+00 0.  1.
<mgrwt>
<rscale>  2 0.22433777E+02</rscale>
<asrwt>0</asrwt>
<pdfrwt beam="1">  1       21 0.33092994E-01 0.22433777E+02</pdfrwt>
<pdfrwt beam="2">  1       21 0.67303713E-03 0.22433777E+02</pdfrwt>
<totfact> 0.44915208E+07</totfact>
</mgrwt>
</event>
<event>
 4    1  0.2821610E+004  0.3121356E+02  0.7546771E-02  0.1585049E+00
         21   -1    0    0  503  502  0.00000000000E+00  0.00000000000E+00  0.63394726667E+01  0.63394726667E+01  0.00000000000E+00 0. -1.
         21   -1    0    0  501  503 -0.00000000000E+00 -0.00000000000E+00 -0.20457804057E+03  0.20457804057E+03  0.00000000000E+00 0.  1.
          2    1    1    2  501    0  0.30429468893E+02 -0.69522269965E+01 -0.15171853068E+03  0.15489608965E+03  0.00000000000E+00 0.  1.
         -2    1    1    2    0  502 -0.30429468893E+02  0.69522269965E+01 -0.46520037220E+02  0.56021423583E+02  0.00000000000E+00 0. -1.
<mgrwt>
<rscale>  2 0.31213555E+02</rscale>
<asrwt>0</asrwt>
<pdfrwt beam="1">  1       21 0.97530367E-03 0.31213555E+02</pdfrwt>
<pdfrwt beam="2">  1       21 0.31473539E-01 0.31213555E+02</pdfrwt>
<totfact> 0.30314502E+07</totfact>
</mgrwt>
</event>
<event>
 4    1  0.2821610E+004  0.3296100E+02  0.7546771E-02  0.1567491E+00
         21   -1    0    0  503  502  0.00000000000E+00  0.00000000000E+00  0.55089336073E+02  0.55089336073E+02  0.00000000000E+00 0. -1.
         21   -1    0    0  501  503 -0.00000000000E+00 -0.00000000000E+00 -0.23762823960E+02  0.23762823960E+02  0.00000000000E+00 0.  1.
          2    1    1    2  501    0 -0.23905039938E+02  0.22693089152E+02 -0.59646518859E+00  0.32966391983E+02  0.00000000000E+00 0. -1.
         -2    1    1    2    0  502  0.23905039938E+02 -0.22693089152E+02  0.31922977301E+02  0.45885768049E+02  0.00000000000E+00 0.  1.
<mgrwt>
<rscale>  2 0.32960996E+02</rscale>
<asrwt>0</asrwt>
<pdfrwt beam="1">  1       21 0.84752824E-02 0.32960996E+02</pdfrwt>
<pdfrwt beam="2">  1       21 0.36558191E-02 0.32960996E+02</pdfrwt>
<totfact> 0.38899481E+07</totfact>
</mgrwt>
</event>
<event>
 4    1  0.2821610E+004  0.2664657E+02  0.7546771E-02  0.1638419E+00
         21   -1    0    0  501  502  0.00000000000E+00  0.00000000000E+00  0.13040484711E+03  0.13040484711E+03  0.00000000000E+00 0.  1.
         21   -1    0    0  502  503 -0.00000000000E+00 -0.00000000000E+00 -0.13845875142E+02  0.13845875142E+02  0.00000000000E+00 0. -1.
          2    1    1    2  501    0 -0.12698918690E+02 -0.23425987808E+02  0.11446094634E+03  0.11752169025E+03  0.00000000000E+00 0.  1.
         -2    1    1    2    0  503  0.12698918690E+02  0.23425987808E+02  0.20980256297E+01  0.26729032011E+02  0.00000000000E+00 0. -1.
<mgrwt>
<rscale>  2 0.26646565E+02</rscale>
<asrwt>0</asrwt>
<pdfrwt beam="1">  1       21 0.20062283E-01 0.26646565E+02</pdfrwt>
<pdfrwt beam="2">  1       21 0.21301347E-02 0.26646565E+02</pdfrwt>
<totfact> 0.20019913E+07</totfact>
</mgrwt>
</event>
<event>
 4    1  0.2821610E+004  0.2205351E+02  0.7546771E-02  0.1707328E+00
         21   -1    0    0  501  502  0.00000000000E+00  0.00000000000E+00  0.69759840018E+02  0.69759840018E+02  0.00000000000E+00 0.  1.
         21   -1    0    0  502  503 -0.00000000000E+00 -0.00000000000E+00 -0.15801741203E+02  0.15801741203E+02  0.00000000000E+00 0. -1.
          2    1    1    2  501    0  0.17668468109E+02 -0.13197820143E+02  0.58958667755E+02  0.62948246404E+02  0.00000000000E+00 0.  1.
         -2    1    1    2    0  503 -0.17668468109E+02  0.13197820143E+02 -0.50005689408E+01  0.22613334817E+02  0.00000000000E+00 0. -1.
<mgrwt>
<rscale>  2 0.22053508E+02</rscale>
<asrwt>0</asrwt>
<pdfrwt beam="1">  1       21 0.10732283E-01 0.22053508E+02</pdfrwt>
<pdfrwt beam="2">  1       21 0.24310372E-02 0.22053508E+02</pdfrwt>
<totfact> 0.45425029E+07</totfact>
</mgrwt>
</event>
<event>
 4    1  0.2821610E+004  0.2650645E+02  0.7546771E-02  0.1640262E+00
         21   -1    0    0  501  502  0.00000000000E+00  0.00000000000E+00  0.12550663726E+02  0.12550663726E+02  0.00000000000E+00 0.  1.
         21   -1    0    0  502  503 -0.00000000000E+00 -0.00000000000E+00 -0.98675797768E+02  0.98675797768E+02  0.00000000000E+00 0. -1.
          2    1    1    2  501    0 -0.19270576321E+02  0.18199910755E+02 -0.64809367896E+01  0.27287257189E+02  0.00000000000E+00 0.  1.
         -2    1    1    2    0  503  0.19270576321E+02 -0.18199910755E+02 -0.79644197252E+02  0.83939204304E+02  0.00000000000E+00 0. -1.
<mgrwt>
<rscale>  2 0.26506449E+02</rscale>
<asrwt>0</asrwt>
<pdfrwt beam="1">  1       21 0.19308714E-02 0.26506449E+02</pdfrwt>
<pdfrwt beam="2">  1       21 0.15180891E-01 0.26506449E+02</pdfrwt>
<totfact> 0.37742014E+07</totfact>
</mgrwt>
</event>
<event>
 4    1  0.2821610E+004  0.2522978E+02  0.7546771E-02  0.1657723E+00
         21   -1    0    0  503  502  0.00000000000E+00  0.00000000000E+00  0.50600597777E+01  0.50600597777E+01  0.00000000000E+00 0. -1.
         21   -1    0    0  501  503 -0.00000000000E+00 -0.00000000000E+00 -0.25613907538E+03  0.25613907538E+03  0.00000000000E+00 0.  1.
          2    1    1    2  501    0 -0.23270895672E+02  0.97471531041E+01 -0.21870299327E+03  0.22015344840E+03  0.00000000000E+00 0.  1.
         -2    1    1    2    0  502  0.23270895672E+02 -0.97471531041E+01 -0.32376022335E+02  0.41045686756E+02  0.00000000000E+00 0. -1.
<mgrwt>
<rscale>  2 0.25229776E+02</rscale>
<asrwt>0</asrwt>
<pdfrwt beam="1">  1       21 0.77847096E-03 0.25229776E+02</pdfrwt>
<pdfrwt beam="2">  1       21 0.39406000E-01 0.25229776E+02</pdfrwt>
<totfact> 0.26818331E+07</totfact>
</mgrwt>
</event>
<event>
 4    1  0.2821610E+004  0.2017529E+02  0.7546771E-02  0.1741864E+00
         21   -1    0    0  503  502  0.00000000000E+00  0.00000000000E+00  0.42438629592E+02  0.42438629592E+02  0.00000000000E+00 0.  1.
         21   -1    0    0  501  503 -0.00000000000E+00 -0.00000000000E+00 -0.11102979393E+02  0.11102979393E+02  0.00000000000E+00 0. -1.
          2    1    1    2  501    0 -0.17542700768E+00 -0.20174528479E+02  0.57898261197E+01  0.20989627450E+02  0.00000000000E+00 0. -1.
         -2    1    1    2    0  502  0.17542700768E+00  0.20174528479E+02  0.25545824079E+02  0.32551981535E+02  0.00000000000E+00 0.  1.
<mgrwt>
<rscale>  2 0.20175291E+02</rscale>
<asrwt>0</asrwt>
<pdfrwt beam="1">  1       21 0.65290198E-02 0.20175291E+02</pdfrwt>
<pdfrwt beam="2">  1       21 0.17081507E-02 0.20175291E+02</pdfrwt>
<totfact> 0.17089323E+08</totfact>
</mgrwt>
</event>
<event>
 4    1  0.2821610E+004  0.4899490E+02  0.7546771E-02  0.1450839E+00
         21   -1    0    0  501  502  0.00000000000E+00  0.00000000000E+00  0.22638013563E+03  0.22638013563E+03  0.00000000000E+00 0.  1.
         21   -1    0    0  502  503 -0.00000000000E+00 -0.00000000000E+00 -0.10609654522E+02  0.10609654522E+02  0.00000000000E+00 0. -1.
          2    1    1    2  501    0  0.48933594190E+02 -0.24501846682E+01  0.11065785924E+03  0.12101926233E+03  0.00000000000E+00 0.  1.
         -2    1    1    2    0  503 -0.48933594190E+02  0.24501846682E+01  0.10511262187E+03  0.11597052782E+03  0.00000000000E+00 0. -1.
<mgrwt>
<rscale>  2 0.48994898E+02</rscale>
<asrwt>0</asrwt>
<pdfrwt beam="1">  1       21 0.34827710E-01 0.48994898E+02</pdfrwt>
<pdfrwt beam="2">  1       21 0.16322547E-02 0.48994898E+02</pdfrwt>
<totfact> 0.12156261E+07</totfact>
</mgrwt>
</event>
<event>
 4    1  0.2821610E+004  0.2620582E+02  0.7546771E-02  0.1644263E+00
         21   -1    0    0  503  502  0.00000000000E+00  0.00000000000E+00  0.17591237017E+03  0.17591237017E+03  0.00000000000E+00 0. -1.
         21   -1    0    0  501  503 -0.00000000000E+00 -0.00000000000E+00 -0.46937608525E+01  0.46937608525E+01  0.00000000000E+00 0.  1.
          2    1    1    2  501    0 -0.20056664596E+02  0.16866386931E+02  0.48565419750E+02  0.55184642776E+02  0.00000000000E+00 0.  1.
         -2    1    1    2    0  502  0.20056664596E+02 -0.16866386931E+02  0.12265318956E+03  0.12542148824E+03  0.00000000000E+00 0. -1.
<mgrwt>
<rscale>  2 0.26205816E+02</rscale>
<asrwt>0</asrwt>
<pdfrwt beam="1">  1       21 0.27063436E-01 0.26205816E+02</pdfrwt>
<pdfrwt beam="2">  1       21 0.72211719E-03 0.26205816E+02</pdfrwt>
<totfact> 0.60552433E+07</totfact>
</mgrwt>
</event>
<event>
 4    1  0.2821610E+004  0.5065418E+02  0.7546771E-02  0.1441845E+00
         21   -1    0    0  503  502  0.00000000000E+00  0.00000000000E+00  0.13623678470E+02  0.13623678470E+02  0.00000000000E+00 0. -1.
         21   -1    0    0  501  503 -0.00000000000E+00 -0.00000000000E+00 -0.27856873513E+03  0.27856873513E+03  0.00000000000E+00 0.  1.
          2    1    1    2  501    0 -0.50646776333E+02  0.86575276039E+00 -0.21562055045E+03  0.22149055794E+03  0.00000000000E+00 0.  1.
         -2    1    1    2    0  502  0.50646776333E+02 -0.86575276039E+00 -0.49324506210E+02  0.70701855659E+02  0.00000000000E+00 0. -1.
<mgrwt>
<rscale>  2 0.50654175E+02</rscale>
<asrwt>0</asrwt>
<pdfrwt beam="1">  1       21 0.20959506E-02 0.50654175E+02</pdfrwt>
<pdfrwt beam="2">  1       21 0.42856726E-01 0.50654175E+02</pdfrwt>
<totfact> 0.55179556E+06</totfact>
</mgrwt>
</event>
<event>
 4    1  0.2821610E+004  0.2220356E+02  0.7546771E-02  0.1704755E+00
         21   -1    0    0  501  502  0.00000000000E+00  0.00000000000E+00  0.75495192239E+03  0.75495192239E+03  0.00000000000E+00 0. -1.
         21   -1    0    0  502  503 -0.00000000000E+00 -0.00000000000E+00 -0.72074248703E+00  0.72074248703E+00  0.00000000000E+00 0.  1.
          2    1    1    2  501    0 -0.10009526872E+01 -0.22180986654E+02  0.49293538081E+03  0.49343519102E+03  0.00000000000E+00 0. -1.
         -2    1    1    2    0  503  0.10009526872E+01  0.22180986654E+02  0.26129579909E+03  0.26223747386E+03  0.00000000000E+00 0.  1.
<mgrwt>
<rscale>  2 0.22203560E+02</rscale>
<asrwt>0</asrwt>
<pdfrwt beam="1">  1       21 0.11614582E+00 0.22203560E+02</pdfrwt>
<pdfrwt beam="2">  1       21 0.11088406E-03 0.22203560E+02</pdfrwt>
<totfact> 0.48848272E+07</totfact>
</mgrwt>
</event>
<event>
 4    1  0.2821610E+004  0.2033737E+02  0.7546771E-02  0.1738701E+00
         21   -1    0    0  503  502  0.00000000000E+00  0.00000000000E+00  0.27671986503E+03  0.27671986503E+03  0.00000000000E+00 0. -1.
         21   -1    0    0  501  503 -0.00000000000E+00 -0.00000000000E+00 -0.37617352437E+01  0.37617352437E+01  0.00000000000E+00 0.  1.
          2    1    1    2  501    0 -0.55322152256E+01  0.19570468240E+02  0.27608374063E+02  0.34290391524E+02  0.00000000000E+00 0.  1.
         -2    1    1    2    0  502  0.55322152256E+01 -0.19570468240E+02  0.24534975572E+03  0.24619120875E+03  0.00000000000E+00 0. -1.
<mgrwt>
<rscale>  2 0.20337370E+02</rscale>
<asrwt>0</asrwt>
<pdfrwt beam="1">  1       21 0.42572271E-01 0.20337370E+02</pdfrwt>
<pdfrwt beam="2">  1       21 0.57872871E-03 0.20337370E+02</pdfrwt>
<totfact> 0.34309514E+07</totfact>
</mgrwt>
</event>
<event>
 4    1  0.2821610E+004  0.2571030E+02  0.7546771E-02  0.1651004E+00
         21   -1    0    0  503  502  0.00000000000E+00  0.00000000000E+00  0.37460204276E+01  0.37460204276E+01  0.00000000000E+00 0. -1.
         21   -1    0    0  501  503 -0.00000000000E+00 -0.00000000000E+00 -0.21108194759E+03  0.21108194759E+03  0.00000000000E+00 0.  1.
          2    1    1    2  501    0  0.23870053831E+02  0.95519678368E+01 -0.14717068162E+03  0.14939956187E+03  0.00000000000E+00 0.  1.
         -2    1    1    2    0  502 -0.23870053831E+02 -0.95519678368E+01 -0.60165245546E+02  0.65428406148E+02  0.00000000000E+00 0. -1.
<mgrwt>
<rscale>  2 0.25710301E+02</rscale>
<asrwt>0</asrwt>
<pdfrwt beam="1">  1       21 0.57631082E-03 0.25710301E+02</pdfrwt>
<pdfrwt beam="2">  1       21 0.32474147E-01 0.25710301E+02</pdfrwt>
<totfact> 0.60486218E+07</totfact>
</mgrwt>
</event>
<event>
 4    1  0.2821610E+004  0.3991980E+02  0.7546771E-02  0.1508802E+00
         21   -1    0    0  503  502  0.00000000000E+00  0.00000000000E+00  0.26284943213E+01  0.26284943213E+01  0.00000000000E+00 0. -1.
         21   -1    0    0  501  503 -0.00000000000E+00 -0.00000000000E+00 -0.60672481036E+03  0.60672481036E+03  0.00000000000E+00 0.  1.
          2    1    1    2  501    0  0.39895775807E+02  0.13846918268E+01 -0.29375202606E+03  0.29645209245E+03  0.00000000000E+00 0.  1.
         -2    1    1    2    0  502 -0.39895775807E+02 -0.13846918268E+01 -0.31034428997E+03  0.31290121223E+03  0.00000000000E+00 0. -1.
<mgrwt>
<rscale>  2 0.39919798E+02</rscale>
<asrwt>0</asrwt>
<pdfrwt beam="1">  1       21 0.40438392E-03 0.39919798E+02</pdfrwt>
<pdfrwt beam="2">  1       21 0.93342238E-01 0.39919798E+02</pdfrwt>
<totfact> 0.13296119E+07</totfact>
</mgrwt>
</event>
<event>
 4    1  0.2821610E+004  0.3814172E+02  0.7546771E-02  0.1522349E+00
         21   -1    0    0  501  502  0.00000000000E+00  0.00000000000E+00  0.18007948763E+04  0.18007948763E+04  0.00000000000E+00 0. -1.
         21   -1    0    0  502  503 -0.00000000000E+00 -0.00000000000E+00 -0.83104309335E+00  0.83104309335E+00  0.00000000000E+00 0.  1.
          2    1    1    2  501    0  0.36539128753E+02  0.10939975074E+02  0.10504360755E+04  0.10511283175E+04  0.00000000000E+00 0.  1.
         -2    1    1    2    0  503 -0.36539128753E+02 -0.10939975074E+02  0.74952775765E+03  0.75049760191E+03  0.00000000000E+00 0. -1.
<mgrwt>
<rscale>  2 0.38141722E+02</rscale>
<asrwt>0</asrwt>
<pdfrwt beam="1">  1       21 0.27704224E+00 0.38141722E+02</pdfrwt>
<pdfrwt beam="2">  1       21 0.12785423E-03 0.38141722E+02</pdfrwt>
<totfact> 0.44378822E+06</totfact>
</mgrwt>
</event>
<event>
 4    1  0.2821610E+004  0.2102474E+02  0.7546771E-02  0.1725686E+00
         21   -1    0    0  503  502  0.00000000000E+00  0.00000000000E+00  0.23690805806E+01  0.23690805806E+01  0.00000000000E+00 0.  1.
         21   -1    0    0  501  503 -0.00000000000E+00 -0.00000000000E+00 -0.51055491251E+03  0.51055491251E+03  0.00000000000E+00 0. -1.
          2    1    1    2  501    0 -0.18274256687E+02 -0.10396687416E+02 -0.45838559717E+03  0.45886751384E+03  0.00000000000E+00 0. -1.
         -2    1    1    2    0  502  0.18274256687E+02  0.10396687416E+02 -0.49800234764E+02  0.54056479253E+02  0.00000000000E+00 0.  1.
<mgrwt>
<rscale>  2 0.21024737E+02</rscale>
<asrwt>0</asrwt>
<pdfrwt beam="1">  1       21 0.36447401E-03 0.21024737E+02</pdfrwt>
<pdfrwt beam="2">  1       21 0.78546893E-01 0.21024737E+02</pdfrwt>
<totfact> 0.20239320E+07</totfact>
</mgrwt>
</event>
<event>
 4    1  0.2821610E+004  0.2725050E+02  0.7546771E-02  0.1630634E+00
         21   -1    0    0  503  502  0.00000000000E+00  0.00000000000E+00  0.69240621365E+02  0.69240621365E+02  0.00000000000E+00 0.  1.
         21   -1    0    0  501  503 -0.00000000000E+00 -0.00000000000E+00 -0.14828362458E+03  0.14828362458E+03  0.00000000000E+00 0. -1.
          2    1    1    2  501    0  0.11509914475E+02 -0.24700432800E+02 -0.14427664610E+03  0.14682758638E+03  0.00000000000E+00 0. -1.
         -2    1    1    2    0  502 -0.11509914475E+02  0.24700432800E+02  0.65233642879E+02  0.70696659574E+02  0.00000000000E+00 0.  1.
<mgrwt>
<rscale>  2 0.27250496E+02</rscale>
<asrwt>0</asrwt>
<pdfrwt beam="1">  1       21 0.10652403E-01 0.27250496E+02</pdfrwt>
<pdfrwt beam="2">  1       21 0.22812865E-01 0.27250496E+02</pdfrwt>
<totfact> 0.12149713E+06</totfact>
</mgrwt>
</event>
<event>
 4    1  0.2821610E+004  0.2190468E+02  0.7546771E-02  0.1709906E+00
         21   -1    0    0  501  502  0.00000000000E+00  0.00000000000E+00  0.70375699589E+02  0.70375699589E+02  0.00000000000E+00 0. -1.
         21   -1    0    0  502  503 -0.00000000000E+00 -0.00000000000E+00 -0.68603059095E+01  0.68603059095E+01  0.00000000000E+00 0.  1.
          2    1    1    2  501    0 -0.18420384263E+02  0.11853448723E+02  0.34793739827E+02  0.41114707030E+02  0.00000000000E+00 0. -1.
         -2    1    1    2    0  503  0.18420384263E+02 -0.11853448723E+02  0.28721653853E+02  0.36121298469E+02  0.00000000000E+00 0.  1.
<mgrwt>
<rscale>  2 0.21904675E+02</rscale>
<asrwt>0</asrwt>
<pdfrwt beam="1">  1       21 0.10827030E-01 0.21904675E+02</pdfrwt>
<pdfrwt beam="2">  1       21 0.10554317E-02 0.21904675E+02</pdfrwt>
<totfact> 0.15897444E+08</totfact>
</mgrwt>
</event>
<event>
 4    1  0.2821610E+004  0.2391774E+02  0.7546771E-02  0.1677052E+00
         21   -1    0    0  503  502  0.00000000000E+00  0.00000000000E+00  0.20535102788E+02  0.20535102788E+02  0.00000000000E+00 0. -1.
         21   -1    0    0  501  503 -0.00000000000E+00 -0.00000000000E+00 -0.34661934882E+02  0.34661934882E+02  0.00000000000E+00 0.  1.
          2    1    1    2  501    0 -0.23609915304E+02 -0.38249589285E+01 -0.19291337211E+02  0.30728067022E+02  0.00000000000E+00 0.  1.
         -2    1    1    2    0  502  0.23609915304E+02  0.38249589285E+01  0.51645051173E+01  0.24468970648E+02  0.00000000000E+00 0. -1.
<mgrwt>
<rscale>  2 0.23917743E+02</rscale>
<asrwt>0</asrwt>
<pdfrwt beam="1">  1       21 0.31592466E-02 0.23917743E+02</pdfrwt>
<pdfrwt beam="2">  1       21 0.53326053E-02 0.23917743E+02</pdfrwt>
<totfact> 0.96494670E+07</totfact>
</mgrwt>
</event>
<event>
 4    1  0.2821610E+004  0.2437820E+02  0.7546771E-02  0.1670097E+00
         21   -1    0    0  501  502  0.00000000000E+00  0.00000000000E+00  0.22970880595E+03  0.22970880595E+03  0.00000000000E+00 0.  1.
         21   -1    0    0  502  503 -0.00000000000E+00 -0.00000000000E+00 -0.26604270939E+01  0.26604270939E+01  0.00000000000E+00 0. -1.
          2    1    1    2  501    0 -0.24302963140E+02 -0.19137658706E+01  0.13280332920E+03  0.13502229728E+03  0.00000000000E+00 0.  1.
         -2    1    1    2    0  503  0.24302963140E+02  0.19137658706E+01  0.94245049659E+02  0.97346935763E+02  0.00000000000E+00 0. -1.
<mgrwt>
<rscale>  2 0.24378198E+02</rscale>
<asrwt>0</asrwt>
<pdfrwt beam="1">  1       21 0.35339801E-01 0.24378198E+02</pdfrwt>
<pdfrwt beam="2">  1       21 0.40929666E-03 0.24378198E+02</pdfrwt>
<totfact> 0.84685628E+07</totfact>
</mgrwt>
</event>
<event>
 4    1  0.2821610E+004  0.2112519E+02  0.7546771E-02  0.1723836E+00
         21   -1    0    0  503  502  0.00000000000E+00  0.00000000000E+00  0.17384084637E+02  0.17384084637E+02  0.00000000000E+00 0.  1.
         21   -1    0    0  501  503 -0.00000000000E+00 -0.00000000000E+00 -0.46616301949E+02  0.46616301949E+02  0.00000000000E+00 0. -1.
          2    1    1    2  501    0 -0.10015234151E+02  0.18600238853E+02 -0.36065889155E+02  0.41797394189E+02  0.00000000000E+00 0. -1.
         -2    1    1    2    0  502  0.10015234151E+02 -0.18600238853E+02  0.68336718436E+01  0.22202992396E+02  0.00000000000E+00 0.  1.
<mgrwt>
<rscale>  2 0.21125194E+02</rscale>
<asrwt>0</asrwt>
<pdfrwt beam="1">  1       21 0.26744746E-02 0.21125194E+02</pdfrwt>
<pdfrwt beam="2">  1       21 0.71717387E-02 0.21125194E+02</pdfrwt>
<totfact> 0.74956678E+07</totfact>
</mgrwt>
</event>
<event>
 4    1  0.2821610E+004  0.2412799E+02  0.7546771E-02  0.1673852E+00
         21   -1    0    0  503  502  0.00000000000E+00  0.00000000000E+00  0.31021725601E+02  0.31021725601E+02  0.00000000000E+00 0. -1.
         21   -1    0    0  501  503 -0.00000000000E+00 -0.00000000000E+00 -0.23996122617E+02  0.23996122617E+02  0.00000000000E+00 0.  1.
          2    1    1    2  501    0  0.22966405601E+01 -0.24018435775E+02 -0.93297354491E+01  0.25868973279E+02  0.00000000000E+00 0.  1.
         -2    1    1    2    0  502 -0.22966405601E+01  0.24018435775E+02  0.16355338434E+02  0.29148874939E+02  0.00000000000E+00 0. -1.
<mgrwt>
<rscale>  2 0.24127988E+02</rscale>
<asrwt>0</asrwt>
<pdfrwt beam="1">  1       21 0.47725732E-02 0.24127988E+02</pdfrwt>
<pdfrwt beam="2">  1       21 0.36917112E-02 0.24127988E+02</pdfrwt>
<totfact> 0.90446362E+07</totfact>
</mgrwt>
</event>
<event>
 4    1  0.2821610E+004  0.2081230E+02  0.7546771E-02  0.1729641E+00
         21   -1    0    0  503  502  0.00000000000E+00  0.00000000000E+00  0.77280048359E+01  0.77280048359E+01  0.00000000000E+00 0. -1.
         21   -1    0    0  501  503 -0.00000000000E+00 -0.00000000000E+00 -0.18019726363E+03  0.18019726363E+03  0.00000000000E+00 0.  1.
          2    1    1    2  501    0  0.52781000373E+01 -0.20131899555E+02 -0.16422667864E+03  0.16554018756E+03  0.00000000000E+00 0.  1.
         -2    1    1    2    0  502 -0.52781000373E+01  0.20131899555E+02 -0.82425801565E+01  0.22385080910E+02  0.00000000000E+00 0. -1.
<mgrwt>
<rscale>  2 0.20812297E+02</rscale>
<asrwt>0</asrwt>
<pdfrwt beam="1">  1       21 0.11889239E-02 0.20812297E+02</pdfrwt>
<pdfrwt beam="2">  1       21 0.27722654E-01 0.20812297E+02</pdfrwt>
<totfact> 0.26010396E+07</totfact>
</mgrwt>
</event>
<event>
 4    1  0.2821610E+004  0.3905161E+02  0.7546771E-02  0.1515309E+00
         21   -1    0    0  501  502  0.00000000000E+00  0.00000000000E+00  0.28086821509E+02  0.28086821509E+02  0.00000000000E+00 0.  1.
         21   -1    0    0  502  503 -0.00000000000E+00 -0.00000000000E+00 -0.59854389445E+02  0.59854389445E+02  0.00000000000E+00 0. -1.
          2    1    1    2  501    0 -0.12256310851E+02 -0.37078440555E+02 -0.24853829432E+01  0.39130615100E+02  0.00000000000E+00 0.  1.
         -2    1    1    2    0  503  0.12256310851E+02  0.37078440555E+02 -0.29282184992E+02  0.48810595854E+02  0.00000000000E+00 0. -1.
<mgrwt>
<rscale>  2 0.39051606E+02</rscale>
<asrwt>0</asrwt>
<pdfrwt beam="1">  1       21 0.43210495E-02 0.39051606E+02</pdfrwt>
<pdfrwt beam="2">  1       21 0.92083675E-02 0.39051606E+02</pdfrwt>
<totfact> 0.26750049E+07</totfact>
</mgrwt>
</event>
<event>
 4    1  0.2821610E+004  0.4108079E+02  0.7546771E-02  0.1500405E+00
         21   -1    0    0  501  502  0.00000000000E+00  0.00000000000E+00  0.78046587547E+02  0.78046587547E+02  0.00000000000E+00 0.  1.
         21   -1    0    0  502  503 -0.00000000000E+00 -0.00000000000E+00 -0.21639213419E+02  0.21639213419E+02  0.00000000000E+00 0. -1.
          2    1    1    2  501    0 -0.29602248157E+01 -0.40973995035E+02  0.29551837357E+02  0.50605753539E+02  0.00000000000E+00 0.  1.
         -2    1    1    2    0  503  0.29602248157E+01  0.40973995035E+02  0.26855536772E+02  0.49080047427E+02  0.00000000000E+00 0. -1.
<mgrwt>
<rscale>  2 0.41080789E+02</rscale>
<asrwt>0</asrwt>
<pdfrwt beam="1">  1       21 0.12007167E-01 0.41080789E+02</pdfrwt>
<pdfrwt beam="2">  1       21 0.33291098E-02 0.41080789E+02</pdfrwt>
<totfact> 0.26141682E+07</totfact>
</mgrwt>
</event>
<event>
 4    1  0.2821610E+004  0.2268587E+02  0.7546771E-02  0.1696653E+00
         21   -1    0    0  501  502  0.00000000000E+00  0.00000000000E+00  0.24212713080E+03  0.24212713080E+03  0.00000000000E+00 0. -1.
         21   -1    0    0  502  503 -0.00000000000E+00 -0.00000000000E+00 -0.26531448229E+01  0.26531448229E+01  0.00000000000E+00 0.  1.
          2    1    1    2  501    0  0.94340269250E+00  0.22666247770E+02  0.17431578283E+03  0.17578578139E+03  0.00000000000E+00 0. -1.
         -2    1    1    2    0  503 -0.94340269250E+00 -0.22666247770E+02  0.65158203150E+02  0.68994494232E+02  0.00000000000E+00 0.  1.
<mgrwt>
<rscale>  2 0.22685872E+02</rscale>
<asrwt>0</asrwt>
<pdfrwt beam="1">  1       21 0.37250311E-01 0.22685872E+02</pdfrwt>
<pdfrwt beam="2">  1       21 0.40817632E-03 0.22685872E+02</pdfrwt>
<totfact> 0.75676679E+07</totfact>
</mgrwt>
</event>
<event>
 4    1  0.2821610E+004  0.2251865E+02  0.7546771E-02  0.1699434E+00
         21   -1    0    0  503  502  0.00000000000E+00  0.00000000000E+00  0.22206909451E+02  0.22206909451E+02  0.00000000000E+00 0.  1.
         21   -1    0    0  501  503 -0.00000000000E+00 -0.00000000000E+00 -0.25545940581E+02  0.25545940581E+02  0.00000000000E+00 0. -1.
          2    1    1    2  501    0 -0.22333073500E+02  0.28850218726E+01 -0.94478623646E+01  0.24420311760E+02  0.00000000000E+00 0.  1.
         -2    1    1    2    0  502  0.22333073500E+02 -0.28850218726E+01  0.61088312350E+01  0.23332538272E+02  0.00000000000E+00 0. -1.
<mgrwt>
<rscale>  2 0.22518648E+02</rscale>
<asrwt>0</asrwt>
<pdfrwt beam="1">  1       21 0.34164476E-02 0.22518648E+02</pdfrwt>
<pdfrwt beam="2">  1       21 0.39301447E-02 0.22518648E+02</pdfrwt>
<totfact> 0.13610615E+08</totfact>
</mgrwt>
</event>
<event>
 4    1  0.2821610E+004  0.3295696E+02  0.7546771E-02  0.1567530E+00
         21   -1    0    0  503  502  0.00000000000E+00  0.00000000000E+00  0.11629963815E+03  0.11629963815E+03  0.00000000000E+00 0.  1.
         21   -1    0    0  501  503 -0.00000000000E+00 -0.00000000000E+00 -0.43780983331E+02  0.43780983331E+02  0.00000000000E+00 0. -1.
          2    1    1    2  501    0 -0.23583324022E+00 -0.32956117155E+02 -0.34732437714E+02  0.47880095079E+02  0.00000000000E+00 0. -1.
         -2    1    1    2    0  502  0.23583324022E+00  0.32956117155E+02  0.10725109253E+03  0.11220052640E+03  0.00000000000E+00 0.  1.
<mgrwt>
<rscale>  2 0.32956961E+02</rscale>
<asrwt>0</asrwt>
<pdfrwt beam="1">  1       21 0.17892252E-01 0.32956961E+02</pdfrwt>
<pdfrwt beam="2">  1       21 0.67355360E-02 0.32956961E+02</pdfrwt>
<totfact> 0.40642705E+06</totfact>
</mgrwt>
</event>
<event>
 4    1  0.2821610E+004  0.2539713E+02  0.7546771E-02  0.1655362E+00
         21   -1    0    0  503  502  0.00000000000E+00  0.00000000000E+00  0.16649802272E+03  0.16649802272E+03  0.00000000000E+00 0. -1.
         21   -1    0    0  501  503 -0.00000000000E+00 -0.00000000000E+00 -0.15440244262E+02  0.15440244262E+02  0.00000000000E+00 0.  1.
          2    1    1    2  501    0  0.44298798473E+01 -0.25007806359E+02 -0.32052449394E+01  0.25598589990E+02  0.00000000000E+00 0.  1.
         -2    1    1    2    0  502 -0.44298798473E+01  0.25007806359E+02  0.15426302339E+03  0.15633967699E+03  0.00000000000E+00 0. -1.
<mgrwt>
<rscale>  2 0.25397130E+02</rscale>
<asrwt>0</asrwt>
<pdfrwt beam="1">  1       21 0.25615079E-01 0.25397130E+02</pdfrwt>
<pdfrwt beam="2">  1       21 0.23754223E-02 0.25397130E+02</pdfrwt>
<totfact> 0.10863332E+07</totfact>
</mgrwt>
</event>
<event>
 4    1  0.2821610E+004  0.2110139E+02  0.7546771E-02  0.1724273E+00
         21   -1    0    0  503  502  0.00000000000E+00  0.00000000000E+00  0.71776238603E+03  0.71776238603E+03  0.00000000000E+00 0. -1.
         21   -1    0    0  501  503 -0.00000000000E+00 -0.00000000000E+00 -0.62421009865E+00  0.62421009865E+00  0.00000000000E+00 0.  1.
          2    1    1    2  501    0  0.12935610906E+02 -0.16671485777E+02  0.38679210627E+03  0.38736727009E+03  0.00000000000E+00 0. -1.
         -2    1    1    2    0  502 -0.12935610906E+02  0.16671485777E+02  0.33034606967E+03  0.33101932604E+03  0.00000000000E+00 0.  1.
<mgrwt>
<rscale>  2 0.21101385E+02</rscale>
<asrwt>0</asrwt>
<pdfrwt beam="1">  1       21 0.11042432E+00 0.21101385E+02</pdfrwt>
<pdfrwt beam="2">  1       21 0.96032897E-04 0.21101385E+02</pdfrwt>
<totfact> 0.66302886E+07</totfact>
</mgrwt>
</event>
<event>
 4    1  0.2821610E+004  0.2659714E+02  0.7546771E-02  0.1639067E+00
         21   -1    0    0  503  502  0.00000000000E+00  0.00000000000E+00  0.11460221528E+03  0.11460221528E+03  0.00000000000E+00 0.  1.
         21   -1    0    0  501  503 -0.00000000000E+00 -0.00000000000E+00 -0.13350890380E+02  0.13350890380E+02  0.00000000000E+00 0. -1.
          2    1    1    2  501    0  0.77035055997E+01  0.25457102387E+02  0.37149073045E+01  0.26855327158E+02  0.00000000000E+00 0. -1.
         -2    1    1    2    0  502 -0.77035055997E+01 -0.25457102387E+02  0.97536417593E+02  0.10109777850E+03  0.00000000000E+00 0.  1.
<mgrwt>
<rscale>  2 0.26597144E+02</rscale>
<asrwt>0</asrwt>
<pdfrwt beam="1">  1       21 0.17631109E-01 0.26597144E+02</pdfrwt>
<pdfrwt beam="2">  1       21 0.20539832E-02 0.26597144E+02</pdfrwt>
<totfact> 0.26525737E+07</totfact>
</mgrwt>
</event>
<event>
 4    1  0.2821610E+004  0.2086910E+02  0.7546771E-02  0.1728577E+00
         21   -1    0    0  503  502  0.00000000000E+00  0.00000000000E+00  0.10100652374E+03  0.10100652374E+03  0.00000000000E+00 0. -1.
         21   -1    0    0  501  503 -0.00000000000E+00 -0.00000000000E+00 -0.45914835366E+01  0.45914835366E+01  0.00000000000E+00 0.  1.
          2    1    1    2  501    0 -0.11501312560E+02 -0.17413767414E+02  0.35176270389E+02  0.40900971683E+02  0.00000000000E+00 0. -1.
         -2    1    1    2    0  502  0.11501312560E+02  0.17413767414E+02  0.61238769810E+02  0.64697035589E+02  0.00000000000E+00 0.  1.
<mgrwt>
<rscale>  2 0.20869104E+02</rscale>
<asrwt>0</asrwt>
<pdfrwt beam="1">  1       21 0.15539464E-01 0.20869104E+02</pdfrwt>
<pdfrwt beam="2">  1       21 0.70638216E-03 0.20869104E+02</pdfrwt>
<totfact> 0.15547581E+08</totfact>
</mgrwt>
</event>
<event>
 4    1  0.2821610E+004  0.2364968E+02  0.7546771E-02  0.1681190E+00
         21   -1    0    0  501  502  0.00000000000E+00  0.00000000000E+00  0.24287666788E+02  0.24287666788E+02  0.00000000000E+00 0. -1.
         21   -1    0    0  502  503 -0.00000000000E+00 -0.00000000000E+00 -0.27871232589E+03  0.27871232589E+03  0.00000000000E+00 0.  1.
          2    1    1    2  501    0  0.12853970603E+02  0.19851521210E+02  0.17893947747E+02  0.29656379087E+02  0.00000000000E+00 0. -1.
         -2    1    1    2    0  503 -0.12853970603E+02 -0.19851521210E+02 -0.27231860685E+03  0.27334361359E+03  0.00000000000E+00 0.  1.
<mgrwt>
<rscale>  2 0.23649682E+02</rscale>
<asrwt>0</asrwt>
<pdfrwt beam="1">  1       21 0.37365641E-02 0.23649682E+02</pdfrwt>
<pdfrwt beam="2">  1       21 0.42878820E-01 0.23649682E+02</pdfrwt>
<totfact> 0.20469783E+06</totfact>
</mgrwt>
</event>
<event>
 4    1  0.2821610E+004  0.2083490E+02  0.7546771E-02  0.1729217E+00
         21   -1    0    0  501  502  0.00000000000E+00  0.00000000000E+00  0.13615379040E+02  0.13615379040E+02  0.00000000000E+00 0. -1.
         21   -1    0    0  502  503 -0.00000000000E+00 -0.00000000000E+00 -0.60633221569E+02  0.60633221569E+02  0.00000000000E+00 0.  1.
          2    1    1    2  501    0 -0.20672195444E+02  0.25987244367E+01  0.20549684470E+01  0.20935995999E+02  0.00000000000E+00 0. -1.
         -2    1    1    2    0  503  0.20672195444E+02 -0.25987244367E+01 -0.49072810976E+02  0.53312604609E+02  0.00000000000E+00 0.  1.
<mgrwt>
<rscale>  2 0.20834899E+02</rscale>
<asrwt>0</asrwt>
<pdfrwt beam="1">  1       21 0.20946737E-02 0.20834899E+02</pdfrwt>
<pdfrwt beam="2">  1       21 0.93281878E-02 0.20834899E+02</pdfrwt>
<totfact> 0.70879520E+07</totfact>
</mgrwt>
</event>
<event>
 4    1  0.2821610E+004  0.2173159E+02  0.7546771E-02  0.1712936E+00
         21   -1    0    0  503  502  0.00000000000E+00  0.00000000000E+00  0.37597590088E+02  0.37597590088E+02  0.00000000000E+00 0. -1.
         21   -1    0    0  501  503 -0.00000000000E+00 -0.00000000000E+00 -0.25753379672E+02  0.25753379672E+02  0.00000000000E+00 0.  1.
          2    1    1    2  501    0  0.19749381005E+02  0.90677505979E+01 -0.16748767736E+02  0.27436897996E+02  0.00000000000E+00 0.  1.
         -2    1    1    2    0  502 -0.19749381005E+02 -0.90677505979E+01  0.28592978152E+02  0.35914071763E+02  0.00000000000E+00 0. -1.
<mgrwt>
<rscale>  2 0.21731593E+02</rscale>
<asrwt>0</asrwt>
<pdfrwt beam="1">  1       21 0.57842446E-02 0.21731593E+02</pdfrwt>
<pdfrwt beam="2">  1       21 0.39620584E-02 0.21731593E+02</pdfrwt>
<totfact> 0.57859040E+07</totfact>
</mgrwt>
</event>
<event>
 4    1  0.2821610E+004  0.2987518E+02  0.7546771E-02  0.1599472E+00
         21   -1    0    0  503  502  0.00000000000E+00  0.00000000000E+00  0.12642401225E+03  0.12642401225E+03  0.00000000000E+00 0.  1.
         21   -1    0    0  501  503 -0.00000000000E+00 -0.00000000000E+00 -0.87706922554E+01  0.87706922554E+01  0.00000000000E+00 0. -1.
          2    1    1    2  501    0 -0.22666355771E+02  0.19461834163E+02  0.28971070281E+02  0.41615496947E+02  0.00000000000E+00 0. -1.
         -2    1    1    2    0  502  0.22666355771E+02 -0.19461834163E+02  0.88682249716E+02  0.93579207560E+02  0.00000000000E+00 0.  1.
<mgrwt>
<rscale>  2 0.29875185E+02</rscale>
<asrwt>0</asrwt>
<pdfrwt beam="1">  1       21 0.19449847E-01 0.29875185E+02</pdfrwt>
<pdfrwt beam="2">  1       21 0.13493374E-02 0.29875185E+02</pdfrwt>
<totfact> 0.43674108E+07</totfact>
</mgrwt>
</event>
<event>
 4    1  0.2821610E+004  0.2460470E+02  0.7546771E-02  0.1666745E+00
         21   -1    0    0  501  502  0.00000000000E+00  0.00000000000E+00  0.49998991666E+02  0.49998991666E+02  0.00000000000E+00 0. -1.
         21   -1    0    0  502  503 -0.00000000000E+00 -0.00000000000E+00 -0.79325282530E+02  0.79325282530E+02  0.00000000000E+00 0.  1.
          2    1    1    2  501    0  0.24351381754E+02 -0.35215876768E+01  0.44859809664E+02  0.51164381127E+02  0.00000000000E+00 0. -1.
         -2    1    1    2    0  503 -0.24351381754E+02  0.35215876768E+01 -0.74186100527E+02  0.78159893069E+02  0.00000000000E+00 0.  1.
<mgrwt>
<rscale>  2 0.24604702E+02</rscale>
<asrwt>0</asrwt>
<pdfrwt beam="1">  1       21 0.76921526E-02 0.24604702E+02</pdfrwt>
<pdfrwt beam="2">  1       21 0.12203890E-01 0.24604702E+02</pdfrwt>
<totfact> 0.60528644E+06</totfact>
</mgrwt>
</event>
<event>
 4    1  0.2821610E+004  0.2159181E+02  0.7546771E-02  0.1715409E+00
         21   -1    0    0  501  502  0.00000000000E+00  0.00000000000E+00  0.59095438008E+01  0.59095438008E+01  0.00000000000E+00 0.  1.
         21   -1    0    0  502  503 -0.00000000000E+00 -0.00000000000E+00 -0.15366138666E+03  0.15366138666E+03  0.00000000000E+00 0. -1.
          2    1    1    2  501    0 -0.13304142235E+02  0.17006062190E+02 -0.18220442360E+02  0.28252271973E+02  0.00000000000E+00 0.  1.
         -2    1    1    2    0  503  0.13304142235E+02 -0.17006062190E+02 -0.12953140050E+03  0.13131865849E+03  0.00000000000E+00 0. -1.
<mgrwt>
<rscale>  2 0.21591812E+02</rscale>
<asrwt>0</asrwt>
<pdfrwt beam="1">  1       21 0.90916067E-03 0.21591812E+02</pdfrwt>
<pdfrwt beam="2">  1       21 0.23640211E-01 0.21591812E+02</pdfrwt>
<totfact> 0.52109338E+07</totfact>
</mgrwt>
</event>
<event>
 4    1  0.2821610E+004  0.2149502E+02  0.7546771E-02  0.1717135E+00
         21   -1    0    0  503  502  0.00000000000E+00  0.00000000000E+00  0.11018831603E+01  0.11018831603E+01  0.00000000000E+00 0. -1.
         21   -1    0    0  501  503 -0.00000000000E+00 -0.00000000000E+00 -0.41942611310E+03  0.41942611310E+03  0.00000000000E+00 0.  1.
          2    1    1    2  501    0  0.21006329855E+02 -0.45573978702E+01 -0.21258956842E+03  0.21367349010E+03  0.00000000000E+00 0. -1.
         -2    1    1    2    0  502 -0.21006329855E+02  0.45573978702E+01 -0.20573466152E+03  0.20685450616E+03  0.00000000000E+00 0.  1.
<mgrwt>
<rscale>  2 0.21495017E+02</rscale>
<asrwt>0</asrwt>
<pdfrwt beam="1">  1       21 0.16952020E-03 0.21495017E+02</pdfrwt>
<pdfrwt beam="2">  1       21 0.64527202E-01 0.21495017E+02</pdfrwt>
<totfact> 0.92144077E+07</totfact>
</mgrwt>
</event>
<event>
 4    1  0.2821610E+004  0.7399624E+02  0.7546771E-02  0.1347008E+00
         21   -1    0    0  503  502  0.00000000000E+00  0.00000000000E+00  0.32478772177E+02  0.32478772177E+02  0.00000000000E+00 0.  1.
         21   -1    0    0  501  503 -0.00000000000E+00 -0.00000000000E+00 -0.58196098682E+03  0.58196098682E+03  0.00000000000E+00 0. -1.
          2    1    1    2  501    0  0.15810276704E+02  0.72287474468E+02 -0.53366661661E+03  0.53877221671E+03  0.00000000000E+00 0. -1.
         -2    1    1    2    0  502 -0.15810276704E+02 -0.72287474468E+02 -0.15815598031E+02  0.75667542285E+02  0.00000000000E+00 0.  1.
<mgrwt>
<rscale>  2 0.73996242E+02</rscale>
<asrwt>0</asrwt>
<pdfrwt beam="1">  1       21 0.49967338E-02 0.73996242E+02</pdfrwt>
<pdfrwt beam="2">  1       21 0.89532466E-01 0.73996242E+02</pdfrwt>
<totfact> 0.29490558E+05</totfact>
</mgrwt>
</event>
<event>
 4    1  0.2821610E+004  0.2690168E+02  0.7546771E-02  0.1635100E+00
         21   -1    0    0  501  502  0.00000000000E+00  0.00000000000E+00  0.85795842816E+01  0.85795842816E+01  0.00000000000E+00 0. -1.
         21   -1    0    0  502  503 -0.00000000000E+00 -0.00000000000E+00 -0.89411402669E+02  0.89411402669E+02  0.00000000000E+00 0.  1.
          2    1    1    2  501    0  0.26861034641E+02  0.14781986401E+01 -0.28760339212E+02  0.39380926409E+02  0.00000000000E+00 0.  1.
         -2    1    1    2    0  503 -0.26861034641E+02 -0.14781986401E+01 -0.52071479176E+02  0.58610060542E+02  0.00000000000E+00 0. -1.
<mgrwt>
<rscale>  2 0.26901678E+02</rscale>
<asrwt>0</asrwt>
<pdfrwt beam="1">  1       21 0.13199360E-02 0.26901678E+02</pdfrwt>
<pdfrwt beam="2">  1       21 0.13755601E-01 0.26901678E+02</pdfrwt>
<totfact> 0.80251585E+07</totfact>
</mgrwt>
</event>
<event>
 4    1  0.2821610E+004  0.2017664E+02  0.7546771E-02  0.1741838E+00
         21   -1    0    0  501  502  0.00000000000E+00  0.00000000000E+00  0.18835331336E+02  0.18835331336E+02  0.00000000000E+00 0. -1.
         21   -1    0    0  502  503 -0.00000000000E+00 -0.00000000000E+00 -0.41705418030E+02  0.41705418030E+02  0.00000000000E+00 0.  1.
          2    1    1    2  501    0  0.13834381910E+02 -0.14686959513E+02  0.95752715227E+01  0.22333444143E+02  0.00000000000E+00 0. -1.
         -2    1    1    2    0  503 -0.13834381910E+02  0.14686959513E+02 -0.32445358217E+02  0.38207305223E+02  0.00000000000E+00 0.  1.
<mgrwt>
<rscale>  2 0.20176642E+02</rscale>
<asrwt>0</asrwt>
<pdfrwt beam="1">  1       21 0.28977433E-02 0.20176642E+02</pdfrwt>
<pdfrwt beam="2">  1       21 0.64162180E-02 0.20176642E+02</pdfrwt>
<totfact> 0.78183599E+07</totfact>
</mgrwt>
</event>
<event>
 4    1  0.2821610E+004  0.2651402E+02  0.7546771E-02  0.1640162E+00
         21   -1    0    0  503  502  0.00000000000E+00  0.00000000000E+00  0.41632500060E+01  0.41632500060E+01  0.00000000000E+00 0. -1.
         21   -1    0    0  501  503 -0.00000000000E+00 -0.00000000000E+00 -0.39099415778E+03  0.39099415778E+03  0.00000000000E+00 0.  1.
          2    1    1    2  501    0  0.35778668815E+00  0.26511609049E+02 -0.34233980493E+03  0.34336501783E+03  0.00000000000E+00 0.  1.
         -2    1    1    2    0  502 -0.35778668815E+00 -0.26511609049E+02 -0.44491102840E+02  0.51792389958E+02  0.00000000000E+00 0. -1.
<mgrwt>
<rscale>  2 0.26514023E+02</rscale>
<asrwt>0</asrwt>
<pdfrwt beam="1">  1       21 0.64050007E-03 0.26514023E+02</pdfrwt>
<pdfrwt beam="2">  1       21 0.60152941E-01 0.26514023E+02</pdfrwt>
<totfact> 0.15898196E+07</totfact>
</mgrwt>
</event>
<event>
 4    1  0.2821610E+004  0.3292227E+02  0.7546771E-02  0.1567865E+00
         21   -1    0    0  501  502  0.00000000000E+00  0.00000000000E+00  0.21831204106E+01  0.21831204106E+01  0.00000000000E+00 0. -1.
         21   -1    0    0  502  503 -0.00000000000E+00 -0.00000000000E+00 -0.62295742940E+03  0.62295742940E+03  0.00000000000E+00 0.  1.
          2    1    1    2  501    0 -0.15025035121E+02  0.29293756847E+02 -0.16954754603E+03  0.17271434867E+03  0.00000000000E+00 0. -1.
         -2    1    1    2    0  503  0.15025035121E+02 -0.29293756847E+02 -0.45122676296E+03  0.45242620114E+03  0.00000000000E+00 0.  1.
<mgrwt>
<rscale>  2 0.32922270E+02</rscale>
<asrwt>0</asrwt>
<pdfrwt beam="1">  1       21 0.33586417E-03 0.32922270E+02</pdfrwt>
<pdfrwt beam="2">  1       21 0.95839750E-01 0.32922270E+02</pdfrwt>
<totfact> 0.16109082E+07</totfact>
</mgrwt>
</event>
<event>
 4    1  0.2821610E+004  0.3359039E+02  0.7546771E-02  0.1561487E+00
         21   -1    0    0  503  502  0.00000000000E+00  0.00000000000E+00  0.13455254571E+02  0.13455254571E+02  0.00000000000E+00 0.  1.
         21   -1    0    0  501  503 -0.00000000000E+00 -0.00000000000E+00 -0.13335387280E+03  0.13335387280E+03  0.00000000000E+00 0. -1.
          2    1    1    2  501    0  0.32553704613E+02 -0.82807239876E+01 -0.10467017173E+03  0.10992797152E+03  0.00000000000E+00 0. -1.
         -2    1    1    2    0  502 -0.32553704613E+02  0.82807239876E+01 -0.15228446503E+02  0.36881155848E+02  0.00000000000E+00 0.  1.
<mgrwt>
<rscale>  2 0.33590387E+02</rscale>
<asrwt>0</asrwt>
<pdfrwt beam="1">  1       21 0.20700392E-02 0.33590387E+02</pdfrwt>
<pdfrwt beam="2">  1       21 0.20515980E-01 0.33590387E+02</pdfrwt>
<totfact> 0.21003545E+07</totfact>
</mgrwt>
</event>
<event>
 4    1  0.2821610E+004  0.2745565E+02  0.7546771E-02  0.1628045E+00
         21   -1    0    0  503  502  0.00000000000E+00  0.00000000000E+00  0.14102349801E+02  0.14102349801E+02  0.00000000000E+00 0. -1.
         21   -1    0    0  501  503 -0.00000000000E+00 -0.00000000000E+00 -0.85696855734E+02  0.85696855734E+02  0.00000000000E+00 0.  1.
          2    1    1    2  501    0  0.26174878732E+02 -0.82878326925E+01 -0.66405492208E+02  0.71857510691E+02  0.00000000000E+00 0.  1.
         -2    1    1    2    0  502 -0.26174878732E+02  0.82878326925E+01 -0.51890137252E+01  0.27941694845E+02  0.00000000000E+00 0. -1.
<mgrwt>
<rscale>  2 0.27455645E+02</rscale>
<asrwt>0</asrwt>
<pdfrwt beam="1">  1       21 0.21695923E-02 0.27455645E+02</pdfrwt>
<pdfrwt beam="2">  1       21 0.13184131E-01 0.27455645E+02</pdfrwt>
<totfact> 0.40415562E+07</totfact>
</mgrwt>
</event>
<event>
 4    1  0.2821610E+004  0.2393673E+02  0.7546771E-02  0.1676761E+00
         21   -1    0    0  501  502  0.00000000000E+00  0.00000000000E+00  0.11700281137E+04  0.11700281137E+04  0.00000000000E+00 0. -1.
         21   -1    0    0  502  503 -0.00000000000E+00 -0.00000000000E+00 -0.61695415940E+00  0.61695415940E+00  0.00000000000E+00 0.  1.
          2    1    1    2  501    0 -0.18162992426E+02  0.15590786773E+02  0.85053235545E+03  0.85086911719E+03  0.00000000000E+00 0. -1.
         -2    1    1    2    0  503  0.18162992426E+02 -0.15590786773E+02  0.31887880406E+03  0.31977595063E+03  0.00000000000E+00 0.  1.
<mgrwt>
<rscale>  2 0.23936728E+02</rscale>
<asrwt>0</asrwt>
<pdfrwt beam="1">  1       21 0.18000255E+00 0.23936728E+02</pdfrwt>
<pdfrwt beam="2">  1       21 0.94916961E-04 0.23936728E+02</pdfrwt>
<totfact> 0.21993071E+07</totfact>
</mgrwt>
</event>
<event>
 4    1  0.2821610E+004  0.2595028E+02  0.7546771E-02  0.1647716E+00
         21   -1    0    0  503  502  0.00000000000E+00  0.00000000000E+00  0.52745291682E+01  0.52745291682E+01  0.00000000000E+00 0.  1.
         21   -1    0    0  501  503 -0.00000000000E+00 -0.00000000000E+00 -0.20450602163E+03  0.20450602163E+03  0.00000000000E+00 0. -1.
          2    1    1    2  501    0  0.86498014729E+01  0.24466264862E+02 -0.16390745119E+03  0.16594899740E+03  0.00000000000E+00 0.  1.
         -2    1    1    2    0  502 -0.86498014729E+01 -0.24466264862E+02 -0.35324041278E+02  0.43831553406E+02  0.00000000000E+00 0. -1.
<mgrwt>
<rscale>  2 0.25950283E+02</rscale>
<asrwt>0</asrwt>
<pdfrwt beam="1">  1       21 0.81146595E-03 0.25950283E+02</pdfrwt>
<pdfrwt beam="2">  1       21 0.31462468E-01 0.25950283E+02</pdfrwt>
<totfact> 0.38553203E+07</totfact>
</mgrwt>
</event>
<event>
 4    1  0.2821610E+004  0.2488068E+02  0.7546771E-02  0.1662722E+00
         21   -1    0    0  503  502  0.00000000000E+00  0.00000000000E+00  0.44157931928E+03  0.44157931928E+03  0.00000000000E+00 0. -1.
         21   -1    0    0  501  503 -0.00000000000E+00 -0.00000000000E+00 -0.20235352416E+01  0.20235352416E+01  0.00000000000E+00 0.  1.
          2    1    1    2  501    0  0.23526454844E+02 -0.80965457843E+01  0.96842117967E+02  0.99987218901E+02  0.00000000000E+00 0.  1.
         -2    1    1    2    0  502 -0.23526454844E+02  0.80965457843E+01  0.34271366607E+03  0.34361563562E+03  0.00000000000E+00 0. -1.
<mgrwt>
<rscale>  2 0.24880678E+02</rscale>
<asrwt>0</asrwt>
<pdfrwt beam="1">  1       21 0.67935203E-01 0.24880678E+02</pdfrwt>
<pdfrwt beam="2">  1       21 0.31131346E-03 0.24880678E+02</pdfrwt>
<totfact> 0.35600805E+07</totfact>
</mgrwt>
</event>
<event>
 4    1  0.2821610E+004  0.2497845E+02  0.7546771E-02  0.1661312E+00
         21   -1    0    0  501  502  0.00000000000E+00  0.00000000000E+00  0.34470072244E+03  0.34470072244E+03  0.00000000000E+00 0.  1.
         21   -1    0    0  502  503 -0.00000000000E+00 -0.00000000000E+00 -0.75082663317E+01  0.75082663317E+01  0.00000000000E+00 0. -1.
          2    1    1    2  501    0  0.23946974229E+02 -0.71039129715E+01  0.32201211517E+03  0.32297945054E+03  0.00000000000E+00 0.  1.
         -2    1    1    2    0  503 -0.23946974229E+02  0.71039129715E+01  0.15180340937E+02  0.29229538231E+02  0.00000000000E+00 0. -1.
<mgrwt>
<rscale>  2 0.24978454E+02</rscale>
<asrwt>0</asrwt>
<pdfrwt beam="1">  1       21 0.53030868E-01 0.24978454E+02</pdfrwt>
<pdfrwt beam="2">  1       21 0.11551182E-02 0.24978454E+02</pdfrwt>
<totfact> 0.83432279E+06</totfact>
</mgrwt>
</event>
<event>
 4    1  0.2821610E+004  0.2809728E+02  0.7546771E-02  0.1620126E+00
         21   -1    0    0  503  502  0.00000000000E+00  0.00000000000E+00  0.33735405342E+01  0.33735405342E+01  0.00000000000E+00 0.  1.
         21   -1    0    0  501  503 -0.00000000000E+00 -0.00000000000E+00 -0.45112198273E+03  0.45112198273E+03  0.00000000000E+00 0. -1.
          2    1    1    2  501    0  0.26253990527E+02  0.10009242752E+02 -0.38152283116E+03  0.38255604512E+03  0.00000000000E+00 0. -1.
         -2    1    1    2    0  502 -0.26253990527E+02 -0.10009242752E+02 -0.66225611037E+02  0.71939478148E+02  0.00000000000E+00 0.  1.
<mgrwt>
<rscale>  2 0.28097277E+02</rscale>
<asrwt>0</asrwt>
<pdfrwt beam="1">  1       21 0.51900630E-03 0.28097277E+02</pdfrwt>
<pdfrwt beam="2">  1       21 0.69403374E-01 0.28097277E+02</pdfrwt>
<totfact> 0.16407214E+07</totfact>
</mgrwt>
</event>
<event>
 4    1  0.2821610E+004  0.3340819E+02  0.7546771E-02  0.1563208E+00
         21   -1    0    0  503  502  0.00000000000E+00  0.00000000000E+00  0.25884717737E+01  0.25884717737E+01  0.00000000000E+00 0. -1.
         21   -1    0    0  501  503 -0.00000000000E+00 -0.00000000000E+00 -0.50069905691E+03  0.50069905691E+03  0.00000000000E+00 0.  1.
          2    1    1    2  501    0 -0.14865200620E+02 -0.29918774298E+02 -0.34281962637E+03  0.34444361436E+03  0.00000000000E+00 0.  1.
         -2    1    1    2    0  502  0.14865200620E+02  0.29918774298E+02 -0.15529095877E+03  0.15884391433E+03  0.00000000000E+00 0. -1.
<mgrwt>
<rscale>  2 0.33408191E+02</rscale>
<asrwt>0</asrwt>
<pdfrwt beam="1">  1       21 0.39822593E-03 0.33408191E+02</pdfrwt>
<pdfrwt beam="2">  1       21 0.77030720E-01 0.33408191E+02</pdfrwt>
<totfact> 0.20104664E+07</totfact>
</mgrwt>
</event>
<event>
 4    1  0.2821610E+004  0.2299623E+02  0.7546771E-02  0.1691571E+00
         21   -1    0    0  503  502  0.00000000000E+00  0.00000000000E+00  0.82863417834E+01  0.82863417834E+01  0.00000000000E+00 0.  1.
         21   -1    0    0  501  503 -0.00000000000E+00 -0.00000000000E+00 -0.10593678063E+03  0.10593678063E+03  0.00000000000E+00 0. -1.
          2    1    1    2  501    0 -0.22213269478E+02 -0.59495415266E+01 -0.84836053043E+02  0.87897566981E+02  0.00000000000E+00 0. -1.
         -2    1    1    2    0  502  0.22213269478E+02  0.59495415266E+01 -0.12814385804E+02  0.26325555432E+02  0.00000000000E+00 0.  1.
<mgrwt>
<rscale>  2 0.22996225E+02</rscale>
<asrwt>0</asrwt>
<pdfrwt beam="1">  1       21 0.12748218E-02 0.22996225E+02</pdfrwt>
<pdfrwt beam="2">  1       21 0.16297966E-01 0.22996225E+02</pdfrwt>
<totfact> 0.60855365E+07</totfact>
</mgrwt>
</event>
<event>
 4    1  0.2821610E+004  0.2305792E+02  0.7546771E-02  0.1690573E+00
         21   -1    0    0  503  502  0.00000000000E+00  0.00000000000E+00  0.17143397747E+01  0.17143397747E+01  0.00000000000E+00 0. -1.
         21   -1    0    0  501  503 -0.00000000000E+00 -0.00000000000E+00 -0.36641378079E+03  0.36641378079E+03  0.00000000000E+00 0.  1.
          2    1    1    2  501    0 -0.23006803012E+02  0.15345685791E+01 -0.25448960204E+03  0.25553204384E+03  0.00000000000E+00 0.  1.
         -2    1    1    2    0  502  0.23006803012E+02 -0.15345685791E+01 -0.11020983897E+03  0.11259607672E+03  0.00000000000E+00 0. -1.
<mgrwt>
<rscale>  2 0.23057925E+02</rscale>
<asrwt>0</asrwt>
<pdfrwt beam="1">  1       21 0.26374410E-03 0.23057925E+02</pdfrwt>
<pdfrwt beam="2">  1       21 0.56371453E-01 0.23057925E+02</pdfrwt>
<totfact> 0.64881076E+07</totfact>
</mgrwt>
</event>
<event>
 4    1  0.2821610E+004  0.2140301E+02  0.7546771E-02  0.1718786E+00
         21   -1    0    0  503  502  0.00000000000E+00  0.00000000000E+00  0.75309909567E+02  0.75309909567E+02  0.00000000000E+00 0.  1.
         21   -1    0    0  501  503 -0.00000000000E+00 -0.00000000000E+00 -0.10856693655E+02  0.10856693655E+02  0.00000000000E+00 0. -1.
          2    1    1    2  501    0 -0.21118154986E+02  0.34803131972E+01  0.36572670964E+01  0.21713236805E+02  0.00000000000E+00 0. -1.
         -2    1    1    2    0  502  0.21118154986E+02 -0.34803131972E+01  0.60795948816E+02  0.64453366416E+02  0.00000000000E+00 0.  1.
<mgrwt>
<rscale>  2 0.21403015E+02</rscale>
<asrwt>0</asrwt>
<pdfrwt beam="1">  1       21 0.11586140E-01 0.21403015E+02</pdfrwt>
<pdfrwt beam="2">  1       21 0.16702606E-02 0.21403015E+02</pdfrwt>
<totfact> 0.70508354E+07</totfact>
</mgrwt>
</event>
<event>
 4    1  0.2821610E+004  0.3547768E+02  0.7546771E-02  0.1544399E+00
         21   -1    0    0  501  502  0.00000000000E+00  0.00000000000E+00  0.37969760082E+01  0.37969760082E+01  0.00000000000E+00 0. -1.
         21   -1    0    0  502  503 -0.00000000000E+00 -0.00000000000E+00 -0.47076007511E+03  0.47076007511E+03  0.00000000000E+00 0.  1.
          2    1    1    2  501    0  0.32664473466E+01 -0.35326986042E+02 -0.10442351519E+03  0.11028570236E+03  0.00000000000E+00 0. -1.
         -2    1    1    2    0  503 -0.32664473466E+01  0.35326986042E+02 -0.36253958391E+03  0.36427134876E+03  0.00000000000E+00 0.  1.
<mgrwt>
<rscale>  2 0.35477678E+02</rscale>
<asrwt>0</asrwt>
<pdfrwt beam="1">  1       21 0.58414983E-03 0.35477678E+02</pdfrwt>
<pdfrwt beam="2">  1       21 0.72424667E-01 0.35477678E+02</pdfrwt>
<totfact> 0.13038833E+07</totfact>
</mgrwt>
</event>
<event>
 4    1  0.2821610E+004  0.2335345E+02  0.7546771E-02  0.1685844E+00
         21   -1    0    0  503  502  0.00000000000E+00  0.00000000000E+00  0.16229772910E+02  0.16229772910E+02  0.00000000000E+00 0. -1.
         21   -1    0    0  501  503 -0.00000000000E+00 -0.00000000000E+00 -0.83923041684E+02  0.83923041684E+02  0.00000000000E+00 0.  1.
          2    1    1    2  501    0 -0.10909004954E+02 -0.20648899759E+02 -0.72622296714E+02  0.76284870259E+02  0.00000000000E+00 0.  1.
         -2    1    1    2    0  502  0.10909004954E+02  0.20648899759E+02  0.49290279406E+01  0.23867944335E+02  0.00000000000E+00 0. -1.
<mgrwt>
<rscale>  2 0.23353446E+02</rscale>
<asrwt>0</asrwt>
<pdfrwt beam="1">  1       21 0.24968882E-02 0.23353446E+02</pdfrwt>
<pdfrwt beam="2">  1       21 0.12911237E-01 0.23353446E+02</pdfrwt>
<totfact> 0.32462685E+07</totfact>
</mgrwt>
</event>
<event>
 4    1  0.2821610E+004  0.2032470E+02  0.7546771E-02  0.1738947E+00
         21   -1    0    0  503  502  0.00000000000E+00  0.00000000000E+00  0.14906543231E+04  0.14906543231E+04  0.00000000000E+00 0. -1.
         21   -1    0    0  501  503 -0.00000000000E+00 -0.00000000000E+00 -0.36611093197E+00  0.36611093197E+00  0.00000000000E+00 0.  1.
          2    1    1    2  501    0  0.19718046100E+02 -0.49287051061E+01  0.37759561436E+03  0.37814222385E+03  0.00000000000E+00 0.  1.
         -2    1    1    2    0  502 -0.19718046100E+02  0.49287051061E+01  0.11126925978E+04  0.11128782101E+04  0.00000000000E+00 0. -1.
<mgrwt>
<rscale>  2 0.20324701E+02</rscale>
<asrwt>0</asrwt>
<pdfrwt beam="1">  1       21 0.22932657E+00 0.20324701E+02</pdfrwt>
<pdfrwt beam="2">  1       21 0.56325952E-04 0.20324701E+02</pdfrwt>
<totfact> 0.24016849E+07</totfact>
</mgrwt>
</event>
<event>
 4    1  0.2821610E+004  0.3076480E+02  0.7546771E-02  0.1589785E+00
         21   -1    0    0  501  502  0.00000000000E+00  0.00000000000E+00  0.18327039537E+01  0.18327039537E+01  0.00000000000E+00 0. -1.
         21   -1    0    0  502  503 -0.00000000000E+00 -0.00000000000E+00 -0.74358112518E+03  0.74358112518E+03  0.00000000000E+00 0.  1.
          2    1    1    2  501    0  0.18905442362E+02 -0.24270503368E+02 -0.16487971524E+03  0.16772535164E+03  0.00000000000E+00 0. -1.
         -2    1    1    2    0  503 -0.18905442362E+02  0.24270503368E+02 -0.57686870598E+03  0.57768847749E+03  0.00000000000E+00 0.  1.
<mgrwt>
<rscale>  2 0.30764803E+02</rscale>
<asrwt>0</asrwt>
<pdfrwt beam="1">  1       21 0.28195418E-03 0.30764803E+02</pdfrwt>
<pdfrwt beam="2">  1       21 0.11439721E+00 0.30764803E+02</pdfrwt>
<totfact> 0.13886895E+07</totfact>
</mgrwt>
</event>
<event>
 4    1  0.2821610E+004  0.3115723E+02  0.7546771E-02  0.1585638E+00
         21   -1    0    0  503  502  0.00000000000E+00  0.00000000000E+00  0.38267364476E+02  0.38267364476E+02  0.00000000000E+00 0.  1.
         21   -1    0    0  501  503 -0.00000000000E+00 -0.00000000000E+00 -0.34251778144E+03  0.34251778144E+03  0.00000000000E+00 0. -1.
          2    1    1    2  501    0 -0.91853663090E+01  0.29772509406E+02 -0.33533156122E+03  0.33677593326E+03  0.00000000000E+00 0. -1.
         -2    1    1    2    0  502  0.91853663090E+01 -0.29772509406E+02  0.31081144257E+02  0.44009212659E+02  0.00000000000E+00 0.  1.
<mgrwt>
<rscale>  2 0.31157235E+02</rscale>
<asrwt>0</asrwt>
<pdfrwt beam="1">  1       21 0.58872866E-02 0.31157235E+02</pdfrwt>
<pdfrwt beam="2">  1       21 0.52695045E-01 0.31157235E+02</pdfrwt>
<totfact> 0.67903111E+05</totfact>
</mgrwt>
</event>
<event>
 4    1  0.2821610E+004  0.2488875E+02  0.7546771E-02  0.1662605E+00
         21   -1    0    0  501  502  0.00000000000E+00  0.00000000000E+00  0.26878860786E+02  0.26878860786E+02  0.00000000000E+00 0. -1.
         21   -1    0    0  502  503 -0.00000000000E+00 -0.00000000000E+00 -0.36555403849E+02  0.36555403849E+02  0.00000000000E+00 0.  1.
          2    1    1    2  501    0 -0.23599896305E+02  0.79053530072E+01  0.14443037730E+02  0.28775876193E+02  0.00000000000E+00 0. -1.
         -2    1    1    2    0  503  0.23599896305E+02 -0.79053530072E+01 -0.24119580793E+02  0.34658388443E+02  0.00000000000E+00 0.  1.
<mgrwt>
<rscale>  2 0.24888747E+02</rscale>
<asrwt>0</asrwt>
<pdfrwt beam="1">  1       21 0.41352093E-02 0.24888747E+02</pdfrwt>
<pdfrwt beam="2">  1       21 0.56239083E-02 0.24888747E+02</pdfrwt>
<totfact> 0.58642381E+07</totfact>
</mgrwt>
</event>
<event>
 4    1  0.2821610E+004  0.3837285E+02  0.7546771E-02  0.1520539E+00
         21   -1    0    0  501  502  0.00000000000E+00  0.00000000000E+00  0.73866365642E+01  0.73866365642E+01  0.00000000000E+00 0. -1.
         21   -1    0    0  502  503 -0.00000000000E+00 -0.00000000000E+00 -0.96209463829E+03  0.96209463829E+03  0.00000000000E+00 0.  1.
          2    1    1    2  501    0 -0.35826149547E+02  0.13746369588E+02 -0.45743448647E+02  0.59707108140E+02  0.00000000000E+00 0. -1.
         -2    1    1    2    0  503  0.35826149547E+02 -0.13746369588E+02 -0.90896455308E+03  0.90977416672E+03  0.00000000000E+00 0.  1.
<mgrwt>
<rscale>  2 0.38372851E+02</rscale>
<asrwt>0</asrwt>
<pdfrwt beam="1">  1       21 0.11364069E-02 0.38372851E+02</pdfrwt>
<pdfrwt beam="2">  1       21 0.14801440E+00 0.38372851E+02</pdfrwt>
<totfact> 0.95496567E+05</totfact>
</mgrwt>
</event>
<event>
 4    1  0.2821610E+004  0.2028708E+02  0.7546771E-02  0.1739679E+00
         21   -1    0    0  501  502  0.00000000000E+00  0.00000000000E+00  0.18859393811E+03  0.18859393811E+03  0.00000000000E+00 0.  1.
         21   -1    0    0  502  503 -0.00000000000E+00 -0.00000000000E+00 -0.30263448670E+01  0.30263448670E+01  0.00000000000E+00 0. -1.
          2    1    1    2  501    0  0.21781019611E+01  0.20169814488E+02  0.14338247124E+03  0.14481056109E+03  0.00000000000E+00 0.  1.
         -2    1    1    2    0  503 -0.21781019611E+01 -0.20169814488E+02  0.42185122005E+02  0.46809721887E+02  0.00000000000E+00 0. -1.
<mgrwt>
<rscale>  2 0.20287078E+02</rscale>
<asrwt>0</asrwt>
<pdfrwt beam="1">  1       21 0.29014443E-01 0.20287078E+02</pdfrwt>
<pdfrwt beam="2">  1       21 0.46559166E-03 0.20287078E+02</pdfrwt>
<totfact> 0.95731599E+07</totfact>
</mgrwt>
</event>
<event>
 4    1  0.2821610E+004  0.4042858E+02  0.7546771E-02  0.1505081E+00
         21   -1    0    0  501  502  0.00000000000E+00  0.00000000000E+00  0.73591247453E+02  0.73591247453E+02  0.00000000000E+00 0. -1.
         21   -1    0    0  502  503 -0.00000000000E+00 -0.00000000000E+00 -0.39110475017E+02  0.39110475017E+02  0.00000000000E+00 0.  1.
          2    1    1    2  501    0 -0.39897831523E+02  0.65294311097E+01  0.54283025925E+02  0.67683951823E+02  0.00000000000E+00 0. -1.
         -2    1    1    2    0  503  0.39897831523E+02 -0.65294311097E+01 -0.19802253489E+02  0.45017770648E+02  0.00000000000E+00 0.  1.
<mgrwt>
<rscale>  2 0.40428584E+02</rscale>
<asrwt>0</asrwt>
<pdfrwt beam="1">  1       21 0.11321730E-01 0.40428584E+02</pdfrwt>
<pdfrwt beam="2">  1       21 0.60169962E-02 0.40428584E+02</pdfrwt>
<totfact> 0.11070045E+07</totfact>
</mgrwt>
</event>
<event>
 4    1  0.2821610E+004  0.2143933E+02  0.7546771E-02  0.1718133E+00
         21   -1    0    0  501  502  0.00000000000E+00  0.00000000000E+00  0.11324567195E+02  0.11324567195E+02  0.00000000000E+00 0. -1.
         21   -1    0    0  502  503 -0.00000000000E+00 -0.00000000000E+00 -0.50866026069E+02  0.50866026069E+02  0.00000000000E+00 0.  1.
          2    1    1    2  501    0  0.18049782728E+02  0.11569358463E+02 -0.57932221649E+01  0.22208244749E+02  0.00000000000E+00 0. -1.
         -2    1    1    2    0  503 -0.18049782728E+02 -0.11569358463E+02 -0.33748236710E+02  0.39982348515E+02  0.00000000000E+00 0.  1.
<mgrwt>
<rscale>  2 0.21439326E+02</rscale>
<asrwt>0</asrwt>
<pdfrwt beam="1">  1       21 0.17422411E-02 0.21439326E+02</pdfrwt>
<pdfrwt beam="2">  1       21 0.78255424E-02 0.21439326E+02</pdfrwt>
<totfact> 0.12612517E+08</totfact>
</mgrwt>
</event>
<event>
 4    1  0.2821610E+004  0.2224499E+02  0.7546771E-02  0.1704049E+00
         21   -1    0    0  503  502  0.00000000000E+00  0.00000000000E+00  0.48628536207E+03  0.48628536207E+03  0.00000000000E+00 0.  1.
         21   -1    0    0  501  503 -0.00000000000E+00 -0.00000000000E+00 -0.27856824217E+01  0.27856824217E+01  0.00000000000E+00 0. -1.
          2    1    1    2  501    0  0.22243497020E+02  0.25756869724E+00  0.46932082732E+02  0.51937076264E+02  0.00000000000E+00 0. -1.
         -2    1    1    2    0  502 -0.22243497020E+02 -0.25756869724E+00  0.43656759691E+03  0.43713396822E+03  0.00000000000E+00 0.  1.
<mgrwt>
<rscale>  2 0.22244988E+02</rscale>
<asrwt>0</asrwt>
<pdfrwt beam="1">  1       21 0.74813065E-01 0.22244988E+02</pdfrwt>
<pdfrwt beam="2">  1       21 0.42856691E-03 0.22244988E+02</pdfrwt>
<totfact> 0.17866911E+07</totfact>
</mgrwt>
</event>
<event>
 4    1  0.2821610E+004  0.2135339E+02  0.7546771E-02  0.1719681E+00
         21   -1    0    0  503  502  0.00000000000E+00  0.00000000000E+00  0.17874173391E+04  0.17874173391E+04  0.00000000000E+00 0.  1.
         21   -1    0    0  501  503 -0.00000000000E+00 -0.00000000000E+00 -0.41277606576E+00  0.41277606576E+00  0.00000000000E+00 0. -1.
          2    1    1    2  501    0  0.21306555586E+02 -0.14134815178E+01  0.34101264217E+03  0.34168053699E+03  0.00000000000E+00 0. -1.
         -2    1    1    2    0  502 -0.21306555586E+02  0.14134815178E+01  0.14459919209E+04  0.14461495782E+04  0.00000000000E+00 0.  1.
<mgrwt>
<rscale>  2 0.21353389E+02</rscale>
<asrwt>0</asrwt>
<pdfrwt beam="1">  1       21 0.27498109E+00 0.21353389E+02</pdfrwt>
<pdfrwt beam="2">  1       21 0.63505441E-04 0.21353389E+02</pdfrwt>
<totfact> 0.12164362E+07</totfact>
</mgrwt>
</event>
<event>
 4    1  0.2821610E+004  0.3430583E+02  0.7546771E-02  0.1554853E+00
         21   -1    0    0  503  502  0.00000000000E+00  0.00000000000E+00  0.19996751035E+03  0.19996751035E+03  0.00000000000E+00 0.  1.
         21   -1    0    0  501  503 -0.00000000000E+00 -0.00000000000E+00 -0.96701928575E+01  0.96701928575E+01  0.00000000000E+00 0. -1.
          2    1    1    2  501    0 -0.32904113928E+02 -0.97061287127E+01  0.29573003364E+02  0.45292959452E+02  0.00000000000E+00 0. -1.
         -2    1    1    2    0  502  0.32904113928E+02  0.97061287127E+01  0.16072431413E+03  0.16434474376E+03  0.00000000000E+00 0.  1.
<mgrwt>
<rscale>  2 0.34305825E+02</rscale>
<asrwt>0</asrwt>
<pdfrwt beam="1">  1       21 0.30764229E-01 0.34305825E+02</pdfrwt>
<pdfrwt beam="2">  1       21 0.14877221E-02 0.34305825E+02</pdfrwt>
<totfact> 0.16863267E+07</totfact>
</mgrwt>
</event>
<event>
 4    1  0.2821610E+004  0.2272294E+02  0.7546771E-02  0.1696041E+00
         21   -1    0    0  501  502  0.00000000000E+00  0.00000000000E+00  0.37384549720E+01  0.37384549720E+01  0.00000000000E+00 0.  1.
         21   -1    0    0  502  503 -0.00000000000E+00 -0.00000000000E+00 -0.14123902511E+03  0.14123902511E+03  0.00000000000E+00 0. -1.
          2    1    1    2  501    0  0.16184399309E+02  0.15949833261E+02 -0.57967307917E+02  0.62261872355E+02  0.00000000000E+00 0.  1.
         -2    1    1    2    0  503 -0.16184399309E+02 -0.15949833261E+02 -0.79533262221E+02  0.82715607726E+02  0.00000000000E+00 0. -1.
<mgrwt>
<rscale>  2 0.22722939E+02</rscale>
<asrwt>0</asrwt>
<pdfrwt beam="1">  1       21 0.57514709E-03 0.22722939E+02</pdfrwt>
<pdfrwt beam="2">  1       21 0.21729074E-01 0.22722939E+02</pdfrwt>
<totfact> 0.12108636E+08</totfact>
</mgrwt>
</event>
<event>
 4    1  0.2821610E+004  0.2215494E+02  0.7546771E-02  0.1705586E+00
         21   -1    0    0  503  502  0.00000000000E+00  0.00000000000E+00  0.14352882061E+01  0.14352882061E+01  0.00000000000E+00 0.  1.
         21   -1    0    0  501  503 -0.00000000000E+00 -0.00000000000E+00 -0.78972131630E+03  0.78972131630E+03  0.00000000000E+00 0. -1.
          2    1    1    2  501    0  0.94098422751E+01  0.20057325784E+02 -0.69200054211E+03  0.69235510522E+03  0.00000000000E+00 0. -1.
         -2    1    1    2    0  502 -0.94098422751E+01 -0.20057325784E+02 -0.96285485987E+02  0.98801499285E+02  0.00000000000E+00 0.  1.
<mgrwt>
<rscale>  2 0.22154942E+02</rscale>
<asrwt>0</asrwt>
<pdfrwt beam="1">  1       21 0.22081381E-03 0.22154942E+02</pdfrwt>
<pdfrwt beam="2">  1       21 0.12149545E+00 0.22154942E+02</pdfrwt>
<totfact> 0.16418749E+07</totfact>
</mgrwt>
</event>
<event>
 4    1  0.2821610E+004  0.3705450E+02  0.7546771E-02  0.1531078E+00
         21   -1    0    0  503  502  0.00000000000E+00  0.00000000000E+00  0.41816757589E+01  0.41816757589E+01  0.00000000000E+00 0.  1.
         21   -1    0    0  501  503 -0.00000000000E+00 -0.00000000000E+00 -0.33063324501E+03  0.33063324501E+03  0.00000000000E+00 0. -1.
          2    1    1    2  501    0  0.30129859650E+02 -0.21569128201E+02 -0.14930141692E+03  0.15383090986E+03  0.00000000000E+00 0.  1.
         -2    1    1    2    0  502 -0.30129859650E+02  0.21569128201E+02 -0.17715015233E+03  0.18098401091E+03  0.00000000000E+00 0. -1.
<mgrwt>
<rscale>  2 0.37054497E+02</rscale>
<asrwt>0</asrwt>
<pdfrwt beam="1">  1       21 0.64333480E-03 0.37054497E+02</pdfrwt>
<pdfrwt beam="2">  1       21 0.50866648E-01 0.37054497E+02</pdfrwt>
<totfact> 0.23345208E+07</totfact>
</mgrwt>
</event>
<event>
 4    1  0.2821610E+004  0.2433171E+02  0.7546771E-02  0.1670791E+00
         21   -1    0    0  503  502  0.00000000000E+00  0.00000000000E+00  0.18186006282E+03  0.18186006282E+03  0.00000000000E+00 0. -1.
         21   -1    0    0  501  503 -0.00000000000E+00 -0.00000000000E+00 -0.61961537240E+01  0.61961537240E+01  0.00000000000E+00 0.  1.
          2    1    1    2  501    0  0.81242782648E+01 -0.22935303914E+02  0.23054484856E+02  0.33519268114E+02  0.00000000000E+00 0.  1.
         -2    1    1    2    0  502 -0.81242782648E+01  0.22935303914E+02  0.15260942424E+03  0.15453694843E+03  0.00000000000E+00 0. -1.
<mgrwt>
<rscale>  2 0.24331709E+02</rscale>
<asrwt>0</asrwt>
<pdfrwt beam="1">  1       21 0.27978467E-01 0.24331709E+02</pdfrwt>
<pdfrwt beam="2">  1       21 0.95325456E-03 0.24331709E+02</pdfrwt>
<totfact> 0.36975817E+07</totfact>
</mgrwt>
</event>
<event>
 4    1  0.2821610E+004  0.2361203E+02  0.7546771E-02  0.1681777E+00
         21   -1    0    0  503  502  0.00000000000E+00  0.00000000000E+00  0.11773731797E+03  0.11773731797E+03  0.00000000000E+00 0.  1.
         21   -1    0    0  501  503 -0.00000000000E+00 -0.00000000000E+00 -0.48446064548E+01  0.48446064548E+01  0.00000000000E+00 0. -1.
          2    1    1    2  501    0  0.20578175305E+02  0.11578719451E+02  0.47242283254E+02  0.52814404949E+02  0.00000000000E+00 0. -1.
         -2    1    1    2    0  502 -0.20578175305E+02 -0.11578719451E+02  0.65650428263E+02  0.69767519478E+02  0.00000000000E+00 0.  1.
<mgrwt>
<rscale>  2 0.23612032E+02</rscale>
<asrwt>0</asrwt>
<pdfrwt beam="1">  1       21 0.18113431E-01 0.23612032E+02</pdfrwt>
<pdfrwt beam="2">  1       21 0.74532416E-03 0.23612032E+02</pdfrwt>
<totfact> 0.11440827E+08</totfact>
</mgrwt>
</event>
<event>
 4    1  0.2821610E+004  0.2602940E+02  0.7546771E-02  0.1646642E+00
         21   -1    0    0  503  502  0.00000000000E+00  0.00000000000E+00  0.40647993807E+02  0.40647993807E+02  0.00000000000E+00 0.  1.
         21   -1    0    0  501  503 -0.00000000000E+00 -0.00000000000E+00 -0.58213011009E+02  0.58213011009E+02  0.00000000000E+00 0. -1.
          2    1    1    2  501    0 -0.25380296212E+02  0.57767184798E+01 -0.50540851426E+02  0.56849868733E+02  0.00000000000E+00 0. -1.
         -2    1    1    2    0  502  0.25380296212E+02 -0.57767184798E+01  0.32975834224E+02  0.42011136082E+02  0.00000000000E+00 0.  1.
<mgrwt>
<rscale>  2 0.26029405E+02</rscale>
<asrwt>0</asrwt>
<pdfrwt beam="1">  1       21 0.62535375E-02 0.26029405E+02</pdfrwt>
<pdfrwt beam="2">  1       21 0.89558478E-02 0.26029405E+02</pdfrwt>
<totfact> 0.14327670E+07</totfact>
</mgrwt>
</event>
<event>
 4    1  0.2821610E+004  0.8876399E+02  0.7546771E-02  0.1305873E+00
         21   -1    0    0  503  502  0.00000000000E+00  0.00000000000E+00  0.34269290578E+03  0.34269290578E+03  0.00000000000E+00 0.  1.
         21   -1    0    0  501  503 -0.00000000000E+00 -0.00000000000E+00 -0.27718384252E+02  0.27718384252E+02  0.00000000000E+00 0. -1.
          2    1    1    2  501    0  0.50468877487E+02 -0.73020127876E+02  0.81006059337E+02  0.12017082974E+03  0.00000000000E+00 0. -1.
         -2    1    1    2    0  502 -0.50468877487E+02  0.73020127876E+02  0.23396846219E+03  0.25024046030E+03  0.00000000000E+00 0.  1.
<mgrwt>
<rscale>  2 0.88763994E+02</rscale>
<asrwt>0</asrwt>
<pdfrwt beam="1">  1       21 0.52721983E-01 0.88763994E+02</pdfrwt>
<pdfrwt beam="2">  1       21 0.42643670E-02 0.88763994E+02</pdfrwt>
<totfact> 0.11940448E+06</totfact>
</mgrwt>
</event>
<event>
 4    1  0.2821610E+004  0.3568890E+02  0.7546771E-02  0.1542567E+00
         21   -1    0    0  503  502  0.00000000000E+00  0.00000000000E+00  0.48930985790E+02  0.48930985790E+02  0.00000000000E+00 0.  1.
         21   -1    0    0  501  503 -0.00000000000E+00 -0.00000000000E+00 -0.12391546507E+03  0.12391546507E+03  0.00000000000E+00 0. -1.
          2    1    1    2  501    0  0.99078118397E+01 -0.34286040933E+02 -0.11430365035E+03  0.11974565471E+03  0.00000000000E+00 0. -1.
         -2    1    1    2    0  502 -0.99078118397E+01  0.34286040933E+02  0.39319171069E+02  0.53100796151E+02  0.00000000000E+00 0.  1.
<mgrwt>
<rscale>  2 0.35688897E+02</rscale>
<asrwt>0</asrwt>
<pdfrwt beam="1">  1       21 0.75278440E-02 0.35688897E+02</pdfrwt>
<pdfrwt beam="2">  1       21 0.19063918E-01 0.35688897E+02</pdfrwt>
<totfact> 0.30546900E+06</totfact>
</mgrwt>
</event>
<event>
 4    1  0.2821610E+004  0.2102186E+02  0.7546771E-02  0.1725739E+00
         21   -1    0    0  503  502  0.00000000000E+00  0.00000000000E+00  0.26929754154E+02  0.26929754154E+02  0.00000000000E+00 0. -1.
         21   -1    0    0  501  503 -0.00000000000E+00 -0.00000000000E+00 -0.22290496414E+02  0.22290496414E+02  0.00000000000E+00 0.  1.
          2    1    1    2  501    0 -0.11757823420E+02  0.17426192075E+02 -0.10320722441E+02  0.23418708195E+02  0.00000000000E+00 0.  1.
         -2    1    1    2    0  502  0.11757823420E+02 -0.17426192075E+02  0.14959980181E+02  0.25801542373E+02  0.00000000000E+00 0. -1.
<mgrwt>
<rscale>  2 0.21021860E+02</rscale>
<asrwt>0</asrwt>
<pdfrwt beam="1">  1       21 0.41430391E-02 0.21021860E+02</pdfrwt>
<pdfrwt beam="2">  1       21 0.34293071E-02 0.21021860E+02</pdfrwt>
<totfact> 0.12197578E+08</totfact>
</mgrwt>
</event>
<event>
 4    1  0.2821610E+004  0.3584867E+02  0.7546771E-02  0.1541191E+00
         21   -1    0    0  503  502  0.00000000000E+00  0.00000000000E+00  0.11492010197E+02  0.11492010197E+02  0.00000000000E+00 0.  1.
         21   -1    0    0  501  503 -0.00000000000E+00 -0.00000000000E+00 -0.19742956919E+03  0.19742956919E+03  0.00000000000E+00 0. -1.
          2    1    1    2  501    0  0.95338779490E+01  0.34557666627E+02 -0.16175292872E+03  0.16567781113E+03  0.00000000000E+00 0. -1.
         -2    1    1    2    0  502 -0.95338779490E+01 -0.34557666627E+02 -0.24184630270E+02  0.43243768253E+02  0.00000000000E+00 0.  1.
<mgrwt>
<rscale>  2 0.35848670E+02</rscale>
<asrwt>0</asrwt>
<pdfrwt beam="1">  1       21 0.17680016E-02 0.35848670E+02</pdfrwt>
<pdfrwt beam="2">  1       21 0.30373779E-01 0.35848670E+02</pdfrwt>
<totfact> 0.13315426E+07</totfact>
</mgrwt>
</event>
<event>
 4    1  0.2821610E+004  0.3028267E+02  0.7546771E-02  0.1594985E+00
         21   -1    0    0  501  502  0.00000000000E+00  0.00000000000E+00  0.78755225263E+00  0.78755225263E+00  0.00000000000E+00 0. -1.
         21   -1    0    0  502  503 -0.00000000000E+00 -0.00000000000E+00 -0.12205379997E+04  0.12205379997E+04  0.00000000000E+00 0.  1.
          2    1    1    2  501    0  0.15962478316E+02  0.25734015415E+02 -0.74081856660E+03  0.74143724541E+03  0.00000000000E+00 0.  1.
         -2    1    1    2    0  503 -0.15962478316E+02 -0.25734015415E+02 -0.47893188083E+03  0.47988830653E+03  0.00000000000E+00 0. -1.
<mgrwt>
<rscale>  2 0.30282673E+02</rscale>
<asrwt>0</asrwt>
<pdfrwt beam="1">  1       21 0.12116060E-03 0.30282673E+02</pdfrwt>
<pdfrwt beam="2">  1       21 0.18777706E+00 0.30282673E+02</pdfrwt>
<totfact> 0.14356893E+07</totfact>
</mgrwt>
</event>
<event>
 4    1  0.2821610E+004  0.2828409E+02  0.7546771E-02  0.1617869E+00
         21   -1    0    0  503  502  0.00000000000E+00  0.00000000000E+00  0.46209329599E+01  0.46209329599E+01  0.00000000000E+00 0. -1.
         21   -1    0    0  501  503 -0.00000000000E+00 -0.00000000000E+00 -0.19848636342E+03  0.19848636342E+03  0.00000000000E+00 0.  1.
          2    1    1    2  501    0 -0.25585940295E+02 -0.12056083898E+02 -0.13323501408E+03  0.13620410595E+03  0.00000000000E+00 0.  1.
         -2    1    1    2    0  502  0.25585940295E+02  0.12056083898E+02 -0.60630416378E+02  0.66903190432E+02  0.00000000000E+00 0. -1.
<mgrwt>
<rscale>  2 0.28284086E+02</rscale>
<asrwt>0</asrwt>
<pdfrwt beam="1">  1       21 0.71091275E-03 0.28284086E+02</pdfrwt>
<pdfrwt beam="2">  1       21 0.30536364E-01 0.28284086E+02</pdfrwt>
<totfact> 0.50605606E+07</totfact>
</mgrwt>
</event>
<event>
 4    1  0.2821610E+004  0.2194459E+02  0.7546771E-02  0.1709212E+00
         21   -1    0    0  501  502  0.00000000000E+00  0.00000000000E+00  0.12242903542E+03  0.12242903542E+03  0.00000000000E+00 0. -1.
         21   -1    0    0  502  503 -0.00000000000E+00 -0.00000000000E+00 -0.56514234361E+01  0.56514234361E+01  0.00000000000E+00 0.  1.
          2    1    1    2  501    0  0.21901669147E+02  0.13718382977E+01  0.93697831052E+02  0.96233302944E+02  0.00000000000E+00 0. -1.
         -2    1    1    2    0  503 -0.21901669147E+02 -0.13718382977E+01  0.23079780930E+02  0.31847155910E+02  0.00000000000E+00 0.  1.
<mgrwt>
<rscale>  2 0.21944590E+02</rscale>
<asrwt>0</asrwt>
<pdfrwt beam="1">  1       21 0.18835234E-01 0.21944590E+02</pdfrwt>
<pdfrwt beam="2">  1       21 0.86944985E-03 0.21944590E+02</pdfrwt>
<totfact> 0.83254384E+07</totfact>
</mgrwt>
</event>
<event>
 4    1  0.2821610E+004  0.2153847E+02  0.7546771E-02  0.1716358E+00
         21   -1    0    0  501  502  0.00000000000E+00  0.00000000000E+00  0.93940738123E+02  0.93940738123E+02  0.00000000000E+00 0.  1.
         21   -1    0    0  502  503 -0.00000000000E+00 -0.00000000000E+00 -0.52691967527E+01  0.52691967527E+01  0.00000000000E+00 0. -1.
          2    1    1    2  501    0 -0.15879480700E+02  0.14551561141E+02  0.56766916076E+02  0.60715637192E+02  0.00000000000E+00 0.  1.
         -2    1    1    2    0  503  0.15879480700E+02 -0.14551561141E+02  0.31904625295E+02  0.38494297683E+02  0.00000000000E+00 0. -1.
<mgrwt>
<rscale>  2 0.21538473E+02</rscale>
<asrwt>0</asrwt>
<pdfrwt beam="1">  1       21 0.14452420E-01 0.21538473E+02</pdfrwt>
<pdfrwt beam="2">  1       21 0.81064572E-03 0.21538473E+02</pdfrwt>
<totfact> 0.14466009E+08</totfact>
</mgrwt>
</event>
<event>
 4    1  0.2821610E+004  0.3336446E+02  0.7546771E-02  0.1563623E+00
         21   -1    0    0  501  502  0.00000000000E+00  0.00000000000E+00  0.40523938886E+03  0.40523938886E+03  0.00000000000E+00 0.  1.
         21   -1    0    0  502  503 -0.00000000000E+00 -0.00000000000E+00 -0.28151583691E+01  0.28151583691E+01  0.00000000000E+00 0. -1.
          2    1    1    2  501    0 -0.21789527627E+02  0.25266645443E+02  0.16946229058E+03  0.17271553148E+03  0.00000000000E+00 0. -1.
         -2    1    1    2    0  503  0.21789527627E+02 -0.25266645443E+02  0.23296193991E+03  0.23533901575E+03  0.00000000000E+00 0.  1.
<mgrwt>
<rscale>  2 0.33364455E+02</rscale>
<asrwt>0</asrwt>
<pdfrwt beam="1">  1       21 0.62344475E-01 0.33364455E+02</pdfrwt>
<pdfrwt beam="2">  1       21 0.43310161E-03 0.33364455E+02</pdfrwt>
<totfact> 0.27546052E+07</totfact>
</mgrwt>
</event>
<event>
 4    1  0.2821610E+004  0.3610490E+02  0.7546771E-02  0.1539002E+00
         21   -1    0    0  503  502  0.00000000000E+00  0.00000000000E+00  0.29120232633E+02  0.29120232633E+02  0.00000000000E+00 0.  1.
         21   -1    0    0  501  503 -0.00000000000E+00 -0.00000000000E+00 -0.29714127815E+03  0.29714127815E+03  0.00000000000E+00 0. -1.
          2    1    1    2  501    0  0.14821568649E+01 -0.36074462589E+02 -0.28435196944E+03  0.28663497024E+03  0.00000000000E+00 0. -1.
         -2    1    1    2    0  502 -0.14821568649E+01  0.36074462589E+02  0.16330923916E+02  0.39626540551E+02  0.00000000000E+00 0.  1.
<mgrwt>
<rscale>  2 0.36104898E+02</rscale>
<asrwt>0</asrwt>
<pdfrwt beam="1">  1       21 0.44800357E-02 0.36104898E+02</pdfrwt>
<pdfrwt beam="2">  1       21 0.45714044E-01 0.36104898E+02</pdfrwt>
<totfact> 0.14101418E+06</totfact>
</mgrwt>
</event>
<event>
 4    1  0.2821610E+004  0.2364630E+02  0.7546771E-02  0.1681243E+00
         21   -1    0    0  503  502  0.00000000000E+00  0.00000000000E+00  0.25953727401E+04  0.25953727401E+04  0.00000000000E+00 0. -1.
         21   -1    0    0  501  503 -0.00000000000E+00 -0.00000000000E+00 -0.22710782170E+00  0.22710782170E+00  0.00000000000E+00 0.  1.
          2    1    1    2  501    0  0.20346339199E+02  0.12048813696E+02  0.10034123911E+04  0.10036909753E+04  0.00000000000E+00 0.  1.
         -2    1    1    2    0  502 -0.20346339199E+02 -0.12048813696E+02  0.15917332413E+04  0.15919088726E+04  0.00000000000E+00 0. -1.
<mgrwt>
<rscale>  2 0.23646298E+02</rscale>
<asrwt>0</asrwt>
<pdfrwt beam="1">  1       21 0.39926436E+00 0.23646298E+02</pdfrwt>
<pdfrwt beam="2">  1       21 0.34941743E-04 0.23646298E+02</pdfrwt>
<totfact> 0.67621705E+06</totfact>
</mgrwt>
</event>
<event>
 4    1  0.2821610E+004  0.2388640E+02  0.7546771E-02  0.1677532E+00
         21   -1    0    0  503  502  0.00000000000E+00  0.00000000000E+00  0.66120292301E+03  0.66120292301E+03  0.00000000000E+00 0. -1.
         21   -1    0    0  501  503 -0.00000000000E+00 -0.00000000000E+00 -0.13696745412E+01  0.13696745412E+01  0.00000000000E+00 0.  1.
          2    1    1    2  501    0 -0.12466681845E+02  0.20375028021E+02  0.12840641934E+03  0.13060922038E+03  0.00000000000E+00 0.  1.
         -2    1    1    2    0  502  0.12466681845E+02 -0.20375028021E+02  0.53142682913E+03  0.53196337717E+03  0.00000000000E+00 0. -1.
<mgrwt>
<rscale>  2 0.23886396E+02</rscale>
<asrwt>0</asrwt>
<pdfrwt beam="1">  1       21 0.10172327E+00 0.23886396E+02</pdfrwt>
<pdfrwt beam="2">  1       21 0.21071969E-03 0.23886396E+02</pdfrwt>
<totfact> 0.26482505E+07</totfact>
</mgrwt>
</event>
<event>
 4    1  0.2821610E+004  0.3078173E+02  0.7546771E-02  0.1589605E+00
         21   -1    0    0  503  502  0.00000000000E+00  0.00000000000E+00  0.14855194998E+02  0.14855194998E+02  0.00000000000E+00 0.  1.
         21   -1    0    0  501  503 -0.00000000000E+00 -0.00000000000E+00 -0.65101674391E+02  0.65101674391E+02  0.00000000000E+00 0. -1.
          2    1    1    2  501    0 -0.18285895630E+02  0.24761687954E+02 -0.19434330334E+02  0.36403411445E+02  0.00000000000E+00 0.  1.
         -2    1    1    2    0  502  0.18285895630E+02 -0.24761687954E+02 -0.30812149059E+02  0.43553457945E+02  0.00000000000E+00 0. -1.
<mgrwt>
<rscale>  2 0.30781734E+02</rscale>
<asrwt>0</asrwt>
<pdfrwt beam="1">  1       21 0.22854146E-02 0.30781734E+02</pdfrwt>
<pdfrwt beam="2">  1       21 0.10015642E-01 0.30781734E+02</pdfrwt>
<totfact> 0.60788136E+07</totfact>
</mgrwt>
</event>
<event>
 4    1  0.2821610E+004  0.2310997E+02  0.7546771E-02  0.1689734E+00
         21   -1    0    0  501  502  0.00000000000E+00  0.00000000000E+00  0.19053434569E+02  0.19053434569E+02  0.00000000000E+00 0. -1.
         21   -1    0    0  502  503 -0.00000000000E+00 -0.00000000000E+00 -0.71450851114E+02  0.71450851114E+02  0.00000000000E+00 0.  1.
          2    1    1    2  501    0  0.17946671774E+02  0.14559800802E+02  0.90776553002E+01  0.24828907606E+02  0.00000000000E+00 0. -1.
         -2    1    1    2    0  503 -0.17946671774E+02 -0.14559800802E+02 -0.61475071845E+02  0.65675378077E+02  0.00000000000E+00 0.  1.
<mgrwt>
<rscale>  2 0.23109972E+02</rscale>
<asrwt>0</asrwt>
<pdfrwt beam="1">  1       21 0.29312976E-02 0.23109972E+02</pdfrwt>
<pdfrwt beam="2">  1       21 0.10992439E-01 0.23109972E+02</pdfrwt>
<totfact> 0.33051375E+07</totfact>
</mgrwt>
</event>
<event>
 4    1  0.2821610E+004  0.2126747E+02  0.7546771E-02  0.1721238E+00
         21   -1    0    0  501  502  0.00000000000E+00  0.00000000000E+00  0.23266810843E+03  0.23266810843E+03  0.00000000000E+00 0. -1.
         21   -1    0    0  502  503 -0.00000000000E+00 -0.00000000000E+00 -0.55896556251E+01  0.55896556251E+01  0.00000000000E+00 0.  1.
          2    1    1    2  501    0  0.19835186285E+02  0.76727183710E+01  0.20974757625E+03  0.21082303234E+03  0.00000000000E+00 0. -1.
         -2    1    1    2    0  503 -0.19835186285E+02 -0.76727183710E+01  0.17330876557E+02  0.27434731717E+02  0.00000000000E+00 0.  1.
<mgrwt>
<rscale>  2 0.21267469E+02</rscale>
<asrwt>0</asrwt>
<pdfrwt beam="1">  1       21 0.35795086E-01 0.21267469E+02</pdfrwt>
<pdfrwt beam="2">  1       21 0.85994720E-03 0.21267469E+02</pdfrwt>
<totfact> 0.26651185E+07</totfact>
</mgrwt>
</event>
<event>
 4    1  0.2821610E+004  0.2031498E+02  0.7546771E-02  0.1739136E+00
         21   -1    0    0  503  502  0.00000000000E+00  0.00000000000E+00  0.22646061856E+01  0.22646061856E+01  0.00000000000E+00 0.  1.
         21   -1    0    0  501  503 -0.00000000000E+00 -0.00000000000E+00 -0.52298888222E+03  0.52298888222E+03  0.00000000000E+00 0. -1.
          2    1    1    2  501    0 -0.10365131762E+02 -0.17471759154E+02 -0.47234996749E+03  0.47278662218E+03  0.00000000000E+00 0. -1.
         -2    1    1    2    0  502  0.10365131762E+02  0.17471759154E+02 -0.48374308545E+02  0.52466866226E+02  0.00000000000E+00 0.  1.
<mgrwt>
<rscale>  2 0.20314978E+02</rscale>
<asrwt>0</asrwt>
<pdfrwt beam="1">  1       21 0.34840091E-03 0.20314978E+02</pdfrwt>
<pdfrwt beam="2">  1       21 0.80459838E-01 0.20314978E+02</pdfrwt>
<totfact> 0.20412341E+07</totfact>
</mgrwt>
</event>
<event>
 4    1  0.2821610E+004  0.2646705E+02  0.7546771E-02  0.1640782E+00
         21   -1    0    0  501  502  0.00000000000E+00  0.00000000000E+00  0.43420388614E+02  0.43420388614E+02  0.00000000000E+00 0.  1.
         21   -1    0    0  502  503 -0.00000000000E+00 -0.00000000000E+00 -0.16567742433E+02  0.16567742433E+02  0.00000000000E+00 0. -1.
          2    1    1    2  501    0 -0.21279511414E+02  0.15738084025E+02  0.85681121594E+01  0.27819371681E+02  0.00000000000E+00 0.  1.
         -2    1    1    2    0  503  0.21279511414E+02 -0.15738084025E+02  0.18284534022E+02  0.32168759366E+02  0.00000000000E+00 0. -1.
<mgrwt>
<rscale>  2 0.26467053E+02</rscale>
<asrwt>0</asrwt>
<pdfrwt beam="1">  1       21 0.66800597E-02 0.26467053E+02</pdfrwt>
<pdfrwt beam="2">  1       21 0.25488835E-02 0.26467053E+02</pdfrwt>
<totfact> 0.96373493E+07</totfact>
</mgrwt>
</event>
<event>
 4    1  0.2821610E+004  0.2700524E+02  0.7546771E-02  0.1633765E+00
         21   -1    0    0  503  502  0.00000000000E+00  0.00000000000E+00  0.55065962617E+01  0.55065962617E+01  0.00000000000E+00 0.  1.
         21   -1    0    0  501  503 -0.00000000000E+00 -0.00000000000E+00 -0.13257642519E+03  0.13257642519E+03  0.00000000000E+00 0. -1.
          2    1    1    2  501    0 -0.26081721532E+02 -0.70019311304E+01 -0.61304930448E+02  0.66989385240E+02  0.00000000000E+00 0. -1.
         -2    1    1    2    0  502  0.26081721532E+02  0.70019311304E+01 -0.65764898482E+02  0.71093636213E+02  0.00000000000E+00 0.  1.
<mgrwt>
<rscale>  2 0.27005245E+02</rscale>
<asrwt>0</asrwt>
<pdfrwt beam="1">  1       21 0.84716861E-03 0.27005245E+02</pdfrwt>
<pdfrwt beam="2">  1       21 0.20396374E-01 0.27005245E+02</pdfrwt>
<totfact> 0.79479841E+07</totfact>
</mgrwt>
</event>
<event>
 4    1  0.2821610E+004  0.2047447E+02  0.7546771E-02  0.1736054E+00
         21   -1    0    0  501  502  0.00000000000E+00  0.00000000000E+00  0.14674912938E+01  0.14674912938E+01  0.00000000000E+00 0. -1.
         21   -1    0    0  502  503 -0.00000000000E+00 -0.00000000000E+00 -0.28777183826E+03  0.28777183826E+03  0.00000000000E+00 0.  1.
          2    1    1    2  501    0 -0.12993623742E+02 -0.15823076907E+02 -0.15554018085E+03  0.15688196798E+03  0.00000000000E+00 0. -1.
         -2    1    1    2    0  503  0.12993623742E+02  0.15823076907E+02 -0.13076416612E+03  0.13235736157E+03  0.00000000000E+00 0.  1.
<mgrwt>
<rscale>  2 0.20474472E+02</rscale>
<asrwt>0</asrwt>
<pdfrwt beam="1">  1       21 0.22576787E-03 0.20474472E+02</pdfrwt>
<pdfrwt beam="2">  1       21 0.44272594E-01 0.20474472E+02</pdfrwt>
<totfact> 0.12583755E+08</totfact>
</mgrwt>
</event>
<event>
 4    1  0.2821610E+004  0.6292878E+02  0.7546771E-02  0.1385936E+00
         21   -1    0    0  501  502  0.00000000000E+00  0.00000000000E+00  0.40060101521E+03  0.40060101521E+03  0.00000000000E+00 0. -1.
         21   -1    0    0  502  503 -0.00000000000E+00 -0.00000000000E+00 -0.76553137354E+02  0.76553137354E+02  0.00000000000E+00 0.  1.
          2    1    1    2  501    0 -0.45193796116E+02 -0.43789862464E+02  0.38466519437E+03  0.38977858204E+03  0.00000000000E+00 0. -1.
         -2    1    1    2    0  503  0.45193796116E+02  0.43789862464E+02 -0.60617316514E+02  0.87375570518E+02  0.00000000000E+00 0.  1.
<mgrwt>
<rscale>  2 0.62928779E+02</rscale>
<asrwt>0</asrwt>
<pdfrwt beam="1">  1       21 0.61630924E-01 0.62928779E+02</pdfrwt>
<pdfrwt beam="2">  1       21 0.11777406E-01 0.62928779E+02</pdfrwt>
<totfact> 0.15552825E+05</totfact>
</mgrwt>
</event>
<event>
 4    1  0.2821610E+004  0.2305904E+02  0.7546771E-02  0.1690555E+00
         21   -1    0    0  501  502  0.00000000000E+00  0.00000000000E+00  0.19924267602E+03  0.19924267602E+03  0.00000000000E+00 0.  1.
         21   -1    0    0  502  503 -0.00000000000E+00 -0.00000000000E+00 -0.10549075091E+02  0.10549075091E+02  0.00000000000E+00 0. -1.
          2    1    1    2  501    0 -0.23048143771E+02 -0.70883864066E+00  0.18500865582E+03  0.18644013010E+03  0.00000000000E+00 0.  1.
         -2    1    1    2    0  503  0.23048143771E+02  0.70883864066E+00  0.36849451130E+01  0.23351621015E+02  0.00000000000E+00 0. -1.
<mgrwt>
<rscale>  2 0.23059041E+02</rscale>
<asrwt>0</asrwt>
<pdfrwt beam="1">  1       21 0.30652717E-01 0.23059041E+02</pdfrwt>
<pdfrwt beam="2">  1       21 0.16229348E-02 0.23059041E+02</pdfrwt>
<totfact> 0.13841063E+07</totfact>
</mgrwt>
</event>
<event>
 4    1  0.2821610E+004  0.2145981E+02  0.7546771E-02  0.1717765E+00
         21   -1    0    0  501  502  0.00000000000E+00  0.00000000000E+00  0.93763543777E+02  0.93763543777E+02  0.00000000000E+00 0.  1.
         21   -1    0    0  502  503 -0.00000000000E+00 -0.00000000000E+00 -0.49850690713E+01  0.49850690713E+01  0.00000000000E+00 0. -1.
          2    1    1    2  501    0  0.19255356786E+02  0.94738945500E+01  0.38392797589E+02  0.43983296257E+02  0.00000000000E+00 0. -1.
         -2    1    1    2    0  503 -0.19255356786E+02 -0.94738945500E+01  0.50385677117E+02  0.54765316592E+02  0.00000000000E+00 0.  1.
<mgrwt>
<rscale>  2 0.21459810E+02</rscale>
<asrwt>0</asrwt>
<pdfrwt beam="1">  1       21 0.14425159E-01 0.21459810E+02</pdfrwt>
<pdfrwt beam="2">  1       21 0.76693377E-03 0.21459810E+02</pdfrwt>
<totfact> 0.15743312E+08</totfact>
</mgrwt>
</event>
<event>
 4    1  0.2821610E+004  0.2550380E+02  0.7546771E-02  0.1653869E+00
         21   -1    0    0  503  502  0.00000000000E+00  0.00000000000E+00  0.27424384435E+01  0.27424384435E+01  0.00000000000E+00 0. -1.
         21   -1    0    0  501  503 -0.00000000000E+00 -0.00000000000E+00 -0.28397998782E+03  0.28397998782E+03  0.00000000000E+00 0.  1.
          2    1    1    2  501    0  0.17606792576E+01 -0.25442953535E+02 -0.19881886418E+03  0.20044795991E+03  0.00000000000E+00 0.  1.
         -2    1    1    2    0  502 -0.17606792576E+01  0.25442953535E+02 -0.82418685197E+02  0.86274466360E+02  0.00000000000E+00 0. -1.
<mgrwt>
<rscale>  2 0.25503801E+02</rscale>
<asrwt>0</asrwt>
<pdfrwt beam="1">  1       21 0.42191369E-03 0.25503801E+02</pdfrwt>
<pdfrwt beam="2">  1       21 0.43689220E-01 0.25503801E+02</pdfrwt>
<totfact> 0.54855593E+07</totfact>
</mgrwt>
</event>
<event>
 4    1  0.2821610E+004  0.2675976E+02  0.7546771E-02  0.1636941E+00
         21   -1    0    0  503  502  0.00000000000E+00  0.00000000000E+00  0.32046027602E+02  0.32046027602E+02  0.00000000000E+00 0. -1.
         21   -1    0    0  501  503 -0.00000000000E+00 -0.00000000000E+00 -0.29895837136E+02  0.29895837136E+02  0.00000000000E+00 0.  1.
          2    1    1    2  501    0 -0.22907743798E+02 -0.13831848464E+02 -0.14489286355E+02  0.30430645358E+02  0.00000000000E+00 0.  1.
         -2    1    1    2    0  502  0.22907743798E+02  0.13831848464E+02  0.16639476821E+02  0.31511219379E+02  0.00000000000E+00 0. -1.
<mgrwt>
<rscale>  2 0.26759760E+02</rscale>
<asrwt>0</asrwt>
<pdfrwt beam="1">  1       21 0.49301581E-02 0.26759760E+02</pdfrwt>
<pdfrwt beam="2">  1       21 0.45993596E-02 0.26759760E+02</pdfrwt>
<totfact> 0.62257093E+07</totfact>
</mgrwt>
</event>
<event>
 4    1  0.2821610E+004  0.2206737E+02  0.7546771E-02  0.1707089E+00
         21   -1    0    0  501  502  0.00000000000E+00  0.00000000000E+00  0.18696362123E+03  0.18696362123E+03  0.00000000000E+00 0.  1.
         21   -1    0    0  502  503 -0.00000000000E+00 -0.00000000000E+00 -0.43371318865E+01  0.43371318865E+01  0.00000000000E+00 0. -1.
          2    1    1    2  501    0 -0.10166341201E+01 -0.22043938477E+02  0.15176706652E+03  0.15336300483E+03  0.00000000000E+00 0.  1.
         -2    1    1    2    0  503  0.10166341201E+01  0.22043938477E+02  0.30859422823E+02  0.37937748293E+02  0.00000000000E+00 0. -1.
<mgrwt>
<rscale>  2 0.22067369E+02</rscale>
<asrwt>0</asrwt>
<pdfrwt beam="1">  1       21 0.28763628E-01 0.22067369E+02</pdfrwt>
<pdfrwt beam="2">  1       21 0.66725120E-03 0.22067369E+02</pdfrwt>
<totfact> 0.58498177E+07</totfact>
</mgrwt>
</event>
<event>
 4    1  0.2821610E+004  0.2463340E+02  0.7546771E-02  0.1666324E+00
         21   -1    0    0  503  502  0.00000000000E+00  0.00000000000E+00  0.23896008750E+01  0.23896008750E+01  0.00000000000E+00 0. -1.
         21   -1    0    0  501  503 -0.00000000000E+00 -0.00000000000E+00 -0.27647664415E+03  0.27647664415E+03  0.00000000000E+00 0.  1.
          2    1    1    2  501    0 -0.71299841835E+01 -0.23578965175E+02 -0.17685658480E+03  0.17856387053E+03  0.00000000000E+00 0.  1.
         -2    1    1    2    0  502  0.71299841835E+01  0.23578965175E+02 -0.97230458478E+02  0.10030237449E+03  0.00000000000E+00 0. -1.
<mgrwt>
<rscale>  2 0.24633398E+02</rscale>
<asrwt>0</asrwt>
<pdfrwt beam="1">  1       21 0.36763104E-03 0.24633398E+02</pdfrwt>
<pdfrwt beam="2">  1       21 0.42534853E-01 0.24633398E+02</pdfrwt>
<totfact> 0.70135362E+07</totfact>
</mgrwt>
</event>
<event>
 4    1  0.2821610E+004  0.2877796E+02  0.7546771E-02  0.1612003E+00
         21   -1    0    0  503  502  0.00000000000E+00  0.00000000000E+00  0.45889215282E+03  0.45889215282E+03  0.00000000000E+00 0. -1.
         21   -1    0    0  501  503 -0.00000000000E+00 -0.00000000000E+00 -0.23474999378E+01  0.23474999378E+01  0.00000000000E+00 0.  1.
          2    1    1    2  501    0 -0.24362396325E+02 -0.15318123043E+02  0.11737878305E+03  0.12085507833E+03  0.00000000000E+00 0.  1.
         -2    1    1    2    0  502  0.24362396325E+02  0.15318123043E+02  0.33916586983E+03  0.34038457443E+03  0.00000000000E+00 0. -1.
<mgrwt>
<rscale>  2 0.28777965E+02</rscale>
<asrwt>0</asrwt>
<pdfrwt beam="1">  1       21 0.70598721E-01 0.28777965E+02</pdfrwt>
<pdfrwt beam="2">  1       21 0.36115420E-03 0.28777965E+02</pdfrwt>
<totfact> 0.27201106E+07</totfact>
</mgrwt>
</event>
<event>
 4    1  0.2821610E+004  0.2172982E+02  0.7546771E-02  0.1712967E+00
         21   -1    0    0  501  502  0.00000000000E+00  0.00000000000E+00  0.92212434412E+02  0.92212434412E+02  0.00000000000E+00 0.  1.
         21   -1    0    0  502  503 -0.00000000000E+00 -0.00000000000E+00 -0.70681820441E+01  0.70681820441E+01  0.00000000000E+00 0. -1.
          2    1    1    2  501    0 -0.19026541105E+02 -0.10496458465E+02  0.68629231699E+02  0.71987195739E+02  0.00000000000E+00 0.  1.
         -2    1    1    2    0  503  0.19026541105E+02  0.10496458465E+02  0.16515020668E+02  0.27293420717E+02  0.00000000000E+00 0. -1.
<mgrwt>
<rscale>  2 0.21729816E+02</rscale>
<asrwt>0</asrwt>
<pdfrwt beam="1">  1       21 0.14186528E-01 0.21729816E+02</pdfrwt>
<pdfrwt beam="2">  1       21 0.10874127E-02 0.21729816E+02</pdfrwt>
<totfact> 0.96442955E+07</totfact>
</mgrwt>
</event>
<event>
 4    1  0.2821610E+004  0.3670975E+02  0.7546771E-02  0.1533921E+00
         21   -1    0    0  503  502  0.00000000000E+00  0.00000000000E+00  0.96983746836E+02  0.96983746836E+02  0.00000000000E+00 0. -1.
         21   -1    0    0  501  503 -0.00000000000E+00 -0.00000000000E+00 -0.35530354380E+02  0.35530354380E+02  0.00000000000E+00 0.  1.
          2    1    1    2  501    0 -0.28558966736E+02  0.23064934140E+02 -0.20975931733E+02  0.42279965468E+02  0.00000000000E+00 0.  1.
         -2    1    1    2    0  502  0.28558966736E+02 -0.23064934140E+02  0.82429324190E+02  0.90234135748E+02  0.00000000000E+00 0. -1.
<mgrwt>
<rscale>  2 0.36709750E+02</rscale>
<asrwt>0</asrwt>
<pdfrwt beam="1">  1       21 0.14920576E-01 0.36709750E+02</pdfrwt>
<pdfrwt beam="2">  1       21 0.54662084E-02 0.36709750E+02</pdfrwt>
<totfact> 0.79532871E+06</totfact>
</mgrwt>
</event>
<event>
 4    1  0.2821610E+004  0.2201875E+02  0.7546771E-02  0.1707928E+00
         21   -1    0    0  503  502  0.00000000000E+00  0.00000000000E+00  0.40747885975E+02  0.40747885975E+02  0.00000000000E+00 0. -1.
         21   -1    0    0  501  503 -0.00000000000E+00 -0.00000000000E+00 -0.11926444623E+02  0.11926444623E+02  0.00000000000E+00 0.  1.
          2    1    1    2  501    0  0.14734075761E+02  0.16362523726E+02  0.13128297358E+02  0.25635470792E+02  0.00000000000E+00 0.  1.
         -2    1    1    2    0  502 -0.14734075761E+02 -0.16362523726E+02  0.15693143994E+02  0.27038859806E+02  0.00000000000E+00 0. -1.
<mgrwt>
<rscale>  2 0.22018746E+02</rscale>
<asrwt>0</asrwt>
<pdfrwt beam="1">  1       21 0.62689055E-02 0.22018746E+02</pdfrwt>
<pdfrwt beam="2">  1       21 0.18348377E-02 0.22018746E+02</pdfrwt>
<totfact> 0.16814162E+08</totfact>
</mgrwt>
</event>
<event>
 4    1  0.2821610E+004  0.2276968E+02  0.7546771E-02  0.1695271E+00
         21   -1    0    0  503  502  0.00000000000E+00  0.00000000000E+00  0.49190064663E+01  0.49190064663E+01  0.00000000000E+00 0. -1.
         21   -1    0    0  501  503 -0.00000000000E+00 -0.00000000000E+00 -0.37592818726E+03  0.37592818726E+03  0.00000000000E+00 0.  1.
          2    1    1    2  501    0  0.22228320804E+02  0.49355738596E+01 -0.34704285759E+03  0.34778902102E+03  0.00000000000E+00 0.  1.
         -2    1    1    2    0  502 -0.22228320804E+02 -0.49355738596E+01 -0.23966323207E+02  0.33058172714E+02  0.00000000000E+00 0. -1.
<mgrwt>
<rscale>  2 0.22769676E+02</rscale>
<asrwt>0</asrwt>
<pdfrwt beam="1">  1       21 0.75677016E-03 0.22769676E+02</pdfrwt>
<pdfrwt beam="2">  1       21 0.57835111E-01 0.22769676E+02</pdfrwt>
<totfact> 0.13046805E+07</totfact>
</mgrwt>
</event>
<event>
 4    1  0.2821610E+004  0.2226104E+02  0.7546771E-02  0.1703776E+00
         21   -1    0    0  503  502  0.00000000000E+00  0.00000000000E+00  0.12442160013E+03  0.12442160013E+03  0.00000000000E+00 0. -1.
         21   -1    0    0  501  503 -0.00000000000E+00 -0.00000000000E+00 -0.51159003148E+01  0.51159003148E+01  0.00000000000E+00 0.  1.
          2    1    1    2  501    0 -0.30989680908E+01  0.22044279571E+02  0.29171999220E+02  0.36695495684E+02  0.00000000000E+00 0. -1.
         -2    1    1    2    0  502  0.30989680908E+01 -0.22044279571E+02  0.90133700600E+02  0.92842004765E+02  0.00000000000E+00 0.  1.
<mgrwt>
<rscale>  2 0.22261039E+02</rscale>
<asrwt>0</asrwt>
<pdfrwt beam="1">  1       21 0.19141782E-01 0.22261039E+02</pdfrwt>
<pdfrwt beam="2">  1       21 0.78706168E-03 0.22261039E+02</pdfrwt>
<totfact> 0.94291514E+07</totfact>
</mgrwt>
</event>
<event>
 4    1  0.2821610E+004  0.2959915E+02  0.7546771E-02  0.1602562E+00
         21   -1    0    0  503  502  0.00000000000E+00  0.00000000000E+00  0.88815373372E+02  0.88815373372E+02  0.00000000000E+00 0.  1.
         21   -1    0    0  501  503 -0.00000000000E+00 -0.00000000000E+00 -0.11140774605E+02  0.11140774605E+02  0.00000000000E+00 0. -1.
          2    1    1    2  501    0  0.14606816024E+02  0.25743938215E+02  0.21920714219E+02  0.36832419701E+02  0.00000000000E+00 0. -1.
         -2    1    1    2    0  502 -0.14606816024E+02 -0.25743938215E+02  0.55753884548E+02  0.63123728275E+02  0.00000000000E+00 0.  1.
<mgrwt>
<rscale>  2 0.29599146E+02</rscale>
<asrwt>0</asrwt>
<pdfrwt beam="1">  1       21 0.13663903E-01 0.29599146E+02</pdfrwt>
<pdfrwt beam="2">  1       21 0.17139654E-02 0.29599146E+02</pdfrwt>
<totfact> 0.55672735E+07</totfact>
</mgrwt>
</event>
<event>
 4    1  0.2821610E+004  0.2533972E+02  0.7546771E-02  0.1656170E+00
         21   -1    0    0  503  502  0.00000000000E+00  0.00000000000E+00  0.42998984536E+01  0.42998984536E+01  0.00000000000E+00 0.  1.
         21   -1    0    0  501  503 -0.00000000000E+00 -0.00000000000E+00 -0.59942550076E+03  0.59942550076E+03  0.00000000000E+00 0. -1.
          2    1    1    2  501    0  0.24390572086E+02  0.68703316175E+01 -0.55913672448E+03  0.55971061999E+03  0.00000000000E+00 0. -1.
         -2    1    1    2    0  502 -0.24390572086E+02 -0.68703316175E+01 -0.35988877827E+02  0.44014779228E+02  0.00000000000E+00 0.  1.
<mgrwt>
<rscale>  2 0.25339721E+02</rscale>
<asrwt>0</asrwt>
<pdfrwt beam="1">  1       21 0.66152274E-03 0.25339721E+02</pdfrwt>
<pdfrwt beam="2">  1       21 0.92219322E-01 0.25339721E+02</pdfrwt>
<totfact> 0.61751015E+06</totfact>
</mgrwt>
</event>
<event>
 4    1  0.2821610E+004  0.2348127E+02  0.7546771E-02  0.1683826E+00
         21   -1    0    0  503  502  0.00000000000E+00  0.00000000000E+00  0.50107357995E+01  0.50107357995E+01  0.00000000000E+00 0. -1.
         21   -1    0    0  501  503 -0.00000000000E+00 -0.00000000000E+00 -0.11283029212E+03  0.11283029212E+03  0.00000000000E+00 0.  1.
          2    1    1    2  501    0 -0.37500849216E+01  0.23179880179E+02 -0.63179255820E+02  0.67401693955E+02  0.00000000000E+00 0. -1.
         -2    1    1    2    0  502  0.37500849216E+01 -0.23179880179E+02 -0.44640300504E+02  0.50439333968E+02  0.00000000000E+00 0.  1.
<mgrwt>
<rscale>  2 0.23481269E+02</rscale>
<asrwt>0</asrwt>
<pdfrwt beam="1">  1       21 0.77088250E-03 0.23481269E+02</pdfrwt>
<pdfrwt beam="2">  1       21 0.17358505E-01 0.23481269E+02</pdfrwt>
<totfact> 0.11691630E+08</totfact>
</mgrwt>
</event>
<event>
 4    1  0.2821610E+004  0.3779452E+02  0.7546771E-02  0.1525098E+00
         21   -1    0    0  503  502  0.00000000000E+00  0.00000000000E+00  0.10874457090E+03  0.10874457090E+03  0.00000000000E+00 0.  1.
         21   -1    0    0  501  503 -0.00000000000E+00 -0.00000000000E+00 -0.14269484987E+02  0.14269484987E+02  0.00000000000E+00 0. -1.
          2    1    1    2  501    0  0.36312940224E+02  0.10478353152E+02  0.64575763370E+02  0.74822822235E+02  0.00000000000E+00 0.  1.
         -2    1    1    2    0  502 -0.36312940224E+02 -0.10478353152E+02  0.29899322547E+02  0.48191233656E+02  0.00000000000E+00 0. -1.
<mgrwt>
<rscale>  2 0.37794517E+02</rscale>
<asrwt>0</asrwt>
<pdfrwt beam="1">  1       21 0.16729933E-01 0.37794517E+02</pdfrwt>
<pdfrwt beam="2">  1       21 0.21953055E-02 0.37794517E+02</pdfrwt>
<totfact> 0.28028670E+07</totfact>
</mgrwt>
</event>
<event>
 4    1  0.2821610E+004  0.4098020E+02  0.7546771E-02  0.1501120E+00
         21   -1    0    0  501  502  0.00000000000E+00  0.00000000000E+00  0.22185937763E+01  0.22185937763E+01  0.00000000000E+00 0. -1.
         21   -1    0    0  502  503 -0.00000000000E+00 -0.00000000000E+00 -0.89581961309E+03  0.89581961309E+03  0.00000000000E+00 0.  1.
          2    1    1    2  501    0  0.38182981836E+02 -0.14880744677E+02 -0.27001379875E+03  0.27310589188E+03  0.00000000000E+00 0. -1.
         -2    1    1    2    0  503 -0.38182981836E+02  0.14880744677E+02 -0.62358722056E+03  0.62493231498E+03  0.00000000000E+00 0.  1.
<mgrwt>
<rscale>  2 0.40980198E+02</rscale>
<asrwt>0</asrwt>
<pdfrwt beam="1">  1       21 0.34132190E-03 0.40980198E+02</pdfrwt>
<pdfrwt beam="2">  1       21 0.13781849E+00 0.40980198E+02</pdfrwt>
<totfact> 0.70001224E+06</totfact>
</mgrwt>
</event>
<event>
 4    1  0.2821610E+004  0.2005872E+02  0.7546771E-02  0.1744163E+00
         21   -1    0    0  501  502  0.00000000000E+00  0.00000000000E+00  0.10263546679E+03  0.10263546679E+03  0.00000000000E+00 0. -1.
         21   -1    0    0  502  503 -0.00000000000E+00 -0.00000000000E+00 -0.52411168573E+01  0.52411168573E+01  0.00000000000E+00 0.  1.
          2    1    1    2  501    0 -0.19996616947E+02 -0.15772628811E+01  0.75775486590E+02  0.78385437522E+02  0.00000000000E+00 0. -1.
         -2    1    1    2    0  503  0.19996616947E+02  0.15772628811E+01  0.21618863340E+02  0.29491146122E+02  0.00000000000E+00 0.  1.
<mgrwt>
<rscale>  2 0.20058725E+02</rscale>
<asrwt>0</asrwt>
<pdfrwt beam="1">  1       21 0.15790070E-01 0.20058725E+02</pdfrwt>
<pdfrwt beam="2">  1       21 0.80632575E-03 0.20058725E+02</pdfrwt>
<totfact> 0.12283759E+08</totfact>
</mgrwt>
</event>
<event>
 4    1  0.2821610E+004  0.2229210E+02  0.7546771E-02  0.1703249E+00
         21   -1    0    0  501  502  0.00000000000E+00  0.00000000000E+00  0.19278173128E+03  0.19278173128E+03  0.00000000000E+00 0. -1.
         21   -1    0    0  502  503 -0.00000000000E+00 -0.00000000000E+00 -0.27195167841E+01  0.27195167841E+01  0.00000000000E+00 0.  1.
          2    1    1    2  501    0 -0.22051389740E+02  0.32671164470E+01  0.11735154800E+03  0.11945008857E+03  0.00000000000E+00 0. -1.
         -2    1    1    2    0  503  0.22051389740E+02 -0.32671164470E+01  0.72710666488E+02  0.76051159495E+02  0.00000000000E+00 0.  1.
<mgrwt>
<rscale>  2 0.22292103E+02</rscale>
<asrwt>0</asrwt>
<pdfrwt beam="1">  1       21 0.29658717E-01 0.22292103E+02</pdfrwt>
<pdfrwt beam="2">  1       21 0.41838735E-03 0.22292103E+02</pdfrwt>
<totfact> 0.11046735E+08</totfact>
</mgrwt>
</event>
<event>
 4    1  0.2821610E+004  0.3224867E+02  0.7546771E-02  0.1574485E+00
         21   -1    0    0  503  502  0.00000000000E+00  0.00000000000E+00  0.45557179962E+03  0.45557179962E+03  0.00000000000E+00 0. -1.
         21   -1    0    0  501  503 -0.00000000000E+00 -0.00000000000E+00 -0.46203451983E+01  0.46203451983E+01  0.00000000000E+00 0.  1.
          2    1    1    2  501    0 -0.42349212817E+01 -0.31969397663E+02  0.61811982773E+02  0.69718707386E+02  0.00000000000E+00 0.  1.
         -2    1    1    2    0  502  0.42349212817E+01  0.31969397663E+02  0.38913947165E+03  0.39047343743E+03  0.00000000000E+00 0. -1.
<mgrwt>
<rscale>  2 0.32248674E+02</rscale>
<asrwt>0</asrwt>
<pdfrwt beam="1">  1       21 0.70087934E-01 0.32248674E+02</pdfrwt>
<pdfrwt beam="2">  1       21 0.71082270E-03 0.32248674E+02</pdfrwt>
<totfact> 0.10259086E+07</totfact>
</mgrwt>
</event>
<event>
 4    1  0.2821610E+004  0.2516154E+02  0.7546771E-02  0.1658692E+00
         21   -1    0    0  501  502  0.00000000000E+00  0.00000000000E+00  0.74997165129E+01  0.74997165129E+01  0.00000000000E+00 0. -1.
         21   -1    0    0  502  503 -0.00000000000E+00 -0.00000000000E+00 -0.96166879517E+02  0.96166879517E+02  0.00000000000E+00 0.  1.
          2    1    1    2  501    0 -0.14177230661E+02 -0.20787239923E+02 -0.26215439266E+02  0.36336654617E+02  0.00000000000E+00 0. -1.
         -2    1    1    2    0  503  0.14177230661E+02  0.20787239923E+02 -0.62451723738E+02  0.67329941413E+02  0.00000000000E+00 0.  1.
<mgrwt>
<rscale>  2 0.25161542E+02</rscale>
<asrwt>0</asrwt>
<pdfrwt beam="1">  1       21 0.11538026E-02 0.25161542E+02</pdfrwt>
<pdfrwt beam="2">  1       21 0.14794904E-01 0.25161542E+02</pdfrwt>
<totfact> 0.85484078E+07</totfact>
</mgrwt>
</event>
<event>
 4    1  0.2821610E+004  0.2486863E+02  0.7546771E-02  0.1662896E+00
         21   -1    0    0  503  502  0.00000000000E+00  0.00000000000E+00  0.31983348746E+01  0.31983348746E+01  0.00000000000E+00 0.  1.
         21   -1    0    0  501  503 -0.00000000000E+00 -0.00000000000E+00 -0.23188779729E+03  0.23188779729E+03  0.00000000000E+00 0. -1.
          2    1    1    2  501    0  0.26501666105E+01  0.24727018459E+02 -0.16225317201E+03  0.16414792308E+03  0.00000000000E+00 0. -1.
         -2    1    1    2    0  502 -0.26501666105E+01 -0.24727018459E+02 -0.66436290402E+02  0.70938209079E+02  0.00000000000E+00 0.  1.
<mgrwt>
<rscale>  2 0.24868631E+02</rscale>
<asrwt>0</asrwt>
<pdfrwt beam="1">  1       21 0.49205146E-03 0.24868631E+02</pdfrwt>
<pdfrwt beam="2">  1       21 0.35675050E-01 0.24868631E+02</pdfrwt>
<totfact> 0.63731109E+07</totfact>
</mgrwt>
</event>
<event>
 4    1  0.2821610E+004  0.2252671E+02  0.7546771E-02  0.1699299E+00
         21   -1    0    0  503  502  0.00000000000E+00  0.00000000000E+00  0.73414471201E+02  0.73414471201E+02  0.00000000000E+00 0. -1.
         21   -1    0    0  501  503 -0.00000000000E+00 -0.00000000000E+00 -0.69134542368E+01  0.69134542368E+01  0.00000000000E+00 0.  1.
          2    1    1    2  501    0 -0.22519663182E+02  0.56337822390E+00  0.32701127872E+02  0.39709147421E+02  0.00000000000E+00 0. -1.
         -2    1    1    2    0  502  0.22519663182E+02 -0.56337822390E+00  0.33799889093E+02  0.40618778017E+02  0.00000000000E+00 0.  1.
<mgrwt>
<rscale>  2 0.22526709E+02</rscale>
<asrwt>0</asrwt>
<pdfrwt beam="1">  1       21 0.11294533E-01 0.22526709E+02</pdfrwt>
<pdfrwt beam="2">  1       21 0.10636084E-02 0.22526709E+02</pdfrwt>
<totfact> 0.14771849E+08</totfact>
</mgrwt>
</event>
<event>
 4    1  0.2821610E+004  0.2022309E+02  0.7546771E-02  0.1740928E+00
         21   -1    0    0  501  502  0.00000000000E+00  0.00000000000E+00  0.83428407954E+03  0.83428407954E+03  0.00000000000E+00 0. -1.
         21   -1    0    0  502  503 -0.00000000000E+00 -0.00000000000E+00 -0.57891182969E+00  0.57891182969E+00  0.00000000000E+00 0.  1.
          2    1    1    2  501    0  0.46066582512E+01 -0.19691416096E+02  0.58025139853E+03  0.58060370190E+03  0.00000000000E+00 0. -1.
         -2    1    1    2    0  503 -0.46066582512E+01  0.19691416096E+02  0.25345376918E+03  0.25425928947E+03  0.00000000000E+00 0.  1.
<mgrwt>
<rscale>  2 0.20223085E+02</rscale>
<asrwt>0</asrwt>
<pdfrwt beam="1">  1       21 0.12835043E+00 0.20223085E+02</pdfrwt>
<pdfrwt beam="2">  1       21 0.89064027E-04 0.20223085E+02</pdfrwt>
<totfact> 0.52083655E+07</totfact>
</mgrwt>
</event>
<event>
 4    1  0.2821610E+004  0.2169840E+02  0.7546771E-02  0.1713521E+00
         21   -1    0    0  503  502  0.00000000000E+00  0.00000000000E+00  0.35954542381E+02  0.35954542381E+02  0.00000000000E+00 0. -1.
         21   -1    0    0  501  503 -0.00000000000E+00 -0.00000000000E+00 -0.18603295664E+02  0.18603295664E+02  0.00000000000E+00 0.  1.
          2    1    1    2  501    0 -0.15259124446E+02 -0.15426596144E+02 -0.61681803747E+01  0.22558084950E+02  0.00000000000E+00 0.  1.
         -2    1    1    2    0  502  0.15259124446E+02  0.15426596144E+02  0.23519427092E+02  0.31999753096E+02  0.00000000000E+00 0. -1.
<mgrwt>
<rscale>  2 0.21698404E+02</rscale>
<asrwt>0</asrwt>
<pdfrwt beam="1">  1       21 0.55314681E-02 0.21698404E+02</pdfrwt>
<pdfrwt beam="2">  1       21 0.28620455E-02 0.21698404E+02</pdfrwt>
<totfact> 0.10319996E+08</totfact>
</mgrwt>
</event>
<event>
 4    1  0.2821610E+004  0.2101726E+02  0.7546771E-02  0.1725824E+00
         21   -1    0    0  501  502  0.00000000000E+00  0.00000000000E+00  0.52491173731E+01  0.52491173731E+01  0.00000000000E+00 0.  1.
         21   -1    0    0  502  503 -0.00000000000E+00 -0.00000000000E+00 -0.17640802120E+03  0.17640802120E+03  0.00000000000E+00 0. -1.
          2    1    1    2  501    0 -0.25032210831E+01 -0.20867657246E+02 -0.19895391410E+02  0.28940487800E+02  0.00000000000E+00 0.  1.
         -2    1    1    2    0  503  0.25032210831E+01  0.20867657246E+02 -0.15126351241E+03  0.15271665077E+03  0.00000000000E+00 0. -1.
<mgrwt>
<rscale>  2 0.21017260E+02</rscale>
<asrwt>0</asrwt>
<pdfrwt beam="1">  1       21 0.80755649E-03 0.21017260E+02</pdfrwt>
<pdfrwt beam="2">  1       21 0.27139697E-01 0.21017260E+02</pdfrwt>
<totfact> 0.48308879E+07</totfact>
</mgrwt>
</event>
<event>
 4    1  0.2821610E+004  0.2130625E+02  0.7546771E-02  0.1720534E+00
         21   -1    0    0  503  502  0.00000000000E+00  0.00000000000E+00  0.84457036088E+01  0.84457036088E+01  0.00000000000E+00 0.  1.
         21   -1    0    0  501  503 -0.00000000000E+00 -0.00000000000E+00 -0.98957000140E+02  0.98957000140E+02  0.00000000000E+00 0. -1.
          2    1    1    2  501    0 -0.14378053306E+02 -0.15723482832E+02 -0.81552164147E+02  0.84289452521E+02  0.00000000000E+00 0. -1.
         -2    1    1    2    0  502  0.14378053306E+02  0.15723482832E+02 -0.89591323841E+01  0.23113251228E+02  0.00000000000E+00 0.  1.
<mgrwt>
<rscale>  2 0.21306251E+02</rscale>
<asrwt>0</asrwt>
<pdfrwt beam="1">  1       21 0.12993390E-02 0.21306251E+02</pdfrwt>
<pdfrwt beam="2">  1       21 0.15224154E-01 0.21306251E+02</pdfrwt>
<totfact> 0.65088540E+07</totfact>
</mgrwt>
</event>
<event>
 4    1  0.2821610E+004  0.2347953E+02  0.7546771E-02  0.1683853E+00
         21   -1    0    0  503  502  0.00000000000E+00  0.00000000000E+00  0.11488100158E+04  0.11488100158E+04  0.00000000000E+00 0.  1.
         21   -1    0    0  501  503 -0.00000000000E+00 -0.00000000000E+00 -0.16419237553E+01  0.16419237553E+01  0.00000000000E+00 0. -1.
          2    1    1    2  501    0 -0.15663456121E+02 -0.17491262118E+02  0.89663908715E+02  0.92687133056E+02  0.00000000000E+00 0. -1.
         -2    1    1    2    0  502  0.15663456121E+02  0.17491262118E+02  0.10575041833E+04  0.10577648065E+04  0.00000000000E+00 0.  1.
<mgrwt>
<rscale>  2 0.23479525E+02</rscale>
<asrwt>0</asrwt>
<pdfrwt beam="1">  1       21 0.17673936E+00 0.23479525E+02</pdfrwt>
<pdfrwt beam="2">  1       21 0.25260457E-03 0.23479525E+02</pdfrwt>
<totfact> 0.56212226E+06</totfact>
</mgrwt>
</event>
<event>
 4    1  0.2821610E+004  0.5348729E+02  0.7546771E-02  0.1427391E+00
         21   -1    0    0  503  502  0.00000000000E+00  0.00000000000E+00  0.18364156951E+04  0.18364156951E+04  0.00000000000E+00 0.  1.
         21   -1    0    0  501  503 -0.00000000000E+00 -0.00000000000E+00 -0.95370198557E+01  0.95370198557E+01  0.00000000000E+00 0. -1.
          2    1    1    2  501    0 -0.42451317839E+02  0.32538829203E+02  0.69205705232E+02  0.87466104457E+02  0.00000000000E+00 0. -1.
         -2    1    1    2    0  502  0.42451317839E+02 -0.32538829203E+02  0.17576729700E+04  0.17584866105E+04  0.00000000000E+00 0.  1.
<mgrwt>
<rscale>  2 0.53487286E+02</rscale>
<asrwt>0</asrwt>
<pdfrwt beam="1">  1       21 0.28252521E+00 0.53487286E+02</pdfrwt>
<pdfrwt beam="2">  1       21 0.14672353E-02 0.53487286E+02</pdfrwt>
<totfact> 0.10390681E+05</totfact>
</mgrwt>
</event>
<event>
 4    1  0.2821610E+004  0.2202093E+02  0.7546771E-02  0.1707890E+00
         21   -1    0    0  503  502  0.00000000000E+00  0.00000000000E+00  0.13311874760E+02  0.13311874760E+02  0.00000000000E+00 0. -1.
         21   -1    0    0  501  503 -0.00000000000E+00 -0.00000000000E+00 -0.47651717069E+02  0.47651717069E+02  0.00000000000E+00 0.  1.
          2    1    1    2  501    0 -0.21994066678E+02 -0.10874037333E+01 -0.31963552765E+02  0.38814818321E+02  0.00000000000E+00 0. -1.
         -2    1    1    2    0  502  0.21994066678E+02  0.10874037333E+01 -0.23762895443E+01  0.22148773508E+02  0.00000000000E+00 0.  1.
<mgrwt>
<rscale>  2 0.22020931E+02</rscale>
<asrwt>0</asrwt>
<pdfrwt beam="1">  1       21 0.20479808E-02 0.22020931E+02</pdfrwt>
<pdfrwt beam="2">  1       21 0.73310333E-02 0.22020931E+02</pdfrwt>
<totfact> 0.11039565E+08</totfact>
</mgrwt>
</event>
<event>
 4    1  0.2821610E+004  0.3065745E+02  0.7546771E-02  0.1590933E+00
         21   -1    0    0  501  502  0.00000000000E+00  0.00000000000E+00  0.63130490667E+02  0.63130490667E+02  0.00000000000E+00 0.  1.
         21   -1    0    0  502  503 -0.00000000000E+00 -0.00000000000E+00 -0.53188883489E+02  0.53188883489E+02  0.00000000000E+00 0. -1.
          2    1    1    2  501    0 -0.22307693429E+02  0.21029653509E+02  0.54324157305E+02  0.62377829233E+02  0.00000000000E+00 0.  1.
         -2    1    1    2    0  503  0.22307693429E+02 -0.21029653509E+02 -0.44382550128E+02  0.53941544923E+02  0.00000000000E+00 0. -1.
<mgrwt>
<rscale>  2 0.30657454E+02</rscale>
<asrwt>0</asrwt>
<pdfrwt beam="1">  1       21 0.97123832E-02 0.30657454E+02</pdfrwt>
<pdfrwt beam="2">  1       21 0.81829051E-02 0.30657454E+02</pdfrwt>
<totfact> 0.83004963E+06</totfact>
</mgrwt>
</event>
<event>
 4    1  0.2821610E+004  0.2959245E+02  0.7546771E-02  0.1602638E+00
         21   -1    0    0  503  502  0.00000000000E+00  0.00000000000E+00  0.22024925591E+01  0.22024925591E+01  0.00000000000E+00 0. -1.
         21   -1    0    0  501  503 -0.00000000000E+00 -0.00000000000E+00 -0.63888734092E+03  0.63888734092E+03  0.00000000000E+00 0.  1.
          2    1    1    2  501    0 -0.29086953410E+02  0.54463080478E+01 -0.51533196504E+03  0.51618092498E+03  0.00000000000E+00 0.  1.
         -2    1    1    2    0  502  0.29086953410E+02 -0.54463080478E+01 -0.12135288332E+03  0.12490890849E+03  0.00000000000E+00 0. -1.
<mgrwt>
<rscale>  2 0.29592451E+02</rscale>
<asrwt>0</asrwt>
<pdfrwt beam="1">  1       21 0.33884490E-03 0.29592451E+02</pdfrwt>
<pdfrwt beam="2">  1       21 0.98290392E-01 0.29592451E+02</pdfrwt>
<totfact> 0.14807519E+07</totfact>
</mgrwt>
</event>
<event>
 4    1  0.2821610E+004  0.2531429E+02  0.7546771E-02  0.1656528E+00
         21   -1    0    0  503  502  0.00000000000E+00  0.00000000000E+00  0.39813670781E+03  0.39813670781E+03  0.00000000000E+00 0.  1.
         21   -1    0    0  501  503 -0.00000000000E+00 -0.00000000000E+00 -0.20489336635E+01  0.20489336635E+01  0.00000000000E+00 0. -1.
          2    1    1    2  501    0 -0.22686381503E+02 -0.11231265308E+02  0.10538243896E+03  0.10838021806E+03  0.00000000000E+00 0. -1.
         -2    1    1    2    0  502  0.22686381503E+02  0.11231265308E+02  0.29070533519E+03  0.29180542342E+03  0.00000000000E+00 0.  1.
<mgrwt>
<rscale>  2 0.25314289E+02</rscale>
<asrwt>0</asrwt>
<pdfrwt beam="1">  1       21 0.61251739E-01 0.25314289E+02</pdfrwt>
<pdfrwt beam="2">  1       21 0.31522088E-03 0.25314289E+02</pdfrwt>
<totfact> 0.43292981E+07</totfact>
</mgrwt>
</event>
<event>
 4    1  0.2821610E+004  0.2421258E+02  0.7546771E-02  0.1672576E+00
         21   -1    0    0  501  502  0.00000000000E+00  0.00000000000E+00  0.13456589172E+01  0.13456589172E+01  0.00000000000E+00 0. -1.
         21   -1    0    0  502  503 -0.00000000000E+00 -0.00000000000E+00 -0.53372572614E+03  0.53372572614E+03  0.00000000000E+00 0.  1.
          2    1    1    2  501    0  0.21414937820E+02  0.11298203647E+02 -0.15151137704E+03  0.15343385004E+03  0.00000000000E+00 0. -1.
         -2    1    1    2    0  503 -0.21414937820E+02 -0.11298203647E+02 -0.38086869018E+03  0.38163753501E+03  0.00000000000E+00 0.  1.
<mgrwt>
<rscale>  2 0.24212579E+02</rscale>
<asrwt>0</asrwt>
<pdfrwt beam="1">  1       21 0.20702378E-03 0.24212579E+02</pdfrwt>
<pdfrwt beam="2">  1       21 0.82111916E-01 0.24212579E+02</pdfrwt>
<totfact> 0.43210624E+07</totfact>
</mgrwt>
</event>
<event>
 4    1  0.2821610E+004  0.2079930E+02  0.7546771E-02  0.1729885E+00
         21   -1    0    0  503  502  0.00000000000E+00  0.00000000000E+00  0.10628094378E+03  0.10628094378E+03  0.00000000000E+00 0. -1.
         21   -1    0    0  501  503 -0.00000000000E+00 -0.00000000000E+00 -0.63276392402E+01  0.63276392402E+01  0.00000000000E+00 0.  1.
          2    1    1    2  501    0  0.19323355560E+02  0.76953787133E+01  0.16348350208E+02  0.26455235364E+02  0.00000000000E+00 0.  1.
         -2    1    1    2    0  502 -0.19323355560E+02 -0.76953787133E+01  0.83604954336E+02  0.86153347661E+02  0.00000000000E+00 0. -1.
<mgrwt>
<rscale>  2 0.20799301E+02</rscale>
<asrwt>0</asrwt>
<pdfrwt beam="1">  1       21 0.16350913E-01 0.20799301E+02</pdfrwt>
<pdfrwt beam="2">  1       21 0.97348304E-03 0.20799301E+02</pdfrwt>
<totfact> 0.88345218E+07</totfact>
</mgrwt>
</event>
<event>
 4    1  0.2821610E+004  0.2527567E+02  0.7546771E-02  0.1657074E+00
         21   -1    0    0  503  502  0.00000000000E+00  0.00000000000E+00  0.31259033873E+02  0.31259033873E+02  0.00000000000E+00 0. -1.
         21   -1    0    0  501  503 -0.00000000000E+00 -0.00000000000E+00 -0.13460020186E+03  0.13460020186E+03  0.00000000000E+00 0.  1.
          2    1    1    2  501    0 -0.16461954707E+02  0.19179774978E+02 -0.12804514591E+03  0.13051597263E+03  0.00000000000E+00 0.  1.
         -2    1    1    2    0  502  0.16461954707E+02 -0.19179774978E+02  0.24703977927E+02  0.35343263097E+02  0.00000000000E+00 0. -1.
<mgrwt>
<rscale>  2 0.25275674E+02</rscale>
<asrwt>0</asrwt>
<pdfrwt beam="1">  1       21 0.48090822E-02 0.25275674E+02</pdfrwt>
<pdfrwt beam="2">  1       21 0.20707723E-01 0.25275674E+02</pdfrwt>
<totfact> 0.52289331E+06</totfact>
</mgrwt>
</event>
<event>
 4    1  0.2821610E+004  0.3104043E+02  0.7546771E-02  0.1586865E+00
         21   -1    0    0  503  502  0.00000000000E+00  0.00000000000E+00  0.16747860558E+01  0.16747860558E+01  0.00000000000E+00 0.  1.
         21   -1    0    0  501  503 -0.00000000000E+00 -0.00000000000E+00 -0.68988272771E+03  0.68988272771E+03  0.00000000000E+00 0. -1.
          2    1    1    2  501    0 -0.22456542177E+02  0.21429227417E+02 -0.48502185495E+03  0.48601410252E+03  0.00000000000E+00 0. -1.
         -2    1    1    2    0  502  0.22456542177E+02 -0.21429227417E+02 -0.20318608670E+03  0.20554341124E+03  0.00000000000E+00 0.  1.
<mgrwt>
<rscale>  2 0.31040426E+02</rscale>
<asrwt>0</asrwt>
<pdfrwt beam="1">  1       21 0.25765894E-03 0.31040426E+02</pdfrwt>
<pdfrwt beam="2">  1       21 0.10613599E+00 0.31040426E+02</pdfrwt>
<totfact> 0.18797118E+07</totfact>
</mgrwt>
</event>
<event>
 4    1  0.2821610E+004  0.2077719E+02  0.7546771E-02  0.1730300E+00
         21   -1    0    0  501  502  0.00000000000E+00  0.00000000000E+00  0.88876375927E+03  0.88876375927E+03  0.00000000000E+00 0. -1.
         21   -1    0    0  502  503 -0.00000000000E+00 -0.00000000000E+00 -0.12699114853E+01  0.12699114853E+01  0.00000000000E+00 0.  1.
          2    1    1    2  501    0  0.24766230170E+01  0.20629058712E+02  0.79345071712E+03  0.79372270487E+03  0.00000000000E+00 0. -1.
         -2    1    1    2    0  503 -0.24766230170E+01 -0.20629058712E+02  0.94043130662E+02  0.96310965885E+02  0.00000000000E+00 0.  1.
<mgrwt>
<rscale>  2 0.20777192E+02</rscale>
<asrwt>0</asrwt>
<pdfrwt beam="1">  1       21 0.13673239E+00 0.20777192E+02</pdfrwt>
<pdfrwt beam="2">  1       21 0.19537171E-03 0.20777192E+02</pdfrwt>
<totfact> 0.14778636E+07</totfact>
</mgrwt>
</event>
<event>
 4    1  0.2821610E+004  0.2656947E+02  0.7546771E-02  0.1639431E+00
         21   -1    0    0  503  502  0.00000000000E+00  0.00000000000E+00  0.16542446611E+04  0.16542446611E+04  0.00000000000E+00 0. -1.
         21   -1    0    0  501  503 -0.00000000000E+00 -0.00000000000E+00 -0.91685172627E+00  0.91685172627E+00  0.00000000000E+00 0.  1.
          2    1    1    2  501    0  0.26421460349E+02 -0.28005591298E+01  0.22159168127E+03  0.22317887424E+03  0.00000000000E+00 0.  1.
         -2    1    1    2    0  502 -0.26421460349E+02  0.28005591298E+01  0.14317361281E+04  0.14319826386E+04  0.00000000000E+00 0. -1.
<mgrwt>
<rscale>  2 0.26569469E+02</rscale>
<asrwt>0</asrwt>
<pdfrwt beam="1">  1       21 0.25449679E+00 0.26569469E+02</pdfrwt>
<pdfrwt beam="2">  1       21 0.14105544E-03 0.26569469E+02</pdfrwt>
<totfact> 0.49797350E+06</totfact>
</mgrwt>
</event>
<event>
 4    1  0.2821610E+004  0.2371982E+02  0.7546771E-02  0.1680101E+00
         21   -1    0    0  503  502  0.00000000000E+00  0.00000000000E+00  0.88768366837E+01  0.88768366837E+01  0.00000000000E+00 0. -1.
         21   -1    0    0  501  503 -0.00000000000E+00 -0.00000000000E+00 -0.95288654966E+02  0.95288654966E+02  0.00000000000E+00 0.  1.
          2    1    1    2  501    0 -0.23555882243E+02  0.27839406398E+01 -0.73343966343E+02  0.77084157339E+02  0.00000000000E+00 0.  1.
         -2    1    1    2    0  502  0.23555882243E+02 -0.27839406398E+01 -0.13067851940E+02  0.27081334311E+02  0.00000000000E+00 0. -1.
<mgrwt>
<rscale>  2 0.23719821E+02</rscale>
<asrwt>0</asrwt>
<pdfrwt beam="1">  1       21 0.13656672E-02 0.23719821E+02</pdfrwt>
<pdfrwt beam="2">  1       21 0.14659793E-01 0.23719821E+02</pdfrwt>
<totfact> 0.66239932E+07</totfact>
</mgrwt>
</event>
<event>
 4    1  0.2821610E+004  0.6703808E+02  0.7546771E-02  0.1370465E+00
         21   -1    0    0  503  502  0.00000000000E+00  0.00000000000E+00  0.22106864309E+03  0.22106864309E+03  0.00000000000E+00 0. -1.
         21   -1    0    0  501  503 -0.00000000000E+00 -0.00000000000E+00 -0.20428331680E+02  0.20428331680E+02  0.00000000000E+00 0.  1.
          2    1    1    2  501    0 -0.63841417428E+02  0.20454280458E+02  0.91900159818E+02  0.11375299356E+03  0.00000000000E+00 0. -1.
         -2    1    1    2    0  502  0.63841417428E+02 -0.20454280458E+02  0.10874015159E+03  0.12774398121E+03  0.00000000000E+00 0.  1.
<mgrwt>
<rscale>  2 0.67038080E+02</rscale>
<asrwt>0</asrwt>
<pdfrwt beam="1">  1       21 0.34010559E-01 0.67038080E+02</pdfrwt>
<pdfrwt beam="2">  1       21 0.31428204E-02 0.67038080E+02</pdfrwt>
<totfact> 0.46320073E+06</totfact>
</mgrwt>
</event>
<event>
 4    1  0.2821610E+004  0.2060760E+02  0.7546771E-02  0.1733508E+00
         21   -1    0    0  501  502  0.00000000000E+00  0.00000000000E+00  0.11636082528E+01  0.11636082528E+01  0.00000000000E+00 0. -1.
         21   -1    0    0  502  503 -0.00000000000E+00 -0.00000000000E+00 -0.39977811206E+03  0.39977811206E+03  0.00000000000E+00 0.  1.
          2    1    1    2  501    0  0.13719648718E+02  0.15376749971E+02 -0.14014704151E+03  0.14165403787E+03  0.00000000000E+00 0. -1.
         -2    1    1    2    0  503 -0.13719648718E+02 -0.15376749971E+02 -0.25846746230E+03  0.25928768244E+03  0.00000000000E+00 0.  1.
<mgrwt>
<rscale>  2 0.20607601E+02</rscale>
<asrwt>0</asrwt>
<pdfrwt beam="1">  1       21 0.17901674E-03 0.20607601E+02</pdfrwt>
<pdfrwt beam="2">  1       21 0.61504295E-01 0.20607601E+02</pdfrwt>
<totfact> 0.92796676E+07</totfact>
</mgrwt>
</event>
<event>
 4    1  0.2821610E+004  0.2247128E+02  0.7546771E-02  0.1700227E+00
         21   -1    0    0  501  502  0.00000000000E+00  0.00000000000E+00  0.73269400946E+01  0.73269400946E+01  0.00000000000E+00 0.  1.
         21   -1    0    0  502  503 -0.00000000000E+00 -0.00000000000E+00 -0.69001937146E+02  0.69001937146E+02  0.00000000000E+00 0. -1.
          2    1    1    2  501    0  0.21646331348E+02  0.60328071410E+01 -0.29506810381E+02  0.37089220559E+02  0.00000000000E+00 0. -1.
         -2    1    1    2    0  503 -0.21646331348E+02 -0.60328071410E+01 -0.32168186671E+02  0.39239656682E+02  0.00000000000E+00 0.  1.
<mgrwt>
<rscale>  2 0.22471280E+02</rscale>
<asrwt>0</asrwt>
<pdfrwt beam="1">  1       21 0.11272216E-02 0.22471280E+02</pdfrwt>
<pdfrwt beam="2">  1       21 0.10615683E-01 0.22471280E+02</pdfrwt>
<totfact> 0.14993713E+08</totfact>
</mgrwt>
</event>
<event>
 4    1  0.2821610E+004  0.2335357E+02  0.7546771E-02  0.1685842E+00
         21   -1    0    0  503  502  0.00000000000E+00  0.00000000000E+00  0.17304382898E+02  0.17304382898E+02  0.00000000000E+00 0. -1.
         21   -1    0    0  501  503 -0.00000000000E+00 -0.00000000000E+00 -0.37605389672E+02  0.37605389672E+02  0.00000000000E+00 0.  1.
          2    1    1    2  501    0  0.17490554790E+01  0.23287981267E+02 -0.21197172140E+02  0.31539013512E+02  0.00000000000E+00 0.  1.
         -2    1    1    2    0  502 -0.17490554790E+01 -0.23287981267E+02  0.89616536652E+00  0.23370759057E+02  0.00000000000E+00 0. -1.
<mgrwt>
<rscale>  2 0.23353571E+02</rscale>
<asrwt>0</asrwt>
<pdfrwt beam="1">  1       21 0.26622128E-02 0.23353571E+02</pdfrwt>
<pdfrwt beam="2">  1       21 0.57854444E-02 0.23353571E+02</pdfrwt>
<totfact> 0.10978793E+08</totfact>
</mgrwt>
</event>
<event>
 4    1  0.2821610E+004  0.2396679E+02  0.7546771E-02  0.1676302E+00
         21   -1    0    0  503  502  0.00000000000E+00  0.00000000000E+00  0.36489001061E+03  0.36489001061E+03  0.00000000000E+00 0. -1.
         21   -1    0    0  501  503 -0.00000000000E+00 -0.00000000000E+00 -0.19617526137E+01  0.19617526137E+01  0.00000000000E+00 0.  1.
          2    1    1    2  501    0  0.17225923562E+02 -0.16663566198E+02  0.99935827159E+02  0.10276953065E+03  0.00000000000E+00 0.  1.
         -2    1    1    2    0  502 -0.17225923562E+02  0.16663566198E+02  0.26299243083E+03  0.26408223256E+03  0.00000000000E+00 0. -1.
<mgrwt>
<rscale>  2 0.23966787E+02</rscale>
<asrwt>0</asrwt>
<pdfrwt beam="1">  1       21 0.56136871E-01 0.23966787E+02</pdfrwt>
<pdfrwt beam="2">  1       21 0.30180838E-03 0.23966787E+02</pdfrwt>
<totfact> 0.54254463E+07</totfact>
</mgrwt>
</event>
<event>
 4    1  0.2821610E+004  0.2058359E+02  0.7546771E-02  0.1733966E+00
         21   -1    0    0  501  502  0.00000000000E+00  0.00000000000E+00  0.52709865431E+02  0.52709865431E+02  0.00000000000E+00 0. -1.
         21   -1    0    0  502  503 -0.00000000000E+00 -0.00000000000E+00 -0.15072384078E+02  0.15072384078E+02  0.00000000000E+00 0.  1.
          2    1    1    2  501    0 -0.19297694290E+02 -0.71612342777E+01  0.41971707472E+02  0.46747283444E+02  0.00000000000E+00 0. -1.
         -2    1    1    2    0  503  0.19297694290E+02  0.71612342777E+01 -0.43342261192E+01  0.21034966065E+02  0.00000000000E+00 0.  1.
<mgrwt>
<rscale>  2 0.20583593E+02</rscale>
<asrwt>0</asrwt>
<pdfrwt beam="1">  1       21 0.81092100E-02 0.20583593E+02</pdfrwt>
<pdfrwt beam="2">  1       21 0.23188283E-02 0.20583593E+02</pdfrwt>
<totfact> 0.75968108E+07</totfact>
</mgrwt>
</event>
<event>
 4    1  0.2821610E+004  0.2188147E+02  0.7546771E-02  0.1710310E+00
         21   -1    0    0  503  502  0.00000000000E+00  0.00000000000E+00  0.13895913919E+02  0.13895913919E+02  0.00000000000E+00 0. -1.
         21   -1    0    0  501  503 -0.00000000000E+00 -0.00000000000E+00 -0.35188714892E+02  0.35188714892E+02  0.00000000000E+00 0.  1.
          2    1    1    2  501    0  0.21393436105E+02 -0.45955987000E+01 -0.14187673767E+02  0.26078510746E+02  0.00000000000E+00 0.  1.
         -2    1    1    2    0  502 -0.21393436105E+02  0.45955987000E+01 -0.71051272061E+01  0.23006118065E+02  0.00000000000E+00 0. -1.
<mgrwt>
<rscale>  2 0.21881468E+02</rscale>
<asrwt>0</asrwt>
<pdfrwt beam="1">  1       21 0.21378329E-02 0.21881468E+02</pdfrwt>
<pdfrwt beam="2">  1       21 0.54136484E-02 0.21881468E+02</pdfrwt>
<totfact> 0.16794707E+08</totfact>
</mgrwt>
</event>
<event>
 4    1  0.2821610E+004  0.2489246E+02  0.7546771E-02  0.1662551E+00
         21   -1    0    0  501  502  0.00000000000E+00  0.00000000000E+00  0.13054931051E+01  0.13054931051E+01  0.00000000000E+00 0. -1.
         21   -1    0    0  502  503 -0.00000000000E+00 -0.00000000000E+00 -0.56245011439E+03  0.56245011439E+03  0.00000000000E+00 0.  1.
          2    1    1    2  501    0  0.24686138197E+02  0.31983404700E+01 -0.16919427130E+03  0.17101560234E+03  0.00000000000E+00 0. -1.
         -2    1    1    2    0  503 -0.24686138197E+02 -0.31983404700E+01 -0.39195034999E+03  0.39274000516E+03  0.00000000000E+00 0.  1.
<mgrwt>
<rscale>  2 0.24892465E+02</rscale>
<asrwt>0</asrwt>
<pdfrwt beam="1">  1       21 0.20084504E-03 0.24892465E+02</pdfrwt>
<pdfrwt beam="2">  1       21 0.86530811E-01 0.24892465E+02</pdfrwt>
<totfact> 0.40626639E+07</totfact>
</mgrwt>
</event>
<event>
 4    1  0.2821610E+004  0.2017440E+02  0.7546771E-02  0.1741882E+00
         21   -1    0    0  503  502  0.00000000000E+00  0.00000000000E+00  0.23479336024E+03  0.23479336024E+03  0.00000000000E+00 0. -1.
         21   -1    0    0  501  503 -0.00000000000E+00 -0.00000000000E+00 -0.50191925831E+01  0.50191925831E+01  0.00000000000E+00 0.  1.
          2    1    1    2  501    0 -0.18052130701E+02  0.90070534159E+01  0.17871687615E+02  0.26951876600E+02  0.00000000000E+00 0.  1.
         -2    1    1    2    0  502  0.18052130701E+02 -0.90070534159E+01  0.21190248004E+03  0.21286067622E+03  0.00000000000E+00 0. -1.
<mgrwt>
<rscale>  2 0.20174400E+02</rscale>
<asrwt>0</asrwt>
<pdfrwt beam="1">  1       21 0.36122047E-01 0.20174400E+02</pdfrwt>
<pdfrwt beam="2">  1       21 0.77218365E-03 0.20174400E+02</pdfrwt>
<totfact> 0.30386811E+07</totfact>
</mgrwt>
</event>
<event>
 4    1  0.2821610E+004  0.2049388E+02  0.7546771E-02  0.1735681E+00
         21   -1    0    0  501  502  0.00000000000E+00  0.00000000000E+00  0.90478813442E+02  0.90478813442E+02  0.00000000000E+00 0.  1.
         21   -1    0    0  502  503 -0.00000000000E+00 -0.00000000000E+00 -0.34461031385E+02  0.34461031385E+02  0.00000000000E+00 0. -1.
          2    1    1    2  501    0 -0.12289509644E+02 -0.16400214709E+02  0.86119293540E+02  0.88524187709E+02  0.00000000000E+00 0.  1.
         -2    1    1    2    0  503  0.12289509644E+02  0.16400214709E+02 -0.30101511483E+02  0.36415657118E+02  0.00000000000E+00 0. -1.
<mgrwt>
<rscale>  2 0.20493879E+02</rscale>
<asrwt>0</asrwt>
<pdfrwt beam="1">  1       21 0.13919817E-01 0.20493879E+02</pdfrwt>
<pdfrwt beam="2">  1       21 0.53016972E-02 0.20493879E+02</pdfrwt>
<totfact> 0.85437491E+06</totfact>
</mgrwt>
</event>
<event>
 4    1  0.2821610E+004  0.2445376E+02  0.7546771E-02  0.1668974E+00
         21   -1    0    0  503  502  0.00000000000E+00  0.00000000000E+00  0.26990665854E+03  0.26990665854E+03  0.00000000000E+00 0. -1.
         21   -1    0    0  501  503 -0.00000000000E+00 -0.00000000000E+00 -0.82739596920E+01  0.82739596920E+01  0.00000000000E+00 0.  1.
          2    1    1    2  501    0  0.24371474571E+02 -0.20044483548E+01  0.11796288030E+02  0.27150303815E+02  0.00000000000E+00 0.  1.
         -2    1    1    2    0  502 -0.24371474571E+02  0.20044483548E+01  0.24983641082E+03  0.25103031442E+03  0.00000000000E+00 0. -1.
<mgrwt>
<rscale>  2 0.24453764E+02</rscale>
<asrwt>0</asrwt>
<pdfrwt beam="1">  1       21 0.41524095E-01 0.24453764E+02</pdfrwt>
<pdfrwt beam="2">  1       21 0.12729171E-02 0.24453764E+02</pdfrwt>
<totfact> 0.11514280E+07</totfact>
</mgrwt>
</event>
<event>
 4    1  0.2821610E+004  0.2091764E+02  0.7546771E-02  0.1727672E+00
         21   -1    0    0  501  502  0.00000000000E+00  0.00000000000E+00  0.92012031413E+00  0.92012031413E+00  0.00000000000E+00 0. -1.
         21   -1    0    0  502  503 -0.00000000000E+00 -0.00000000000E+00 -0.87050214863E+03  0.87050214863E+03  0.00000000000E+00 0.  1.
          2    1    1    2  501    0 -0.11832533060E+02 -0.17249311964E+02 -0.14129966509E+03  0.14283957070E+03  0.00000000000E+00 0. -1.
         -2    1    1    2    0  503  0.11832533060E+02  0.17249311964E+02 -0.72828236322E+03  0.72858269825E+03  0.00000000000E+00 0.  1.
<mgrwt>
<rscale>  2 0.20917639E+02</rscale>
<asrwt>0</asrwt>
<pdfrwt beam="1">  1       21 0.14155741E-03 0.20917639E+02</pdfrwt>
<pdfrwt beam="2">  1       21 0.13392299E+00 0.20917639E+02</pdfrwt>
<totfact> 0.24632319E+07</totfact>
</mgrwt>
</event>
<event>
 4    1  0.2821610E+004  0.6423177E+02  0.7546771E-02  0.1380885E+00
         21   -1    0    0  501  502  0.00000000000E+00  0.00000000000E+00  0.90798600774E+01  0.90798600774E+01  0.00000000000E+00 0. -1.
         21   -1    0    0  502  503 -0.00000000000E+00 -0.00000000000E+00 -0.49005050063E+03  0.49005050063E+03  0.00000000000E+00 0.  1.
          2    1    1    2  501    0 -0.62524318599E+02  0.14711555890E+02 -0.17315523820E+03  0.18468474980E+03  0.00000000000E+00 0.  1.
         -2    1    1    2    0  503  0.62524318599E+02 -0.14711555890E+02 -0.30781540236E+03  0.31444561091E+03  0.00000000000E+00 0. -1.
<mgrwt>
<rscale>  2 0.64231770E+02</rscale>
<asrwt>0</asrwt>
<pdfrwt beam="1">  1       21 0.13969014E-02 0.64231770E+02</pdfrwt>
<pdfrwt beam="2">  1       21 0.75392392E-01 0.64231770E+02</pdfrwt>
<totfact> 0.33290374E+06</totfact>
</mgrwt>
</event>
<event>
 4    1  0.2821610E+004  0.4395451E+02  0.7546771E-02  0.1480976E+00
         21   -1    0    0  501  502  0.00000000000E+00  0.00000000000E+00  0.11480379183E+03  0.11480379183E+03  0.00000000000E+00 0. -1.
         21   -1    0    0  502  503 -0.00000000000E+00 -0.00000000000E+00 -0.16939229161E+02  0.16939229161E+02  0.00000000000E+00 0.  1.
          2    1    1    2  501    0 -0.43320957639E+02 -0.74359561812E+01  0.54253181000E+02  0.69824110905E+02  0.00000000000E+00 0.  1.
         -2    1    1    2    0  503  0.43320957639E+02  0.74359561812E+01  0.43611381665E+02  0.61918910082E+02  0.00000000000E+00 0. -1.
<mgrwt>
<rscale>  2 0.43954508E+02</rscale>
<asrwt>0</asrwt>
<pdfrwt beam="1">  1       21 0.17662121E-01 0.43954508E+02</pdfrwt>
<pdfrwt beam="2">  1       21 0.26060353E-02 0.43954508E+02</pdfrwt>
<totfact> 0.19928957E+07</totfact>
</mgrwt>
</event>
<event>
 4    1  0.2821610E+004  0.2531394E+02  0.7546771E-02  0.1656533E+00
         21   -1    0    0  501  502  0.00000000000E+00  0.00000000000E+00  0.59677441934E+01  0.59677441934E+01  0.00000000000E+00 0. -1.
         21   -1    0    0  502  503 -0.00000000000E+00 -0.00000000000E+00 -0.20799391569E+03  0.20799391569E+03  0.00000000000E+00 0.  1.
          2    1    1    2  501    0 -0.14354055186E+02 -0.20850813776E+02 -0.26605488543E+02  0.36723934376E+02  0.00000000000E+00 0. -1.
         -2    1    1    2    0  503  0.14354055186E+02  0.20850813776E+02 -0.17542068296E+03  0.17723772551E+03  0.00000000000E+00 0.  1.
<mgrwt>
<rscale>  2 0.25313936E+02</rscale>
<asrwt>0</asrwt>
<pdfrwt beam="1">  1       21 0.91811439E-03 0.25313936E+02</pdfrwt>
<pdfrwt beam="2">  1       21 0.31999068E-01 0.25313936E+02</pdfrwt>
<totfact> 0.30884881E+07</totfact>
</mgrwt>
</event>
<event>
 4    1  0.2821610E+004  0.3147147E+02  0.7546771E-02  0.1582371E+00
         21   -1    0    0  503  502  0.00000000000E+00  0.00000000000E+00  0.47856102039E+02  0.47856102039E+02  0.00000000000E+00 0. -1.
         21   -1    0    0  501  503 -0.00000000000E+00 -0.00000000000E+00 -0.21676482509E+02  0.21676482509E+02  0.00000000000E+00 0.  1.
          2    1    1    2  501    0 -0.24783341819E+02  0.19396886930E+02  0.56975752818E+01  0.31983052050E+02  0.00000000000E+00 0.  1.
         -2    1    1    2    0  502  0.24783341819E+02 -0.19396886930E+02  0.20482044247E+02  0.37549532499E+02  0.00000000000E+00 0. -1.
<mgrwt>
<rscale>  2 0.31471467E+02</rscale>
<asrwt>0</asrwt>
<pdfrwt beam="1">  1       21 0.73624772E-02 0.31471467E+02</pdfrwt>
<pdfrwt beam="2">  1       21 0.33348435E-02 0.31471467E+02</pdfrwt>
<totfact> 0.56233215E+07</totfact>
</mgrwt>
</event>
<event>
 4    1  0.2821610E+004  0.3038477E+02  0.7546771E-02  0.1593874E+00
         21   -1    0    0  501  502  0.00000000000E+00  0.00000000000E+00  0.55781342211E+01  0.55781342211E+01  0.00000000000E+00 0.  1.
         21   -1    0    0  502  503 -0.00000000000E+00 -0.00000000000E+00 -0.20572168885E+03  0.20572168885E+03  0.00000000000E+00 0. -1.
          2    1    1    2  501    0  0.27671221951E+02 -0.12551406891E+02 -0.53361996975E+02  0.61406327527E+02  0.00000000000E+00 0.  1.
         -2    1    1    2    0  503 -0.27671221951E+02  0.12551406891E+02 -0.14678155765E+03  0.14989349554E+03  0.00000000000E+00 0. -1.
<mgrwt>
<rscale>  2 0.30384772E+02</rscale>
<asrwt>0</asrwt>
<pdfrwt beam="1">  1       21 0.85817466E-03 0.30384772E+02</pdfrwt>
<pdfrwt beam="2">  1       21 0.31649485E-01 0.30384772E+02</pdfrwt>
<totfact> 0.36225056E+07</totfact>
</mgrwt>
</event>
<event>
 4    1  0.2821610E+004  0.2405503E+02  0.7546771E-02  0.1674958E+00
         21   -1    0    0  503  502  0.00000000000E+00  0.00000000000E+00  0.31424375561E+03  0.31424375561E+03  0.00000000000E+00 0.  1.
         21   -1    0    0  501  503 -0.00000000000E+00 -0.00000000000E+00 -0.39581726076E+01  0.39581726076E+01  0.00000000000E+00 0. -1.
          2    1    1    2  501    0 -0.24447977137E+01 -0.23930471836E+02  0.38793475534E+02  0.45646229441E+02  0.00000000000E+00 0. -1.
         -2    1    1    2    0  502  0.24447977137E+01  0.23930471836E+02  0.27149210747E+03  0.27255569878E+03  0.00000000000E+00 0.  1.
<mgrwt>
<rscale>  2 0.24055031E+02</rscale>
<asrwt>0</asrwt>
<pdfrwt beam="1">  1       21 0.48345173E-01 0.24055031E+02</pdfrwt>
<pdfrwt beam="2">  1       21 0.60894988E-03 0.24055031E+02</pdfrwt>
<totfact> 0.25901338E+07</totfact>
</mgrwt>
</event>
<event>
 4    1  0.2821610E+004  0.2383883E+02  0.7546771E-02  0.1678263E+00
         21   -1    0    0  503  502  0.00000000000E+00  0.00000000000E+00  0.14865021295E+01  0.14865021295E+01  0.00000000000E+00 0.  1.
         21   -1    0    0  501  503 -0.00000000000E+00 -0.00000000000E+00 -0.47256585673E+03  0.47256585673E+03  0.00000000000E+00 0. -1.
          2    1    1    2  501    0 -0.17554096160E+02  0.16128965562E+02 -0.33913181772E+03  0.33996864504E+03  0.00000000000E+00 0.  1.
         -2    1    1    2    0  502  0.17554096160E+02 -0.16128965562E+02 -0.13194753688E+03  0.13408371382E+03  0.00000000000E+00 0. -1.
<mgrwt>
<rscale>  2 0.23838830E+02</rscale>
<asrwt>0</asrwt>
<pdfrwt beam="1">  1       21 0.22869282E-03 0.23838830E+02</pdfrwt>
<pdfrwt beam="2">  1       21 0.72702382E-01 0.23838830E+02</pdfrwt>
<totfact> 0.48075119E+07</totfact>
</mgrwt>
</event>
<event>
 4    1  0.2821610E+004  0.2026578E+02  0.7546771E-02  0.1740094E+00
         21   -1    0    0  503  502  0.00000000000E+00  0.00000000000E+00  0.91705555644E+01  0.91705555644E+01  0.00000000000E+00 0.  1.
         21   -1    0    0  501  503 -0.00000000000E+00 -0.00000000000E+00 -0.44828238373E+02  0.44828238373E+02  0.00000000000E+00 0. -1.
          2    1    1    2  501    0  0.18304347508E+02  0.86978611744E+01 -0.16988838932E+02  0.26444707881E+02  0.00000000000E+00 0.  1.
         -2    1    1    2    0  502 -0.18304347508E+02 -0.86978611744E+01 -0.18668843877E+02  0.27554086056E+02  0.00000000000E+00 0. -1.
<mgrwt>
<rscale>  2 0.20265782E+02</rscale>
<asrwt>0</asrwt>
<pdfrwt beam="1">  1       21 0.14108547E-02 0.20265782E+02</pdfrwt>
<pdfrwt beam="2">  1       21 0.68966521E-02 0.20265782E+02</pdfrwt>
<totfact> 0.20936206E+08</totfact>
</mgrwt>
</event>
<event>
 4    1  0.2821610E+004  0.2009841E+02  0.7546771E-02  0.1743378E+00
         21   -1    0    0  503  502  0.00000000000E+00  0.00000000000E+00  0.25373378337E+01  0.25373378337E+01  0.00000000000E+00 0.  1.
         21   -1    0    0  501  503 -0.00000000000E+00 -0.00000000000E+00 -0.24470611121E+03  0.24470611121E+03  0.00000000000E+00 0. -1.
          2    1    1    2  501    0  0.79915003943E+00 -0.20082516081E+02 -0.48009347625E+02  0.52046551781E+02  0.00000000000E+00 0.  1.
         -2    1    1    2    0  502 -0.79915003943E+00  0.20082516081E+02 -0.19415942575E+03  0.19519689726E+03  0.00000000000E+00 0. -1.
<mgrwt>
<rscale>  2 0.20098410E+02</rscale>
<asrwt>0</asrwt>
<pdfrwt beam="1">  1       21 0.39035976E-03 0.20098410E+02</pdfrwt>
<pdfrwt beam="2">  1       21 0.37647085E-01 0.20098410E+02</pdfrwt>
<totfact> 0.76722617E+07</totfact>
</mgrwt>
</event>
<event>
 4    1  0.2821610E+004  0.2399282E+02  0.7546771E-02  0.1675905E+00
         21   -1    0    0  503  502  0.00000000000E+00  0.00000000000E+00  0.83124517353E+03  0.83124517353E+03  0.00000000000E+00 0.  1.
         21   -1    0    0  501  503 -0.00000000000E+00 -0.00000000000E+00 -0.33254873116E+01  0.33254873116E+01  0.00000000000E+00 0. -1.
          2    1    1    2  501    0 -0.13896285709E+02 -0.19558845477E+02  0.42657169831E+02  0.48941693175E+02  0.00000000000E+00 0. -1.
         -2    1    1    2    0  502  0.13896285709E+02  0.19558845477E+02  0.78526251639E+03  0.78562896767E+03  0.00000000000E+00 0.  1.
<mgrwt>
<rscale>  2 0.23992815E+02</rscale>
<asrwt>0</asrwt>
<pdfrwt beam="1">  1       21 0.12788371E+00 0.23992815E+02</pdfrwt>
<pdfrwt beam="2">  1       21 0.51161410E-03 0.23992815E+02</pdfrwt>
<totfact> 0.43301186E+06</totfact>
</mgrwt>
</event>
<event>
 4    1  0.2821610E+004  0.2282380E+02  0.7546771E-02  0.1694382E+00
         21   -1    0    0  503  502  0.00000000000E+00  0.00000000000E+00  0.57967388394E+01  0.57967388394E+01  0.00000000000E+00 0.  1.
         21   -1    0    0  501  503 -0.00000000000E+00 -0.00000000000E+00 -0.11282778742E+03  0.11282778742E+03  0.00000000000E+00 0. -1.
          2    1    1    2  501    0  0.19338369437E+02  0.12122434971E+02 -0.80273019511E+02  0.83454680058E+02  0.00000000000E+00 0.  1.
         -2    1    1    2    0  502 -0.19338369437E+02 -0.12122434971E+02 -0.26758029067E+02  0.35169846200E+02  0.00000000000E+00 0. -1.
<mgrwt>
<rscale>  2 0.22823803E+02</rscale>
<asrwt>0</asrwt>
<pdfrwt beam="1">  1       21 0.89180602E-03 0.22823803E+02</pdfrwt>
<pdfrwt beam="2">  1       21 0.17358120E-01 0.22823803E+02</pdfrwt>
<totfact> 0.93296732E+07</totfact>
</mgrwt>
</event>
<event>
 4    1  0.2821610E+004  0.2294655E+02  0.7546771E-02  0.1692378E+00
         21   -1    0    0  501  502  0.00000000000E+00  0.00000000000E+00  0.27004937040E+03  0.27004937040E+03  0.00000000000E+00 0.  1.
         21   -1    0    0  502  503 -0.00000000000E+00 -0.00000000000E+00 -0.23251110987E+01  0.23251110987E+01  0.00000000000E+00 0. -1.
          2    1    1    2  501    0 -0.22883525349E+02  0.16995785988E+01  0.18857706682E+03  0.18996803528E+03  0.00000000000E+00 0.  1.
         -2    1    1    2    0  503  0.22883525349E+02 -0.16995785988E+01  0.79147192482E+02  0.82406446213E+02  0.00000000000E+00 0. -1.
<mgrwt>
<rscale>  2 0.22946553E+02</rscale>
<asrwt>0</asrwt>
<pdfrwt beam="1">  1       21 0.41546032E-01 0.22946553E+02</pdfrwt>
<pdfrwt beam="2">  1       21 0.35770961E-03 0.22946553E+02</pdfrwt>
<totfact> 0.75008572E+07</totfact>
</mgrwt>
</event>
<event>
 4    1  0.2821610E+004  0.2863486E+02  0.7546771E-02  0.1613688E+00
         21   -1    0    0  501  502  0.00000000000E+00  0.00000000000E+00  0.21817639202E+02  0.21817639202E+02  0.00000000000E+00 0. -1.
         21   -1    0    0  502  503 -0.00000000000E+00 -0.00000000000E+00 -0.54827421468E+02  0.54827421468E+02  0.00000000000E+00 0.  1.
          2    1    1    2  501    0  0.21165988307E+02  0.19286169620E+02  0.49877285626E+01  0.29066008255E+02  0.00000000000E+00 0. -1.
         -2    1    1    2    0  503 -0.21165988307E+02 -0.19286169620E+02 -0.37997510828E+02  0.47579052415E+02  0.00000000000E+00 0.  1.
<mgrwt>
<rscale>  2 0.28634863E+02</rscale>
<asrwt>0</asrwt>
<pdfrwt beam="1">  1       21 0.33565599E-02 0.28634863E+02</pdfrwt>
<pdfrwt beam="2">  1       21 0.84349878E-02 0.28634863E+02</pdfrwt>
<totfact> 0.43571842E+07</totfact>
</mgrwt>
</event>
<event>
 4    1  0.2821610E+004  0.2206292E+02  0.7546771E-02  0.1707166E+00
         21   -1    0    0  503  502  0.00000000000E+00  0.00000000000E+00  0.30147907559E+02  0.30147907559E+02  0.00000000000E+00 0. -1.
         21   -1    0    0  501  503 -0.00000000000E+00 -0.00000000000E+00 -0.35303168339E+02  0.35303168339E+02  0.00000000000E+00 0.  1.
          2    1    1    2  501    0  0.19340723757E+02 -0.10616439520E+02 -0.26684676887E+02  0.34624331966E+02  0.00000000000E+00 0.  1.
         -2    1    1    2    0  502 -0.19340723757E+02  0.10616439520E+02  0.21529416108E+02  0.30826743932E+02  0.00000000000E+00 0. -1.
<mgrwt>
<rscale>  2 0.22062919E+02</rscale>
<asrwt>0</asrwt>
<pdfrwt beam="1">  1       21 0.46381396E-02 0.22062919E+02</pdfrwt>
<pdfrwt beam="2">  1       21 0.54312566E-02 0.22062919E+02</pdfrwt>
<totfact> 0.50102992E+07</totfact>
</mgrwt>
</event>
<event>
 4    1  0.2821610E+004  0.2329258E+02  0.7546771E-02  0.1686811E+00
         21   -1    0    0  501  502  0.00000000000E+00  0.00000000000E+00  0.16386644623E+03  0.16386644623E+03  0.00000000000E+00 0.  1.
         21   -1    0    0  502  503 -0.00000000000E+00 -0.00000000000E+00 -0.90913378715E+01  0.90913378715E+01  0.00000000000E+00 0. -1.
          2    1    1    2  501    0 -0.23290936746E+02 -0.27664260924E+00  0.14634431465E+03  0.14818637824E+03  0.00000000000E+00 0.  1.
         -2    1    1    2    0  503  0.23290936746E+02  0.27664260924E+00  0.84307937046E+01  0.24771405857E+02  0.00000000000E+00 0. -1.
<mgrwt>
<rscale>  2 0.23292580E+02</rscale>
<asrwt>0</asrwt>
<pdfrwt beam="1">  1       21 0.25210220E-01 0.23292580E+02</pdfrwt>
<pdfrwt beam="2">  1       21 0.13986675E-02 0.23292580E+02</pdfrwt>
<totfact> 0.24744402E+07</totfact>
</mgrwt>
</event>
<event>
 4    1  0.2821610E+004  0.4460840E+02  0.7546771E-02  0.1476801E+00
         21   -1    0    0  501  502  0.00000000000E+00  0.00000000000E+00  0.14021346159E+04  0.14021346159E+04  0.00000000000E+00 0.  1.
         21   -1    0    0  502  503 -0.00000000000E+00 -0.00000000000E+00 -0.14481156066E+01  0.14481156066E+01  0.00000000000E+00 0. -1.
          2    1    1    2  501    0  0.43724763581E+02 -0.88348283582E+01  0.60117464868E+03  0.60282739433E+03  0.00000000000E+00 0. -1.
         -2    1    1    2    0  503 -0.43724763581E+02  0.88348283582E+01  0.79951185159E+03  0.80075533715E+03  0.00000000000E+00 0.  1.
<mgrwt>
<rscale>  2 0.44608398E+02</rscale>
<asrwt>0</asrwt>
<pdfrwt beam="1">  1       21 0.21571193E+00 0.44608398E+02</pdfrwt>
<pdfrwt beam="2">  1       21 0.22278814E-03 0.44608398E+02</pdfrwt>
<totfact> 0.41776818E+06</totfact>
</mgrwt>
</event>
<event>
 4    1  0.2821610E+004  0.2550346E+02  0.7546771E-02  0.1653874E+00
         21   -1    0    0  501  502  0.00000000000E+00  0.00000000000E+00  0.11388130650E+03  0.11388130650E+03  0.00000000000E+00 0.  1.
         21   -1    0    0  502  503 -0.00000000000E+00 -0.00000000000E+00 -0.10363114559E+02  0.10363114559E+02  0.00000000000E+00 0. -1.
          2    1    1    2  501    0 -0.20878698650E+02  0.14646045153E+02  0.93379494070E+02  0.96799569259E+02  0.00000000000E+00 0.  1.
         -2    1    1    2    0  503  0.20878698650E+02 -0.14646045153E+02  0.10138697874E+02  0.27444851804E+02  0.00000000000E+00 0. -1.
<mgrwt>
<rscale>  2 0.25503464E+02</rscale>
<asrwt>0</asrwt>
<pdfrwt beam="1">  1       21 0.17520200E-01 0.25503464E+02</pdfrwt>
<pdfrwt beam="2">  1       21 0.15943254E-02 0.25503464E+02</pdfrwt>
<totfact> 0.39217666E+07</totfact>
</mgrwt>
</event>
<event>
 4    1  0.2821610E+004  0.2722400E+02  0.7546771E-02  0.1630970E+00
         21   -1    0    0  503  502  0.00000000000E+00  0.00000000000E+00  0.17158306056E+01  0.17158306056E+01  0.00000000000E+00 0.  1.
         21   -1    0    0  501  503 -0.00000000000E+00 -0.00000000000E+00 -0.49103745590E+03  0.49103745590E+03  0.00000000000E+00 0. -1.
          2    1    1    2  501    0 -0.23023970194E+02 -0.14527312483E+02 -0.33012908024E+03  0.33124968775E+03  0.00000000000E+00 0. -1.
         -2    1    1    2    0  502  0.23023970194E+02  0.14527312483E+02 -0.15919254505E+03  0.16150359875E+03  0.00000000000E+00 0.  1.
<mgrwt>
<rscale>  2 0.27223997E+02</rscale>
<asrwt>0</asrwt>
<pdfrwt beam="1">  1       21 0.26397407E-03 0.27223997E+02</pdfrwt>
<pdfrwt beam="2">  1       21 0.75544186E-01 0.27223997E+02</pdfrwt>
<totfact> 0.37029403E+07</totfact>
</mgrwt>
</event>
<event>
 4    1  0.2821610E+004  0.2041601E+02  0.7546771E-02  0.1737180E+00
         21   -1    0    0  501  502  0.00000000000E+00  0.00000000000E+00  0.49416802531E+01  0.49416802531E+01  0.00000000000E+00 0.  1.
         21   -1    0    0  502  503 -0.00000000000E+00 -0.00000000000E+00 -0.10503311806E+03  0.10503311806E+03  0.00000000000E+00 0. -1.
          2    1    1    2  501    0 -0.39577114283E+01  0.20028723919E+02 -0.25642609748E+02  0.32777380863E+02  0.00000000000E+00 0. -1.
         -2    1    1    2    0  503  0.39577114283E+01 -0.20028723919E+02 -0.74448828060E+02  0.77197417450E+02  0.00000000000E+00 0.  1.
<mgrwt>
<rscale>  2 0.20416005E+02</rscale>
<asrwt>0</asrwt>
<pdfrwt beam="1">  1       21 0.76025851E-03 0.20416005E+02</pdfrwt>
<pdfrwt beam="2">  1       21 0.16158941E-01 0.20416005E+02</pdfrwt>
<totfact> 0.12958371E+08</totfact>
</mgrwt>
</event>
<event>
 4    1  0.2821610E+004  0.5197450E+02  0.7546771E-02  0.1434974E+00
         21   -1    0    0  501  502  0.00000000000E+00  0.00000000000E+00  0.25978095608E+02  0.25978095608E+02  0.00000000000E+00 0.  1.
         21   -1    0    0  502  503 -0.00000000000E+00 -0.00000000000E+00 -0.11855946978E+03  0.11855946978E+03  0.00000000000E+00 0. -1.
          2    1    1    2  501    0  0.43793751472E+02  0.27990281938E+02 -0.20952842936E+02  0.56039005863E+02  0.00000000000E+00 0.  1.
         -2    1    1    2    0  503 -0.43793751472E+02 -0.27990281938E+02 -0.71628531241E+02  0.88498559529E+02  0.00000000000E+00 0. -1.
<mgrwt>
<rscale>  2 0.51974499E+02</rscale>
<asrwt>0</asrwt>
<pdfrwt beam="1">  1       21 0.39966301E-02 0.51974499E+02</pdfrwt>
<pdfrwt beam="2">  1       21 0.18239918E-01 0.51974499E+02</pdfrwt>
<totfact> 0.97002842E+06</totfact>
</mgrwt>
</event>
<event>
 4    1  0.2821610E+004  0.2104587E+02  0.7546771E-02  0.1725295E+00
         21   -1    0    0  501  502  0.00000000000E+00  0.00000000000E+00  0.12734999157E+01  0.12734999157E+01  0.00000000000E+00 0. -1.
         21   -1    0    0  502  503 -0.00000000000E+00 -0.00000000000E+00 -0.56424752754E+03  0.56424752754E+03  0.00000000000E+00 0.  1.
          2    1    1    2  501    0  0.19008104104E+02 -0.90344242022E+01 -0.10635890610E+03  0.10842114991E+03  0.00000000000E+00 0. -1.
         -2    1    1    2    0  503 -0.19008104104E+02  0.90344242022E+01 -0.45661512153E+03  0.45709987755E+03  0.00000000000E+00 0.  1.
<mgrwt>
<rscale>  2 0.21045875E+02</rscale>
<asrwt>0</asrwt>
<pdfrwt beam="1">  1       21 0.19592306E-03 0.21045875E+02</pdfrwt>
<pdfrwt beam="2">  1       21 0.86807314E-01 0.21045875E+02</pdfrwt>
<totfact> 0.40334000E+07</totfact>
</mgrwt>
</event>
<event>
 4    1  0.2821610E+004  0.2658417E+02  0.7546771E-02  0.1639238E+00
         21   -1    0    0  501  502  0.00000000000E+00  0.00000000000E+00  0.70414054874E+01  0.70414054874E+01  0.00000000000E+00 0.  1.
         21   -1    0    0  502  503 -0.00000000000E+00 -0.00000000000E+00 -0.11034245128E+03  0.11034245128E+03  0.00000000000E+00 0. -1.
          2    1    1    2  501    0 -0.87987908065E+01 -0.25085843497E+02 -0.34002609025E+02  0.43161275284E+02  0.00000000000E+00 0.  1.
         -2    1    1    2    0  503  0.87987908065E+01  0.25085843497E+02 -0.69298436767E+02  0.74222581483E+02  0.00000000000E+00 0. -1.
<mgrwt>
<rscale>  2 0.26584173E+02</rscale>
<asrwt>0</asrwt>
<pdfrwt beam="1">  1       21 0.10832933E-02 0.26584173E+02</pdfrwt>
<pdfrwt beam="2">  1       21 0.16975759E-01 0.26584173E+02</pdfrwt>
<totfact> 0.75275402E+07</totfact>
</mgrwt>
</event>
<event>
 4    1  0.2821610E+004  0.3327510E+02  0.7546771E-02  0.1564474E+00
         21   -1    0    0  503  502  0.00000000000E+00  0.00000000000E+00  0.47009479104E+02  0.47009479104E+02  0.00000000000E+00 0.  1.
         21   -1    0    0  501  503 -0.00000000000E+00 -0.00000000000E+00 -0.59450065287E+02  0.59450065287E+02  0.00000000000E+00 0. -1.
          2    1    1    2  501    0  0.30147237841E+02 -0.14084604551E+02 -0.47582683069E+02  0.58063273787E+02  0.00000000000E+00 0. -1.
         -2    1    1    2    0  502 -0.30147237841E+02  0.14084604551E+02  0.35142096886E+02  0.48396270604E+02  0.00000000000E+00 0.  1.
<mgrwt>
<rscale>  2 0.33275096E+02</rscale>
<asrwt>0</asrwt>
<pdfrwt beam="1">  1       21 0.72322276E-02 0.33275096E+02</pdfrwt>
<pdfrwt beam="2">  1       21 0.91461639E-02 0.33275096E+02</pdfrwt>
<totfact> 0.11392120E+07</totfact>
</mgrwt>
</event>
<event>
 4    1  0.2821610E+004  0.2178372E+02  0.7546771E-02  0.1712020E+00
         21   -1    0    0  503  502  0.00000000000E+00  0.00000000000E+00  0.62706232273E+03  0.62706232273E+03  0.00000000000E+00 0.  1.
         21   -1    0    0  501  503 -0.00000000000E+00 -0.00000000000E+00 -0.61524880723E+01  0.61524880723E+01  0.00000000000E+00 0. -1.
          2    1    1    2  501    0  0.21349120977E+02  0.43295892709E+01  0.13957407232E+02  0.25871596904E+02  0.00000000000E+00 0. -1.
         -2    1    1    2    0  502 -0.21349120977E+02 -0.43295892709E+01  0.60695242742E+03  0.60734321389E+03  0.00000000000E+00 0.  1.
<mgrwt>
<rscale>  2 0.21783717E+02</rscale>
<asrwt>0</asrwt>
<pdfrwt beam="1">  1       21 0.96471076E-01 0.21783717E+02</pdfrwt>
<pdfrwt beam="2">  1       21 0.94653712E-03 0.21783717E+02</pdfrwt>
<totfact> 0.32135804E+06</totfact>
</mgrwt>
</event>
<event>
 4    1  0.2821610E+004  0.2374038E+02  0.7546771E-02  0.1679782E+00
         21   -1    0    0  503  502  0.00000000000E+00  0.00000000000E+00  0.11617367304E+04  0.11617367304E+04  0.00000000000E+00 0.  1.
         21   -1    0    0  501  503 -0.00000000000E+00 -0.00000000000E+00 -0.60876250811E+00  0.60876250811E+00  0.00000000000E+00 0. -1.
          2    1    1    2  501    0 -0.20091465868E+02 -0.12646693215E+02  0.31866807340E+03  0.31955116469E+03  0.00000000000E+00 0. -1.
         -2    1    1    2    0  502  0.20091465868E+02  0.12646693215E+02  0.84245989452E+03  0.84279432824E+03  0.00000000000E+00 0.  1.
<mgrwt>
<rscale>  2 0.23740384E+02</rscale>
<asrwt>0</asrwt>
<pdfrwt beam="1">  1       21 0.17872695E+00 0.23740384E+02</pdfrwt>
<pdfrwt beam="2">  1       21 0.93656700E-04 0.23740384E+02</pdfrwt>
<totfact> 0.22788680E+07</totfact>
</mgrwt>
</event>
<event>
 4    1  0.2821610E+004  0.5735160E+02  0.7546771E-02  0.1409294E+00
         21   -1    0    0  501  502  0.00000000000E+00  0.00000000000E+00  0.22931421236E+03  0.22931421236E+03  0.00000000000E+00 0.  1.
         21   -1    0    0  502  503 -0.00000000000E+00 -0.00000000000E+00 -0.14385875006E+02  0.14385875006E+02  0.00000000000E+00 0. -1.
          2    1    1    2  501    0 -0.57070519930E+02  0.56711349680E+01  0.11406456938E+03  0.12767118706E+03  0.00000000000E+00 0.  1.
         -2    1    1    2    0  503  0.57070519930E+02 -0.56711349680E+01  0.10086376798E+03  0.11602890031E+03  0.00000000000E+00 0. -1.
<mgrwt>
<rscale>  2 0.57351600E+02</rscale>
<asrwt>0</asrwt>
<pdfrwt beam="1">  1       21 0.35279107E-01 0.57351600E+02</pdfrwt>
<pdfrwt beam="2">  1       21 0.22132117E-02 0.57351600E+02</pdfrwt>
<totfact> 0.74697249E+06</totfact>
</mgrwt>
</event>
<event>
 4    1  0.2821610E+004  0.2359339E+02  0.7546771E-02  0.1682068E+00
         21   -1    0    0  503  502  0.00000000000E+00  0.00000000000E+00  0.47969269968E+01  0.47969269968E+01  0.00000000000E+00 0. -1.
         21   -1    0    0  501  503 -0.00000000000E+00 -0.00000000000E+00 -0.11811585955E+03  0.11811585955E+03  0.00000000000E+00 0.  1.
          2    1    1    2  501    0  0.10480381016E+02  0.21137876126E+02 -0.64801501416E+02  0.68962908720E+02  0.00000000000E+00 0.  1.
         -2    1    1    2    0  502 -0.10480381016E+02 -0.21137876126E+02 -0.48517431140E+02  0.53949877830E+02  0.00000000000E+00 0. -1.
<mgrwt>
<rscale>  2 0.23593393E+02</rscale>
<asrwt>0</asrwt>
<pdfrwt beam="1">  1       21 0.73798876E-03 0.23593393E+02</pdfrwt>
<pdfrwt beam="2">  1       21 0.18171671E-01 0.23593393E+02</pdfrwt>
<totfact> 0.11543899E+08</totfact>
</mgrwt>
</event>
<event>
 4    1  0.2821610E+004  0.2597730E+02  0.7546771E-02  0.1647349E+00
         21   -1    0    0  501  502  0.00000000000E+00  0.00000000000E+00  0.29955136557E+01  0.29955136557E+01  0.00000000000E+00 0. -1.
         21   -1    0    0  502  503 -0.00000000000E+00 -0.00000000000E+00 -0.25622607050E+03  0.25622607050E+03  0.00000000000E+00 0.  1.
          2    1    1    2  501    0 -0.78799120341E+01 -0.24753328641E+02 -0.81569572307E+02  0.85606164607E+02  0.00000000000E+00 0. -1.
         -2    1    1    2    0  503  0.78799120341E+01  0.24753328641E+02 -0.17166098453E+03  0.17361541955E+03  0.00000000000E+00 0.  1.
<mgrwt>
<rscale>  2 0.25977303E+02</rscale>
<asrwt>0</asrwt>
<pdfrwt beam="1">  1       21 0.46084806E-03 0.25977303E+02</pdfrwt>
<pdfrwt beam="2">  1       21 0.39419412E-01 0.25977303E+02</pdfrwt>
<totfact> 0.58808396E+07</totfact>
</mgrwt>
</event>
<event>
 4    1  0.2821610E+004  0.2168387E+02  0.7546771E-02  0.1713777E+00
         21   -1    0    0  501  502  0.00000000000E+00  0.00000000000E+00  0.56376479509E+02  0.56376479509E+02  0.00000000000E+00 0. -1.
         21   -1    0    0  502  503 -0.00000000000E+00 -0.00000000000E+00 -0.18309051811E+02  0.18309051811E+02  0.00000000000E+00 0.  1.
          2    1    1    2  501    0 -0.45441786983E+01  0.21202376454E+02  0.46588460776E+02  0.51387498526E+02  0.00000000000E+00 0. -1.
         -2    1    1    2    0  503  0.45441786983E+01 -0.21202376454E+02 -0.85210330781E+01  0.23298032794E+02  0.00000000000E+00 0.  1.
<mgrwt>
<rscale>  2 0.21683873E+02</rscale>
<asrwt>0</asrwt>
<pdfrwt beam="1">  1       21 0.86733044E-02 0.21683873E+02</pdfrwt>
<pdfrwt beam="2">  1       21 0.28167772E-02 0.21683873E+02</pdfrwt>
<totfact> 0.51151195E+07</totfact>
</mgrwt>
</event>
<event>
 4    1  0.2821610E+004  0.2350995E+02  0.7546771E-02  0.1683375E+00
         21   -1    0    0  501  502  0.00000000000E+00  0.00000000000E+00  0.42301075169E+02  0.42301075169E+02  0.00000000000E+00 0.  1.
         21   -1    0    0  502  503 -0.00000000000E+00 -0.00000000000E+00 -0.65620173383E+02  0.65620173383E+02  0.00000000000E+00 0. -1.
          2    1    1    2  501    0  0.23321695194E+02 -0.29692328176E+01  0.36630841131E+02  0.43526271747E+02  0.00000000000E+00 0.  1.
         -2    1    1    2    0  503 -0.23321695194E+02  0.29692328176E+01 -0.59949939345E+02  0.64394976805E+02  0.00000000000E+00 0. -1.
<mgrwt>
<rscale>  2 0.23509951E+02</rscale>
<asrwt>0</asrwt>
<pdfrwt beam="1">  1       21 0.65078577E-02 0.23509951E+02</pdfrwt>
<pdfrwt beam="2">  1       21 0.10095411E-01 0.23509951E+02</pdfrwt>
<totfact> 0.10806446E+07</totfact>
</mgrwt>
</event>
<event>
 4    1  0.2821610E+004  0.2178520E+02  0.7546771E-02  0.1711993E+00
         21   -1    0    0  503  502  0.00000000000E+00  0.00000000000E+00  0.22680349187E+03  0.22680349187E+03  0.00000000000E+00 0. -1.
         21   -1    0    0  501  503 -0.00000000000E+00 -0.00000000000E+00 -0.36205339690E+01  0.36205339690E+01  0.00000000000E+00 0.  1.
          2    1    1    2  501    0  0.10682862222E+02  0.18986088338E+02  0.36744814851E+02  0.42717402942E+02  0.00000000000E+00 0.  1.
         -2    1    1    2    0  502 -0.10682862222E+02 -0.18986088338E+02  0.18643814305E+03  0.18770662289E+03  0.00000000000E+00 0. -1.
<mgrwt>
<rscale>  2 0.21785204E+02</rscale>
<asrwt>0</asrwt>
<pdfrwt beam="1">  1       21 0.34892834E-01 0.21785204E+02</pdfrwt>
<pdfrwt beam="2">  1       21 0.55700540E-03 0.21785204E+02</pdfrwt>
<totfact> 0.53523038E+07</totfact>
</mgrwt>
</event>
<event>
 4    1  0.2821610E+004  0.2331507E+02  0.7546771E-02  0.1686453E+00
         21   -1    0    0  503  502  0.00000000000E+00  0.00000000000E+00  0.16950508517E+03  0.16950508517E+03  0.00000000000E+00 0. -1.
         21   -1    0    0  501  503 -0.00000000000E+00 -0.00000000000E+00 -0.12323757806E+02  0.12323757806E+02  0.00000000000E+00 0.  1.
          2    1    1    2  501    0 -0.23312003730E+02  0.37826038901E+00  0.39496839982E+00  0.23318417590E+02  0.00000000000E+00 0.  1.
         -2    1    1    2    0  502  0.23312003730E+02 -0.37826038901E+00  0.15678635897E+03  0.15851042539E+03  0.00000000000E+00 0. -1.
<mgrwt>
<rscale>  2 0.23315072E+02</rscale>
<asrwt>0</asrwt>
<pdfrwt beam="1">  1       21 0.26077704E-01 0.23315072E+02</pdfrwt>
<pdfrwt beam="2">  1       21 0.18959629E-02 0.23315072E+02</pdfrwt>
<totfact> 0.14650032E+07</totfact>
</mgrwt>
</event>
<event>
 4    1  0.2821610E+004  0.2262631E+02  0.7546771E-02  0.1697640E+00
         21   -1    0    0  501  502  0.00000000000E+00  0.00000000000E+00  0.69192085770E+02  0.69192085770E+02  0.00000000000E+00 0.  1.
         21   -1    0    0  502  503 -0.00000000000E+00 -0.00000000000E+00 -0.60352999566E+02  0.60352999566E+02  0.00000000000E+00 0. -1.
          2    1    1    2  501    0 -0.12635738590E+02  0.18769334122E+02  0.65091924993E+02  0.68912324677E+02  0.00000000000E+00 0.  1.
         -2    1    1    2    0  503  0.12635738590E+02 -0.18769334122E+02 -0.56252838789E+02  0.60632760658E+02  0.00000000000E+00 0. -1.
<mgrwt>
<rscale>  2 0.22626308E+02</rscale>
<asrwt>0</asrwt>
<pdfrwt beam="1">  1       21 0.10644936E-01 0.22626308E+02</pdfrwt>
<pdfrwt beam="2">  1       21 0.92850769E-02 0.22626308E+02</pdfrwt>
<totfact> 0.55072815E+06</totfact>
</mgrwt>
</event>
<event>
 4    1  0.2821610E+004  0.2230956E+02  0.7546771E-02  0.1702953E+00
         21   -1    0    0  503  502  0.00000000000E+00  0.00000000000E+00  0.58510197671E+01  0.58510197671E+01  0.00000000000E+00 0.  1.
         21   -1    0    0  501  503 -0.00000000000E+00 -0.00000000000E+00 -0.85536872013E+02  0.85536872013E+02  0.00000000000E+00 0. -1.
          2    1    1    2  501    0 -0.20313552962E+02 -0.92236643283E+01 -0.36448709039E+02  0.42734351618E+02  0.00000000000E+00 0. -1.
         -2    1    1    2    0  502  0.20313552962E+02  0.92236643283E+01 -0.43237143206E+02  0.48653540161E+02  0.00000000000E+00 0.  1.
<mgrwt>
<rscale>  2 0.22309559E+02</rscale>
<asrwt>0</asrwt>
<pdfrwt beam="1">  1       21 0.90015683E-03 0.22309559E+02</pdfrwt>
<pdfrwt beam="2">  1       21 0.13159520E-01 0.22309559E+02</pdfrwt>
<totfact> 0.14645740E+08</totfact>
</mgrwt>
</event>
<event>
 4    1  0.2821610E+004  0.2219538E+02  0.7546771E-02  0.1704895E+00
         21   -1    0    0  503  502  0.00000000000E+00  0.00000000000E+00  0.55188678616E+01  0.55188678616E+01  0.00000000000E+00 0.  1.
         21   -1    0    0  501  503 -0.00000000000E+00 -0.00000000000E+00 -0.10591854169E+03  0.10591854169E+03  0.00000000000E+00 0. -1.
          2    1    1    2  501    0 -0.22006844104E+02 -0.28868426529E+01 -0.72294334479E+02  0.75624770054E+02  0.00000000000E+00 0. -1.
         -2    1    1    2    0  502  0.22006844104E+02  0.28868426529E+01 -0.28105339351E+02  0.35812639500E+02  0.00000000000E+00 0.  1.
<mgrwt>
<rscale>  2 0.22195383E+02</rscale>
<asrwt>0</asrwt>
<pdfrwt beam="1">  1       21 0.84905664E-03 0.22195383E+02</pdfrwt>
<pdfrwt beam="2">  1       21 0.16295159E-01 0.22195383E+02</pdfrwt>
<totfact> 0.11103653E+08</totfact>
</mgrwt>
</event>
<event>
 4    1  0.2821610E+004  0.2682198E+02  0.7546771E-02  0.1636132E+00
         21   -1    0    0  501  502  0.00000000000E+00  0.00000000000E+00  0.19341525966E+03  0.19341525966E+03  0.00000000000E+00 0.  1.
         21   -1    0    0  502  503 -0.00000000000E+00 -0.00000000000E+00 -0.44653739683E+01  0.44653739683E+01  0.00000000000E+00 0. -1.
          2    1    1    2  501    0  0.11578876406E+02  0.24193974366E+02  0.13491027108E+03  0.13755071799E+03  0.00000000000E+00 0.  1.
         -2    1    1    2    0  503 -0.11578876406E+02 -0.24193974366E+02  0.54039614604E+02  0.60329915639E+02  0.00000000000E+00 0. -1.
<mgrwt>
<rscale>  2 0.26821983E+02</rscale>
<asrwt>0</asrwt>
<pdfrwt beam="1">  1       21 0.29756187E-01 0.26821983E+02</pdfrwt>
<pdfrwt beam="2">  1       21 0.68698076E-03 0.26821983E+02</pdfrwt>
<totfact> 0.55196946E+07</totfact>
</mgrwt>
</event>
<event>
 4    1  0.2821610E+004  0.2001814E+02  0.7546771E-02  0.1744968E+00
         21   -1    0    0  501  502  0.00000000000E+00  0.00000000000E+00  0.20949513417E+02  0.20949513417E+02  0.00000000000E+00 0. -1.
         21   -1    0    0  502  503 -0.00000000000E+00 -0.00000000000E+00 -0.19135494429E+02  0.19135494429E+02  0.00000000000E+00 0.  1.
          2    1    1    2  501    0  0.16940147714E+02  0.10665709416E+02  0.12989916678E+01  0.20060242802E+02  0.00000000000E+00 0. -1.
         -2    1    1    2    0  503 -0.16940147714E+02 -0.10665709416E+02  0.51502732029E+00  0.20024765044E+02  0.00000000000E+00 0.  1.
<mgrwt>
<rscale>  2 0.20018141E+02</rscale>
<asrwt>0</asrwt>
<pdfrwt beam="1">  1       21 0.32230021E-02 0.20018141E+02</pdfrwt>
<pdfrwt beam="2">  1       21 0.29439222E-02 0.20018141E+02</pdfrwt>
<totfact> 0.22536159E+08</totfact>
</mgrwt>
</event>
<event>
 4    1  0.2821610E+004  0.2525477E+02  0.7546771E-02  0.1657369E+00
         21   -1    0    0  501  502  0.00000000000E+00  0.00000000000E+00  0.35986900794E+01  0.35986900794E+01  0.00000000000E+00 0.  1.
         21   -1    0    0  502  503 -0.00000000000E+00 -0.00000000000E+00 -0.35030456774E+03  0.35030456774E+03  0.00000000000E+00 0. -1.
          2    1    1    2  501    0  0.52874843874E+01  0.24695057001E+02 -0.48974333801E+02  0.55102529004E+02  0.00000000000E+00 0.  1.
         -2    1    1    2    0  503 -0.52874843874E+01 -0.24695057001E+02 -0.29773154386E+03  0.29880072882E+03  0.00000000000E+00 0. -1.
<mgrwt>
<rscale>  2 0.25254768E+02</rscale>
<asrwt>0</asrwt>
<pdfrwt beam="1">  1       21 0.55364470E-03 0.25254768E+02</pdfrwt>
<pdfrwt beam="2">  1       21 0.53893004E-01 0.25254768E+02</pdfrwt>
<totfact> 0.24359171E+07</totfact>
</mgrwt>
</event>
<event>
 4    1  0.2821610E+004  0.2463201E+02  0.7546771E-02  0.1666344E+00
         21   -1    0    0  503  502  0.00000000000E+00  0.00000000000E+00  0.41141781949E+01  0.41141781949E+01  0.00000000000E+00 0.  1.
         21   -1    0    0  501  503 -0.00000000000E+00 -0.00000000000E+00 -0.26768472112E+03  0.26768472112E+03  0.00000000000E+00 0. -1.
          2    1    1    2  501    0  0.24509723078E+02 -0.24514070011E+01 -0.22285557880E+03  0.22421272248E+03  0.00000000000E+00 0. -1.
         -2    1    1    2    0  502 -0.24509723078E+02  0.24514070011E+01 -0.40714964128E+02  0.47586176833E+02  0.00000000000E+00 0.  1.
<mgrwt>
<rscale>  2 0.24632010E+02</rscale>
<asrwt>0</asrwt>
<pdfrwt beam="1">  1       21 0.63295045E-03 0.24632010E+02</pdfrwt>
<pdfrwt beam="2">  1       21 0.41182267E-01 0.24632010E+02</pdfrwt>
<totfact> 0.33427639E+07</totfact>
</mgrwt>
</event>
<event>
 4    1  0.2821610E+004  0.2012278E+02  0.7546771E-02  0.1742897E+00
         21   -1    0    0  503  502  0.00000000000E+00  0.00000000000E+00  0.11105889270E+01  0.11105889270E+01  0.00000000000E+00 0.  1.
         21   -1    0    0  501  503 -0.00000000000E+00 -0.00000000000E+00 -0.39297564704E+03  0.39297564704E+03  0.00000000000E+00 0. -1.
          2    1    1    2  501    0  0.13535315340E+02 -0.14890313685E+02 -0.24887614191E+03  0.24968832615E+03  0.00000000000E+00 0. -1.
         -2    1    1    2    0  502 -0.13535315340E+02  0.14890313685E+02 -0.14298891621E+03  0.14439790982E+03  0.00000000000E+00 0.  1.
<mgrwt>
<rscale>  2 0.20122778E+02</rscale>
<asrwt>0</asrwt>
<pdfrwt beam="1">  1       21 0.17085951E-03 0.20122778E+02</pdfrwt>
<pdfrwt beam="2">  1       21 0.60457907E-01 0.20122778E+02</pdfrwt>
<totfact> 0.10201152E+08</totfact>
</mgrwt>
</event>
<event>
 4    1  0.2821610E+004  0.2201100E+02  0.7546771E-02  0.1708062E+00
         21   -1    0    0  501  502  0.00000000000E+00  0.00000000000E+00  0.26039978139E+02  0.26039978139E+02  0.00000000000E+00 0. -1.
         21   -1    0    0  502  503 -0.00000000000E+00 -0.00000000000E+00 -0.27177196791E+02  0.27177196791E+02  0.00000000000E+00 0.  1.
          2    1    1    2  501    0 -0.21940822832E+02 -0.17562811516E+01  0.14374996518E+02  0.26289251699E+02  0.00000000000E+00 0. -1.
         -2    1    1    2    0  503  0.21940822832E+02  0.17562811516E+01 -0.15512215170E+02  0.26927923230E+02  0.00000000000E+00 0.  1.
<mgrwt>
<rscale>  2 0.22011002E+02</rscale>
<asrwt>0</asrwt>
<pdfrwt beam="1">  1       21 0.40061505E-02 0.22011002E+02</pdfrwt>
<pdfrwt beam="2">  1       21 0.41811072E-02 0.22011002E+02</pdfrwt>
<totfact> 0.95532251E+07</totfact>
</mgrwt>
</event>
<event>
 4    1  0.2821610E+004  0.2741569E+02  0.7546771E-02  0.1628547E+00
         21   -1    0    0  501  502  0.00000000000E+00  0.00000000000E+00  0.11203202715E+03  0.11203202715E+03  0.00000000000E+00 0.  1.
         21   -1    0    0  502  503 -0.00000000000E+00 -0.00000000000E+00 -0.11042830509E+02  0.11042830509E+02  0.00000000000E+00 0. -1.
          2    1    1    2  501    0  0.14810449335E+02 -0.23070994334E+02  0.89045656521E+02  0.93170537910E+02  0.00000000000E+00 0.  1.
         -2    1    1    2    0  503 -0.14810449335E+02  0.23070994334E+02  0.11943540118E+02  0.29904319748E+02  0.00000000000E+00 0. -1.
<mgrwt>
<rscale>  2 0.27415692E+02</rscale>
<asrwt>0</asrwt>
<pdfrwt beam="1">  1       21 0.17235696E-01 0.27415692E+02</pdfrwt>
<pdfrwt beam="2">  1       21 0.16988971E-02 0.27415692E+02</pdfrwt>
<totfact> 0.37195668E+07</totfact>
</mgrwt>
</event>
<event>
 4    1  0.2821610E+004  0.3169206E+02  0.7546771E-02  0.1580105E+00
         21   -1    0    0  501  502  0.00000000000E+00  0.00000000000E+00  0.28645943369E+01  0.28645943369E+01  0.00000000000E+00 0. -1.
         21   -1    0    0  502  503 -0.00000000000E+00 -0.00000000000E+00 -0.39954468663E+03  0.39954468663E+03  0.00000000000E+00 0.  1.
          2    1    1    2  501    0  0.31332891613E+02  0.47577865593E+01 -0.12793312267E+03  0.13180011573E+03  0.00000000000E+00 0. -1.
         -2    1    1    2    0  503 -0.31332891613E+02 -0.47577865593E+01 -0.26874696961E+03  0.27060916523E+03  0.00000000000E+00 0.  1.
<mgrwt>
<rscale>  2 0.31692059E+02</rscale>
<asrwt>0</asrwt>
<pdfrwt beam="1">  1       21 0.44070671E-03 0.31692059E+02</pdfrwt>
<pdfrwt beam="2">  1       21 0.61468429E-01 0.31692059E+02</pdfrwt>
<totfact> 0.27386186E+07</totfact>
</mgrwt>
</event>
<event>
 4    1  0.2821610E+004  0.2099671E+02  0.7546771E-02  0.1726204E+00
         21   -1    0    0  503  502  0.00000000000E+00  0.00000000000E+00  0.24746934119E+01  0.24746934119E+01  0.00000000000E+00 0. -1.
         21   -1    0    0  501  503 -0.00000000000E+00 -0.00000000000E+00 -0.26928395563E+03  0.26928395563E+03  0.00000000000E+00 0.  1.
          2    1    1    2  501    0 -0.20185638752E+02 -0.57794273481E+01 -0.21245299942E+03  0.21348802954E+03  0.00000000000E+00 0.  1.
         -2    1    1    2    0  502  0.20185638752E+02  0.57794273481E+01 -0.54356262797E+02  0.58270619506E+02  0.00000000000E+00 0. -1.
<mgrwt>
<rscale>  2 0.20996709E+02</rscale>
<asrwt>0</asrwt>
<pdfrwt beam="1">  1       21 0.38072211E-03 0.20996709E+02</pdfrwt>
<pdfrwt beam="2">  1       21 0.41428296E-01 0.20996709E+02</pdfrwt>
<totfact> 0.67297425E+07</totfact>
</mgrwt>
</event>
<event>
 4    1  0.2821610E+004  0.2598736E+02  0.7546771E-02  0.1647212E+00
         21   -1    0    0  503  502  0.00000000000E+00  0.00000000000E+00  0.22025128686E+01  0.22025128686E+01  0.00000000000E+00 0.  1.
         21   -1    0    0  501  503 -0.00000000000E+00 -0.00000000000E+00 -0.42221399392E+03  0.42221399392E+03  0.00000000000E+00 0. -1.
          2    1    1    2  501    0  0.14549788738E+01  0.25946599814E+02 -0.32103983006E+03  0.32208991833E+03  0.00000000000E+00 0. -1.
         -2    1    1    2    0  502 -0.14549788738E+01 -0.25946599814E+02 -0.98971650996E+02  0.10232658846E+03  0.00000000000E+00 0.  1.
<mgrwt>
<rscale>  2 0.25987362E+02</rscale>
<asrwt>0</asrwt>
<pdfrwt beam="1">  1       21 0.33884764E-03 0.25987362E+02</pdfrwt>
<pdfrwt beam="2">  1       21 0.64956094E-01 0.25987362E+02</pdfrwt>
<totfact> 0.34763968E+07</totfact>
</mgrwt>
</event>
<event>
 4    1  0.2821610E+004  0.2252595E+02  0.7546771E-02  0.1699312E+00
         21   -1    0    0  501  502  0.00000000000E+00  0.00000000000E+00  0.18224821025E+01  0.18224821025E+01  0.00000000000E+00 0. -1.
         21   -1    0    0  502  503 -0.00000000000E+00 -0.00000000000E+00 -0.40736550646E+03  0.40736550646E+03  0.00000000000E+00 0.  1.
          2    1    1    2  501    0 -0.20321748562E+02  0.97182854459E+01 -0.87664700518E+02  0.90512530920E+02  0.00000000000E+00 0. -1.
         -2    1    1    2    0  503  0.20321748562E+02 -0.97182854459E+01 -0.31787832384E+03  0.31867545764E+03  0.00000000000E+00 0.  1.
<mgrwt>
<rscale>  2 0.22525953E+02</rscale>
<asrwt>0</asrwt>
<pdfrwt beam="1">  1       21 0.28038193E-03 0.22525953E+02</pdfrwt>
<pdfrwt beam="2">  1       21 0.62671601E-01 0.22525953E+02</pdfrwt>
<totfact> 0.47785327E+07</totfact>
</mgrwt>
</event>
<event>
 4    1  0.2821610E+004  0.5081421E+02  0.7546771E-02  0.1440999E+00
         21   -1    0    0  501  502  0.00000000000E+00  0.00000000000E+00  0.52120132481E+03  0.52120132481E+03  0.00000000000E+00 0. -1.
         21   -1    0    0  502  503 -0.00000000000E+00 -0.00000000000E+00 -0.56555827119E+01  0.56555827119E+01  0.00000000000E+00 0.  1.
          2    1    1    2  501    0  0.37204515312E+02 -0.34610803826E+02  0.35054816955E+03  0.35421194626E+03  0.00000000000E+00 0.  1.
         -2    1    1    2    0  503 -0.37204515312E+02  0.34610803826E+02  0.16499757255E+03  0.17264496126E+03  0.00000000000E+00 0. -1.
<mgrwt>
<rscale>  2 0.50814208E+02</rscale>
<asrwt>0</asrwt>
<pdfrwt beam="1">  1       21 0.80184781E-01 0.50814208E+02</pdfrwt>
<pdfrwt beam="2">  1       21 0.87009006E-03 0.50814208E+02</pdfrwt>
<totfact> 0.59655780E+06</totfact>
</mgrwt>
</event>
<event>
 4    1  0.2821610E+004  0.2872535E+02  0.7546771E-02  0.1612621E+00
         21   -1    0    0  503  502  0.00000000000E+00  0.00000000000E+00  0.12919366883E+02  0.12919366883E+02  0.00000000000E+00 0.  1.
         21   -1    0    0  501  503 -0.00000000000E+00 -0.00000000000E+00 -0.12985793980E+03  0.12985793980E+03  0.00000000000E+00 0. -1.
          2    1    1    2  501    0 -0.28605584102E+02 -0.26203550959E+01 -0.10935909914E+03  0.11306882093E+03  0.00000000000E+00 0. -1.
         -2    1    1    2    0  502  0.28605584102E+02  0.26203550959E+01 -0.75794737722E+01  0.29708485745E+02  0.00000000000E+00 0.  1.
<mgrwt>
<rscale>  2 0.28725349E+02</rscale>
<asrwt>0</asrwt>
<pdfrwt beam="1">  1       21 0.19875949E-02 0.28725349E+02</pdfrwt>
<pdfrwt beam="2">  1       21 0.19978145E-01 0.28725349E+02</pdfrwt>
<totfact> 0.22784738E+07</totfact>
</mgrwt>
</event>
<event>
 4    1  0.2821610E+004  0.6403348E+02  0.7546771E-02  0.1381644E+00
         21   -1    0    0  501  502  0.00000000000E+00  0.00000000000E+00  0.98481816071E+03  0.98481816071E+03  0.00000000000E+00 0.  1.
         21   -1    0    0  502  503 -0.00000000000E+00 -0.00000000000E+00 -0.16733808152E+02  0.16733808152E+02  0.00000000000E+00 0. -1.
          2    1    1    2  501    0  0.50716984480E+02  0.39090581078E+02  0.91807156712E+03  0.92030195501E+03  0.00000000000E+00 0.  1.
         -2    1    1    2    0  503 -0.50716984480E+02 -0.39090581078E+02  0.50012785441E+02  0.81250013854E+02  0.00000000000E+00 0. -1.
<mgrwt>
<rscale>  2 0.64033476E+02</rscale>
<asrwt>0</asrwt>
<pdfrwt beam="1">  1       21 0.15151044E+00 0.64033476E+02</pdfrwt>
<pdfrwt beam="2">  1       21 0.25744328E-02 0.64033476E+02</pdfrwt>
<totfact> 0.25012896E+05</totfact>
</mgrwt>
</event>
<event>
 4    1  0.2821610E+004  0.2135976E+02  0.7546771E-02  0.1719566E+00
         21   -1    0    0  503  502  0.00000000000E+00  0.00000000000E+00  0.23213294209E+01  0.23213294209E+01  0.00000000000E+00 0. -1.
         21   -1    0    0  501  503 -0.00000000000E+00 -0.00000000000E+00 -0.21441237055E+03  0.21441237055E+03  0.00000000000E+00 0.  1.
          2    1    1    2  501    0  0.31456804406E+01  0.21126856801E+02 -0.13733042781E+03  0.13898160233E+03  0.00000000000E+00 0.  1.
         -2    1    1    2    0  502 -0.31456804406E+01 -0.21126856801E+02 -0.74760613320E+02  0.77752097642E+02  0.00000000000E+00 0. -1.
<mgrwt>
<rscale>  2 0.21359761E+02</rscale>
<asrwt>0</asrwt>
<pdfrwt beam="1">  1       21 0.35712751E-03 0.21359761E+02</pdfrwt>
<pdfrwt beam="2">  1       21 0.32986527E-01 0.21359761E+02</pdfrwt>
<totfact> 0.11336448E+08</totfact>
</mgrwt>
</event>
<event>
 4    1  0.2821610E+004  0.4615898E+02  0.7546771E-02  0.1467233E+00
         21   -1    0    0  501  502  0.00000000000E+00  0.00000000000E+00  0.91656851117E+02  0.91656851117E+02  0.00000000000E+00 0. -1.
         21   -1    0    0  502  503 -0.00000000000E+00 -0.00000000000E+00 -0.29607364318E+02  0.29607364318E+02  0.00000000000E+00 0.  1.
          2    1    1    2  501    0  0.90060763399E+01  0.45271870145E+02  0.59129461806E+02  0.75012964819E+02  0.00000000000E+00 0. -1.
         -2    1    1    2    0  503 -0.90060763399E+01 -0.45271870145E+02  0.29200249931E+01  0.46251250615E+02  0.00000000000E+00 0.  1.
<mgrwt>
<rscale>  2 0.46158982E+02</rscale>
<asrwt>0</asrwt>
<pdfrwt beam="1">  1       21 0.14101054E-01 0.46158982E+02</pdfrwt>
<pdfrwt beam="2">  1       21 0.45549791E-02 0.46158982E+02</pdfrwt>
<totfact> 0.12164877E+07</totfact>
</mgrwt>
</event>
<event>
 4    1  0.2821610E+004  0.2551235E+02  0.7546771E-02  0.1653750E+00
         21   -1    0    0  501  502  0.00000000000E+00  0.00000000000E+00  0.44644776168E+01  0.44644776168E+01  0.00000000000E+00 0.  1.
         21   -1    0    0  502  503 -0.00000000000E+00 -0.00000000000E+00 -0.17927712984E+03  0.17927712984E+03  0.00000000000E+00 0. -1.
          2    1    1    2  501    0 -0.16724704516E+02 -0.19265624102E+02 -0.47701026005E+02  0.54094989556E+02  0.00000000000E+00 0.  1.
         -2    1    1    2    0  503  0.16724704516E+02  0.19265624102E+02 -0.12711162622E+03  0.12964661790E+03  0.00000000000E+00 0. -1.
<mgrwt>
<rscale>  2 0.25512350E+02</rscale>
<asrwt>0</asrwt>
<pdfrwt beam="1">  1       21 0.68684272E-03 0.25512350E+02</pdfrwt>
<pdfrwt beam="2">  1       21 0.27581097E-01 0.25512350E+02</pdfrwt>
<totfact> 0.62662983E+07</totfact>
</mgrwt>
</event>
<event>
 4    1  0.2821610E+004  0.2856251E+02  0.7546771E-02  0.1614544E+00
         21   -1    0    0  501  502  0.00000000000E+00  0.00000000000E+00  0.46633742224E+02  0.46633742224E+02  0.00000000000E+00 0. -1.
         21   -1    0    0  502  503 -0.00000000000E+00 -0.00000000000E+00 -0.18678559720E+02  0.18678559720E+02  0.00000000000E+00 0.  1.
          2    1    1    2  501    0  0.19737726283E+02  0.20645558458E+02  0.22200912688E+02  0.36175923583E+02  0.00000000000E+00 0. -1.
         -2    1    1    2    0  503 -0.19737726283E+02 -0.20645558458E+02  0.57542698152E+01  0.29136378361E+02  0.00000000000E+00 0.  1.
<mgrwt>
<rscale>  2 0.28562509E+02</rscale>
<asrwt>0</asrwt>
<pdfrwt beam="1">  1       21 0.71744218E-02 0.28562509E+02</pdfrwt>
<pdfrwt beam="2">  1       21 0.28736246E-02 0.28562509E+02</pdfrwt>
<totfact> 0.72530311E+07</totfact>
</mgrwt>
</event>
<event>
 4    1  0.2821610E+004  0.2156362E+02  0.7546771E-02  0.1715910E+00
         21   -1    0    0  501  502  0.00000000000E+00  0.00000000000E+00  0.60080752654E+00  0.60080752654E+00  0.00000000000E+00 0. -1.
         21   -1    0    0  502  503 -0.00000000000E+00 -0.00000000000E+00 -0.80701057438E+03  0.80701057438E+03  0.00000000000E+00 0.  1.
          2    1    1    2  501    0 -0.37238713693E+01  0.21239643519E+02 -0.32146273160E+03  0.32218516024E+03  0.00000000000E+00 0.  1.
         -2    1    1    2    0  503  0.37238713693E+01 -0.21239643519E+02 -0.48494703525E+03  0.48542622166E+03  0.00000000000E+00 0. -1.
<mgrwt>
<rscale>  2 0.21563619E+02</rscale>
<asrwt>0</asrwt>
<pdfrwt beam="1">  1       21 0.92431648E-04 0.21563619E+02</pdfrwt>
<pdfrwt beam="2">  1       21 0.12415585E+00 0.21563619E+02</pdfrwt>
<totfact> 0.54073756E+07</totfact>
</mgrwt>
</event>
<event>
 4    1  0.2821610E+004  0.3517212E+02  0.7546771E-02  0.1547077E+00
         21   -1    0    0  503  502  0.00000000000E+00  0.00000000000E+00  0.35430054198E+01  0.35430054198E+01  0.00000000000E+00 0.  1.
         21   -1    0    0  501  503 -0.00000000000E+00 -0.00000000000E+00 -0.18117832504E+04  0.18117832504E+04  0.00000000000E+00 0. -1.
          2    1    1    2  501    0  0.28315862197E+02 -0.20863607976E+02 -0.17196459289E+04  0.17200055811E+04  0.00000000000E+00 0. -1.
         -2    1    1    2    0  502 -0.28315862197E+02  0.20863607976E+02 -0.88594316080E+02  0.95320674732E+02  0.00000000000E+00 0.  1.
<mgrwt>
<rscale>  2 0.35172122E+02</rscale>
<asrwt>0</asrwt>
<pdfrwt beam="1">  1       21 0.54507714E-03 0.35172122E+02</pdfrwt>
<pdfrwt beam="2">  1       21 0.27873620E+00 0.35172122E+02</pdfrwt>
<totfact> 0.51437858E+05</totfact>
</mgrwt>
</event>
<event>
 4    1  0.2821610E+004  0.2644552E+02  0.7546771E-02  0.1641067E+00
         21   -1    0    0  503  502  0.00000000000E+00  0.00000000000E+00  0.51417609001E+02  0.51417609001E+02  0.00000000000E+00 0.  1.
         21   -1    0    0  501  503 -0.00000000000E+00 -0.00000000000E+00 -0.14146600044E+02  0.14146600044E+02  0.00000000000E+00 0. -1.
          2    1    1    2  501    0  0.22944787338E+02  0.13149231518E+02  0.12201526424E+02  0.29124608196E+02  0.00000000000E+00 0. -1.
         -2    1    1    2    0  502 -0.22944787338E+02 -0.13149231518E+02  0.25069482533E+02  0.36439600848E+02  0.00000000000E+00 0.  1.
<mgrwt>
<rscale>  2 0.26445521E+02</rscale>
<asrwt>0</asrwt>
<pdfrwt beam="1">  1       21 0.79104013E-02 0.26445521E+02</pdfrwt>
<pdfrwt beam="2">  1       21 0.21764000E-02 0.26445521E+02</pdfrwt>
<totfact> 0.93427707E+07</totfact>
</mgrwt>
</event>
<event>
 4    1  0.2821610E+004  0.2413446E+02  0.7546771E-02  0.1673754E+00
         21   -1    0    0  501  502  0.00000000000E+00  0.00000000000E+00  0.28199000940E+03  0.28199000940E+03  0.00000000000E+00 0.  1.
         21   -1    0    0  502  503 -0.00000000000E+00 -0.00000000000E+00 -0.22069519485E+01  0.22069519485E+01  0.00000000000E+00 0. -1.
          2    1    1    2  501    0 -0.70146753723E+01 -0.23092559285E+02  0.17585651009E+03  0.17750488474E+03  0.00000000000E+00 0.  1.
         -2    1    1    2    0  503  0.70146753723E+01  0.23092559285E+02  0.10392654736E+03  0.10669207661E+03  0.00000000000E+00 0. -1.
<mgrwt>
<rscale>  2 0.24134456E+02</rscale>
<asrwt>0</asrwt>
<pdfrwt beam="1">  1       21 0.43383050E-01 0.24134456E+02</pdfrwt>
<pdfrwt beam="2">  1       21 0.33953129E-03 0.24134456E+02</pdfrwt>
<totfact> 0.75514456E+07</totfact>
</mgrwt>
</event>
<event>
 4    1  0.2821610E+004  0.3028225E+02  0.7546771E-02  0.1594990E+00
         21   -1    0    0  503  502  0.00000000000E+00  0.00000000000E+00  0.93816137243E+03  0.93816137243E+03  0.00000000000E+00 0. -1.
         21   -1    0    0  501  503 -0.00000000000E+00 -0.00000000000E+00 -0.14596243652E+01  0.14596243652E+01  0.00000000000E+00 0.  1.
          2    1    1    2  501    0 -0.86482347694E+01  0.29021070047E+02  0.19832829725E+03  0.20062683759E+03  0.00000000000E+00 0.  1.
         -2    1    1    2    0  502  0.86482347694E+01 -0.29021070047E+02  0.73837345082E+03  0.73899415921E+03  0.00000000000E+00 0. -1.
<mgrwt>
<rscale>  2 0.30282247E+02</rscale>
<asrwt>0</asrwt>
<pdfrwt beam="1">  1       21 0.14433204E+00 0.30282247E+02</pdfrwt>
<pdfrwt beam="2">  1       21 0.22455834E-03 0.30282247E+02</pdfrwt>
<totfact> 0.11251191E+07</totfact>
</mgrwt>
</event>
<event>
 4    1  0.2821610E+004  0.2150712E+02  0.7546771E-02  0.1716918E+00
         21   -1    0    0  503  502  0.00000000000E+00  0.00000000000E+00  0.11677303231E+02  0.11677303231E+02  0.00000000000E+00 0. -1.
         21   -1    0    0  501  503 -0.00000000000E+00 -0.00000000000E+00 -0.49113713078E+02  0.49113713078E+02  0.00000000000E+00 0.  1.
          2    1    1    2  501    0 -0.31856811327E+01  0.21269876122E+02 -0.32087824234E+02  0.38628806072E+02  0.00000000000E+00 0.  1.
         -2    1    1    2    0  502  0.31856811327E+01 -0.21269876122E+02 -0.53485856133E+01  0.22162210237E+02  0.00000000000E+00 0. -1.
<mgrwt>
<rscale>  2 0.21507120E+02</rscale>
<asrwt>0</asrwt>
<pdfrwt beam="1">  1       21 0.17965082E-02 0.21507120E+02</pdfrwt>
<pdfrwt beam="2">  1       21 0.75559559E-02 0.21507120E+02</pdfrwt>
<totfact> 0.12753374E+08</totfact>
</mgrwt>
</event>
<event>
 4    1  0.2821610E+004  0.2135563E+02  0.7546771E-02  0.1719640E+00
         21   -1    0    0  501  502  0.00000000000E+00  0.00000000000E+00  0.64860798577E+03  0.64860798577E+03  0.00000000000E+00 0.  1.
         21   -1    0    0  502  503 -0.00000000000E+00 -0.00000000000E+00 -0.71160675175E+00  0.71160675175E+00  0.00000000000E+00 0. -1.
          2    1    1    2  501    0 -0.20624266046E+02  0.55409968757E+01  0.28853735504E+03  0.28932657716E+03  0.00000000000E+00 0.  1.
         -2    1    1    2    0  503  0.20624266046E+02 -0.55409968757E+01  0.35935902397E+03  0.35999301536E+03  0.00000000000E+00 0. -1.
<mgrwt>
<rscale>  2 0.21355631E+02</rscale>
<asrwt>0</asrwt>
<pdfrwt beam="1">  1       21 0.99785371E-01 0.21355631E+02</pdfrwt>
<pdfrwt beam="2">  1       21 0.10947848E-03 0.21355631E+02</pdfrwt>
<totfact> 0.68991128E+07</totfact>
</mgrwt>
</event>
<event>
 4    1  0.2821610E+004  0.2170353E+02  0.7546771E-02  0.1713430E+00
         21   -1    0    0  503  502  0.00000000000E+00  0.00000000000E+00  0.98871738969E+00  0.98871738969E+00  0.00000000000E+00 0. -1.
         21   -1    0    0  501  503 -0.00000000000E+00 -0.00000000000E+00 -0.47878944335E+03  0.47878944335E+03  0.00000000000E+00 0.  1.
          2    1    1    2  501    0  0.20688462044E+02 -0.65597679475E+01 -0.25578224549E+03  0.25670138317E+03  0.00000000000E+00 0. -1.
         -2    1    1    2    0  502 -0.20688462044E+02  0.65597679475E+01 -0.22201848048E+03  0.22307677757E+03  0.00000000000E+00 0.  1.
<mgrwt>
<rscale>  2 0.21703525E+02</rscale>
<asrwt>0</asrwt>
<pdfrwt beam="1">  1       21 0.15211044E-03 0.21703525E+02</pdfrwt>
<pdfrwt beam="2">  1       21 0.73659879E-01 0.21703525E+02</pdfrwt>
<totfact> 0.82373359E+07</totfact>
</mgrwt>
</event>
<event>
 4    1  0.2821610E+004  0.3613025E+02  0.7546771E-02  0.1538787E+00
         21   -1    0    0  503  502  0.00000000000E+00  0.00000000000E+00  0.67359879874E+02  0.67359879874E+02  0.00000000000E+00 0.  1.
         21   -1    0    0  501  503 -0.00000000000E+00 -0.00000000000E+00 -0.10962411380E+03  0.10962411380E+03  0.00000000000E+00 0. -1.
          2    1    1    2  501    0  0.15259367551E+02 -0.32749754385E+02 -0.10142218205E+03  0.10766547135E+03  0.00000000000E+00 0. -1.
         -2    1    1    2    0  502 -0.15259367551E+02  0.32749754385E+02  0.59157948124E+02  0.69318522319E+02  0.00000000000E+00 0.  1.
<mgrwt>
<rscale>  2 0.36130246E+02</rscale>
<asrwt>0</asrwt>
<pdfrwt beam="1">  1       21 0.10363058E-01 0.36130246E+02</pdfrwt>
<pdfrwt beam="2">  1       21 0.16865248E-01 0.36130246E+02</pdfrwt>
<totfact> 0.22245427E+06</totfact>
</mgrwt>
</event>
<event>
 4    1  0.2821610E+004  0.3068271E+02  0.7546771E-02  0.1590663E+00
         21   -1    0    0  501  502  0.00000000000E+00  0.00000000000E+00  0.12670586494E+03  0.12670586494E+03  0.00000000000E+00 0. -1.
         21   -1    0    0  502  503 -0.00000000000E+00 -0.00000000000E+00 -0.16889253877E+02  0.16889253877E+02  0.00000000000E+00 0.  1.
          2    1    1    2  501    0 -0.18527344405E+02  0.24457430839E+02  0.10864020521E+03  0.11288986935E+03  0.00000000000E+00 0. -1.
         -2    1    1    2    0  503  0.18527344405E+02 -0.24457430839E+02  0.11764058520E+01  0.30705249465E+02  0.00000000000E+00 0.  1.
<mgrwt>
<rscale>  2 0.30682705E+02</rscale>
<asrwt>0</asrwt>
<pdfrwt beam="1">  1       21 0.19493209E-01 0.30682705E+02</pdfrwt>
<pdfrwt beam="2">  1       21 0.25983468E-02 0.30682705E+02</pdfrwt>
<totfact> 0.15873127E+07</totfact>
</mgrwt>
</event>
<event>
 4    1  0.2821610E+004  0.2500518E+02  0.7546771E-02  0.1660928E+00
         21   -1    0    0  501  502  0.00000000000E+00  0.00000000000E+00  0.84609699671E+01  0.84609699671E+01  0.00000000000E+00 0. -1.
         21   -1    0    0  502  503 -0.00000000000E+00 -0.00000000000E+00 -0.14919267728E+03  0.14919267728E+03  0.00000000000E+00 0.  1.
          2    1    1    2  501    0 -0.22699359051E+02 -0.10488000957E+02 -0.14367030788E+02  0.28838700371E+02  0.00000000000E+00 0. -1.
         -2    1    1    2    0  503  0.22699359051E+02  0.10488000957E+02 -0.12636467652E+03  0.12881494687E+03  0.00000000000E+00 0.  1.
<mgrwt>
<rscale>  2 0.25005181E+02</rscale>
<asrwt>0</asrwt>
<pdfrwt beam="1">  1       21 0.13016877E-02 0.25005181E+02</pdfrwt>
<pdfrwt beam="2">  1       21 0.22952720E-01 0.25005181E+02</pdfrwt>
<totfact> 0.33127896E+07</totfact>
</mgrwt>
</event>
<event>
 4    1  0.2821610E+004  0.2375014E+02  0.7546771E-02  0.1679631E+00
         21   -1    0    0  503  502  0.00000000000E+00  0.00000000000E+00  0.34009474974E+03  0.34009474974E+03  0.00000000000E+00 0. -1.
         21   -1    0    0  501  503 -0.00000000000E+00 -0.00000000000E+00 -0.45170984103E+01  0.45170984103E+01  0.00000000000E+00 0.  1.
          2    1    1    2  501    0 -0.12694236212E+02 -0.20073006651E+02  0.30718932660E+02  0.38829396761E+02  0.00000000000E+00 0.  1.
         -2    1    1    2    0  502  0.12694236212E+02  0.20073006651E+02  0.30485871867E+03  0.30578245139E+03  0.00000000000E+00 0. -1.
<mgrwt>
<rscale>  2 0.23750142E+02</rscale>
<asrwt>0</asrwt>
<pdfrwt beam="1">  1       21 0.52322249E-01 0.23750142E+02</pdfrwt>
<pdfrwt beam="2">  1       21 0.69493848E-03 0.23750142E+02</pdfrwt>
<totfact> 0.18197124E+07</totfact>
</mgrwt>
</event>
<event>
 4    1  0.2821610E+004  0.2388981E+02  0.7546771E-02  0.1677480E+00
         21   -1    0    0  503  502  0.00000000000E+00  0.00000000000E+00  0.20138906729E+02  0.20138906729E+02  0.00000000000E+00 0. -1.
         21   -1    0    0  501  503 -0.00000000000E+00 -0.00000000000E+00 -0.58151180081E+02  0.58151180081E+02  0.00000000000E+00 0.  1.
          2    1    1    2  501    0 -0.23732772074E+02 -0.27346527355E+01 -0.47034135819E+02  0.52753509155E+02  0.00000000000E+00 0.  1.
         -2    1    1    2    0  502  0.23732772074E+02  0.27346527355E+01  0.90218624678E+01  0.25536577655E+02  0.00000000000E+00 0. -1.
<mgrwt>
<rscale>  2 0.23889805E+02</rscale>
<asrwt>0</asrwt>
<pdfrwt beam="1">  1       21 0.30982933E-02 0.23889805E+02</pdfrwt>
<pdfrwt beam="2">  1       21 0.89463355E-02 0.23889805E+02</pdfrwt>
<totfact> 0.42980719E+07</totfact>
</mgrwt>
</event>
<event>
 4    1  0.2821610E+004  0.4827554E+02  0.7546771E-02  0.1454871E+00
         21   -1    0    0  503  502  0.00000000000E+00  0.00000000000E+00  0.35994784675E+03  0.35994784675E+03  0.00000000000E+00 0. -1.
         21   -1    0    0  501  503 -0.00000000000E+00 -0.00000000000E+00 -0.80173319868E+01  0.80173319868E+01  0.00000000000E+00 0.  1.
          2    1    1    2  501    0  0.46356309532E+02 -0.13476660824E+02  0.95259721897E+02  0.10679392509E+03  0.00000000000E+00 0.  1.
         -2    1    1    2    0  502 -0.46356309532E+02  0.13476660824E+02  0.25667079286E+03  0.26117125364E+03  0.00000000000E+00 0. -1.
<mgrwt>
<rscale>  2 0.48275541E+02</rscale>
<asrwt>0</asrwt>
<pdfrwt beam="1">  1       21 0.55376579E-01 0.48275541E+02</pdfrwt>
<pdfrwt beam="2">  1       21 0.12334360E-02 0.48275541E+02</pdfrwt>
<totfact> 0.75383921E+06</totfact>
</mgrwt>
</event>
<event>
 4    1  0.2821610E+004  0.2082352E+02  0.7546771E-02  0.1729430E+00
         21   -1    0    0  501  502  0.00000000000E+00  0.00000000000E+00  0.19786077310E+03  0.19786077310E+03  0.00000000000E+00 0. -1.
         21   -1    0    0  502  503 -0.00000000000E+00 -0.00000000000E+00 -0.50671533935E+01  0.50671533935E+01  0.00000000000E+00 0.  1.
          2    1    1    2  501    0 -0.20465598345E+02  0.38442677922E+01  0.17283234454E+03  0.17408227488E+03  0.00000000000E+00 0. -1.
         -2    1    1    2    0  503  0.20465598345E+02 -0.38442677922E+01  0.19961275172E+02  0.28845651613E+02  0.00000000000E+00 0.  1.
<mgrwt>
<rscale>  2 0.20823523E+02</rscale>
<asrwt>0</asrwt>
<pdfrwt beam="1">  1       21 0.30440113E-01 0.20823523E+02</pdfrwt>
<pdfrwt beam="2">  1       21 0.77956221E-03 0.20823523E+02</pdfrwt>
<totfact> 0.41301038E+07</totfact>
</mgrwt>
</event>
<event>
 4    1  0.2821610E+004  0.4292937E+02  0.7546771E-02  0.1487698E+00
         21   -1    0    0  503  502  0.00000000000E+00  0.00000000000E+00  0.27385442761E+03  0.27385442761E+03  0.00000000000E+00 0. -1.
         21   -1    0    0  501  503 -0.00000000000E+00 -0.00000000000E+00 -0.79586701277E+01  0.79586701277E+01  0.00000000000E+00 0.  1.
          2    1    1    2  501    0  0.18998456865E+02 -0.38496615388E+02  0.77574725485E+02  0.88660976724E+02  0.00000000000E+00 0.  1.
         -2    1    1    2    0  502 -0.18998456865E+02  0.38496615388E+02  0.18832103200E+03  0.19315212102E+03  0.00000000000E+00 0. -1.
<mgrwt>
<rscale>  2 0.42929369E+02</rscale>
<asrwt>0</asrwt>
<pdfrwt beam="1">  1       21 0.42131443E-01 0.42929369E+02</pdfrwt>
<pdfrwt beam="2">  1       21 0.12244110E-02 0.42929369E+02</pdfrwt>
<totfact> 0.12951137E+07</totfact>
</mgrwt>
</event>
<event>
 4    1  0.2821610E+004  0.3293166E+02  0.7546771E-02  0.1567774E+00
         21   -1    0    0  501  502  0.00000000000E+00  0.00000000000E+00  0.17102176550E+02  0.17102176550E+02  0.00000000000E+00 0.  1.
         21   -1    0    0  502  503 -0.00000000000E+00 -0.00000000000E+00 -0.68304924737E+02  0.68304924737E+02  0.00000000000E+00 0. -1.
          2    1    1    2  501    0 -0.32805133217E+02 -0.28840158924E+01 -0.14172762958E+02  0.35851938901E+02  0.00000000000E+00 0.  1.
         -2    1    1    2    0  503  0.32805133217E+02  0.28840158924E+01 -0.37029985229E+02  0.49555162387E+02  0.00000000000E+00 0. -1.
<mgrwt>
<rscale>  2 0.32931661E+02</rscale>
<asrwt>0</asrwt>
<pdfrwt beam="1">  1       21 0.26311041E-02 0.32931661E+02</pdfrwt>
<pdfrwt beam="2">  1       21 0.10508450E-01 0.32931661E+02</pdfrwt>
<totfact> 0.45651023E+07</totfact>
</mgrwt>
</event>
<event>
 4    1  0.2821610E+004  0.3926229E+02  0.7546771E-02  0.1513711E+00
         21   -1    0    0  503  502  0.00000000000E+00  0.00000000000E+00  0.39361987406E+02  0.39361987406E+02  0.00000000000E+00 0. -1.
         21   -1    0    0  501  503 -0.00000000000E+00 -0.00000000000E+00 -0.44690906449E+02  0.44690906449E+02  0.00000000000E+00 0.  1.
          2    1    1    2  501    0 -0.26588065459E+02 -0.28889486800E+02 -0.17445304555E+02  0.42963546448E+02  0.00000000000E+00 0.  1.
         -2    1    1    2    0  502  0.26588065459E+02  0.28889486800E+02  0.12116385513E+02  0.41089347407E+02  0.00000000000E+00 0. -1.
<mgrwt>
<rscale>  2 0.39262293E+02</rscale>
<asrwt>0</asrwt>
<pdfrwt beam="1">  1       21 0.60556904E-02 0.39262293E+02</pdfrwt>
<pdfrwt beam="2">  1       21 0.68755241E-02 0.39262293E+02</pdfrwt>
<totfact> 0.25158408E+07</totfact>
</mgrwt>
</event>
<event>
 4    1  0.2821610E+004  0.2069829E+02  0.7546771E-02  0.1731788E+00
         21   -1    0    0  501  502  0.00000000000E+00  0.00000000000E+00  0.19158870734E+02  0.19158870734E+02  0.00000000000E+00 0. -1.
         21   -1    0    0  502  503 -0.00000000000E+00 -0.00000000000E+00 -0.62378383251E+02  0.62378383251E+02  0.00000000000E+00 0.  1.
          2    1    1    2  501    0 -0.18708938505E+02 -0.88540825450E+01  0.11043854022E+02  0.23460304119E+02  0.00000000000E+00 0. -1.
         -2    1    1    2    0  503  0.18708938505E+02  0.88540825450E+01 -0.54263366538E+02  0.58076949866E+02  0.00000000000E+00 0.  1.
<mgrwt>
<rscale>  2 0.20698289E+02</rscale>
<asrwt>0</asrwt>
<pdfrwt beam="1">  1       21 0.29475185E-02 0.20698289E+02</pdfrwt>
<pdfrwt beam="2">  1       21 0.95966745E-02 0.20698289E+02</pdfrwt>
<totfact> 0.39908236E+07</totfact>
</mgrwt>
</event>
<event>
 4    1  0.2821610E+004  0.2486302E+02  0.7546771E-02  0.1662977E+00
         21   -1    0    0  503  502  0.00000000000E+00  0.00000000000E+00  0.46782252429E+03  0.46782252429E+03  0.00000000000E+00 0. -1.
         21   -1    0    0  501  503 -0.00000000000E+00 -0.00000000000E+00 -0.16419449668E+01  0.16419449668E+01  0.00000000000E+00 0.  1.
          2    1    1    2  501    0 -0.69537059107E+01  0.23870809524E+02  0.12937232072E+03  0.13173976978E+03  0.00000000000E+00 0.  1.
         -2    1    1    2    0  502  0.69537059107E+01 -0.23870809524E+02  0.33680825860E+03  0.33772469948E+03  0.00000000000E+00 0. -1.
<mgrwt>
<rscale>  2 0.24863016E+02</rscale>
<asrwt>0</asrwt>
<pdfrwt beam="1">  1       21 0.71972590E-01 0.24863016E+02</pdfrwt>
<pdfrwt beam="2">  1       21 0.25260729E-03 0.24863016E+02</pdfrwt>
<totfact> 0.42873601E+07</totfact>
</mgrwt>
</event>
<event>
 4    1  0.2821610E+004  0.2060452E+02  0.7546771E-02  0.1733567E+00
         21   -1    0    0  501  502  0.00000000000E+00  0.00000000000E+00  0.26129488891E+02  0.26129488891E+02  0.00000000000E+00 0. -1.
         21   -1    0    0  502  503 -0.00000000000E+00 -0.00000000000E+00 -0.29736129833E+02  0.29736129833E+02  0.00000000000E+00 0.  1.
          2    1    1    2  501    0  0.96638112612E+01 -0.18197717272E+02  0.17009409473E+02  0.26718274132E+02  0.00000000000E+00 0. -1.
         -2    1    1    2    0  503 -0.96638112612E+01  0.18197717272E+02 -0.20616050416E+02  0.29147344591E+02  0.00000000000E+00 0.  1.
<mgrwt>
<rscale>  2 0.20604518E+02</rscale>
<asrwt>0</asrwt>
<pdfrwt beam="1">  1       21 0.40199214E-02 0.20604518E+02</pdfrwt>
<pdfrwt beam="2">  1       21 0.45747892E-02 0.20604518E+02</pdfrwt>
<totfact> 0.80893334E+07</totfact>
</mgrwt>
</event>
<event>
 4    1  0.2821610E+004  0.2066472E+02  0.7546771E-02  0.1732424E+00
         21   -1    0    0  503  502  0.00000000000E+00  0.00000000000E+00  0.95013646819E+02  0.95013646819E+02  0.00000000000E+00 0. -1.
         21   -1    0    0  501  503 -0.00000000000E+00 -0.00000000000E+00 -0.79693008454E+01  0.79693008454E+01  0.00000000000E+00 0.  1.
          2    1    1    2  501    0 -0.66876220662E+01  0.19552651060E+02  0.95208602549E+01  0.22752521451E+02  0.00000000000E+00 0.  1.
         -2    1    1    2    0  502  0.66876220662E+01 -0.19552651060E+02  0.77523485719E+02  0.80230426213E+02  0.00000000000E+00 0. -1.
<mgrwt>
<rscale>  2 0.20664715E+02</rscale>
<asrwt>0</asrwt>
<pdfrwt beam="1">  1       21 0.14617483E-01 0.20664715E+02</pdfrwt>
<pdfrwt beam="2">  1       21 0.12260464E-02 0.20664715E+02</pdfrwt>
<totfact> 0.75476422E+07</totfact>
</mgrwt>
</event>
<event>
 4    1  0.2821610E+004  0.2103804E+02  0.7546771E-02  0.1725440E+00
         21   -1    0    0  503  502  0.00000000000E+00  0.00000000000E+00  0.16487791927E+02  0.16487791927E+02  0.00000000000E+00 0.  1.
         21   -1    0    0  501  503 -0.00000000000E+00 -0.00000000000E+00 -0.12916804709E+03  0.12916804709E+03  0.00000000000E+00 0. -1.
          2    1    1    2  501    0 -0.92035038094E+01 -0.18918104629E+02 -0.12116013825E+03  0.12297307943E+03  0.00000000000E+00 0. -1.
         -2    1    1    2    0  502  0.92035038094E+01  0.18918104629E+02  0.84798830862E+01  0.22682759583E+02  0.00000000000E+00 0.  1.
<mgrwt>
<rscale>  2 0.21038041E+02</rscale>
<asrwt>0</asrwt>
<pdfrwt beam="1">  1       21 0.25365834E-02 0.21038041E+02</pdfrwt>
<pdfrwt beam="2">  1       21 0.19872007E-01 0.21038041E+02</pdfrwt>
<totfact> 0.14805665E+07</totfact>
</mgrwt>
</event>
<event>
 4    1  0.2821610E+004  0.2034425E+02  0.7546771E-02  0.1738568E+00
         21   -1    0    0  503  502  0.00000000000E+00  0.00000000000E+00  0.10012033420E+02  0.10012033420E+02  0.00000000000E+00 0. -1.
         21   -1    0    0  501  503 -0.00000000000E+00 -0.00000000000E+00 -0.69391428530E+02  0.69391428530E+02  0.00000000000E+00 0.  1.
          2    1    1    2  501    0 -0.11798717535E+02  0.16573433141E+02 -0.54932699973E+02  0.58578920678E+02  0.00000000000E+00 0.  1.
         -2    1    1    2    0  502  0.11798717535E+02 -0.16573433141E+02 -0.44466951374E+01  0.20824541272E+02  0.00000000000E+00 0. -1.
<mgrwt>
<rscale>  2 0.20344248E+02</rscale>
<asrwt>0</asrwt>
<pdfrwt beam="1">  1       21 0.15403129E-02 0.20344248E+02</pdfrwt>
<pdfrwt beam="2">  1       21 0.10675604E-01 0.20344248E+02</pdfrwt>
<totfact> 0.90032207E+07</totfact>
</mgrwt>
</event>
<event>
 4    1  0.2821610E+004  0.2658079E+02  0.7546771E-02  0.1639282E+00
         21   -1    0    0  503  502  0.00000000000E+00  0.00000000000E+00  0.10370769762E+02  0.10370769762E+02  0.00000000000E+00 0.  1.
         21   -1    0    0  501  503 -0.00000000000E+00 -0.00000000000E+00 -0.68900937351E+02  0.68900937351E+02  0.00000000000E+00 0. -1.
          2    1    1    2  501    0 -0.20605684341E+02  0.16791195285E+02 -0.25066682105E+02  0.36535968826E+02  0.00000000000E+00 0. -1.
         -2    1    1    2    0  502  0.20605684341E+02 -0.16791195285E+02 -0.33463485483E+02  0.42735738287E+02  0.00000000000E+00 0.  1.
<mgrwt>
<rscale>  2 0.26580791E+02</rscale>
<asrwt>0</asrwt>
<pdfrwt beam="1">  1       21 0.15955031E-02 0.26580791E+02</pdfrwt>
<pdfrwt beam="2">  1       21 0.10600144E-01 0.26580791E+02</pdfrwt>
<totfact> 0.92938948E+07</totfact>
</mgrwt>
</event>
<event>
 4    1  0.2821610E+004  0.2026551E+02  0.7546771E-02  0.1740099E+00
         21   -1    0    0  503  502  0.00000000000E+00  0.00000000000E+00  0.18654353140E+03  0.18654353140E+03  0.00000000000E+00 0.  1.
         21   -1    0    0  501  503 -0.00000000000E+00 -0.00000000000E+00 -0.36963694610E+01  0.36963694610E+01  0.00000000000E+00 0. -1.
          2    1    1    2  501    0 -0.78351569295E+01 -0.18689602021E+02  0.30934967355E+02  0.36981929548E+02  0.00000000000E+00 0. -1.
         -2    1    1    2    0  502  0.78351569295E+01  0.18689602021E+02  0.15191219458E+03  0.15325797131E+03  0.00000000000E+00 0.  1.
<mgrwt>
<rscale>  2 0.20265510E+02</rscale>
<asrwt>0</asrwt>
<pdfrwt beam="1">  1       21 0.28698998E-01 0.20265510E+02</pdfrwt>
<pdfrwt beam="2">  1       21 0.56867237E-03 0.20265510E+02</pdfrwt>
<totfact> 0.72752384E+07</totfact>
</mgrwt>
</event>
<event>
 4    1  0.2821610E+004  0.2426527E+02  0.7546771E-02  0.1671785E+00
         21   -1    0    0  503  502  0.00000000000E+00  0.00000000000E+00  0.31864364576E+03  0.31864364576E+03  0.00000000000E+00 0.  1.
         21   -1    0    0  501  503 -0.00000000000E+00 -0.00000000000E+00 -0.36592393781E+01  0.36592393781E+01  0.00000000000E+00 0. -1.
          2    1    1    2  501    0  0.22602702958E+02  0.88272913548E+01  0.44109814820E+02  0.50343609496E+02  0.00000000000E+00 0. -1.
         -2    1    1    2    0  502 -0.22602702958E+02 -0.88272913548E+01  0.27087459156E+03  0.27195927564E+03  0.00000000000E+00 0.  1.
<mgrwt>
<rscale>  2 0.24265268E+02</rscale>
<asrwt>0</asrwt>
<pdfrwt beam="1">  1       21 0.49022078E-01 0.24265268E+02</pdfrwt>
<pdfrwt beam="2">  1       21 0.56296015E-03 0.24265268E+02</pdfrwt>
<totfact> 0.28378445E+07</totfact>
</mgrwt>
</event>
<event>
 4    1  0.2821610E+004  0.2092545E+02  0.7546771E-02  0.1727527E+00
         21   -1    0    0  501  502  0.00000000000E+00  0.00000000000E+00  0.17458997466E+02  0.17458997466E+02  0.00000000000E+00 0.  1.
         21   -1    0    0  502  503 -0.00000000000E+00 -0.00000000000E+00 -0.37217103878E+02  0.37217103878E+02  0.00000000000E+00 0. -1.
          2    1    1    2  501    0 -0.19660580149E+02 -0.71649031251E+01  0.57326805077E+01  0.21696494518E+02  0.00000000000E+00 0.  1.
         -2    1    1    2    0  503  0.19660580149E+02  0.71649031251E+01 -0.25490786919E+02  0.32979606825E+02  0.00000000000E+00 0. -1.
<mgrwt>
<rscale>  2 0.20925445E+02</rscale>
<asrwt>0</asrwt>
<pdfrwt beam="1">  1       21 0.26859996E-02 0.20925445E+02</pdfrwt>
<pdfrwt beam="2">  1       21 0.57257083E-02 0.20925445E+02</pdfrwt>
<totfact> 0.10660863E+08</totfact>
</mgrwt>
</event>
<event>
 4    1  0.2821610E+004  0.7225359E+02  0.7546771E-02  0.1352593E+00
         21   -1    0    0  501  502  0.00000000000E+00  0.00000000000E+00  0.11749067639E+03  0.11749067639E+03  0.00000000000E+00 0. -1.
         21   -1    0    0  502  503 -0.00000000000E+00 -0.00000000000E+00 -0.97348870217E+02  0.97348870217E+02  0.00000000000E+00 0.  1.
          2    1    1    2  501    0 -0.26968430967E+02 -0.67031973820E+02  0.89267697620E+02  0.11484469348E+03  0.00000000000E+00 0. -1.
         -2    1    1    2    0  503  0.26968430967E+02  0.67031973820E+02 -0.69125891446E+02  0.99994853124E+02  0.00000000000E+00 0.  1.
<mgrwt>
<rscale>  2 0.72253594E+02</rscale>
<asrwt>0</asrwt>
<pdfrwt beam="1">  1       21 0.18075489E-01 0.72253594E+02</pdfrwt>
<pdfrwt beam="2">  1       21 0.14976749E-01 0.72253594E+02</pdfrwt>
<totfact> 0.10832827E+06</totfact>
</mgrwt>
</event>
<event>
 4    1  0.2821610E+004  0.2177127E+02  0.7546771E-02  0.1712238E+00
         21   -1    0    0  503  502  0.00000000000E+00  0.00000000000E+00  0.15107090272E+02  0.15107090272E+02  0.00000000000E+00 0. -1.
         21   -1    0    0  501  503 -0.00000000000E+00 -0.00000000000E+00 -0.32207704559E+02  0.32207704559E+02  0.00000000000E+00 0.  1.
          2    1    1    2  501    0  0.13590224988E+02  0.17008649498E+02 -0.12353720977E+02  0.25032035373E+02  0.00000000000E+00 0. -1.
         -2    1    1    2    0  502 -0.13590224988E+02 -0.17008649498E+02 -0.47468933098E+01  0.22282759458E+02  0.00000000000E+00 0.  1.
<mgrwt>
<rscale>  2 0.21771274E+02</rscale>
<asrwt>0</asrwt>
<pdfrwt beam="1">  1       21 0.23241677E-02 0.21771274E+02</pdfrwt>
<pdfrwt beam="2">  1       21 0.49550314E-02 0.21771274E+02</pdfrwt>
<totfact> 0.16977475E+08</totfact>
</mgrwt>
</event>
<event>
 4    1  0.2821610E+004  0.4021710E+02  0.7546771E-02  0.1506620E+00
         21   -1    0    0  501  502  0.00000000000E+00  0.00000000000E+00  0.37600292624E+03  0.37600292624E+03  0.00000000000E+00 0. -1.
         21   -1    0    0  502  503 -0.00000000000E+00 -0.00000000000E+00 -0.66073952935E+01  0.66073952935E+01  0.00000000000E+00 0.  1.
          2    1    1    2  501    0  0.14257158191E+02 -0.37605166490E+02  0.29770901719E+03  0.30041317219E+03  0.00000000000E+00 0. -1.
         -2    1    1    2    0  503 -0.14257158191E+02  0.37605166490E+02  0.71686513759E+02  0.82197149350E+02  0.00000000000E+00 0.  1.
<mgrwt>
<rscale>  2 0.40217100E+02</rscale>
<asrwt>0</asrwt>
<pdfrwt beam="1">  1       21 0.57846587E-01 0.40217100E+02</pdfrwt>
<pdfrwt beam="2">  1       21 0.10165227E-02 0.40217100E+02</pdfrwt>
<totfact> 0.91039137E+06</totfact>
</mgrwt>
</event>
<event>
 4    1  0.2821610E+004  0.2369855E+02  0.7546771E-02  0.1680431E+00
         21   -1    0    0  503  502  0.00000000000E+00  0.00000000000E+00  0.29485908473E+01  0.29485908473E+01  0.00000000000E+00 0.  1.
         21   -1    0    0  501  503 -0.00000000000E+00 -0.00000000000E+00 -0.20901056967E+03  0.20901056967E+03  0.00000000000E+00 0. -1.
          2    1    1    2  501    0  0.14156232869E+02 -0.19005846385E+02 -0.13459466588E+03  0.13666508409E+03  0.00000000000E+00 0. -1.
         -2    1    1    2    0  502 -0.14156232869E+02  0.19005846385E+02 -0.71467312937E+02  0.75294076422E+02  0.00000000000E+00 0.  1.
<mgrwt>
<rscale>  2 0.23698547E+02</rscale>
<asrwt>0</asrwt>
<pdfrwt beam="1">  1       21 0.45362926E-03 0.23698547E+02</pdfrwt>
<pdfrwt beam="2">  1       21 0.32155479E-01 0.23698547E+02</pdfrwt>
<totfact> 0.86034022E+07</totfact>
</mgrwt>
</event>
<event>
 4    1  0.2821610E+004  0.2002718E+02  0.7546771E-02  0.1744788E+00
         21   -1    0    0  503  502  0.00000000000E+00  0.00000000000E+00  0.22547235520E+03  0.22547235520E+03  0.00000000000E+00 0. -1.
         21   -1    0    0  501  503 -0.00000000000E+00 -0.00000000000E+00 -0.26562352523E+01  0.26562352523E+01  0.00000000000E+00 0.  1.
          2    1    1    2  501    0 -0.16732985040E+02 -0.11004331449E+02  0.45853278532E+02  0.50036099480E+02  0.00000000000E+00 0.  1.
         -2    1    1    2    0  502  0.16732985040E+02  0.11004331449E+02  0.17696284141E+03  0.17809249097E+03  0.00000000000E+00 0. -1.
<mgrwt>
<rscale>  2 0.20027184E+02</rscale>
<asrwt>0</asrwt>
<pdfrwt beam="1">  1       21 0.34688040E-01 0.20027184E+02</pdfrwt>
<pdfrwt beam="2">  1       21 0.40865175E-03 0.20027184E+02</pdfrwt>
<totfact> 0.83399470E+07</totfact>
</mgrwt>
</event>
<event>
 4    1  0.2821610E+004  0.2013316E+02  0.7546771E-02  0.1742693E+00
         21   -1    0    0  501  502  0.00000000000E+00  0.00000000000E+00  0.31725328041E+02  0.31725328041E+02  0.00000000000E+00 0. -1.
         21   -1    0    0  502  503 -0.00000000000E+00 -0.00000000000E+00 -0.14958587700E+02  0.14958587700E+02  0.00000000000E+00 0.  1.
          2    1    1    2  501    0 -0.97588518534E+01  0.17609913297E+02  0.17298149044E+02  0.26543741187E+02  0.00000000000E+00 0. -1.
         -2    1    1    2    0  503  0.97588518534E+01 -0.17609913297E+02 -0.53140870315E+00  0.20140174554E+02  0.00000000000E+00 0.  1.
<mgrwt>
<rscale>  2 0.20133163E+02</rscale>
<asrwt>0</asrwt>
<pdfrwt beam="1">  1       21 0.48808197E-02 0.20133163E+02</pdfrwt>
<pdfrwt beam="2">  1       21 0.23013212E-02 0.20133163E+02</pdfrwt>
<totfact> 0.17222749E+08</totfact>
</mgrwt>
</event>
<event>
 4    1  0.2821610E+004  0.2438063E+02  0.7546771E-02  0.1670061E+00
         21   -1    0    0  503  502  0.00000000000E+00  0.00000000000E+00  0.46127024898E+02  0.46127024898E+02  0.00000000000E+00 0.  1.
         21   -1    0    0  501  503 -0.00000000000E+00 -0.00000000000E+00 -0.15698808131E+02  0.15698808131E+02  0.00000000000E+00 0. -1.
          2    1    1    2  501    0 -0.85082588863E+01 -0.22847856162E+02  0.21301363302E+01  0.24473505700E+02  0.00000000000E+00 0. -1.
         -2    1    1    2    0  502  0.85082588863E+01  0.22847856162E+02  0.28298080437E+02  0.37352327329E+02  0.00000000000E+00 0.  1.
<mgrwt>
<rscale>  2 0.24380628E+02</rscale>
<asrwt>0</asrwt>
<pdfrwt beam="1">  1       21 0.70964653E-02 0.24380628E+02</pdfrwt>
<pdfrwt beam="2">  1       21 0.24152013E-02 0.24380628E+02</pdfrwt>
<totfact> 0.92946328E+07</totfact>
</mgrwt>
</event>
<event>
 4    1  0.2821610E+004  0.2196347E+02  0.7546771E-02  0.1708885E+00
         21   -1    0    0  503  502  0.00000000000E+00  0.00000000000E+00  0.27064332873E+03  0.27064332873E+03  0.00000000000E+00 0.  1.
         21   -1    0    0  501  503 -0.00000000000E+00 -0.00000000000E+00 -0.18752604642E+01  0.18752604642E+01  0.00000000000E+00 0. -1.
          2    1    1    2  501    0 -0.21908012597E+02  0.15597597033E+01  0.10406204418E+03  0.10635460924E+03  0.00000000000E+00 0.  1.
         -2    1    1    2    0  502  0.21908012597E+02 -0.15597597033E+01  0.16470602408E+03  0.16616397996E+03  0.00000000000E+00 0. -1.
<mgrwt>
<rscale>  2 0.21963467E+02</rscale>
<asrwt>0</asrwt>
<pdfrwt beam="1">  1       21 0.41637404E-01 0.21963467E+02</pdfrwt>
<pdfrwt beam="2">  1       21 0.28850182E-03 0.21963467E+02</pdfrwt>
<totfact> 0.10104710E+08</totfact>
</mgrwt>
</event>
<event>
 4    1  0.2821610E+004  0.2429314E+02  0.7546771E-02  0.1671367E+00
         21   -1    0    0  503  502  0.00000000000E+00  0.00000000000E+00  0.56612692443E+01  0.56612692443E+01  0.00000000000E+00 0.  1.
         21   -1    0    0  501  503 -0.00000000000E+00 -0.00000000000E+00 -0.44077670996E+03  0.44077670996E+03  0.00000000000E+00 0. -1.
          2    1    1    2  501    0 -0.19632094499E+02  0.14308645930E+02 -0.41260284671E+03  0.41331739087E+03  0.00000000000E+00 0. -1.
         -2    1    1    2    0  502  0.19632094499E+02 -0.14308645930E+02 -0.22512594007E+02  0.33120588335E+02  0.00000000000E+00 0.  1.
<mgrwt>
<rscale>  2 0.24293137E+02</rscale>
<asrwt>0</asrwt>
<pdfrwt beam="1">  1       21 0.87096463E-03 0.24293137E+02</pdfrwt>
<pdfrwt beam="2">  1       21 0.67811791E-01 0.24293137E+02</pdfrwt>
<totfact> 0.77615099E+06</totfact>
</mgrwt>
</event>
<event>
 4    1  0.2821610E+004  0.2068762E+02  0.7546771E-02  0.1731990E+00
         21   -1    0    0  501  502  0.00000000000E+00  0.00000000000E+00  0.12281044447E+03  0.12281044447E+03  0.00000000000E+00 0.  1.
         21   -1    0    0  502  503 -0.00000000000E+00 -0.00000000000E+00 -0.65857177370E+01  0.65857177370E+01  0.00000000000E+00 0. -1.
          2    1    1    2  501    0  0.14646799243E+02  0.14609889272E+02  0.10250700389E+03  0.10457372251E+03  0.00000000000E+00 0.  1.
         -2    1    1    2    0  503 -0.14646799243E+02 -0.14609889272E+02  0.13717722841E+02  0.24822439697E+02  0.00000000000E+00 0. -1.
<mgrwt>
<rscale>  2 0.20687619E+02</rscale>
<asrwt>0</asrwt>
<pdfrwt beam="1">  1       21 0.18893913E-01 0.20687619E+02</pdfrwt>
<pdfrwt beam="2">  1       21 0.10131874E-02 0.20687619E+02</pdfrwt>
<totfact> 0.64829141E+07</totfact>
</mgrwt>
</event>
<event>
 4    1  0.2821610E+004  0.2336164E+02  0.7546771E-02  0.1685714E+00
         21   -1    0    0  503  502  0.00000000000E+00  0.00000000000E+00  0.59481015796E+02  0.59481015796E+02  0.00000000000E+00 0. -1.
         21   -1    0    0  501  503 -0.00000000000E+00 -0.00000000000E+00 -0.11801436959E+02  0.11801436959E+02  0.00000000000E+00 0.  1.
          2    1    1    2  501    0 -0.23018407395E+02 -0.39898547942E+01  0.70273714606E+01  0.24395695725E+02  0.00000000000E+00 0. -1.
         -2    1    1    2    0  502  0.23018407395E+02  0.39898547942E+01  0.40652207376E+02  0.46886757031E+02  0.00000000000E+00 0.  1.
<mgrwt>
<rscale>  2 0.23361636E+02</rscale>
<asrwt>0</asrwt>
<pdfrwt beam="1">  1       21 0.91509254E-02 0.23361636E+02</pdfrwt>
<pdfrwt beam="2">  1       21 0.18156057E-02 0.23361636E+02</pdfrwt>
<totfact> 0.94014108E+07</totfact>
</mgrwt>
</event>
<event>
 4    1  0.2821610E+004  0.2064537E+02  0.7546771E-02  0.1732790E+00
         21   -1    0    0  501  502  0.00000000000E+00  0.00000000000E+00  0.64044537250E+02  0.64044537250E+02  0.00000000000E+00 0. -1.
         21   -1    0    0  502  503 -0.00000000000E+00 -0.00000000000E+00 -0.18645019233E+02  0.18645019233E+02  0.00000000000E+00 0.  1.
          2    1    1    2  501    0  0.20526075717E+02 -0.22161804767E+01  0.55854450492E+02  0.59547887284E+02  0.00000000000E+00 0. -1.
         -2    1    1    2    0  503 -0.20526075717E+02  0.22161804767E+01 -0.10454932475E+02  0.23141669198E+02  0.00000000000E+00 0.  1.
<mgrwt>
<rscale>  2 0.20645368E+02</rscale>
<asrwt>0</asrwt>
<pdfrwt beam="1">  1       21 0.98530056E-02 0.20645368E+02</pdfrwt>
<pdfrwt beam="2">  1       21 0.28684645E-02 0.20645368E+02</pdfrwt>
<totfact> 0.39833373E+07</totfact>
</mgrwt>
</event>
<event>
 4    1  0.2821610E+004  0.3517579E+02  0.7546771E-02  0.1547045E+00
         21   -1    0    0  501  502  0.00000000000E+00  0.00000000000E+00  0.46541365311E+02  0.46541365311E+02  0.00000000000E+00 0.  1.
         21   -1    0    0  502  503 -0.00000000000E+00 -0.00000000000E+00 -0.29314021380E+02  0.29314021380E+02  0.00000000000E+00 0. -1.
          2    1    1    2  501    0  0.33285211151E+02  0.11376777913E+02  0.20184482698E+02  0.40555513791E+02  0.00000000000E+00 0.  1.
         -2    1    1    2    0  503 -0.33285211151E+02 -0.11376777913E+02 -0.29571387678E+01  0.35299872900E+02  0.00000000000E+00 0. -1.
<mgrwt>
<rscale>  2 0.35175792E+02</rscale>
<asrwt>0</asrwt>
<pdfrwt beam="1">  1       21 0.71602101E-02 0.35175792E+02</pdfrwt>
<pdfrwt beam="2">  1       21 0.45098494E-02 0.35175792E+02</pdfrwt>
<totfact> 0.37231274E+07</totfact>
</mgrwt>
</event>
<event>
 4    1  0.2821610E+004  0.2002226E+02  0.7546771E-02  0.1744886E+00
         21   -1    0    0  503  502  0.00000000000E+00  0.00000000000E+00  0.30875821020E+02  0.30875821020E+02  0.00000000000E+00 0. -1.
         21   -1    0    0  501  503 -0.00000000000E+00 -0.00000000000E+00 -0.13118664650E+02  0.13118664650E+02  0.00000000000E+00 0.  1.
          2    1    1    2  501    0 -0.82504011028E+01 -0.18243401963E+02  0.11107492642E+02  0.22896882459E+02  0.00000000000E+00 0. -1.
         -2    1    1    2    0  502  0.82504011028E+01  0.18243401963E+02  0.66496637280E+01  0.21097603211E+02  0.00000000000E+00 0.  1.
<mgrwt>
<rscale>  2 0.20022258E+02</rscale>
<asrwt>0</asrwt>
<pdfrwt beam="1">  1       21 0.47501263E-02 0.20022258E+02</pdfrwt>
<pdfrwt beam="2">  1       21 0.20182561E-02 0.20022258E+02</pdfrwt>
<totfact> 0.21935213E+08</totfact>
</mgrwt>
</event>
<event>
 4    1  0.2821610E+004  0.3562766E+02  0.7546771E-02  0.1543096E+00
         21   -1    0    0  503  502  0.00000000000E+00  0.00000000000E+00  0.10031341122E+03  0.10031341122E+03  0.00000000000E+00 0. -1.
         21   -1    0    0  501  503 -0.00000000000E+00 -0.00000000000E+00 -0.14046765214E+02  0.14046765214E+02  0.00000000000E+00 0.  1.
          2    1    1    2  501    0  0.35400833463E+02 -0.40139086643E+01  0.25125936795E+02  0.43596366505E+02  0.00000000000E+00 0.  1.
         -2    1    1    2    0  502 -0.35400833463E+02  0.40139086643E+01  0.61140709208E+02  0.70763809925E+02  0.00000000000E+00 0. -1.
<mgrwt>
<rscale>  2 0.35627664E+02</rscale>
<asrwt>0</asrwt>
<pdfrwt beam="1">  1       21 0.15432832E-01 0.35627664E+02</pdfrwt>
<pdfrwt beam="2">  1       21 0.21610409E-02 0.35627664E+02</pdfrwt>
<totfact> 0.32727910E+07</totfact>
</mgrwt>
</event>
<event>
 4    1  0.2821610E+004  0.2226654E+02  0.7546771E-02  0.1703683E+00
         21   -1    0    0  501  502  0.00000000000E+00  0.00000000000E+00  0.30525336195E+01  0.30525336195E+01  0.00000000000E+00 0. -1.
         21   -1    0    0  502  503 -0.00000000000E+00 -0.00000000000E+00 -0.16250101766E+03  0.16250101766E+03  0.00000000000E+00 0.  1.
          2    1    1    2  501    0  0.70670233807E+01  0.21115307141E+02 -0.77900419768E+02  0.81020209918E+02  0.00000000000E+00 0. -1.
         -2    1    1    2    0  503 -0.70670233807E+01 -0.21115307141E+02 -0.81548064270E+02  0.84533341359E+02  0.00000000000E+00 0.  1.
<mgrwt>
<rscale>  2 0.22266545E+02</rscale>
<asrwt>0</asrwt>
<pdfrwt beam="1">  1       21 0.46962044E-03 0.22266545E+02</pdfrwt>
<pdfrwt beam="2">  1       21 0.25000163E-01 0.22266545E+02</pdfrwt>
<totfact> 0.12669180E+08</totfact>
</mgrwt>
</event>
<event>
 4    1  0.2821610E+004  0.2225334E+02  0.7546771E-02  0.1703907E+00
         21   -1    0    0  503  502  0.00000000000E+00  0.00000000000E+00  0.21990470333E+04  0.21990470333E+04  0.00000000000E+00 0.  1.
         21   -1    0    0  501  503 -0.00000000000E+00 -0.00000000000E+00 -0.26519872084E+00  0.26519872084E+00  0.00000000000E+00 0. -1.
          2    1    1    2  501    0  0.79291184531E+01 -0.20792795282E+02  0.67229135133E+03  0.67265955157E+03  0.00000000000E+00 0. -1.
         -2    1    1    2    0  502 -0.79291184531E+01  0.20792795282E+02  0.15264904832E+04  0.15266526804E+04  0.00000000000E+00 0.  1.
<mgrwt>
<rscale>  2 0.22253343E+02</rscale>
<asrwt>0</asrwt>
<pdfrwt beam="1">  1       21 0.33830033E+00 0.22253343E+02</pdfrwt>
<pdfrwt beam="2">  1       21 0.40801564E-04 0.22253343E+02</pdfrwt>
<totfact> 0.11241719E+07</totfact>
</mgrwt>
</event>
<event>
 4    1  0.2821610E+004  0.2007243E+02  0.7546771E-02  0.1743891E+00
         21   -1    0    0  503  502  0.00000000000E+00  0.00000000000E+00  0.37731771367E+02  0.37731771367E+02  0.00000000000E+00 0. -1.
         21   -1    0    0  501  503 -0.00000000000E+00 -0.00000000000E+00 -0.43956495860E+02  0.43956495860E+02  0.00000000000E+00 0.  1.
          2    1    1    2  501    0  0.61253415600E+01  0.19114988306E+02 -0.38650897823E+02  0.43552204189E+02  0.00000000000E+00 0.  1.
         -2    1    1    2    0  502 -0.61253415600E+01 -0.19114988306E+02  0.32426173330E+02  0.38136063038E+02  0.00000000000E+00 0. -1.
<mgrwt>
<rscale>  2 0.20072434E+02</rscale>
<asrwt>0</asrwt>
<pdfrwt beam="1">  1       21 0.58048879E-02 0.20072434E+02</pdfrwt>
<pdfrwt beam="2">  1       21 0.67625378E-02 0.20072434E+02</pdfrwt>
<totfact> 0.24109883E+07</totfact>
</mgrwt>
</event>
<event>
 4    1  0.2821610E+004  0.2592325E+02  0.7546771E-02  0.1648084E+00
         21   -1    0    0  503  502  0.00000000000E+00  0.00000000000E+00  0.34126901521E+03  0.34126901521E+03  0.00000000000E+00 0. -1.
         21   -1    0    0  501  503 -0.00000000000E+00 -0.00000000000E+00 -0.20502254866E+01  0.20502254866E+01  0.00000000000E+00 0.  1.
          2    1    1    2  501    0 -0.16582166589E+01  0.25870159181E+02  0.13547648105E+03  0.13793437474E+03  0.00000000000E+00 0.  1.
         -2    1    1    2    0  502  0.16582166589E+01 -0.25870159181E+02  0.20374230868E+03  0.20538486596E+03  0.00000000000E+00 0. -1.
<mgrwt>
<rscale>  2 0.25923249E+02</rscale>
<asrwt>0</asrwt>
<pdfrwt beam="1">  1       21 0.52502880E-01 0.25923249E+02</pdfrwt>
<pdfrwt beam="2">  1       21 0.31541958E-03 0.25923249E+02</pdfrwt>
<totfact> 0.59086285E+07</totfact>
</mgrwt>
</event>
<event>
 4    1  0.2821610E+004  0.2655306E+02  0.7546771E-02  0.1639647E+00
         21   -1    0    0  501  502  0.00000000000E+00  0.00000000000E+00  0.77214957171E+01  0.77214957171E+01  0.00000000000E+00 0.  1.
         21   -1    0    0  502  503 -0.00000000000E+00 -0.00000000000E+00 -0.12791096371E+03  0.12791096371E+03  0.00000000000E+00 0. -1.
          2    1    1    2  501    0  0.21447156535E+02 -0.15655169005E+02 -0.23819147758E+02  0.35670949524E+02  0.00000000000E+00 0.  1.
         -2    1    1    2    0  503 -0.21447156535E+02  0.15655169005E+02 -0.96370320235E+02  0.99961509904E+02  0.00000000000E+00 0. -1.
<mgrwt>
<rscale>  2 0.26553057E+02</rscale>
<asrwt>0</asrwt>
<pdfrwt beam="1">  1       21 0.11879224E-02 0.26553057E+02</pdfrwt>
<pdfrwt beam="2">  1       21 0.19678610E-01 0.26553057E+02</pdfrwt>
<totfact> 0.50599478E+07</totfact>
</mgrwt>
</event>
<event>
 4    1  0.2821610E+004  0.2055287E+02  0.7546771E-02  0.1734552E+00
         21   -1    0    0  503  502  0.00000000000E+00  0.00000000000E+00  0.42567388981E+01  0.42567388981E+01  0.00000000000E+00 0. -1.
         21   -1    0    0  501  503 -0.00000000000E+00 -0.00000000000E+00 -0.11209300362E+03  0.11209300362E+03  0.00000000000E+00 0.  1.
          2    1    1    2  501    0  0.24160688788E+00 -0.20551453542E+02 -0.73620595477E+02  0.76435676846E+02  0.00000000000E+00 0.  1.
         -2    1    1    2    0  502 -0.24160688788E+00  0.20551453542E+02 -0.34215669243E+02  0.39914065670E+02  0.00000000000E+00 0. -1.
<mgrwt>
<rscale>  2 0.20552874E+02</rscale>
<asrwt>0</asrwt>
<pdfrwt beam="1">  1       21 0.65488296E-03 0.20552874E+02</pdfrwt>
<pdfrwt beam="2">  1       21 0.17245076E-01 0.20552874E+02</pdfrwt>
<totfact> 0.14492992E+08</totfact>
</mgrwt>
</event>
<event>
 4    1  0.2821610E+004  0.3976269E+02  0.7546771E-02  0.1509965E+00
         21   -1    0    0  503  502  0.00000000000E+00  0.00000000000E+00  0.15653807199E+03  0.15653807199E+03  0.00000000000E+00 0. -1.
         21   -1    0    0  501  503 -0.00000000000E+00 -0.00000000000E+00 -0.10628028464E+02  0.10628028464E+02  0.00000000000E+00 0.  1.
          2    1    1    2  501    0 -0.99541745160E+01 -0.38496566797E+02  0.54328831106E+02  0.67325278572E+02  0.00000000000E+00 0.  1.
         -2    1    1    2    0  502  0.99541745160E+01  0.38496566797E+02  0.91581212419E+02  0.99840821880E+02  0.00000000000E+00 0. -1.
<mgrwt>
<rscale>  2 0.39762687E+02</rscale>
<asrwt>0</asrwt>
<pdfrwt beam="1">  1       21 0.24082779E-01 0.39762687E+02</pdfrwt>
<pdfrwt beam="2">  1       21 0.16350814E-02 0.39762687E+02</pdfrwt>
<totfact> 0.23377525E+07</totfact>
</mgrwt>
</event>
<event>
 4    1  0.2821610E+004  0.2054797E+02  0.7546771E-02  0.1734645E+00
         21   -1    0    0  501  502  0.00000000000E+00  0.00000000000E+00  0.54727093785E+03  0.54727093785E+03  0.00000000000E+00 0. -1.
         21   -1    0    0  502  503 -0.00000000000E+00 -0.00000000000E+00 -0.14349090209E+01  0.14349090209E+01  0.00000000000E+00 0.  1.
          2    1    1    2  501    0 -0.11265305421E+02 -0.17184648429E+02  0.45946501198E+03  0.45992425081E+03  0.00000000000E+00 0. -1.
         -2    1    1    2    0  503  0.11265305421E+02  0.17184648429E+02  0.86371016851E+02  0.88781596064E+02  0.00000000000E+00 0.  1.
<mgrwt>
<rscale>  2 0.20547974E+02</rscale>
<asrwt>0</asrwt>
<pdfrwt beam="1">  1       21 0.84195363E-01 0.20547974E+02</pdfrwt>
<pdfrwt beam="2">  1       21 0.22075567E-03 0.20547974E+02</pdfrwt>
<totfact> 0.36034096E+07</totfact>
</mgrwt>
</event>
<event>
 4    1  0.2821610E+004  0.2398404E+02  0.7546771E-02  0.1676038E+00
         21   -1    0    0  503  502  0.00000000000E+00  0.00000000000E+00  0.13910547780E+02  0.13910547780E+02  0.00000000000E+00 0.  1.
         21   -1    0    0  501  503 -0.00000000000E+00 -0.00000000000E+00 -0.43191546221E+02  0.43191546221E+02  0.00000000000E+00 0. -1.
          2    1    1    2  501    0  0.59577809677E+01  0.23232279031E+02 -0.20532134115E+02  0.31572178803E+02  0.00000000000E+00 0. -1.
         -2    1    1    2    0  502 -0.59577809677E+01 -0.23232279031E+02 -0.87488643255E+01  0.25529915198E+02  0.00000000000E+00 0.  1.
<mgrwt>
<rscale>  2 0.23984035E+02</rscale>
<asrwt>0</asrwt>
<pdfrwt beam="1">  1       21 0.21400843E-02 0.23984035E+02</pdfrwt>
<pdfrwt beam="2">  1       21 0.66448532E-02 0.23984035E+02</pdfrwt>
<totfact> 0.12404600E+08</totfact>
</mgrwt>
</event>
<event>
 4    1  0.2821610E+004  0.2399200E+02  0.7546771E-02  0.1675917E+00
         21   -1    0    0  501  502  0.00000000000E+00  0.00000000000E+00  0.12597005058E+03  0.12597005058E+03  0.00000000000E+00 0.  1.
         21   -1    0    0  502  503 -0.00000000000E+00 -0.00000000000E+00 -0.51298350526E+02  0.51298350526E+02  0.00000000000E+00 0. -1.
          2    1    1    2  501    0 -0.12161118038E+02  0.20681466103E+02  0.12193039129E+03  0.12426840367E+03  0.00000000000E+00 0.  1.
         -2    1    1    2    0  503  0.12161118038E+02 -0.20681466103E+02 -0.47258691226E+02  0.52999997439E+02  0.00000000000E+00 0. -1.
<mgrwt>
<rscale>  2 0.23991995E+02</rscale>
<asrwt>0</asrwt>
<pdfrwt beam="1">  1       21 0.19380008E-01 0.23991995E+02</pdfrwt>
<pdfrwt beam="2">  1       21 0.78920539E-02 0.23991995E+02</pdfrwt>
<totfact> 0.26213462E+06</totfact>
</mgrwt>
</event>
<event>
 4    1  0.2821610E+004  0.3044576E+02  0.7546771E-02  0.1593213E+00
         21   -1    0    0  503  502  0.00000000000E+00  0.00000000000E+00  0.98316867691E+01  0.98316867691E+01  0.00000000000E+00 0. -1.
         21   -1    0    0  501  503 -0.00000000000E+00 -0.00000000000E+00 -0.13532335685E+03  0.13532335685E+03  0.00000000000E+00 0.  1.
          2    1    1    2  501    0  0.69643314301E+01 -0.29638529795E+02 -0.10271547456E+03  0.10713268910E+03  0.00000000000E+00 0.  1.
         -2    1    1    2    0  502 -0.69643314301E+01  0.29638529795E+02 -0.22776195529E+02  0.38022354522E+02  0.00000000000E+00 0. -1.
<mgrwt>
<rscale>  2 0.30445761E+02</rscale>
<asrwt>0</asrwt>
<pdfrwt beam="1">  1       21 0.15125672E-02 0.30445761E+02</pdfrwt>
<pdfrwt beam="2">  1       21 0.20818977E-01 0.30445761E+02</pdfrwt>
<totfact> 0.32637831E+07</totfact>
</mgrwt>
</event>
<event>
 4    1  0.2821610E+004  0.2241887E+02  0.7546771E-02  0.1701107E+00
         21   -1    0    0  503  502  0.00000000000E+00  0.00000000000E+00  0.82378955145E+01  0.82378955145E+01  0.00000000000E+00 0. -1.
         21   -1    0    0  501  503 -0.00000000000E+00 -0.00000000000E+00 -0.61119994889E+02  0.61119994889E+02  0.00000000000E+00 0.  1.
          2    1    1    2  501    0  0.35689240216E+00 -0.22416026638E+02 -0.27902750600E+02  0.35793422769E+02  0.00000000000E+00 0.  1.
         -2    1    1    2    0  502 -0.35689240216E+00  0.22416026638E+02 -0.24979348775E+02  0.33564467635E+02  0.00000000000E+00 0. -1.
<mgrwt>
<rscale>  2 0.22418868E+02</rscale>
<asrwt>0</asrwt>
<pdfrwt beam="1">  1       21 0.12673685E-02 0.22418868E+02</pdfrwt>
<pdfrwt beam="2">  1       21 0.94030763E-02 0.22418868E+02</pdfrwt>
<totfact> 0.15342208E+08</totfact>
</mgrwt>
</event>
<event>
 4    1  0.2821610E+004  0.2026845E+02  0.7546771E-02  0.1740042E+00
         21   -1    0    0  501  502  0.00000000000E+00  0.00000000000E+00  0.19140341465E+02  0.19140341465E+02  0.00000000000E+00 0.  1.
         21   -1    0    0  502  503 -0.00000000000E+00 -0.00000000000E+00 -0.27166795355E+02  0.27166795355E+02  0.00000000000E+00 0. -1.
          2    1    1    2  501    0  0.95666322050E+01 -0.17868681136E+02  0.65958737254E+01  0.21314684316E+02  0.00000000000E+00 0.  1.
         -2    1    1    2    0  503 -0.95666322050E+01  0.17868681136E+02 -0.14622327615E+02  0.24992452504E+02  0.00000000000E+00 0. -1.
<mgrwt>
<rscale>  2 0.20268454E+02</rscale>
<asrwt>0</asrwt>
<pdfrwt beam="1">  1       21 0.29446679E-02 0.20268454E+02</pdfrwt>
<pdfrwt beam="2">  1       21 0.41795070E-02 0.20268454E+02</pdfrwt>
<totfact> 0.15075423E+08</totfact>
</mgrwt>
</event>
<event>
 4    1  0.2821610E+004  0.2204505E+02  0.7546771E-02  0.1707474E+00
         21   -1    0    0  503  502  0.00000000000E+00  0.00000000000E+00  0.89501483014E+01  0.89501483014E+01  0.00000000000E+00 0.  1.
         21   -1    0    0  501  503 -0.00000000000E+00 -0.00000000000E+00 -0.11534034072E+03  0.11534034072E+03  0.00000000000E+00 0. -1.
          2    1    1    2  501    0 -0.18234190348E+02  0.12389446270E+02 -0.98404557121E+02  0.10084364600E+03  0.00000000000E+00 0. -1.
         -2    1    1    2    0  502  0.18234190348E+02 -0.12389446270E+02 -0.79856352976E+01  0.23446843021E+02  0.00000000000E+00 0.  1.
<mgrwt>
<rscale>  2 0.22045047E+02</rscale>
<asrwt>0</asrwt>
<pdfrwt beam="1">  1       21 0.13769460E-02 0.22045047E+02</pdfrwt>
<pdfrwt beam="2">  1       21 0.17744666E-01 0.22045047E+02</pdfrwt>
<totfact> 0.46288396E+07</totfact>
</mgrwt>
</event>
<event>
 4    1  0.2821610E+004  0.2854419E+02  0.7546771E-02  0.1614762E+00
         21   -1    0    0  501  502  0.00000000000E+00  0.00000000000E+00  0.35022965904E+03  0.35022965904E+03  0.00000000000E+00 0. -1.
         21   -1    0    0  502  503 -0.00000000000E+00 -0.00000000000E+00 -0.24135359255E+01  0.24135359255E+01  0.00000000000E+00 0.  1.
          2    1    1    2  501    0 -0.18705153083E+02  0.21561257022E+02  0.20741260765E+03  0.20936752463E+03  0.00000000000E+00 0.  1.
         -2    1    1    2    0  503  0.18705153083E+02 -0.21561257022E+02  0.14040351546E+03  0.14327567034E+03  0.00000000000E+00 0. -1.
<mgrwt>
<rscale>  2 0.28544186E+02</rscale>
<asrwt>0</asrwt>
<pdfrwt beam="1">  1       21 0.53881446E-01 0.28544186E+02</pdfrwt>
<pdfrwt beam="2">  1       21 0.37131350E-03 0.28544186E+02</pdfrwt>
<totfact> 0.45087548E+07</totfact>
</mgrwt>
</event>
<event>
 4    1  0.2821610E+004  0.2714050E+02  0.7546771E-02  0.1632033E+00
         21   -1    0    0  501  502  0.00000000000E+00  0.00000000000E+00  0.16827994536E+02  0.16827994536E+02  0.00000000000E+00 0.  1.
         21   -1    0    0  502  503 -0.00000000000E+00 -0.00000000000E+00 -0.10621015776E+03  0.10621015776E+03  0.00000000000E+00 0. -1.
          2    1    1    2  501    0 -0.24427782166E+02 -0.11827517119E+02  0.24771283367E+01  0.27253309296E+02  0.00000000000E+00 0.  1.
         -2    1    1    2    0  503  0.24427782166E+02  0.11827517119E+02 -0.91859291564E+02  0.95784843005E+02  0.00000000000E+00 0. -1.
<mgrwt>
<rscale>  2 0.27140499E+02</rscale>
<asrwt>0</asrwt>
<pdfrwt beam="1">  1       21 0.25889222E-02 0.27140499E+02</pdfrwt>
<pdfrwt beam="2">  1       21 0.16340025E-01 0.27140499E+02</pdfrwt>
<totfact> 0.21218955E+07</totfact>
</mgrwt>
</event>
<event>
 4    1  0.2821610E+004  0.2848102E+02  0.7546771E-02  0.1615512E+00
         21   -1    0    0  503  502  0.00000000000E+00  0.00000000000E+00  0.49992651026E+02  0.49992651026E+02  0.00000000000E+00 0. -1.
         21   -1    0    0  501  503 -0.00000000000E+00 -0.00000000000E+00 -0.22910307792E+02  0.22910307792E+02  0.00000000000E+00 0.  1.
          2    1    1    2  501    0  0.14674457842E+01 -0.28443192934E+02 -0.61483788964E+01  0.29137110092E+02  0.00000000000E+00 0.  1.
         -2    1    1    2    0  502 -0.14674457842E+01  0.28443192934E+02  0.33230722130E+02  0.43765848726E+02  0.00000000000E+00 0. -1.
<mgrwt>
<rscale>  2 0.28481022E+02</rscale>
<asrwt>0</asrwt>
<pdfrwt beam="1">  1       21 0.76911771E-02 0.28481022E+02</pdfrwt>
<pdfrwt beam="2">  1       21 0.35246627E-02 0.28481022E+02</pdfrwt>
<totfact> 0.46899666E+07</totfact>
</mgrwt>
</event>
<event>
 4    1  0.2821610E+004  0.2812086E+02  0.7546771E-02  0.1619840E+00
         21   -1    0    0  503  502  0.00000000000E+00  0.00000000000E+00  0.34349167419E+02  0.34349167419E+02  0.00000000000E+00 0. -1.
         21   -1    0    0  501  503 -0.00000000000E+00 -0.00000000000E+00 -0.44148347947E+03  0.44148347947E+03  0.00000000000E+00 0.  1.
          2    1    1    2  501    0 -0.19584914855E+02  0.20179536865E+02 -0.43519715976E+03  0.43610474712E+03  0.00000000000E+00 0.  1.
         -2    1    1    2    0  502  0.19584914855E+02 -0.20179536865E+02  0.28062847713E+02  0.39727899765E+02  0.00000000000E+00 0. -1.
<mgrwt>
<rscale>  2 0.28120857E+02</rscale>
<asrwt>0</asrwt>
<pdfrwt beam="1">  1       21 0.52844876E-02 0.28120857E+02</pdfrwt>
<pdfrwt beam="2">  1       21 0.67920532E-01 0.28120857E+02</pdfrwt>
<totfact> 0.48175079E+05</totfact>
</mgrwt>
</event>
<event>
 4    1  0.2821610E+004  0.2815269E+02  0.7546771E-02  0.1619454E+00
         21   -1    0    0  501  502  0.00000000000E+00  0.00000000000E+00  0.45960589758E+02  0.45960589758E+02  0.00000000000E+00 0.  1.
         21   -1    0    0  502  503 -0.00000000000E+00 -0.00000000000E+00 -0.25667558371E+02  0.25667558371E+02  0.00000000000E+00 0. -1.
          2    1    1    2  501    0  0.16483800276E+02  0.22822324411E+02  0.30662509264E+02  0.41626477600E+02  0.00000000000E+00 0.  1.
         -2    1    1    2    0  503 -0.16483800276E+02 -0.22822324411E+02 -0.10369477878E+02  0.30001670528E+02  0.00000000000E+00 0. -1.
<mgrwt>
<rscale>  2 0.28152694E+02</rscale>
<asrwt>0</asrwt>
<pdfrwt beam="1">  1       21 0.70708600E-02 0.28152694E+02</pdfrwt>
<pdfrwt beam="2">  1       21 0.39488551E-02 0.28152694E+02</pdfrwt>
<totfact> 0.44839598E+07</totfact>
</mgrwt>
</event>
<event>
 4    1  0.2821610E+004  0.2351989E+02  0.7546771E-02  0.1683219E+00
         21   -1    0    0  503  502  0.00000000000E+00  0.00000000000E+00  0.35407184742E+03  0.35407184742E+03  0.00000000000E+00 0.  1.
         21   -1    0    0  501  503 -0.00000000000E+00 -0.00000000000E+00 -0.16387833579E+01  0.16387833579E+01  0.00000000000E+00 0. -1.
          2    1    1    2  501    0  0.10772891072E+01 -0.23495200989E+02  0.13780686331E+03  0.13979955865E+03  0.00000000000E+00 0. -1.
         -2    1    1    2    0  502 -0.10772891072E+01  0.23495200989E+02  0.21462620075E+03  0.21591107214E+03  0.00000000000E+00 0.  1.
<mgrwt>
<rscale>  2 0.23519886E+02</rscale>
<asrwt>0</asrwt>
<pdfrwt beam="1">  1       21 0.54472531E-01 0.23519886E+02</pdfrwt>
<pdfrwt beam="2">  1       21 0.25212080E-03 0.23519886E+02</pdfrwt>
<totfact> 0.74479872E+07</totfact>
</mgrwt>
</event>
<event>
 4    1  0.2821610E+004  0.2792444E+02  0.7546771E-02  0.1622234E+00
         21   -1    0    0  501  502  0.00000000000E+00  0.00000000000E+00  0.10979475992E+02  0.10979475992E+02  0.00000000000E+00 0. -1.
         21   -1    0    0  502  503 -0.00000000000E+00 -0.00000000000E+00 -0.12259466957E+03  0.12259466957E+03  0.00000000000E+00 0.  1.
          2    1    1    2  501    0  0.27922266745E+02 -0.34866081534E+00 -0.12489418984E+02  0.30590196650E+02  0.00000000000E+00 0. -1.
         -2    1    1    2    0  503 -0.27922266745E+02  0.34866081534E+00 -0.99125774592E+02  0.10298394891E+03  0.00000000000E+00 0.  1.
<mgrwt>
<rscale>  2 0.27924443E+02</rscale>
<asrwt>0</asrwt>
<pdfrwt beam="1">  1       21 0.16891502E-02 0.27924443E+02</pdfrwt>
<pdfrwt beam="2">  1       21 0.18860718E-01 0.27924443E+02</pdfrwt>
<totfact> 0.32203288E+07</totfact>
</mgrwt>
</event>
<event>
 4    1  0.2821610E+004  0.2428143E+02  0.7546771E-02  0.1671543E+00
         21   -1    0    0  501  502  0.00000000000E+00  0.00000000000E+00  0.32908461396E+02  0.32908461396E+02  0.00000000000E+00 0. -1.
         21   -1    0    0  502  503 -0.00000000000E+00 -0.00000000000E+00 -0.17972173132E+02  0.17972173132E+02  0.00000000000E+00 0.  1.
          2    1    1    2  501    0 -0.73616657643E+01 -0.23138577266E+02  0.88904725701E+01  0.25857849548E+02  0.00000000000E+00 0. -1.
         -2    1    1    2    0  503  0.73616657643E+01  0.23138577266E+02  0.60458156943E+01  0.25022784980E+02  0.00000000000E+00 0.  1.
<mgrwt>
<rscale>  2 0.24281431E+02</rscale>
<asrwt>0</asrwt>
<pdfrwt beam="1">  1       21 0.50628402E-02 0.24281431E+02</pdfrwt>
<pdfrwt beam="2">  1       21 0.27649497E-02 0.24281431E+02</pdfrwt>
<totfact> 0.12962760E+08</totfact>
</mgrwt>
</event>
<event>
 4    1  0.2821610E+004  0.3012236E+02  0.7546771E-02  0.1596740E+00
         21   -1    0    0  501  502  0.00000000000E+00  0.00000000000E+00  0.99818651312E+02  0.99818651312E+02  0.00000000000E+00 0. -1.
         21   -1    0    0  502  503 -0.00000000000E+00 -0.00000000000E+00 -0.11324761717E+02  0.11324761717E+02  0.00000000000E+00 0.  1.
          2    1    1    2  501    0 -0.22677683784E+02 -0.19826232121E+02  0.68932884693E+02  0.75226985943E+02  0.00000000000E+00 0. -1.
         -2    1    1    2    0  503  0.22677683784E+02  0.19826232121E+02  0.19561004902E+02  0.35916427087E+02  0.00000000000E+00 0.  1.
<mgrwt>
<rscale>  2 0.30122364E+02</rscale>
<asrwt>0</asrwt>
<pdfrwt beam="1">  1       21 0.15356715E-01 0.30122364E+02</pdfrwt>
<pdfrwt beam="2">  1       21 0.17422711E-02 0.30122364E+02</pdfrwt>
<totfact> 0.44590649E+07</totfact>
</mgrwt>
</event>
<event>
 4    1  0.2821610E+004  0.2600402E+02  0.7546771E-02  0.1646986E+00
         21   -1    0    0  501  502  0.00000000000E+00  0.00000000000E+00  0.18966641526E+03  0.18966641526E+03  0.00000000000E+00 0. -1.
         21   -1    0    0  502  503 -0.00000000000E+00 -0.00000000000E+00 -0.97579224776E+01  0.97579224776E+01  0.00000000000E+00 0.  1.
          2    1    1    2  501    0  0.25012545499E+02  0.71120926459E+01  0.16938859382E+03  0.17137299965E+03  0.00000000000E+00 0. -1.
         -2    1    1    2    0  503 -0.25012545499E+02 -0.71120926459E+01  0.10519898964E+02  0.28051338085E+02  0.00000000000E+00 0.  1.
<mgrwt>
<rscale>  2 0.26004025E+02</rscale>
<asrwt>0</asrwt>
<pdfrwt beam="1">  1       21 0.29179446E-01 0.26004025E+02</pdfrwt>
<pdfrwt beam="2">  1       21 0.15012190E-02 0.26004025E+02</pdfrwt>
<totfact> 0.17456688E+07</totfact>
</mgrwt>
</event>
<event>
 4    1  0.2821610E+004  0.2809477E+02  0.7546771E-02  0.1620157E+00
         21   -1    0    0  501  502  0.00000000000E+00  0.00000000000E+00  0.29175053887E+01  0.29175053887E+01  0.00000000000E+00 0.  1.
         21   -1    0    0  502  503 -0.00000000000E+00 -0.00000000000E+00 -0.40638899494E+03  0.40638899494E+03  0.00000000000E+00 0. -1.
          2    1    1    2  501    0 -0.17722303076E+02  0.21799903539E+02 -0.83412990893E+02  0.88017287338E+02  0.00000000000E+00 0.  1.
         -2    1    1    2    0  503  0.17722303076E+02 -0.21799903539E+02 -0.32005849866E+03  0.32128921299E+03  0.00000000000E+00 0. -1.
<mgrwt>
<rscale>  2 0.28094765E+02</rscale>
<asrwt>0</asrwt>
<pdfrwt beam="1">  1       21 0.44884734E-03 0.28094765E+02</pdfrwt>
<pdfrwt beam="2">  1       21 0.62521334E-01 0.28094765E+02</pdfrwt>
<totfact> 0.25202048E+07</totfact>
</mgrwt>
</event>
<event>
 4    1  0.2821610E+004  0.2295495E+02  0.7546771E-02  0.1692241E+00
         21   -1    0    0  501  502  0.00000000000E+00  0.00000000000E+00  0.34810937166E+03  0.34810937166E+03  0.00000000000E+00 0.  1.
         21   -1    0    0  502  503 -0.00000000000E+00 -0.00000000000E+00 -0.29056234854E+01  0.29056234854E+01  0.00000000000E+00 0. -1.
          2    1    1    2  501    0  0.17840596482E+02 -0.14444477119E+02  0.29407639354E+03  0.29497093932E+03  0.00000000000E+00 0.  1.
         -2    1    1    2    0  503 -0.17840596482E+02  0.14444477119E+02  0.51127354628E+02  0.56044055825E+02  0.00000000000E+00 0. -1.
<mgrwt>
<rscale>  2 0.22954952E+02</rscale>
<asrwt>0</asrwt>
<pdfrwt beam="1">  1       21 0.53555255E-01 0.22954952E+02</pdfrwt>
<pdfrwt beam="2">  1       21 0.44701927E-03 0.22954952E+02</pdfrwt>
<totfact> 0.33158545E+07</totfact>
</mgrwt>
</event>
<event>
 4    1  0.2821610E+004  0.2093236E+02  0.7546771E-02  0.1727398E+00
         21   -1    0    0  501  502  0.00000000000E+00  0.00000000000E+00  0.47103585045E+02  0.47103585045E+02  0.00000000000E+00 0. -1.
         21   -1    0    0  502  503 -0.00000000000E+00 -0.00000000000E+00 -0.34154984676E+02  0.34154984676E+02  0.00000000000E+00 0.  1.
          2    1    1    2  501    0  0.14235956233E+02  0.15346051151E+02  0.41132041751E+02  0.46152016147E+02  0.00000000000E+00 0. -1.
         -2    1    1    2    0  503 -0.14235956233E+02 -0.15346051151E+02 -0.28183441381E+02  0.35106553574E+02  0.00000000000E+00 0.  1.
<mgrwt>
<rscale>  2 0.20932361E+02</rscale>
<asrwt>0</asrwt>
<pdfrwt beam="1">  1       21 0.72467054E-02 0.20932361E+02</pdfrwt>
<pdfrwt beam="2">  1       21 0.52546130E-02 0.20932361E+02</pdfrwt>
<totfact> 0.25529832E+07</totfact>
</mgrwt>
</event>
<event>
 4    1  0.2821610E+004  0.2241532E+02  0.7546771E-02  0.1701167E+00
         21   -1    0    0  503  502  0.00000000000E+00  0.00000000000E+00  0.40154766053E+03  0.40154766053E+03  0.00000000000E+00 0.  1.
         21   -1    0    0  501  503 -0.00000000000E+00 -0.00000000000E+00 -0.18304922286E+01  0.18304922286E+01  0.00000000000E+00 0. -1.
          2    1    1    2  501    0  0.18029207730E+02  0.13318949831E+02  0.86404802915E+02  0.89264980382E+02  0.00000000000E+00 0. -1.
         -2    1    1    2    0  502 -0.18029207730E+02 -0.13318949831E+02  0.31331236539E+03  0.31411317238E+03  0.00000000000E+00 0.  1.
<mgrwt>
<rscale>  2 0.22415324E+02</rscale>
<asrwt>0</asrwt>
<pdfrwt beam="1">  1       21 0.61776493E-01 0.22415324E+02</pdfrwt>
<pdfrwt beam="2">  1       21 0.28161451E-03 0.22415324E+02</pdfrwt>
<totfact> 0.48817845E+07</totfact>
</mgrwt>
</event>
<event>
 4    1  0.2821610E+004  0.2266296E+02  0.7546771E-02  0.1697032E+00
         21   -1    0    0  501  502  0.00000000000E+00  0.00000000000E+00  0.83142751377E+02  0.83142751377E+02  0.00000000000E+00 0. -1.
         21   -1    0    0  502  503 -0.00000000000E+00 -0.00000000000E+00 -0.71375428882E+01  0.71375428882E+01  0.00000000000E+00 0.  1.
          2    1    1    2  501    0  0.24529686646E+01  0.22529816116E+02  0.54558269846E+02  0.59078037189E+02  0.00000000000E+00 0. -1.
         -2    1    1    2    0  503 -0.24529686646E+01 -0.22529816116E+02  0.21446938643E+02  0.31202257076E+02  0.00000000000E+00 0.  1.
<mgrwt>
<rscale>  2 0.22662958E+02</rscale>
<asrwt>0</asrwt>
<pdfrwt beam="1">  1       21 0.12791192E-01 0.22662958E+02</pdfrwt>
<pdfrwt beam="2">  1       21 0.10980836E-02 0.22662958E+02</pdfrwt>
<totfact> 0.11453346E+08</totfact>
</mgrwt>
</event>
<event>
 4    1  0.2821610E+004  0.2207642E+02  0.7546771E-02  0.1706934E+00
         21   -1    0    0  503  502  0.00000000000E+00  0.00000000000E+00  0.31749553150E+03  0.31749553150E+03  0.00000000000E+00 0. -1.
         21   -1    0    0  501  503 -0.00000000000E+00 -0.00000000000E+00 -0.18104149942E+01  0.18104149942E+01  0.00000000000E+00 0.  1.
          2    1    1    2  501    0 -0.85643647540E+00 -0.22059799846E+02  0.95576638021E+02  0.98093129158E+02  0.00000000000E+00 0.  1.
         -2    1    1    2    0  502  0.85643647540E+00  0.22059799846E+02  0.22010847848E+03  0.22121281733E+03  0.00000000000E+00 0. -1.
<mgrwt>
<rscale>  2 0.22076418E+02</rscale>
<asrwt>0</asrwt>
<pdfrwt beam="1">  1       21 0.48845422E-01 0.22076418E+02</pdfrwt>
<pdfrwt beam="2">  1       21 0.27852564E-03 0.22076418E+02</pdfrwt>
<totfact> 0.78477847E+07</totfact>
</mgrwt>
</event>
<event>
 4    1  0.2821610E+004  0.2053699E+02  0.7546771E-02  0.1734855E+00
         21   -1    0    0  503  502  0.00000000000E+00  0.00000000000E+00  0.78335229418E+00  0.78335229418E+00  0.00000000000E+00 0.  1.
         21   -1    0    0  501  503 -0.00000000000E+00 -0.00000000000E+00 -0.59381037759E+03  0.59381037759E+03  0.00000000000E+00 0. -1.
          2    1    1    2  501    0  0.17540502736E+02 -0.10681709865E+02 -0.38731762579E+03  0.38786171687E+03  0.00000000000E+00 0. -1.
         -2    1    1    2    0  502 -0.17540502736E+02  0.10681709865E+02 -0.20570939950E+03  0.20673201301E+03  0.00000000000E+00 0.  1.
<mgrwt>
<rscale>  2 0.20536995E+02</rscale>
<asrwt>0</asrwt>
<pdfrwt beam="1">  1       21 0.12051540E-03 0.20536995E+02</pdfrwt>
<pdfrwt beam="2">  1       21 0.91355696E-01 0.20536995E+02</pdfrwt>
<totfact> 0.72103354E+07</totfact>
</mgrwt>
</event>
<event>
 4    1  0.2821610E+004  0.2350088E+02  0.7546771E-02  0.1683517E+00
         21   -1    0    0  501  502  0.00000000000E+00  0.00000000000E+00  0.41918519290E+02  0.41918519290E+02  0.00000000000E+00 0. -1.
         21   -1    0    0  502  503 -0.00000000000E+00 -0.00000000000E+00 -0.46923122494E+02  0.46923122494E+02  0.00000000000E+00 0.  1.
          2    1    1    2  501    0  0.13112984254E+02  0.19502329092E+02  0.35169438311E+02  0.42298706684E+02  0.00000000000E+00 0. -1.
         -2    1    1    2    0  503 -0.13112984254E+02 -0.19502329092E+02 -0.40174041515E+02  0.46542935100E+02  0.00000000000E+00 0.  1.
<mgrwt>
<rscale>  2 0.23500876E+02</rscale>
<asrwt>0</asrwt>
<pdfrwt beam="1">  1       21 0.64490030E-02 0.23500876E+02</pdfrwt>
<pdfrwt beam="2">  1       21 0.72189419E-02 0.23500876E+02</pdfrwt>
<totfact> 0.19003568E+07</totfact>
</mgrwt>
</event>
<event>
 4    1  0.2821610E+004  0.2042213E+02  0.7546771E-02  0.1737061E+00
         21   -1    0    0  501  502  0.00000000000E+00  0.00000000000E+00  0.10950044306E+03  0.10950044306E+03  0.00000000000E+00 0.  1.
         21   -1    0    0  502  503 -0.00000000000E+00 -0.00000000000E+00 -0.61022166182E+01  0.61022166182E+01  0.00000000000E+00 0. -1.
          2    1    1    2  501    0 -0.19420972808E+02  0.63158006500E+01  0.87134487462E+02  0.89495711785E+02  0.00000000000E+00 0.  1.
         -2    1    1    2    0  503  0.19420972808E+02 -0.63158006500E+01  0.16263738978E+02  0.26106947891E+02  0.00000000000E+00 0. -1.
<mgrwt>
<rscale>  2 0.20422133E+02</rscale>
<asrwt>0</asrwt>
<pdfrwt beam="1">  1       21 0.16846221E-01 0.20422133E+02</pdfrwt>
<pdfrwt beam="2">  1       21 0.93880264E-03 0.20422133E+02</pdfrwt>
<totfact> 0.88174077E+07</totfact>
</mgrwt>
</event>
<event>
 4    1  0.2821610E+004  0.2068455E+02  0.7546771E-02  0.1732048E+00
         21   -1    0    0  503  502  0.00000000000E+00  0.00000000000E+00  0.11492404798E+03  0.11492404798E+03  0.00000000000E+00 0.  1.
         21   -1    0    0  501  503 -0.00000000000E+00 -0.00000000000E+00 -0.38321475109E+02  0.38321475109E+02  0.00000000000E+00 0. -1.
          2    1    1    2  501    0  0.95000627272E+01  0.18373883031E+02 -0.34504483036E+02  0.40229468292E+02  0.00000000000E+00 0. -1.
         -2    1    1    2    0  502 -0.95000627272E+01 -0.18373883031E+02  0.11110705591E+03  0.11301605480E+03  0.00000000000E+00 0.  1.
<mgrwt>
<rscale>  2 0.20684554E+02</rscale>
<asrwt>0</asrwt>
<pdfrwt beam="1">  1       21 0.17680623E-01 0.20684554E+02</pdfrwt>
<pdfrwt beam="2">  1       21 0.58956116E-02 0.20684554E+02</pdfrwt>
<totfact> 0.48112756E+06</totfact>
</mgrwt>
</event>
<event>
 4    1  0.2821610E+004  0.5172680E+02  0.7546771E-02  0.1436244E+00
         21   -1    0    0  503  502  0.00000000000E+00  0.00000000000E+00  0.42355969806E+01  0.42355969806E+01  0.00000000000E+00 0. -1.
         21   -1    0    0  501  503 -0.00000000000E+00 -0.00000000000E+00 -0.11247656024E+04  0.11247656024E+04  0.00000000000E+00 0.  1.
          2    1    1    2  501    0 -0.30277466906E+02 -0.41939677368E+02 -0.93401578976E+03  0.93544703594E+03  0.00000000000E+00 0.  1.
         -2    1    1    2    0  502  0.30277466906E+02  0.41939677368E+02 -0.18651421568E+03  0.19355416346E+03  0.00000000000E+00 0. -1.
<mgrwt>
<rscale>  2 0.51726797E+02</rscale>
<asrwt>0</asrwt>
<pdfrwt beam="1">  1       21 0.65163088E-03 0.51726797E+02</pdfrwt>
<pdfrwt beam="2">  1       21 0.17304071E+00 0.51726797E+02</pdfrwt>
<totfact> 0.15191106E+06</totfact>
</mgrwt>
</event>
<event>
 4    1  0.2821610E+004  0.2101868E+02  0.7546771E-02  0.1725798E+00
         21   -1    0    0  503  502  0.00000000000E+00  0.00000000000E+00  0.16515677567E+02  0.16515677567E+02  0.00000000000E+00 0. -1.
         21   -1    0    0  501  503 -0.00000000000E+00 -0.00000000000E+00 -0.81854934640E+02  0.81854934640E+02  0.00000000000E+00 0.  1.
          2    1    1    2  501    0 -0.17000394490E+02  0.12360069844E+02 -0.73025849414E+02  0.75990521922E+02  0.00000000000E+00 0.  1.
         -2    1    1    2    0  502  0.17000394490E+02 -0.12360069844E+02  0.76865923412E+01  0.22380090285E+02  0.00000000000E+00 0. -1.
<mgrwt>
<rscale>  2 0.21018676E+02</rscale>
<asrwt>0</asrwt>
<pdfrwt beam="1">  1       21 0.25408734E-02 0.21018676E+02</pdfrwt>
<pdfrwt beam="2">  1       21 0.12593067E-01 0.21018676E+02</pdfrwt>
<totfact> 0.32119450E+07</totfact>
</mgrwt>
</event>
<event>
 4    1  0.2821610E+004  0.2395752E+02  0.7546771E-02  0.1676443E+00
         21   -1    0    0  503  502  0.00000000000E+00  0.00000000000E+00  0.63688133141E+02  0.63688133141E+02  0.00000000000E+00 0.  1.
         21   -1    0    0  501  503 -0.00000000000E+00 -0.00000000000E+00 -0.17347915128E+02  0.17347915128E+02  0.00000000000E+00 0. -1.
          2    1    1    2  501    0 -0.20619674594E+02  0.12198025730E+02 -0.49164843002E+01  0.24456791080E+02  0.00000000000E+00 0. -1.
         -2    1    1    2    0  502  0.20619674594E+02 -0.12198025730E+02  0.51256702313E+02  0.56579257189E+02  0.00000000000E+00 0.  1.
<mgrwt>
<rscale>  2 0.23957521E+02</rscale>
<asrwt>0</asrwt>
<pdfrwt beam="1">  1       21 0.97981742E-02 0.23957521E+02</pdfrwt>
<pdfrwt beam="2">  1       21 0.26689101E-02 0.23957521E+02</pdfrwt>
<totfact> 0.46696365E+07</totfact>
</mgrwt>
</event>
<event>
 4    1  0.2821610E+004  0.2344726E+02  0.7546771E-02  0.1684361E+00
         21   -1    0    0  501  502  0.00000000000E+00  0.00000000000E+00  0.55510535896E+02  0.55510535896E+02  0.00000000000E+00 0. -1.
         21   -1    0    0  502  503 -0.00000000000E+00 -0.00000000000E+00 -0.11580742710E+02  0.11580742710E+02  0.00000000000E+00 0.  1.
          2    1    1    2  501    0 -0.16124169419E+02 -0.17023072415E+02  0.34729488777E+02  0.41903594412E+02  0.00000000000E+00 0. -1.
         -2    1    1    2    0  503  0.16124169419E+02  0.17023072415E+02  0.92003044085E+01  0.25187684195E+02  0.00000000000E+00 0.  1.
<mgrwt>
<rscale>  2 0.23447256E+02</rscale>
<asrwt>0</asrwt>
<pdfrwt beam="1">  1       21 0.85400823E-02 0.23447256E+02</pdfrwt>
<pdfrwt beam="2">  1       21 0.17816528E-02 0.23447256E+02</pdfrwt>
<totfact> 0.10851021E+08</totfact>
</mgrwt>
</event>
<event>
 4    1  0.2821610E+004  0.2191068E+02  0.7546771E-02  0.1709801E+00
         21   -1    0    0  501  502  0.00000000000E+00  0.00000000000E+00  0.20044687601E+02  0.20044687601E+02  0.00000000000E+00 0. -1.
         21   -1    0    0  502  503 -0.00000000000E+00 -0.00000000000E+00 -0.98770044302E+02  0.98770044302E+02  0.00000000000E+00 0.  1.
          2    1    1    2  501    0 -0.61077474347E+01  0.21042181015E+02  0.12342678422E+02  0.25147955607E+02  0.00000000000E+00 0. -1.
         -2    1    1    2    0  503  0.61077474347E+01 -0.21042181015E+02 -0.91068035123E+02  0.93666776296E+02  0.00000000000E+00 0.  1.
<mgrwt>
<rscale>  2 0.21910681E+02</rscale>
<asrwt>0</asrwt>
<pdfrwt beam="1">  1       21 0.30837981E-02 0.21910681E+02</pdfrwt>
<pdfrwt beam="2">  1       21 0.15195391E-01 0.21910681E+02</pdfrwt>
<totfact> 0.17500025E+07</totfact>
</mgrwt>
</event>
<event>
 4    1  0.2821610E+004  0.2598656E+02  0.7546771E-02  0.1647223E+00
         21   -1    0    0  503  502  0.00000000000E+00  0.00000000000E+00  0.24569304809E+02  0.24569304809E+02  0.00000000000E+00 0. -1.
         21   -1    0    0  501  503 -0.00000000000E+00 -0.00000000000E+00 -0.44970653248E+02  0.44970653248E+02  0.00000000000E+00 0.  1.
          2    1    1    2  501    0 -0.10896527274E+01  0.25963708084E+02 -0.31881389962E+02  0.41130578727E+02  0.00000000000E+00 0.  1.
         -2    1    1    2    0  502  0.10896527274E+01 -0.25963708084E+02  0.11480041523E+02  0.28409379330E+02  0.00000000000E+00 0. -1.
<mgrwt>
<rscale>  2 0.25986563E+02</rscale>
<asrwt>0</asrwt>
<pdfrwt beam="1">  1       21 0.37798930E-02 0.25986563E+02</pdfrwt>
<pdfrwt beam="2">  1       21 0.69185620E-02 0.25986563E+02</pdfrwt>
<totfact> 0.48866766E+07</totfact>
</mgrwt>
</event>
<event>
 4    1  0.2821610E+004  0.2022518E+02  0.7546771E-02  0.1740887E+00
         21   -1    0    0  501  502  0.00000000000E+00  0.00000000000E+00  0.23231255018E+02  0.23231255018E+02  0.00000000000E+00 0. -1.
         21   -1    0    0  502  503 -0.00000000000E+00 -0.00000000000E+00 -0.17674968080E+02  0.17674968080E+02  0.00000000000E+00 0.  1.
          2    1    1    2  501    0 -0.18897426784E+02  0.72073039619E+01  0.40362873551E+01  0.20624005069E+02  0.00000000000E+00 0. -1.
         -2    1    1    2    0  503  0.18897426784E+02 -0.72073039619E+01  0.15199995829E+01  0.20282218029E+02  0.00000000000E+00 0.  1.
<mgrwt>
<rscale>  2 0.20225182E+02</rscale>
<asrwt>0</asrwt>
<pdfrwt beam="1">  1       21 0.35740392E-02 0.20225182E+02</pdfrwt>
<pdfrwt beam="2">  1       21 0.27192259E-02 0.20225182E+02</pdfrwt>
<totfact> 0.21768937E+08</totfact>
</mgrwt>
</event>
<event>
 4    1  0.2821610E+004  0.2349034E+02  0.7546771E-02  0.1683683E+00
         21   -1    0    0  503  502  0.00000000000E+00  0.00000000000E+00  0.13487754463E+02  0.13487754463E+02  0.00000000000E+00 0. -1.
         21   -1    0    0  501  503 -0.00000000000E+00 -0.00000000000E+00 -0.57379437287E+02  0.57379437287E+02  0.00000000000E+00 0.  1.
          2    1    1    2  501    0  0.21709407517E+02  0.89720616322E+01 -0.40928826666E+02  0.47190731260E+02  0.00000000000E+00 0.  1.
         -2    1    1    2    0  502 -0.21709407517E+02 -0.89720616322E+01 -0.29628561581E+01  0.23676460489E+02  0.00000000000E+00 0. -1.
<mgrwt>
<rscale>  2 0.23490344E+02</rscale>
<asrwt>0</asrwt>
<pdfrwt beam="1">  1       21 0.20750392E-02 0.23490344E+02</pdfrwt>
<pdfrwt beam="2">  1       21 0.88276057E-02 0.23490344E+02</pdfrwt>
<totfact> 0.81391923E+07</totfact>
</mgrwt>
</event>
<event>
 4    1  0.2821610E+004  0.2367999E+02  0.7546771E-02  0.1680719E+00
         21   -1    0    0  503  502  0.00000000000E+00  0.00000000000E+00  0.67973348076E+01  0.67973348076E+01  0.00000000000E+00 0.  1.
         21   -1    0    0  501  503 -0.00000000000E+00 -0.00000000000E+00 -0.14347709531E+03  0.14347709531E+03  0.00000000000E+00 0. -1.
          2    1    1    2  501    0 -0.50196184310E+01 -0.23141857211E+02 -0.11732532757E+03  0.11969116348E+03  0.00000000000E+00 0. -1.
         -2    1    1    2    0  502  0.50196184310E+01  0.23141857211E+02 -0.19354432929E+02  0.30583266640E+02  0.00000000000E+00 0.  1.
<mgrwt>
<rscale>  2 0.23679994E+02</rscale>
<asrwt>0</asrwt>
<pdfrwt beam="1">  1       21 0.10457440E-02 0.23679994E+02</pdfrwt>
<pdfrwt beam="2">  1       21 0.22073396E-01 0.23679994E+02</pdfrwt>
<totfact> 0.48798840E+07</totfact>
</mgrwt>
</event>
<event>
 4    1  0.2821610E+004  0.2034640E+02  0.7546771E-02  0.1738526E+00
         21   -1    0    0  501  502  0.00000000000E+00  0.00000000000E+00  0.31701002152E+02  0.31701002152E+02  0.00000000000E+00 0.  1.
         21   -1    0    0  502  503 -0.00000000000E+00 -0.00000000000E+00 -0.49131983102E+02  0.49131983102E+02  0.00000000000E+00 0. -1.
          2    1    1    2  501    0  0.13307039103E+02  0.15391509265E+02  0.25915820840E+02  0.32948529815E+02  0.00000000000E+00 0.  1.
         -2    1    1    2    0  503 -0.13307039103E+02 -0.15391509265E+02 -0.43346801791E+02  0.47884455439E+02  0.00000000000E+00 0. -1.
<mgrwt>
<rscale>  2 0.20346396E+02</rscale>
<asrwt>0</asrwt>
<pdfrwt beam="1">  1       21 0.48770772E-02 0.20346396E+02</pdfrwt>
<pdfrwt beam="2">  1       21 0.75587667E-02 0.20346396E+02</pdfrwt>
<totfact> 0.26658773E+07</totfact>
</mgrwt>
</event>
<event>
 4    1  0.2821610E+004  0.2171010E+02  0.7546771E-02  0.1713314E+00
         21   -1    0    0  501  502  0.00000000000E+00  0.00000000000E+00  0.32910407556E+02  0.32910407556E+02  0.00000000000E+00 0.  1.
         21   -1    0    0  502  503 -0.00000000000E+00 -0.00000000000E+00 -0.15418872753E+02  0.15418872753E+02  0.00000000000E+00 0. -1.
          2    1    1    2  501    0  0.14546838985E+02  0.16115768170E+02  0.15192185085E+02  0.26497754543E+02  0.00000000000E+00 0. -1.
         -2    1    1    2    0  503 -0.14546838985E+02 -0.16115768170E+02  0.22993497184E+01  0.21831525766E+02  0.00000000000E+00 0.  1.
<mgrwt>
<rscale>  2 0.21710102E+02</rscale>
<asrwt>0</asrwt>
<pdfrwt beam="1">  1       21 0.50631396E-02 0.21710102E+02</pdfrwt>
<pdfrwt beam="2">  1       21 0.23721343E-02 0.21710102E+02</pdfrwt>
<totfact> 0.15883396E+08</totfact>
</mgrwt>
</event>
<event>
 4    1  0.2821610E+004  0.2325443E+02  0.7546771E-02  0.1687419E+00
         21   -1    0    0  503  502  0.00000000000E+00  0.00000000000E+00  0.10846107179E+03  0.10846107179E+03  0.00000000000E+00 0.  1.
         21   -1    0    0  501  503 -0.00000000000E+00 -0.00000000000E+00 -0.13521066593E+02  0.13521066593E+02  0.00000000000E+00 0. -1.
          2    1    1    2  501    0 -0.56987153583E+01 -0.22545362565E+02 -0.98833272907E+00  0.23275427633E+02  0.00000000000E+00 0. -1.
         -2    1    1    2    0  502  0.56987153583E+01  0.22545362565E+02  0.95928337921E+02  0.98706710746E+02  0.00000000000E+00 0.  1.
<mgrwt>
<rscale>  2 0.23254435E+02</rscale>
<asrwt>0</asrwt>
<pdfrwt beam="1">  1       21 0.16686318E-01 0.23254435E+02</pdfrwt>
<pdfrwt beam="2">  1       21 0.20801642E-02 0.23254435E+02</pdfrwt>
<totfact> 0.27782826E+07</totfact>
</mgrwt>
</event>
<event>
 4    1  0.2821610E+004  0.2875083E+02  0.7546771E-02  0.1612322E+00
         21   -1    0    0  501  502  0.00000000000E+00  0.00000000000E+00  0.18125098823E+03  0.18125098823E+03  0.00000000000E+00 0. -1.
         21   -1    0    0  502  503 -0.00000000000E+00 -0.00000000000E+00 -0.79952336531E+01  0.79952336531E+01  0.00000000000E+00 0.  1.
          2    1    1    2  501    0 -0.19765356753E+02  0.20879192232E+02  0.14864662465E+03  0.15140154892E+03  0.00000000000E+00 0.  1.
         -2    1    1    2    0  503  0.19765356753E+02 -0.20879192232E+02  0.24609129926E+02  0.37844672961E+02  0.00000000000E+00 0. -1.
<mgrwt>
<rscale>  2 0.28750826E+02</rscale>
<asrwt>0</asrwt>
<pdfrwt beam="1">  1       21 0.27884764E-01 0.28750826E+02</pdfrwt>
<pdfrwt beam="2">  1       21 0.12300361E-02 0.28750826E+02</pdfrwt>
<totfact> 0.26198865E+07</totfact>
</mgrwt>
</event>
<event>
 4    1  0.2821610E+004  0.2101564E+02  0.7546771E-02  0.1725854E+00
         21   -1    0    0  501  502  0.00000000000E+00  0.00000000000E+00  0.65281234187E+01  0.65281234187E+01  0.00000000000E+00 0. -1.
         21   -1    0    0  502  503 -0.00000000000E+00 -0.00000000000E+00 -0.83985608108E+02  0.83985608108E+02  0.00000000000E+00 0.  1.
          2    1    1    2  501    0 -0.24920649579E+01 -0.20867357369E+02 -0.18771996256E+02  0.28178801159E+02  0.00000000000E+00 0. -1.
         -2    1    1    2    0  503  0.24920649579E+01  0.20867357369E+02 -0.58685488434E+02  0.62334930369E+02  0.00000000000E+00 0.  1.
<mgrwt>
<rscale>  2 0.21015637E+02</rscale>
<asrwt>0</asrwt>
<pdfrwt beam="1">  1       21 0.10043267E-02 0.21015637E+02</pdfrwt>
<pdfrwt beam="2">  1       21 0.12920863E-01 0.21015637E+02</pdfrwt>
<totfact> 0.12594628E+08</totfact>
</mgrwt>
</event>
<event>
 4    1  0.2821610E+004  0.2154382E+02  0.7546771E-02  0.1716263E+00
         21   -1    0    0  501  502  0.00000000000E+00  0.00000000000E+00  0.19767926130E+02  0.19767926130E+02  0.00000000000E+00 0. -1.
         21   -1    0    0  502  503 -0.00000000000E+00 -0.00000000000E+00 -0.34089301089E+02  0.34089301089E+02  0.00000000000E+00 0.  1.
          2    1    1    2  501    0 -0.19675041347E+02  0.87766246593E+01  0.78625440299E+01  0.22933730422E+02  0.00000000000E+00 0. -1.
         -2    1    1    2    0  503  0.19675041347E+02 -0.87766246593E+01 -0.22183918989E+02  0.30923496797E+02  0.00000000000E+00 0.  1.
<mgrwt>
<rscale>  2 0.21543825E+02</rscale>
<asrwt>0</asrwt>
<pdfrwt beam="1">  1       21 0.30412194E-02 0.21543825E+02</pdfrwt>
<pdfrwt beam="2">  1       21 0.52445079E-02 0.21543825E+02</pdfrwt>
<totfact> 0.10202274E+08</totfact>
</mgrwt>
</event>
<event>
 4    1  0.2821610E+004  0.4300980E+02  0.7546771E-02  0.1487163E+00
         21   -1    0    0  501  502  0.00000000000E+00  0.00000000000E+00  0.16670228481E+02  0.16670228481E+02  0.00000000000E+00 0. -1.
         21   -1    0    0  502  503 -0.00000000000E+00 -0.00000000000E+00 -0.11276341879E+03  0.11276341879E+03  0.00000000000E+00 0.  1.
          2    1    1    2  501    0 -0.15469804617E+02 -0.40131387458E+02 -0.56215283246E+02  0.70781361845E+02  0.00000000000E+00 0.  1.
         -2    1    1    2    0  503  0.15469804617E+02  0.40131387458E+02 -0.39877907065E+02  0.58652285429E+02  0.00000000000E+00 0. -1.
<mgrwt>
<rscale>  2 0.43009803E+02</rscale>
<asrwt>0</asrwt>
<pdfrwt beam="1">  1       21 0.25646505E-02 0.43009803E+02</pdfrwt>
<pdfrwt beam="2">  1       21 0.17348219E-01 0.43009803E+02</pdfrwt>
<totfact> 0.21031511E+07</totfact>
</mgrwt>
</event>
<event>
 4    1  0.2821610E+004  0.2256321E+02  0.7546771E-02  0.1698690E+00
         21   -1    0    0  503  502  0.00000000000E+00  0.00000000000E+00  0.20421134719E+02  0.20421134719E+02  0.00000000000E+00 0. -1.
         21   -1    0    0  501  503 -0.00000000000E+00 -0.00000000000E+00 -0.65424077880E+02  0.65424077880E+02  0.00000000000E+00 0.  1.
          2    1    1    2  501    0  0.22440382925E+02 -0.23511021432E+01 -0.56270078700E+02  0.60625244115E+02  0.00000000000E+00 0.  1.
         -2    1    1    2    0  502 -0.22440382925E+02  0.23511021432E+01  0.11267135539E+02  0.25219968485E+02  0.00000000000E+00 0. -1.
<mgrwt>
<rscale>  2 0.22563210E+02</rscale>
<asrwt>0</asrwt>
<pdfrwt beam="1">  1       21 0.31417131E-02 0.22563210E+02</pdfrwt>
<pdfrwt beam="2">  1       21 0.10065243E-01 0.22563210E+02</pdfrwt>
<totfact> 0.34139063E+07</totfact>
</mgrwt>
</event>
<event>
 4    1  0.2821610E+004  0.2336188E+02  0.7546771E-02  0.1685710E+00
         21   -1    0    0  503  502  0.00000000000E+00  0.00000000000E+00  0.17967006842E+04  0.17967006842E+04  0.00000000000E+00 0.  1.
         21   -1    0    0  501  503 -0.00000000000E+00 -0.00000000000E+00 -0.76215866051E+00  0.76215866051E+00  0.00000000000E+00 0. -1.
          2    1    1    2  501    0  0.22461411159E+02 -0.64235903742E+01  0.20098043743E+03  0.20233366930E+03  0.00000000000E+00 0. -1.
         -2    1    1    2    0  502 -0.22461411159E+02  0.64235903742E+01  0.15949580882E+04  0.15951291736E+04  0.00000000000E+00 0.  1.
<mgrwt>
<rscale>  2 0.23361881E+02</rscale>
<asrwt>0</asrwt>
<pdfrwt beam="1">  1       21 0.27641210E+00 0.23361881E+02</pdfrwt>
<pdfrwt beam="2">  1       21 0.11725662E-03 0.23361881E+02</pdfrwt>
<totfact> 0.50376775E+06</totfact>
</mgrwt>
</event>
<event>
 4    1  0.2821610E+004  0.2532293E+02  0.7546771E-02  0.1656406E+00
         21   -1    0    0  501  502  0.00000000000E+00  0.00000000000E+00  0.10184623465E+03  0.10184623465E+03  0.00000000000E+00 0. -1.
         21   -1    0    0  502  503 -0.00000000000E+00 -0.00000000000E+00 -0.20307251787E+02  0.20307251787E+02  0.00000000000E+00 0.  1.
          2    1    1    2  501    0  0.23410426930E+02 -0.96541553964E+01  0.91501804980E+02  0.94941198223E+02  0.00000000000E+00 0. -1.
         -2    1    1    2    0  503 -0.23410426930E+02  0.96541553964E+01 -0.99628221153E+01  0.27212288216E+02  0.00000000000E+00 0.  1.
<mgrwt>
<rscale>  2 0.25322930E+02</rscale>
<asrwt>0</asrwt>
<pdfrwt beam="1">  1       21 0.15668651E-01 0.25322930E+02</pdfrwt>
<pdfrwt beam="2">  1       21 0.31241927E-02 0.25322930E+02</pdfrwt>
<totfact> 0.16775533E+07</totfact>
</mgrwt>
</event>
<event>
 4    1  0.2821610E+004  0.5049466E+02  0.7546771E-02  0.1442692E+00
         21   -1    0    0  501  502  0.00000000000E+00  0.00000000000E+00  0.35258445256E+01  0.35258445256E+01  0.00000000000E+00 0.  1.
         21   -1    0    0  502  503 -0.00000000000E+00 -0.00000000000E+00 -0.87307284003E+03  0.87307284003E+03  0.00000000000E+00 0. -1.
          2    1    1    2  501    0 -0.43671772152E+02 -0.25347324077E+02 -0.25314620822E+03  0.25813313088E+03  0.00000000000E+00 0.  1.
         -2    1    1    2    0  503  0.43671772152E+02  0.25347324077E+02 -0.61640078728E+03  0.61846555367E+03  0.00000000000E+00 0. -1.
<mgrwt>
<rscale>  2 0.50494658E+02</rscale>
<asrwt>0</asrwt>
<pdfrwt beam="1">  1       21 0.54243693E-03 0.50494658E+02</pdfrwt>
<pdfrwt beam="2">  1       21 0.13431907E+00 0.50494658E+02</pdfrwt>
<totfact> 0.37729035E+06</totfact>
</mgrwt>
</event>
<event>
 4    1  0.2821610E+004  0.2580654E+02  0.7546771E-02  0.1649680E+00
         21   -1    0    0  503  502  0.00000000000E+00  0.00000000000E+00  0.20097187796E+02  0.20097187796E+02  0.00000000000E+00 0.  1.
         21   -1    0    0  501  503 -0.00000000000E+00 -0.00000000000E+00 -0.75770705997E+02  0.75770705997E+02  0.00000000000E+00 0. -1.
          2    1    1    2  501    0  0.24535812184E+02  0.79982255488E+01 -0.63792207779E+02  0.68814413205E+02  0.00000000000E+00 0. -1.
         -2    1    1    2    0  502 -0.24535812184E+02 -0.79982255488E+01  0.81186895773E+01  0.27053480588E+02  0.00000000000E+00 0.  1.
<mgrwt>
<rscale>  2 0.25806544E+02</rscale>
<asrwt>0</asrwt>
<pdfrwt beam="1">  1       21 0.30918751E-02 0.25806544E+02</pdfrwt>
<pdfrwt beam="2">  1       21 0.11657032E-01 0.25806544E+02</pdfrwt>
<totfact> 0.28272404E+07</totfact>
</mgrwt>
</event>
<event>
 4    1  0.2821610E+004  0.2034433E+02  0.7546771E-02  0.1738566E+00
         21   -1    0    0  501  502  0.00000000000E+00  0.00000000000E+00  0.15030805902E+03  0.15030805902E+03  0.00000000000E+00 0. -1.
         21   -1    0    0  502  503 -0.00000000000E+00 -0.00000000000E+00 -0.13418526224E+02  0.13418526224E+02  0.00000000000E+00 0.  1.
          2    1    1    2  501    0 -0.20075564854E+02  0.32959811315E+01  0.14142668044E+03  0.14288246126E+03  0.00000000000E+00 0. -1.
         -2    1    1    2    0  503  0.20075564854E+02 -0.32959811315E+01 -0.45371476438E+01  0.20844123982E+02  0.00000000000E+00 0.  1.
<mgrwt>
<rscale>  2 0.20344331E+02</rscale>
<asrwt>0</asrwt>
<pdfrwt beam="1">  1       21 0.23124316E-01 0.20344331E+02</pdfrwt>
<pdfrwt beam="2">  1       21 0.20643888E-02 0.20344331E+02</pdfrwt>
<totfact> 0.15474576E+07</totfact>
</mgrwt>
</event>
<event>
 4    1  0.2821610E+004  0.2113349E+02  0.7546771E-02  0.1723683E+00
         21   -1    0    0  501  502  0.00000000000E+00  0.00000000000E+00  0.71600872095E+01  0.71600872095E+01  0.00000000000E+00 0. -1.
         21   -1    0    0  502  503 -0.00000000000E+00 -0.00000000000E+00 -0.98489762994E+02  0.98489762994E+02  0.00000000000E+00 0.  1.
          2    1    1    2  501    0  0.15533959096E+02  0.14329012452E+02 -0.13677806609E+02  0.25173535243E+02  0.00000000000E+00 0. -1.
         -2    1    1    2    0  503 -0.15533959096E+02 -0.14329012452E+02 -0.77651869176E+02  0.80476314960E+02  0.00000000000E+00 0.  1.
<mgrwt>
<rscale>  2 0.21133492E+02</rscale>
<asrwt>0</asrwt>
<pdfrwt beam="1">  1       21 0.11015520E-02 0.21133492E+02</pdfrwt>
<pdfrwt beam="2">  1       21 0.15152269E-01 0.21133492E+02</pdfrwt>
<totfact> 0.83941735E+07</totfact>
</mgrwt>
</event>
<event>
 4    1  0.2821610E+004  0.2164227E+02  0.7546771E-02  0.1714513E+00
         21   -1    0    0  501  502  0.00000000000E+00  0.00000000000E+00  0.14606597904E+02  0.14606597904E+02  0.00000000000E+00 0.  1.
         21   -1    0    0  502  503 -0.00000000000E+00 -0.00000000000E+00 -0.34943359474E+02  0.34943359474E+02  0.00000000000E+00 0. -1.
          2    1    1    2  501    0  0.20276269778E+02  0.75670843579E+01 -0.30601367900E+01  0.21857546042E+02  0.00000000000E+00 0.  1.
         -2    1    1    2    0  503 -0.20276269778E+02 -0.75670843579E+01 -0.17276624781E+02  0.27692411336E+02  0.00000000000E+00 0. -1.
<mgrwt>
<rscale>  2 0.21642271E+02</rscale>
<asrwt>0</asrwt>
<pdfrwt beam="1">  1       21 0.22471689E-02 0.21642271E+02</pdfrwt>
<pdfrwt beam="2">  1       21 0.53759015E-02 0.21642271E+02</pdfrwt>
<totfact> 0.15676929E+08</totfact>
</mgrwt>
</event>
<event>
 4    1  0.2821610E+004  0.2190252E+02  0.7546771E-02  0.1709943E+00
         21   -1    0    0  503  502  0.00000000000E+00  0.00000000000E+00  0.46024035264E+03  0.46024035264E+03  0.00000000000E+00 0.  1.
         21   -1    0    0  501  503 -0.00000000000E+00 -0.00000000000E+00 -0.20871987298E+01  0.20871987298E+01  0.00000000000E+00 0. -1.
          2    1    1    2  501    0  0.18540861869E+02 -0.11660043706E+02  0.65519359015E+02  0.69083330723E+02  0.00000000000E+00 0. -1.
         -2    1    1    2    0  502 -0.18540861869E+02  0.11660043706E+02  0.39263379490E+03  0.39324422065E+03  0.00000000000E+00 0.  1.
<mgrwt>
<rscale>  2 0.21902515E+02</rscale>
<asrwt>0</asrwt>
<pdfrwt beam="1">  1       21 0.70806127E-01 0.21902515E+02</pdfrwt>
<pdfrwt beam="2">  1       21 0.32110786E-03 0.21902515E+02</pdfrwt>
<totfact> 0.30425255E+07</totfact>
</mgrwt>
</event>
<event>
 4    1  0.2821610E+004  0.4860073E+02  0.7546771E-02  0.1453038E+00
         21   -1    0    0  503  502  0.00000000000E+00  0.00000000000E+00  0.36866642756E+03  0.36866642756E+03  0.00000000000E+00 0. -1.
         21   -1    0    0  501  503 -0.00000000000E+00 -0.00000000000E+00 -0.21424381315E+02  0.21424381315E+02  0.00000000000E+00 0.  1.
          2    1    1    2  501    0 -0.42231740718E+02  0.24052253480E+02  0.10323623450E+02  0.49685088535E+02  0.00000000000E+00 0.  1.
         -2    1    1    2    0  502  0.42231740718E+02 -0.24052253480E+02  0.33691842280E+03  0.34040572034E+03  0.00000000000E+00 0. -1.
<mgrwt>
<rscale>  2 0.48600729E+02</rscale>
<asrwt>0</asrwt>
<pdfrwt beam="1">  1       21 0.56717907E-01 0.48600729E+02</pdfrwt>
<pdfrwt beam="2">  1       21 0.32960589E-02 0.48600729E+02</pdfrwt>
<totfact> 0.15290910E+06</totfact>
</mgrwt>
</event>
<event>
 4    1  0.2821610E+004  0.2460558E+02  0.7546771E-02  0.1666733E+00
         21   -1    0    0  503  502  0.00000000000E+00  0.00000000000E+00  0.33506976605E+01  0.33506976605E+01  0.00000000000E+00 0. -1.
         21   -1    0    0  501  503 -0.00000000000E+00 -0.00000000000E+00 -0.22657569326E+03  0.22657569326E+03  0.00000000000E+00 0.  1.
          2    1    1    2  501    0 -0.14643231952E+02 -0.19773981119E+02 -0.16334875872E+03  0.16519156016E+03  0.00000000000E+00 0. -1.
         -2    1    1    2    0  502  0.14643231952E+02  0.19773981119E+02 -0.59876236880E+02  0.64734830765E+02  0.00000000000E+00 0.  1.
<mgrwt>
<rscale>  2 0.24605580E+02</rscale>
<asrwt>0</asrwt>
<pdfrwt beam="1">  1       21 0.51549175E-03 0.24605580E+02</pdfrwt>
<pdfrwt beam="2">  1       21 0.34857813E-01 0.24605580E+02</pdfrwt>
<totfact> 0.61958652E+07</totfact>
</mgrwt>
</event>
<event>
 4    1  0.2821610E+004  0.2415579E+02  0.7546771E-02  0.1673432E+00
         21   -1    0    0  503  502  0.00000000000E+00  0.00000000000E+00  0.17661399327E+02  0.17661399327E+02  0.00000000000E+00 0. -1.
         21   -1    0    0  501  503 -0.00000000000E+00 -0.00000000000E+00 -0.53086329805E+02  0.53086329805E+02  0.00000000000E+00 0.  1.
          2    1    1    2  501    0 -0.24045472214E+02 -0.23059969340E+01 -0.39450844599E+02  0.46258745070E+02  0.00000000000E+00 0.  1.
         -2    1    1    2    0  502  0.24045472214E+02  0.23059969340E+01  0.40259141210E+01  0.24488984062E+02  0.00000000000E+00 0. -1.
<mgrwt>
<rscale>  2 0.24155793E+02</rscale>
<asrwt>0</asrwt>
<pdfrwt beam="1">  1       21 0.27171383E-02 0.24155793E+02</pdfrwt>
<pdfrwt beam="2">  1       21 0.81671277E-02 0.24155793E+02</pdfrwt>
<totfact> 0.61414451E+07</totfact>
</mgrwt>
</event>
<event>
 4    1  0.2821610E+004  0.2205653E+02  0.7546771E-02  0.1707276E+00
         21   -1    0    0  501  502  0.00000000000E+00  0.00000000000E+00  0.15065906254E+03  0.15065906254E+03  0.00000000000E+00 0.  1.
         21   -1    0    0  502  503 -0.00000000000E+00 -0.00000000000E+00 -0.67720573173E+01  0.67720573173E+01  0.00000000000E+00 0. -1.
          2    1    1    2  501    0 -0.22056503058E+02 -0.34568219873E-01  0.12887915711E+03  0.13075292601E+03  0.00000000000E+00 0.  1.
         -2    1    1    2    0  503  0.22056503058E+02  0.34568219873E-01  0.15007848113E+02  0.26678193850E+02  0.00000000000E+00 0. -1.
<mgrwt>
<rscale>  2 0.22056530E+02</rscale>
<asrwt>0</asrwt>
<pdfrwt beam="1">  1       21 0.23178315E-01 0.22056530E+02</pdfrwt>
<pdfrwt beam="2">  1       21 0.10418551E-02 0.22056530E+02</pdfrwt>
<totfact> 0.44233733E+07</totfact>
</mgrwt>
</event>
<event>
 4    1  0.2821610E+004  0.7124005E+02  0.7546771E-02  0.1355926E+00
         21   -1    0    0  501  502  0.00000000000E+00  0.00000000000E+00  0.26990686856E+02  0.26990686856E+02  0.00000000000E+00 0.  1.
         21   -1    0    0  502  503 -0.00000000000E+00 -0.00000000000E+00 -0.24571289861E+03  0.24571289861E+03  0.00000000000E+00 0. -1.
          2    1    1    2  501    0 -0.71234762335E+02  0.86822036854E+00 -0.43298093546E+02  0.83365880768E+02  0.00000000000E+00 0.  1.
         -2    1    1    2    0  503  0.71234762335E+02 -0.86822036854E+00 -0.17542411821E+03  0.18933770470E+03  0.00000000000E+00 0. -1.
<mgrwt>
<rscale>  2 0.71240053E+02</rscale>
<asrwt>0</asrwt>
<pdfrwt beam="1">  1       21 0.41524134E-02 0.71240053E+02</pdfrwt>
<pdfrwt beam="2">  1       21 0.37801984E-01 0.71240053E+02</pdfrwt>
<totfact> 0.24087186E+06</totfact>
</mgrwt>
</event>
<event>
 4    1  0.2821610E+004  0.2540597E+02  0.7546771E-02  0.1655238E+00
         21   -1    0    0  503  502  0.00000000000E+00  0.00000000000E+00  0.16889254056E+02  0.16889254056E+02  0.00000000000E+00 0. -1.
         21   -1    0    0  501  503 -0.00000000000E+00 -0.00000000000E+00 -0.66597893613E+02  0.66597893613E+02  0.00000000000E+00 0.  1.
          2    1    1    2  501    0 -0.25067756231E+02 -0.41316851986E+01 -0.52104502768E+02  0.57968460681E+02  0.00000000000E+00 0.  1.
         -2    1    1    2    0  502  0.25067756231E+02  0.41316851986E+01  0.23958632113E+01  0.25518686987E+02  0.00000000000E+00 0. -1.
<mgrwt>
<rscale>  2 0.25405968E+02</rscale>
<asrwt>0</asrwt>
<pdfrwt beam="1">  1       21 0.25983468E-02 0.25405968E+02</pdfrwt>
<pdfrwt beam="2">  1       21 0.10245830E-01 0.25405968E+02</pdfrwt>
<totfact> 0.45847827E+07</totfact>
</mgrwt>
</event>
<event>
 4    1  0.2821610E+004  0.2124191E+02  0.7546771E-02  0.1721702E+00
         21   -1    0    0  501  502  0.00000000000E+00  0.00000000000E+00  0.21102415517E+02  0.21102415517E+02  0.00000000000E+00 0. -1.
         21   -1    0    0  502  503 -0.00000000000E+00 -0.00000000000E+00 -0.27878246973E+02  0.27878246973E+02  0.00000000000E+00 0.  1.
          2    1    1    2  501    0 -0.17326719194E+02  0.12288342560E+02  0.84338557426E+01  0.22854944402E+02  0.00000000000E+00 0.  1.
         -2    1    1    2    0  503  0.17326719194E+02 -0.12288342560E+02 -0.15209687199E+02  0.26125718088E+02  0.00000000000E+00 0. -1.
<mgrwt>
<rscale>  2 0.21241906E+02</rscale>
<asrwt>0</asrwt>
<pdfrwt beam="1">  1       21 0.32465254E-02 0.21241906E+02</pdfrwt>
<pdfrwt beam="2">  1       21 0.42889611E-02 0.21241906E+02</pdfrwt>
<totfact> 0.12619849E+08</totfact>
</mgrwt>
</event>
<event>
 4    1  0.2821610E+004  0.5328485E+02  0.7546771E-02  0.1428388E+00
         21   -1    0    0  503  502  0.00000000000E+00  0.00000000000E+00  0.30473842157E+02  0.30473842157E+02  0.00000000000E+00 0.  1.
         21   -1    0    0  501  503 -0.00000000000E+00 -0.00000000000E+00 -0.22261074411E+03  0.22261074411E+03  0.00000000000E+00 0. -1.
          2    1    1    2  501    0  0.52267797697E+02  0.10361106251E+02 -0.19256163467E+03  0.19979804390E+03  0.00000000000E+00 0. -1.
         -2    1    1    2    0  502 -0.52267797697E+02 -0.10361106251E+02  0.42473272507E+00  0.53286542361E+02  0.00000000000E+00 0.  1.
<mgrwt>
<rscale>  2 0.53284850E+02</rscale>
<asrwt>0</asrwt>
<pdfrwt beam="1">  1       21 0.46882833E-02 0.53284850E+02</pdfrwt>
<pdfrwt beam="2">  1       21 0.34247808E-01 0.53284850E+02</pdfrwt>
<totfact> 0.23488907E+06</totfact>
</mgrwt>
</event>
<event>
 4    1  0.2821610E+004  0.2201183E+02  0.7546771E-02  0.1708047E+00
         21   -1    0    0  501  502  0.00000000000E+00  0.00000000000E+00  0.64140069645E+00  0.64140069645E+00  0.00000000000E+00 0.  1.
         21   -1    0    0  502  503 -0.00000000000E+00 -0.00000000000E+00 -0.14549594308E+04  0.14549594308E+04  0.00000000000E+00 0. -1.
          2    1    1    2  501    0  0.89547215900E+01 -0.20108053316E+02 -0.22250248951E+03  0.22358863720E+03  0.00000000000E+00 0.  1.
         -2    1    1    2    0  503 -0.89547215900E+01  0.20108053316E+02 -0.12318155405E+04  0.12320121942E+04  0.00000000000E+00 0. -1.
<mgrwt>
<rscale>  2 0.22011834E+02</rscale>
<asrwt>0</asrwt>
<pdfrwt beam="1">  1       21 0.98676673E-04 0.22011834E+02</pdfrwt>
<pdfrwt beam="2">  1       21 0.22384072E+00 0.22011834E+02</pdfrwt>
<totfact> 0.11725298E+07</totfact>
</mgrwt>
</event>
<event>
 4    1  0.2821610E+004  0.2606140E+02  0.7546771E-02  0.1646209E+00
         21   -1    0    0  501  502  0.00000000000E+00  0.00000000000E+00  0.97653455429E+02  0.97653455429E+02  0.00000000000E+00 0.  1.
         21   -1    0    0  502  503 -0.00000000000E+00 -0.00000000000E+00 -0.13883898808E+02  0.13883898808E+02  0.00000000000E+00 0. -1.
          2    1    1    2  501    0 -0.22672536889E+02 -0.12851175330E+02  0.81281612392E+02  0.85357466864E+02  0.00000000000E+00 0.  1.
         -2    1    1    2    0  503  0.22672536889E+02  0.12851175330E+02  0.24879442290E+01  0.26179887373E+02  0.00000000000E+00 0. -1.
<mgrwt>
<rscale>  2 0.26061401E+02</rscale>
<asrwt>0</asrwt>
<pdfrwt beam="1">  1       21 0.15023608E-01 0.26061401E+02</pdfrwt>
<pdfrwt beam="2">  1       21 0.21359845E-02 0.26061401E+02</pdfrwt>
<totfact> 0.32757788E+07</totfact>
</mgrwt>
</event>
<event>
 4    1  0.2821610E+004  0.2002992E+02  0.7546771E-02  0.1744734E+00
         21   -1    0    0  501  502  0.00000000000E+00  0.00000000000E+00  0.64801197384E+03  0.64801197384E+03  0.00000000000E+00 0.  1.
         21   -1    0    0  502  503 -0.00000000000E+00 -0.00000000000E+00 -0.21526766173E+01  0.21526766173E+01  0.00000000000E+00 0. -1.
          2    1    1    2  501    0 -0.19276058383E+02 -0.54434526638E+01  0.59731048389E+03  0.59764622626E+03  0.00000000000E+00 0.  1.
         -2    1    1    2    0  503  0.19276058383E+02  0.54434526638E+01  0.48548813339E+02  0.52518424198E+02  0.00000000000E+00 0. -1.
<mgrwt>
<rscale>  2 0.20029918E+02</rscale>
<asrwt>0</asrwt>
<pdfrwt beam="1">  1       21 0.99693995E-01 0.20029918E+02</pdfrwt>
<pdfrwt beam="2">  1       21 0.33118153E-03 0.20029918E+02</pdfrwt>
<totfact> 0.13887730E+07</totfact>
</mgrwt>
</event>
<event>
 4    1  0.2821610E+004  0.2096556E+02  0.7546771E-02  0.1726781E+00
         21   -1    0    0  501  502  0.00000000000E+00  0.00000000000E+00  0.29947128292E+03  0.29947128292E+03  0.00000000000E+00 0. -1.
         21   -1    0    0  502  503 -0.00000000000E+00 -0.00000000000E+00 -0.17225437280E+02  0.17225437280E+02  0.00000000000E+00 0.  1.
          2    1    1    2  501    0 -0.16866662193E+02  0.12452729808E+02  0.29257471407E+03  0.29332493601E+03  0.00000000000E+00 0. -1.
         -2    1    1    2    0  503  0.16866662193E+02 -0.12452729808E+02 -0.10328868429E+02  0.23371784190E+02  0.00000000000E+00 0.  1.
<mgrwt>
<rscale>  2 0.20965562E+02</rscale>
<asrwt>0</asrwt>
<pdfrwt beam="1">  1       21 0.46072501E-01 0.20965562E+02</pdfrwt>
<pdfrwt beam="2">  1       21 0.26500675E-02 0.20965562E+02</pdfrwt>
<totfact> 0.30004537E+06</totfact>
</mgrwt>
</event>
<event>
 4    1  0.2821610E+004  0.2362423E+02  0.7546771E-02  0.1681587E+00
         21   -1    0    0  501  502  0.00000000000E+00  0.00000000000E+00  0.31266496577E+01  0.31266496577E+01  0.00000000000E+00 0. -1.
         21   -1    0    0  502  503 -0.00000000000E+00 -0.00000000000E+00 -0.25032716505E+03  0.25032716505E+03  0.00000000000E+00 0.  1.
          2    1    1    2  501    0 -0.11254041381E+02 -0.20771397972E+02 -0.55717157621E+02  0.60518642371E+02  0.00000000000E+00 0. -1.
         -2    1    1    2    0  503  0.11254041381E+02  0.20771397972E+02 -0.19148335777E+03  0.19293517234E+03  0.00000000000E+00 0.  1.
<mgrwt>
<rscale>  2 0.23624234E+02</rscale>
<asrwt>0</asrwt>
<pdfrwt beam="1">  1       21 0.48102292E-03 0.23624234E+02</pdfrwt>
<pdfrwt beam="2">  1       21 0.38511880E-01 0.23624234E+02</pdfrwt>
<totfact> 0.56416062E+07</totfact>
</mgrwt>
</event>
<event>
 4    1  0.2821610E+004  0.2799598E+02  0.7546771E-02  0.1621359E+00
         21   -1    0    0  503  502  0.00000000000E+00  0.00000000000E+00  0.16136925473E+02  0.16136925473E+02  0.00000000000E+00 0.  1.
         21   -1    0    0  501  503 -0.00000000000E+00 -0.00000000000E+00 -0.71184383392E+02  0.71184383392E+02  0.00000000000E+00 0. -1.
          2    1    1    2  501    0 -0.13210646517E+02 -0.24683060842E+02 -0.52132376794E+02  0.59173975564E+02  0.00000000000E+00 0. -1.
         -2    1    1    2    0  502  0.13210646517E+02  0.24683060842E+02 -0.29150811256E+01  0.28147333300E+02  0.00000000000E+00 0.  1.
<mgrwt>
<rscale>  2 0.27995976E+02</rscale>
<asrwt>0</asrwt>
<pdfrwt beam="1">  1       21 0.24826039E-02 0.27995976E+02</pdfrwt>
<pdfrwt beam="2">  1       21 0.10951444E-01 0.27995976E+02</pdfrwt>
<totfact> 0.45034997E+07</totfact>
</mgrwt>
</event>
<event>
 4    1  0.2821610E+004  0.2179305E+02  0.7546771E-02  0.1711856E+00
         21   -1    0    0  501  502  0.00000000000E+00  0.00000000000E+00  0.32606392772E+02  0.32606392772E+02  0.00000000000E+00 0.  1.
         21   -1    0    0  502  503 -0.00000000000E+00 -0.00000000000E+00 -0.22093297670E+02  0.22093297670E+02  0.00000000000E+00 0. -1.
          2    1    1    2  501    0 -0.15018309735E+01 -0.21741237408E+02  0.21220890984E+02  0.30418137919E+02  0.00000000000E+00 0.  1.
         -2    1    1    2    0  503  0.15018309735E+01  0.21741237408E+02 -0.10707795881E+02  0.24281552523E+02  0.00000000000E+00 0. -1.
<mgrwt>
<rscale>  2 0.21793047E+02</rscale>
<asrwt>0</asrwt>
<pdfrwt beam="1">  1       21 0.50163681E-02 0.21793047E+02</pdfrwt>
<pdfrwt beam="2">  1       21 0.33989689E-02 0.21793047E+02</pdfrwt>
<totfact> 0.92387261E+07</totfact>
</mgrwt>
</event>
<event>
 4    1  0.2821610E+004  0.3073411E+02  0.7546771E-02  0.1590113E+00
         21   -1    0    0  503  502  0.00000000000E+00  0.00000000000E+00  0.24877388333E+01  0.24877388333E+01  0.00000000000E+00 0.  1.
         21   -1    0    0  501  503 -0.00000000000E+00 -0.00000000000E+00 -0.51778309045E+03  0.51778309045E+03  0.00000000000E+00 0. -1.
          2    1    1    2  501    0 -0.30678857583E+02 -0.18419892443E+01 -0.39198652356E+03  0.39318954701E+03  0.00000000000E+00 0. -1.
         -2    1    1    2    0  502  0.30678857583E+02  0.18419892443E+01 -0.12330882806E+03  0.12708128227E+03  0.00000000000E+00 0.  1.
<mgrwt>
<rscale>  2 0.30734105E+02</rscale>
<asrwt>0</asrwt>
<pdfrwt beam="1">  1       21 0.38272857E-03 0.30734105E+02</pdfrwt>
<pdfrwt beam="2">  1       21 0.79659038E-01 0.30734105E+02</pdfrwt>
<totfact> 0.19599725E+07</totfact>
</mgrwt>
</event>
<event>
 4    1  0.2821610E+004  0.2583491E+02  0.7546771E-02  0.1649292E+00
         21   -1    0    0  503  502  0.00000000000E+00  0.00000000000E+00  0.14067697261E+02  0.14067697261E+02  0.00000000000E+00 0.  1.
         21   -1    0    0  501  503 -0.00000000000E+00 -0.00000000000E+00 -0.88988145003E+02  0.88988145003E+02  0.00000000000E+00 0. -1.
          2    1    1    2  501    0  0.28173182065E-01 -0.25834892014E+02 -0.72666981351E+02  0.77122841090E+02  0.00000000000E+00 0. -1.
         -2    1    1    2    0  502 -0.28173182065E-01  0.25834892014E+02 -0.22534663908E+01  0.25933001174E+02  0.00000000000E+00 0.  1.
<mgrwt>
<rscale>  2 0.25834907E+02</rscale>
<asrwt>0</asrwt>
<pdfrwt beam="1">  1       21 0.21642612E-02 0.25834907E+02</pdfrwt>
<pdfrwt beam="2">  1       21 0.13690483E-01 0.25834907E+02</pdfrwt>
<totfact> 0.37537941E+07</totfact>
</mgrwt>
</event>
<event>
 4    1  0.2821610E+004  0.2642616E+02  0.7546771E-02  0.1641324E+00
         21   -1    0    0  501  502  0.00000000000E+00  0.00000000000E+00  0.16773591728E+03  0.16773591728E+03  0.00000000000E+00 0.  1.
         21   -1    0    0  502  503 -0.00000000000E+00 -0.00000000000E+00 -0.41842033873E+01  0.41842033873E+01  0.00000000000E+00 0. -1.
          2    1    1    2  501    0  0.25453920372E+02 -0.71020876540E+01  0.87845723766E+02  0.91734469504E+02  0.00000000000E+00 0.  1.
         -2    1    1    2    0  503 -0.25453920372E+02  0.71020876540E+01  0.75705990129E+02  0.80185651165E+02  0.00000000000E+00 0. -1.
<mgrwt>
<rscale>  2 0.26426156E+02</rscale>
<asrwt>0</asrwt>
<pdfrwt beam="1">  1       21 0.25805520E-01 0.26426156E+02</pdfrwt>
<pdfrwt beam="2">  1       21 0.64372373E-03 0.26426156E+02</pdfrwt>
<totfact> 0.78487195E+07</totfact>
</mgrwt>
</event>
<event>
 4    1  0.2821610E+004  0.2394078E+02  0.7546771E-02  0.1676699E+00
         21   -1    0    0  503  502  0.00000000000E+00  0.00000000000E+00  0.29653867757E+01  0.29653867757E+01  0.00000000000E+00 0. -1.
         21   -1    0    0  501  503 -0.00000000000E+00 -0.00000000000E+00 -0.27387856451E+03  0.27387856451E+03  0.00000000000E+00 0.  1.
          2    1    1    2  501    0  0.23169998586E+02 -0.60259694853E+01 -0.21054614058E+03  0.21190289865E+03  0.00000000000E+00 0.  1.
         -2    1    1    2    0  502 -0.23169998586E+02  0.60259694853E+01 -0.60367037151E+02  0.64941052633E+02  0.00000000000E+00 0. -1.
<mgrwt>
<rscale>  2 0.23940784E+02</rscale>
<asrwt>0</asrwt>
<pdfrwt beam="1">  1       21 0.45621332E-03 0.23940784E+02</pdfrwt>
<pdfrwt beam="2">  1       21 0.42135166E-01 0.23940784E+02</pdfrwt>
<totfact> 0.51633863E+07</totfact>
</mgrwt>
</event>
<event>
 4    1  0.2821610E+004  0.2096934E+02  0.7546771E-02  0.1726711E+00
         21   -1    0    0  503  502  0.00000000000E+00  0.00000000000E+00  0.12484574486E+01  0.12484574486E+01  0.00000000000E+00 0. -1.
         21   -1    0    0  501  503 -0.00000000000E+00 -0.00000000000E+00 -0.35627183148E+03  0.35627183148E+03  0.00000000000E+00 0.  1.
          2    1    1    2  501    0 -0.20084463383E+02  0.60272450377E+01 -0.15841354641E+03  0.15979538491E+03  0.00000000000E+00 0. -1.
         -2    1    1    2    0  502  0.20084463383E+02 -0.60272450377E+01 -0.19660982762E+03  0.19772490402E+03  0.00000000000E+00 0.  1.
<mgrwt>
<rscale>  2 0.20969343E+02</rscale>
<asrwt>0</asrwt>
<pdfrwt beam="1">  1       21 0.19207026E-03 0.20969343E+02</pdfrwt>
<pdfrwt beam="2">  1       21 0.54811086E-01 0.20969343E+02</pdfrwt>
<totfact> 0.10585182E+08</totfact>
</mgrwt>
</event>
<event>
 4    1  0.2821610E+004  0.2323536E+02  0.7546771E-02  0.1687723E+00
         21   -1    0    0  501  502  0.00000000000E+00  0.00000000000E+00  0.36578271541E+02  0.36578271541E+02  0.00000000000E+00 0. -1.
         21   -1    0    0  502  503 -0.00000000000E+00 -0.00000000000E+00 -0.27421062581E+02  0.27421062581E+02  0.00000000000E+00 0.  1.
          2    1    1    2  501    0 -0.23080000714E+02  0.26824380069E+01  0.26322866446E+02  0.35110898658E+02  0.00000000000E+00 0. -1.
         -2    1    1    2    0  503  0.23080000714E+02 -0.26824380069E+01 -0.17165657486E+02  0.28888435464E+02  0.00000000000E+00 0.  1.
<mgrwt>
<rscale>  2 0.23235359E+02</rscale>
<asrwt>0</asrwt>
<pdfrwt beam="1">  1       21 0.56274264E-02 0.23235359E+02</pdfrwt>
<pdfrwt beam="2">  1       21 0.42186250E-02 0.23235359E+02</pdfrwt>
<totfact> 0.55758381E+07</totfact>
</mgrwt>
</event>
<event>
 4    1  0.2821610E+004  0.2676819E+02  0.7546771E-02  0.1636831E+00
         21   -1    0    0  503  502  0.00000000000E+00  0.00000000000E+00  0.84291012807E+01  0.84291012807E+01  0.00000000000E+00 0. -1.
         21   -1    0    0  501  503 -0.00000000000E+00 -0.00000000000E+00 -0.86061189269E+02  0.86061189269E+02  0.00000000000E+00 0.  1.
          2    1    1    2  501    0 -0.24730006810E+02  0.10245126999E+02 -0.44044017052E+02  0.51540385157E+02  0.00000000000E+00 0.  1.
         -2    1    1    2    0  502  0.24730006810E+02 -0.10245126999E+02 -0.33588070937E+02  0.42949905393E+02  0.00000000000E+00 0. -1.
<mgrwt>
<rscale>  2 0.26768188E+02</rscale>
<asrwt>0</asrwt>
<pdfrwt beam="1">  1       21 0.12967848E-02 0.26768188E+02</pdfrwt>
<pdfrwt beam="2">  1       21 0.13240183E-01 0.26768188E+02</pdfrwt>
<totfact> 0.87861652E+07</totfact>
</mgrwt>
</event>
<event>
 4    1  0.2821610E+004  0.2090554E+02  0.7546771E-02  0.1727898E+00
         21   -1    0    0  503  502  0.00000000000E+00  0.00000000000E+00  0.31861154808E+01  0.31861154808E+01  0.00000000000E+00 0.  1.
         21   -1    0    0  501  503 -0.00000000000E+00 -0.00000000000E+00 -0.27601929098E+03  0.27601929098E+03  0.00000000000E+00 0. -1.
          2    1    1    2  501    0  0.19818134458E+02  0.66545638803E+01 -0.23543018903E+03  0.23635654334E+03  0.00000000000E+00 0. -1.
         -2    1    1    2    0  502 -0.19818134458E+02 -0.66545638803E+01 -0.37402986474E+02  0.42848863123E+02  0.00000000000E+00 0.  1.
<mgrwt>
<rscale>  2 0.20905542E+02</rscale>
<asrwt>0</asrwt>
<pdfrwt beam="1">  1       21 0.49017146E-03 0.20905542E+02</pdfrwt>
<pdfrwt beam="2">  1       21 0.42464520E-01 0.20905542E+02</pdfrwt>
<totfact> 0.44309839E+07</totfact>
</mgrwt>
</event>
<event>
 4    1  0.2821610E+004  0.2972787E+02  0.7546771E-02  0.1601116E+00
         21   -1    0    0  503  502  0.00000000000E+00  0.00000000000E+00  0.50956123419E+02  0.50956123419E+02  0.00000000000E+00 0. -1.
         21   -1    0    0  501  503 -0.00000000000E+00 -0.00000000000E+00 -0.22062231936E+02  0.22062231936E+02  0.00000000000E+00 0.  1.
          2    1    1    2  501    0  0.98204121960E+01  0.28058970598E+02 -0.24380165717E+01  0.29827675932E+02  0.00000000000E+00 0.  1.
         -2    1    1    2    0  502 -0.98204121960E+01 -0.28058970598E+02  0.31331908054E+02  0.43190679423E+02  0.00000000000E+00 0. -1.
<mgrwt>
<rscale>  2 0.29727871E+02</rscale>
<asrwt>0</asrwt>
<pdfrwt beam="1">  1       21 0.78394036E-02 0.29727871E+02</pdfrwt>
<pdfrwt beam="2">  1       21 0.33941895E-02 0.29727871E+02</pdfrwt>
<totfact> 0.48715788E+07</totfact>
</mgrwt>
</event>
<event>
 4    1  0.2821610E+004  0.2052025E+02  0.7546771E-02  0.1735176E+00
         21   -1    0    0  503  502  0.00000000000E+00  0.00000000000E+00  0.21971125388E+02  0.21971125388E+02  0.00000000000E+00 0.  1.
         21   -1    0    0  501  503 -0.00000000000E+00 -0.00000000000E+00 -0.75894166535E+02  0.75894166535E+02  0.00000000000E+00 0. -1.
          2    1    1    2  501    0 -0.20428756020E+02 -0.19356298912E+01 -0.69267035588E+02  0.72242667135E+02  0.00000000000E+00 0. -1.
         -2    1    1    2    0  502  0.20428756020E+02  0.19356298912E+01  0.15343994441E+02  0.25622624788E+02  0.00000000000E+00 0.  1.
<mgrwt>
<rscale>  2 0.20520252E+02</rscale>
<asrwt>0</asrwt>
<pdfrwt beam="1">  1       21 0.33801732E-02 0.20520252E+02</pdfrwt>
<pdfrwt beam="2">  1       21 0.11676025E-01 0.20520252E+02</pdfrwt>
<totfact> 0.23278913E+07</totfact>
</mgrwt>
</event>
<event>
 4    1  0.2821610E+004  0.6371866E+02  0.7546771E-02  0.1382857E+00
         21   -1    0    0  501  502  0.00000000000E+00  0.00000000000E+00  0.17742869294E+04  0.17742869294E+04  0.00000000000E+00 0. -1.
         21   -1    0    0  502  503 -0.00000000000E+00 -0.00000000000E+00 -0.57194536466E+01  0.57194536466E+01  0.00000000000E+00 0.  1.
          2    1    1    2  501    0  0.13380510216E+02  0.62297912738E+02  0.15736270152E+04  0.15749165219E+04  0.00000000000E+00 0. -1.
         -2    1    1    2    0  503 -0.13380510216E+02 -0.62297912738E+02  0.19494046059E+03  0.20508986118E+03  0.00000000000E+00 0.  1.
<mgrwt>
<rscale>  2 0.63718663E+02</rscale>
<asrwt>0</asrwt>
<pdfrwt beam="1">  1       21 0.27296678E+00 0.63718663E+02</pdfrwt>
<pdfrwt beam="2">  1       21 0.87991736E-03 0.63718663E+02</pdfrwt>
<totfact> 0.25315605E+05</totfact>
</mgrwt>
</event>
<event>
 4    1  0.2821610E+004  0.2274278E+02  0.7546771E-02  0.1695714E+00
         21   -1    0    0  501  502  0.00000000000E+00  0.00000000000E+00  0.22101770694E+02  0.22101770694E+02  0.00000000000E+00 0. -1.
         21   -1    0    0  502  503 -0.00000000000E+00 -0.00000000000E+00 -0.23654216565E+02  0.23654216565E+02  0.00000000000E+00 0.  1.
          2    1    1    2  501    0 -0.14661613797E+02  0.17385941678E+02 -0.31368580801E+01  0.22958087154E+02  0.00000000000E+00 0.  1.
         -2    1    1    2    0  503  0.14661613797E+02 -0.17385941678E+02  0.15844122091E+01  0.22797900105E+02  0.00000000000E+00 0. -1.
<mgrwt>
<rscale>  2 0.22742777E+02</rscale>
<asrwt>0</asrwt>
<pdfrwt beam="1">  1       21 0.34002724E-02 0.22742777E+02</pdfrwt>
<pdfrwt beam="2">  1       21 0.36391103E-02 0.22742777E+02</pdfrwt>
<totfact> 0.15520398E+08</totfact>
</mgrwt>
</event>
<event>
 4    1  0.2821610E+004  0.2532941E+02  0.7546771E-02  0.1656315E+00
         21   -1    0    0  501  502  0.00000000000E+00  0.00000000000E+00  0.16730811135E+02  0.16730811135E+02  0.00000000000E+00 0.  1.
         21   -1    0    0  502  503 -0.00000000000E+00 -0.00000000000E+00 -0.67359215443E+02  0.67359215443E+02  0.00000000000E+00 0. -1.
          2    1    1    2  501    0  0.74029630200E+01  0.24223443117E+02  0.22791998662E+01  0.25431748071E+02  0.00000000000E+00 0.  1.
         -2    1    1    2    0  503 -0.74029630200E+01 -0.24223443117E+02 -0.52907604174E+02  0.58658278507E+02  0.00000000000E+00 0. -1.
<mgrwt>
<rscale>  2 0.25329411E+02</rscale>
<asrwt>0</asrwt>
<pdfrwt beam="1">  1       21 0.25739709E-02 0.25329411E+02</pdfrwt>
<pdfrwt beam="2">  1       21 0.10362956E-01 0.25329411E+02</pdfrwt>
<totfact> 0.45620405E+07</totfact>
</mgrwt>
</event>
<event>
 4    1  0.2821610E+004  0.2131895E+02  0.7546771E-02  0.1720304E+00
         21   -1    0    0  501  502  0.00000000000E+00  0.00000000000E+00  0.80190511484E+02  0.80190511484E+02  0.00000000000E+00 0. -1.
         21   -1    0    0  502  503 -0.00000000000E+00 -0.00000000000E+00 -0.37518636484E+02  0.37518636484E+02  0.00000000000E+00 0.  1.
          2    1    1    2  501    0  0.49521613110E+01  0.20735807010E+02  0.75563195428E+02  0.78513018649E+02  0.00000000000E+00 0. -1.
         -2    1    1    2    0  503 -0.49521613110E+01 -0.20735807010E+02 -0.32891320429E+02  0.39196129318E+02  0.00000000000E+00 0.  1.
<mgrwt>
<rscale>  2 0.21318949E+02</rscale>
<asrwt>0</asrwt>
<pdfrwt beam="1">  1       21 0.12337002E-01 0.21318949E+02</pdfrwt>
<pdfrwt beam="2">  1       21 0.57720979E-02 0.21318949E+02</pdfrwt>
<totfact> 0.92068162E+06</totfact>
</mgrwt>
</event>
<event>
 4    1  0.2821610E+004  0.3161267E+02  0.7546771E-02  0.1580918E+00
         21   -1    0    0  501  502  0.00000000000E+00  0.00000000000E+00  0.86709989224E+02  0.86709989224E+02  0.00000000000E+00 0.  1.
         21   -1    0    0  502  503 -0.00000000000E+00 -0.00000000000E+00 -0.24847042959E+02  0.24847042959E+02  0.00000000000E+00 0. -1.
          2    1    1    2  501    0 -0.91392935000E+01 -0.30262750453E+02  0.71773729658E+02  0.78427221165E+02  0.00000000000E+00 0.  1.
         -2    1    1    2    0  503  0.91392935000E+01  0.30262750453E+02 -0.99107833927E+01  0.33129811018E+02  0.00000000000E+00 0. -1.
<mgrwt>
<rscale>  2 0.31612668E+02</rscale>
<asrwt>0</asrwt>
<pdfrwt beam="1">  1       21 0.13339998E-01 0.31612668E+02</pdfrwt>
<pdfrwt beam="2">  1       21 0.38226220E-02 0.31612668E+02</pdfrwt>
<totfact> 0.16749768E+07</totfact>
</mgrwt>
</event>
<event>
 4    1  0.2821610E+004  0.2094324E+02  0.7546771E-02  0.1727196E+00
         21   -1    0    0  503  502  0.00000000000E+00  0.00000000000E+00  0.22735177968E+01  0.22735177968E+01  0.00000000000E+00 0.  1.
         21   -1    0    0  501  503 -0.00000000000E+00 -0.00000000000E+00 -0.23376293276E+03  0.23376293276E+03  0.00000000000E+00 0. -1.
          2    1    1    2  501    0 -0.13220470745E+02 -0.16243103169E+02 -0.16507244521E+03  0.16639570732E+03  0.00000000000E+00 0. -1.
         -2    1    1    2    0  502  0.13220470745E+02  0.16243103169E+02 -0.66416969757E+02  0.69640743240E+02  0.00000000000E+00 0.  1.
<mgrwt>
<rscale>  2 0.20943239E+02</rscale>
<asrwt>0</asrwt>
<pdfrwt beam="1">  1       21 0.34977208E-03 0.20943239E+02</pdfrwt>
<pdfrwt beam="2">  1       21 0.35963517E-01 0.20943239E+02</pdfrwt>
<totfact> 0.99125013E+07</totfact>
</mgrwt>
</event>
<event>
 4    1  0.2821610E+004  0.2339895E+02  0.7546771E-02  0.1685124E+00
         21   -1    0    0  503  502  0.00000000000E+00  0.00000000000E+00  0.45449419263E+02  0.45449419263E+02  0.00000000000E+00 0.  1.
         21   -1    0    0  501  503 -0.00000000000E+00 -0.00000000000E+00 -0.48000226957E+02  0.48000226957E+02  0.00000000000E+00 0. -1.
          2    1    1    2  501    0  0.22031717851E+02  0.78812726998E+01 -0.41714120478E+02  0.47828640981E+02  0.00000000000E+00 0. -1.
         -2    1    1    2    0  502 -0.22031717851E+02 -0.78812726998E+01  0.39163312784E+02  0.45621005239E+02  0.00000000000E+00 0.  1.
<mgrwt>
<rscale>  2 0.23398954E+02</rscale>
<asrwt>0</asrwt>
<pdfrwt beam="1">  1       21 0.69922184E-02 0.23398954E+02</pdfrwt>
<pdfrwt beam="2">  1       21 0.73846503E-02 0.23398954E+02</pdfrwt>
<totfact> 0.16054991E+07</totfact>
</mgrwt>
</event>
<event>
 4    1  0.2821610E+004  0.2081357E+02  0.7546771E-02  0.1729617E+00
         21   -1    0    0  503  502  0.00000000000E+00  0.00000000000E+00  0.28558126634E+01  0.28558126634E+01  0.00000000000E+00 0.  1.
         21   -1    0    0  501  503 -0.00000000000E+00 -0.00000000000E+00 -0.17836637151E+03  0.17836637151E+03  0.00000000000E+00 0. -1.
          2    1    1    2  501    0  0.57044138937E+01  0.20016601388E+02 -0.12279574598E+03  0.12454717941E+03  0.00000000000E+00 0.  1.
         -2    1    1    2    0  502 -0.57044138937E+01 -0.20016601388E+02 -0.52714812867E+02  0.56675004760E+02  0.00000000000E+00 0. -1.
<mgrwt>
<rscale>  2 0.20813569E+02</rscale>
<asrwt>0</asrwt>
<pdfrwt beam="1">  1       21 0.43935588E-03 0.20813569E+02</pdfrwt>
<pdfrwt beam="2">  1       21 0.27440975E-01 0.20813569E+02</pdfrwt>
<totfact> 0.11604689E+08</totfact>
</mgrwt>
</event>
<event>
 4    1  0.2821610E+004  0.4596652E+02  0.7546771E-02  0.1468396E+00
         21   -1    0    0  501  502  0.00000000000E+00  0.00000000000E+00  0.25888840822E+03  0.25888840822E+03  0.00000000000E+00 0.  1.
         21   -1    0    0  502  503 -0.00000000000E+00 -0.00000000000E+00 -0.91555982371E+01  0.91555982371E+01  0.00000000000E+00 0. -1.
          2    1    1    2  501    0  0.37187592552E+01  0.45815850627E+02  0.16902796027E+03  0.17516669972E+03  0.00000000000E+00 0.  1.
         -2    1    1    2    0  503 -0.37187592552E+01 -0.45815850627E+02  0.80704849719E+02  0.92877306739E+02  0.00000000000E+00 0. -1.
<mgrwt>
<rscale>  2 0.45966524E+02</rscale>
<asrwt>0</asrwt>
<pdfrwt beam="1">  1       21 0.39828980E-01 0.45966524E+02</pdfrwt>
<pdfrwt beam="2">  1       21 0.14085538E-02 0.45966524E+02</pdfrwt>
<totfact> 0.11727820E+07</totfact>
</mgrwt>
</event>
<event>
 4    1  0.2821610E+004  0.2749987E+02  0.7546771E-02  0.1627491E+00
         21   -1    0    0  503  502  0.00000000000E+00  0.00000000000E+00  0.16394978201E+01  0.16394978201E+01  0.00000000000E+00 0. -1.
         21   -1    0    0  501  503 -0.00000000000E+00 -0.00000000000E+00 -0.47828796332E+03  0.47828796332E+03  0.00000000000E+00 0.  1.
          2    1    1    2  501    0  0.23026384825E+02 -0.15034249940E+02 -0.19305348940E+03  0.19500228932E+03  0.00000000000E+00 0.  1.
         -2    1    1    2    0  502 -0.23026384825E+02  0.15034249940E+02 -0.28359497610E+03  0.28492517182E+03  0.00000000000E+00 0. -1.
<mgrwt>
<rscale>  2 0.27499874E+02</rscale>
<asrwt>0</asrwt>
<pdfrwt beam="1">  1       21 0.25223038E-03 0.27499874E+02</pdfrwt>
<pdfrwt beam="2">  1       21 0.73582780E-01 0.27499874E+02</pdfrwt>
<totfact> 0.41891452E+07</totfact>
</mgrwt>
</event>
<event>
 4    1  0.2821610E+004  0.2377412E+02  0.7546771E-02  0.1679261E+00
         21   -1    0    0  503  502  0.00000000000E+00  0.00000000000E+00  0.11579066213E+03  0.11579066213E+03  0.00000000000E+00 0.  1.
         21   -1    0    0  501  503 -0.00000000000E+00 -0.00000000000E+00 -0.50977557718E+01  0.50977557718E+01  0.00000000000E+00 0. -1.
          2    1    1    2  501    0  0.20999434610E+02  0.11145960722E+02  0.67801692148E+02  0.71848995487E+02  0.00000000000E+00 0.  1.
         -2    1    1    2    0  502 -0.20999434610E+02 -0.11145960722E+02  0.42891214211E+02  0.49039422416E+02  0.00000000000E+00 0. -1.
<mgrwt>
<rscale>  2 0.23774118E+02</rscale>
<asrwt>0</asrwt>
<pdfrwt beam="1">  1       21 0.17813946E-01 0.23774118E+02</pdfrwt>
<pdfrwt beam="2">  1       21 0.78427021E-03 0.23774118E+02</pdfrwt>
<totfact> 0.10934542E+08</totfact>
</mgrwt>
</event>
<event>
 4    1  0.2821610E+004  0.2081192E+02  0.7546771E-02  0.1729648E+00
         21   -1    0    0  503  502  0.00000000000E+00  0.00000000000E+00  0.21699613703E+03  0.21699613703E+03  0.00000000000E+00 0. -1.
         21   -1    0    0  501  503 -0.00000000000E+00 -0.00000000000E+00 -0.27888664194E+01  0.27888664194E+01  0.00000000000E+00 0.  1.
          2    1    1    2  501    0 -0.10066501245E+02 -0.18215421204E+02  0.48511488064E+02  0.52787313733E+02  0.00000000000E+00 0.  1.
         -2    1    1    2    0  502  0.10066501245E+02  0.18215421204E+02  0.16569578255E+03  0.16699768972E+03  0.00000000000E+00 0. -1.
<mgrwt>
<rscale>  2 0.20811920E+02</rscale>
<asrwt>0</asrwt>
<pdfrwt beam="1">  1       21 0.33384008E-01 0.20811920E+02</pdfrwt>
<pdfrwt beam="2">  1       21 0.42905655E-03 0.20811920E+02</pdfrwt>
<totfact> 0.84208184E+07</totfact>
</mgrwt>
</event>
<event>
 4    1  0.2821610E+004  0.2735969E+02  0.7546771E-02  0.1629253E+00
         21   -1    0    0  503  502  0.00000000000E+00  0.00000000000E+00  0.35990413792E+03  0.35990413792E+03  0.00000000000E+00 0.  1.
         21   -1    0    0  501  503 -0.00000000000E+00 -0.00000000000E+00 -0.28688128573E+01  0.28688128573E+01  0.00000000000E+00 0. -1.
          2    1    1    2  501    0 -0.22317669500E+02  0.15826374111E+02  0.83396404820E+02  0.87769657777E+02  0.00000000000E+00 0. -1.
         -2    1    1    2    0  502  0.22317669500E+02 -0.15826374111E+02  0.27363892024E+03  0.27500329300E+03  0.00000000000E+00 0.  1.
<mgrwt>
<rscale>  2 0.27359687E+02</rscale>
<asrwt>0</asrwt>
<pdfrwt beam="1">  1       21 0.55369831E-01 0.27359687E+02</pdfrwt>
<pdfrwt beam="2">  1       21 0.44135611E-03 0.27359687E+02</pdfrwt>
<totfact> 0.32811303E+07</totfact>
</mgrwt>
</event>
<event>
 4    1  0.2821610E+004  0.3687551E+02  0.7546771E-02  0.1532550E+00
         21   -1    0    0  501  502  0.00000000000E+00  0.00000000000E+00  0.52644212915E+01  0.52644212915E+01  0.00000000000E+00 0.  1.
         21   -1    0    0  502  503 -0.00000000000E+00 -0.00000000000E+00 -0.27666208218E+03  0.27666208218E+03  0.00000000000E+00 0. -1.
          2    1    1    2  501    0 -0.18805278787E+02  0.31720105387E+02 -0.99384000211E+02  0.10600463713E+03  0.00000000000E+00 0.  1.
         -2    1    1    2    0  503  0.18805278787E+02 -0.31720105387E+02 -0.17201366068E+03  0.17592186634E+03  0.00000000000E+00 0. -1.
<mgrwt>
<rscale>  2 0.36875515E+02</rscale>
<asrwt>0</asrwt>
<pdfrwt beam="1">  1       21 0.80991074E-03 0.36875515E+02</pdfrwt>
<pdfrwt beam="2">  1       21 0.42563409E-01 0.36875515E+02</pdfrwt>
<totfact> 0.23361658E+07</totfact>
</mgrwt>
</event>
<event>
 4    1  0.2821610E+004  0.2012991E+02  0.7546771E-02  0.1742757E+00
         21   -1    0    0  501  502  0.00000000000E+00  0.00000000000E+00  0.16325394298E+04  0.16325394298E+04  0.00000000000E+00 0. -1.
         21   -1    0    0  502  503 -0.00000000000E+00 -0.00000000000E+00 -0.28476742728E+00  0.28476742728E+00  0.00000000000E+00 0.  1.
          2    1    1    2  501    0  0.12774483656E+02  0.15557184064E+02  0.11086430371E+04  0.11088257740E+04  0.00000000000E+00 0. -1.
         -2    1    1    2    0  503 -0.12774483656E+02 -0.15557184064E+02  0.52361162526E+03  0.52399842320E+03  0.00000000000E+00 0.  1.
<mgrwt>
<rscale>  2 0.20129913E+02</rscale>
<asrwt>0</asrwt>
<pdfrwt beam="1">  1       21 0.25115242E+00 0.20129913E+02</pdfrwt>
<pdfrwt beam="2">  1       21 0.43811681E-04 0.20129913E+02</pdfrwt>
<totfact> 0.26565131E+07</totfact>
</mgrwt>
</event>
<event>
 4    1  0.2821610E+004  0.5063761E+02  0.7546771E-02  0.1441933E+00
         21   -1    0    0  501  502  0.00000000000E+00  0.00000000000E+00  0.75256466856E+01  0.75256466856E+01  0.00000000000E+00 0. -1.
         21   -1    0    0  502  503 -0.00000000000E+00 -0.00000000000E+00 -0.51581539660E+03  0.51581539660E+03  0.00000000000E+00 0.  1.
          2    1    1    2  501    0  0.32395105480E+02 -0.38919458678E+02 -0.10169036714E+03  0.11360060691E+03  0.00000000000E+00 0. -1.
         -2    1    1    2    0  503 -0.32395105480E+02  0.38919458678E+02 -0.40659938278E+03  0.40974043637E+03  0.00000000000E+00 0.  1.
<mgrwt>
<rscale>  2 0.50637606E+02</rscale>
<asrwt>0</asrwt>
<pdfrwt beam="1">  1       21 0.11577917E-02 0.50637606E+02</pdfrwt>
<pdfrwt beam="2">  1       21 0.79356221E-01 0.50637606E+02</pdfrwt>
<totfact> 0.39286536E+06</totfact>
</mgrwt>
</event>
<event>
 4    1  0.2821610E+004  0.2620376E+02  0.7546771E-02  0.1644290E+00
         21   -1    0    0  501  502  0.00000000000E+00  0.00000000000E+00  0.46918384350E+02  0.46918384350E+02  0.00000000000E+00 0.  1.
         21   -1    0    0  502  503 -0.00000000000E+00 -0.00000000000E+00 -0.35379671081E+02  0.35379671081E+02  0.00000000000E+00 0. -1.
          2    1    1    2  501    0 -0.21903720887E+02  0.14382769321E+02  0.37278672502E+02  0.45566835150E+02  0.00000000000E+00 0.  1.
         -2    1    1    2    0  503  0.21903720887E+02 -0.14382769321E+02 -0.25739959232E+02  0.36731220281E+02  0.00000000000E+00 0. -1.
<mgrwt>
<rscale>  2 0.26203760E+02</rscale>
<asrwt>0</asrwt>
<pdfrwt beam="1">  1       21 0.72182130E-02 0.26203760E+02</pdfrwt>
<pdfrwt beam="2">  1       21 0.54430263E-02 0.26203760E+02</pdfrwt>
<totfact> 0.25563516E+07</totfact>
</mgrwt>
</event>
<event>
 4    1  0.2821610E+004  0.2793781E+02  0.7546771E-02  0.1622070E+00
         21   -1    0    0  501  502  0.00000000000E+00  0.00000000000E+00  0.33173685505E+02  0.33173685505E+02  0.00000000000E+00 0.  1.
         21   -1    0    0  502  503 -0.00000000000E+00 -0.00000000000E+00 -0.24060724216E+02  0.24060724216E+02  0.00000000000E+00 0. -1.
          2    1    1    2  501    0 -0.21140270960E+02  0.18264999320E+02  0.88133619278E+01  0.29294992830E+02  0.00000000000E+00 0.  1.
         -2    1    1    2    0  503  0.21140270960E+02 -0.18264999320E+02  0.29959936108E+00  0.27939416891E+02  0.00000000000E+00 0. -1.
<mgrwt>
<rscale>  2 0.27937811E+02</rscale>
<asrwt>0</asrwt>
<pdfrwt beam="1">  1       21 0.51036439E-02 0.27937811E+02</pdfrwt>
<pdfrwt beam="2">  1       21 0.37016499E-02 0.27937811E+02</pdfrwt>
<totfact> 0.84059901E+07</totfact>
</mgrwt>
</event>
<event>
 4    1  0.2821610E+004  0.2338557E+02  0.7546771E-02  0.1685335E+00
         21   -1    0    0  501  502  0.00000000000E+00  0.00000000000E+00  0.38815738102E+02  0.38815738102E+02  0.00000000000E+00 0.  1.
         21   -1    0    0  502  503 -0.00000000000E+00 -0.00000000000E+00 -0.29358003002E+02  0.29358003002E+02  0.00000000000E+00 0. -1.
          2    1    1    2  501    0 -0.14463605686E+02 -0.18376318844E+02  0.29311338482E+02  0.37497193859E+02  0.00000000000E+00 0.  1.
         -2    1    1    2    0  503  0.14463605686E+02  0.18376318844E+02 -0.19853603381E+02  0.30676547246E+02  0.00000000000E+00 0. -1.
<mgrwt>
<rscale>  2 0.23385572E+02</rscale>
<asrwt>0</asrwt>
<pdfrwt beam="1">  1       21 0.59716521E-02 0.23385572E+02</pdfrwt>
<pdfrwt beam="2">  1       21 0.45166158E-02 0.23385572E+02</pdfrwt>
<totfact> 0.45577940E+07</totfact>
</mgrwt>
</event>
<event>
 4    1  0.2821610E+004  0.2156355E+02  0.7546771E-02  0.1715911E+00
         21   -1    0    0  503  502  0.00000000000E+00  0.00000000000E+00  0.85112757491E+01  0.85112757491E+01  0.00000000000E+00 0. -1.
         21   -1    0    0  501  503 -0.00000000000E+00 -0.00000000000E+00 -0.17298805670E+03  0.17298805670E+03  0.00000000000E+00 0.  1.
          2    1    1    2  501    0  0.12567321858E+02  0.17522816419E+02 -0.15730252981E+03  0.15877365196E+03  0.00000000000E+00 0.  1.
         -2    1    1    2    0  502 -0.12567321858E+02 -0.17522816419E+02 -0.71742511387E+01  0.22725680481E+02  0.00000000000E+00 0. -1.
<mgrwt>
<rscale>  2 0.21563550E+02</rscale>
<asrwt>0</asrwt>
<pdfrwt beam="1">  1       21 0.13094269E-02 0.21563550E+02</pdfrwt>
<pdfrwt beam="2">  1       21 0.26613550E-01 0.21563550E+02</pdfrwt>
<totfact> 0.24392278E+07</totfact>
</mgrwt>
</event>
<event>
 4    1  0.2821610E+004  0.2956825E+02  0.7546771E-02  0.1602911E+00
         21   -1    0    0  501  502  0.00000000000E+00  0.00000000000E+00  0.12352602546E+04  0.12352602546E+04  0.00000000000E+00 0. -1.
         21   -1    0    0  502  503 -0.00000000000E+00 -0.00000000000E+00 -0.24083315407E+01  0.24083315407E+01  0.00000000000E+00 0.  1.
          2    1    1    2  501    0  0.86367082646E+01  0.28278772295E+02  0.11364366289E+04  0.11368212231E+04  0.00000000000E+00 0. -1.
         -2    1    1    2    0  503 -0.86367082646E+01 -0.28278772295E+02  0.96415294103E+02  0.10084736303E+03  0.00000000000E+00 0.  1.
<mgrwt>
<rscale>  2 0.29568255E+02</rscale>
<asrwt>0</asrwt>
<pdfrwt beam="1">  1       21 0.19003953E+00 0.29568255E+02</pdfrwt>
<pdfrwt beam="2">  1       21 0.37051353E-03 0.29568255E+02</pdfrwt>
<totfact> 0.27224144E+06</totfact>
</mgrwt>
</event>
<event>
 4    1  0.2821610E+004  0.2685512E+02  0.7546771E-02  0.1635702E+00
         21   -1    0    0  501  502  0.00000000000E+00  0.00000000000E+00  0.19472647786E+02  0.19472647786E+02  0.00000000000E+00 0. -1.
         21   -1    0    0  502  503 -0.00000000000E+00 -0.00000000000E+00 -0.57572385848E+02  0.57572385848E+02  0.00000000000E+00 0.  1.
          2    1    1    2  501    0  0.24124269277E+02 -0.11799020389E+02  0.39573993452E+01  0.27145133262E+02  0.00000000000E+00 0. -1.
         -2    1    1    2    0  503 -0.24124269277E+02  0.11799020389E+02 -0.42057137407E+02  0.49899900372E+02  0.00000000000E+00 0.  1.
<mgrwt>
<rscale>  2 0.26855116E+02</rscale>
<asrwt>0</asrwt>
<pdfrwt beam="1">  1       21 0.29957920E-02 0.26855116E+02</pdfrwt>
<pdfrwt beam="2">  1       21 0.88572901E-02 0.26855116E+02</pdfrwt>
<totfact> 0.47353229E+07</totfact>
</mgrwt>
</event>
<event>
 4    1  0.2821610E+004  0.2011974E+02  0.7546771E-02  0.1742957E+00
         21   -1    0    0  503  502  0.00000000000E+00  0.00000000000E+00  0.21569362043E+03  0.21569362043E+03  0.00000000000E+00 0. -1.
         21   -1    0    0  501  503 -0.00000000000E+00 -0.00000000000E+00 -0.81998901209E+01  0.81998901209E+01  0.00000000000E+00 0.  1.
          2    1    1    2  501    0 -0.61569363765E+01 -0.19154534965E+02  0.54422910612E+01  0.20842807087E+02  0.00000000000E+00 0.  1.
         -2    1    1    2    0  502  0.61569363765E+01  0.19154534965E+02  0.20205143924E+03  0.20305070346E+03  0.00000000000E+00 0. -1.
<mgrwt>
<rscale>  2 0.20119743E+02</rscale>
<asrwt>0</asrwt>
<pdfrwt beam="1">  1       21 0.33183630E-01 0.20119743E+02</pdfrwt>
<pdfrwt beam="2">  1       21 0.12615217E-02 0.20119743E+02</pdfrwt>
<totfact> 0.17046269E+07</totfact>
</mgrwt>
</event>
<event>
 4    1  0.2821610E+004  0.2966810E+02  0.7546771E-02  0.1601787E+00
         21   -1    0    0  501  502  0.00000000000E+00  0.00000000000E+00  0.79188753989E+03  0.79188753989E+03  0.00000000000E+00 0.  1.
         21   -1    0    0  502  503 -0.00000000000E+00 -0.00000000000E+00 -0.12344995724E+01  0.12344995724E+01  0.00000000000E+00 0. -1.
          2    1    1    2  501    0  0.23884813791E+02  0.17598634151E+02  0.52049264390E+03  0.52133749971E+03  0.00000000000E+00 0. -1.
         -2    1    1    2    0  503 -0.23884813791E+02 -0.17598634151E+02  0.27016039641E+03  0.27178453974E+03  0.00000000000E+00 0.  1.
<mgrwt>
<rscale>  2 0.29668102E+02</rscale>
<asrwt>0</asrwt>
<pdfrwt beam="1">  1       21 0.12182845E+00 0.29668102E+02</pdfrwt>
<pdfrwt beam="2">  1       21 0.18992364E-03 0.29668102E+02</pdfrwt>
<totfact> 0.21307318E+07</totfact>
</mgrwt>
</event>
<event>
 4    1  0.2821610E+004  0.4393250E+02  0.7546771E-02  0.1481118E+00
         21   -1    0    0  503  502  0.00000000000E+00  0.00000000000E+00  0.11615500977E+03  0.11615500977E+03  0.00000000000E+00 0.  1.
         21   -1    0    0  501  503 -0.00000000000E+00 -0.00000000000E+00 -0.31784942794E+02  0.31784942794E+02  0.00000000000E+00 0. -1.
          2    1    1    2  501    0  0.43675276888E+02 -0.47470738426E+01 -0.89146684581E+01  0.44827846648E+02  0.00000000000E+00 0. -1.
         -2    1    1    2    0  502 -0.43675276888E+02  0.47470738426E+01  0.93284735433E+02  0.10311210591E+03  0.00000000000E+00 0.  1.
<mgrwt>
<rscale>  2 0.43932500E+02</rscale>
<asrwt>0</asrwt>
<pdfrwt beam="1">  1       21 0.17870001E-01 0.43932500E+02</pdfrwt>
<pdfrwt beam="2">  1       21 0.48899913E-02 0.43932500E+02</pdfrwt>
<totfact> 0.71095550E+06</totfact>
</mgrwt>
</event>
<event>
 4    1  0.2821610E+004  0.3533933E+02  0.7546771E-02  0.1545608E+00
         21   -1    0    0  503  502  0.00000000000E+00  0.00000000000E+00  0.78456412733E+01  0.78456412733E+01  0.00000000000E+00 0. -1.
         21   -1    0    0  501  503 -0.00000000000E+00 -0.00000000000E+00 -0.19972843275E+03  0.19972843275E+03  0.00000000000E+00 0.  1.
          2    1    1    2  501    0  0.35329808477E+02  0.82021746946E+00 -0.14270531720E+03  0.14701590282E+03  0.00000000000E+00 0.  1.
         -2    1    1    2    0  502 -0.35329808477E+02 -0.82021746946E+00 -0.49177474280E+02  0.60558171210E+02  0.00000000000E+00 0. -1.
<mgrwt>
<rscale>  2 0.35339328E+02</rscale>
<asrwt>0</asrwt>
<pdfrwt beam="1">  1       21 0.12070215E-02 0.35339328E+02</pdfrwt>
<pdfrwt beam="2">  1       21 0.30727456E-01 0.35339328E+02</pdfrwt>
<totfact> 0.23419790E+07</totfact>
</mgrwt>
</event>
<event>
 4    1  0.2821610E+004  0.2934102E+02  0.7546771E-02  0.1605489E+00
         21   -1    0    0  501  502  0.00000000000E+00  0.00000000000E+00  0.11518081843E+02  0.11518081843E+02  0.00000000000E+00 0.  1.
         21   -1    0    0  502  503 -0.00000000000E+00 -0.00000000000E+00 -0.16096468369E+03  0.16096468369E+03  0.00000000000E+00 0. -1.
          2    1    1    2  501    0  0.29187281714E+02 -0.29996740096E+01 -0.11604494584E+02  0.31552492019E+02  0.00000000000E+00 0.  1.
         -2    1    1    2    0  503 -0.29187281714E+02  0.29996740096E+01 -0.13784210726E+03  0.14093027351E+03  0.00000000000E+00 0. -1.
<mgrwt>
<rscale>  2 0.29341020E+02</rscale>
<asrwt>0</asrwt>
<pdfrwt beam="1">  1       21 0.17720126E-02 0.29341020E+02</pdfrwt>
<pdfrwt beam="2">  1       21 0.24763797E-01 0.29341020E+02</pdfrwt>
<totfact> 0.18638944E+07</totfact>
</mgrwt>
</event>
<event>
 4    1  0.2821610E+004  0.2802646E+02  0.7546771E-02  0.1620987E+00
         21   -1    0    0  501  502  0.00000000000E+00  0.00000000000E+00  0.94124799600E+00  0.94124799600E+00  0.00000000000E+00 0.  1.
         21   -1    0    0  502  503 -0.00000000000E+00 -0.00000000000E+00 -0.16331197963E+04  0.16331197963E+04  0.00000000000E+00 0. -1.
          2    1    1    2  501    0 -0.20266639743E+02 -0.19358353063E+02 -0.24474734356E+03  0.24634679762E+03  0.00000000000E+00 0.  1.
         -2    1    1    2    0  503  0.20266639743E+02  0.19358353063E+02 -0.13874312047E+04  0.13877142467E+04  0.00000000000E+00 0. -1.
<mgrwt>
<rscale>  2 0.28026461E+02</rscale>
<asrwt>0</asrwt>
<pdfrwt beam="1">  1       21 0.14480718E-03 0.28026461E+02</pdfrwt>
<pdfrwt beam="2">  1       21 0.25124955E+00 0.28026461E+02</pdfrwt>
<totfact> 0.49890431E+06</totfact>
</mgrwt>
</event>
<event>
 4    1  0.2821610E+004  0.3045097E+02  0.7546771E-02  0.1593157E+00
         21   -1    0    0  501  502  0.00000000000E+00  0.00000000000E+00  0.24236239045E+02  0.24236239045E+02  0.00000000000E+00 0. -1.
         21   -1    0    0  502  503 -0.00000000000E+00 -0.00000000000E+00 -0.41892265815E+03  0.41892265815E+03  0.00000000000E+00 0.  1.
          2    1    1    2  501    0  0.28996362212E+02  0.92990650237E+01  0.13875841505E+02  0.33463421961E+02  0.00000000000E+00 0. -1.
         -2    1    1    2    0  503 -0.28996362212E+02 -0.92990650237E+01 -0.40856226061E+03  0.40969547523E+03  0.00000000000E+00 0.  1.
<mgrwt>
<rscale>  2 0.30450971E+02</rscale>
<asrwt>0</asrwt>
<pdfrwt beam="1">  1       21 0.37286525E-02 0.30450971E+02</pdfrwt>
<pdfrwt beam="2">  1       21 0.64449635E-01 0.30450971E+02</pdfrwt>
<totfact> 0.94083345E+05</totfact>
</mgrwt>
</event>
<event>
 4    1  0.2821610E+004  0.2117052E+02  0.7546771E-02  0.1723005E+00
         21   -1    0    0  501  502  0.00000000000E+00  0.00000000000E+00  0.22216367719E+03  0.22216367719E+03  0.00000000000E+00 0. -1.
         21   -1    0    0  502  503 -0.00000000000E+00 -0.00000000000E+00 -0.57277657655E+01  0.57277657655E+01  0.00000000000E+00 0.  1.
          2    1    1    2  501    0 -0.78104948472E+01  0.19677073276E+02  0.19992744528E+03  0.20104520492E+03  0.00000000000E+00 0. -1.
         -2    1    1    2    0  503  0.78104948472E+01 -0.19677073276E+02  0.16508466139E+02  0.26846238037E+02  0.00000000000E+00 0.  1.
<mgrwt>
<rscale>  2 0.21170523E+02</rscale>
<asrwt>0</asrwt>
<pdfrwt beam="1">  1       21 0.34179021E-01 0.21170523E+02</pdfrwt>
<pdfrwt beam="2">  1       21 0.88119491E-03 0.21170523E+02</pdfrwt>
<totfact> 0.27956268E+07</totfact>
</mgrwt>
</event>
<event>
 4    1  0.2821610E+004  0.2264735E+02  0.7546771E-02  0.1697291E+00
         21   -1    0    0  503  502  0.00000000000E+00  0.00000000000E+00  0.24500449645E+02  0.24500449645E+02  0.00000000000E+00 0. -1.
         21   -1    0    0  501  503 -0.00000000000E+00 -0.00000000000E+00 -0.34808948003E+02  0.34808948003E+02  0.00000000000E+00 0.  1.
          2    1    1    2  501    0 -0.11386251963E+02 -0.19576918608E+02 -0.23876468243E+02  0.32908786239E+02  0.00000000000E+00 0.  1.
         -2    1    1    2    0  502  0.11386251963E+02  0.19576918608E+02  0.13567969886E+02  0.26400611409E+02  0.00000000000E+00 0. -1.
<mgrwt>
<rscale>  2 0.22647350E+02</rscale>
<asrwt>0</asrwt>
<pdfrwt beam="1">  1       21 0.37693000E-02 0.22647350E+02</pdfrwt>
<pdfrwt beam="2">  1       21 0.53552228E-02 0.22647350E+02</pdfrwt>
<totfact> 0.71577305E+07</totfact>
</mgrwt>
</event>
<event>
 4    1  0.2821610E+004  0.2302185E+02  0.7546771E-02  0.1691156E+00
         21   -1    0    0  501  502  0.00000000000E+00  0.00000000000E+00  0.19367269027E+02  0.19367269027E+02  0.00000000000E+00 0. -1.
         21   -1    0    0  502  503 -0.00000000000E+00 -0.00000000000E+00 -0.33431955744E+02  0.33431955744E+02  0.00000000000E+00 0.  1.
          2    1    1    2  501    0  0.95552509305E+00 -0.23002012255E+02  0.42127895327E+01  0.23404127662E+02  0.00000000000E+00 0. -1.
         -2    1    1    2    0  503 -0.95552509305E+00  0.23002012255E+02 -0.18277476249E+02  0.29395097109E+02  0.00000000000E+00 0.  1.
<mgrwt>
<rscale>  2 0.23021850E+02</rscale>
<asrwt>0</asrwt>
<pdfrwt beam="1">  1       21 0.29795799E-02 0.23021850E+02</pdfrwt>
<pdfrwt beam="2">  1       21 0.51433778E-02 0.23021850E+02</pdfrwt>
<totfact> 0.11077336E+08</totfact>
</mgrwt>
</event>
<event>
 4    1  0.2821610E+004  0.2625436E+02  0.7546771E-02  0.1643612E+00
         21   -1    0    0  503  502  0.00000000000E+00  0.00000000000E+00  0.17119899294E+03  0.17119899294E+03  0.00000000000E+00 0.  1.
         21   -1    0    0  501  503 -0.00000000000E+00 -0.00000000000E+00 -0.93371580799E+01  0.93371580799E+01  0.00000000000E+00 0. -1.
          2    1    1    2  501    0  0.68711416746E+01  0.25339269662E+02  0.12852268782E+02  0.29231352821E+02  0.00000000000E+00 0. -1.
         -2    1    1    2    0  502 -0.68711416746E+01 -0.25339269662E+02  0.14900956608E+03  0.15130479820E+03  0.00000000000E+00 0.  1.
<mgrwt>
<rscale>  2 0.26254355E+02</rscale>
<asrwt>0</asrwt>
<pdfrwt beam="1">  1       21 0.26338304E-01 0.26254355E+02</pdfrwt>
<pdfrwt beam="2">  1       21 0.14364860E-02 0.26254355E+02</pdfrwt>
<totfact> 0.22523252E+07</totfact>
</mgrwt>
</event>
<event>
 4    1  0.2821610E+004  0.3980940E+02  0.7546771E-02  0.1509619E+00
         21   -1    0    0  501  502  0.00000000000E+00  0.00000000000E+00  0.97789131485E+01  0.97789131485E+01  0.00000000000E+00 0. -1.
         21   -1    0    0  502  503 -0.00000000000E+00 -0.00000000000E+00 -0.18628254061E+03  0.18628254061E+03  0.00000000000E+00 0.  1.
          2    1    1    2  501    0 -0.17743649478E+01  0.39769842054E+02 -0.52903438898E+02  0.66208477971E+02  0.00000000000E+00 0. -1.
         -2    1    1    2    0  503  0.17743649478E+01 -0.39769842054E+02 -0.12360018857E+03  0.12985297579E+03  0.00000000000E+00 0.  1.
<mgrwt>
<rscale>  2 0.39809405E+02</rscale>
<asrwt>0</asrwt>
<pdfrwt beam="1">  1       21 0.15044482E-02 0.39809405E+02</pdfrwt>
<pdfrwt beam="2">  1       21 0.28658851E-01 0.39809405E+02</pdfrwt>
<totfact> 0.19344090E+07</totfact>
</mgrwt>
</event>
<event>
 4    1  0.2821610E+004  0.2327682E+02  0.7546771E-02  0.1687062E+00
         21   -1    0    0  503  502  0.00000000000E+00  0.00000000000E+00  0.23819449736E+02  0.23819449736E+02  0.00000000000E+00 0. -1.
         21   -1    0    0  501  503 -0.00000000000E+00 -0.00000000000E+00 -0.23866468273E+02  0.23866468273E+02  0.00000000000E+00 0.  1.
          2    1    1    2  501    0  0.60656000473E+01 -0.22472628034E+02 -0.51883570544E+01  0.23848051569E+02  0.00000000000E+00 0.  1.
         -2    1    1    2    0  502 -0.60656000473E+01  0.22472628034E+02  0.51413385176E+01  0.23837866441E+02  0.00000000000E+00 0. -1.
<mgrwt>
<rscale>  2 0.23276824E+02</rscale>
<asrwt>0</asrwt>
<pdfrwt beam="1">  1       21 0.36645308E-02 0.23276824E+02</pdfrwt>
<pdfrwt beam="2">  1       21 0.36717643E-02 0.23276824E+02</pdfrwt>
<totfact> 0.13706376E+08</totfact>
</mgrwt>
</event>
<event>
 4    1  0.2821610E+004  0.2513812E+02  0.7546771E-02  0.1659026E+00
         21   -1    0    0  503  502  0.00000000000E+00  0.00000000000E+00  0.13867850612E+01  0.13867850612E+01  0.00000000000E+00 0.  1.
         21   -1    0    0  501  503 -0.00000000000E+00 -0.00000000000E+00 -0.48195654294E+03  0.48195654294E+03  0.00000000000E+00 0. -1.
          2    1    1    2  501    0  0.49955970554E+01  0.24636737999E+02 -0.29671849621E+03  0.29778144811E+03  0.00000000000E+00 0.  1.
         -2    1    1    2    0  502 -0.49955970554E+01 -0.24636737999E+02 -0.18385126167E+03  0.18556187989E+03  0.00000000000E+00 0. -1.
<mgrwt>
<rscale>  2 0.25138115E+02</rscale>
<asrwt>0</asrwt>
<pdfrwt beam="1">  1       21 0.21335142E-03 0.25138115E+02</pdfrwt>
<pdfrwt beam="2">  1       21 0.74147204E-01 0.25138115E+02</pdfrwt>
<totfact> 0.51636421E+07</totfact>
</mgrwt>
</event>
<event>
 4    1  0.2821610E+004  0.2308499E+02  0.7546771E-02  0.1690136E+00
         21   -1    0    0  503  502  0.00000000000E+00  0.00000000000E+00  0.17345186313E+02  0.17345186313E+02  0.00000000000E+00 0. -1.
         21   -1    0    0  501  503 -0.00000000000E+00 -0.00000000000E+00 -0.19464477671E+03  0.19464477671E+03  0.00000000000E+00 0.  1.
          2    1    1    2  501    0 -0.21788424000E+02 -0.76276594538E+01 -0.18592019277E+03  0.18734789748E+03  0.00000000000E+00 0.  1.
         -2    1    1    2    0  502  0.21788424000E+02  0.76276594538E+01  0.86206023728E+01  0.24642065547E+02  0.00000000000E+00 0. -1.
<mgrwt>
<rscale>  2 0.23084987E+02</rscale>
<asrwt>0</asrwt>
<pdfrwt beam="1">  1       21 0.26684903E-02 0.23084987E+02</pdfrwt>
<pdfrwt beam="2">  1       21 0.29945350E-01 0.23084987E+02</pdfrwt>
<totfact> 0.67270971E+06</totfact>
</mgrwt>
</event>
<event>
 4    1  0.2821610E+004  0.2098729E+02  0.7546771E-02  0.1726379E+00
         21   -1    0    0  503  502  0.00000000000E+00  0.00000000000E+00  0.85713446164E+02  0.85713446164E+02  0.00000000000E+00 0. -1.
         21   -1    0    0  501  503 -0.00000000000E+00 -0.00000000000E+00 -0.26432678257E+02  0.26432678257E+02  0.00000000000E+00 0.  1.
          2    1    1    2  501    0  0.20817957298E+01  0.20883787462E+02 -0.20687748067E+02  0.29469465083E+02  0.00000000000E+00 0.  1.
         -2    1    1    2    0  502 -0.20817957298E+01 -0.20883787462E+02  0.79968515973E+02  0.82676659337E+02  0.00000000000E+00 0. -1.
<mgrwt>
<rscale>  2 0.20987293E+02</rscale>
<asrwt>0</asrwt>
<pdfrwt beam="1">  1       21 0.13186684E-01 0.20987293E+02</pdfrwt>
<pdfrwt beam="2">  1       21 0.40665659E-02 0.20987293E+02</pdfrwt>
<totfact> 0.14297039E+07</totfact>
</mgrwt>
</event>
<event>
 4    1  0.2821610E+004  0.2122010E+02  0.7546771E-02  0.1722100E+00
         21   -1    0    0  501  502  0.00000000000E+00  0.00000000000E+00  0.83298444015E+00  0.83298444015E+00  0.00000000000E+00 0.  1.
         21   -1    0    0  502  503 -0.00000000000E+00 -0.00000000000E+00 -0.80264113005E+03  0.80264113005E+03  0.00000000000E+00 0. -1.
          2    1    1    2  501    0 -0.18092739771E+02  0.11088081363E+02 -0.17135030205E+03  0.17265925632E+03  0.00000000000E+00 0.  1.
         -2    1    1    2    0  503  0.18092739771E+02 -0.11088081363E+02 -0.63045784356E+03  0.63081485817E+03  0.00000000000E+00 0. -1.
<mgrwt>
<rscale>  2 0.21220103E+02</rscale>
<asrwt>0</asrwt>
<pdfrwt beam="1">  1       21 0.12815143E-03 0.21220103E+02</pdfrwt>
<pdfrwt beam="2">  1       21 0.12348327E+00 0.21220103E+02</pdfrwt>
<totfact> 0.34275241E+07</totfact>
</mgrwt>
</event>
<event>
 4    1  0.2821610E+004  0.2019592E+02  0.7546771E-02  0.1741460E+00
         21   -1    0    0  503  502  0.00000000000E+00  0.00000000000E+00  0.23617414253E+02  0.23617414253E+02  0.00000000000E+00 0.  1.
         21   -1    0    0  501  503 -0.00000000000E+00 -0.00000000000E+00 -0.32274955387E+02  0.32274955387E+02  0.00000000000E+00 0. -1.
          2    1    1    2  501    0 -0.19724497679E+02 -0.43381303728E+01 -0.23383621733E+02  0.30897717540E+02  0.00000000000E+00 0. -1.
         -2    1    1    2    0  502  0.19724497679E+02  0.43381303728E+01  0.14726080598E+02  0.24994652100E+02  0.00000000000E+00 0.  1.
<mgrwt>
<rscale>  2 0.20195920E+02</rscale>
<asrwt>0</asrwt>
<pdfrwt beam="1">  1       21 0.36334484E-02 0.20195920E+02</pdfrwt>
<pdfrwt beam="2">  1       21 0.49653777E-02 0.20195920E+02</pdfrwt>
<totfact> 0.82767832E+07</totfact>
</mgrwt>
</event>
<event>
 4    1  0.2821610E+004  0.3072589E+02  0.7546771E-02  0.1590201E+00
         21   -1    0    0  503  502  0.00000000000E+00  0.00000000000E+00  0.21661563142E+01  0.21661563142E+01  0.00000000000E+00 0.  1.
         21   -1    0    0  501  503 -0.00000000000E+00 -0.00000000000E+00 -0.43618967615E+03  0.43618967615E+03  0.00000000000E+00 0. -1.
          2    1    1    2  501    0  0.30400912674E+02  0.44569895798E+01 -0.21073548985E+03  0.21296367514E+03  0.00000000000E+00 0.  1.
         -2    1    1    2    0  502 -0.30400912674E+02 -0.44569895798E+01 -0.22328802998E+03  0.22539215732E+03  0.00000000000E+00 0. -1.
<mgrwt>
<rscale>  2 0.30725889E+02</rscale>
<asrwt>0</asrwt>
<pdfrwt beam="1">  1       21 0.33325487E-03 0.30725889E+02</pdfrwt>
<pdfrwt beam="2">  1       21 0.67106093E-01 0.30725889E+02</pdfrwt>
<totfact> 0.34414807E+07</totfact>
</mgrwt>
</event>
<event>
 4    1  0.2821610E+004  0.2347580E+02  0.7546771E-02  0.1683912E+00
         21   -1    0    0  503  502  0.00000000000E+00  0.00000000000E+00  0.36557391203E+01  0.36557391203E+01  0.00000000000E+00 0.  1.
         21   -1    0    0  501  503 -0.00000000000E+00 -0.00000000000E+00 -0.48319630511E+03  0.48319630511E+03  0.00000000000E+00 0. -1.
          2    1    1    2  501    0 -0.20161869806E+02  0.12025489500E+02 -0.44168317063E+03  0.44230660928E+03  0.00000000000E+00 0. -1.
         -2    1    1    2    0  502  0.20161869806E+02 -0.12025489500E+02 -0.37857395356E+02  0.44545434951E+02  0.00000000000E+00 0.  1.
<mgrwt>
<rscale>  2 0.23475804E+02</rscale>
<asrwt>0</asrwt>
<pdfrwt beam="1">  1       21 0.56242168E-03 0.23475804E+02</pdfrwt>
<pdfrwt beam="2">  1       21 0.74337856E-01 0.23475804E+02</pdfrwt>
<totfact> 0.12250893E+07</totfact>
</mgrwt>
</event>
<event>
 4    1  0.2821610E+004  0.2758108E+02  0.7546771E-02  0.1626476E+00
         21   -1    0    0  501  502  0.00000000000E+00  0.00000000000E+00  0.51744369827E+02  0.51744369827E+02  0.00000000000E+00 0.  1.
         21   -1    0    0  502  503 -0.00000000000E+00 -0.00000000000E+00 -0.15860473138E+02  0.15860473138E+02  0.00000000000E+00 0. -1.
          2    1    1    2  501    0  0.20745358067E+01  0.27502953922E+02  0.27079708444E+02  0.38652642635E+02  0.00000000000E+00 0.  1.
         -2    1    1    2    0  503 -0.20745358067E+01 -0.27502953922E+02  0.88041882458E+01  0.28952200330E+02  0.00000000000E+00 0. -1.
<mgrwt>
<rscale>  2 0.27581084E+02</rscale>
<asrwt>0</asrwt>
<pdfrwt beam="1">  1       21 0.79606722E-02 0.27581084E+02</pdfrwt>
<pdfrwt beam="2">  1       21 0.24400728E-02 0.27581084E+02</pdfrwt>
<totfact> 0.78268169E+07</totfact>
</mgrwt>
</event>
